<event>
12    1  0.1877663E-010  0.1309245E+04  0.7818608E-02  0.9022266E-01
          1   -1    0    0  501    0  0.00000000000E+00  0.00000000000E+00  0.71231676787E+03  0.71231676787E+03  0.00000000000E+00 0. -1.
         -1   -1    0    0    0  501 -0.00000000000E+00 -0.00000000000E+00 -0.60160077884E+03  0.60160077884E+03  0.00000000000E+00 0.  1.
    9900016    2    1    2    0    0 -0.81749284604E+02 -0.28027397780E+03  0.38770288640E+03  0.85202941587E+03  0.70028861851E+03 0.  0.
         25    2    3    3    0    0 -0.19827325180E+03 -0.11878986626E+03 -0.13302560210E+03  0.29452326169E+03  0.12499930462E+03 0.  0.
         23    2    4    4    0    0 -0.10906341202E+03 -0.65545677271E+02 -0.78946010758E+02  0.17526994791E+03  0.91082481166E+02 0.  0.
        -15    1    4    4    0    0 -0.37127368632E+02 -0.33066518834E+02 -0.32377950937E+02  0.59331002656E+02  0.00000000000E+00 0.  1.
        -15    1    5    5    0    0 -0.32814399535E+02 -0.80574274791E+01 -0.71989048605E+02  0.79524399234E+02  0.00000000000E+00 0. -1.
         15    1    4    4    0    0 -0.52082471154E+02 -0.20177670158E+02 -0.21701640407E+02  0.59922311127E+02  0.00000000000E+00 0. -1.
         15    1    5    5    0    0 -0.76249012481E+02 -0.57488249791E+02 -0.69569621528E+01  0.95745548674E+02  0.00000000000E+00 0.  1.
        -16    1    1    2    0    0  0.26828951006E+02  0.11801859863E+03 -0.23352278774E+03  0.26302295456E+03  0.00000000000E+00 0.  1.
         16    1    3    3    0    0  0.11652396720E+03 -0.16148411154E+03  0.52072848850E+03  0.55750615418E+03  0.00000000000E+00 0. -1.
    9900018    1    1    2    0    0  0.54920333598E+02  0.16225537917E+03 -0.43464109632E+02  0.19886517627E+03  0.91187600000E+02 0.  0.
<mgrwt>
<rscale>  0 0.13092445E+04</rscale>
<asrwt>0</asrwt>
<pdfrwt beam="1">  1        1 0.10958719E+00 0.13092445E+04</pdfrwt>
<pdfrwt beam="2">  1       -1 0.92553966E-01 0.13092445E+04</pdfrwt>
<totfact> 0.29581438E+01</totfact>
</mgrwt>
</event>
<event>
12    1  0.1877663E-010  0.1588118E+04  0.7818608E-02  0.8827881E-01
          1   -1    0    0  501    0  0.00000000000E+00  0.00000000000E+00  0.23179824710E+04  0.23179824710E+04  0.00000000000E+00 0. -1.
         -1   -1    0    0    0  501 -0.00000000000E+00 -0.00000000000E+00 -0.27201661245E+03  0.27201661245E+03  0.00000000000E+00 0.  1.
    9900016    2    1    2    0    0  0.70009862743E+02 -0.27796100243E+02  0.48812971034E+03  0.85264772430E+03  0.69502771424E+03 0.  0.
         25    2    3    3    0    0 -0.35146467761E+02 -0.14870650787E+03 -0.11508337235E+03  0.22851376140E+03  0.12500182750E+03 0.  0.
         23    2    4    4    0    0 -0.27045422088E+02 -0.11757063847E+03 -0.58880507398E+02  0.15931849156E+03  0.85797189443E+02 0.  0.
        -15    1    4    4    0    0 -0.65364512070E+01 -0.20864589509E+02 -0.54427388653E+02  0.58654896857E+02  0.00000000000E+00 0. -1.
        -15    1    5    5    0    0 -0.56294918263E+02 -0.76484587783E+02 -0.23866163579E+02  0.97921416220E+02  0.00000000000E+00 0.  1.
         15    1    4    4    0    0 -0.15645944661E+01 -0.10271279889E+02 -0.17754763017E+01  0.10540372978E+02  0.00000000000E+00 0.  1.
         15    1    5    5    0    0  0.29249496175E+02 -0.41086050687E+02 -0.35014343819E+02  0.61397075343E+02  0.00000000000E+00 0. -1.
        -16    1    3    3    0    0  0.10515633050E+03  0.12091040763E+03  0.60321308269E+03  0.62413396290E+03  0.00000000000E+00 0.  1.
         16    1    1    2    0    0 -0.24318236988E+03 -0.22184689053E+03  0.31839848615E+03  0.45796430411E+03  0.00000000000E+00 0. -1.
    9900018    1    1    2    0    0  0.17317250713E+03  0.24964299077E+03  0.12394376620E+04  0.12793870550E+04  0.91187600000E+02 0.  0.
<mgrwt>
<rscale>  0 0.15881181E+04</rscale>
<asrwt>0</asrwt>
<pdfrwt beam="1">  1        1 0.35661268E+00 0.15881181E+04</pdfrwt>
<pdfrwt beam="2">  1       -1 0.41848711E-01 0.15881181E+04</pdfrwt>
<totfact> 0.97518942E+00</totfact>
</mgrwt>
</event>
<event>
12    1  0.1877663E-010  0.1741879E+04  0.7818608E-02  0.8737833E-01
          2   -1    0    0  501    0  0.00000000000E+00  0.00000000000E+00  0.94862037228E+03  0.94862037228E+03  0.00000000000E+00 0. -1.
         -2   -1    0    0    0  501 -0.00000000000E+00 -0.00000000000E+00 -0.79962001123E+03  0.79962001123E+03  0.00000000000E+00 0.  1.
    9900016    2    1    2    0    0 -0.23447140280E+03 -0.36349665148E+02  0.42354211308E+03  0.84744491907E+03  0.69460552289E+03 0.  0.
         25    2    3    3    0    0  0.14136289381E+01 -0.32473814108E+03  0.28557036730E+03  0.45014671384E+03  0.12499908271E+03 0.  0.
         23    2    4    4    0    0  0.73611881500E+00 -0.29585889361E+03  0.26986477010E+03  0.41068816831E+03  0.91130404640E+02 0.  0.
        -15    1    4    4    0    0  0.99719623118E+01 -0.16654666861E+02  0.14153325195E+02  0.24023625344E+02  0.00000000000E+00 0.  1.
        -15    1    5    5    0    0 -0.26886556213E+02 -0.23292839387E+02  0.28895793238E+02  0.45830231710E+02  0.00000000000E+00 0.  1.
         15    1    4    4    0    0 -0.92944521887E+01 -0.12224580615E+02  0.15522719991E+01  0.15434920183E+02  0.00000000000E+00 0. -1.
         15    1    5    5    0    0  0.27622675028E+02 -0.27256605422E+03  0.24096897687E+03  0.36485793660E+03  0.00000000000E+00 0. -1.
        -16    1    3    3    0    0 -0.23588503174E+03  0.28838847593E+03  0.13797174578E+03  0.39729820523E+03  0.00000000000E+00 0.  1.
         16    1    1    2    0    0  0.48351436328E+03 -0.17966343966E+03 -0.15933723460E+03  0.53986428422E+03  0.00000000000E+00 0. -1.
    9900018    1    1    2    0    0 -0.24904296048E+03  0.21601310481E+03 -0.11520451743E+03  0.36093118021E+03  0.91187600000E+02 0.  0.
<mgrwt>
<rscale>  0 0.17418793E+04</rscale>
<asrwt>0</asrwt>
<pdfrwt beam="1">  1        2 0.14594160E+00 0.17418793E+04</pdfrwt>
<pdfrwt beam="2">  1       -2 0.12301846E+00 0.17418793E+04</pdfrwt>
<totfact> 0.12878346E+01</totfact>
</mgrwt>
</event>
<event>
12    1  0.1877663E-010  0.1051946E+04  0.7818608E-02  0.9253337E-01
         -2   -1    0    0    0  501 -0.00000000000E+00  0.00000000000E+00  0.11678077790E+04  0.11678077790E+04  0.00000000000E+00 0.  1.
          2   -1    0    0  501    0  0.00000000000E+00 -0.00000000000E+00 -0.23689481724E+03  0.23689481724E+03  0.00000000000E+00 0. -1.
    9900016    2    1    2    0    0 -0.39446335617E+02 -0.12257407367E+02  0.63063521082E+03  0.95364587987E+03  0.71416625350E+03 0.  0.
         25    2    3    3    0    0 -0.30235159830E+03  0.25989783719E+02  0.73386521264E+02  0.33630632437E+03  0.12499761778E+03 0.  0.
         23    2    4    4    0    0 -0.22159067194E+03  0.94622176396E+01  0.46435676037E+02  0.24371689439E+03  0.89720082207E+02 0.  0.
        -15    1    4    4    0    0 -0.46525732800E+02  0.30884045873E+01  0.30379310549E+02  0.55651456089E+02  0.00000000000E+00 0. -1.
        -15    1    5    5    0    0 -0.69899746940E+02  0.37658456903E+02  0.40934704110E+02  0.89329636735E+02  0.00000000000E+00 0. -1.
         15    1    4    4    0    0 -0.34235193565E+02  0.13439161492E+02 -0.34284653218E+01  0.36937973882E+02  0.00000000000E+00 0.  1.
         15    1    5    5    0    0 -0.15169092500E+03 -0.28196239263E+02  0.55009719272E+01  0.15438725766E+03  0.00000000000E+00 0.  1.
        -16    1    1    2    0    0 -0.13331200356E+02 -0.14457422861E+03  0.10380464276E+03  0.17847922103E+03  0.00000000000E+00 0.  1.
         16    1    3    3    0    0  0.26290526269E+03 -0.38247191085E+02  0.55724868956E+03  0.61733955550E+03  0.00000000000E+00 0. -1.
    9900018    1    1    2    0    0  0.52777535973E+02  0.15683163597E+03  0.19647310823E+03  0.27257749539E+03  0.91187600000E+02 0.  0.
<mgrwt>
<rscale>  0 0.10519460E+04</rscale>
<asrwt>0</asrwt>
<pdfrwt beam="1">  1        2 0.36445357E-01 0.10519460E+04</pdfrwt>
<pdfrwt beam="2">  1       -2 0.17966273E+00 0.10519460E+04</pdfrwt>
<totfact> 0.25933135E+01</totfact>
</mgrwt>
</event>
<event>
12    1  0.1877663E-010  0.1319011E+04  0.7818608E-02  0.9014624E-01
         -2   -1    0    0    0  501 -0.00000000000E+00  0.00000000000E+00  0.77809833787E+03  0.77809833787E+03  0.00000000000E+00 0. -1.
          2   -1    0    0  501    0  0.00000000000E+00 -0.00000000000E+00 -0.55898742620E+03  0.55898742620E+03  0.00000000000E+00 0.  1.
    9900016    2    1    2    0    0 -0.26940349249E+02  0.22232182747E+03 -0.83536156819E+02  0.74274893286E+03  0.70323887149E+03 0.  0.
         25    2    3    3    0    0 -0.15211392015E+03 -0.11789109726E+03 -0.25386953475E+03  0.34221589222E+03  0.12500008280E+03 0.  0.
         23    2    4    4    0    0 -0.11464037759E+03 -0.82187900526E+02 -0.15681948051E+03  0.22974128208E+03  0.91057344906E+02 0.  0.
        -15    1    4    4    0    0 -0.17660000796E+02 -0.30016027476E+01 -0.39609436085E+02  0.43471745699E+02  0.00000000000E+00 0. -1.
        -15    1    5    5    0    0 -0.28674993981E+02  0.63886710328E+01 -0.77847879589E+02  0.83206747046E+02  0.00000000000E+00 0.  1.
         15    1    4    4    0    0 -0.19813541765E+02 -0.32701593986E+02 -0.57440618155E+02  0.69002864437E+02  0.00000000000E+00 0.  1.
         15    1    5    5    0    0 -0.85965383605E+02 -0.88576571559E+02 -0.78971600918E+02  0.14653453504E+03  0.00000000000E+00 0. -1.
        -16    1    1    2    0    0  0.11936383625E+03 -0.26668231082E+03  0.35902970777E+02  0.29437425773E+03  0.00000000000E+00 0.  1.
         16    1    3    3    0    0  0.12517357090E+03  0.34021292473E+03  0.17033337793E+03  0.40053304064E+03  0.00000000000E+00 0. -1.
    9900018    1    1    2    0    0 -0.92423486997E+02  0.44360483346E+02  0.26674409771E+03  0.29996257348E+03  0.91187600000E+02 0.  0.
<mgrwt>
<rscale>  0 0.13190105E+04</rscale>
<asrwt>0</asrwt>
<pdfrwt beam="1">  1        2 0.85998066E-01 0.13190105E+04</pdfrwt>
<pdfrwt beam="2">  1       -2 0.11970744E+00 0.13190105E+04</pdfrwt>
<totfact> 0.28233298E+01</totfact>
</mgrwt>
</event>
<event>
12    1  0.1877663E-010  0.1260368E+04  0.7818608E-02  0.9061598E-01
         -1   -1    0    0    0  501 -0.00000000000E+00  0.00000000000E+00  0.96322712851E+03  0.96322712851E+03  0.00000000000E+00 0.  1.
          1   -1    0    0  501    0  0.00000000000E+00 -0.00000000000E+00 -0.41229313088E+03  0.41229313088E+03  0.00000000000E+00 0. -1.
    9900016    2    1    2    0    0 -0.16394360583E+03 -0.55230152274E+02  0.66131052700E+03  0.98278516808E+03  0.70612123454E+03 0.  0.
         25    2    3    3    0    0 -0.13344840178E+03 -0.30053216284E+03  0.94253689877E+02  0.36419282220E+03  0.12499838738E+03 0.  0.
         23    2    4    4    0    0 -0.13821759367E+03 -0.26735431055E+03  0.89489854887E+02  0.32645342581E+03  0.89336300151E+02 0.  0.
        -15    1    4    4    0    0 -0.23374248461E+00 -0.22820181213E+02 -0.41392954843E+01  0.23193729179E+02  0.00000000000E+00 0.  1.
        -15    1    5    5    0    0 -0.10423922126E+03 -0.20597222870E+03  0.26855951241E+02  0.23240399386E+03  0.00000000000E+00 0. -1.
         15    1    5    5    0    0 -0.33978372407E+02 -0.61382081847E+02  0.62633903646E+02  0.94049431945E+02  0.00000000000E+00 0.  1.
         15    1    4    4    0    0  0.50029343706E+01 -0.10357671074E+02  0.89031304740E+01  0.14545667212E+02  0.00000000000E+00 0. -1.
        -16    1    3    3    0    0 -0.30495204045E+02  0.24530201056E+03  0.56705683712E+03  0.61859234588E+03  0.00000000000E+00 0.  1.
         16    1    1    2    0    0 -0.25053214646E+02 -0.56207237756E+02 -0.14035450987E+03  0.15325242439E+03  0.00000000000E+00 0. -1.
    9900018    1    1    2    0    0  0.18899682047E+03  0.11143739003E+03  0.29977980502E+02  0.23948266692E+03  0.91187600000E+02 0.  0.
<mgrwt>
<rscale>  0 0.12603681E+04</rscale>
<asrwt>0</asrwt>
<pdfrwt beam="1">  1        1 0.63429713E-01 0.12603681E+04</pdfrwt>
<pdfrwt beam="2">  1       -1 0.14818879E+00 0.12603681E+04</pdfrwt>
<totfact> 0.20469414E+01</totfact>
</mgrwt>
</event>
<event>
12    1  0.1877663E-010  0.1101637E+04  0.7818608E-02  0.9203598E-01
         -4   -1    0    0    0  501 -0.00000000000E+00  0.00000000000E+00  0.68525132871E+03  0.68525132871E+03  0.00000000000E+00 0.  1.
          4   -1    0    0  501    0  0.00000000000E+00 -0.00000000000E+00 -0.44275840247E+03  0.44275840247E+03  0.00000000000E+00 0. -1.
    9900016    2    1    2    0    0 -0.13422361650E+01  0.12872663132E+03  0.15228792295E+03  0.73073503171E+03  0.70300051769E+03 0.  0.
         25    2    3    3    0    0 -0.10651830792E+02 -0.33123578706E+02  0.40790451499E+03  0.42804376793E+03  0.12499896377E+03 0.  0.
         23    2    4    4    0    0 -0.90978247494E+01 -0.31413034505E+02  0.35084376842E+03  0.36408099725E+03  0.91619176868E+02 0.  0.
        -15    1    4    4    0    0 -0.10411102394E+02 -0.94608538141E+01  0.44845689563E+02  0.47000368938E+02  0.00000000000E+00 0. -1.
        -15    1    5    5    0    0  0.40854190457E+02 -0.18300924689E+02  0.18737341694E+03  0.19264679104E+03  0.00000000000E+00 0. -1.
         15    1    4    4    0    0  0.88570963515E+01  0.77503096132E+01  0.12215057012E+02  0.16962401737E+02  0.00000000000E+00 0.  1.
         15    1    5    5    0    0 -0.49952015206E+02 -0.13112109816E+02  0.16347035148E+03  0.17143420621E+03  0.00000000000E+00 0.  1.
        -16    1    3    3    0    0  0.93095946269E+01  0.16185021003E+03 -0.25561659205E+03  0.30269126378E+03  0.00000000000E+00 0.  1.
         16    1    1    2    0    0 -0.15119670150E+03 -0.41008755857E+00 -0.18986086175E+02  0.15238465207E+03  0.00000000000E+00 0. -1.
    9900018    1    1    2    0    0  0.15253893767E+03 -0.12831654377E+03  0.10919108947E+03  0.24489004741E+03  0.91187600000E+02 0.  0.
<mgrwt>
<rscale>  0 0.11016366E+04</rscale>
<asrwt>0</asrwt>
<pdfrwt beam="1">  1        4 0.68116678E-01 0.11016366E+04</pdfrwt>
<pdfrwt beam="2">  1       -4 0.10542328E+00 0.11016366E+04</pdfrwt>
<totfact> 0.28582454E+00</totfact>
</mgrwt>
</event>
<event>
12    1  0.1877663E-010  0.1439382E+04  0.7818608E-02  0.8925795E-01
         -2   -1    0    0    0  501 -0.00000000000E+00  0.00000000000E+00  0.70434320540E+03  0.70434320540E+03  0.00000000000E+00 0.  1.
          2   -1    0    0  501    0  0.00000000000E+00 -0.00000000000E+00 -0.73537361145E+03  0.73537361145E+03  0.00000000000E+00 0. -1.
    9900016    2    1    2    0    0 -0.17776375729E+02  0.41833900227E+02  0.21113416219E+03  0.72616323324E+03  0.69330320360E+03 0.  0.
         25    2    3    3    0    0  0.46449271224E+02  0.14436469173E+03 -0.21022356629E+03  0.28778003069E+03  0.12499879689E+03 0.  0.
         23    2    4    4    0    0  0.31358188868E+02  0.65733710880E+02 -0.12693731770E+03  0.17088233061E+03  0.88223758334E+02 0.  0.
        -15    1    4    4    0    0  0.15624132928E+01  0.39559504956E+02 -0.31270288401E+02  0.50450237902E+02  0.00000000000E+00 0. -1.
        -15    1    5    5    0    0  0.57705282215E+02  0.21141066544E+02 -0.80820485696E+02  0.10153223724E+03  0.00000000000E+00 0. -1.
         15    1    5    5    0    0 -0.26347093347E+02  0.44592644336E+02 -0.46116832001E+02  0.69350093371E+02  0.00000000000E+00 0.  1.
         15    1    4    4    0    0  0.13528669063E+02  0.39071475895E+02 -0.52015960189E+02  0.66447462175E+02  0.00000000000E+00 0.  1.
        -16    1    3    3    0    0 -0.64225646953E+02 -0.10253079150E+03  0.42135772848E+03  0.43838320256E+03  0.00000000000E+00 0.  1.
         16    1    1    2    0    0 -0.30008716329E+03  0.42937392094E+02 -0.21389403367E+03  0.37100752399E+03  0.00000000000E+00 0. -1.
    9900018    1    1    2    0    0  0.31786353902E+03 -0.84771292321E+02 -0.28270534581E+02  0.34254605962E+03  0.91187600000E+02 0.  0.
<mgrwt>
<rscale>  0 0.14393824E+04</rscale>
<asrwt>0</asrwt>
<pdfrwt beam="1">  1        2 0.11313440E+00 0.14393824E+04</pdfrwt>
<pdfrwt beam="2">  1       -2 0.10836049E+00 0.14393824E+04</pdfrwt>
<totfact> 0.25440439E+01</totfact>
</mgrwt>
</event>
<event>
12    1  0.1877663E-010  0.1788562E+04  0.7818608E-02  0.8712406E-01
         -2   -1    0    0    0  501 -0.00000000000E+00  0.00000000000E+00  0.57124348236E+03  0.57124348236E+03  0.00000000000E+00 0.  1.
          2   -1    0    0  501    0  0.00000000000E+00 -0.00000000000E+00 -0.13999961132E+04  0.13999961132E+04  0.00000000000E+00 0. -1.
    9900016    2    1    2    0    0 -0.16788503612E+02  0.29469412591E+03  0.13393462457E+03  0.78811356279E+03  0.71837178570E+03 0.  0.
         25    2    3    3    0    0 -0.60351831795E+02 -0.85477939763E+02  0.32261785925E+03  0.36146391011E+03  0.12500021369E+03 0.  0.
         23    2    4    4    0    0 -0.44440056152E+02 -0.59320185463E+02  0.18450015414E+03  0.21896566977E+03  0.91716163600E+02 0.  0.
        -15    1    4    4    0    0 -0.25590116434E+01 -0.18793244810E+02  0.91665175445E+02  0.93606831911E+02  0.00000000000E+00 0. -1.
        -15    1    5    5    0    0  0.99418285908E+01  0.82249202713E+01 -0.22189863234E+01  0.13092485230E+02  0.00000000000E+00 0.  1.
         15    1    5    5    0    0 -0.54381884743E+02 -0.67545105734E+02  0.18671914046E+03  0.20587318454E+03  0.00000000000E+00 0. -1.
         15    1    4    4    0    0 -0.13352764000E+02 -0.73645094896E+01  0.46452529664E+02  0.48891408434E+02  0.00000000000E+00 0.  1.
        -16    1    1    2    0    0 -0.62255061832E+02 -0.19076148806E+03  0.66686645134E+01  0.20077377602E+03  0.00000000000E+00 0.  1.
         16    1    3    3    0    0  0.43563328183E+02  0.38017206568E+03 -0.18868323467E+03  0.42664965268E+03  0.00000000000E+00 0. -1.
    9900018    1    1    2    0    0  0.79043565445E+02 -0.10393263785E+03 -0.96935591991E+03  0.98235225673E+03  0.91187600000E+02 0.  0.
<mgrwt>
<rscale>  0 0.17885622E+04</rscale>
<asrwt>0</asrwt>
<pdfrwt beam="1">  1        2 0.21538402E+00 0.17885622E+04</pdfrwt>
<pdfrwt beam="2">  1       -2 0.87883612E-01 0.17885622E+04</pdfrwt>
<totfact> 0.15265862E+01</totfact>
</mgrwt>
</event>
<event>
12    1  0.1877663E-010  0.1058975E+04  0.7818608E-02  0.9246126E-01
          2   -1    0    0  501    0  0.00000000000E+00  0.00000000000E+00  0.19161930626E+04  0.19161930626E+04  0.00000000000E+00 0. -1.
         -2   -1    0    0    0  501 -0.00000000000E+00 -0.00000000000E+00 -0.14630948925E+03  0.14630948925E+03  0.00000000000E+00 0.  1.
    9900016    2    1    2    0    0  0.60982694074E+02  0.68779477065E+02  0.12925749135E+04  0.14768406436E+04  0.70841998436E+03 0.  0.
         25    2    3    3    0    0 -0.13531680768E+03  0.25833686514E+03  0.26422958940E+03  0.41290474173E+03  0.12499790197E+03 0.  0.
         23    2    4    4    0    0 -0.95408180083E+02  0.20801571194E+03  0.20207412883E+03  0.31938844875E+03  0.93817751040E+02 0.  0.
        -15    1    4    4    0    0 -0.91338578540E+00  0.16839480568E+02  0.24747807721E+02  0.29947560274E+02  0.00000000000E+00 0. -1.
        -15    1    5    5    0    0 -0.15155624655E+02  0.17168614225E+02  0.70395229611E+02  0.74026634565E+02  0.00000000000E+00 0.  1.
         15    1    4    4    0    0 -0.38995241812E+02  0.33481672630E+02  0.37407652845E+02  0.63568732703E+02  0.00000000000E+00 0.  1.
         15    1    5    5    0    0 -0.80252555427E+02  0.19084709772E+03  0.13167889922E+03  0.24536181419E+03  0.00000000000E+00 0. -1.
        -16    1    1    2    0    0 -0.10748154027E+03 -0.93012781049E+02  0.58265325178E+02  0.15361805576E+03  0.00000000000E+00 0.  1.
         16    1    3    3    0    0  0.19629950175E+03 -0.18955738808E+03  0.10283453241E+04  0.10639359019E+04  0.00000000000E+00 0. -1.
    9900018    1    1    2    0    0  0.46498846200E+02  0.24233303985E+02  0.41904333469E+03  0.43204385248E+03  0.91187600000E+02 0.  0.
<mgrwt>
<rscale>  0 0.10589754E+04</rscale>
<asrwt>0</asrwt>
<pdfrwt beam="1">  1        2 0.29479892E+00 0.10589754E+04</pdfrwt>
<pdfrwt beam="2">  1       -2 0.22509154E-01 0.10589754E+04</pdfrwt>
<totfact> 0.12853394E+02</totfact>
</mgrwt>
</event>
<event>
12    1  0.1877663E-010  0.1495299E+04  0.7818608E-02  0.8887585E-01
         -1   -1    0    0    0  501 -0.00000000000E+00  0.00000000000E+00  0.35006996019E+03  0.35006996019E+03  0.00000000000E+00 0.  1.
          1   -1    0    0  501    0  0.00000000000E+00 -0.00000000000E+00 -0.15967652154E+04  0.15967652154E+04  0.00000000000E+00 0. -1.
    9900016    2    1    2    0    0  0.55182004664E+02  0.18254231197E+03 -0.64022021391E+03  0.97274109453E+03  0.70709021022E+03 0.  0.
         25    2    3    3    0    0  0.17907715652E+03 -0.95617225833E+02 -0.62378862173E+03  0.66779399363E+03  0.12500116587E+03 0.  0.
         23    2    4    4    0    0  0.11507650918E+03 -0.72369676043E+02 -0.37684933888E+03  0.41086501621E+03  0.91184781371E+02 0.  0.
        -15    1    4    4    0    0  0.45897736368E+02 -0.11118362302E+02 -0.13873788683E+03  0.14655518219E+03  0.00000000000E+00 0.  1.
        -15    1    5    5    0    0  0.67948338166E+02 -0.84119885192E+02 -0.30936358043E+03  0.32771780031E+03  0.00000000000E+00 0.  1.
         15    1    4    4    0    0  0.18102910979E+02 -0.12129187487E+02 -0.10820139601E+03  0.11037379523E+03  0.00000000000E+00 0. -1.
         15    1    5    5    0    0  0.47128171010E+02  0.11750209148E+02 -0.67485758454E+02  0.83147215900E+02  0.00000000000E+00 0. -1.
        -16    1    3    3    0    0 -0.12389515186E+03  0.27815953780E+03 -0.16431592181E+02  0.30494710090E+03  0.00000000000E+00 0.  1.
         16    1    1    2    0    0 -0.13820060611E+03 -0.38479964768E+03 -0.61331794435E+03  0.73710859257E+03  0.00000000000E+00 0. -1.
    9900018    1    1    2    0    0  0.83018601445E+02  0.20225733572E+03  0.68429030419E+01  0.23698548848E+03  0.91187600000E+02 0.  0.
<mgrwt>
<rscale>  0 0.14952987E+04</rscale>
<asrwt>0</asrwt>
<pdfrwt beam="1">  1        1 0.24565618E+00 0.14952987E+04</pdfrwt>
<pdfrwt beam="2">  1       -1 0.53856918E-01 0.14952987E+04</pdfrwt>
<totfact> 0.18887874E+01</totfact>
</mgrwt>
</event>
<event>
12    1  0.1877663E-010  0.1474946E+04  0.7818608E-02  0.8901287E-01
          1   -1    0    0  501    0  0.00000000000E+00  0.00000000000E+00  0.61835360141E+03  0.61835360141E+03  0.00000000000E+00 0. -1.
         -1   -1    0    0    0  501 -0.00000000000E+00 -0.00000000000E+00 -0.87953922561E+03  0.87953922561E+03  0.00000000000E+00 0.  1.
    9900016    2    1    2    0    0  0.93357177342E+02 -0.80946473153E+02 -0.31254367503E+03  0.80616131127E+03  0.73276504892E+03 0.  0.
         25    2    3    3    0    0  0.11758216709E+02 -0.24393417527E+03  0.14738491683E+03  0.31143139402E+03  0.12500024780E+03 0.  0.
         23    2    4    4    0    0  0.63569176379E+01 -0.20695956689E+03  0.10930136995E+03  0.25068217494E+03  0.89566124331E+02 0.  0.
        -15    1    4    4    0    0  0.10476928865E+02 -0.15434397991E+02  0.24662549773E+01  0.18816723769E+02  0.00000000000E+00 0.  1.
        -15    1    5    5    0    0 -0.10655942033E+02 -0.12393792256E+03  0.10981734227E+03  0.16593374103E+03  0.00000000000E+00 0.  1.
         15    1    4    4    0    0 -0.50756297940E+01 -0.21540210380E+02  0.35617291899E+02  0.41932495314E+02  0.00000000000E+00 0. -1.
         15    1    5    5    0    0  0.17012859671E+02 -0.83021644333E+02 -0.51597232180E+00  0.84748433905E+02  0.00000000000E+00 0. -1.
        -16    1    1    2    0    0  0.23864751196E+03 -0.13810483658E+03 -0.23948477263E+02  0.27676544295E+03  0.00000000000E+00 0.  1.
         16    1    3    3    0    0  0.81598960632E+02  0.16298770211E+03 -0.45992859186E+03  0.49472991725E+03  0.00000000000E+00 0. -1.
    9900018    1    1    2    0    0 -0.33200468930E+03  0.21905130973E+03  0.75306528090E+02  0.41496607280E+03  0.91187600000E+02 0.  0.
<mgrwt>
<rscale>  0 0.14749458E+04</rscale>
<asrwt>0</asrwt>
<pdfrwt beam="1">  1        1 0.95131324E-01 0.14749458E+04</pdfrwt>
<pdfrwt beam="2">  1       -1 0.13531373E+00 0.14749458E+04</pdfrwt>
<totfact> 0.14552111E+01</totfact>
</mgrwt>
</event>
<event>
12    1  0.1877663E-010  0.1401698E+04  0.7818608E-02  0.8952591E-01
          1   -1    0    0  501    0  0.00000000000E+00  0.00000000000E+00  0.12553706237E+04  0.12553706237E+04  0.00000000000E+00 0. -1.
         -1   -1    0    0    0  501 -0.00000000000E+00 -0.00000000000E+00 -0.39127025609E+03  0.39127025609E+03  0.00000000000E+00 0.  1.
    9900016    2    1    2    0    0  0.45582351953E+02  0.26257294319E+03  0.52413476243E+03  0.92308435293E+03  0.71157935055E+03 0.  0.
         25    2    3    3    0    0  0.17970682786E+03  0.18240387920E+02  0.59604237297E+03  0.63523286856E+03  0.12500812446E+03 0.  0.
         23    2    4    4    0    0  0.12619498048E+03  0.29421801848E+02  0.34792479737E+03  0.38053565765E+03  0.83456015939E+02 0.  0.
        -15    1    4    4    0    0  0.28898130025E+02  0.87266457170E+00  0.15310440305E+03  0.15581021050E+03  0.00000000000E+00 0. -1.
        -15    1    5    5    0    0  0.10989574376E+03 -0.50182008447E+01  0.29851676119E+03  0.31814228507E+03  0.00000000000E+00 0.  1.
         15    1    4    4    0    0  0.24613717365E+02 -0.12054078500E+02  0.95013172550E+02  0.98887000404E+02  0.00000000000E+00 0.  1.
         15    1    5    5    0    0  0.16299236710E+02  0.34440002693E+02  0.49408036180E+02  0.62393372580E+02  0.00000000000E+00 0. -1.
        -16    1    1    2    0    0 -0.23289563780E+02  0.17294433342E+03  0.17863849757E+03  0.24972756968E+03  0.00000000000E+00 0.  1.
         16    1    3    3    0    0 -0.13412447591E+03  0.24433255527E+03 -0.71907610540E+02  0.28785148438E+03  0.00000000000E+00 0. -1.
    9900018    1    1    2    0    0 -0.22292788173E+02 -0.43551727661E+03  0.16132710763E+03  0.47382895720E+03  0.91187600000E+02 0.  0.
<mgrwt>
<rscale>  0 0.14016978E+04</rscale>
<asrwt>0</asrwt>
<pdfrwt beam="1">  1        1 0.19313394E+00 0.14016978E+04</pdfrwt>
<pdfrwt beam="2">  1       -1 0.60195425E-01 0.14016978E+04</pdfrwt>
<totfact> 0.26570283E+01</totfact>
</mgrwt>
</event>
<event>
12    1  0.1877663E-010  0.1376356E+04  0.7818608E-02  0.8971113E-01
          1   -1    0    0  501    0  0.00000000000E+00  0.00000000000E+00  0.65301032487E+03  0.65301032487E+03  0.00000000000E+00 0. -1.
         -1   -1    0    0    0  501 -0.00000000000E+00 -0.00000000000E+00 -0.72523973357E+03  0.72523973357E+03  0.00000000000E+00 0.  1.
    9900016    2    1    2    0    0  0.11484295987E+03 -0.27495979759E+03  0.57595606261E+02  0.76839255308E+03  0.70591647243E+03 0.  0.
         25    2    3    3    0    0  0.23924391844E+03 -0.21040559956E+02  0.29411307426E+03  0.39975846567E+03  0.12499589092E+03 0.  0.
         23    2    4    4    0    0  0.18467682884E+03 -0.11138391977E+01  0.19798810202E+03  0.28515337818E+03  0.89478426447E+02 0.  0.
        -15    1    4    4    0    0  0.35692998874E+02 -0.23619432216E+02  0.60319790428E+02  0.73961779753E+02  0.00000000000E+00 0.  1.
        -15    1    5    5    0    0 -0.96052913744E+00  0.10172808754E+02  0.39508748273E+02  0.40808698145E+02  0.00000000000E+00 0.  1.
         15    1    5    5    0    0  0.18563735798E+03 -0.11286647952E+02  0.15847935374E+03  0.24434468003E+03  0.00000000000E+00 0. -1.
         15    1    4    4    0    0  0.18874090731E+02  0.36927114581E+01  0.35805181813E+02  0.40643307733E+02  0.00000000000E+00 0. -1.
        -16    1    3    3    0    0 -0.12440095858E+03 -0.25391923763E+03 -0.23651746800E+03  0.36863408741E+03  0.00000000000E+00 0.  1.
         16    1    1    2    0    0  0.37128757346E+02 -0.11962419359E+03  0.58304068583E+02  0.13815880981E+03  0.00000000000E+00 0. -1.
    9900018    1    1    2    0    0 -0.15197171721E+03  0.39458399118E+03 -0.18812908354E+03  0.47169869556E+03  0.91187600000E+02 0.  0.
<mgrwt>
<rscale>  0 0.13763561E+04</rscale>
<asrwt>0</asrwt>
<pdfrwt beam="1">  1        1 0.10046313E+00 0.13763561E+04</pdfrwt>
<pdfrwt beam="2">  1       -1 0.11157534E+00 0.13763561E+04</pdfrwt>
<totfact> 0.21811296E+01</totfact>
</mgrwt>
</event>
<event>
12    1  0.1877663E-010  0.1354413E+04  0.7818608E-02  0.8987494E-01
         -1   -1    0    0    0  501 -0.00000000000E+00  0.00000000000E+00  0.64450796655E+03  0.64450796655E+03  0.00000000000E+00 0.  1.
          1   -1    0    0  501    0  0.00000000000E+00 -0.00000000000E+00 -0.71156416404E+03  0.71156416404E+03  0.00000000000E+00 0. -1.
    9900016    2    1    2    0    0 -0.38475212728E+03  0.18289356179E+03 -0.13916436164E+03  0.84007973597E+03  0.71055118665E+03 0.  0.
         25    2    3    3    0    0 -0.54604350797E+02 -0.12691848938E+03 -0.30542421769E+03  0.35776925392E+03  0.12499979290E+03 0.  0.
         23    2    4    4    0    0 -0.39845430743E+02 -0.92638268302E+02 -0.19541750340E+03  0.23799661414E+03  0.91021319488E+02 0.  0.
        -15    1    4    4    0    0  0.58582999915E-01 -0.31409342139E+02 -0.84317694516E+02  0.89977907366E+02  0.00000000000E+00 0. -1.
        -15    1    5    5    0    0 -0.11997990275E+02 -0.87841120614E+02 -0.80818563805E+02  0.11996522203E+03  0.00000000000E+00 0.  1.
         15    1    5    5    0    0 -0.27847440468E+02 -0.47971476881E+01 -0.11459893960E+03  0.11803139211E+03  0.00000000000E+00 0. -1.
         15    1    4    4    0    0 -0.14817503053E+02 -0.28708789392E+01 -0.25689019770E+02  0.29794732409E+02  0.00000000000E+00 0.  1.
        -16    1    1    2    0    0  0.12258262213E+03 -0.10924964157E+03  0.14571242520E+03  0.21953153370E+03  0.00000000000E+00 0.  1.
         16    1    3    3    0    0 -0.33014777648E+03  0.30981205117E+03  0.16625985605E+03  0.48231048205E+03  0.00000000000E+00 0. -1.
    9900018    1    1    2    0    0  0.26216950515E+03 -0.73643920219E+02 -0.73604261059E+02  0.29646086091E+03  0.91187600000E+02 0.  0.
<mgrwt>
<rscale>  0 0.13544132E+04</rscale>
<asrwt>0</asrwt>
<pdfrwt beam="1">  1        1 0.10947141E+00 0.13544132E+04</pdfrwt>
<pdfrwt beam="2">  1       -1 0.99155072E-01 0.13544132E+04</pdfrwt>
<totfact> 0.25277611E+01</totfact>
</mgrwt>
</event>
<event>
12    1  0.1877663E-010  0.1680218E+04  0.7818608E-02  0.8772728E-01
          1   -1    0    0  501    0  0.00000000000E+00  0.00000000000E+00  0.27332062668E+04  0.27332062668E+04  0.00000000000E+00 0. -1.
         -1   -1    0    0    0  501 -0.00000000000E+00 -0.00000000000E+00 -0.25822533009E+03  0.25822533009E+03  0.00000000000E+00 0.  1.
    9900016    2    1    2    0    0 -0.20347479496E+03 -0.17181528637E+03  0.41077108129E+03  0.85253295489E+03  0.69796638396E+03 0.  0.
         25    2    3    3    0    0 -0.87056876718E+02 -0.99952880843E+02 -0.17402234318E+03  0.25194933347E+03  0.12500085015E+03 0.  0.
         23    2    4    4    0    0 -0.70489287765E+02 -0.74062790266E+02 -0.12173069474E+03  0.18445934173E+03  0.93556667955E+02 0.  0.
        -15    1    4    4    0    0 -0.46078910656E+01 -0.29566507413E+02 -0.39963484413E+02  0.49924854603E+02  0.00000000000E+00 0.  1.
        -15    1    5    5    0    0 -0.37446667021E+02 -0.61315775941E+01 -0.98297373273E+02  0.10536708550E+03  0.00000000000E+00 0.  1.
         15    1    5    5    0    0 -0.33042620744E+02 -0.67931212672E+02 -0.23433321469E+02  0.79092256232E+02  0.00000000000E+00 0. -1.
         15    1    4    4    0    0 -0.11959697887E+02  0.36764168359E+01 -0.12328164024E+02  0.17565137133E+02  0.00000000000E+00 0. -1.
        -16    1    3    3    0    0 -0.11641791825E+03 -0.71862405524E+02  0.58479342446E+03  0.60058362142E+03  0.00000000000E+00 0.  1.
         16    1    1    2    0    0  0.14070918343E+03 -0.15256694826E+03  0.98261463590E+03  0.10042944143E+04  0.00000000000E+00 0. -1.
    9900018    1    1    2    0    0  0.62765611533E+02  0.32438223462E+03  0.10815952195E+04  0.11346042276E+04  0.91187600000E+02 0.  0.
<mgrwt>
<rscale>  0 0.16802180E+04</rscale>
<asrwt>0</asrwt>
<pdfrwt beam="1">  1        1 0.42049325E+00 0.16802180E+04</pdfrwt>
<pdfrwt beam="2">  1       -1 0.39726976E-01 0.16802180E+04</pdfrwt>
<totfact> 0.54803563E+00</totfact>
</mgrwt>
</event>
<event>
12    1  0.1877663E-010  0.1156663E+04  0.7818608E-02  0.9151658E-01
          2   -1    0    0  501    0  0.00000000000E+00  0.00000000000E+00  0.50636191308E+03  0.50636191308E+03  0.00000000000E+00 0. -1.
         -2   -1    0    0    0  501 -0.00000000000E+00 -0.00000000000E+00 -0.66053042421E+03  0.66053042421E+03  0.00000000000E+00 0.  1.
    9900016    2    1    2    0    0  0.73310988349E+02 -0.65569537795E+02  0.80426957222E+02  0.75726087238E+03  0.74652640147E+03 0.  0.
         25    2    3    3    0    0  0.15656585996E+03  0.16634887833E+02 -0.29894642200E+03  0.36025570603E+03  0.12500248998E+03 0.  0.
         23    2    4    4    0    0  0.11444324634E+03  0.12038104006E+02 -0.25102520173E+03  0.29034116972E+03  0.89678148659E+02 0.  0.
        -15    1    4    4    0    0  0.18864028455E+02  0.48396116441E+01 -0.35209848292E+01  0.19790673171E+02  0.00000000000E+00 0. -1.
        -15    1    5    5    0    0  0.57268880306E+02  0.32152533247E+02 -0.56643571382E+02  0.86729488783E+02  0.00000000000E+00 0.  1.
         15    1    4    4    0    0  0.23258585163E+02 -0.24282781653E+00 -0.44400235444E+02  0.50123863145E+02  0.00000000000E+00 0.  1.
         15    1    5    5    0    0  0.57174366035E+02 -0.20114429241E+02 -0.19438163035E+03  0.20361168093E+03  0.00000000000E+00 0. -1.
        -16    1    1    2    0    0 -0.97223926306E+02  0.10946742544E+03 -0.26372365922E+03  0.30163848812E+03  0.00000000000E+00 0.  1.
         16    1    3    3    0    0 -0.83254871610E+02 -0.82204425629E+02  0.37937337923E+03  0.39700516635E+03  0.00000000000E+00 0. -1.
    9900018    1    1    2    0    0  0.23912937957E+02 -0.43897887643E+02  0.29128190874E+02  0.10799297680E+03  0.91187600000E+02 0.  0.
<mgrwt>
<rscale>  0 0.11566632E+04</rscale>
<asrwt>0</asrwt>
<pdfrwt beam="1">  1        2 0.77901833E-01 0.11566632E+04</pdfrwt>
<pdfrwt beam="2">  1       -2 0.10162007E+00 0.11566632E+04</pdfrwt>
<totfact> 0.47739988E+01</totfact>
</mgrwt>
</event>
<event>
12    1  0.1877663E-010  0.1222129E+04  0.7818608E-02  0.9093704E-01
         -2   -1    0    0    0  501 -0.00000000000E+00  0.00000000000E+00  0.35731705042E+03  0.35731705042E+03  0.00000000000E+00 0.  1.
          2   -1    0    0  501    0  0.00000000000E+00 -0.00000000000E+00 -0.10450106382E+04  0.10450106382E+04  0.00000000000E+00 0. -1.
    9900016    2    1    2    0    0 -0.15849762879E+03  0.93849071465E+02 -0.41064878943E+03  0.84490644933E+03  0.71505617494E+03 0.  0.
         25    2    3    3    0    0 -0.30194116309E+03  0.58441749188E+02  0.72389028531E+02  0.33977749591E+03  0.12499868502E+03 0.  0.
         23    2    4    4    0    0 -0.21887115188E+03  0.37620128038E+02  0.36770447746E+02  0.24228316780E+03  0.89605872647E+02 0.  0.
        -15    1    4    4    0    0 -0.72937421506E+02  0.23972815932E+02  0.39316105929E+02  0.86257286910E+02  0.00000000000E+00 0.  1.
        -15    1    5    5    0    0 -0.10693434356E+03  0.63696059045E+02  0.16081390261E+02  0.12550200350E+03  0.00000000000E+00 0. -1.
         15    1    4    4    0    0 -0.10132589701E+02 -0.31511947825E+01 -0.36975251442E+01  0.11237041194E+02  0.00000000000E+00 0. -1.
         15    1    5    5    0    0 -0.11193680833E+03 -0.26075931008E+02  0.20689057485E+02  0.11678116430E+03  0.00000000000E+00 0.  1.
        -16    1    1    2    0    0 -0.42392877277E+02  0.11314473949E+03  0.31962036494E+02  0.12498183826E+03  0.00000000000E+00 0.  1.
         16    1    3    3    0    0  0.14344353430E+03  0.35407322278E+02 -0.48303781797E+03  0.50512895343E+03  0.00000000000E+00 0. -1.
    9900018    1    1    2    0    0  0.20089050606E+03 -0.20699381096E+03 -0.30900683488E+03  0.43243940107E+03  0.91187600000E+02 0.  0.
<mgrwt>
<rscale>  0 0.12221295E+04</rscale>
<asrwt>0</asrwt>
<pdfrwt beam="1">  1        2 0.16077087E+00 0.12221295E+04</pdfrwt>
<pdfrwt beam="2">  1       -2 0.54971854E-01 0.12221295E+04</pdfrwt>
<totfact> 0.72303503E+01</totfact>
</mgrwt>
</event>
<event>
12    1  0.1877663E-010  0.1208803E+04  0.7818608E-02  0.9105186E-01
          1   -1    0    0  501    0  0.00000000000E+00  0.00000000000E+00  0.11180008779E+04  0.11180008779E+04  0.00000000000E+00 0. -1.
         -1   -1    0    0    0  501 -0.00000000000E+00 -0.00000000000E+00 -0.32674487290E+03  0.32674487290E+03  0.00000000000E+00 0.  1.
    9900016    2    1    2    0    0  0.53582616739E+02 -0.28418957175E+02  0.33212585092E+03  0.78618373095E+03  0.70999897466E+03 0.  0.
         25    2    3    3    0    0  0.25015392392E+03  0.24774746611E+03  0.17380935839E+03  0.41205503122E+03  0.12499545220E+03 0.  0.
         23    2    4    4    0    0  0.15809970715E+03  0.13448356923E+03  0.10907430879E+03  0.24921115801E+03  0.84425402858E+02 0.  0.
        -15    1    4    4    0    0  0.84988767250E+02  0.96753363871E+02  0.45634535691E+02  0.13662655242E+03  0.00000000000E+00 0.  1.
        -15    1    5    5    0    0  0.10955480820E+03  0.92929665802E+02  0.11639192870E+03  0.18489256300E+03  0.00000000000E+00 0.  1.
         15    1    4    4    0    0  0.70654495197E+01  0.16510533016E+02  0.19100513909E+02  0.26217320782E+02  0.00000000000E+00 0. -1.
         15    1    5    5    0    0  0.48544898946E+02  0.41553903425E+02 -0.73176199061E+01  0.64318595015E+02  0.00000000000E+00 0. -1.
        -16    1    1    2    0    0  0.15004121619E+03  0.11446132391E+03  0.68914037680E+02  0.20090521600E+03  0.00000000000E+00 0.  1.
         16    1    3    3    0    0 -0.19657130718E+03 -0.27616642329E+03  0.15831649253E+03  0.37412869973E+03  0.00000000000E+00 0. -1.
    9900018    1    1    2    0    0 -0.20362383293E+03 -0.86042366739E+02  0.39021611645E+03  0.45765680389E+03  0.91187600000E+02 0.  0.
<mgrwt>
<rscale>  0 0.12088028E+04</rscale>
<asrwt>0</asrwt>
<pdfrwt beam="1">  1        1 0.17200013E+00 0.12088028E+04</pdfrwt>
<pdfrwt beam="2">  1       -1 0.50268443E-01 0.12088028E+04</pdfrwt>
<totfact> 0.48282319E+01</totfact>
</mgrwt>
</event>
<event>
12    1  0.2114660E-010  0.3760703E+04  0.7818608E-02  0.8054641E-01
          1   -1    0    0  501    0  0.00000000000E+00  0.00000000000E+00  0.20520853108E+04  0.20520853108E+04  0.00000000000E+00 0. -1.
         -1   -1    0    0    0  501 -0.00000000000E+00 -0.00000000000E+00 -0.17229896321E+04  0.17229896321E+04  0.00000000000E+00 0.  1.
    9900016    2    1    2    0    0  0.49150623706E+03 -0.41088181483E+03 -0.28367658380E+03  0.99779360114E+03  0.71043466938E+03 0.  0.
         25    2    3    3    0    0  0.58147030711E+02  0.62232432924E+02 -0.32127766362E+03  0.35510305791E+03  0.12499956682E+03 0.  0.
         23    2    4    4    0    0  0.40223204418E+02  0.12089255316E+02 -0.18607881694E+03  0.20836190033E+03  0.83817057492E+02 0.  0.
        -15    1    4    4    0    0  0.14349091353E+02  0.24984589980E+02 -0.94183230104E+02  0.98491659505E+02  0.00000000000E+00 0. -1.
        -15    1    5    5    0    0 -0.22568451539E+02 -0.85556993284E+01 -0.78236954716E+02  0.81875247047E+02  0.00000000000E+00 0. -1.
         15    1    4    4    0    0  0.35747349397E+01  0.25158587628E+02 -0.41015616576E+02  0.48249498074E+02  0.00000000000E+00 0.  1.
         15    1    5    5    0    0  0.62791655957E+02  0.20644954644E+02 -0.10784186222E+03  0.12648665328E+03  0.00000000000E+00 0.  1.
        -16    1    3    3    0    0  0.43335920635E+03 -0.47311424776E+03  0.37601079823E+02  0.64269054324E+03  0.00000000000E+00 0.  1.
         16    1    1    2    0    0 -0.14550192742E+04  0.79302351989E+03  0.25294195673E+03  0.16762896602E+04  0.00000000000E+00 0. -1.
    9900018    1    1    2    0    0  0.96351303716E+03 -0.38214170506E+03  0.35983030578E+03  0.11009916816E+04  0.91187600000E+02 0.  0.
<mgrwt>
<rscale>  0 0.37607030E+04</rscale>
<asrwt>0</asrwt>
<pdfrwt beam="1">  1        1 0.31570543E+00 0.37607030E+04</pdfrwt>
<pdfrwt beam="2">  1       -1 0.26507533E+00 0.37607030E+04</pdfrwt>
<totfact> 0.12196229E-01</totfact>
</mgrwt>
</event>
<event>
12    1  0.1877663E-010  0.2560432E+04  0.7818608E-02  0.8381767E-01
          1   -1    0    0  501    0  0.00000000000E+00  0.00000000000E+00  0.15713556623E+04  0.15713556623E+04  0.00000000000E+00 0. -1.
         -1   -1    0    0    0  501 -0.00000000000E+00 -0.00000000000E+00 -0.10430187813E+04  0.10430187813E+04  0.00000000000E+00 0.  1.
    9900016    2    1    2    0    0  0.18656645711E+03  0.75950636985E+03  0.89553540379E+03  0.13822828136E+04  0.70502847351E+03 0.  0.
         25    2    3    3    0    0  0.17254139166E+03 -0.63314788663E+02  0.12548152891E+03  0.25524495635E+03  0.12500031738E+03 0.  0.
         23    2    4    4    0    0  0.14570485936E+03 -0.48566653662E+02  0.10332719906E+03  0.20648429691E+03  0.91491141190E+02 0.  0.
        -15    1    4    4    0    0  0.93871997592E+01 -0.18284630312E+02  0.23114097194E+02  0.30930708269E+02  0.00000000000E+00 0. -1.
        -15    1    5    5    0    0  0.46562542160E+01  0.17287393858E+02  0.28769999042E+02  0.33885801372E+02  0.00000000000E+00 0.  1.
         15    1    4    4    0    0  0.17449332546E+02  0.35364953106E+01 -0.95976734511E+00  0.17829951170E+02  0.00000000000E+00 0.  1.
         15    1    5    5    0    0  0.14104860514E+03 -0.65854047520E+02  0.74557200015E+02  0.17259849554E+03  0.00000000000E+00 0. -1.
        -16    1    1    2    0    0 -0.16079173664E+03 -0.88122491494E+03 -0.50233763388E+03  0.10270123815E+04  0.00000000000E+00 0.  1.
         16    1    3    3    0    0  0.14025065442E+02  0.82282115851E+03  0.77005387488E+03  0.11270378572E+04  0.00000000000E+00 0. -1.
    9900018    1    1    2    0    0 -0.25774720467E+02  0.12171854509E+03  0.13513911106E+03  0.20507924850E+03  0.91187600000E+02 0.  0.
<mgrwt>
<rscale>  0 0.25604324E+04</rscale>
<asrwt>0</asrwt>
<pdfrwt beam="1">  1        1 0.24174702E+00 0.25604324E+04</pdfrwt>
<pdfrwt beam="2">  1       -1 0.16046443E+00 0.25604324E+04</pdfrwt>
<totfact> 0.14959902E+00</totfact>
</mgrwt>
</event>
<event>
12    1  0.1877663E-010  0.1290038E+04  0.7818608E-02  0.9037503E-01
         -1   -1    0    0    0  501 -0.00000000000E+00  0.00000000000E+00  0.47290915137E+03  0.47290915137E+03  0.00000000000E+00 0.  1.
          1   -1    0    0  501    0  0.00000000000E+00 -0.00000000000E+00 -0.87976582181E+03  0.87976582181E+03  0.00000000000E+00 0. -1.
    9900016    2    1    2    0    0  0.47151087640E+02 -0.19632378487E+03 -0.28247788712E+03  0.79766629238E+03  0.71813056175E+03 0.  0.
         25    2    3    3    0    0 -0.83983729857E+02  0.16295037578E+03  0.11172185067E+03  0.24842345343E+03  0.12500539367E+03 0.  0.
         23    2    4    4    0    0 -0.60930834576E+02  0.13179788868E+03  0.63957726968E+02  0.17928993629E+03  0.83492756291E+02 0.  0.
        -15    1    4    4    0    0  0.11773846153E+01  0.22486553594E+02  0.31394721745E+02  0.38634956717E+02  0.00000000000E+00 0. -1.
        -15    1    5    5    0    0  0.34562484676E+01 -0.10621240242E+02  0.34679134677E+01  0.11695418828E+02  0.00000000000E+00 0. -1.
         15    1    5    5    0    0 -0.64387083043E+02  0.14241912892E+03  0.60489813501E+02  0.16759451746E+03  0.00000000000E+00 0.  1.
         15    1    4    4    0    0 -0.24230279896E+02  0.86659335115E+01  0.16369401953E+02  0.30498560422E+02  0.00000000000E+00 0.  1.
        -16    1    1    2    0    0 -0.22205976762E+03  0.25074912838E+03 -0.58270030776E+02  0.33997214924E+03  0.00000000000E+00 0.  1.
         16    1    3    3    0    0  0.13113481750E+03 -0.35927416065E+03 -0.39419973779E+03  0.54924283896E+03  0.00000000000E+00 0. -1.
    9900018    1    1    2    0    0  0.17490867998E+03 -0.54425343508E+02 -0.66108752546E+02  0.21503653156E+03  0.91187600000E+02 0.  0.
<mgrwt>
<rscale>  0 0.12900377E+04</rscale>
<asrwt>0</asrwt>
<pdfrwt beam="1">  1        1 0.13534859E+00 0.12900377E+04</pdfrwt>
<pdfrwt beam="2">  1       -1 0.72755254E-01 0.12900377E+04</pdfrwt>
<totfact> 0.35429993E+01</totfact>
</mgrwt>
</event>
<event>
12    1  0.1877663E-010  0.1522144E+04  0.7818608E-02  0.8869860E-01
         -2   -1    0    0    0  501 -0.00000000000E+00  0.00000000000E+00  0.39584255812E+03  0.39584255812E+03  0.00000000000E+00 0.  1.
          2   -1    0    0  501    0  0.00000000000E+00 -0.00000000000E+00 -0.14632853072E+04  0.14632853072E+04  0.00000000000E+00 0. -1.
    9900016    2    1    2    0    0  0.10182794552E+03 -0.80566807147E+02 -0.43722774705E+03  0.84761438933E+03  0.71443831735E+03 0.  0.
         25    2    3    3    0    0 -0.17968331919E+03 -0.15972907461E+03  0.53653738908E+02  0.27623020158E+03  0.12499971240E+03 0.  0.
         23    2    4    4    0    0 -0.15703096542E+03 -0.13652356436E+03  0.48486872301E+02  0.23262530570E+03  0.92011675003E+02 0.  0.
        -15    1    4    4    0    0 -0.11534800707E+02 -0.24285317450E+01 -0.10103582437E+02  0.15525197964E+02  0.00000000000E+00 0.  1.
        -15    1    5    5    0    0 -0.49611208810E+02 -0.77674805450E+02 -0.17020192235E+02  0.93724779995E+02  0.00000000000E+00 0. -1.
         15    1    4    4    0    0 -0.11117553058E+02 -0.20776978499E+02  0.15270449043E+02  0.28079697924E+02  0.00000000000E+00 0. -1.
         15    1    5    5    0    0 -0.10741975661E+03 -0.58848758914E+02  0.65507064536E+02  0.13890052570E+03  0.00000000000E+00 0.  1.
        -16    1    1    2    0    0  0.23612416490E+03  0.21743700459E+03 -0.56912435719E+02  0.32599462810E+03  0.00000000000E+00 0.  1.
         16    1    3    3    0    0  0.28151126470E+03  0.79162267460E+02 -0.49088148596E+03  0.57138418774E+03  0.00000000000E+00 0. -1.
    9900018    1    1    2    0    0 -0.33795211042E+03 -0.13687019744E+03 -0.57330256627E+03  0.68551884786E+03  0.91187600000E+02 0.  0.
<mgrwt>
<rscale>  0 0.15221440E+04</rscale>
<asrwt>0</asrwt>
<pdfrwt beam="1">  1        2 0.22512082E+00 0.15221440E+04</pdfrwt>
<pdfrwt beam="2">  1       -2 0.60898855E-01 0.15221440E+04</pdfrwt>
<totfact> 0.32231451E+01</totfact>
</mgrwt>
</event>
<event>
12    1  0.1877663E-010  0.2254964E+04  0.7818608E-02  0.8495893E-01
         -1   -1    0    0    0  501 -0.00000000000E+00  0.00000000000E+00  0.18026349217E+04  0.18026349217E+04  0.00000000000E+00 0.  1.
          1   -1    0    0  501    0  0.00000000000E+00 -0.00000000000E+00 -0.70519884458E+03  0.70519884458E+03  0.00000000000E+00 0. -1.
    9900016    2    1    2    0    0 -0.16339398519E+03  0.72962239934E+03  0.12718221382E+04  0.16401411858E+04  0.71657875908E+03 0.  0.
         25    2    3    3    0    0  0.19724757942E+03  0.84598008098E+02  0.13079130619E+03  0.28070374216E+03  0.12499917810E+03 0.  0.
         23    2    4    4    0    0  0.16582029405E+03  0.64526033166E+02  0.11594053141E+03  0.22652777558E+03  0.78820348957E+02 0.  0.
        -15    1    4    4    0    0  0.18510152906E+01  0.22341891926E+02  0.71191352839E+01  0.23521659797E+02  0.00000000000E+00 0.  1.
        -15    1    5    5    0    0  0.49878869247E+02 -0.16228291830E+02  0.41106931000E+02  0.66641119658E+02  0.00000000000E+00 0.  1.
         15    1    5    5    0    0  0.11594142480E+03  0.80754324996E+02  0.74833600414E+02  0.15988665592E+03  0.00000000000E+00 0. -1.
         15    1    4    4    0    0  0.29576270084E+02 -0.22699169940E+01  0.77316394909E+01  0.30654306785E+02  0.00000000000E+00 0. -1.
        -16    1    1    2    0    0  0.39523464512E+02 -0.42193736414E+03  0.90736684149E+02  0.43338941999E+03  0.00000000000E+00 0.  1.
         16    1    3    3    0    0 -0.36064156462E+03  0.64502439125E+03  0.11410308320E+04  0.13594374436E+04  0.00000000000E+00 0. -1.
    9900018    1    1    2    0    0  0.12387052068E+03 -0.30768503520E+03 -0.26512274526E+03  0.43430316051E+03  0.91187600000E+02 0.  0.
<mgrwt>
<rscale>  0 0.22549644E+04</rscale>
<asrwt>0</asrwt>
<pdfrwt beam="1">  1        1 0.10849213E+00 0.22549644E+04</pdfrwt>
<pdfrwt beam="2">  1       -1 0.27732845E+00 0.22549644E+04</pdfrwt>
<totfact> 0.11322418E+00</totfact>
</mgrwt>
</event>
<event>
12    1  0.1877663E-010  0.1742738E+04  0.7818608E-02  0.8737358E-01
         -1   -1    0    0    0  501 -0.00000000000E+00  0.00000000000E+00  0.89777556545E+03  0.89777556545E+03  0.00000000000E+00 0.  1.
          1   -1    0    0  501    0  0.00000000000E+00 -0.00000000000E+00 -0.84573869466E+03  0.84573869466E+03  0.00000000000E+00 0. -1.
    9900016    2    1    2    0    0  0.46399024635E+03 -0.29214769005E+03  0.50571226967E+02  0.90254390445E+03  0.71511595491E+03 0.  0.
         25    2    3    3    0    0 -0.10686072707E+03 -0.19105600911E+03  0.17847848800E+03  0.30886837924E+03  0.12499396548E+03 0.  0.
         23    2    4    4    0    0 -0.62894848393E+02 -0.15564380372E+03  0.12668605429E+03  0.22769935655E+03  0.87274767423E+02 0.  0.
        -15    1    4    4    0    0 -0.17181580608E+02  0.10753117487E+01  0.13373249327E+02  0.21799238636E+02  0.00000000000E+00 0. -1.
        -15    1    5    5    0    0 -0.29869492504E+02 -0.28167335795E+02  0.76413619870E+02  0.86744606114E+02  0.00000000000E+00 0. -1.
         15    1    5    5    0    0 -0.33025355889E+02 -0.12747646793E+03  0.50272434420E+02  0.14095475043E+03  0.00000000000E+00 0.  1.
         15    1    4    4    0    0 -0.26784298071E+02 -0.36487517139E+02  0.38419184387E+02  0.59369784058E+02  0.00000000000E+00 0.  1.
        -16    1    1    2    0    0 -0.24490861085E+03  0.31371070366E+03  0.27078610996E+03  0.48137277718E+03  0.00000000000E+00 0.  1.
         16    1    3    3    0    0  0.57085097342E+03 -0.10109168093E+03 -0.12790726104E+03  0.59367552521E+03  0.00000000000E+00 0. -1.
    9900018    1    1    2    0    0 -0.21908163550E+03 -0.21563013618E+02 -0.26932046615E+03  0.35959757848E+03  0.91187600000E+02 0.  0.
<mgrwt>
<rscale>  0 0.17427375E+04</rscale>
<asrwt>0</asrwt>
<pdfrwt beam="1">  1        1 0.13011365E+00 0.17427375E+04</pdfrwt>
<pdfrwt beam="2">  1       -1 0.13811932E+00 0.17427375E+04</pdfrwt>
<totfact> 0.83161356E+00</totfact>
</mgrwt>
</event>
<event>
12    1  0.1877663E-010  0.2579082E+04  0.7818608E-02  0.8375342E-01
          2   -1    0    0  501    0  0.00000000000E+00  0.00000000000E+00  0.11457957339E+04  0.11457957339E+04  0.00000000000E+00 0. -1.
         -2   -1    0    0    0  501 -0.00000000000E+00 -0.00000000000E+00 -0.14513192615E+04  0.14513192615E+04  0.00000000000E+00 0.  1.
    9900016    2    1    2    0    0  0.53941209609E+03 -0.24503504482E+02 -0.36535887479E+03  0.96524895450E+03  0.71179533972E+03 0.  0.
         25    2    3    3    0    0  0.24576718251E+03 -0.55385857850E+02 -0.54948753604E+03  0.61727708938E+03  0.12500140628E+03 0.  0.
         23    2    4    4    0    0  0.17293947900E+03 -0.45305488511E+02 -0.39788527972E+03  0.44529459139E+03  0.89520537430E+02 0.  0.
        -15    1    4    4    0    0  0.55858988030E+02 -0.19390274581E+02 -0.92425292116E+02  0.10972075426E+03  0.00000000000E+00 0.  1.
        -15    1    5    5    0    0  0.15281907785E+03 -0.26810426057E+02 -0.38498519407E+03  0.41507357078E+03  0.00000000000E+00 0.  1.
         15    1    5    5    0    0  0.20120401146E+02 -0.18495062454E+02 -0.12900085645E+02  0.30221020617E+02  0.00000000000E+00 0. -1.
         15    1    4    4    0    0  0.16968715481E+02  0.93099052416E+01 -0.59176964202E+02  0.62261743735E+02  0.00000000000E+00 0. -1.
        -16    1    3    3    0    0  0.29364491358E+03  0.30882353368E+02  0.18412866125E+03  0.34797186512E+03  0.00000000000E+00 0.  1.
         16    1    1    2    0    0 -0.56829893960E+03 -0.21068035603E+03  0.71021978049E+03  0.93368197678E+03  0.00000000000E+00 0. -1.
    9900018    1    1    2    0    0  0.28886843514E+02  0.23518386051E+03 -0.65038443328E+03  0.69818406414E+03  0.91187600000E+02 0.  0.
<mgrwt>
<rscale>  0 0.25790816E+04</rscale>
<asrwt>0</asrwt>
<pdfrwt beam="1">  1        2 0.17627627E+00 0.25790816E+04</pdfrwt>
<pdfrwt beam="2">  1       -2 0.22327989E+00 0.25790816E+04</pdfrwt>
<totfact> 0.17049909E+00</totfact>
</mgrwt>
</event>
<event>
12    1  0.1877663E-010  0.1143792E+04  0.7818608E-02  0.9163529E-01
          2   -1    0    0  501    0  0.00000000000E+00  0.00000000000E+00  0.43921363006E+04  0.43921363006E+04  0.00000000000E+00 0. -1.
         -2   -1    0    0    0  501 -0.00000000000E+00 -0.00000000000E+00 -0.74466101850E+02  0.74466101850E+02  0.00000000000E+00 0.  1.
    9900016    2    1    2    0    0  0.49952051657E+01 -0.97912406181E+02  0.39591366606E+04  0.40281496925E+04  0.73594500908E+03 0.  0.
         25    2    3    3    0    0  0.17182183422E+03  0.22882445251E+03  0.10347657268E+04  0.10808571286E+04  0.12501459991E+03 0.  0.
         23    2    4    4    0    0  0.14424503435E+03  0.17327488214E+03  0.77621344111E+03  0.81283270084E+03  0.85783906820E+02 0.  0.
        -15    1    4    4    0    0  0.38285618408E+01  0.39699251456E+02  0.18205346315E+03  0.18637100606E+03  0.00000000000E+00 0.  1.
        -15    1    5    5    0    0  0.10376394473E+03  0.13293006524E+03  0.68285594807E+03  0.70337017586E+03  0.00000000000E+00 0. -1.
         15    1    5    5    0    0  0.40481089623E+02  0.40344816897E+02  0.93357493040E+02  0.10946252498E+03  0.00000000000E+00 0. -1.
         15    1    4    4    0    0  0.23748238022E+02  0.15850318916E+02  0.76498822540E+02  0.81653421661E+02  0.00000000000E+00 0.  1.
        -16    1    1    2    0    0  0.79047189700E+02  0.15553789955E+02  0.47231813815E+02  0.93387487480E+02  0.00000000000E+00 0.  1.
         16    1    3    3    0    0 -0.16682662905E+03 -0.32673685869E+03  0.29243709338E+04  0.29472925639E+04  0.00000000000E+00 0. -1.
    9900018    1    1    2    0    0 -0.84042394866E+02  0.82358616226E+02  0.31130172433E+03  0.34506522248E+03  0.91187600000E+02 0.  0.
<mgrwt>
<rscale>  0 0.11437924E+04</rscale>
<asrwt>0</asrwt>
<pdfrwt beam="1">  1        2 0.67571308E+00 0.11437924E+04</pdfrwt>
<pdfrwt beam="2">  1       -2 0.11456327E-01 0.11437924E+04</pdfrwt>
<totfact> 0.90278517E+00</totfact>
</mgrwt>
</event>
<event>
12    1  0.1877663E-010  0.3238082E+04  0.7818608E-02  0.8178832E-01
          1   -1    0    0  501    0  0.00000000000E+00  0.00000000000E+00  0.31451273571E+04  0.31451273571E+04  0.00000000000E+00 0. -1.
         -1   -1    0    0    0  501 -0.00000000000E+00 -0.00000000000E+00 -0.83344587981E+03  0.83344587981E+03  0.00000000000E+00 0.  1.
    9900016    2    1    2    0    0  0.14231134580E+03  0.70548492189E+02  0.37763453316E+03  0.83099951205E+03  0.72299567045E+03 0.  0.
         25    2    3    3    0    0 -0.14167916599E+03 -0.18160166725E+03  0.36714394897E+03  0.45107798587E+03  0.12499807379E+03 0.  0.
         23    2    4    4    0    0 -0.13539382578E+03 -0.15201304621E+03  0.30587019048E+03  0.37878390134E+03  0.92093518860E+02 0.  0.
        -15    1    4    4    0    0 -0.96350534964E+01 -0.76857996488E+01  0.38898098587E+02  0.40804017521E+02  0.00000000000E+00 0. -1.
        -15    1    5    5    0    0 -0.10869955550E+03 -0.53518698185E+02  0.15760831134E+03  0.19879694219E+03  0.00000000000E+00 0.  1.
         15    1    5    5    0    0 -0.26694270274E+02 -0.98494348022E+02  0.14826187914E+03  0.17998695915E+03  0.00000000000E+00 0. -1.
         15    1    4    4    0    0  0.33497132858E+01 -0.21902821398E+02  0.22375659902E+02  0.31490067011E+02  0.00000000000E+00 0.  1.
        -16    1    3    3    0    0  0.28399051179E+03  0.25215015944E+03  0.10490584196E+02  0.37992152617E+03  0.00000000000E+00 0.  1.
         16    1    1    2    0    0  0.39977230864E+03  0.46638713255E+03  0.22383383602E+04  0.23210974712E+04  0.00000000000E+00 0. -1.
    9900018    1    1    2    0    0 -0.54208365444E+03 -0.53693562474E+03 -0.30429141609E+03  0.82647625364E+03  0.91187600000E+02 0.  0.
<mgrwt>
<rscale>  0 0.32380818E+04</rscale>
<asrwt>0</asrwt>
<pdfrwt beam="1">  1        1 0.48386574E+00 0.32380818E+04</pdfrwt>
<pdfrwt beam="2">  1       -1 0.12822244E+00 0.32380818E+04</pdfrwt>
<totfact> 0.20436980E-01</totfact>
</mgrwt>
</event>
<event>
12    1  0.1877663E-010  0.1194887E+04  0.7818608E-02  0.9117344E-01
         -2   -1    0    0    0  501 -0.00000000000E+00  0.00000000000E+00  0.15025731422E+03  0.15025731422E+03  0.00000000000E+00 0.  1.
          2   -1    0    0  501    0  0.00000000000E+00 -0.00000000000E+00 -0.23755159745E+04  0.23755159745E+04  0.00000000000E+00 0. -1.
    9900016    2    1    2    0    0  0.17639885712E+03  0.14343328109E+03 -0.13278497073E+04  0.15235285106E+04  0.71152274365E+03 0.  0.
         25    2    3    3    0    0  0.10131568673E+03  0.12813548009E+03 -0.12628696177E+02  0.20607725416E+03  0.12499912430E+03 0.  0.
         23    2    4    4    0    0  0.74674179045E+02  0.88431981857E+02 -0.22474002767E+02  0.14436797140E+03  0.83310155044E+02 0.  0.
        -15    1    4    4    0    0  0.17892779646E+02  0.10093559495E+02  0.20524315169E+02  0.29039266862E+02  0.00000000000E+00 0.  1.
        -15    1    5    5    0    0  0.36788804229E+01  0.54747097461E+02  0.15605304602E+02  0.57046510615E+02  0.00000000000E+00 0.  1.
         15    1    4    4    0    0  0.87487280439E+01  0.29609938743E+02 -0.10679008578E+02  0.32670015901E+02  0.00000000000E+00 0. -1.
         15    1    5    5    0    0  0.70995298622E+02  0.33684884396E+02 -0.38079307370E+02  0.87321460781E+02  0.00000000000E+00 0. -1.
        -16    1    1    2    0    0 -0.69741929400E+02 -0.17835183668E+03 -0.15638588936E+03  0.24724453635E+03  0.00000000000E+00 0.  1.
         16    1    3    3    0    0  0.75083170383E+02  0.15297800995E+02 -0.13152210111E+04  0.13174512565E+04  0.00000000000E+00 0. -1.
    9900018    1    1    2    0    0 -0.10665692772E+03  0.34918555589E+02 -0.74102306363E+03  0.75500024171E+03  0.91187600000E+02 0.  0.
<mgrwt>
<rscale>  0 0.11948869E+04</rscale>
<asrwt>0</asrwt>
<pdfrwt beam="1">  1        2 0.36546400E+00 0.11948869E+04</pdfrwt>
<pdfrwt beam="2">  1       -2 0.23116510E-01 0.11948869E+04</pdfrwt>
<totfact> 0.67306143E+01</totfact>
</mgrwt>
</event>
<event>
12    1  0.1877663E-010  0.1462490E+04  0.7818608E-02  0.8909787E-01
          2   -1    0    0  501    0  0.00000000000E+00  0.00000000000E+00  0.44443460625E+04  0.44443460625E+04  0.00000000000E+00 0. -1.
         -2   -1    0    0    0  501 -0.00000000000E+00 -0.00000000000E+00 -0.12031441818E+03  0.12031441818E+03  0.00000000000E+00 0.  1.
    9900016    2    1    2    0    0 -0.25184557676E+03 -0.26558296012E+03  0.20951297888E+04  0.22396715572E+04  0.70185422182E+03 0.  0.
         25    2    3    3    0    0  0.11589507558E+03 -0.13836119063E+03  0.17569619849E+03  0.28119156653E+03  0.12499622116E+03 0.  0.
         23    2    4    4    0    0  0.81034223534E+02 -0.67050129013E+02  0.11873620859E+03  0.18186682233E+03  0.88966221946E+02 0.  0.
        -15    1    4    4    0    0  0.10392775480E+02 -0.34571241120E+02  0.33903952018E+02  0.49524321876E+02  0.00000000000E+00 0. -1.
        -15    1    5    5    0    0 -0.12844672429E+02 -0.35774830944E+02  0.42009186751E+02  0.56653295671E+02  0.00000000000E+00 0.  1.
         15    1    4    4    0    0  0.24468076566E+02 -0.36739820494E+02  0.23056037881E+02  0.49800422323E+02  0.00000000000E+00 0.  1.
         15    1    5    5    0    0  0.93878895963E+02 -0.31275298069E+02  0.76727021844E+02  0.12521352666E+03  0.00000000000E+00 0. -1.
        -16    1    3    3    0    0 -0.36774065234E+03 -0.12722176949E+03  0.19194335903E+04  0.19584799906E+04  0.00000000000E+00 0.  1.
         16    1    1    2    0    0  0.40155710770E+03  0.95727433302E+02  0.15289414641E+04  0.15836899485E+04  0.00000000000E+00 0. -1.
    9900018    1    1    2    0    0 -0.14971153094E+03  0.16985552682E+03  0.69996039129E+03  0.74129897495E+03  0.91187600000E+02 0.  0.
<mgrwt>
<rscale>  0 0.14624895E+04</rscale>
<asrwt>0</asrwt>
<pdfrwt beam="1">  1        2 0.68374542E+00 0.14624895E+04</pdfrwt>
<pdfrwt beam="2">  1       -2 0.18509914E-01 0.14624895E+04</pdfrwt>
<totfact> 0.34263087E+00</totfact>
</mgrwt>
</event>
<event>
12    1  0.1877663E-010  0.1311962E+04  0.7818608E-02  0.9020133E-01
          1   -1    0    0  501    0  0.00000000000E+00  0.00000000000E+00  0.64459211260E+03  0.64459211260E+03  0.00000000000E+00 0. -1.
         -1   -1    0    0    0  501 -0.00000000000E+00 -0.00000000000E+00 -0.66757111630E+03  0.66757111630E+03  0.00000000000E+00 0.  1.
    9900016    2    1    2    0    0 -0.66771285269E+02 -0.10204405978E+03 -0.18339249721E+03  0.74636995588E+03  0.71313666876E+03 0.  0.
         25    2    3    3    0    0 -0.37148759826E+03 -0.11797984619E+03 -0.16289743806E+03  0.44054970125E+03  0.12500473663E+03 0.  0.
         23    2    4    4    0    0 -0.33446253373E+03 -0.88758744279E+02 -0.12547223396E+03  0.37927214355E+03  0.91437280268E+02 0.  0.
        -15    1    4    4    0    0 -0.17367663709E+02 -0.95807242517E+01 -0.21491470562E+02  0.29245671934E+02  0.00000000000E+00 0.  1.
        -15    1    5    5    0    0 -0.16753963653E+03 -0.29325678916E+02 -0.10741769307E+03  0.20116681147E+03  0.00000000000E+00 0. -1.
         15    1    4    4    0    0 -0.19657400819E+02 -0.19640377654E+02 -0.15933733541E+02  0.32031885769E+02  0.00000000000E+00 0. -1.
         15    1    5    5    0    0 -0.16692289720E+03 -0.59433065363E+02 -0.18054540887E+02  0.17810533208E+03  0.00000000000E+00 0.  1.
        -16    1    3    3    0    0  0.30471631299E+03  0.15935786408E+02 -0.20495059147E+02  0.30582025463E+03  0.00000000000E+00 0.  1.
         16    1    1    2    0    0 -0.22110901228E+03  0.58559433136E+02  0.11920539941E+03  0.25793086238E+03  0.00000000000E+00 0. -1.
    9900018    1    1    2    0    0  0.28788029755E+03  0.43484626641E+02  0.41208094112E+02  0.30786241064E+03  0.91187600000E+02 0.  0.
<mgrwt>
<rscale>  0 0.13119620E+04</rscale>
<asrwt>0</asrwt>
<pdfrwt beam="1">  1        1 0.99168018E-01 0.13119620E+04</pdfrwt>
<pdfrwt beam="2">  1       -1 0.10270325E+00 0.13119620E+04</pdfrwt>
<totfact> 0.27143939E+01</totfact>
</mgrwt>
</event>
<event>
12    1  0.1877663E-010  0.2526112E+04  0.7818608E-02  0.8393742E-01
         -2   -1    0    0    0  501 -0.00000000000E+00  0.00000000000E+00  0.54425446998E+03  0.54425446998E+03  0.00000000000E+00 0.  1.
          2   -1    0    0  501    0  0.00000000000E+00 -0.00000000000E+00 -0.29311852510E+04  0.29311852510E+04  0.00000000000E+00 0. -1.
    9900016    2    1    2    0    0  0.10921193506E+03 -0.21607778608E+03  0.12772053461E+03  0.75781975789E+03  0.70665507434E+03 0.  0.
         25    2    3    3    0    0  0.18246385852E+03  0.35358601713E+01  0.36469242009E+03  0.42653185829E+03  0.12499321139E+03 0.  0.
         23    2    4    4    0    0  0.14327777445E+03  0.22690593196E+02  0.28302425249E+03  0.33108016046E+03  0.92021527275E+02 0.  0.
        -15    1    4    4    0    0  0.18032724128E+02 -0.38932445310E+01  0.55574489956E+02  0.58556472113E+02  0.00000000000E+00 0.  1.
        -15    1    5    5    0    0  0.10359251415E+03  0.36848051970E+02  0.26169406643E+03  0.28385378688E+03  0.00000000000E+00 0. -1.
         15    1    5    5    0    0  0.39685260298E+02 -0.14157458774E+02  0.21330186055E+02  0.47226373575E+02  0.00000000000E+00 0.  1.
         15    1    4    4    0    0  0.21153359950E+02 -0.15261488493E+02  0.26093677647E+02  0.36895225725E+02  0.00000000000E+00 0. -1.
        -16    1    1    2    0    0 -0.51271438178E+03  0.19579035543E+03 -0.93121323225E+03  0.10809107199E+04  0.00000000000E+00 0.  1.
         16    1    3    3    0    0 -0.73251923466E+02 -0.21961364625E+03 -0.23697188548E+03  0.33128789959E+03  0.00000000000E+00 0. -1.
    9900018    1    1    2    0    0  0.40350244672E+03  0.20287430645E+02 -0.15834380834E+04  0.16367092431E+04  0.91187600000E+02 0.  0.
<mgrwt>
<rscale>  0 0.25261122E+04</rscale>
<asrwt>0</asrwt>
<pdfrwt beam="1">  1        2 0.45095158E+00 0.25261122E+04</pdfrwt>
<pdfrwt beam="2">  1       -2 0.83731457E-01 0.25261122E+04</pdfrwt>
<totfact> 0.21326904E+00</totfact>
</mgrwt>
</event>
<event>
12    1  0.1877663E-010  0.2018073E+04  0.7818608E-02  0.8598217E-01
         -2   -1    0    0    0  501 -0.00000000000E+00  0.00000000000E+00  0.32105573794E+03  0.32105573794E+03  0.00000000000E+00 0. -1.
          2   -1    0    0  501    0  0.00000000000E+00 -0.00000000000E+00 -0.31712721729E+04  0.31712721729E+04  0.00000000000E+00 0.  1.
    9900016    2    1    2    0    0 -0.23815695643E+03  0.26068586977E+03 -0.72956584299E+03  0.10518635403E+04  0.67042876552E+03 0.  0.
         25    2    3    3    0    0 -0.23610153869E+03 -0.17571638525E+03 -0.27536849784E+03  0.42198547177E+03  0.12499497654E+03 0.  0.
         23    2    4    4    0    0 -0.16159124359E+03 -0.12710012410E+03 -0.19426411129E+03  0.29745548378E+03  0.92060025774E+02 0.  0.
        -15    1    4    4    0    0 -0.27944933646E+02 -0.14968579742E+02 -0.10262657312E+02  0.33321161911E+02  0.00000000000E+00 0. -1.
        -15    1    5    5    0    0 -0.55322489819E+02 -0.37779733405E+01 -0.84663150499E+02  0.10120622518E+03  0.00000000000E+00 0.  1.
         15    1    5    5    0    0 -0.10626875377E+03 -0.12332215076E+03 -0.10960096079E+03  0.19624925860E+03  0.00000000000E+00 0. -1.
         15    1    4    4    0    0 -0.46565361455E+02 -0.33647681405E+02 -0.70841729245E+02  0.91208826074E+02  0.00000000000E+00 0.  1.
        -16    1    1    2    0    0  0.25793298810E+03 -0.32319874650E+03 -0.22392587433E+04  0.22771180416E+04  0.00000000000E+00 0.  1.
         16    1    3    3    0    0 -0.20554177439E+01  0.43640225502E+03 -0.45419734514E+03  0.62987806857E+03  0.00000000000E+00 0. -1.
    9900018    1    1    2    0    0 -0.19776031661E+02  0.62512876737E+02  0.11860815135E+03  0.16334632885E+03  0.91187600000E+02 0.  0.
<mgrwt>
<rscale>  0 0.20180735E+04</rscale>
<asrwt>0</asrwt>
<pdfrwt beam="1">  1        2 0.48788800E+00 0.20180735E+04</pdfrwt>
<pdfrwt beam="2">  1       -2 0.49393193E-01 0.20180735E+04</pdfrwt>
<totfact> 0.48883959E+00</totfact>
</mgrwt>
</event>
<event>
12    1  0.1877663E-010  0.1308889E+04  0.7818608E-02  0.9022546E-01
         -1   -1    0    0    0  501 -0.00000000000E+00  0.00000000000E+00  0.51384454960E+03  0.51384454960E+03  0.00000000000E+00 0.  1.
          1   -1    0    0  501    0  0.00000000000E+00 -0.00000000000E+00 -0.83351574826E+03  0.83351574826E+03  0.00000000000E+00 0. -1.
    9900016    2    1    2    0    0  0.13119196619E+03 -0.14461934571E+02 -0.19859892413E+03  0.69518156457E+03  0.65300489700E+03 0.  0.
         25    2    3    3    0    0  0.23358363870E+03  0.14008141450E+03  0.12302844971E+03  0.32395135439E+03  0.12499744646E+03 0.  0.
         23    2    4    4    0    0  0.17602768926E+03  0.11636471042E+03  0.76714377472E+02  0.24133965110E+03  0.88505583259E+02 0.  0.
        -15    1    4    4    0    0  0.45544585461E+02  0.28278134757E+02  0.28696428259E+02  0.60806637507E+02  0.00000000000E+00 0.  1.
        -15    1    5    5    0    0  0.70695233714E+02  0.31577474447E+01  0.43864257573E+02  0.83257795619E+02  0.00000000000E+00 0.  1.
         15    1    4    4    0    0  0.12011363981E+02 -0.45614306752E+01  0.17617643980E+02  0.21805065785E+02  0.00000000000E+00 0. -1.
         15    1    5    5    0    0  0.10533245554E+03  0.11320696297E+03  0.32850119899E+02  0.15808185548E+03  0.00000000000E+00 0. -1.
        -16    1    1    2    0    0  0.13863285041E+03  0.21819407167E+03 -0.15324971747E+03  0.30052154004E+03  0.00000000000E+00 0.  1.
         16    1    3    3    0    0 -0.10239167251E+03 -0.15454334907E+03 -0.32162737384E+03  0.37123021017E+03  0.00000000000E+00 0. -1.
    9900018    1    1    2    0    0 -0.26982481660E+03 -0.20373213710E+03  0.32177442934E+02  0.35165719325E+03  0.91187600000E+02 0.  0.
<mgrwt>
<rscale>  0 0.13088889E+04</rscale>
<asrwt>0</asrwt>
<pdfrwt beam="1">  1        1 0.12823319E+00 0.13088889E+04</pdfrwt>
<pdfrwt beam="2">  1       -1 0.79053008E-01 0.13088889E+04</pdfrwt>
<totfact> 0.32505988E+01</totfact>
</mgrwt>
</event>
<event>
12    1  0.1877663E-010  0.2202260E+04  0.7818608E-02  0.8517488E-01
         -2   -1    0    0    0  501 -0.00000000000E+00  0.00000000000E+00  0.46690947622E+03  0.46690947622E+03  0.00000000000E+00 0. -1.
          2   -1    0    0  501    0  0.00000000000E+00 -0.00000000000E+00 -0.25968366677E+04  0.25968366677E+04  0.00000000000E+00 0.  1.
    9900016    2    1    2    0    0  0.69427262549E+03 -0.38093060942E+02 -0.12282239494E+04  0.15845653093E+04  0.72031075904E+03 0.  0.
         25    2    3    3    0    0  0.13460177562E+03  0.26940698323E+03 -0.22801172457E+03  0.39788412542E+03  0.12499868040E+03 0.  0.
         23    2    4    4    0    0  0.74537452329E+02  0.18239739869E+03 -0.16450244131E+03  0.27251147942E+03  0.91524916655E+02 0.  0.
        -15    1    4    4    0    0  0.24324452587E+02  0.36461323447E+02 -0.13718547189E+02  0.45927177555E+02  0.00000000000E+00 0.  1.
        -15    1    5    5    0    0  0.40701593113E+02  0.14024526147E+02 -0.17578826898E+02  0.46500776022E+02  0.00000000000E+00 0. -1.
         15    1    4    4    0    0  0.35739870705E+02  0.50548261091E+02 -0.49790736071E+02  0.79445468441E+02  0.00000000000E+00 0. -1.
         15    1    5    5    0    0  0.33835859217E+02  0.16837287254E+03 -0.14692361442E+03  0.22601070340E+03  0.00000000000E+00 0.  1.
        -16    1    3    3    0    0  0.55967084987E+03 -0.30750004417E+03 -0.10002122248E+04  0.11866811838E+04  0.00000000000E+00 0.  1.
         16    1    1    2    0    0 -0.84601294082E+03  0.25654734705E+03 -0.61039997546E+03  0.10743102752E+04  0.00000000000E+00 0. -1.
    9900018    1    1    2    0    0  0.15174031532E+03 -0.21845428611E+03 -0.29130326665E+03  0.40487055952E+03  0.91187600000E+02 0.  0.
<mgrwt>
<rscale>  0 0.22022603E+04</rscale>
<asrwt>0</asrwt>
<pdfrwt beam="1">  1        2 0.39951332E+00 0.22022603E+04</pdfrwt>
<pdfrwt beam="2">  1       -2 0.71832229E-01 0.22022603E+04</pdfrwt>
<totfact> 0.49072345E+00</totfact>
</mgrwt>
</event>
<event>
12    1  0.1877663E-010  0.1089508E+04  0.7818608E-02  0.9215479E-01
          1   -1    0    0  501    0  0.00000000000E+00  0.00000000000E+00  0.12144529692E+04  0.12144529692E+04  0.00000000000E+00 0. -1.
         -1   -1    0    0    0  501 -0.00000000000E+00 -0.00000000000E+00 -0.24435422734E+03  0.24435422734E+03  0.00000000000E+00 0.  1.
    9900016    2    1    2    0    0  0.10656350695E+03 -0.10038039075E+02  0.58343101111E+03  0.91864907349E+03  0.70147546804E+03 0.  0.
         25    2    3    3    0    0  0.31198531177E+03 -0.18037501547E+03  0.51905079869E+03  0.64413565820E+03  0.12500813406E+03 0.  0.
         23    2    4    4    0    0  0.26391023740E+03 -0.16633433677E+03  0.44723132373E+03  0.55202762347E+03  0.86040194993E+02 0.  0.
        -15    1    4    4    0    0  0.18160641376E+02 -0.79725125170E+01  0.80408220701E+01  0.21401510942E+02  0.00000000000E+00 0.  1.
        -15    1    5    5    0    0  0.15928144036E+02  0.98960951703E+01  0.18646413332E+02  0.26444795371E+02  0.00000000000E+00 0.  1.
         15    1    4    4    0    0  0.29914432999E+02 -0.60681661806E+01  0.63778652889E+02  0.70706523793E+02  0.00000000000E+00 0. -1.
         15    1    5    5    0    0  0.24798209336E+03 -0.17623043194E+03  0.42858491040E+03  0.52558282810E+03  0.00000000000E+00 0. -1.
        -16    1    1    2    0    0  0.64836542835E+02  0.38143142283E+02 -0.28924275428E+02  0.80593363864E+02  0.00000000000E+00 0.  1.
         16    1    3    3    0    0 -0.20542180482E+03  0.17033697639E+03  0.64380212414E+02  0.27451341529E+03  0.00000000000E+00 0. -1.
    9900018    1    1    2    0    0 -0.17140004978E+03 -0.28105103208E+02  0.41559200616E+03  0.45956475917E+03  0.91187600000E+02 0.  0.
<mgrwt>
<rscale>  0 0.10895076E+04</rscale>
<asrwt>0</asrwt>
<pdfrwt beam="1">  1        1 0.18683891E+00 0.10895076E+04</pdfrwt>
<pdfrwt beam="2">  1       -1 0.37592959E-01 0.10895076E+04</pdfrwt>
<totfact> 0.70876707E+01</totfact>
</mgrwt>
</event>
<event>
12    1  0.1877663E-010  0.1249951E+04  0.7818608E-02  0.9070224E-01
         -1   -1    0    0    0  501 -0.00000000000E+00  0.00000000000E+00  0.20970472487E+03  0.20970472487E+03  0.00000000000E+00 0.  1.
          1   -1    0    0  501    0  0.00000000000E+00 -0.00000000000E+00 -0.18625906797E+04  0.18625906797E+04  0.00000000000E+00 0. -1.
    9900016    2    1    2    0    0  0.38020015790E+03  0.24012028032E+02 -0.10117239553E+04  0.12906781392E+04  0.70507869032E+03 0.  0.
         25    2    3    3    0    0  0.29818983913E+02 -0.16017765654E+03 -0.83015713642E+03  0.85517921067E+03  0.12499823099E+03 0.  0.
         23    2    4    4    0    0  0.45198761773E+02 -0.11025747703E+03 -0.63042825886E+03  0.64770841890E+03  0.88807471736E+02 0.  0.
        -15    1    4    4    0    0 -0.13337677863E+02 -0.11476883575E+02 -0.66940358911E+02  0.69214334921E+02  0.00000000000E+00 0. -1.
        -15    1    5    5    0    0  0.11362483693E+02 -0.11433989088E+02 -0.10954100590E+02  0.19489342264E+02  0.00000000000E+00 0.  1.
         15    1    4    4    0    0 -0.20420999972E+01 -0.38443295939E+02 -0.13278851865E+03  0.13825645685E+03  0.00000000000E+00 0.  1.
         15    1    5    5    0    0  0.33836278080E+02 -0.98823487937E+02 -0.61947415827E+03  0.62821907663E+03  0.00000000000E+00 0. -1.
        -16    1    3    3    0    0  0.35038117398E+03  0.18418968457E+03 -0.18156681891E+03  0.43549892849E+03  0.00000000000E+00 0.  1.
         16    1    1    2    0    0 -0.23976658043E+03  0.61183845280E+02 -0.45026441979E+03  0.51377964512E+03  0.00000000000E+00 0. -1.
    9900018    1    1    2    0    0 -0.14043357746E+03 -0.85195873313E+02 -0.19089757972E+03  0.26783762030E+03  0.91187600000E+02 0.  0.
<mgrwt>
<rscale>  0 0.12499505E+04</rscale>
<asrwt>0</asrwt>
<pdfrwt beam="1">  1        1 0.28655242E+00 0.12499505E+04</pdfrwt>
<pdfrwt beam="2">  1       -1 0.32262265E-01 0.12499505E+04</pdfrwt>
<totfact> 0.32719155E+01</totfact>
</mgrwt>
</event>
<event>
12    1  0.1877663E-010  0.1122975E+04  0.7818608E-02  0.9183084E-01
         -1   -1    0    0    0  501 -0.00000000000E+00  0.00000000000E+00  0.18110032135E+03  0.18110032135E+03  0.00000000000E+00 0.  1.
          1   -1    0    0  501    0  0.00000000000E+00 -0.00000000000E+00 -0.17408481173E+04  0.17408481173E+04  0.00000000000E+00 0. -1.
    9900016    2    1    2    0    0  0.20814751714E+02 -0.92869641451E+02 -0.64299888726E+03  0.94274823172E+03  0.68283865972E+03 0.  0.
         25    2    3    3    0    0 -0.24492180390E+03  0.17477314093E+01 -0.41108424089E+02  0.27803739693E+03  0.12500058788E+03 0.  0.
         23    2    4    4    0    0 -0.13675897208E+03 -0.21588860146E+01 -0.24453739021E+02  0.16569689524E+03  0.90276234451E+02 0.  0.
        -15    1    4    4    0    0 -0.20260935230E+02 -0.15756394200E+01 -0.13135131254E+02  0.24197516588E+02  0.00000000000E+00 0.  1.
        -15    1    5    5    0    0 -0.59462101731E+02  0.43810766309E+02 -0.13764837648E+02  0.75130523373E+02  0.00000000000E+00 0. -1.
         15    1    5    5    0    0 -0.77296870347E+02 -0.45969652324E+02 -0.10688901372E+02  0.90566371865E+02  0.00000000000E+00 0.  1.
         15    1    4    4    0    0 -0.87901896587E+02  0.54822568439E+01 -0.35195538143E+01  0.88142985102E+02  0.00000000000E+00 0. -1.
        -16    1    3    3    0    0  0.26573655561E+03 -0.94617372860E+02 -0.60189046317E+03  0.66471083479E+03  0.00000000000E+00 0.  1.
         16    1    1    2    0    0 -0.48620874936E+02 -0.10851528263E+03 -0.37572534821E+03  0.39409274712E+03  0.00000000000E+00 0. -1.
    9900018    1    1    2    0    0  0.27806123222E+02  0.20138492408E+03 -0.54102356045E+03  0.58510745978E+03  0.91187600000E+02 0.  0.
<mgrwt>
<rscale>  0 0.11229749E+04</rscale>
<asrwt>0</asrwt>
<pdfrwt beam="1">  1        1 0.26782279E+00 0.11229749E+04</pdfrwt>
<pdfrwt beam="2">  1       -1 0.27861588E-01 0.11229749E+04</pdfrwt>
<totfact> 0.51689551E+01</totfact>
</mgrwt>
</event>
<event>
12    1  0.1877663E-010  0.1155053E+04  0.7818608E-02  0.9153134E-01
          1   -1    0    0  501    0  0.00000000000E+00  0.00000000000E+00  0.12872849436E+04  0.12872849436E+04  0.00000000000E+00 0. -1.
         -1   -1    0    0    0  501 -0.00000000000E+00 -0.00000000000E+00 -0.25910112815E+03  0.25910112815E+03  0.00000000000E+00 0.  1.
    9900016    2    1    2    0    0  0.28383672266E+03 -0.77254083081E+02  0.52708697547E+03  0.94365335111E+03  0.72534783991E+03 0.  0.
         25    2    3    3    0    0  0.68487249985E+01  0.14805449044E+03 -0.10291385257E+03  0.21950740761E+03  0.12500081508E+03 0.  0.
         23    2    4    4    0    0  0.91248953365E+01  0.10092787659E+03 -0.10110120965E+03  0.16951444869E+03  0.90796441200E+02 0.  0.
        -15    1    4    4    0    0 -0.88116013307E-01  0.25204305575E+02  0.71645005046E+01  0.26202955014E+02  0.00000000000E+00 0.  1.
        -15    1    5    5    0    0  0.15883741546E+02  0.11464834697E+03 -0.10188680365E+03  0.15419940813E+03  0.00000000000E+00 0.  1.
         15    1    5    5    0    0 -0.67588462092E+01 -0.13720470381E+02  0.78559400072E+00  0.15315040564E+02  0.00000000000E+00 0. -1.
         15    1    4    4    0    0 -0.21880543247E+01  0.21922308273E+02 -0.89771434273E+01  0.23790003906E+02  0.00000000000E+00 0. -1.
        -16    1    1    2    0    0 -0.11046080788E+03  0.84242473687E+02  0.20998358922E+03  0.25177667126E+03  0.00000000000E+00 0.  1.
         16    1    3    3    0    0  0.27698799766E+03 -0.22530857352E+03  0.63000082804E+03  0.72414594350E+03  0.00000000000E+00 0. -1.
    9900018    1    1    2    0    0 -0.17337591479E+03 -0.69883906060E+01  0.29111325076E+03  0.35095604938E+03  0.91187600000E+02 0.  0.
<mgrwt>
<rscale>  0 0.11550532E+04</rscale>
<asrwt>0</asrwt>
<pdfrwt beam="1">  1        1 0.19804383E+00 0.11550532E+04</pdfrwt>
<pdfrwt beam="2">  1       -1 0.39861713E-01 0.11550532E+04</pdfrwt>
<totfact> 0.56186496E+01</totfact>
</mgrwt>
</event>
<event>
12    1  0.1877663E-010  0.2155976E+04  0.7818608E-02  0.8536978E-01
          2   -1    0    0  501    0  0.00000000000E+00  0.00000000000E+00  0.23694916644E+04  0.23694916644E+04  0.00000000000E+00 0. -1.
         -2   -1    0    0    0  501 -0.00000000000E+00 -0.00000000000E+00 -0.49042530154E+03  0.49042530154E+03  0.00000000000E+00 0.  1.
    9900016    2    1    2    0    0  0.28693658535E+03 -0.69808718474E+02  0.99372940292E+03  0.12600877760E+04  0.71632200564E+03 0.  0.
         25    2    3    3    0    0 -0.78279070429E+02 -0.11821702038E+03  0.83980745978E+03  0.86081618483E+03  0.12500023115E+03 0.  0.
         23    2    4    4    0    0 -0.68275748436E+02 -0.77165931148E+02  0.65516007741E+03  0.66910004324E+03  0.88566258113E+02 0.  0.
        -15    1    4    4    0    0 -0.12419074721E+02 -0.14405217342E+02  0.36356396822E+02  0.41030857821E+02  0.00000000000E+00 0.  1.
        -15    1    5    5    0    0 -0.74945282449E+00  0.11469608970E+02  0.13035574572E+02  0.17379292674E+02  0.00000000000E+00 0. -1.
         15    1    4    4    0    0  0.24157527289E+01 -0.26645871889E+02  0.14829098555E+03  0.15068528377E+03  0.00000000000E+00 0. -1.
         15    1    5    5    0    0 -0.67526295612E+02 -0.88635540117E+02  0.64212450284E+03  0.65172075057E+03  0.00000000000E+00 0.  1.
        -16    1    1    2    0    0 -0.23485376334E+03 -0.27963043884E+03 -0.22645925550E+03  0.42968973328E+03  0.00000000000E+00 0.  1.
         16    1    3    3    0    0  0.36521565577E+03  0.48408301906E+02  0.15392194313E+03  0.39927159114E+03  0.00000000000E+00 0. -1.
    9900018    1    1    2    0    0 -0.52082822004E+02  0.34943915731E+03  0.11117962154E+04  0.11701394567E+04  0.91187600000E+02 0.  0.
<mgrwt>
<rscale>  0 0.21559765E+04</rscale>
<asrwt>0</asrwt>
<pdfrwt beam="1">  1        2 0.36453717E+00 0.21559765E+04</pdfrwt>
<pdfrwt beam="2">  1       -2 0.75450048E-01 0.21559765E+04</pdfrwt>
<totfact> 0.59824967E+00</totfact>
</mgrwt>
</event>
<event>
12    1  0.1877663E-010  0.1882611E+04  0.7818608E-02  0.8663561E-01
          2   -1    0    0  501    0  0.00000000000E+00  0.00000000000E+00  0.20697752389E+04  0.20697752389E+04  0.00000000000E+00 0. -1.
         -2   -1    0    0    0  501 -0.00000000000E+00 -0.00000000000E+00 -0.42809305797E+03  0.42809305797E+03  0.00000000000E+00 0.  1.
    9900016    2    1    2    0    0 -0.40564862386E+03  0.23716086897E+03  0.67905458709E+03  0.10917606533E+04  0.71416392232E+03 0.  0.
         25    2    3    3    0    0 -0.72652023106E+02 -0.22777819887E+03  0.13198842925E+03  0.30034644187E+03  0.12500326135E+03 0.  0.
         23    2    4    4    0    0 -0.81858543062E+02 -0.17492387317E+03  0.11559426668E+03  0.24297617623E+03  0.91521610831E+02 0.  0.
        -15    1    4    4    0    0  0.32114574580E+01 -0.41824936860E+02  0.93570755132E+01  0.42978990966E+02  0.00000000000E+00 0. -1.
        -15    1    5    5    0    0 -0.42600049633E+02 -0.14956772343E+02  0.70071524369E+01  0.45689927259E+02  0.00000000000E+00 0.  1.
         15    1    5    5    0    0 -0.39258493429E+02 -0.15996710083E+03  0.10858711424E+03  0.19728624897E+03  0.00000000000E+00 0. -1.
         15    1    4    4    0    0  0.59950624979E+01 -0.11029388838E+02  0.70370870537E+01  0.14391274672E+02  0.00000000000E+00 0.  1.
        -16    1    3    3    0    0 -0.33299660076E+03  0.46493906784E+03  0.54706615784E+03  0.79141421138E+03  0.00000000000E+00 0.  1.
         16    1    1    2    0    0  0.59729640457E+03 -0.25547864432E+03  0.99735290708E+03  0.11902710422E+04  0.00000000000E+00 0. -1.
    9900018    1    1    2    0    0 -0.19164778070E+03  0.18317775352E+02 -0.34725313233E+02  0.21583660143E+03  0.91187600000E+02 0.  0.
<mgrwt>
<rscale>  0 0.18826114E+04</rscale>
<asrwt>0</asrwt>
<pdfrwt beam="1">  1        2 0.31842695E+00 0.18826114E+04</pdfrwt>
<pdfrwt beam="2">  1       -2 0.65860472E-01 0.18826114E+04</pdfrwt>
<totfact> 0.12158291E+01</totfact>
</mgrwt>
</event>
<event>
12    1  0.1877663E-010  0.1533567E+04  0.7818608E-02  0.8862433E-01
          2   -1    0    0  501    0  0.00000000000E+00  0.00000000000E+00  0.19356632080E+04  0.19356632080E+04  0.00000000000E+00 0. -1.
         -2   -1    0    0    0  501 -0.00000000000E+00 -0.00000000000E+00 -0.30374956183E+03  0.30374956183E+03  0.00000000000E+00 0.  1.
    9900016    2    1    2    0    0 -0.10375822751E+02 -0.49467177092E+02  0.16543210103E+04  0.18055482824E+04  0.72157600825E+03 0.  0.
         25    2    3    3    0    0  0.59102015027E+02 -0.10718832895E+03  0.28541879556E+02  0.17726185697E+03  0.12499896400E+03 0.  0.
         23    2    4    4    0    0  0.22440627354E+02 -0.74985878657E+02  0.24602875173E+02  0.12296811363E+03  0.91593622857E+02 0.  0.
        -15    1    4    4    0    0  0.31804374423E+02 -0.16824781169E+02  0.95376080913E+01  0.37223077008E+02  0.00000000000E+00 0.  1.
        -15    1    5    5    0    0 -0.23731563326E+02 -0.57792387771E+02 -0.92963774314E+01  0.63163041532E+02  0.00000000000E+00 0.  1.
         15    1    4    4    0    0  0.48570132495E+01 -0.15377669129E+02 -0.55986037085E+01  0.17070666332E+02  0.00000000000E+00 0. -1.
         15    1    5    5    0    0  0.46172190680E+02 -0.17193490885E+02  0.33899252605E+02  0.59805072094E+02  0.00000000000E+00 0. -1.
        -16    1    1    2    0    0 -0.46397262269E+02  0.90647545932E+02 -0.19874809609E+03  0.22331701509E+03  0.00000000000E+00 0.  1.
         16    1    3    3    0    0 -0.69477837778E+02  0.57721151862E+02  0.16257791307E+04  0.16282864254E+04  0.00000000000E+00 0. -1.
    9900018    1    1    2    0    0  0.56773085020E+02 -0.41180368840E+02  0.17634073199E+03  0.21054747235E+03  0.91187600000E+02 0.  0.
<mgrwt>
<rscale>  0 0.15335669E+04</rscale>
<asrwt>0</asrwt>
<pdfrwt beam="1">  1        2 0.29779433E+00 0.15335669E+04</pdfrwt>
<pdfrwt beam="2">  1       -2 0.46730703E-01 0.15335669E+04</pdfrwt>
<totfact> 0.30357970E+01</totfact>
</mgrwt>
</event>
<event>
12    1  0.2312469E-010  0.2130179E+04  0.7818608E-02  0.8548065E-01
         -1   -1    0    0    0  501 -0.00000000000E+00  0.00000000000E+00  0.70468717274E+03  0.70468717274E+03  0.00000000000E+00 0.  1.
          1   -1    0    0  501    0  0.00000000000E+00 -0.00000000000E+00 -0.16098140529E+04  0.16098140529E+04  0.00000000000E+00 0. -1.
    9900016    2    1    2    0    0 -0.20205258796E+03 -0.51769634991E+02 -0.32200996520E+03  0.80107103440E+03  0.70322047827E+03 0.  0.
         25    2    3    3    0    0  0.60308087113E+02  0.80087924629E+02  0.16651531148E+03  0.23109166126E+03  0.12499946362E+03 0.  0.
         23    2    4    4    0    0  0.58402763473E+02  0.50770522090E+02  0.15379106373E+03  0.19431695039E+03  0.90104701490E+02 0.  0.
        -15    1    4    4    0    0 -0.27174699290E+01  0.18065895789E+02  0.15881946914E+02  0.24207384643E+02  0.00000000000E+00 0.  1.
        -15    1    5    5    0    0 -0.15192756948E+02  0.38690376528E+02  0.75518118312E+02  0.86201805625E+02  0.00000000000E+00 0. -1.
         15    1    4    4    0    0  0.46227935687E+01  0.11251506750E+02 -0.31576991637E+01  0.12567326228E+02  0.00000000000E+00 0. -1.
         15    1    5    5    0    0  0.73595520422E+02  0.12080145561E+02  0.78272945417E+02  0.10811514476E+03  0.00000000000E+00 0.  1.
        -16    1    1    2    0    0 -0.12194051965E+01  0.60676365579E+03  0.89570597769E+02  0.61334045434E+03  0.00000000000E+00 0.  1.
         16    1    3    3    0    0 -0.26236067507E+03 -0.13185755962E+03 -0.48852527668E+03  0.56997937314E+03  0.00000000000E+00 0. -1.
    9900018    1    1    2    0    0  0.20327199315E+03 -0.55499402080E+03 -0.67268751276E+03  0.90008973694E+03  0.91187600000E+02 0.  0.
<mgrwt>
<rscale>  0 0.21301787E+04</rscale>
<asrwt>0</asrwt>
<pdfrwt beam="1">  1        1 0.24766370E+00 0.21301787E+04</pdfrwt>
<pdfrwt beam="2">  1       -1 0.10841341E+00 0.21301787E+04</pdfrwt>
<totfact> 0.39802070E+00</totfact>
</mgrwt>
</event>
<event>
12    1  0.1877663E-010  0.1375968E+04  0.7818608E-02  0.8971400E-01
         -2   -1    0    0    0  501 -0.00000000000E+00  0.00000000000E+00  0.55134504257E+03  0.55134504257E+03  0.00000000000E+00 0.  1.
          2   -1    0    0  501    0  0.00000000000E+00 -0.00000000000E+00 -0.85848569390E+03  0.85848569390E+03  0.00000000000E+00 0. -1.
    9900016    2    1    2    0    0  0.15145842801E+03 -0.13385469020E+03 -0.10028082968E+03  0.74648691345E+03  0.71156850243E+03 0.  0.
         25    2    3    3    0    0  0.74992672230E+01  0.15852053620E+03  0.21361407987E+03  0.29400760207E+03  0.12499798219E+03 0.  0.
         23    2    4    4    0    0  0.17811728569E+02  0.12244950288E+03  0.16488838924E+03  0.22425175302E+03  0.88258310630E+02 0.  0.
        -15    1    4    4    0    0 -0.40726555665E+01  0.23468094532E+02  0.50251065935E+02  0.55610319293E+02  0.00000000000E+00 0.  1.
        -15    1    5    5    0    0 -0.29143862718E+02  0.14532505138E+02  0.22809358578E+02  0.39759593540E+02  0.00000000000E+00 0.  1.
         15    1    4    4    0    0 -0.62398057799E+01  0.12602938788E+02 -0.15253753120E+01  0.14145529757E+02  0.00000000000E+00 0. -1.
         15    1    5    5    0    0  0.46955591288E+02  0.10791699775E+03  0.14207903067E+03  0.18449215948E+03  0.00000000000E+00 0. -1.
        -16    1    1    2    0    0 -0.34027656514E+03  0.35363021883E+02  0.15192255960E+02  0.34244632972E+03  0.00000000000E+00 0.  1.
         16    1    3    3    0    0  0.14395916079E+03 -0.29237522641E+03 -0.31389490954E+03  0.45247931138E+03  0.00000000000E+00 0. -1.
    9900018    1    1    2    0    0  0.18881813713E+03  0.98491668320E+02 -0.22205207761E+03  0.32089749329E+03  0.91187600000E+02 0.  0.
<mgrwt>
<rscale>  0 0.13759678E+04</rscale>
<asrwt>0</asrwt>
<pdfrwt beam="1">  1        2 0.13207472E+00 0.13759678E+04</pdfrwt>
<pdfrwt beam="2">  1       -2 0.84822315E-01 0.13759678E+04</pdfrwt>
<totfact> 0.36969709E+01</totfact>
</mgrwt>
</event>
<event>
12    1  0.1877663E-010  0.1874378E+04  0.7818608E-02  0.8667716E-01
         -2   -1    0    0    0  501 -0.00000000000E+00  0.00000000000E+00  0.23223341450E+03  0.23223341450E+03  0.00000000000E+00 0.  1.
          2   -1    0    0  501    0  0.00000000000E+00 -0.00000000000E+00 -0.37820714087E+04  0.37820714087E+04  0.00000000000E+00 0. -1.
    9900016    2    1    2    0    0  0.41272964109E+03  0.25595792227E+03 -0.27868012258E+04  0.29164166485E+04  0.70948205140E+03 0.  0.
         25    2    3    3    0    0 -0.75644459090E+00  0.18615908486E+03 -0.21500128785E+03  0.31065427613E+03  0.12499899365E+03 0.  0.
         23    2    4    4    0    0 -0.24101879844E+02  0.14734786390E+03 -0.17080104228E+03  0.24472745081E+03  0.91794528853E+02 0.  0.
        -15    1    4    4    0    0  0.11320423143E+02  0.19749796072E+02 -0.34628893216E+02  0.41441122939E+02  0.00000000000E+00 0.  1.
        -15    1    5    5    0    0 -0.33022268884E+02  0.70556201440E+02 -0.14249716178E+03  0.16240101268E+03  0.00000000000E+00 0.  1.
         15    1    5    5    0    0  0.89203890396E+01  0.76791662463E+02 -0.28303880505E+02  0.82326438136E+02  0.00000000000E+00 0. -1.
         15    1    4    4    0    0  0.12025012111E+02  0.19061424889E+02 -0.95713523562E+01  0.24485702379E+02  0.00000000000E+00 0. -1.
        -16    1    1    2    0    0 -0.45011981801E+03 -0.73022046364E+02 -0.20038280135E+03  0.49808968761E+03  0.00000000000E+00 0.  1.
         16    1    3    3    0    0  0.41348608568E+03  0.69798837401E+02 -0.25717999379E+04  0.26057623724E+04  0.00000000000E+00 0. -1.
    9900018    1    1    2    0    0  0.37390176927E+02 -0.18293587590E+03 -0.56265396709E+03  0.59979848708E+03  0.91187600000E+02 0.  0.
<mgrwt>
<rscale>  0 0.18743781E+04</rscale>
<asrwt>0</asrwt>
<pdfrwt beam="1">  1        2 0.58185710E+00 0.18743781E+04</pdfrwt>
<pdfrwt beam="2">  1       -2 0.35728220E-01 0.18743781E+04</pdfrwt>
<totfact> 0.35380579E+00</totfact>
</mgrwt>
</event>
<event>
12    1  0.1877663E-010  0.1080535E+04  0.7818608E-02  0.9224375E-01
          1   -1    0    0  501    0  0.00000000000E+00  0.00000000000E+00  0.27378721521E+03  0.27378721521E+03  0.00000000000E+00 0. -1.
         -1   -1    0    0    0  501 -0.00000000000E+00 -0.00000000000E+00 -0.10661154273E+04  0.10661154273E+04  0.00000000000E+00 0.  1.
    9900016    2    1    2    0    0 -0.16206920320E+03  0.61909084984E+02 -0.40295581359E+03  0.85890667096E+03  0.73840918215E+03 0.  0.
         25    2    3    3    0    0 -0.49764448743E+02  0.23986608397E+03 -0.54124245952E+03  0.60710466976E+03  0.12498176452E+03 0.  0.
         23    2    4    4    0    0 -0.11780598545E+02  0.18179241380E+03 -0.39890148140E+03  0.44794554164E+03  0.91353993869E+02 0.  0.
        -15    1    4    4    0    0 -0.24231843571E+02  0.35828890790E+02 -0.70559081734E+02  0.82761559152E+02  0.00000000000E+00 0. -1.
        -15    1    5    5    0    0  0.98122558216E+01  0.28975085393E+02 -0.16434427834E+03  0.16716721497E+03  0.00000000000E+00 0. -1.
         15    1    4    4    0    0 -0.13752006627E+02  0.22244779387E+02 -0.71781896390E+02  0.76397568978E+02  0.00000000000E+00 0.  1.
         15    1    5    5    0    0 -0.21592854367E+02  0.15281732840E+03 -0.23455720306E+03  0.28077832667E+03  0.00000000000E+00 0.  1.
        -16    1    1    2    0    0  0.15321090075E+03 -0.18000220351E+02 -0.12759442515E+03  0.20019471864E+03  0.00000000000E+00 0.  1.
         16    1    3    3    0    0 -0.11230475445E+03 -0.17795699899E+03  0.13828664593E+03  0.25180200119E+03  0.00000000000E+00 0. -1.
    9900018    1    1    2    0    0  0.88583024514E+01 -0.43908864633E+02 -0.26177797333E+03  0.28080125290E+03  0.91187600000E+02 0.  0.
<mgrwt>
<rscale>  0 0.10805346E+04</rscale>
<asrwt>0</asrwt>
<pdfrwt beam="1">  1        1 0.42121110E-01 0.10805346E+04</pdfrwt>
<pdfrwt beam="2">  1       -1 0.16401776E+00 0.10805346E+04</pdfrwt>
<totfact> 0.26868914E+01</totfact>
</mgrwt>
</event>
<event>
12    1  0.1877663E-010  0.1973657E+04  0.7818608E-02  0.8619037E-01
         -2   -1    0    0    0  501 -0.00000000000E+00  0.00000000000E+00  0.64771891171E+03  0.64771891171E+03  0.00000000000E+00 0.  1.
          2   -1    0    0  501    0  0.00000000000E+00 -0.00000000000E+00 -0.15034772532E+04  0.15034772532E+04  0.00000000000E+00 0. -1.
    9900016    2    1    2    0    0  0.36961927255E+03  0.30345840122E+03 -0.40426504655E+03  0.94899161318E+03  0.71305641160E+03 0.  0.
         25    2    3    3    0    0  0.10837084138E+03  0.16194248563E+02  0.18156622269E+03  0.24616182426E+03  0.12499142992E+03 0.  0.
         23    2    4    4    0    0  0.57119008034E+02  0.10575082076E+02  0.10375335237E+03  0.14988736569E+03  0.91252675719E+02 0.  0.
        -15    1    4    4    0    0  0.36932860013E+02  0.46106408790E+01  0.34892998740E+02  0.51017796102E+02  0.00000000000E+00 0. -1.
        -15    1    5    5    0    0  0.11344523713E+02  0.39515573651E+02  0.11126810470E+02  0.42590899150E+02  0.00000000000E+00 0.  1.
         15    1    4    4    0    0  0.14318973333E+02  0.10085256080E+01  0.42919871573E+02  0.45256662461E+02  0.00000000000E+00 0.  1.
         15    1    5    5    0    0  0.45774484321E+02 -0.28940491575E+02  0.92626541904E+02  0.10729646654E+03  0.00000000000E+00 0. -1.
        -16    1    1    2    0    0 -0.35090710268E+03 -0.47040308616E+03  0.12050614875E+03  0.59911316967E+03  0.00000000000E+00 0.  1.
         16    1    3    3    0    0  0.26124843117E+03  0.28726415266E+03 -0.58583126923E+03  0.70282978893E+03  0.00000000000E+00 0. -1.
    9900018    1    1    2    0    0 -0.18712169866E+02  0.16694468493E+03 -0.57199944368E+03  0.60309138204E+03  0.91187600000E+02 0.  0.
<mgrwt>
<rscale>  0 0.19736572E+04</rscale>
<asrwt>0</asrwt>
<pdfrwt beam="1">  1        2 0.23130419E+00 0.19736572E+04</pdfrwt>
<pdfrwt beam="2">  1       -2 0.99649064E-01 0.19736572E+04</pdfrwt>
<totfact> 0.98004157E+00</totfact>
</mgrwt>
</event>
<event>
12    1  0.1877663E-010  0.1874744E+04  0.7818608E-02  0.8667531E-01
         -2   -1    0    0    0  501 -0.00000000000E+00  0.00000000000E+00  0.79248970838E+03  0.79248970838E+03  0.00000000000E+00 0.  1.
          2   -1    0    0  501    0  0.00000000000E+00 -0.00000000000E+00 -0.11087417468E+04  0.11087417468E+04  0.00000000000E+00 0. -1.
    9900016    2    1    2    0    0  0.91904758294E+02  0.52944439034E+03 -0.60361635214E+02  0.88344214396E+03  0.69861910056E+03 0.  0.
         25    2    3    3    0    0  0.30490022010E+03  0.11037109089E+03  0.13706407740E+03  0.37357313229E+03  0.12499760772E+03 0.  0.
         23    2    4    4    0    0  0.19966402444E+03  0.57567076110E+02  0.66048602590E+02  0.23329003560E+03  0.82958615586E+02 0.  0.
        -15    1    4    4    0    0  0.73133839361E+02  0.26663100775E+02  0.57346267698E+02  0.96685437484E+02  0.00000000000E+00 0.  1.
        -15    1    5    5    0    0  0.18000514740E+02  0.98869274898E+01  0.38267455615E+02  0.43430035981E+02  0.00000000000E+00 0. -1.
         15    1    4    4    0    0  0.32102356308E+02  0.26140914009E+02  0.13669207109E+02  0.43597659211E+02  0.00000000000E+00 0. -1.
         15    1    5    5    0    0  0.18166350970E+03  0.47680148620E+02  0.27781146975E+02  0.18985999962E+03  0.00000000000E+00 0.  1.
        -16    1    3    3    0    0 -0.21299546181E+03  0.41907329944E+03 -0.19742571261E+03  0.50986901166E+03  0.00000000000E+00 0.  1.
         16    1    1    2    0    0  0.12837671951E+03 -0.68662165454E+03 -0.20252457733E+03  0.72728679558E+03  0.00000000000E+00 0. -1.
    9900018    1    1    2    0    0 -0.22028147780E+03  0.15717726421E+03 -0.53365825909E+02  0.29050251568E+03  0.91187600000E+02 0.  0.
<mgrwt>
<rscale>  0 0.18747442E+04</rscale>
<asrwt>0</asrwt>
<pdfrwt beam="1">  1        2 0.17057565E+00 0.18747442E+04</pdfrwt>
<pdfrwt beam="2">  1       -2 0.12192149E+00 0.18747442E+04</pdfrwt>
<totfact> 0.10307441E+01</totfact>
</mgrwt>
</event>
<event>
12    1  0.1877663E-010  0.1310854E+04  0.7818608E-02  0.9021002E-01
          5   -1    0    0  501    0  0.00000000000E+00  0.00000000000E+00  0.13612899118E+04  0.13612899118E+04  0.00000000000E+00 0. -1.
         -5   -1    0    0    0  501 -0.00000000000E+00 -0.00000000000E+00 -0.31557188804E+03  0.31557188804E+03  0.00000000000E+00 0.  1.
    9900016    2    1    2    0    0  0.11549200587E+03  0.28401747878E+03  0.59970690722E+03  0.99780834964E+03  0.73618530030E+03 0.  0.
         25    2    3    3    0    0 -0.18906661211E+03  0.27271101325E+03  0.35274971818E+02  0.35635126016E+03  0.12499766564E+03 0.  0.
         23    2    4    4    0    0 -0.17170281305E+03  0.24446583394E+03  0.55780812846E+02  0.31662274950E+03  0.88842931305E+02 0.  0.
        -15    1    4    4    0    0 -0.10302057981E+02  0.17618189760E+02 -0.81782679604E+01  0.21986747734E+02  0.00000000000E+00 0. -1.
        -15    1    5    5    0    0 -0.29295088924E+02  0.70210277641E+00  0.35357889914E+01  0.29516046266E+02  0.00000000000E+00 0. -1.
         15    1    5    5    0    0 -0.14240772413E+03  0.24376373116E+03  0.52245023855E+02  0.28710670323E+03  0.00000000000E+00 0.  1.
         15    1    4    4    0    0 -0.70617410760E+01  0.10626989554E+02 -0.12327573069E+02  0.17741762927E+02  0.00000000000E+00 0.  1.
        -16    1    1    2    0    0  0.65693010594E+02  0.28768832482E+02 -0.27142570917E+02  0.76680744123E+02  0.00000000000E+00 0.  1.
         16    1    3    3    0    0  0.30455861797E+03  0.11306465524E+02  0.56443193540E+03  0.64145708948E+03  0.00000000000E+00 0. -1.
    9900018    1    1    2    0    0 -0.18118501646E+03 -0.31278631126E+03  0.47315368750E+03  0.60237270613E+03  0.91187600000E+02 0.  0.
<mgrwt>
<rscale>  0 0.13108544E+04</rscale>
<asrwt>0</asrwt>
<pdfrwt beam="1">  1        5 0.20942921E+00 0.13108544E+04</pdfrwt>
<pdfrwt beam="2">  1       -5 0.48549522E-01 0.13108544E+04</pdfrwt>
<totfact> 0.37772846E-01</totfact>
</mgrwt>
</event>
<event>
12    1  0.1877663E-010  0.1379596E+04  0.7818608E-02  0.8968722E-01
         -1   -1    0    0    0  501 -0.00000000000E+00  0.00000000000E+00  0.43280048902E+03  0.43280048902E+03  0.00000000000E+00 0.  1.
          1   -1    0    0  501    0  0.00000000000E+00 -0.00000000000E+00 -0.10994008977E+04  0.10994008977E+04  0.00000000000E+00 0. -1.
    9900016    2    1    2    0    0  0.82200007703E+02 -0.90731986506E+02 -0.30669013432E+03  0.78384408506E+03  0.71088928573E+03 0.  0.
         25    2    3    3    0    0  0.16806800147E+03 -0.49179086102E+02 -0.51314042163E+03  0.55642008233E+03  0.12499912032E+03 0.  0.
         23    2    4    4    0    0  0.11365275281E+03 -0.21542040782E+02 -0.29407613834E+03  0.32807284681E+03  0.88147659840E+02 0.  0.
        -15    1    4    4    0    0  0.45465335830E+02 -0.13497697105E+02 -0.17090746537E+03  0.17736585440E+03  0.00000000000E+00 0. -1.
        -15    1    5    5    0    0  0.31444907596E+02  0.30630752934E+02 -0.13079827383E+03  0.13796816182E+03  0.00000000000E+00 0.  1.
         15    1    4    4    0    0  0.89499128365E+01 -0.14139348215E+02 -0.48156817926E+02  0.50981381116E+02  0.00000000000E+00 0.  1.
         15    1    5    5    0    0  0.82207845212E+02 -0.52172793716E+02 -0.16327786450E+03  0.19010468499E+03  0.00000000000E+00 0. -1.
        -16    1    3    3    0    0 -0.85867993771E+02 -0.41552900403E+02  0.20645028731E+03  0.22742400273E+03  0.00000000000E+00 0.  1.
         16    1    1    2    0    0  0.23435815953E+03  0.19323177524E+03 -0.11294138515E+03  0.32406484286E+03  0.00000000000E+00 0. -1.
    9900018    1    1    2    0    0 -0.31655816723E+03 -0.10249978873E+03 -0.24696888917E+03  0.42429245874E+03  0.91187600000E+02 0.  0.
<mgrwt>
<rscale>  0 0.13795959E+04</rscale>
<asrwt>0</asrwt>
<pdfrwt beam="1">  1        1 0.16913860E+00 0.13795959E+04</pdfrwt>
<pdfrwt beam="2">  1       -1 0.66584690E-01 0.13795959E+04</pdfrwt>
<totfact> 0.28329630E+01</totfact>
</mgrwt>
</event>
<event>
12    1  0.1877663E-010  0.1240549E+04  0.7818608E-02  0.9078086E-01
         -1   -1    0    0    0  501 -0.00000000000E+00  0.00000000000E+00  0.67439981298E+03  0.67439981298E+03  0.00000000000E+00 0.  1.
          1   -1    0    0  501    0  0.00000000000E+00 -0.00000000000E+00 -0.57049283111E+03  0.57049283111E+03  0.00000000000E+00 0. -1.
    9900016    2    1    2    0    0 -0.73634260635E+02 -0.19913986281E+03  0.21008347932E+03  0.76875873526E+03  0.70836165583E+03 0.  0.
         25    2    3    3    0    0 -0.16766668426E+03 -0.85319498165E+02 -0.21923149326E+03  0.31476697566E+03  0.12499707017E+03 0.  0.
         23    2    4    4    0    0 -0.13709442848E+03 -0.63607643598E+02 -0.16866794993E+03  0.24406891906E+03  0.90994204614E+02 0.  0.
        -15    1    4    4    0    0 -0.11753705314E+02 -0.19348379979E+02 -0.45880913362E+02  0.51162169690E+02  0.00000000000E+00 0. -1.
        -15    1    5    5    0    0  0.38296533686E-01 -0.19454141578E+02 -0.61529796664E+02  0.64532015068E+02  0.00000000000E+00 0.  1.
         15    1    5    5    0    0 -0.13713272501E+03 -0.44153502020E+02 -0.10713815327E+03  0.17953690399E+03  0.00000000000E+00 0. -1.
         15    1    4    4    0    0 -0.18818550472E+02 -0.23634745886E+01 -0.46826299656E+01  0.19535886911E+02  0.00000000000E+00 0.  1.
        -16    1    1    2    0    0 -0.92399346662E+02  0.23862928662E+03 -0.11900119199E+03  0.28221066492E+03  0.00000000000E+00 0.  1.
         16    1    3    3    0    0  0.94032423627E+02 -0.11382036465E+03  0.42931497258E+03  0.45399175960E+03  0.00000000000E+00 0. -1.
    9900018    1    1    2    0    0  0.16603360730E+03 -0.39489423812E+02  0.12824694533E+02  0.19392324391E+03  0.91187600000E+02 0.  0.
<mgrwt>
<rscale>  0 0.12405487E+04</rscale>
<asrwt>0</asrwt>
<pdfrwt beam="1">  1        1 0.87768128E-01 0.12405487E+04</pdfrwt>
<pdfrwt beam="2">  1       -1 0.10375382E+00 0.12405487E+04</pdfrwt>
<totfact> 0.31827654E+01</totfact>
</mgrwt>
</event>
<event>
12    1  0.1877663E-010  0.1491254E+04  0.7818608E-02  0.8890290E-01
          2   -1    0    0  501    0  0.00000000000E+00  0.00000000000E+00  0.55801201215E+03  0.55801201215E+03  0.00000000000E+00 0. -1.
         -2   -1    0    0    0  501 -0.00000000000E+00 -0.00000000000E+00 -0.99632242746E+03  0.99632242746E+03  0.00000000000E+00 0.  1.
    9900016    2    1    2    0    0 -0.14571274055E+03  0.23030632138E+03 -0.26695881131E+03  0.81525321149E+03  0.72048427289E+03 0.  0.
         25    2    3    3    0    0  0.10457174636E+03 -0.87119129460E+02 -0.35620645040E+03  0.40128898320E+03  0.12499927949E+03 0.  0.
         23    2    4    4    0    0  0.58277128250E+02 -0.41758885583E+02 -0.24364809357E+03  0.26955864614E+03  0.90318558487E+02 0.  0.
        -15    1    4    4    0    0  0.79414292639E+01 -0.21917513031E+02 -0.34077853318E+02  0.41288542757E+02  0.00000000000E+00 0.  1.
        -15    1    5    5    0    0  0.47466480846E+02  0.19572439940E+02 -0.87526913552E+02  0.10147466583E+03  0.00000000000E+00 0.  1.
         15    1    4    4    0    0  0.38353188841E+02 -0.23442730846E+02 -0.78480503517E+02  0.90441794300E+02  0.00000000000E+00 0. -1.
         15    1    5    5    0    0  0.10810647404E+02 -0.61331325523E+02 -0.15612118001E+03  0.16808398031E+03  0.00000000000E+00 0. -1.
        -16    1    1    2    0    0 -0.74285485877E+02 -0.37031059873E+03 -0.24868484763E+03  0.45220838823E+03  0.00000000000E+00 0.  1.
         16    1    3    3    0    0 -0.25028448690E+03  0.31742545084E+03  0.89247639090E+02  0.41396422829E+03  0.00000000000E+00 0. -1.
    9900018    1    1    2    0    0  0.21999822642E+03  0.14000427735E+03  0.77333243629E+02  0.28687283989E+03  0.91187600000E+02 0.  0.
<mgrwt>
<rscale>  0 0.14912543E+04</rscale>
<asrwt>0</asrwt>
<pdfrwt beam="1">  1        2 0.85848002E-01 0.14912543E+04</pdfrwt>
<pdfrwt beam="2">  1       -2 0.15328037E+00 0.14912543E+04</pdfrwt>
<totfact> 0.14785463E+01</totfact>
</mgrwt>
</event>
<event>
12    1  0.1877663E-010  0.1806221E+04  0.7818608E-02  0.8702998E-01
          2   -1    0    0  501    0  0.00000000000E+00  0.00000000000E+00  0.25505095533E+04  0.25505095533E+04  0.00000000000E+00 0. -1.
         -2   -1    0    0    0  501 -0.00000000000E+00 -0.00000000000E+00 -0.31978274845E+03  0.31978274845E+03  0.00000000000E+00 0.  1.
    9900016    2    1    2    0    0 -0.11997520846E+03  0.10214621804E+03  0.26636725480E+03  0.77158240977E+03  0.70679558582E+03 0.  0.
         25    2    3    3    0    0  0.12973946274E+03 -0.32023339393E+02 -0.17096120144E+03  0.25041538685E+03  0.12498924400E+03 0.  0.
         23    2    4    4    0    0  0.95372544703E+02 -0.22407247135E+02 -0.12752655434E+03  0.18484260419E+03  0.91135938317E+02 0.  0.
        -15    1    4    4    0    0  0.28134727006E+02 -0.18968647600E+02 -0.19512628623E+02  0.39142242287E+02  0.00000000000E+00 0.  1.
        -15    1    5    5    0    0 -0.16508733221E+02 -0.10647670044E+02 -0.30523368004E+02  0.36298583226E+02  0.00000000000E+00 0.  1.
         15    1    5    5    0    0  0.11188127792E+03 -0.11759577091E+02 -0.97003186336E+02  0.14854402096E+03  0.00000000000E+00 0. -1.
         15    1    4    4    0    0  0.62321910277E+01  0.93525553427E+01 -0.23922018476E+02  0.26430540373E+02  0.00000000000E+00 0. -1.
        -16    1    3    3    0    0 -0.24971467120E+03  0.13416955743E+03  0.43732845623E+03  0.52116702293E+03  0.00000000000E+00 0.  1.
         16    1    1    2    0    0  0.37220966779E+03 -0.13429363976E+02  0.15701898696E+04  0.16137585356E+04  0.00000000000E+00 0. -1.
    9900018    1    1    2    0    0 -0.25223445932E+03 -0.88716854065E+02  0.39416968044E+03  0.48495135636E+03  0.91187600000E+02 0.  0.
<mgrwt>
<rscale>  0 0.18062214E+04</rscale>
<asrwt>0</asrwt>
<pdfrwt beam="1">  1        2 0.39238607E+00 0.18062214E+04</pdfrwt>
<pdfrwt beam="2">  1       -2 0.49197348E-01 0.18062214E+04</pdfrwt>
<totfact> 0.12023129E+01</totfact>
</mgrwt>
</event>
<event>
12    1  0.1877663E-010  0.1950110E+04  0.7818608E-02  0.8630308E-01
         -2   -1    0    0    0  501 -0.00000000000E+00  0.00000000000E+00  0.11722301213E+04  0.11722301213E+04  0.00000000000E+00 0.  1.
          2   -1    0    0  501    0  0.00000000000E+00 -0.00000000000E+00 -0.81104535848E+03  0.81104535848E+03  0.00000000000E+00 0. -1.
    9900016    2    1    2    0    0 -0.53970469731E+02 -0.10581929729E+03  0.14881896679E+03  0.73243070482E+03  0.70724615037E+03 0.  0.
         25    2    3    3    0    0 -0.17552558942E+03  0.12365754939E+03 -0.18481731257E+03  0.30964418992E+03  0.12498665233E+03 0.  0.
         23    2    4    4    0    0 -0.12159401265E+03  0.10883657403E+03 -0.13503750681E+03  0.23023987301E+03  0.90248363533E+02 0.  0.
        -15    1    4    4    0    0 -0.32231547299E+02  0.67886549095E+01 -0.11911728965E+02  0.35026386678E+02  0.00000000000E+00 0.  1.
        -15    1    5    5    0    0 -0.10774857318E+03  0.11621732712E+03 -0.14226218505E+03  0.21296655005E+03  0.00000000000E+00 0.  1.
         15    1    4    4    0    0 -0.21700029467E+02  0.80323204551E+01 -0.37868076798E+02  0.44377930226E+02  0.00000000000E+00 0. -1.
         15    1    5    5    0    0 -0.13845439476E+02 -0.73807530922E+01  0.72246782417E+01  0.17273322963E+02  0.00000000000E+00 0. -1.
        -16    1    3    3    0    0  0.12155511969E+03 -0.22947684668E+03  0.33363627936E+03  0.42278651491E+03  0.00000000000E+00 0.  1.
         16    1    1    2    0    0  0.44023970141E+03 -0.10283145895E+03 -0.32068916374E+03  0.55428047357E+03  0.00000000000E+00 0. -1.
    9900018    1    1    2    0    0 -0.38626923168E+03  0.20865075624E+03  0.53305495977E+03  0.69656430138E+03  0.91187600000E+02 0.  0.
<mgrwt>
<rscale>  0 0.19501095E+04</rscale>
<asrwt>0</asrwt>
<pdfrwt beam="1">  1        2 0.12477621E+00 0.19501095E+04</pdfrwt>
<pdfrwt beam="2">  1       -2 0.18034310E+00 0.19501095E+04</pdfrwt>
<totfact> 0.56864959E+00</totfact>
</mgrwt>
</event>
<event>
12    1  0.1877663E-010  0.3045357E+04  0.7818608E-02  0.8230896E-01
          1   -1    0    0  501    0  0.00000000000E+00  0.00000000000E+00  0.28625076542E+04  0.28625076542E+04  0.00000000000E+00 0. -1.
         -1   -1    0    0    0  501 -0.00000000000E+00 -0.00000000000E+00 -0.80997154663E+03  0.80997154663E+03  0.00000000000E+00 0.  1.
    9900016    2    1    2    0    0 -0.38205701754E+03 -0.20017341229E+03  0.11381684010E+03  0.84395192001E+03  0.71642418339E+03 0.  0.
         25    2    3    3    0    0 -0.18711233538E+02 -0.92408886320E+02 -0.26519297228E+03  0.30796517606E+03  0.12500289830E+03 0.  0.
         23    2    4    4    0    0  0.39367417356E+01 -0.65131563525E+02 -0.16791079178E+03  0.20184567926E+03  0.91049578456E+02 0.  0.
        -15    1    4    4    0    0 -0.23683096707E+02 -0.15907943351E+02 -0.83406288644E+02  0.88150783982E+02  0.00000000000E+00 0.  1.
        -15    1    5    5    0    0  0.38625038038E+02 -0.27996134441E+02 -0.12991043966E+03  0.13839219429E+03  0.00000000000E+00 0.  1.
         15    1    4    4    0    0  0.10351214331E+01 -0.11369379444E+02 -0.13875891863E+02  0.17968712817E+02  0.00000000000E+00 0. -1.
         15    1    5    5    0    0 -0.34688296302E+02 -0.37135429084E+02 -0.38000352111E+02  0.63453484964E+02  0.00000000000E+00 0. -1.
        -16    1    3    3    0    0 -0.36334578401E+03 -0.10776452597E+03  0.37900981238E+03  0.53598674395E+03  0.00000000000E+00 0.  1.
         16    1    1    2    0    0  0.42441241703E+03 -0.51750674177E+03  0.19924439847E+04  0.21018496996E+04  0.00000000000E+00 0. -1.
    9900018    1    1    2    0    0 -0.42355399489E+02  0.71768015406E+03 -0.53724717252E+02  0.72667758122E+03  0.91187600000E+02 0.  0.
<mgrwt>
<rscale>  0 0.30453570E+04</rscale>
<asrwt>0</asrwt>
<pdfrwt beam="1">  1        1 0.44038579E+00 0.30453570E+04</pdfrwt>
<pdfrwt beam="2">  1       -1 0.12461101E+00 0.30453570E+04</pdfrwt>
<totfact> 0.35920946E-01</totfact>
</mgrwt>
</event>
<event>
12    1  0.1877663E-010  0.1592960E+04  0.7818608E-02  0.8824885E-01
         -1   -1    0    0    0  501 -0.00000000000E+00  0.00000000000E+00  0.19298313743E+03  0.19298313743E+03  0.00000000000E+00 0.  1.
          1   -1    0    0  501    0  0.00000000000E+00 -0.00000000000E+00 -0.32872307699E+04  0.32872307699E+04  0.00000000000E+00 0. -1.
    9900016    2    1    2    0    0 -0.36698560766E+03  0.17934343228E+03 -0.11083698228E+04  0.13779734744E+04  0.70956657831E+03 0.  0.
         25    2    3    3    0    0 -0.40948044905E+03  0.11364087280E+03 -0.23562731076E+03  0.50173028315E+03  0.12499824528E+03 0.  0.
         23    2    4    4    0    0 -0.37613258752E+03  0.99392789166E+02 -0.21472261045E+03  0.45177161161E+03  0.81468642332E+02 0.  0.
        -15    1    4    4    0    0 -0.14718459958E+02 -0.71745380137E+01 -0.11660881686E+02  0.20101821334E+02  0.00000000000E+00 0. -1.
        -15    1    5    5    0    0 -0.18845345730E+02 -0.98365089781E+01 -0.84845086348E+00  0.21274957895E+02  0.00000000000E+00 0. -1.
         15    1    4    4    0    0 -0.18629401579E+02  0.21422621650E+02 -0.92438186215E+01  0.29856850207E+02  0.00000000000E+00 0.  1.
         15    1    5    5    0    0 -0.35728724179E+03  0.10922929814E+03 -0.21387415959E+03  0.43049665371E+03  0.00000000000E+00 0.  1.
        -16    1    3    3    0    0  0.42494841391E+02  0.65702559482E+02 -0.87274251201E+03  0.87624319121E+03  0.00000000000E+00 0.  1.
         16    1    1    2    0    0  0.79891721988E+02  0.43352527513E+02 -0.14242188059E+04  0.14271164409E+04  0.00000000000E+00 0. -1.
    9900018    1    1    2    0    0  0.28709388568E+03 -0.22269595980E+03 -0.56165900385E+03  0.67512399210E+03  0.91187600000E+02 0.  0.
<mgrwt>
<rscale>  0 0.15929596E+04</rscale>
<asrwt>0</asrwt>
<pdfrwt beam="1">  1        1 0.50572777E+00 0.15929596E+04</pdfrwt>
<pdfrwt beam="2">  1       -1 0.29689716E-01 0.15929596E+04</pdfrwt>
<totfact> 0.36714443E+00</totfact>
</mgrwt>
</event>
<event>
12    1  0.1877663E-010  0.2263411E+04  0.7818608E-02  0.8492489E-01
         -1   -1    0    0    0  501 -0.00000000000E+00  0.00000000000E+00  0.10542967929E+04  0.10542967929E+04  0.00000000000E+00 0.  1.
          1   -1    0    0  501    0  0.00000000000E+00 -0.00000000000E+00 -0.12147981747E+04  0.12147981747E+04  0.00000000000E+00 0. -1.
    9900016    2    1    2    0    0 -0.16533116092E+03 -0.77846845111E+02 -0.14366550463E+03  0.76952501434E+03  0.73357647618E+03 0.  0.
         25    2    3    3    0    0  0.80797910345E+02 -0.10121541097E+02  0.25541184072E+03  0.29578567240E+03  0.12499283060E+03 0.  0.
         23    2    4    4    0    0  0.73805496091E+02 -0.28140414222E+02  0.23079908513E+03  0.26040856705E+03  0.91133253719E+02 0.  0.
        -15    1    4    4    0    0  0.10015469153E+02  0.54091581546E+01  0.65213424950E+01  0.13118556408E+02  0.00000000000E+00 0. -1.
        -15    1    5    5    0    0  0.44894999631E+02 -0.60913163779E+02  0.12780745300E+03  0.14852851428E+03  0.00000000000E+00 0. -1.
         15    1    4    4    0    0 -0.30230548990E+01  0.12609714971E+02  0.18091413102E+02  0.22258548933E+02  0.00000000000E+00 0.  1.
         15    1    5    5    0    0  0.28910496460E+02  0.32772749557E+02  0.10299163213E+03  0.11188005277E+03  0.00000000000E+00 0.  1.
        -16    1    3    3    0    0 -0.24612907127E+03 -0.67725304014E+02 -0.39907734536E+03  0.47373934194E+03  0.00000000000E+00 0.  1.
         16    1    1    2    0    0  0.27899746739E+03  0.69469386671E+03  0.28052270263E+03  0.79945740471E+03  0.00000000000E+00 0. -1.
    9900018    1    1    2    0    0 -0.11366630647E+03 -0.61684702160E+03 -0.29735857982E+03  0.70011254857E+03  0.91187600000E+02 0.  0.
<mgrwt>
<rscale>  0 0.22634114E+04</rscale>
<asrwt>0</asrwt>
<pdfrwt beam="1">  1        1 0.18689203E+00 0.22634114E+04</pdfrwt>
<pdfrwt beam="2">  1       -1 0.16219951E+00 0.22634114E+04</pdfrwt>
<totfact> 0.26583677E+00</totfact>
</mgrwt>
</event>
<event>
12    1  0.1877663E-010  0.1995831E+04  0.7818608E-02  0.8608572E-01
         -2   -1    0    0    0  501 -0.00000000000E+00  0.00000000000E+00  0.58964587566E+03  0.58964587566E+03  0.00000000000E+00 0. -1.
          2   -1    0    0  501    0  0.00000000000E+00 -0.00000000000E+00 -0.16888695907E+04  0.16888695907E+04  0.00000000000E+00 0.  1.
    9900016    2    1    2    0    0  0.81286585162E+02  0.25732706564E+03 -0.37914832807E+03  0.83938128898E+03  0.69855763253E+03 0.  0.
         25    2    3    3    0    0  0.88194788316E+02  0.19072981194E+03  0.16252159651E+03  0.29358899821E+03  0.12500019475E+03 0.  0.
         23    2    4    4    0    0  0.67535482569E+02  0.11056680523E+03  0.12301687744E+03  0.20041003151E+03  0.90801810386E+02 0.  0.
        -15    1    4    4    0    0  0.91757531415E+01  0.16030279306E+02  0.14145392415E+02  0.23264918373E+02  0.00000000000E+00 0.  1.
        -15    1    5    5    0    0 -0.16287492821E+02  0.48010227437E+02  0.58964198712E+02  0.77762723015E+02  0.00000000000E+00 0.  1.
         15    1    4    4    0    0  0.11483552605E+02  0.64132727404E+02  0.25359326654E+02  0.69914048324E+02  0.00000000000E+00 0. -1.
         15    1    5    5    0    0  0.83822975390E+02  0.62556577795E+02  0.64052678730E+02  0.12264730850E+03  0.00000000000E+00 0. -1.
        -16    1    1    2    0    0 -0.32683760384E+03  0.62294962552E+02 -0.92127428263E+03  0.97951507670E+03  0.00000000000E+00 0.  1.
         16    1    3    3    0    0 -0.69082031532E+01  0.66597253697E+02 -0.54166992458E+03  0.54579229077E+03  0.00000000000E+00 0. -1.
    9900018    1    1    2    0    0  0.24555101868E+03 -0.31962202819E+03  0.20119889568E+03  0.45961910066E+03  0.91187600000E+02 0.  0.
<mgrwt>
<rscale>  0 0.19958306E+04</rscale>
<asrwt>0</asrwt>
<pdfrwt beam="1">  1        2 0.25982609E+00 0.19958306E+04</pdfrwt>
<pdfrwt beam="2">  1       -2 0.90714750E-01 0.19958306E+04</pdfrwt>
<totfact> 0.95934668E+00</totfact>
</mgrwt>
</event>
<event>
12    1  0.1877663E-010  0.1318552E+04  0.7818608E-02  0.9014981E-01
          1   -1    0    0  501    0  0.00000000000E+00  0.00000000000E+00  0.38256060357E+03  0.38256060357E+03  0.00000000000E+00 0. -1.
         -1   -1    0    0    0  501 -0.00000000000E+00 -0.00000000000E+00 -0.11361459487E+04  0.11361459487E+04  0.00000000000E+00 0.  1.
    9900016    2    1    2    0    0 -0.19940908216E+03 -0.17004354125E+03 -0.11299493117E+03  0.76250962664E+03  0.70708860002E+03 0.  0.
         25    2    3    3    0    0  0.18449058896E+03 -0.21163973408E+03  0.97870545751E+02  0.32253979802E+03  0.12500049249E+03 0.  0.
         23    2    4    4    0    0  0.16531549754E+03 -0.16012182054E+03  0.65451543505E+02  0.25629691428E+03  0.91847659632E+02 0.  0.
        -15    1    4    4    0    0  0.39845541916E+01 -0.20423482502E+02  0.21580922933E+02  0.29978851617E+02  0.00000000000E+00 0.  1.
        -15    1    5    5    0    0  0.10130820112E+03 -0.88608848339E+02  0.83851659589E+02  0.15857484174E+03  0.00000000000E+00 0.  1.
         15    1    4    4    0    0  0.15190537225E+02 -0.31094431034E+02  0.10838079313E+02  0.36264032121E+02  0.00000000000E+00 0. -1.
         15    1    5    5    0    0  0.64007296428E+02 -0.71512972201E+02 -0.18400116084E+02  0.97722072537E+02  0.00000000000E+00 0. -1.
        -16    1    1    2    0    0  0.23511172392E+03  0.39309269368E+02 -0.37087132823E+03  0.44087218498E+03  0.00000000000E+00 0.  1.
         16    1    3    3    0    0 -0.38389967112E+03  0.41596192827E+02 -0.21086547692E+03  0.43996982863E+03  0.00000000000E+00 0. -1.
    9900018    1    1    2    0    0 -0.35702641758E+02  0.13073427188E+03 -0.26971908577E+03  0.31532474070E+03  0.91187600000E+02 0.  0.
<mgrwt>
<rscale>  0 0.13185518E+04</rscale>
<asrwt>0</asrwt>
<pdfrwt beam="1">  1        1 0.58855479E-01 0.13185518E+04</pdfrwt>
<pdfrwt beam="2">  1       -1 0.17479168E+00 0.13185518E+04</pdfrwt>
<totfact> 0.14177415E+01</totfact>
</mgrwt>
</event>
<event>
12    1  0.1877663E-010  0.1786930E+04  0.7818608E-02  0.8713281E-01
          1   -1    0    0  501    0  0.00000000000E+00  0.00000000000E+00  0.62049848165E+03  0.62049848165E+03  0.00000000000E+00 0. -1.
         -1   -1    0    0    0  501 -0.00000000000E+00 -0.00000000000E+00 -0.12865138866E+04  0.12865138866E+04  0.00000000000E+00 0.  1.
    9900016    2    1    2    0    0 -0.32868613694E+03 -0.15034407023E+03 -0.32293807819E+03  0.85763264554E+03  0.70753574912E+03 0.  0.
         25    2    3    3    0    0 -0.90650830436E+02  0.27022000541E+03 -0.13005339378E+03  0.33730635335E+03  0.12500106556E+03 0.  0.
         23    2    4    4    0    0 -0.72887022863E+02  0.18819434104E+03 -0.10347834124E+03  0.24428728456E+03  0.90768288469E+02 0.  0.
        -15    1    4    4    0    0 -0.14467600231E+02  0.57444642049E+02 -0.32432576695E+02  0.67535697136E+02  0.00000000000E+00 0. -1.
        -15    1    5    5    0    0 -0.49766524170E+02  0.11756052737E+03 -0.14696788550E+02  0.12850361909E+03  0.00000000000E+00 0. -1.
         15    1    4    4    0    0 -0.32962073419E+01  0.24581022328E+02  0.58575241540E+01  0.25483371652E+02  0.00000000000E+00 0.  1.
         15    1    5    5    0    0 -0.23120498693E+02  0.70633813662E+02 -0.88781552692E+02  0.11578366547E+03  0.00000000000E+00 0.  1.
        -16    1    3    3    0    0 -0.23803530650E+03 -0.42056407565E+03 -0.19288468441E+03  0.52032629219E+03  0.00000000000E+00 0.  1.
         16    1    1    2    0    0  0.56269538840E+03  0.32448044305E+03 -0.96459415624E+02  0.65667197055E+03  0.00000000000E+00 0. -1.
    9900018    1    1    2    0    0 -0.23400925146E+03 -0.17413637282E+03 -0.24661791111E+03  0.39270775213E+03  0.91187600000E+02 0.  0.
<mgrwt>
<rscale>  0 0.17869302E+04</rscale>
<asrwt>0</asrwt>
<pdfrwt beam="1">  1        1 0.95461305E-01 0.17869302E+04</pdfrwt>
<pdfrwt beam="2">  1       -1 0.19792521E+00 0.17869302E+04</pdfrwt>
<totfact> 0.47918852E+00</totfact>
</mgrwt>
</event>
