<event>
11    1  0.1163165E-021  0.1608405E+03  0.7818608E-02  0.1195048E+00
          2   -1    0    0  501    0  0.00000000000E+00  0.00000000000E+00  0.91543664900E+03  0.91543664900E+03  0.00000000000E+00 0. -1.
         -2   -1    0    0    0  501 -0.00000000000E+00 -0.00000000000E+00 -0.28984492720E+02  0.28984492720E+02  0.00000000000E+00 0.  1.
         23    2    1    2    0    0  0.79599084932E+02 -0.62520105416E+02  0.60451160893E+03  0.61982889827E+03  0.92243156338E+02 0.  0.
         25    2    1    2    0    0 -0.79599084932E+02  0.62520105416E+02  0.28194054735E+03  0.32459224345E+03  0.12499949747E+03 0.  0.
        -15    1    3    3    0    0  0.93201074023E+02 -0.73430429495E+02  0.54753828040E+03  0.56024694259E+03  0.00000000000E+00 0. -1.
        -15    1    4    4    0    0 -0.56495820507E+01  0.11466220866E+02  0.10615853217E+02  0.16615906170E+02  0.00000000000E+00 0.  1.
         15    1    3    3    0    0 -0.13601989091E+02  0.10910324078E+02  0.56973328528E+02  0.59581955677E+02  0.00000000000E+00 0.  1.
         15    1    4    4    0    0 -0.43001394341E+01  0.93444745824E+01  0.16258488787E+02  0.19239253156E+02  0.00000000000E+00 0. -1.
        -16    1    4    4    0    0  0.98666803141E+00 -0.33043178463E+01  0.32847662350E+01  0.47625328821E+01  0.00000000000E+00 0.  1.
         16    1    4    4    0    0 -0.32785694743E+01 -0.61360094025E+01  0.13575217012E+02  0.15254053432E+02  0.00000000000E+00 0. -1.
    9900018    1    4    4    0    0 -0.67357462004E+02  0.51149737217E+02  0.23820622209E+03  0.26872049781E+03  0.91187600000E+02 0.  0.
<mgrwt>
<rscale>  0 0.15450125E+03</rscale>
<asrwt>0</asrwt>
<pdfrwt beam="1">  1        2 0.14083639E+00 0.16084046E+03</pdfrwt>
<pdfrwt beam="2">  1       -2 0.44591534E-02 0.16084046E+03</pdfrwt>
<totfact> 0.67606140E+03</totfact>
</mgrwt>
</event>
<event>
11    1  0.1163165E-021  0.2660610E+03  0.7818608E-02  0.1105769E+00
         -3   -1    0    0    0  501 -0.00000000000E+00  0.00000000000E+00  0.56195398677E+03  0.56195398677E+03  0.00000000000E+00 0.  1.
          3   -1    0    0  501    0  0.00000000000E+00 -0.00000000000E+00 -0.13143231048E+03  0.13143231048E+03  0.00000000000E+00 0. -1.
         23    2    1    2    0    0 -0.19484732693E+03 -0.13114134655E+03  0.10352408093E+03  0.27182265498E+03  0.89480650669E+02 0.  0.
         25    2    1    2    0    0  0.19484732693E+03  0.13114134655E+03  0.32699759536E+03  0.42156364226E+03  0.12499977407E+03 0.  0.
        -15    1    4    4    0    0  0.15980577104E+02  0.22412093821E+02  0.42935929402E+02  0.51001713968E+02  0.00000000000E+00 0.  1.
        -15    1    3    3    0    0 -0.16225282786E+03 -0.80620455278E+02  0.10901891124E+03  0.21144919240E+03  0.00000000000E+00 0. -1.
         15    1    4    4    0    0  0.10527710382E+02  0.48154523473E+01  0.16359649083E+02  0.20041441697E+02  0.00000000000E+00 0. -1.
         15    1    3    3    0    0 -0.32594499070E+02 -0.50520891273E+02 -0.54948303116E+01  0.60373462587E+02  0.00000000000E+00 0.  1.
        -16    1    4    4    0    0  0.10184388090E+02  0.89367402284E+01  0.31340216291E+02  0.34143758490E+02  0.00000000000E+00 0.  1.
         16    1    4    4    0    0  0.31349990250E+01  0.99668884359E+01  0.61546543977E+01  0.12126287756E+02  0.00000000000E+00 0. -1.
    9900018    1    4    4    0    0  0.15501965233E+03  0.85010171718E+02  0.23020714619E+03  0.30425044035E+03  0.91187600000E+02 0.  0.
<mgrwt>
<rscale>  0 0.26230109E+03</rscale>
<asrwt>0</asrwt>
<pdfrwt beam="1">  1        3 0.20220356E-01 0.26606104E+03</pdfrwt>
<pdfrwt beam="2">  1       -3 0.86454458E-01 0.26606104E+03</pdfrwt>
<totfact> 0.69006672E+01</totfact>
</mgrwt>
</event>
<event>
11    1  0.1163165E-021  0.1415899E+03  0.7818608E-02  0.1221033E+00
          1   -1    0    0  501    0  0.00000000000E+00  0.00000000000E+00  0.21223739667E+03  0.21223739667E+03  0.00000000000E+00 0. -1.
         -1   -1    0    0    0  501 -0.00000000000E+00 -0.00000000000E+00 -0.97469173896E+02  0.97469173896E+02  0.00000000000E+00 0.  1.
         23    2    1    2    0    0 -0.66468669621E+02 -0.14853612556E+01 -0.17004782525E+02  0.11628517291E+03  0.93876453224E+02 0.  0.
         25    2    1    2    0    0  0.66468669621E+02  0.14853612556E+01  0.13177300530E+03  0.19342139766E+03  0.12500968685E+03 0.  0.
        -15    1    3    3    0    0 -0.18624658285E+02  0.88515334817E+01  0.37643010692E+02  0.42921134598E+02  0.00000000000E+00 0. -1.
        -15    1    4    4    0    0  0.64013908102E+01  0.79195522350E+01  0.15026334703E+02  0.18151800090E+02  0.00000000000E+00 0.  1.
         15    1    4    4    0    0  0.23318388055E+02  0.10099500760E+01  0.30648810232E+02  0.38524236388E+02  0.00000000000E+00 0. -1.
         15    1    3    3    0    0 -0.47844011336E+02 -0.10336894737E+02 -0.54647793217E+02  0.73364038309E+02  0.00000000000E+00 0.  1.
        -16    1    4    4    0    0  0.86036887518E+00  0.33213296449E+01 -0.18855219474E+01  0.39149276143E+01  0.00000000000E+00 0.  1.
         16    1    4    4    0    0  0.46185230792E+00  0.62348272840E+00  0.15077759956E-01  0.77605773355E+00  0.00000000000E+00 0. -1.
    9900018    1    4    4    0    0  0.35426669572E+02 -0.11388953429E+02  0.87968304551E+02  0.13205437583E+03  0.91187600000E+02 0.  0.
<mgrwt>
<rscale>  0 0.13442558E+03</rscale>
<asrwt>0</asrwt>
<pdfrwt beam="1">  1        1 0.32651907E-01 0.14158994E+03</pdfrwt>
<pdfrwt beam="2">  1       -1 0.14995258E-01 0.14158994E+03</pdfrwt>
<totfact> 0.42089795E+03</totfact>
</mgrwt>
</event>
<event>
11    1  0.1163165E-021  0.3810721E+03  0.7818608E-02  0.1051495E+00
         -2   -1    0    0    0  501 -0.00000000000E+00  0.00000000000E+00  0.12487126040E+03  0.12487126040E+03  0.00000000000E+00 0.  1.
          2   -1    0    0  501    0  0.00000000000E+00 -0.00000000000E+00 -0.13193861045E+04  0.13193861045E+04  0.00000000000E+00 0. -1.
         23    2    1    2    0    0  0.31348524626E+03  0.17696221435E+03 -0.31806014756E+03  0.48854361106E+03  0.89016726032E+02 0.  0.
         25    2    1    2    0    0 -0.31348524626E+03 -0.17696221435E+03 -0.87645469659E+03  0.95571375388E+03  0.12500927672E+03 0.  0.
        -15    1    3    3    0    0  0.37417130565E+02  0.34649932051E+02 -0.89173316934E+02  0.10272555624E+03  0.00000000000E+00 0.  1.
        -15    1    4    4    0    0 -0.16098591953E+02 -0.46029965735E+01 -0.43947668341E+02  0.47029244018E+02  0.00000000000E+00 0.  1.
         15    1    3    3    0    0  0.27606811569E+03  0.14231228230E+03 -0.22888683063E+03  0.38581805483E+03  0.00000000000E+00 0. -1.
         15    1    4    4    0    0 -0.11810433938E+02 -0.69706760843E+01 -0.50862975796E+02  0.52679398076E+02  0.00000000000E+00 0. -1.
        -16    1    4    4    0    0 -0.11948920256E+02 -0.85362398618E+01 -0.19331065856E+02  0.24276206323E+02  0.00000000000E+00 0.  1.
         16    1    4    4    0    0 -0.26142120743E+02 -0.17698449059E+02 -0.45693892654E+02  0.55538971919E+02  0.00000000000E+00 0. -1.
    9900018    1    4    4    0    0 -0.24748517937E+03 -0.13915385277E+03 -0.71661909394E+03  0.77618993355E+03  0.91187600000E+02 0.  0.
<mgrwt>
<rscale>  0 0.37848457E+03</rscale>
<asrwt>0</asrwt>
<pdfrwt beam="1">  1        2 0.20298248E+00 0.38107210E+03</pdfrwt>
<pdfrwt beam="2">  1       -2 0.19210963E-01 0.38107210E+03</pdfrwt>
<totfact> 0.38291637E+02</totfact>
</mgrwt>
</event>
<event>
11    1  0.1163165E-021  0.1322314E+03  0.7818608E-02  0.1234874E+00
          1   -1    0    0  501    0  0.00000000000E+00  0.00000000000E+00  0.63182227116E+03  0.63182227116E+03  0.00000000000E+00 0. -1.
         -1   -1    0    0    0  501 -0.00000000000E+00 -0.00000000000E+00 -0.22809405412E+02  0.22809405412E+02  0.00000000000E+00 0.  1.
         23    2    1    2    0    0 -0.40006137820E+02  0.16118139591E+02  0.23123623902E+03  0.25438134433E+03  0.96847223086E+02 0.  0.
         25    2    1    2    0    0  0.40006137820E+02 -0.16118139591E+02  0.37777662672E+03  0.40025033224E+03  0.12499945308E+03 0.  0.
        -15    1    4    4    0    0  0.19023446960E+02 -0.31759372683E+00  0.49557984671E+02  0.53084708199E+02  0.00000000000E+00 0.  1.
        -15    1    3    3    0    0  0.12649502281E+02  0.35396425166E+02  0.39132625118E+02  0.54261212400E+02  0.00000000000E+00 0.  1.
         15    1    3    3    0    0 -0.52655640101E+02 -0.19278285575E+02  0.19210361390E+03  0.20012013193E+03  0.00000000000E+00 0. -1.
         15    1    4    4    0    0  0.13047169888E+02 -0.52586129053E+01  0.46592683066E+02  0.48669906174E+02  0.00000000000E+00 0. -1.
        -16    1    4    4    0    0  0.52723612821E+00 -0.44633964272E+00  0.66744581859E+00  0.96056282059E+00  0.00000000000E+00 0.  1.
         16    1    4    4    0    0 -0.30938113102E+01  0.36444938220E+01  0.19984392401E+02  0.20548234554E+02  0.00000000000E+00 0. -1.
    9900018    1    4    4    0    0  0.10502096155E+02 -0.13740087138E+02  0.26097412077E+03  0.27698692049E+03  0.91187600000E+02 0.  0.
<mgrwt>
<rscale>  0 0.12512532E+03</rscale>
<asrwt>0</asrwt>
<pdfrwt beam="1">  1        1 0.97203413E-01 0.13223142E+03</pdfrwt>
<pdfrwt beam="2">  1       -1 0.35091398E-02 0.13223142E+03</pdfrwt>
<totfact> 0.93396857E+03</totfact>
</mgrwt>
</event>
<event>
11    1  0.1163165E-021  0.1270442E+03  0.7818608E-02  0.1244505E+00
         -1   -1    0    0    0  501 -0.00000000000E+00  0.00000000000E+00  0.26256106207E+03  0.26256106207E+03  0.00000000000E+00 0.  1.
          1   -1    0    0  501    0  0.00000000000E+00 -0.00000000000E+00 -0.13301880022E+03  0.13301880022E+03  0.00000000000E+00 0. -1.
         23    2    1    2    0    0 -0.22603957068E+02 -0.12729933217E+01 -0.95568700601E+02  0.13709356233E+03  0.95648883484E+02 0.  0.
         25    2    1    2    0    0  0.22603957068E+02  0.12729933217E+01  0.22511096244E+03  0.25848629996E+03  0.12501064941E+03 0.  0.
        -15    1    4    4    0    0  0.10013208071E+02 -0.17113499309E+01  0.12031282895E+02  0.15746263766E+02  0.00000000000E+00 0.  1.
        -15    1    3    3    0    0 -0.43899954657E+02  0.18565999849E+02 -0.12794992655E+02  0.49351942275E+02  0.00000000000E+00 0.  1.
         15    1    4    4    0    0  0.65193382751E+01  0.10042652035E+02  0.14461692281E+02  0.18774908124E+02  0.00000000000E+00 0. -1.
         15    1    3    3    0    0  0.21295997589E+02 -0.19838993170E+02 -0.82773707946E+02  0.87741620059E+02  0.00000000000E+00 0. -1.
        -16    1    4    4    0    0 -0.57093230085E+01 -0.76548911121E+01  0.20919652798E+02  0.22996208391E+02  0.00000000000E+00 0.  1.
         16    1    4    4    0    0 -0.10907954743E+01 -0.84769701781E+00  0.99414079320E+00  0.17019814680E+01  0.00000000000E+00 0. -1.
    9900018    1    4    4    0    0  0.12871529204E+02  0.14442793479E+01  0.17670419368E+03  0.19926693821E+03  0.91187600000E+02 0.  0.
<mgrwt>
<rscale>  0 0.11915035E+03</rscale>
<asrwt>0</asrwt>
<pdfrwt beam="1">  1        1 0.20464431E-01 0.12704417E+03</pdfrwt>
<pdfrwt beam="2">  1       -1 0.40394010E-01 0.12704417E+03</pdfrwt>
<totfact> 0.14716410E+03</totfact>
</mgrwt>
</event>
<event>
11    1  0.1163165E-021  0.1849057E+03  0.7818608E-02  0.1170015E+00
          1   -1    0    0  501    0  0.00000000000E+00  0.00000000000E+00  0.63547242117E+02  0.63547242117E+02  0.00000000000E+00 0. -1.
         -1   -1    0    0    0  501 -0.00000000000E+00 -0.00000000000E+00 -0.47632676762E+03  0.47632676762E+03  0.00000000000E+00 0.  1.
         23    2    1    2    0    0  0.11138609505E+03 -0.78475742902E+02 -0.14416263536E+03  0.21376794598E+03  0.79677882132E+02 0.  0.
         25    2    1    2    0    0 -0.11138609505E+03  0.78475742902E+02 -0.26861689014E+03  0.32610606375E+03  0.12499930700E+03 0.  0.
        -15    1    4    4    0    0 -0.15164260031E+02  0.59494981669E+01 -0.56622158661E+02  0.58918759001E+02  0.00000000000E+00 0.  1.
        -15    1    3    3    0    0  0.23109705616E+02 -0.43857923621E+02 -0.11822283139E+02  0.50964127940E+02  0.00000000000E+00 0. -1.
         15    1    3    3    0    0  0.88276389438E+02 -0.34617819280E+02 -0.13234035222E+03  0.16280381804E+03  0.00000000000E+00 0.  1.
         15    1    4    4    0    0 -0.10657750465E+02 -0.22640288392E+01 -0.14392698942E+02  0.18051682869E+02  0.00000000000E+00 0. -1.
        -16    1    4    4    0    0 -0.95122802715E+01  0.48450949815E+01 -0.14157102481E+02  0.17730819834E+02  0.00000000000E+00 0.  1.
         16    1    4    4    0    0 -0.81631522806E+01  0.27613539760E+01 -0.75457833799E+01  0.11454299531E+02  0.00000000000E+00 0. -1.
    9900018    1    4    4    0    0 -0.67888652006E+02  0.67183824616E+02 -0.17589914668E+03  0.21995050252E+03  0.91187600000E+02 0.  0.
<mgrwt>
<rscale>  0 0.17773294E+03</rscale>
<asrwt>0</asrwt>
<pdfrwt beam="1">  1        1 0.97764984E-02 0.18490574E+03</pdfrwt>
<pdfrwt beam="2">  1       -1 0.73281044E-01 0.18490574E+03</pdfrwt>
<totfact> 0.12796203E+03</totfact>
</mgrwt>
</event>
<event>
11    1  0.1163165E-021  0.2444939E+03  0.7818608E-02  0.1119488E+00
          1   -1    0    0  501    0  0.00000000000E+00  0.00000000000E+00  0.49021108355E+02  0.49021108355E+02  0.00000000000E+00 0. -1.
         -1   -1    0    0    0  501 -0.00000000000E+00 -0.00000000000E+00 -0.11791828782E+04  0.11791828782E+04  0.00000000000E+00 0.  1.
         23    2    1    2    0    0  0.10242078378E+03  0.18347276184E+03 -0.65563548049E+03  0.69439459835E+03  0.90408537451E+02 0.  0.
         25    2    1    2    0    0 -0.10242078378E+03 -0.18347276184E+03 -0.47452628931E+03  0.53380938817E+03  0.12499996944E+03 0.  0.
        -15    1    4    4    0    0 -0.20382083714E+01 -0.15461928555E+02 -0.22338084691E+02  0.27243633305E+02  0.00000000000E+00 0.  1.
        -15    1    3    3    0    0  0.11166735264E+03  0.12373918694E+03 -0.51558696700E+03  0.54185874965E+03  0.00000000000E+00 0.  1.
         15    1    3    3    0    0 -0.92465688664E+01  0.59733574899E+02 -0.14004851349E+03  0.15253584869E+03  0.00000000000E+00 0. -1.
         15    1    4    4    0    0 -0.20699719733E+02 -0.10934783641E+02 -0.38535092094E+02  0.45088814722E+02  0.00000000000E+00 0. -1.
        -16    1    4    4    0    0 -0.41943499537E+01  0.27709158567E+00 -0.22711589716E+02  0.23097308473E+02  0.00000000000E+00 0.  1.
         16    1    4    4    0    0 -0.46680154823E+00 -0.34540178353E+01 -0.28231234403E+01  0.44853281765E+01  0.00000000000E+00 0. -1.
    9900018    1    4    4    0    0 -0.75021704171E+02 -0.15389912340E+03 -0.38811839937E+03  0.43389430349E+03  0.91187600000E+02 0.  0.
<mgrwt>
<rscale>  0 0.24045880E+03</rscale>
<asrwt>0</asrwt>
<pdfrwt beam="1">  1        1 0.75417095E-02 0.24449389E+03</pdfrwt>
<pdfrwt beam="2">  1       -1 0.18141274E+00 0.24449389E+03</pdfrwt>
<totfact> 0.21130191E+02</totfact>
</mgrwt>
</event>
<event>
11    1  0.1163165E-021  0.1376429E+03  0.7818608E-02  0.1227831E+00
          1   -1    0    0  501    0  0.00000000000E+00  0.00000000000E+00  0.22300030927E+03  0.22300030927E+03  0.00000000000E+00 0. -1.
         -1   -1    0    0    0  501 -0.00000000000E+00 -0.00000000000E+00 -0.71110019809E+02  0.71110019809E+02  0.00000000000E+00 0.  1.
         23    2    1    2    0    0 -0.43336920751E+02  0.37978419349E+02  0.97859291228E+02  0.14624240647E+03  0.92140933008E+02 0.  0.
         25    2    1    2    0    0  0.43336920751E+02 -0.37978419349E+02  0.54030998230E+02  0.14786792260E+03  0.12500049891E+03 0.  0.
        -15    1    3    3    0    0 -0.23484351888E+02  0.58644028422E+02  0.99141703018E+02  0.11755728021E+03  0.00000000000E+00 0. -1.
        -15    1    4    4    0    0  0.47645787953E+01 -0.97824532438E+01  0.46765685854E+00  0.10891111307E+02  0.00000000000E+00 0.  1.
         15    1    4    4    0    0  0.12786445946E+02 -0.53390589424E+01  0.13570399382E+02  0.19394702619E+02  0.00000000000E+00 0. -1.
         15    1    3    3    0    0 -0.19852568863E+02 -0.20665609073E+02 -0.12824117906E+01  0.28685126264E+02  0.00000000000E+00 0.  1.
        -16    1    4    4    0    0  0.85942206218E+00  0.15683152938E+01 -0.80947419173E+00  0.19630251167E+01  0.00000000000E+00 0.  1.
         16    1    4    4    0    0  0.58754039831E+01 -0.46969908186E+01  0.15286830068E+02  0.17037290520E+02  0.00000000000E+00 0. -1.
    9900018    1    4    4    0    0  0.19051069965E+02 -0.19728231638E+02  0.25515586113E+02  0.98581793039E+02  0.91187600000E+02 0.  0.
<mgrwt>
<rscale>  0 0.12974735E+03</rscale>
<asrwt>0</asrwt>
<pdfrwt beam="1">  1        1 0.34307740E-01 0.13764292E+03</pdfrwt>
<pdfrwt beam="2">  1       -1 0.10940003E-01 0.13764292E+03</pdfrwt>
<totfact> 0.64443504E+03</totfact>
</mgrwt>
</event>
<event>
11    1  0.1163165E-021  0.1612036E+03  0.7818608E-02  0.1193478E+00
         -2   -1    0    0    0  501 -0.00000000000E+00  0.00000000000E+00  0.59804875023E+02  0.59804875023E+02  0.00000000000E+00 0.  1.
          2   -1    0    0  501    0  0.00000000000E+00 -0.00000000000E+00 -0.39871642840E+03  0.39871642840E+03  0.00000000000E+00 0. -1.
         23    2    1    2    0    0  0.46687654374E+02  0.90463843910E+02 -0.20640697728E+03  0.24984915760E+03  0.97248738596E+02 0.  0.
         25    2    1    2    0    0 -0.46687654374E+02 -0.90463843910E+02 -0.13250457610E+03  0.20867214582E+03  0.12499263030E+03 0.  0.
        -15    1    4    4    0    0 -0.32692560622E+01 -0.95301354815E+01 -0.24604764426E+02  0.26587702984E+02  0.00000000000E+00 0.  1.
        -15    1    3    3    0    0  0.33489589162E+02 -0.10375939425E+02 -0.81879360621E+02  0.89069873678E+02  0.00000000000E+00 0.  1.
         15    1    4    4    0    0 -0.30103008455E+01 -0.12657113442E+02 -0.62056755002E+01  0.14414396979E+02  0.00000000000E+00 0. -1.
         15    1    3    3    0    0  0.13198065212E+02  0.10083978334E+03 -0.12452761666E+03  0.16077928393E+03  0.00000000000E+00 0. -1.
        -16    1    4    4    0    0 -0.17463173468E+01 -0.24108291941E+01  0.60572948021E+00  0.30378660079E+01  0.00000000000E+00 0.  1.
         16    1    4    4    0    0 -0.99514637950E+01 -0.50339660268E+01  0.11336224374E+01  0.11209707643E+02  0.00000000000E+00 0. -1.
    9900018    1    4    4    0    0 -0.28710316324E+02 -0.60831799766E+02 -0.10343348809E+03  0.15342247221E+03  0.91187600000E+02 0.  0.
<mgrwt>
<rscale>  0 0.15583719E+03</rscale>
<asrwt>0</asrwt>
<pdfrwt beam="1">  1        2 0.61340987E-01 0.16120360E+03</pdfrwt>
<pdfrwt beam="2">  1       -2 0.92007503E-02 0.16120360E+03</pdfrwt>
<totfact> 0.58788483E+03</totfact>
</mgrwt>
</event>
<event>
11    1  0.1163165E-021  0.2622620E+03  0.7818608E-02  0.1108013E+00
         -1   -1    0    0    0  501 -0.00000000000E+00  0.00000000000E+00  0.94627444627E+02  0.94627444627E+02  0.00000000000E+00 0.  1.
          1   -1    0    0  501    0  0.00000000000E+00 -0.00000000000E+00 -0.70014564061E+03  0.70014564061E+03  0.00000000000E+00 0. -1.
         23    2    1    2    0    0 -0.22946685167E+03  0.22392021317E+02 -0.34829906079E+03  0.42742710933E+03  0.90693215901E+02 0.  0.
         25    2    1    2    0    0  0.22946685167E+03 -0.22392021317E+02 -0.25721913519E+03  0.36734597591E+03  0.12499977549E+03 0.  0.
        -15    1    4    4    0    0  0.12367637583E+02 -0.49013164490E+01 -0.63963326815E+01  0.14761247715E+02  0.00000000000E+00 0.  1.
        -15    1    3    3    0    0 -0.28367948502E+02  0.22896255979E+02 -0.17834928322E+02  0.40584032677E+02  0.00000000000E+00 0.  1.
         15    1    3    3    0    0 -0.20109890316E+03 -0.50423466148E+00 -0.33046413247E+03  0.38684307665E+03  0.00000000000E+00 0. -1.
         15    1    4    4    0    0  0.11176714222E+02  0.46679728030E+01 -0.15557851817E+02  0.19716887788E+02  0.00000000000E+00 0. -1.
        -16    1    4    4    0    0  0.41943953273E+02 -0.14353586522E+02 -0.57600032305E+02  0.72684829117E+02  0.00000000000E+00 0.  1.
         16    1    4    4    0    0  0.14647765170E+02 -0.28747939955E+01 -0.11639868527E+02  0.18929025445E+02  0.00000000000E+00 0. -1.
    9900018    1    4    4    0    0  0.14933078142E+03 -0.49302971539E+01 -0.16602504986E+03  0.24125398584E+03  0.91187600000E+02 0.  0.
<mgrwt>
<rscale>  0 0.25855709E+03</rscale>
<asrwt>0</asrwt>
<pdfrwt beam="1">  1        1 0.10771471E+00 0.26226205E+03</pdfrwt>
<pdfrwt beam="2">  1       -1 0.14558068E-01 0.26226205E+03</pdfrwt>
<totfact> 0.95213150E+02</totfact>
</mgrwt>
</event>
<event>
11    1  0.1163165E-021  0.2637774E+03  0.7818608E-02  0.1107166E+00
          2   -1    0    0  501    0  0.00000000000E+00  0.00000000000E+00  0.11974942142E+04  0.11974942142E+04  0.00000000000E+00 0. -1.
         -2   -1    0    0    0  501 -0.00000000000E+00 -0.00000000000E+00 -0.73587123649E+02  0.73587123649E+02  0.00000000000E+00 0.  1.
         23    2    1    2    0    0  0.77949944747E+02 -0.21880888457E+03  0.87025260328E+03  0.90513172472E+03  0.89276669593E+02 0.  0.
         25    2    1    2    0    0 -0.77949944747E+02  0.21880888457E+03  0.25365448724E+03  0.36594961309E+03  0.12499999429E+03 0.  0.
        -15    1    3    3    0    0 -0.13779209043E+02 -0.33802830013E+02  0.73653086551E+02  0.82202646413E+02  0.00000000000E+00 0.  1.
        -15    1    4    4    0    0 -0.92910488241E+01  0.74603922269E+01  0.14200441220E+02  0.18537356102E+02  0.00000000000E+00 0.  1.
         15    1    4    4    0    0 -0.64667329006E+01  0.32175271857E+02  0.37294831121E+02  0.49678679349E+02  0.00000000000E+00 0. -1.
         15    1    3    3    0    0  0.91729153790E+02 -0.18500605456E+03  0.79659951673E+03  0.82292907831E+03  0.00000000000E+00 0. -1.
        -16    1    4    4    0    0 -0.64422517839E+01  0.15883904954E+02  0.28419167628E+02  0.33188102285E+02  0.00000000000E+00 0.  1.
         16    1    4    4    0    0  0.14695076802E+01  0.12673724544E+02  0.39859928618E+01  0.13366782924E+02  0.00000000000E+00 0. -1.
    9900018    1    4    4    0    0 -0.57219418919E+02  0.15061559099E+03  0.16975405441E+03  0.25117869243E+03  0.91187600000E+02 0.  0.
<mgrwt>
<rscale>  0 0.25996234E+03</rscale>
<asrwt>0</asrwt>
<pdfrwt beam="1">  1        2 0.18422986E+00 0.26377741E+03</pdfrwt>
<pdfrwt beam="2">  1       -2 0.11321097E-01 0.26377741E+03</pdfrwt>
<totfact> 0.10914581E+03</totfact>
</mgrwt>
</event>
<event>
11    1  0.1163165E-021  0.3213713E+03  0.7818608E-02  0.1076648E+00
         -2   -1    0    0    0  501 -0.00000000000E+00  0.00000000000E+00  0.13017601123E+03  0.13017601123E+03  0.00000000000E+00 0. -1.
          2   -1    0    0  501    0  0.00000000000E+00 -0.00000000000E+00 -0.12408149643E+04  0.12408149643E+04  0.00000000000E+00 0.  1.
         23    2    1    2    0    0 -0.90064811572E+02 -0.28203121651E+03 -0.12091633437E+03  0.33039961244E+03  0.83005220380E+02 0.  0.
         25    2    1    2    0    0  0.90064811572E+02  0.28203121651E+03 -0.98972261867E+03  0.10405913631E+04  0.12500498239E+03 0.  0.
        -15    1    4    4    0    0  0.12583480559E+02  0.12409003708E+02 -0.76272253171E+02  0.78292936845E+02  0.00000000000E+00 0.  1.
        -15    1    3    3    0    0 -0.10140766240E+03 -0.19628322119E+03 -0.84142514679E+02  0.23641188568E+03  0.00000000000E+00 0.  1.
         15    1    3    3    0    0  0.11342850825E+02 -0.85747995324E+02 -0.36773819694E+02  0.93987726761E+02  0.00000000000E+00 0. -1.
         15    1    4    4    0    0 -0.59500928657E+01  0.93873317210E+01 -0.28755628079E+02  0.30828748728E+02  0.00000000000E+00 0. -1.
        -16    1    4    4    0    0  0.12128701205E+02  0.16797163267E+02 -0.50543488466E+02  0.54625033758E+02  0.00000000000E+00 0.  1.
         16    1    4    4    0    0  0.15306894894E+01  0.81235446498E+01 -0.31509738260E+02  0.32576043240E+02  0.00000000000E+00 0. -1.
    9900018    1    4    4    0    0  0.69772033184E+02  0.23531417317E+03 -0.80264151070E+03  0.84426860050E+03  0.91187600000E+02 0.  0.
<mgrwt>
<rscale>  0 0.31784039E+03</rscale>
<asrwt>0</asrwt>
<pdfrwt beam="1">  1        2 0.19089460E+00 0.32137132E+03</pdfrwt>
<pdfrwt beam="2">  1       -2 0.20027080E-01 0.32137132E+03</pdfrwt>
<totfact> 0.39723907E+02</totfact>
</mgrwt>
</event>
<event>
11    1  0.1163165E-021  0.1691677E+03  0.7818608E-02  0.1185400E+00
          2   -1    0    0  501    0  0.00000000000E+00  0.00000000000E+00  0.48412889440E+02  0.48412889440E+02  0.00000000000E+00 0.  1.
         -2   -1    0    0    0  501 -0.00000000000E+00 -0.00000000000E+00 -0.66237410393E+03  0.66237410393E+03  0.00000000000E+00 0. -1.
         23    2    1    2    0    0 -0.58580504352E+01  0.11382058119E+03 -0.45833898618E+03  0.48092621769E+03  0.90697073573E+02 0.  0.
         25    2    1    2    0    0  0.58580504352E+01 -0.11382058119E+03 -0.15562222830E+03  0.22986077567E+03  0.12501302650E+03 0.  0.
        -15    1    3    3    0    0  0.24388202567E+02  0.48502208225E+02 -0.86062565382E+02  0.10175467452E+03  0.00000000000E+00 0.  1.
        -15    1    4    4    0    0 -0.27416536912E+00 -0.11094496833E+02 -0.20832925298E+01  0.11291728583E+02  0.00000000000E+00 0.  1.
         15    1    3    3    0    0 -0.30246253002E+02  0.65318372961E+02 -0.37227642080E+03  0.37917154317E+03  0.00000000000E+00 0. -1.
         15    1    4    4    0    0  0.59857736759E+01 -0.13732716470E+02 -0.23848295908E+02  0.28163064568E+02  0.00000000000E+00 0. -1.
        -16    1    4    4    0    0  0.21891671308E+01  0.21446448918E+01 -0.66112338413E+01  0.72869998863E+01  0.00000000000E+00 0.  1.
         16    1    4    4    0    0  0.19159530478E+01  0.18573219910E+01 -0.10766733724E+02  0.11092478359E+02  0.00000000000E+00 0. -1.
    9900018    1    4    4    0    0 -0.39586780501E+01 -0.92995334765E+02 -0.11231267230E+03  0.17202650428E+03  0.91187600000E+02 0.  0.
<mgrwt>
<rscale>  0 0.16295565E+03</rscale>
<asrwt>0</asrwt>
<pdfrwt beam="1">  1        2 0.74481367E-02 0.16916766E+03</pdfrwt>
<pdfrwt beam="2">  1       -2 0.10190371E+00 0.16916766E+03</pdfrwt>
<totfact> 0.75371865E+02</totfact>
</mgrwt>
</event>
