<event>
11    1  0.1362874E-013  0.3835375E+04  0.7818608E-02  0.8264689E-01
          1   -1    0    0  501    0  0.00000000000E+00  0.00000000000E+00  0.38852378434E+04  0.38852378434E+04  0.00000000000E+00 0. -1.
         -1   -1    0    0    0  501 -0.00000000000E+00 -0.00000000000E+00 -0.17347548006E+04  0.17347548006E+04  0.00000000000E+00 0.  1.
    9900016    2    1    2    0    0  0.24254425069E+03 -0.65113397615E+03  0.93546326529E+03  0.23374857248E+04  0.20263131112E+04 0.  0.
         24    2    3    3    0    0  0.10599870851E+04 -0.71400029842E+03  0.79391429672E+03  0.15054995034E+04  0.53477074782E+02 0.  0.
        -15    1    4    4    0    0  0.22015935131E+03 -0.12687319045E+03  0.17177549983E+03  0.30671447433E+03  0.00000000000E+00 0.  1.
        -15    1    1    2    0    0 -0.53921108332E+03  0.82277441671E+03 -0.92655851859E+01  0.98376429303E+03  0.00000000000E+00 0.  1.
         15    1    3    3    0    0 -0.81744283445E+03  0.62866322270E+02  0.14154896857E+03  0.83198622139E+03  0.00000000000E+00 0. -1.
         15    1    1    2    0    0 -0.46380174769E+03 -0.78087385605E+03  0.46232114278E+03  0.10191255464E+04  0.00000000000E+00 0. -1.
        -16    1    1    2    0    0  0.30621956500E+03  0.17269918213E+03  0.44904362813E+03  0.57029431828E+03  0.00000000000E+00 0.  1.
         16    1    4    4    0    0  0.83982773383E+03 -0.58712710797E+03  0.62213879689E+03  0.11987850291E+04  0.00000000000E+00 0. -1.
    9900018    1    1    2    0    0  0.45424901532E+03  0.43653423336E+03  0.31292059182E+03  0.70932276151E+03  0.91187600000E+02 0.  0.
<mgrwt>
<rscale>  0 0.29276796E+04</rscale>
<asrwt>0</asrwt>
<pdfrwt beam="1">  1        1 0.59772890E+00 0.38353752E+04</pdfrwt>
<pdfrwt beam="2">  1       -1 0.26688535E+00 0.38353752E+04</pdfrwt>
<totfact> 0.49665112E-03</totfact>
</mgrwt>
</event>
<event>
11    1  0.1362874E-013  0.4470505E+04  0.7818608E-02  0.8204859E-01
         -1   -1    0    0    0  501 -0.00000000000E+00  0.00000000000E+00  0.43862512978E+04  0.43862512978E+04  0.00000000000E+00 0.  1.
          1   -1    0    0  501    0  0.00000000000E+00 -0.00000000000E+00 -0.18239911386E+04  0.18239911386E+04  0.00000000000E+00 0. -1.
    9900016    2    1    2    0    0  0.68500410129E+03  0.39648291420E+03  0.60295723676E+03  0.22510321821E+04  0.20191976465E+04 0.  0.
         24    2    3    3    0    0  0.36351023288E+02 -0.37202982928E+03 -0.58322686064E+03  0.69591309813E+03  0.66437025892E+02 0.  0.
        -15    1    4    4    0    0  0.87540166997E+01 -0.28702849661E+03 -0.48033577586E+03  0.55962884866E+03  0.00000000000E+00 0.  1.
        -15    1    1    2    0    0  0.34406844066E+02 -0.20165566182E+03  0.30002493636E+03  0.36313055407E+03  0.00000000000E+00 0.  1.
         15    1    3    3    0    0  0.64865307801E+03  0.76851274348E+03  0.11861840974E+04  0.15551190840E+04  0.00000000000E+00 0. -1.
         15    1    1    2    0    0 -0.11093598668E+02  0.86675502634E+03  0.69094052850E+03  0.11085062731E+04  0.00000000000E+00 0. -1.
        -16    1    1    2    0    0 -0.11694708973E+04 -0.73680151487E+03  0.22323610387E+02  0.13824026170E+04  0.00000000000E+00 0.  1.
         16    1    4    4    0    0  0.27597006589E+02 -0.85001332662E+02 -0.10289108478E+03  0.13628424947E+03  0.00000000000E+00 0. -1.
    9900018    1    1    2    0    0  0.46115355063E+03 -0.32478076385E+03  0.94601384720E+03  0.11051708100E+04  0.91187600000E+02 0.  0.
<mgrwt>
<rscale>  0 0.31399502E+04</rscale>
<asrwt>0</asrwt>
<pdfrwt beam="1">  1        1 0.28061402E+00 0.44705051E+04</pdfrwt>
<pdfrwt beam="2">  1       -1 0.67480789E+00 0.44705051E+04</pdfrwt>
<totfact> 0.69726326E-04</totfact>
</mgrwt>
</event>
<event>
11    1  0.1362874E-013  0.6834645E+04  0.7818608E-02  0.7594733E-01
         -2   -1    0    0    0  501 -0.00000000000E+00  0.00000000000E+00  0.40731566859E+04  0.40731566859E+04  0.00000000000E+00 0.  1.
          2   -1    0    0  501    0  0.00000000000E+00 -0.00000000000E+00 -0.28670867019E+04  0.28670867019E+04  0.00000000000E+00 0. -1.
    9900016    2    1    2    0    0  0.64291901756E+03  0.22828941446E+02  0.14965344030E+03  0.21208177316E+04  0.20153425701E+04 0.  0.
         24    2    3    3    0    0 -0.64868186297E+03 -0.28916810944E+03  0.31870110093E+03  0.78135809960E+03  0.67407219322E+02 0.  0.
        -15    1    4    4    0    0 -0.34401828859E+03 -0.17305736387E+03  0.20356119480E+03  0.43558534652E+03  0.00000000000E+00 0.  1.
        -15    1    1    2    0    0 -0.80261888731E+03 -0.33656497519E+02 -0.94503825855E+03  0.12403334827E+04  0.00000000000E+00 0.  1.
         15    1    1    2    0    0  0.48245305950E+03 -0.97134367853E+03  0.14616718395E+04  0.18200972674E+04  0.00000000000E+00 0. -1.
         15    1    3    3    0    0  0.12916008805E+04  0.31199705088E+03 -0.16904766063E+03  0.13394596320E+04  0.00000000000E+00 0. -1.
        -16    1    1    2    0    0 -0.69854034909E+03  0.10691422814E+04  0.39085587787E+03  0.13355868202E+04  0.00000000000E+00 0.  1.
         16    1    4    4    0    0 -0.30466357438E+03 -0.11611074557E+03  0.11513990613E+03  0.34577275308E+03  0.00000000000E+00 0. -1.
    9900018    1    1    2    0    0  0.37578715934E+03 -0.86971046775E+02  0.14892708492E+03  0.42340808579E+03  0.91187600000E+02 0.  0.
<mgrwt>
<rscale>  0 0.68346451E+04</rscale>
<asrwt>0</asrwt>
<pdfrwt beam="1">  1        2 0.44109026E+00 0.68346451E+04</pdfrwt>
<pdfrwt beam="2">  1       -2 0.62663950E+00 0.68346451E+04</pdfrwt>
<totfact> 0.55250159E-04</totfact>
</mgrwt>
</event>
<event>
10    1  0.1362874E-013  0.3162256E+04  0.7818608E-02  0.8439729E-01
         -2   -1    0    0    0  501 -0.00000000000E+00  0.00000000000E+00  0.13286386057E+04  0.13286386057E+04  0.00000000000E+00 0.  1.
          2   -1    0    0  501    0  0.00000000000E+00 -0.00000000000E+00 -0.37477273205E+04  0.37477273205E+04  0.00000000000E+00 0. -1.
    9900016    2    1    2    0    0  0.53222200077E+03  0.33685386576E+03 -0.11750078474E+04  0.24475227902E+04  0.20525578145E+04 0.  0.
        -15    1    1    2    0    0  0.30435829795E+03  0.16231604713E+02  0.51648927978E+03  0.59971544473E+03  0.00000000000E+00 0.  1.
        -15    1    3    3    0    0 -0.19975897940E+03  0.61879545274E+03  0.34240962240E+03  0.73488489690E+03  0.00000000000E+00 0.  1.
         15    1    1    2    0    0 -0.66283267696E+02 -0.39638695002E+02 -0.44424312738E+03  0.45090648027E+03  0.00000000000E+00 0. -1.
         15    1    3    3    0    0  0.34361238709E+03 -0.11368881874E+03 -0.57327270571E+03  0.67796475954E+03  0.00000000000E+00 0. -1.
        -16    1    3    3    0    0  0.38836859308E+03 -0.16825276825E+03 -0.94414476410E+03  0.10346731337E+04  0.00000000000E+00 0.  1.
         16    1    1    2    0    0 -0.56671352532E+03 -0.31245841352E+03 -0.95637555951E+03  0.11547504885E+04  0.00000000000E+00 0. -1.
    9900018    1    1    2    0    0 -0.20358350570E+03 -0.98836195065E+00 -0.35995146028E+03  0.42347072249E+03  0.91187600000E+02 0.  0.
<mgrwt>
<rscale>  0 0.23993970E+04</rscale>
<asrwt>0</asrwt>
<pdfrwt beam="1">  1        2 0.57657343E+00 0.31622564E+04</pdfrwt>
<pdfrwt beam="2">  1       -2 0.20440594E+00 0.31622564E+04</pdfrwt>
<totfact> 0.54400047E-02</totfact>
</mgrwt>
</event>
<event>
11    1  0.1362874E-013  0.2752697E+04  0.7818608E-02  0.8415045E-01
          1   -1    0    0  501    0  0.00000000000E+00  0.00000000000E+00  0.30398788506E+04  0.30398788506E+04  0.00000000000E+00 0.  1.
         -1   -1    0    0    0  501 -0.00000000000E+00 -0.00000000000E+00 -0.17455125941E+04  0.17455125941E+04  0.00000000000E+00 0. -1.
    9900016    2    1    2    0    0 -0.41596093054E+02 -0.45104633730E+03  0.42316559101E+01  0.20435585523E+04  0.19927219115E+04 0.  0.
         24    2    3    3    0    0 -0.44093812589E+03  0.15138274550E+03  0.82509993222E+03  0.94984031342E+03  0.63746030065E+02 0.  0.
        -15    1    1    2    0    0  0.26653129015E+03 -0.40658561571E+02  0.12240228433E+04  0.12533650578E+04  0.00000000000E+00 0.  1.
        -15    1    4    4    0    0 -0.42461988915E+03  0.13538203643E+03  0.80090381286E+03  0.91655728872E+03  0.00000000000E+00 0.  1.
         15    1    1    2    0    0 -0.46391672907E+03  0.53040904671E+03 -0.27770873677E+03  0.75741311767E+03  0.00000000000E+00 0. -1.
         15    1    3    3    0    0  0.39934203284E+03 -0.60242908280E+03 -0.82086827631E+03  0.10937182389E+04  0.00000000000E+00 0. -1.
        -16    1    1    2    0    0  0.97080969498E+02 -0.33250274958E+01  0.49338809804E+03  0.50285940951E+03  0.00000000000E+00 0.  1.
         16    1    4    4    0    0 -0.16318236739E+02  0.16000709074E+02  0.24196119356E+02  0.33283024698E+02  0.00000000000E+00 0. -1.
    9900018    1    1    2    0    0  0.14190056248E+03 -0.35379120347E+02 -0.14956760399E+03  0.22819530745E+03  0.91187600000E+02 0.  0.
<mgrwt>
<rscale>  0 0.24664269E+04</rscale>
<asrwt>0</asrwt>
<pdfrwt beam="1">  1        1 0.46767367E+00 0.27526966E+04</pdfrwt>
<pdfrwt beam="2">  1       -1 0.26854040E+00 0.27526966E+04</pdfrwt>
<totfact> 0.24461472E-02</totfact>
</mgrwt>
</event>
<event>
11    1  0.1362874E-013  0.3181417E+04  0.7818608E-02  0.8427331E-01
         -2   -1    0    0    0  501 -0.00000000000E+00  0.00000000000E+00  0.17793444738E+04  0.17793444738E+04  0.00000000000E+00 0.  1.
          2   -1    0    0  501    0  0.00000000000E+00 -0.00000000000E+00 -0.27026017675E+04  0.27026017675E+04  0.00000000000E+00 0. -1.
    9900016    2    1    2    0    0 -0.62805589871E+02 -0.75739450602E+03 -0.30249925059E+02  0.21634766820E+04  0.20253704144E+04 0.  0.
         24    2    3    3    0    0  0.56713359419E+01 -0.13590583868E+04 -0.44310534857E+03  0.14305796118E+04  0.56069715265E+02 0.  0.
        -15    1    4    4    0    0 -0.54552503363E+01 -0.60778948904E+03 -0.17010189821E+03  0.63116755186E+03  0.00000000000E+00 0.  1.
        -15    1    1    2    0    0 -0.19141820660E+03  0.91645756267E+03  0.21302840744E+03  0.96016482771E+03  0.00000000000E+00 0.  1.
         15    1    3    3    0    0 -0.68476925813E+02  0.60166388076E+03  0.41285542351E+03  0.73289707020E+03  0.00000000000E+00 0. -1.
         15    1    1    2    0    0  0.65877717745E+02 -0.13063433658E+03 -0.91153478864E+01  0.14658885755E+03  0.00000000000E+00 0. -1.
        -16    1    1    2    0    0 -0.12649074130E+03 -0.36770762954E+02 -0.61421945538E+03  0.62818590879E+03  0.00000000000E+00 0.  1.
         16    1    4    4    0    0  0.11126586278E+02 -0.75126889774E+03 -0.27300345036E+03  0.79941205992E+03  0.00000000000E+00 0. -1.
    9900018    1    1    2    0    0  0.31483682003E+03  0.83420428939E+01 -0.48270097278E+03  0.58352996534E+03  0.91187600000E+02 0.  0.
<mgrwt>
<rscale>  0 0.24327828E+04</rscale>
<asrwt>0</asrwt>
<pdfrwt beam="1">  1        2 0.41578489E+00 0.31814166E+04</pdfrwt>
<pdfrwt beam="2">  1       -2 0.27374530E+00 0.31814166E+04</pdfrwt>
<totfact> 0.98752652E-02</totfact>
</mgrwt>
</event>
<event>
11    1  0.1362874E-013  0.3793019E+04  0.7818608E-02  0.8210229E-01
          1   -1    0    0  501    0  0.00000000000E+00  0.00000000000E+00  0.24226246593E+04  0.24226246593E+04  0.00000000000E+00 0. -1.
         -1   -1    0    0    0  501 -0.00000000000E+00 -0.00000000000E+00 -0.32305245149E+04  0.32305245149E+04  0.00000000000E+00 0.  1.
    9900016    2    1    2    0    0 -0.55924504870E+02 -0.38798214407E+02  0.18199477196E+03  0.20329245670E+04  0.20236173913E+04 0.  0.
         24    2    3    3    0    0 -0.89916891917E+02 -0.85331275191E+03  0.66039347755E+03  0.10876972210E+04  0.10362431837E+03 0.  0.
        -15    1    1    2    0    0 -0.16741117013E+03 -0.35490212663E+03  0.91615490059E+02  0.40295833208E+03  0.00000000000E+00 0.  1.
        -15    1    4    4    0    0 -0.84103071440E+02 -0.35397719401E+03  0.25174546820E+03  0.44243526223E+03  0.00000000000E+00 0.  1.
         15    1    3    3    0    0  0.33992387047E+02  0.81451453750E+03 -0.47839870559E+03  0.94522734604E+03  0.00000000000E+00 0. -1.
         15    1    1    2    0    0 -0.67487359430E+01  0.13387184310E+04  0.51641183347E+02  0.13397310905E+04  0.00000000000E+00 0. -1.
        -16    1    1    2    0    0  0.14687389687E+03 -0.11995609865E+04 -0.85173184703E+03  0.14785011468E+04  0.00000000000E+00 0.  1.
         16    1    4    4    0    0 -0.58138204776E+01 -0.49933555790E+03  0.40864800934E+03  0.64526195877E+03  0.00000000000E+00 0. -1.
    9900018    1    1    2    0    0  0.83210514075E+02  0.25454289651E+03 -0.28141945392E+03  0.39903403772E+03  0.91187600000E+02 0.  0.
<mgrwt>
<rscale>  0 0.31201517E+04</rscale>
<asrwt>0</asrwt>
<pdfrwt beam="1">  1        1 0.37271149E+00 0.37930195E+04</pdfrwt>
<pdfrwt beam="2">  1       -1 0.49700377E+00 0.37930195E+04</pdfrwt>
<totfact> 0.18058187E-03</totfact>
</mgrwt>
</event>
<event>
10    1  0.1362874E-013  0.4930386E+04  0.7818608E-02  0.8045679E-01
          2   -1    0    0  501    0  0.00000000000E+00  0.00000000000E+00  0.25514273928E+04  0.25514273928E+04  0.00000000000E+00 0. -1.
         -2   -1    0    0    0  501 -0.00000000000E+00 -0.00000000000E+00 -0.46445425320E+04  0.46445425320E+04  0.00000000000E+00 0.  1.
    9900016    2    1    2    0    0  0.17367673818E+04  0.31525448828E+02 -0.16886169530E+04  0.31604726065E+04  0.20297302998E+04 0.  0.
        -15    1    1    2    0    0 -0.12834678917E+04  0.34747937437E+02 -0.10762327599E+04  0.16753430101E+04  0.00000000000E+00 0.  1.
        -15    1    3    3    0    0  0.12554468382E+04  0.27708083771E+03 -0.11774761836E+04  0.17433791088E+04  0.00000000000E+00 0.  1.
         15    1    3    3    0    0 -0.25801130545E+03 -0.31724815947E+03  0.13701544643E+03  0.43126495451E+03  0.00000000000E+00 0. -1.
         15    1    1    2    0    0 -0.31889473626E+03 -0.32433215758E+03 -0.28358025104E+03  0.53600649253E+03  0.00000000000E+00 0. -1.
        -16    1    1    2    0    0  0.24163691153E+03  0.54540867408E+03  0.11569610858E+04  0.13016981112E+04  0.00000000000E+00 0.  1.
         16    1    3    3    0    0  0.73933184899E+03  0.71692770593E+02 -0.64815621583E+03  0.98582854311E+03  0.00000000000E+00 0. -1.
    9900018    1    1    2    0    0 -0.37604166536E+03 -0.28734990276E+03 -0.20164626111E+03  0.52244970449E+03  0.91187600000E+02 0.  0.
<mgrwt>
<rscale>  0 0.38022207E+04</rscale>
<asrwt>0</asrwt>
<pdfrwt beam="1">  1        2 0.39252729E+00 0.49303863E+04</pdfrwt>
<pdfrwt beam="2">  1       -2 0.71454500E+00 0.49303863E+04</pdfrwt>
<totfact> 0.45445038E-04</totfact>
</mgrwt>
</event>
<event>
10    1  0.1362874E-013  0.2828074E+04  0.7818608E-02  0.8444263E-01
          1   -1    0    0  501    0  0.00000000000E+00  0.00000000000E+00  0.33534945910E+04  0.33534945910E+04  0.00000000000E+00 0. -1.
         -1   -1    0    0    0  501 -0.00000000000E+00 -0.00000000000E+00 -0.14486002271E+04  0.14486002271E+04  0.00000000000E+00 0.  1.
    9900016    2    1    2    0    0  0.48724329573E+03  0.62007843225E+03  0.78353576676E+03  0.23103338753E+04  0.20252928248E+04 0.  0.
        -15    1    1    2    0    0  0.22703368966E+03 -0.39630543269E+03  0.63966367093E+03  0.78598467168E+03  0.00000000000E+00 0.  1.
        -15    1    3    3    0    0 -0.53772886945E+01 -0.15838705907E+03 -0.24911074455E+03  0.29524826632E+03  0.00000000000E+00 0.  1.
         15    1    1    2    0    0 -0.55858678282E+03 -0.74995679880E+03  0.59932608901E+03  0.11106962478E+04  0.00000000000E+00 0. -1.
         15    1    3    3    0    0  0.49565307578E+03  0.98568121768E+03  0.12816574719E+04  0.16911195433E+04  0.00000000000E+00 0. -1.
        -16    1    1    2    0    0 -0.14301463636E+03  0.27156408537E+03 -0.10371182466E+03  0.32396972274E+03  0.00000000000E+00 0.  1.
         16    1    3    3    0    0 -0.30324913495E+01 -0.20721572637E+03 -0.24901096055E+03  0.32396606571E+03  0.00000000000E+00 0. -1.
    9900018    1    1    2    0    0 -0.12675566224E+02  0.25461971387E+03 -0.13919338111E+02  0.27111030050E+03  0.91187600000E+02 0.  0.
<mgrwt>
<rscale>  0 0.23873281E+04</rscale>
<asrwt>0</asrwt>
<pdfrwt beam="1">  1        1 0.51592224E+00 0.28280737E+04</pdfrwt>
<pdfrwt beam="2">  1       -1 0.22286157E+00 0.28280737E+04</pdfrwt>
<totfact> 0.28353010E-02</totfact>
</mgrwt>
</event>
<event>
11    1  0.1362874E-013  0.4221481E+04  0.7818608E-02  0.8289883E-01
         -1   -1    0    0    0  501 -0.00000000000E+00  0.00000000000E+00  0.23530426355E+04  0.23530426355E+04  0.00000000000E+00 0.  1.
          1   -1    0    0  501    0  0.00000000000E+00 -0.00000000000E+00 -0.29448731008E+04  0.29448731008E+04  0.00000000000E+00 0. -1.
    9900016    2    1    2    0    0  0.34315652346E+03 -0.79111688431E+03  0.10396470956E+04  0.24412299695E+04  0.20334983049E+04 0.  0.
         24    2    3    3    0    0  0.23662076279E+03 -0.12985854517E+04  0.13062343659E+04  0.18581836695E+04  0.65458156109E+02 0.  0.
        -15    1    4    4    0    0  0.62378588380E+02 -0.33700887203E+03  0.29959136816E+03  0.45521539516E+03  0.00000000000E+00 0.  1.
        -15    1    1    2    0    0 -0.10512338556E+04  0.83493499557E+03 -0.92279244072E+03  0.16290349765E+04  0.00000000000E+00 0.  1.
         15    1    3    3    0    0  0.10653576067E+03  0.50746856738E+03 -0.26658727031E+03  0.58304629994E+03  0.00000000000E+00 0. -1.
         15    1    1    2    0    0  0.57128387959E+03 -0.29108759044E+03 -0.37668830798E+03  0.74363387346E+03  0.00000000000E+00 0. -1.
        -16    1    1    2    0    0  0.14458260501E+03  0.15184608642E+03 -0.25816546779E+03  0.33258197845E+03  0.00000000000E+00 0.  1.
         16    1    4    4    0    0  0.17424217441E+03 -0.96157657966E+03  0.10066429978E+04  0.14029682744E+04  0.00000000000E+00 0. -1.
    9900018    1    1    2    0    0 -0.77891524955E+01  0.95423392756E+02 -0.73831344348E+02  0.15143493845E+03  0.91187600000E+02 0.  0.
<mgrwt>
<rscale>  0 0.28435210E+04</rscale>
<asrwt>0</asrwt>
<pdfrwt beam="1">  1        1 0.45305740E+00 0.42214807E+04</pdfrwt>
<pdfrwt beam="2">  1       -1 0.36200656E+00 0.42214807E+04</pdfrwt>
<totfact> 0.62938790E-03</totfact>
</mgrwt>
</event>
<event>
11    1  0.1362874E-013  0.4274113E+04  0.7818608E-02  0.8243962E-01
         -2   -1    0    0    0  501 -0.00000000000E+00  0.00000000000E+00  0.27187281981E+04  0.27187281981E+04  0.00000000000E+00 0.  1.
          2   -1    0    0  501    0  0.00000000000E+00 -0.00000000000E+00 -0.25931661900E+04  0.25931661900E+04  0.00000000000E+00 0. -1.
    9900016    2    1    2    0    0 -0.47190823096E+03 -0.14245316388E+03 -0.32213574229E+03  0.21090504555E+04  0.20251745863E+04 0.  0.
         24    2    3    3    0    0  0.20963644266E+03 -0.78212326428E+03 -0.72544729645E+03  0.10910420129E+04  0.91840380092E+02 0.  0.
        -15    1    1    2    0    0  0.15651846588E+04  0.27751489950E+03  0.27124178487E+03  0.16125723678E+04  0.00000000000E+00 0.  1.
        -15    1    4    4    0    0  0.17292197368E+03 -0.48284022741E+03 -0.47564149104E+03  0.69947946516E+03  0.00000000000E+00 0.  1.
         15    1    3    3    0    0 -0.68154467362E+03  0.63967010040E+03  0.40331155416E+03  0.10180084426E+04  0.00000000000E+00 0. -1.
         15    1    1    2    0    0 -0.60958820015E+03 -0.97566904686E+02 -0.18504316898E+03  0.64448277637E+03  0.00000000000E+00 0. -1.
        -16    1    1    2    0    0 -0.43844373629E+02 -0.32557568153E+03  0.21426325973E+03  0.39221243986E+03  0.00000000000E+00 0.  1.
         16    1    4    4    0    0  0.36714468983E+02 -0.29928303688E+03 -0.24980580540E+03  0.39156254776E+03  0.00000000000E+00 0. -1.
    9900018    1    1    2    0    0 -0.43984385408E+03  0.28808085061E+03  0.14723587471E+03  0.55357634853E+03  0.91187600000E+02 0.  0.
<mgrwt>
<rscale>  0 0.29991913E+04</rscale>
<asrwt>0</asrwt>
<pdfrwt beam="1">  1        2 0.39894864E+00 0.42741135E+04</pdfrwt>
<pdfrwt beam="2">  1       -2 0.41826588E+00 0.42741135E+04</pdfrwt>
<totfact> 0.12879815E-02</totfact>
</mgrwt>
</event>
<event>
10    1  0.1362874E-013  0.2952330E+04  0.7818608E-02  0.8386679E-01
         -2   -1    0    0    0  501 -0.00000000000E+00  0.00000000000E+00  0.13440233196E+04  0.13440233196E+04  0.00000000000E+00 0.  1.
          2   -1    0    0  501    0  0.00000000000E+00 -0.00000000000E+00 -0.39121173692E+04  0.39121173692E+04  0.00000000000E+00 0. -1.
    9900016    2    1    2    0    0  0.72467017704E+03 -0.35473451346E+03 -0.89674605777E+03  0.23554161032E+04  0.20230788631E+04 0.  0.
        -15    1    3    3    0    0 -0.59222851303E+03 -0.25117588634E+03  0.15675869684E+03  0.66211571992E+03  0.00000000000E+00 0.  1.
        -15    1    1    2    0    0 -0.12160163269E+03  0.75745196261E+03 -0.99473125951E+03  0.12561889632E+04  0.00000000000E+00 0.  1.
         15    1    1    2    0    0 -0.58195244767E+03  0.22502783032E+03  0.58431252712E+02  0.62667406764E+03  0.00000000000E+00 0. -1.
         15    1    3    3    0    0  0.39682312861E+02 -0.15926395473E+02 -0.16713824162E+02  0.45909562673E+02  0.00000000000E+00 0. -1.
        -16    1    3    3    0    0  0.12772163772E+04 -0.87632231654E+02 -0.10367909304E+04  0.16473908206E+04  0.00000000000E+00 0.  1.
         16    1    1    2    0    0  0.57928284336E+02 -0.52176946869E+03 -0.65192127138E+03  0.83701876243E+03  0.00000000000E+00 0. -1.
    9900018    1    1    2    0    0 -0.79044381019E+02 -0.10597581077E+03 -0.83126713684E+02  0.18084279239E+03  0.91187600000E+02 0.  0.
<mgrwt>
<rscale>  0 0.25462870E+04</rscale>
<asrwt>0</asrwt>
<pdfrwt beam="1">  1        2 0.60186420E+00 0.29523296E+04</pdfrwt>
<pdfrwt beam="2">  1       -2 0.20677282E+00 0.29523296E+04</pdfrwt>
<totfact> 0.39734696E-02</totfact>
</mgrwt>
</event>
<event>
11    1  0.1362874E-013  0.4125782E+04  0.7818608E-02  0.8240552E-01
          1   -1    0    0  501    0  0.00000000000E+00  0.00000000000E+00  0.52720312206E+04  0.52720312206E+04  0.00000000000E+00 0.  1.
         -1   -1    0    0    0  501 -0.00000000000E+00 -0.00000000000E+00 -0.13332918267E+04  0.13332918267E+04  0.00000000000E+00 0. -1.
    9900016    2    1    2    0    0 -0.72834434156E+03  0.44004847448E+03  0.19813644518E+04  0.29528383052E+04  0.20172557661E+04 0.  0.
        -24    2    3    3    0    0 -0.66506072625E+03  0.31090960574E+02  0.23217238830E+04  0.24170252719E+04  0.91306948016E+02 0.  0.
        -15    1    3    3    0    0 -0.63283615315E+02  0.40895751390E+03 -0.34035943124E+03  0.53581303323E+03  0.00000000000E+00 0.  1.
        -15    1    1    2    0    0 -0.47646538220E+03  0.52602216369E+03  0.92730578921E+03  0.11677390992E+04  0.00000000000E+00 0.  1.
         15    1    1    2    0    0  0.58278282035E+03 -0.81735111988E+03  0.11414715587E+04  0.15200842043E+04  0.00000000000E+00 0. -1.
         15    1    4    4    0    0 -0.14426264713E+03 -0.30376037044E+02  0.48666145372E+03  0.50850150985E+03  0.00000000000E+00 0. -1.
        -16    1    4    4    0    0 -0.52079807912E+03  0.61466997618E+02  0.18350624293E+04  0.19085237621E+04  0.00000000000E+00 0.  1.
         16    1    1    2    0    0 -0.10707897075E+03 -0.38464932670E+02 -0.18586793504E+03  0.21792738767E+03  0.00000000000E+00 0. -1.
    9900018    1    1    2    0    0  0.72910587416E+03 -0.11025458562E+03  0.74465529327E+02  0.74673405094E+03  0.91187600000E+02 0.  0.
<mgrwt>
<rscale>  0 0.30111564E+04</rscale>
<asrwt>0</asrwt>
<pdfrwt beam="1">  1        1 0.81108171E+00 0.41257820E+04</pdfrwt>
<pdfrwt beam="2">  1       -1 0.20512182E+00 0.41257820E+04</pdfrwt>
<totfact> 0.37093112E-04</totfact>
</mgrwt>
</event>
