<event>
11    1  0.7140415E-013  0.1604660E+04  0.7818608E-02  0.8817690E-01
          1   -1    0    0  501    0  0.00000000000E+00  0.00000000000E+00  0.18742457637E+04  0.18742457637E+04  0.00000000000E+00 0. -1.
         -1   -1    0    0    0  501 -0.00000000000E+00 -0.00000000000E+00 -0.34346286556E+03  0.34346286556E+03  0.00000000000E+00 0.  1.
    9900016    2    1    2    0    0 -0.33689498141E+03  0.15095155452E+03  0.97851230404E+03  0.12638757474E+04  0.70965553293E+03 0.  0.
         23    2    3    3    0    0 -0.48469809782E+03 -0.72058343936E+01  0.55793963753E+03  0.74490795960E+03  0.92774237066E+02 0.  0.
        -15    1    4    4    0    0 -0.34736287924E+02 -0.25627207821E+02  0.51660678213E+02  0.67321535580E+02  0.00000000000E+00 0. -1.
        -15    1    3    3    0    0 -0.67827531994E+01 -0.92722263478E+01  0.19272379611E+02  0.22436678415E+02  0.00000000000E+00 0.  1.
         15    1    4    4    0    0 -0.44996180990E+03  0.18421373427E+02  0.50627895932E+03  0.67758642402E+03  0.00000000000E+00 0.  1.
         15    1    3    3    0    0 -0.40492768036E+02  0.37786288590E+02  0.10617905766E+03  0.11975583557E+03  0.00000000000E+00 0. -1.
        -16    1    1    2    0    0  0.32370491401E+03 -0.39063347015E+03  0.44754374752E+03  0.67651665560E+03  0.00000000000E+00 0.  1.
         16    1    3    3    0    0  0.19507863765E+03  0.12964332667E+03  0.29512122924E+03  0.37677527383E+03  0.00000000000E+00 0. -1.
    9900018    1    1    2    0    0  0.13190067397E+02  0.23968191563E+03  0.10472684659E+03  0.27731622626E+03  0.91187600000E+02 0.  0.
<mgrwt>
<rscale>  0 0.16046605E+04</rscale>
<asrwt>0</asrwt>
<pdfrwt beam="1">  1        1 0.28834550E+00 0.16046605E+04</pdfrwt>
<pdfrwt beam="2">  1       -1 0.52840442E-01 0.16046605E+04</pdfrwt>
<totfact> 0.12563682E+01</totfact>
</mgrwt>
</event>
<event>
11    1  0.7140415E-013  0.1769432E+04  0.7818608E-02  0.8722726E-01
          1   -1    0    0  501    0  0.00000000000E+00  0.00000000000E+00  0.83985717162E+03  0.83985717162E+03  0.00000000000E+00 0. -1.
         -1   -1    0    0    0  501 -0.00000000000E+00 -0.00000000000E+00 -0.93197086674E+03  0.93197086674E+03  0.00000000000E+00 0.  1.
    9900016    2    1    2    0    0 -0.31105954557E+02  0.26158281317E+03 -0.36849624254E+03  0.85042195304E+03  0.71974639207E+03 0.  0.
         23    2    3    3    0    0 -0.43595602761E+02  0.39898636328E+03  0.82512915871E+01  0.41136098765E+03  0.89772399350E+02 0.  0.
        -15    1    4    4    0    0  0.17625451779E+02  0.21831925361E+03 -0.13046121315E+02  0.21941776211E+03  0.00000000000E+00 0.  1.
        -15    1    3    3    0    0  0.18106808183E+01  0.37548744934E+02 -0.32488041092E+02  0.49685607827E+02  0.00000000000E+00 0.  1.
         15    1    4    4    0    0 -0.61221054539E+02  0.18066710967E+03  0.21297412902E+02  0.19194322554E+03  0.00000000000E+00 0. -1.
         15    1    3    3    0    0 -0.87502897104E+01 -0.57105783096E+01 -0.11453290691E+02  0.15503423567E+02  0.00000000000E+00 0. -1.
        -16    1    3    3    0    0  0.19429257095E+02 -0.16924171673E+03 -0.33280620235E+03  0.37387193400E+03  0.00000000000E+00 0.  1.
         16    1    1    2    0    0 -0.10252516106E+03 -0.44671081396E+03  0.43249877585E+03  0.63017231855E+03  0.00000000000E+00 0. -1.
    9900018    1    1    2    0    0  0.13363111562E+03  0.18512800078E+03 -0.15611622842E+03  0.29123376677E+03  0.91187600000E+02 0.  0.
<mgrwt>
<rscale>  0 0.17694320E+04</rscale>
<asrwt>0</asrwt>
<pdfrwt beam="1">  1        1 0.12920880E+00 0.17694320E+04</pdfrwt>
<pdfrwt beam="2">  1       -1 0.14338013E+00 0.17694320E+04</pdfrwt>
<totfact> 0.76085685E+00</totfact>
</mgrwt>
</event>
<event>
11    1  0.7140415E-013  0.1776950E+04  0.7818608E-02  0.9528397E-01
          2   -1    0    0  501    0  0.00000000000E+00  0.00000000000E+00  0.18664452034E+04  0.18664452034E+04  0.00000000000E+00 0. -1.
         -2   -1    0    0    0  501 -0.00000000000E+00 -0.00000000000E+00 -0.46876702748E+03  0.46876702748E+03  0.00000000000E+00 0.  1.
    9900016    2    1    2    0    0  0.24515256791E+03 -0.54354998716E+03  0.43155263195E+03  0.10013410136E+04  0.67889600180E+03 0.  0.
         23    2    3    3    0    0  0.38236816152E+03 -0.88543973236E+02  0.31715980860E+03  0.51252171173E+03  0.89681183443E+02 0.  0.
        -15    1    1    2    0    0 -0.26520958213E+02 -0.43794941955E+02  0.24639191541E+02  0.56819432637E+02  0.00000000000E+00 0. -1.
        -15    1    4    4    0    0  0.24156307432E+03 -0.12389314175E+02  0.20490409078E+03  0.31700457473E+03  0.00000000000E+00 0.  1.
         15    1    4    4    0    0  0.14080508720E+03 -0.76154659062E+02  0.11225571782E+03  0.19551713700E+03  0.00000000000E+00 0. -1.
         15    1    1    2    0    0 -0.22839383485E+02 -0.18988943857E+01 -0.11580973474E+02  0.25678048689E+02  0.00000000000E+00 0.  1.
        -16    1    3    3    0    0 -0.13721559361E+03 -0.45500601392E+03  0.11439282334E+03  0.48881930186E+03  0.00000000000E+00 0.  1.
         16    1    1    2    0    0  0.14224378761E+03  0.22618308051E+03  0.52804793882E+03  0.59179954944E+03  0.00000000000E+00 0. -1.
    9900018    1    1    2    0    0 -0.33803601382E+03  0.36306074299E+03  0.42501938706E+03  0.65957418651E+03  0.91187600000E+02 0.  0.
<mgrwt>
<rscale>  0 0.82222205E+03</rscale>
<asrwt>0</asrwt>
<pdfrwt beam="1">  1        2 0.28714541E+00 0.17769500E+04</pdfrwt>
<pdfrwt beam="2">  1       -2 0.72118005E-01 0.17769500E+04</pdfrwt>
<totfact> 0.13023056E+01</totfact>
</mgrwt>
</event>
<event>
12    1  0.7140415E-013  0.1209029E+04  0.7818608E-02  0.9104990E-01
         -1   -1    0    0    0  501 -0.00000000000E+00  0.00000000000E+00  0.13487143087E+04  0.13487143087E+04  0.00000000000E+00 0.  1.
          1   -1    0    0  501    0  0.00000000000E+00 -0.00000000000E+00 -0.27095273071E+03  0.27095273071E+03  0.00000000000E+00 0. -1.
    9900016    2    1    2    0    0 -0.12880480603E+03 -0.75651458111E+02  0.79406514471E+03  0.11029542884E+04  0.75076952997E+03 0.  0.
         23    2    3    3    0    0 -0.40208926974E+02 -0.59881346627E+02  0.16416370020E+03  0.18806128641E+03  0.56699149021E+02 0.  0.
         23    2    3    3    0    0  0.24232763955E+03  0.91584072583E+02  0.44027575242E+03  0.51866932893E+03  0.89804272545E+02 0.  0.
        -15    1    4    4    0    0 -0.52135402265E+02 -0.32210560369E+02  0.10234214270E+03  0.11928761269E+03  0.00000000000E+00 0. -1.
        -15    1    5    5    0    0  0.67264623664E+02  0.34012290384E+01  0.18457935154E+03  0.19648316714E+03  0.00000000000E+00 0.  1.
         15    1    4    4    0    0  0.11926475292E+02 -0.27670786258E+02  0.61821557499E+02  0.68773673717E+02  0.00000000000E+00 0.  1.
         15    1    5    5    0    0  0.17506301589E+03  0.88182843545E+02  0.25569640088E+03  0.32218616179E+03  0.00000000000E+00 0. -1.
        -16    1    3    3    0    0 -0.33092351861E+03 -0.10735418407E+03  0.18962569209E+03  0.39622367308E+03  0.00000000000E+00 0.  1.
         16    1    1    2    0    0  0.23148888070E+03 -0.50480057897E+02  0.10751761078E+03  0.26018334836E+03  0.00000000000E+00 0. -1.
    9900018    1    1    2    0    0 -0.10268407468E+03  0.12613151601E+03  0.17617882247E+03  0.25652940261E+03  0.91187600000E+02 0.  0.
<mgrwt>
<rscale>  0 0.12090291E+04</rscale>
<asrwt>0</asrwt>
<pdfrwt beam="1">  1        1 0.41685036E-01 0.12090291E+04</pdfrwt>
<pdfrwt beam="2">  1       -1 0.20749451E+00 0.12090291E+04</pdfrwt>
<totfact> 0.13248805E+01</totfact>
</mgrwt>
</event>
<event>
12    1  0.7140415E-013  0.1710350E+04  0.7818608E-02  0.8755483E-01
          2   -1    0    0  501    0  0.00000000000E+00  0.00000000000E+00  0.16698077986E+04  0.16698077986E+04  0.00000000000E+00 0. -1.
         -2   -1    0    0    0  501 -0.00000000000E+00 -0.00000000000E+00 -0.43796902454E+03  0.43796902454E+03  0.00000000000E+00 0.  1.
    9900016    2    1    2    0    0  0.15887337075E+03  0.98965319469E+02  0.20530972833E+03  0.78323117952E+03  0.73230056236E+03 0.  0.
         23    2    3    3    0    0  0.20782169207E+02  0.31815967587E+02  0.67134208891E+02  0.10245708654E+03  0.67426242883E+02 0.  0.
         23    2    3    3    0    0  0.25322705221E+03  0.30132532488E+03  0.10378004073E+03  0.41756752126E+03  0.93120602282E+02 0.  0.
        -15    1    4    4    0    0  0.27603421381E+01  0.24701716682E+02  0.76859138666E+02  0.80778224121E+02  0.00000000000E+00 0. -1.
        -15    1    5    5    0    0  0.25528354418E+02  0.59793174460E+01  0.25371380908E+02  0.36485011794E+02  0.00000000000E+00 0.  1.
         15    1    4    4    0    0  0.18021827069E+02  0.71142509052E+01 -0.97249297747E+01  0.21678862423E+02  0.00000000000E+00 0.  1.
         15    1    5    5    0    0  0.22769869779E+03  0.29534600744E+03  0.78408659826E+02  0.38108250947E+03  0.00000000000E+00 0. -1.
        -16    1    3    3    0    0 -0.11513585066E+03 -0.23417597300E+03  0.34395478704E+02  0.26320657172E+03  0.00000000000E+00 0.  1.
         16    1    1    2    0    0 -0.35558585447E+03  0.10319218931E+03  0.94820381291E+03  0.10179294664E+04  0.00000000000E+00 0. -1.
    9900018    1    1    2    0    0  0.19671248372E+03 -0.20215750878E+03  0.78325232788E+02  0.30661617715E+03  0.91187600000E+02 0.  0.
<mgrwt>
<rscale>  0 0.17103498E+04</rscale>
<asrwt>0</asrwt>
<pdfrwt beam="1">  1        2 0.25689350E+00 0.17103498E+04</pdfrwt>
<pdfrwt beam="2">  1       -2 0.67379851E-01 0.17103498E+04</pdfrwt>
<totfact> 0.19576119E+01</totfact>
</mgrwt>
</event>
<event>
11    1  0.8187418E-013  0.1197945E+04  0.7818608E-02  0.9114657E-01
          1   -1    0    0  501    0  0.00000000000E+00  0.00000000000E+00  0.70265101570E+03  0.70265101570E+03  0.00000000000E+00 0. -1.
         -1   -1    0    0    0  501 -0.00000000000E+00 -0.00000000000E+00 -0.51059179333E+03  0.51059179333E+03  0.00000000000E+00 0.  1.
    9900016    2    1    2    0    0  0.14186348142E+03  0.62717230246E+02 -0.85765060296E+01  0.72530492851E+03  0.70847370067E+03 0.  0.
         23    2    3    3    0    0  0.52352270705E+02  0.24711198160E+03 -0.24771781975E+03  0.36542104129E+03  0.91451230150E+02 0.  0.
        -15    1    4    4    0    0  0.31052993960E+02  0.36708375669E+02 -0.88460735951E+02  0.10068314200E+03  0.00000000000E+00 0. -1.
        -15    1    3    3    0    0 -0.39024777319E+01  0.12387394369E+02  0.14384107610E+02  0.19379871605E+02  0.00000000000E+00 0.  1.
         15    1    4    4    0    0  0.21299276745E+02  0.21040360593E+03 -0.15925708380E+03  0.26473789929E+03  0.00000000000E+00 0.  1.
         15    1    3    3    0    0  0.32938214939E+02 -0.25369767907E+02 -0.10813407414E+02  0.42959060825E+02  0.00000000000E+00 0. -1.
        -16    1    3    3    0    0  0.60475473506E+02 -0.17141237782E+03  0.23557061353E+03  0.29754495479E+03  0.00000000000E+00 0.  1.
         16    1    1    2    0    0 -0.20099540630E+03  0.22171210575E+02  0.26696986296E+03  0.33490838100E+03  0.00000000000E+00 0. -1.
    9900018    1    1    2    0    0  0.59131924881E+02 -0.84888440821E+02 -0.66334134561E+02  0.15302949953E+03  0.91187600000E+02 0.  0.
<mgrwt>
<rscale>  0 0.11979446E+04</rscale>
<asrwt>0</asrwt>
<pdfrwt beam="1">  1        1 0.10810016E+00 0.11979446E+04</pdfrwt>
<pdfrwt beam="2">  1       -1 0.78552583E-01 0.11979446E+04</pdfrwt>
<totfact> 0.43502878E+01</totfact>
</mgrwt>
</event>
<event>
11    1  0.7140415E-013  0.2018968E+04  0.7818608E-02  0.9482390E-01
          1   -1    0    0  501    0  0.00000000000E+00  0.00000000000E+00  0.67203698535E+03  0.67203698535E+03  0.00000000000E+00 0. -1.
         -1   -1    0    0    0  501 -0.00000000000E+00 -0.00000000000E+00 -0.16259427585E+04  0.16259427585E+04  0.00000000000E+00 0.  1.
    9900016    2    1    2    0    0  0.31642161844E+03 -0.49743920845E+03 -0.49865377879E+03  0.10337983468E+04  0.68739728258E+03 0.  0.
         23    2    3    3    0    0  0.10614895198E+03  0.12083911115E+03  0.39592727441E+02  0.18751708377E+03  0.87894151378E+02 0.  0.
        -15    1    4    4    0    0 -0.14410910465E+02  0.20257572096E+02 -0.24421411855E+01  0.24980144539E+02  0.00000000000E+00 0.  1.
        -15    1    1    2    0    0  0.35120789494E+01  0.12031295308E+02 -0.12613797510E+02  0.17781863034E+02  0.00000000000E+00 0. -1.
         15    1    4    4    0    0  0.12055986245E+03  0.10058153906E+03  0.42034868627E+02  0.16253693923E+03  0.00000000000E+00 0. -1.
         15    1    1    2    0    0  0.30015021102E+02 -0.34690652291E+02  0.12103079881E+02  0.47442885565E+02  0.00000000000E+00 0.  1.
        -16    1    1    2    0    0 -0.21378416411E+03  0.24373665030E+03 -0.71526284319E+03  0.78531023066E+03  0.00000000000E+00 0.  1.
         16    1    3    3    0    0  0.21027266646E+03 -0.61827831961E+03 -0.53824650623E+03  0.84628126307E+03  0.00000000000E+00 0. -1.
    9900018    1    1    2    0    0 -0.13616455438E+03  0.27636191514E+03  0.26052156641E+03  0.41364641781E+03  0.91187600000E+02 0.  0.
<mgrwt>
<rscale>  0 0.85594703E+03</rscale>
<asrwt>0</asrwt>
<pdfrwt beam="1">  1        1 0.10339031E+00 0.20189682E+04</pdfrwt>
<pdfrwt beam="2">  1       -1 0.25014504E+00 0.20189682E+04</pdfrwt>
<totfact> 0.18632348E+00</totfact>
</mgrwt>
</event>
<event>
11    1  0.7140415E-013  0.1236209E+04  0.7818608E-02  0.9081740E-01
         -2   -1    0    0    0  501 -0.00000000000E+00  0.00000000000E+00  0.47513598244E+03  0.47513598244E+03  0.00000000000E+00 0.  1.
          2   -1    0    0  501    0  0.00000000000E+00 -0.00000000000E+00 -0.80409232668E+03  0.80409232668E+03  0.00000000000E+00 0. -1.
    9900016    2    1    2    0    0 -0.73967029120E+02  0.86442383621E+02 -0.23032994700E+03  0.75774489053E+03  0.71286887122E+03 0.  0.
         23    2    3    3    0    0 -0.32084911063E+03  0.17023627031E+03 -0.10112180692E+03  0.38741626194E+03  0.89113414591E+02 0.  0.
        -15    1    3    3    0    0 -0.21501131115E+02  0.27926390293E+02  0.68836331420E+01  0.35910532150E+02  0.00000000000E+00 0.  1.
        -15    1    4    4    0    0 -0.19235240604E+03  0.52893588519E+02 -0.63793924738E+02  0.20944413253E+03  0.00000000000E+00 0. -1.
         15    1    4    4    0    0 -0.12849670459E+03  0.11734268179E+03 -0.37327882182E+02  0.17797212941E+03  0.00000000000E+00 0.  1.
         15    1    3    3    0    0 -0.35779648918E+01 -0.13887918817E+02 -0.15866645612E+02  0.21387532930E+02  0.00000000000E+00 0. -1.
        -16    1    3    3    0    0  0.27196117752E+03 -0.97832358165E+02 -0.12022512761E+03  0.31303056351E+03  0.00000000000E+00 0.  1.
         16    1    1    2    0    0 -0.17161003137E+02 -0.54817863465E+02 -0.28608086786E+03  0.29179061181E+03  0.00000000000E+00 0. -1.
    9900018    1    1    2    0    0  0.91128032257E+02 -0.31624520155E+02  0.18745447062E+03  0.22969280678E+03  0.91187600000E+02 0.  0.
<mgrwt>
<rscale>  0 0.12362090E+04</rscale>
<asrwt>0</asrwt>
<pdfrwt beam="1">  1        2 0.12370651E+00 0.12362090E+04</pdfrwt>
<pdfrwt beam="2">  1       -2 0.73097844E-01 0.12362090E+04</pdfrwt>
<totfact> 0.56950137E+01</totfact>
</mgrwt>
</event>
<event>
11    1  0.7140415E-013  0.1186492E+04  0.7818608E-02  0.9124763E-01
         -1   -1    0    0    0  501 -0.00000000000E+00  0.00000000000E+00  0.26509116588E+03  0.26509116588E+03  0.00000000000E+00 0.  1.
          1   -1    0    0  501    0  0.00000000000E+00 -0.00000000000E+00 -0.13276212023E+04  0.13276212023E+04  0.00000000000E+00 0. -1.
    9900016    2    1    2    0    0 -0.19725351735E+03 -0.15698678925E+03 -0.84950014577E+03  0.11352239661E+04  0.70959788153E+03 0.  0.
         23    2    3    3    0    0 -0.11962836333E+03 -0.41082090549E+03 -0.53697056038E+03  0.69313167303E+03  0.94917710429E+02 0.  0.
        -15    1    4    4    0    0 -0.56088312353E+02 -0.61742556036E+02 -0.97883864117E+02  0.12860518210E+03  0.00000000000E+00 0.  1.
        -15    1    3    3    0    0 -0.36610835559E+02 -0.12837182969E+02 -0.47951305458E+02  0.61680420248E+02  0.00000000000E+00 0.  1.
         15    1    4    4    0    0 -0.63540050977E+02 -0.34907834945E+03 -0.43908669626E+03  0.56452649093E+03  0.00000000000E+00 0. -1.
         15    1    3    3    0    0  0.51990973226E+01  0.19957023234E+02 -0.10066589724E+02  0.22948847858E+02  0.00000000000E+00 0. -1.
        -16    1    1    2    0    0  0.14992934090E+03  0.23287723295E+03 -0.13961344926E+03  0.31016532383E+03  0.00000000000E+00 0.  1.
         16    1    3    3    0    0 -0.46213415787E+02  0.24671427597E+03 -0.25451169021E+03  0.35746302497E+03  0.00000000000E+00 0. -1.
    9900018    1    1    2    0    0  0.47324176452E+02 -0.75890443704E+02 -0.73416441408E+02  0.14732307825E+03  0.91187600000E+02 0.  0.
<mgrwt>
<rscale>  0 0.11864917E+04</rscale>
<asrwt>0</asrwt>
<pdfrwt beam="1">  1        1 0.20424942E+00 0.11864917E+04</pdfrwt>
<pdfrwt beam="2">  1       -1 0.40783256E-01 0.11864917E+04</pdfrwt>
<totfact> 0.50312420E+01</totfact>
</mgrwt>
</event>
<event>
11    1  0.7140415E-013  0.1373074E+04  0.7818608E-02  0.8973543E-01
          1   -1    0    0  501    0  0.00000000000E+00  0.00000000000E+00  0.39719629897E+03  0.39719629897E+03  0.00000000000E+00 0. -1.
         -1   -1    0    0    0  501 -0.00000000000E+00 -0.00000000000E+00 -0.11866502764E+04  0.11866502764E+04  0.00000000000E+00 0.  1.
    9900016    2    1    2    0    0  0.14568385891E+03  0.31042013813E+03 -0.36738322593E+03  0.89702302360E+03  0.74303123842E+03 0.  0.
         23    2    3    3    0    0  0.26484182130E+03 -0.87297821107E+02 -0.28201473825E+03  0.40722808237E+03  0.92413736003E+02 0.  0.
        -15    1    3    3    0    0  0.31717578012E+02  0.21488454259E+02 -0.46038532836E+02  0.59894114294E+02  0.00000000000E+00 0. -1.
        -15    1    4    4    0    0  0.10819776118E+03 -0.75148122798E+02 -0.16601263226E+03  0.21192968162E+03  0.00000000000E+00 0. -1.
         15    1    4    4    0    0  0.15664406012E+03 -0.12149698309E+02 -0.11600210599E+03  0.19529840074E+03  0.00000000000E+00 0.  1.
         15    1    3    3    0    0  0.81702347436E+01  0.66341985492E+02 -0.46638480330E+02  0.81505580314E+02  0.00000000000E+00 0.  1.
        -16    1    1    2    0    0  0.13751613053E+03 -0.49637376226E+02 -0.11384370689E+03  0.18529691005E+03  0.00000000000E+00 0.  1.
         16    1    3    3    0    0 -0.15904577515E+03  0.30988751948E+03  0.73085254790E+01  0.34839524662E+03  0.00000000000E+00 0. -1.
    9900018    1    1    2    0    0 -0.28319998943E+03 -0.26078276190E+03 -0.30822704456E+03  0.50152664168E+03  0.91187600000E+02 0.  0.
<mgrwt>
<rscale>  0 0.13730741E+04</rscale>
<asrwt>0</asrwt>
<pdfrwt beam="1">  1        1 0.61107123E-01 0.13730741E+04</pdfrwt>
<pdfrwt beam="2">  1       -1 0.18256158E+00 0.13730741E+04</pdfrwt>
<totfact> 0.11803861E+01</totfact>
</mgrwt>
</event>
<event>
11    1  0.7140415E-013  0.1549997E+04  0.7818608E-02  0.8851870E-01
         -2   -1    0    0    0  501 -0.00000000000E+00  0.00000000000E+00  0.30053984545E+03  0.30053984545E+03  0.00000000000E+00 0.  1.
          2   -1    0    0  501    0  0.00000000000E+00 -0.00000000000E+00 -0.19984782914E+04  0.19984782914E+04  0.00000000000E+00 0. -1.
    9900016    2    1    2    0    0 -0.19662554908E+03  0.25956651346E+03 -0.72438854734E+03  0.10645062372E+04  0.70880066314E+03 0.  0.
         23    2    3    3    0    0 -0.35672799680E+03  0.99838075032E+02 -0.58969370110E+03  0.70252039346E+03  0.92594477077E+02 0.  0.
        -15    1    3    3    0    0 -0.28376752045E+02  0.25628812909E+02 -0.37902793165E+02  0.53839556438E+02  0.00000000000E+00 0.  1.
        -15    1    4    4    0    0 -0.67373190692E+02  0.13853956568E+02 -0.53279060524E+02  0.87004236834E+02  0.00000000000E+00 0. -1.
         15    1    4    4    0    0 -0.28935480611E+03  0.85984118463E+02 -0.53641464058E+03  0.61551615663E+03  0.00000000000E+00 0.  1.
         15    1    3    3    0    0 -0.87972157426E+01 -0.15513088583E+02 -0.54018709220E+02  0.56886447139E+02  0.00000000000E+00 0. -1.
        -16    1    1    2    0    0  0.17220066095E+03 -0.30947177189E+03 -0.11944100954E+03  0.37375392973E+03  0.00000000000E+00 0.  1.
         16    1    3    3    0    0  0.19727641550E+03  0.14961271410E+03 -0.42773343853E+02  0.25125984016E+03  0.00000000000E+00 0. -1.
    9900018    1    1    2    0    0  0.24424888135E+02  0.49905258435E+02 -0.85410888912E+03  0.86075796996E+03  0.91187600000E+02 0.  0.
<mgrwt>
<rscale>  0 0.15499966E+04</rscale>
<asrwt>0</asrwt>
<pdfrwt beam="1">  1        2 0.30745821E+00 0.15499966E+04</pdfrwt>
<pdfrwt beam="2">  1       -2 0.46236898E-01 0.15499966E+04</pdfrwt>
<totfact> 0.28586213E+01</totfact>
</mgrwt>
</event>
<event>
12    1  0.7140415E-013  0.2540782E+04  0.7818608E-02  0.8388599E-01
          2   -1    0    0  501    0  0.00000000000E+00  0.00000000000E+00  0.12147386755E+04  0.12147386755E+04  0.00000000000E+00 0. -1.
         -2   -1    0    0    0  501 -0.00000000000E+00 -0.00000000000E+00 -0.13285926602E+04  0.13285926602E+04  0.00000000000E+00 0.  1.
    9900016    2    1    2    0    0  0.79961875624E+03 -0.37459149189E+03 -0.80820640913E+03  0.14036044463E+04  0.73293853817E+03 0.  0.
         23    2    3    3    0    0  0.87736664925E+02 -0.77075511528E+01 -0.52208095986E+02  0.12409390125E+03  0.70117632048E+02 0.  0.
         23    2    3    3    0    0  0.44419061790E+02 -0.16328152606E+03  0.63801838783E+02  0.20292653616E+03  0.92057561594E+02 0.  0.
        -15    1    5    5    0    0 -0.27481153178E+02 -0.44503386900E+02  0.28919032124E+02  0.59766844024E+02  0.00000000000E+00 0. -1.
        -15    1    4    4    0    0  0.29990393581E+02 -0.28508792256E+02 -0.46812498755E+02  0.62478676224E+02  0.00000000000E+00 0.  1.
         15    1    5    5    0    0  0.71900214968E+02 -0.11877813915E+03  0.34882806659E+02  0.14315969214E+03  0.00000000000E+00 0.  1.
         15    1    4    4    0    0  0.57746271343E+02  0.20801241103E+02 -0.53955972312E+01  0.61615225026E+02  0.00000000000E+00 0. -1.
        -16    1    3    3    0    0  0.66746302952E+03 -0.20360241469E+03 -0.81980015192E+03  0.10765840089E+04  0.00000000000E+00 0.  1.
         16    1    1    2    0    0 -0.50242253125E+03  0.22335518509E+03  0.49974895143E+03  0.74301073550E+03  0.00000000000E+00 0. -1.
    9900018    1    1    2    0    0 -0.29719622499E+03  0.15123630681E+03  0.19460347298E+03  0.39671615386E+03  0.91187600000E+02 0.  0.
<mgrwt>
<rscale>  0 0.25407817E+04</rscale>
<asrwt>0</asrwt>
<pdfrwt beam="1">  1        2 0.18688287E+00 0.25407817E+04</pdfrwt>
<pdfrwt beam="2">  1       -2 0.20439887E+00 0.25407817E+04</pdfrwt>
<totfact> 0.20536105E+00</totfact>
</mgrwt>
</event>
<event>
12    1  0.7140415E-013  0.1384194E+04  0.7818608E-02  0.8965340E-01
          1   -1    0    0  501    0  0.00000000000E+00  0.00000000000E+00  0.99127222327E+03  0.99127222327E+03  0.00000000000E+00 0. -1.
         -1   -1    0    0    0  501 -0.00000000000E+00 -0.00000000000E+00 -0.48321566423E+03  0.48321566423E+03  0.00000000000E+00 0.  1.
    9900016    2    1    2    0    0  0.32411543827E+03 -0.21079952704E+03  0.53832027461E+02  0.83618403220E+03  0.73947183219E+03 0.  0.
         23    2    3    3    0    0  0.29714265385E+02 -0.17304449856E+02 -0.18411342641E+02  0.73687442241E+02  0.62517837887E+02 0.  0.
         23    2    3    3    0    0  0.95978576998E+02  0.20559971148E+03  0.18146896005E+03  0.30360836130E+03  0.88113137428E+02 0.  0.
        -15    1    4    4    0    0  0.43455330938E+02 -0.15774338620E+02 -0.30448135713E+02  0.55355979932E+02  0.00000000000E+00 0.  1.
        -15    1    5    5    0    0  0.89831510201E+02  0.18875968508E+03  0.12320926040E+03  0.24265292247E+03  0.00000000000E+00 0. -1.
         15    1    5    5    0    0  0.61470667974E+01  0.16840026404E+02  0.58259699655E+02  0.60955438833E+02  0.00000000000E+00 0. -1.
         15    1    4    4    0    0 -0.13741065553E+02 -0.15301112357E+01  0.12036793072E+02  0.18331462309E+02  0.00000000000E+00 0.  1.
        -16    1    1    2    0    0 -0.17584919002E+03  0.17812890190E+03  0.16711592283E+03  0.30096606949E+03  0.00000000000E+00 0.  1.
         16    1    3    3    0    0  0.19842259589E+03 -0.39909478866E+03 -0.10922558995E+03  0.45888822866E+03  0.00000000000E+00 0. -1.
    9900018    1    1    2    0    0 -0.14826624826E+03  0.32670625131E+02  0.28710860875E+03  0.33733778580E+03  0.91187600000E+02 0.  0.
<mgrwt>
<rscale>  0 0.13841940E+04</rscale>
<asrwt>0</asrwt>
<pdfrwt beam="1">  1        1 0.15250342E+00 0.13841940E+04</pdfrwt>
<pdfrwt beam="2">  1       -1 0.74340872E-01 0.13841940E+04</pdfrwt>
<totfact> 0.27336085E+01</totfact>
</mgrwt>
</event>
<event>
12    1  0.7140415E-013  0.2864965E+04  0.7818608E-02  0.8959772E-01
          2   -1    0    0  501    0  0.00000000000E+00  0.00000000000E+00  0.28403723889E+04  0.28403723889E+04  0.00000000000E+00 0. -1.
         -2   -1    0    0    0  501 -0.00000000000E+00 -0.00000000000E+00 -0.80939885951E+03  0.80939885951E+03  0.00000000000E+00 0.  1.
         23    2    1    2    0    0 -0.42960044373E+02 -0.13962462778E+03  0.17156952248E+03  0.23430559366E+03  0.64205981640E+02 0.  0.
    9900016    2    1    2    0    0 -0.37117334428E+03 -0.87344802312E+03  0.14270594827E+04  0.18456816119E+04  0.68509907672E+03 0.  0.
         23    2    4    4    0    0 -0.30448280762E+03 -0.33974144980E+03  0.11503048355E+04  0.12407985911E+04  0.90806918116E+02 0.  0.
        -15    1    5    5    0    0 -0.79825411110E+02 -0.98964736558E+02  0.43749987798E+03  0.45560098614E+03  0.00000000000E+00 0. -1.
        -15    1    3    3    0    0  0.12402762784E+02 -0.33664853178E+02  0.64553581557E+02  0.73853339504E+02  0.00000000000E+00 0. -1.
         15    1    3    3    0    0 -0.55362807157E+02 -0.10595977461E+03  0.10701594093E+03  0.16045225415E+03  0.00000000000E+00 0.  1.
         15    1    5    5    0    0 -0.22465739651E+03 -0.24077671324E+03  0.71280495752E+03  0.78519760501E+03  0.00000000000E+00 0.  1.
        -16    1    1    2    0    0  0.34346751686E+03  0.12199608336E+04  0.31760057255E+03  0.13065773970E+04  0.00000000000E+00 0.  1.
         16    1    4    4    0    0 -0.66690536658E+02 -0.53370657332E+03  0.27675464716E+03  0.60488302076E+03  0.00000000000E+00 0. -1.
    9900018    1    1    2    0    0  0.70665871793E+02 -0.20688818268E+03  0.11474395166E+03  0.26320664582E+03  0.91187600000E+02 0.  0.
<mgrwt>
<rscale>  0 0.13918043E+04</rscale>
<asrwt>0</asrwt>
<pdfrwt beam="1">  1        2 0.43698036E+00 0.28649646E+04</pdfrwt>
<pdfrwt beam="2">  1       -2 0.12452290E+00 0.28649646E+04</pdfrwt>
<totfact> 0.91053973E-01</totfact>
</mgrwt>
</event>
<event>
12    1  0.7140415E-013  0.1570112E+04  0.7818608E-02  0.9630737E-01
          1   -1    0    0  501    0  0.00000000000E+00  0.00000000000E+00  0.82453343995E+03  0.82453343995E+03  0.00000000000E+00 0. -1.
         -1   -1    0    0    0  501 -0.00000000000E+00 -0.00000000000E+00 -0.82945577668E+03  0.82945577668E+03  0.00000000000E+00 0.  1.
         23    2    1    2    0    0  0.10648845432E+01 -0.32718928443E+02  0.11243870863E+02  0.83794138782E+02  0.76311013652E+02 0.  0.
    9900016    2    1    2    0    0 -0.50958718644E+02 -0.14274515779E+03 -0.13450107208E+03  0.69986998641E+03  0.66989140046E+03 0.  0.
         23    2    4    4    0    0  0.29013813249E+03 -0.69208843575E+02 -0.15948949176E+03  0.35004278266E+03  0.90127974334E+02 0.  0.
        -15    1    5    5    0    0  0.12854829714E+03 -0.68126282816E+02 -0.46021434700E+02  0.15259039144E+03  0.00000000000E+00 0. -1.
        -15    1    3    3    0    0 -0.25979964629E+02 -0.24476273134E+02 -0.20598723648E+02  0.41211089825E+02  0.00000000000E+00 0. -1.
         15    1    3    3    0    0  0.27044849172E+02 -0.82426553090E+01  0.31842594510E+02  0.42583048956E+02  0.00000000000E+00 0.  1.
         15    1    5    5    0    0  0.16158983535E+03 -0.10825607589E+01 -0.11346805706E+03  0.19745239122E+03  0.00000000000E+00 0.  1.
        -16    1    4    4    0    0 -0.34109685114E+03 -0.73536314214E+02  0.24988419674E+02  0.34982720375E+03  0.00000000000E+00 0.  1.
         16    1    1    2    0    0  0.32785483491E+03 -0.15659621526E+02  0.32700841971E+03  0.46332334614E+03  0.00000000000E+00 0. -1.
    9900018    1    1    2    0    0 -0.27796100081E+03  0.19112370776E+03 -0.20867355521E+03  0.40700174530E+03  0.91187600000E+02 0.  0.
<mgrwt>
<rscale>  0 0.75294801E+03</rscale>
<asrwt>0</asrwt>
<pdfrwt beam="1">  1        1 0.12685130E+00 0.15701119E+04</pdfrwt>
<pdfrwt beam="2">  1       -1 0.12760858E+00 0.15701119E+04</pdfrwt>
<totfact> 0.10742876E+01</totfact>
</mgrwt>
</event>
<event>
11    1  0.7140415E-013  0.1523256E+04  0.7818608E-02  0.8869134E-01
          2   -1    0    0  501    0  0.00000000000E+00  0.00000000000E+00  0.67227595666E+03  0.67227595666E+03  0.00000000000E+00 0.  1.
         -2   -1    0    0    0  501 -0.00000000000E+00 -0.00000000000E+00 -0.86285529786E+03  0.86285529786E+03  0.00000000000E+00 0. -1.
    9900016    2    1    2    0    0 -0.75065548152E+02 -0.60930919831E+02 -0.47691801534E+03  0.87437363162E+03  0.72645098996E+03 0.  0.
         23    2    3    3    0    0 -0.85673130562E+02 -0.19080974955E+03  0.98750127078E+02  0.24882155344E+03  0.91718765994E+02 0.  0.
        -15    1    3    3    0    0  0.40560595114E+01 -0.28710047586E+02 -0.15504292628E+02  0.32880108592E+02  0.00000000000E+00 0. -1.
        -15    1    4    4    0    0 -0.25314547295E+02 -0.12240429476E+03  0.95907675208E+02  0.15754973769E+03  0.00000000000E+00 0.  1.
         15    1    4    4    0    0 -0.60358583267E+02 -0.68405454788E+02  0.28424518694E+01  0.91271815756E+02  0.00000000000E+00 0. -1.
         15    1    3    3    0    0 -0.21414205939E+02  0.88788123972E+01 -0.17511440750E+02  0.29052574459E+02  0.00000000000E+00 0.  1.
        -16    1    3    3    0    0  0.27965728838E+02  0.14971006491E+03 -0.54265240904E+03  0.56361939513E+03  0.00000000000E+00 0.  1.
         16    1    1    2    0    0 -0.15098615253E+03  0.19235748179E+03  0.29565028925E+03  0.38367605162E+03  0.00000000000E+00 0. -1.
    9900018    1    1    2    0    0  0.22605170069E+03 -0.13142656196E+03 -0.93116151062E+01  0.27708157128E+03  0.91187600000E+02 0.  0.
<mgrwt>
<rscale>  0 0.15232556E+04</rscale>
<asrwt>0</asrwt>
<pdfrwt beam="1">  1        2 0.10342707E+00 0.15232556E+04</pdfrwt>
<pdfrwt beam="2">  1       -2 0.13274697E+00 0.15232556E+04</pdfrwt>
<totfact> 0.17119145E+01</totfact>
</mgrwt>
</event>
<event>
12    1  0.7140415E-013  0.2351389E+04  0.7818608E-02  0.8457930E-01
         -1   -1    0    0    0  501 -0.00000000000E+00  0.00000000000E+00  0.94909043743E+03  0.94909043743E+03  0.00000000000E+00 0.  1.
          1   -1    0    0  501    0  0.00000000000E+00 -0.00000000000E+00 -0.14564024592E+04  0.14564024592E+04  0.00000000000E+00 0. -1.
    9900016    2    1    2    0    0 -0.15702135886E+03  0.98575261292E+02 -0.29382642647E+03  0.81174105143E+03  0.73363258952E+03 0.  0.
         23    2    3    3    0    0 -0.47687009084E+01  0.41692948186E+02  0.27023178149E+01  0.79925361603E+02  0.67968510864E+02 0.  0.
         23    2    3    3    0    0 -0.17568449950E+03  0.30746699409E+03 -0.37080113268E+02  0.37035293147E+03  0.10190860233E+03 0.  0.
        -15    1    5    5    0    0 -0.64095522860E+02  0.38900017737E+02 -0.25856231835E+02  0.79309470780E+02  0.00000000000E+00 0.  1.
        -15    1    4    4    0    0 -0.16376473544E+02  0.45099160183E+02  0.25337983351E+02  0.54259898039E+02  0.00000000000E+00 0.  1.
         15    1    5    5    0    0 -0.11158897664E+03  0.26856697635E+03 -0.11223881433E+02  0.29104346069E+03  0.00000000000E+00 0. -1.
         15    1    4    4    0    0  0.11607772636E+02 -0.34062119967E+01 -0.22635665536E+02  0.25665463564E+02  0.00000000000E+00 0. -1.
        -16    1    3    3    0    0  0.23431841547E+02 -0.25058468099E+03 -0.25944863102E+03  0.36146275836E+03  0.00000000000E+00 0.  1.
         16    1    1    2    0    0  0.74244232264E+03 -0.35957176593E+03 -0.40446522469E+03  0.91875163961E+03  0.00000000000E+00 0. -1.
    9900018    1    1    2    0    0 -0.58542096378E+03  0.26099650464E+03  0.19097962941E+03  0.67500020556E+03  0.91187600000E+02 0.  0.
<mgrwt>
<rscale>  0 0.23513891E+04</rscale>
<asrwt>0</asrwt>
<pdfrwt beam="1">  1        1 0.22406192E+00 0.23513891E+04</pdfrwt>
<pdfrwt beam="2">  1       -1 0.14601391E+00 0.23513891E+04</pdfrwt>
<totfact> 0.23676843E+00</totfact>
</mgrwt>
</event>
<event>
12    1  0.7140415E-013  0.1809603E+04  0.7818608E-02  0.9352282E-01
          2   -1    0    0  501    0  0.00000000000E+00  0.00000000000E+00  0.25340645751E+04  0.25340645751E+04  0.00000000000E+00 0. -1.
         -2   -1    0    0    0  501 -0.00000000000E+00 -0.00000000000E+00 -0.37730357516E+03  0.37730357516E+03  0.00000000000E+00 0.  1.
         23    2    1    2    0    0  0.11137131691E+03 -0.49886895743E+02  0.12607988754E+03  0.19138103019E+03  0.76408691097E+02 0.  0.
    9900016    2    1    2    0    0  0.25764304356E+03 -0.51539329044E+03  0.12001257371E+04  0.14834744403E+04  0.65451084677E+03 0.  0.
         23    2    4    4    0    0  0.10064839397E+03  0.13763087707E+03  0.35211246110E+03  0.40170995596E+03  0.91188518622E+02 0.  0.
        -15    1    5    5    0    0  0.23671569216E+00  0.34127773305E+02  0.19797576733E+02  0.39455100933E+02  0.00000000000E+00 0. -1.
        -15    1    3    3    0    0  0.42966945533E+02  0.48149312648E+01  0.83417666318E+02  0.93956633749E+02  0.00000000000E+00 0. -1.
         15    1    5    5    0    0  0.10041167828E+03  0.10350310377E+03  0.33231488436E+03  0.36225485503E+03  0.00000000000E+00 0.  1.
         15    1    3    3    0    0  0.68404371376E+02 -0.54701827008E+02  0.42662221227E+02  0.97424396438E+02  0.00000000000E+00 0.  1.
        -16    1    1    2    0    0 -0.52934850696E+03  0.36054518740E+03  0.58279894322E+03  0.86594300170E+03  0.00000000000E+00 0.  1.
         16    1    4    4    0    0  0.15699464959E+03 -0.65302416751E+03  0.84801327598E+03  0.10817644843E+04  0.00000000000E+00 0. -1.
    9900018    1    1    2    0    0  0.16033414649E+03  0.20473499879E+03  0.24775643209E+03  0.37056967805E+03  0.91187600000E+02 0.  0.
<mgrwt>
<rscale>  0 0.96108969E+03</rscale>
<asrwt>0</asrwt>
<pdfrwt beam="1">  1        2 0.38985608E+00 0.18096033E+04</pdfrwt>
<pdfrwt beam="2">  1       -2 0.58046706E-01 0.18096033E+04</pdfrwt>
<totfact> 0.86994024E+00</totfact>
</mgrwt>
</event>
<event>
12    1  0.7140415E-013  0.2070725E+04  0.7818608E-02  0.8574250E-01
         -1   -1    0    0    0  501 -0.00000000000E+00  0.00000000000E+00  0.61651226498E+03  0.61651226498E+03  0.00000000000E+00 0.  1.
          1   -1    0    0  501    0  0.00000000000E+00 -0.00000000000E+00 -0.17387736155E+04  0.17387736155E+04  0.00000000000E+00 0. -1.
    9900016    2    1    2    0    0 -0.83016705886E+03 -0.56933007282E+02 -0.77097448124E+03  0.13637822874E+04  0.75702164029E+03 0.  0.
         23    2    3    3    0    0 -0.14642999670E+02  0.87984328065E+01 -0.39357679541E+02  0.84498156424E+02  0.72794791305E+02 0.  0.
         23    2    3    3    0    0 -0.30500494777E+03 -0.16265432656E+03 -0.66556235421E+03  0.75546450645E+03  0.90933629919E+02 0.  0.
        -15    1    4    4    0    0 -0.25690087790E+02  0.23337180201E+02 -0.51835687838E+02  0.62382234042E+02  0.00000000000E+00 0.  1.
        -15    1    5    5    0    0 -0.13188832355E+03 -0.36200386223E+02 -0.33058417507E+03  0.35775815107E+03  0.00000000000E+00 0. -1.
         15    1    5    5    0    0 -0.17311662422E+03 -0.12645394034E+03 -0.33497817914E+03  0.39770635538E+03  0.00000000000E+00 0.  1.
         15    1    4    4    0    0  0.11047088120E+02 -0.14538747395E+02  0.12478008297E+02  0.22115922382E+02  0.00000000000E+00 0. -1.
        -16    1    1    2    0    0  0.18084202997E+03 -0.33518311041E+02 -0.26705182063E+03  0.32425914309E+03  0.00000000000E+00 0.  1.
         16    1    3    3    0    0 -0.51051911142E+03  0.96922886471E+02 -0.66054447492E+02  0.52381962457E+03  0.00000000000E+00 0. -1.
    9900018    1    1    2    0    0  0.64932502889E+03  0.90451318322E+02 -0.84235048617E+02  0.66724444991E+03  0.91187600000E+02 0.  0.
<mgrwt>
<rscale>  0 0.20707248E+04</rscale>
<asrwt>0</asrwt>
<pdfrwt beam="1">  1        1 0.26750363E+00 0.20707248E+04</pdfrwt>
<pdfrwt beam="2">  1       -1 0.94848041E-01 0.20707248E+04</pdfrwt>
<totfact> 0.44426990E+00</totfact>
</mgrwt>
</event>
<event>
11    1  0.7140415E-013  0.1585847E+04  0.7818608E-02  0.8829290E-01
          1   -1    0    0  501    0  0.00000000000E+00  0.00000000000E+00  0.35593264539E+03  0.35593264539E+03  0.00000000000E+00 0. -1.
         -1   -1    0    0    0  501 -0.00000000000E+00 -0.00000000000E+00 -0.17664241010E+04  0.17664241010E+04  0.00000000000E+00 0.  1.
    9900016    2    1    2    0    0  0.16358012102E+03 -0.14600891570E+03 -0.63663226126E+03  0.10001109959E+04  0.73948922142E+03 0.  0.
         23    2    3    3    0    0  0.37598775039E+03  0.90101856290E+02 -0.37642075535E+03  0.54814535611E+03  0.96361887783E+02 0.  0.
        -15    1    3    3    0    0  0.10417905294E+01 -0.47130210000E+02 -0.33574685644E+02  0.57875742227E+02  0.00000000000E+00 0. -1.
        -15    1    4    4    0    0  0.25311747181E+03  0.20667658198E+02 -0.27516108850E+03  0.37444523131E+03  0.00000000000E+00 0. -1.
         15    1    4    4    0    0  0.12287027859E+03  0.69434198092E+02 -0.10125966685E+03  0.17370012480E+03  0.00000000000E+00 0.  1.
         15    1    3    3    0    0  0.18751450150E+02 -0.73750509747E+00 -0.32908152306E+02  0.37882809884E+02  0.00000000000E+00 0.  1.
        -16    1    3    3    0    0 -0.23220087005E+03 -0.18824305690E+03 -0.19372866796E+03  0.35620708768E+03  0.00000000000E+00 0.  1.
         16    1    1    2    0    0 -0.23226034040E+03 -0.13866143467E+03  0.19957236061E+02  0.27123818031E+03  0.00000000000E+00 0. -1.
    9900018    1    1    2    0    0  0.68680219377E+02  0.28467035038E+03 -0.79381643040E+03  0.85100757017E+03  0.91187600000E+02 0.  0.
<mgrwt>
<rscale>  0 0.15858474E+04</rscale>
<asrwt>0</asrwt>
<pdfrwt beam="1">  1        1 0.54758868E-01 0.15858474E+04</pdfrwt>
<pdfrwt beam="2">  1       -1 0.27175756E+00 0.15858474E+04</pdfrwt>
<totfact> 0.33902824E+00</totfact>
</mgrwt>
</event>
