<event>
11    1  0.2394516E-013  0.3234524E+04  0.7818608E-02  0.8475683E-01
         -1   -1    0    0    0  501 -0.00000000000E+00  0.00000000000E+00  0.14458820008E+04  0.14458820008E+04  0.00000000000E+00 0.  1.
          1   -1    0    0  501    0  0.00000000000E+00 -0.00000000000E+00 -0.29285513102E+04  0.29285513102E+04  0.00000000000E+00 0. -1.
    9900016    2    1    2    0    0 -0.43027316089E+03 -0.70598103223E+03 -0.82945816760E+03  0.24963613802E+04  0.22046031565E+04 0.  0.
        -24    2    3    3    0    0  0.39012781968E+03 -0.22165000611E+03 -0.55317520384E+03  0.71868423210E+03  0.95790283598E+02 0.  0.
        -15    1    1    2    0    0 -0.93125444451E+02  0.28737336578E+03  0.26542436988E+03  0.40212671621E+03  0.00000000000E+00 0.  1.
        -15    1    3    3    0    0 -0.64942240161E+03  0.10500769359E+03  0.46904220726E+03  0.80794595340E+03  0.00000000000E+00 0.  1.
         15    1    4    4    0    0  0.20327904076E+03 -0.16813113061E+03 -0.33721643851E+03  0.42814176612E+03  0.00000000000E+00 0. -1.
         15    1    1    2    0    0 -0.27244573468E+03  0.12400668497E+03 -0.31493609955E+03  0.43449865715E+03  0.00000000000E+00 0. -1.
        -16    1    4    4    0    0  0.18684877891E+03 -0.53518875504E+02 -0.21595876534E+03  0.29054246599E+03  0.00000000000E+00 0.  1.
         16    1    1    2    0    0  0.79584434001E+03  0.29460098148E+03 -0.60369941216E+03  0.10414465575E+04  0.00000000000E+00 0. -1.
    9900018    1    3    3    0    0 -0.17097857895E+03 -0.58933871971E+03 -0.74532517101E+03  0.96973119468E+03  0.91187600000E+02 0.  0.
<mgrwt>
<rscale>  0 0.23056855E+04</rscale>
<asrwt>0</asrwt>
<pdfrwt beam="1">  1        1 0.45054636E+00 0.32345238E+04</pdfrwt>
<pdfrwt beam="2">  1       -1 0.22244338E+00 0.32345238E+04</pdfrwt>
<totfact> 0.57947915E-02</totfact>
</mgrwt>
</event>
<event>
10    1  0.2394516E-013  0.3759367E+04  0.7818608E-02  0.8280492E-01
          2   -1    0    0  501    0  0.00000000000E+00  0.00000000000E+00  0.34076334291E+04  0.34076334291E+04  0.00000000000E+00 0.  1.
         -2   -1    0    0    0  501 -0.00000000000E+00 -0.00000000000E+00 -0.21579237485E+04  0.21579237485E+04  0.00000000000E+00 0. -1.
    9900016    2    1    2    0    0  0.50127973924E+02 -0.13413921953E+03  0.73089600527E+03  0.23199096952E+04  0.21971039755E+04 0.  0.
        -15    1    1    2    0    0  0.23822531135E+03  0.49786885940E+02  0.63479992909E+03  0.67985364818E+03  0.00000000000E+00 0.  1.
        -15    1    3    3    0    0 -0.25132809548E+03  0.78766855240E+03  0.38597593745E+03  0.91244999003E+03  0.00000000000E+00 0.  1.
         15    1    1    2    0    0  0.84349345533E+03 -0.39327193695E+03  0.63433267596E+03  0.11262868060E+04  0.00000000000E+00 0. -1.
         15    1    3    3    0    0 -0.37845690123E+02 -0.18417437775E+03  0.43403229441E+03  0.47300796005E+03  0.00000000000E+00 0. -1.
        -16    1    3    3    0    0 -0.21411916624E+01 -0.15775995445E+03  0.14685242610E+03  0.21554216057E+03  0.00000000000E+00 0.  1.
         16    1    1    2    0    0 -0.11318467406E+04  0.47762427055E+03 -0.75031892968E+03  0.14395070282E+04  0.00000000000E+00 0. -1.
    9900018    1    3    3    0    0  0.34144295119E+03 -0.57987343973E+03 -0.23596465270E+03  0.71890958454E+03  0.91187600000E+02 0.  0.
<mgrwt>
<rscale>  0 0.28745446E+04</rscale>
<asrwt>0</asrwt>
<pdfrwt beam="1">  1        2 0.52425130E+00 0.37593665E+04</pdfrwt>
<pdfrwt beam="2">  1       -2 0.33198827E+00 0.37593665E+04</pdfrwt>
<totfact> 0.14497187E-02</totfact>
</mgrwt>
</event>
<event>
11    1  0.2394516E-013  0.4770954E+04  0.7818608E-02  0.7864845E-01
          2   -1    0    0  501    0  0.00000000000E+00  0.00000000000E+00  0.23330711922E+04  0.23330711922E+04  0.00000000000E+00 0. -1.
         -2   -1    0    0    0  501 -0.00000000000E+00 -0.00000000000E+00 -0.24390595396E+04  0.24390595396E+04  0.00000000000E+00 0.  1.
    9900016    2    1    2    0    0 -0.89723963101E+02  0.51816276681E+03  0.21349003930E+03  0.22777824526E+04  0.22059401311E+04 0.  0.
        -24    2    3    3    0    0  0.82695165813E+03 -0.69501506242E+02  0.11363748590E+03  0.83906531588E+03  0.49372278214E+02 0.  0.
        -15    1    1    2    0    0  0.59323683521E+03 -0.64389337306E+03 -0.10109194851E+04  0.13373431960E+04  0.00000000000E+00 0.  1.
        -15    1    3    3    0    0  0.13678268691E+03  0.18009291940E+03 -0.15881604745E+03  0.27634308384E+03  0.00000000000E+00 0.  1.
         15    1    1    2    0    0  0.54830526543E+01  0.33569638965E+03  0.43531467845E+03  0.54974630437E+03  0.00000000000E+00 0. -1.
         15    1    4    4    0    0  0.36390024940E+03 -0.86348026175E+01  0.38648520627E+02  0.36604871189E+03  0.00000000000E+00 0. -1.
        -16    1    4    4    0    0  0.46305140874E+03 -0.60866703625E+02  0.74988965273E+02  0.47301660400E+03  0.00000000000E+00 0.  1.
         16    1    1    2    0    0 -0.50899592477E+03 -0.20996578340E+03  0.25612641989E+03  0.60725877894E+03  0.00000000000E+00 0. -1.
    9900018    1    3    3    0    0 -0.10534583081E+04  0.40757135365E+03  0.25866860085E+03  0.11623740529E+04  0.91187600000E+02 0.  0.
<mgrwt>
<rscale>  0 0.47709536E+04</rscale>
<asrwt>0</asrwt>
<pdfrwt beam="1">  1        2 0.35893403E+00 0.47709536E+04</pdfrwt>
<pdfrwt beam="2">  1       -2 0.37523993E+00 0.47709536E+04</pdfrwt>
<totfact> 0.34590667E-02</totfact>
</mgrwt>
</event>
<event>
11    1  0.2394516E-013  0.4075523E+04  0.7818608E-02  0.8209198E-01
         -2   -1    0    0    0  501 -0.00000000000E+00  0.00000000000E+00  0.33404281924E+04  0.33404281924E+04  0.00000000000E+00 0.  1.
          2   -1    0    0  501    0  0.00000000000E+00 -0.00000000000E+00 -0.22982105850E+04  0.22982105850E+04  0.00000000000E+00 0. -1.
    9900016    2    1    2    0    0 -0.76848231931E+03 -0.71353835877E+03  0.14769180027E+04  0.28579987851E+04  0.22106940549E+04 0.  0.
         24    2    3    3    0    0 -0.33661867780E+03  0.27807238345E+03 -0.30454538072E+03  0.54107838222E+03  0.96858361048E+02 0.  0.
        -15    1    1    2    0    0  0.66314646374E+03  0.38048694113E+02  0.11343075135E+03  0.67385270708E+03  0.00000000000E+00 0.  1.
        -15    1    4    4    0    0 -0.29437325312E+03  0.21934928693E+03 -0.28868240194E+03  0.46701954029E+03  0.00000000000E+00 0.  1.
         15    1    1    2    0    0  0.31471440547E+03 -0.63410734621E+03 -0.20039294427E+03  0.73572726988E+03  0.00000000000E+00 0. -1.
         15    1    3    3    0    0 -0.34993485609E+03 -0.11236380643E+04  0.10960034532E+04  0.16081792414E+04  0.00000000000E+00 0. -1.
        -16    1    1    2    0    0 -0.20937854990E+03  0.13095970109E+04 -0.34773820240E+03  0.13710600153E+04  0.00000000000E+00 0.  1.
         16    1    4    4    0    0 -0.42245424683E+02  0.58723096520E+02 -0.15862978785E+02  0.74058841926E+02  0.00000000000E+00 0. -1.
    9900018    1    3    3    0    0 -0.81928785422E+02  0.13202732206E+03  0.68545993026E+03  0.70874116152E+03  0.91187600000E+02 0.  0.
<mgrwt>
<rscale>  0 0.31239420E+04</rscale>
<asrwt>0</asrwt>
<pdfrwt beam="1">  1        2 0.35357086E+00 0.40755234E+04</pdfrwt>
<pdfrwt beam="2">  1       -2 0.51391203E+00 0.40755234E+04</pdfrwt>
<totfact> 0.46268442E-03</totfact>
</mgrwt>
</event>
<event>
11    1  0.2792704E-013  0.5000812E+04  0.7818608E-02  0.7828382E-01
         -2   -1    0    0    0  501 -0.00000000000E+00  0.00000000000E+00  0.26716218161E+04  0.26716218161E+04  0.00000000000E+00 0. -1.
          2   -1    0    0  501    0  0.00000000000E+00 -0.00000000000E+00 -0.23401632350E+04  0.23401632350E+04  0.00000000000E+00 0.  1.
    9900016    2    1    2    0    0 -0.33428253772E+03 -0.38970575373E+03  0.74377623735E+03  0.23693295163E+04  0.21901835256E+04 0.  0.
         24    2    3    3    0    0  0.87900259444E+03 -0.17944210435E+03  0.33557581300E+03  0.96000140265E+03  0.64393609816E+02 0.  0.
        -15    1    4    4    0    0  0.53379730217E+03 -0.98373625101E+02  0.17109022415E+03  0.56911228656E+03  0.00000000000E+00 0.  1.
        -15    1    1    2    0    0  0.21496290536E+03  0.42427651615E+03 -0.24171301995E+03  0.53352113065E+03  0.00000000000E+00 0.  1.
         15    1    1    2    0    0 -0.39688305245E+03 -0.90096415148E+03  0.25075053198E+03  0.10159371973E+04  0.00000000000E+00 0. -1.
         15    1    3    3    0    0 -0.46742015556E+03 -0.44196981830E+01  0.42251260569E+03  0.63009367361E+03  0.00000000000E+00 0. -1.
        -16    1    1    2    0    0  0.51620268481E+03  0.86639338907E+03 -0.42135516831E+03  0.10929972069E+04  0.00000000000E+00 0.  1.
         16    1    4    4    0    0  0.34520529227E+03 -0.81068479250E+02  0.16448558885E+03  0.39088911609E+03  0.00000000000E+00 0. -1.
    9900018    1    3    3    0    0 -0.74586497659E+03 -0.20584395120E+03 -0.14312181337E+02  0.77923444000E+03  0.91187600000E+02 0.  0.
<mgrwt>
<rscale>  0 0.50008124E+04</rscale>
<asrwt>0</asrwt>
<pdfrwt beam="1">  1        2 0.36002511E+00 0.50008124E+04</pdfrwt>
<pdfrwt beam="2">  1       -2 0.41101874E+00 0.50008124E+04</pdfrwt>
<totfact> 0.19696781E-02</totfact>
</mgrwt>
</event>
<event>
11    1  0.2394516E-013  0.5418713E+04  0.7818608E-02  0.7766974E-01
          1   -1    0    0  501    0  0.00000000000E+00  0.00000000000E+00  0.19451076219E+04  0.19451076219E+04  0.00000000000E+00 0. -1.
         -1   -1    0    0    0  501 -0.00000000000E+00 -0.00000000000E+00 -0.37738852471E+04  0.37738852471E+04  0.00000000000E+00 0.  1.
    9900016    2    1    2    0    0 -0.44632022808E+03  0.12876237366E+04 -0.81011433205E+03  0.26860490687E+04  0.21682706786E+04 0.  0.
        -24    2    3    3    0    0 -0.10368767595E+04  0.14458568136E+04 -0.73143420130E+03  0.19260616600E+04  0.95405385533E+02 0.  0.
        -15    1    1    2    0    0 -0.60506502785E+02  0.55790266121E+03  0.14301054024E+03  0.57911003349E+03  0.00000000000E+00 0.  1.
        -15    1    3    3    0    0  0.29046034973E+03 -0.15682860386E+03  0.15906153611E+03  0.36641915619E+03  0.00000000000E+00 0.  1.
         15    1    1    2    0    0  0.58332978804E+03 -0.48583147711E+03 -0.19503978349E+03  0.78380251525E+03  0.00000000000E+00 0. -1.
         15    1    4    4    0    0 -0.71485732417E+03  0.10203417852E+04 -0.55659601045E+03  0.13645209677E+04  0.00000000000E+00 0. -1.
        -16    1    4    4    0    0 -0.32201943529E+03  0.42551502847E+03 -0.17483819085E+03  0.56154069233E+03  0.00000000000E+00 0.  1.
         16    1    1    2    0    0 -0.76503057170E+02 -0.13596949207E+04 -0.96663404989E+03  0.16700312516E+04  0.00000000000E+00 0. -1.
    9900018    1    3    3    0    0  0.30009618166E+03 -0.14044732167E+01 -0.23774166686E+03  0.39356825246E+03  0.91187600000E+02 0.  0.
<mgrwt>
<rscale>  0 0.54187131E+04</rscale>
<asrwt>0</asrwt>
<pdfrwt beam="1">  1        1 0.29924733E+00 0.54187131E+04</pdfrwt>
<pdfrwt beam="2">  1       -1 0.58059772E+00 0.54187131E+04</pdfrwt>
<totfact> 0.12248734E-03</totfact>
</mgrwt>
</event>
<event>
11    1  0.2394516E-013  0.3447614E+04  0.7818608E-02  0.8353518E-01
         -2   -1    0    0    0  501 -0.00000000000E+00  0.00000000000E+00  0.28379627621E+04  0.28379627621E+04  0.00000000000E+00 0.  1.
          2   -1    0    0  501    0  0.00000000000E+00 -0.00000000000E+00 -0.20861974714E+04  0.20861974714E+04  0.00000000000E+00 0. -1.
    9900016    2    1    2    0    0  0.41146874828E+03  0.74730649715E+03  0.41996105924E+03  0.24002282227E+04  0.22038499718E+04 0.  0.
         24    2    3    3    0    0  0.47500055333E+03 -0.79774081680E+02 -0.55243517460E+03  0.73894066469E+03  0.94123610283E+02 0.  0.
        -15    1    1    2    0    0  0.81068680975E+02  0.14244432130E+03  0.19381843142E+02  0.16503990896E+03  0.00000000000E+00 0.  1.
        -15    1    4    4    0    0  0.19631779723E+03 -0.37784264814E+02 -0.30046402585E+03  0.36089743558E+03  0.00000000000E+00 0.  1.
         15    1    1    2    0    0 -0.98798202052E+03 -0.13604493716E+03  0.84869898875E+03  0.13095444518E+04  0.00000000000E+00 0. -1.
         15    1    3    3    0    0 -0.51086035731E+03  0.66220475087E+03  0.76497581068E+03  0.11334378799E+04  0.00000000000E+00 0. -1.
        -16    1    1    2    0    0  0.49544459126E+03 -0.75370588129E+03 -0.53627660045E+03  0.10493476501E+04  0.00000000000E+00 0.  1.
         16    1    4    4    0    0  0.27868275610E+03 -0.41989816866E+02 -0.25197114875E+03  0.37804322910E+03  0.00000000000E+00 0. -1.
    9900018    1    3    3    0    0  0.44732855226E+03  0.16487582796E+03  0.20742042316E+03  0.52784967808E+03  0.91187600000E+02 0.  0.
<mgrwt>
<rscale>  0 0.26436682E+04</rscale>
<asrwt>0</asrwt>
<pdfrwt beam="1">  1        2 0.32095346E+00 0.34476143E+04</pdfrwt>
<pdfrwt beam="2">  1       -2 0.43660966E+00 0.34476143E+04</pdfrwt>
<totfact> 0.20095029E-02</totfact>
</mgrwt>
</event>
<event>
10    1  0.2394516E-013  0.5534905E+04  0.7818608E-02  0.7750904E-01
         -2   -1    0    0    0  501 -0.00000000000E+00  0.00000000000E+00  0.24208109607E+04  0.24208109607E+04  0.00000000000E+00 0. -1.
          2   -1    0    0  501    0  0.00000000000E+00 -0.00000000000E+00 -0.31637300040E+04  0.31637300040E+04  0.00000000000E+00 0.  1.
    9900016    2    1    2    0    0 -0.11011991350E+03  0.48392157133E+03 -0.77759704263E+02  0.22527658206E+04  0.21960420735E+04 0.  0.
        -15    1    1    2    0    0  0.77652314613E+03 -0.59876499509E+03 -0.71243540877E+03  0.12120527742E+04  0.00000000000E+00 0.  1.
        -15    1    3    3    0    0  0.53306303084E+03  0.13174225615E+03 -0.11134406482E+03  0.56027646539E+03  0.00000000000E+00 0.  1.
         15    1    1    2    0    0 -0.20355406313E+03  0.45294238931E+03  0.93752118772E+03  0.10609133056E+04  0.00000000000E+00 0. -1.
         15    1    3    3    0    0 -0.48955360073E+03  0.20180905059E+03  0.72509803842E+03  0.89786234258E+03  0.00000000000E+00 0. -1.
        -16    1    1    2    0    0 -0.46284916950E+03 -0.33809896555E+03 -0.89024511800E+03  0.10588090642E+04  0.00000000000E+00 0.  1.
         16    1    3    3    0    0  0.19889657225E+02 -0.43714210156E+01  0.27074759191E+02  0.33878464716E+02  0.00000000000E+00 0. -1.
    9900018    1    3    3    0    0 -0.17351900083E+03  0.15474168560E+03 -0.71858843705E+03  0.76074854793E+03  0.91187600000E+02 0.  0.
<mgrwt>
<rscale>  0 0.55349046E+04</rscale>
<asrwt>0</asrwt>
<pdfrwt beam="1">  1        2 0.48672769E+00 0.55349046E+04</pdfrwt>
<pdfrwt beam="2">  1       -2 0.37243246E+00 0.55349046E+04</pdfrwt>
<totfact> 0.10697390E-02</totfact>
</mgrwt>
</event>
<event>
10    1  0.2394516E-013  0.4947470E+04  0.7818608E-02  0.7836662E-01
         -2   -1    0    0    0  501 -0.00000000000E+00  0.00000000000E+00  0.21016780296E+04  0.21016780296E+04  0.00000000000E+00 0. -1.
          2   -1    0    0  501    0  0.00000000000E+00 -0.00000000000E+00 -0.29116562572E+04  0.29116562572E+04  0.00000000000E+00 0.  1.
    9900016    2    1    2    0    0  0.48963635597E+03  0.19112204474E+03 -0.75407513324E+03  0.23856027321E+04  0.22014085699E+04 0.  0.
        -15    1    1    2    0    0 -0.21857871978E+03 -0.11375584908E+04 -0.63913830378E+03  0.13229942359E+04  0.00000000000E+00 0.  1.
        -15    1    3    3    0    0  0.79353690513E+03  0.31736924263E+03 -0.64107115768E+03  0.10683614956E+04  0.00000000000E+00 0.  1.
         15    1    3    3    0    0 -0.27122350944E+03 -0.74468725456E+02  0.12951722314E+03  0.30964898552E+03  0.00000000000E+00 0. -1.
         15    1    1    2    0    0 -0.40756797132E+03  0.30957467235E+03  0.31036332542E+03  0.59855953987E+03  0.00000000000E+00 0. -1.
        -16    1    3    3    0    0 -0.40085736734E+03 -0.24078068740E+03  0.80814058500E+02  0.47454491929E+03  0.00000000000E+00 0.  1.
         16    1    1    2    0    0  0.13651033513E+03  0.63686177371E+03  0.27287188409E+03  0.70617777899E+03  0.00000000000E+00 0. -1.
    9900018    1    3    3    0    0  0.36818032762E+03  0.18900221497E+03 -0.32333525719E+03  0.53304733172E+03  0.91187600000E+02 0.  0.
<mgrwt>
<rscale>  0 0.49474697E+04</rscale>
<asrwt>0</asrwt>
<pdfrwt beam="1">  1        2 0.44794711E+00 0.49474697E+04</pdfrwt>
<pdfrwt beam="2">  1       -2 0.32333508E+00 0.49474697E+04</pdfrwt>
<totfact> 0.32974671E-02</totfact>
</mgrwt>
</event>
<event>
10    1  0.2394516E-013  0.4220357E+04  0.7818608E-02  0.7961511E-01
         -1   -1    0    0    0  501 -0.00000000000E+00  0.00000000000E+00  0.10090947894E+04  0.10090947894E+04  0.00000000000E+00 0.  1.
          1   -1    0    0  501    0  0.00000000000E+00 -0.00000000000E+00 -0.44127215025E+04  0.44127215025E+04  0.00000000000E+00 0. -1.
    9900016    2    1    2    0    0  0.92795838787E+03  0.13236029048E+03 -0.25880566989E+04  0.35252908845E+04  0.22025013797E+04 0.  0.
        -15    1    3    3    0    0 -0.15696599571E+03  0.20929670517E+03 -0.12958874159E+04  0.13220316295E+04  0.00000000000E+00 0.  1.
        -15    1    1    2    0    0  0.29745434173E+03  0.24720843697E+03 -0.12549364157E+03  0.40661990950E+03  0.00000000000E+00 0.  1.
         15    1    1    2    0    0 -0.48716138635E+03 -0.11816784675E+03 -0.10459360215E+03  0.51208366306E+03  0.00000000000E+00 0. -1.
         15    1    3    3    0    0  0.38813651586E+03 -0.17701791054E+02 -0.27670688258E+03  0.47700105578E+03  0.00000000000E+00 0. -1.
        -16    1    3    3    0    0  0.10346425928E+04 -0.76736574669E+02 -0.67521185052E+03  0.12378549349E+04  0.00000000000E+00 0.  1.
         16    1    1    2    0    0 -0.73825134325E+03 -0.26140088070E+03 -0.58548277046E+03  0.97782183487E+03  0.00000000000E+00 0. -1.
    9900018    1    3    3    0    0 -0.33785472510E+03  0.17501951037E+02 -0.34025054990E+03  0.48840326438E+03  0.91187600000E+02 0.  0.
<mgrwt>
<rscale>  0 0.42203575E+04</rscale>
<asrwt>0</asrwt>
<pdfrwt beam="1">  1        1 0.67888022E+00 0.42203575E+04</pdfrwt>
<pdfrwt beam="2">  1       -1 0.15524535E+00 0.42203575E+04</pdfrwt>
<totfact> 0.95862424E-03</totfact>
</mgrwt>
</event>
<event>
11    1  0.2394516E-013  0.3027584E+04  0.7818608E-02  0.8809245E-01
          2   -1    0    0  501    0  0.00000000000E+00  0.00000000000E+00  0.19169810622E+04  0.19169810622E+04  0.00000000000E+00 0.  1.
         -2   -1    0    0    0  501 -0.00000000000E+00 -0.00000000000E+00 -0.14846480944E+04  0.14846480944E+04  0.00000000000E+00 0. -1.
    9900016    2    1    2    0    0  0.46644529143E+03  0.22030780195E+03  0.50202137792E+03  0.23174962587E+04  0.22028746464E+04 0.  0.
         24    2    3    3    0    0  0.40666429669E+03  0.95260442301E+03 -0.13316498856E+03  0.10461149212E+04  0.61583092577E+02 0.  0.
        -15    1    4    4    0    0  0.24237301174E+03  0.64195353049E+03 -0.88716842982E+02  0.69189572217E+03  0.00000000000E+00 0.  1.
        -15    1    1    2    0    0 -0.52002858380E+02  0.65698624195E+02  0.20297801496E+03  0.21959207877E+03  0.00000000000E+00 0.  1.
         15    1    3    3    0    0 -0.18407603629E+03 -0.46026174814E+03  0.73064138660E+03  0.88292791311E+03  0.00000000000E+00 0. -1.
         15    1    1    2    0    0  0.66188431755E+02  0.11409667050E+03  0.72211230374E+02  0.15037759311E+03  0.00000000000E+00 0. -1.
        -16    1    1    2    0    0 -0.48063086480E+03 -0.40010309664E+03 -0.34487765548E+03  0.71416322602E+03  0.00000000000E+00 0.  1.
         16    1    4    4    0    0  0.16429128495E+03  0.31065089252E+03 -0.44448145581E+02  0.35421919905E+03  0.00000000000E+00 0. -1.
    9900018    1    3    3    0    0  0.24385703103E+03 -0.27203487292E+03 -0.95455020119E+02  0.38845342440E+03  0.91187600000E+02 0.  0.
<mgrwt>
<rscale>  0 0.16185284E+04</rscale>
<asrwt>0</asrwt>
<pdfrwt beam="1">  1        2 0.29492016E+00 0.30275840E+04</pdfrwt>
<pdfrwt beam="2">  1       -2 0.22840740E+00 0.30275840E+04</pdfrwt>
<totfact> 0.54842552E-01</totfact>
</mgrwt>
</event>
<event>
11    1  0.2394516E-013  0.5500613E+04  0.7818608E-02  0.7755605E-01
          1   -1    0    0  501    0  0.00000000000E+00  0.00000000000E+00  0.17831396934E+04  0.17831396934E+04  0.00000000000E+00 0. -1.
         -1   -1    0    0    0  501 -0.00000000000E+00 -0.00000000000E+00 -0.42420605126E+04  0.42420605126E+04  0.00000000000E+00 0.  1.
    9900016    2    1    2    0    0 -0.12197169354E+04  0.35920805409E+03 -0.57564209269E+03  0.26000930249E+04  0.21937137668E+04 0.  0.
        -24    2    3    3    0    0  0.31275569865E+03 -0.41187110409E+03 -0.17993584140E+03  0.55526716564E+03  0.92145454558E+02 0.  0.
        -15    1    1    2    0    0  0.12239616727E+04  0.46939292257E+03 -0.18564161431E+04  0.22725960460E+04  0.00000000000E+00 0.  1.
        -15    1    3    3    0    0 -0.12423006774E+04  0.88628052766E+03  0.84301718891E+01  0.15260652720E+04  0.00000000000E+00 0.  1.
         15    1    4    4    0    0  0.15571642445E+03 -0.14140151582E+03 -0.47535131849E+02  0.21564225532E+03  0.00000000000E+00 0. -1.
         15    1    1    2    0    0 -0.11595634842E+03  0.55675509087E+02  0.19537590208E+03  0.23391746443E+03  0.00000000000E+00 0. -1.
        -16    1    4    4    0    0  0.15703927420E+03 -0.27046958828E+03 -0.13240070955E+03  0.33962491033E+03  0.00000000000E+00 0.  1.
         16    1    1    2    0    0  0.11171161113E+03 -0.88427648575E+03 -0.22223848546E+03  0.91859367064E+03  0.00000000000E+00 0. -1.
    9900018    1    3    3    0    0 -0.29017195662E+03 -0.11520136947E+03 -0.40413642318E+03  0.51876058724E+03  0.91187600000E+02 0.  0.
<mgrwt>
<rscale>  0 0.55006132E+04</rscale>
<asrwt>0</asrwt>
<pdfrwt beam="1">  1        1 0.27432918E+00 0.55006132E+04</pdfrwt>
<pdfrwt beam="2">  1       -1 0.65262469E+00 0.55006132E+04</pdfrwt>
<totfact> 0.84688051E-04</totfact>
</mgrwt>
</event>
<event>
10    1  0.2394516E-013  0.3456544E+04  0.7818608E-02  0.8317342E-01
         -1   -1    0    0    0  501 -0.00000000000E+00  0.00000000000E+00  0.25805473244E+04  0.25805473244E+04  0.00000000000E+00 0. -1.
          1   -1    0    0  501    0  0.00000000000E+00 -0.00000000000E+00 -0.25449820503E+04  0.25449820503E+04  0.00000000000E+00 0.  1.
    9900016    2    1    2    0    0 -0.19795913112E+03 -0.25976652272E+03 -0.19104569641E+03  0.22475114138E+04  0.22154328320E+04 0.  0.
        -15    1    1    2    0    0 -0.28993517006E+03  0.22125474085E+03 -0.89256170957E+03  0.96420042967E+03  0.00000000000E+00 0.  1.
        -15    1    3    3    0    0 -0.21292532843E+03 -0.20719286144E+03  0.34159448130E+03  0.45271720419E+03  0.00000000000E+00 0.  1.
         15    1    3    3    0    0  0.10898757001E+03  0.33799707486E+01 -0.32054341394E+03  0.33858203561E+03  0.00000000000E+00 0. -1.
         15    1    1    2    0    0  0.58024648163E+03  0.63123208274E+03  0.97207222015E+03  0.12961729526E+04  0.00000000000E+00 0. -1.
        -16    1    3    3    0    0  0.27410097988E+03  0.50419786940E+02 -0.74391953582E+03  0.79441159223E+03  0.00000000000E+00 0.  1.
         16    1    1    2    0    0 -0.92352180456E+02 -0.59272030088E+03  0.14710045994E+03  0.61764457872E+03  0.00000000000E+00 0. -1.
    9900018    1    3    3    0    0 -0.36812235258E+03 -0.10637341897E+03  0.53182277206E+03  0.66180058175E+03  0.91187600000E+02 0.  0.
<mgrwt>
<rscale>  0 0.27551104E+04</rscale>
<asrwt>0</asrwt>
<pdfrwt beam="1">  1        1 0.39153570E+00 0.34565440E+04</pdfrwt>
<pdfrwt beam="2">  1       -1 0.39700728E+00 0.34565440E+04</pdfrwt>
<totfact> 0.73691375E-03</totfact>
</mgrwt>
</event>
<event>
11    1  0.2394516E-013  0.3205476E+04  0.7818608E-02  0.8666085E-01
          2   -1    0    0  501    0  0.00000000000E+00  0.00000000000E+00  0.22044297754E+04  0.22044297754E+04  0.00000000000E+00 0.  1.
         -2   -1    0    0    0  501 -0.00000000000E+00 -0.00000000000E+00 -0.15968974787E+04  0.15968974787E+04  0.00000000000E+00 0. -1.
    9900016    2    1    2    0    0 -0.80167464592E+03 -0.14050870911E+03  0.52064419576E+03  0.24012317928E+04  0.21982763268E+04 0.  0.
        -24    2    3    3    0    0  0.20230247526E+03 -0.75224236507E+03  0.71299215383E+01  0.78479942291E+03  0.95207305983E+02 0.  0.
        -15    1    1    2    0    0  0.85728563505E+02 -0.14294337424E+03  0.49527628088E+03  0.52257132455E+03  0.00000000000E+00 0.  1.
        -15    1    3    3    0    0 -0.77745365849E+03  0.61929399334E+03  0.77365152443E+03  0.12595617978E+04  0.00000000000E+00 0.  1.
         15    1    4    4    0    0  0.34170062864E+02 -0.25372164480E+03  0.32565960437E+02  0.25807519837E+03  0.00000000000E+00 0. -1.
         15    1    1    2    0    0  0.57817687987E+02 -0.42387393108E+01 -0.38739588332E+02  0.69725229718E+02  0.00000000000E+00 0. -1.
        -16    1    4    4    0    0  0.16813241239E+03 -0.49852072027E+03 -0.25436038899E+02  0.52672422453E+03  0.00000000000E+00 0.  1.
         16    1    1    2    0    0  0.65812839442E+03  0.28769082266E+03 -0.36964859161E+03  0.80779890708E+03  0.00000000000E+00 0. -1.
    9900018    1    3    3    0    0 -0.22652346269E+03 -0.75603373783E+01 -0.26013725021E+03  0.35687057204E+03  0.91187600000E+02 0.  0.
<mgrwt>
<rscale>  0 0.18776047E+04</rscale>
<asrwt>0</asrwt>
<pdfrwt beam="1">  1        2 0.33914304E+00 0.32054763E+04</pdfrwt>
<pdfrwt beam="2">  1       -2 0.24567654E+00 0.32054763E+04</pdfrwt>
<totfact> 0.28968183E-01</totfact>
</mgrwt>
</event>
<event>
11    1  0.2394516E-013  0.5713259E+04  0.7818608E-02  0.7727007E-01
         -2   -1    0    0    0  501 -0.00000000000E+00  0.00000000000E+00  0.25726031981E+04  0.25726031981E+04  0.00000000000E+00 0.  1.
          2   -1    0    0  501    0  0.00000000000E+00 -0.00000000000E+00 -0.31720138162E+04  0.31720138162E+04  0.00000000000E+00 0. -1.
    9900016    2    1    2    0    0 -0.71441499583E+03 -0.37697226531E+03 -0.14867752576E+04  0.27783315057E+04  0.22036625000E+04 0.  0.
         24    2    3    3    0    0  0.66355077233E+03 -0.49718830434E+03 -0.25058632078E+03  0.87255230601E+03  0.10515790571E+03 0.  0.
        -15    1    1    2    0    0  0.19468837523E+03  0.21442413407E+03 -0.27150368583E+03  0.39698302752E+03  0.00000000000E+00 0.  1.
        -15    1    4    4    0    0  0.22305157977E+03 -0.16383706464E+03 -0.32550348017E+02  0.27866488143E+03  0.00000000000E+00 0.  1.
         15    1    1    2    0    0  0.13531552363E+04  0.11282318287E+03  0.10717532409E+04  0.17298592930E+04  0.00000000000E+00 0. -1.
         15    1    3    3    0    0 -0.10834789064E+04 -0.56064970502E+02 -0.10253292428E+04  0.14927725472E+04  0.00000000000E+00 0. -1.
        -16    1    1    2    0    0 -0.83342861573E+03  0.49724948369E+02  0.87115084407E+02  0.83944318803E+03  0.00000000000E+00 0.  1.
         16    1    4    4    0    0  0.44049919256E+03 -0.33335123970E+03 -0.21803597276E+03  0.59388742458E+03  0.00000000000E+00 0. -1.
    9900018    1    3    3    0    0 -0.29448686174E+03  0.17628100953E+03 -0.21085969407E+03  0.41300665253E+03  0.91187600000E+02 0.  0.
<mgrwt>
<rscale>  0 0.57132593E+04</rscale>
<asrwt>0</asrwt>
<pdfrwt beam="1">  1        2 0.48800213E+00 0.57132593E+04</pdfrwt>
<pdfrwt beam="2">  1       -2 0.39578511E+00 0.57132593E+04</pdfrwt>
<totfact> 0.73608070E-03</totfact>
</mgrwt>
</event>
<event>
11    1  0.2394516E-013  0.3915510E+04  0.7818608E-02  0.8021811E-01
         -1   -1    0    0    0  501 -0.00000000000E+00  0.00000000000E+00  0.27456815144E+04  0.27456815144E+04  0.00000000000E+00 0.  1.
          1   -1    0    0  501    0  0.00000000000E+00 -0.00000000000E+00 -0.13959392016E+04  0.13959392016E+04  0.00000000000E+00 0. -1.
    9900016    2    1    2    0    0  0.28016338495E+03  0.49033883126E+03  0.12048265396E+04  0.25972377639E+04  0.22304962049E+04 0.  0.
         24    2    3    3    0    0 -0.77924591810E+03  0.25484459621E+02  0.58650289932E+03  0.97787053761E+03  0.66117159979E+02 0.  0.
        -15    1    1    2    0    0 -0.16128654803E+03 -0.33177047989E+03  0.17413454072E+03  0.40793117087E+03  0.00000000000E+00 0.  1.
        -15    1    4    4    0    0 -0.36798946821E+03  0.29287770942E+01  0.31651326597E+03  0.48539208274E+03  0.00000000000E+00 0.  1.
         15    1    1    2    0    0 -0.28888182533E+03  0.37866971781E+02 -0.51149672587E+03  0.58865568640E+03  0.00000000000E+00 0. -1.
         15    1    3    3    0    0  0.10772199878E+04  0.48768937566E+03  0.21124266866E+03  0.12011941118E+04  0.00000000000E+00 0. -1.
        -16    1    1    2    0    0  0.17000498841E+03 -0.19643532316E+03  0.48227795840E+03  0.54779609476E+03  0.00000000000E+00 0.  1.
         16    1    4    4    0    0 -0.41125644989E+03  0.22555682527E+02  0.26998963335E+03  0.49247845487E+03  0.00000000000E+00 0. -1.
    9900018    1    3    3    0    0 -0.17810684714E+02 -0.22835004019E+02  0.40708097157E+03  0.41817311452E+03  0.91187600000E+02 0.  0.
<mgrwt>
<rscale>  0 0.39155099E+04</rscale>
<asrwt>0</asrwt>
<pdfrwt beam="1">  1        1 0.21475988E+00 0.39155099E+04</pdfrwt>
<pdfrwt beam="2">  1       -1 0.42241254E+00 0.39155099E+04</pdfrwt>
<totfact> 0.30560998E-02</totfact>
</mgrwt>
</event>
<event>
11    1  0.2394516E-013  0.4918114E+04  0.7818608E-02  0.7841264E-01
          1   -1    0    0  501    0  0.00000000000E+00  0.00000000000E+00  0.26757719393E+04  0.26757719393E+04  0.00000000000E+00 0. -1.
         -1   -1    0    0    0  501 -0.00000000000E+00 -0.00000000000E+00 -0.22598945344E+04  0.22598945344E+04  0.00000000000E+00 0.  1.
    9900016    2    1    2    0    0  0.22058292026E+03  0.59400973923E+03 -0.46430883692E+03  0.23380222620E+04  0.22021037683E+04 0.  0.
         24    2    3    3    0    0 -0.32073696116E+03  0.71906329650E+03 -0.56617742620E+03  0.97466977351E+03  0.97468286287E+02 0.  0.
        -15    1    1    2    0    0 -0.20425881096E+03 -0.56225791470E+03 -0.75688177701E+02  0.60297953924E+03  0.00000000000E+00 0.  1.
        -15    1    4    4    0    0 -0.24742317288E+03  0.62987277360E+03 -0.50185585758E+03  0.84250652175E+03  0.00000000000E+00 0.  1.
         15    1    1    2    0    0  0.70398024088E+03  0.77324067296E+02  0.10432500547E+04  0.12609273840E+04  0.00000000000E+00 0. -1.
         15    1    3    3    0    0  0.28403476349E+03  0.55293731795E+03  0.11592182515E+03  0.63233954011E+03  0.00000000000E+00 0. -1.
        -16    1    1    2    0    0 -0.72030435018E+03 -0.10907589182E+03 -0.87375635174E+02  0.73373728861E+03  0.00000000000E+00 0.  1.
         16    1    4    4    0    0 -0.73313788279E+02  0.89190522896E+02 -0.64321568622E+02  0.13216325176E+03  0.00000000000E+00 0. -1.
    9900018    1    3    3    0    0  0.25728511794E+03 -0.67799087522E+03 -0.14053235864E+02  0.73101294832E+03  0.91187600000E+02 0.  0.
<mgrwt>
<rscale>  0 0.49181144E+04</rscale>
<asrwt>0</asrwt>
<pdfrwt beam="1">  1        1 0.41165722E+00 0.49181144E+04</pdfrwt>
<pdfrwt beam="2">  1       -1 0.34767608E+00 0.49181144E+04</pdfrwt>
<totfact> 0.11942425E-02</totfact>
</mgrwt>
</event>
<event>
11    1  0.2394516E-013  0.4705719E+04  0.7818608E-02  0.7875579E-01
          2   -1    0    0  501    0  0.00000000000E+00  0.00000000000E+00  0.22527643241E+04  0.22527643241E+04  0.00000000000E+00 0. -1.
         -2   -1    0    0    0  501 -0.00000000000E+00 -0.00000000000E+00 -0.24574018070E+04  0.24574018070E+04  0.00000000000E+00 0.  1.
    9900016    2    1    2    0    0  0.39801939770E+03 -0.48773344685E+03  0.44233275065E+03  0.23330906135E+04  0.22025780786E+04 0.  0.
        -24    2    3    3    0    0  0.25335914922E+03  0.49926694838E+03 -0.49608371123E+03  0.75446637733E+03  0.98296092162E+02 0.  0.
        -15    1    1    2    0    0  0.62072348978E+03  0.86217914465E+03 -0.72939997622E+02  0.10648806372E+04  0.00000000000E+00 0.  1.
        -15    1    3    3    0    0 -0.33510135379E+01 -0.88711639349E+03  0.34430750186E+03  0.95159570235E+03  0.00000000000E+00 0.  1.
         15    1    1    2    0    0 -0.46265784930E+03  0.49409713172E+02 -0.12702303695E+03  0.48231572356E+03  0.00000000000E+00 0. -1.
         15    1    4    4    0    0  0.19455563087E+03  0.43961736459E+03 -0.38837189459E+03  0.61801945703E+03  0.00000000000E+00 0. -1.
        -16    1    4    4    0    0  0.58803518348E+02  0.59649583786E+02 -0.10771181664E+03  0.13644692030E+03  0.00000000000E+00 0.  1.
         16    1    1    2    0    0 -0.55608503818E+03 -0.42385541097E+03 -0.44700719893E+03  0.82987915686E+03  0.00000000000E+00 0. -1.
    9900018    1    3    3    0    0  0.14801126202E+03 -0.99884001743E+02  0.59410896002E+03  0.62702853384E+03  0.91187600000E+02 0.  0.
<mgrwt>
<rscale>  0 0.47057187E+04</rscale>
<asrwt>0</asrwt>
<pdfrwt beam="1">  1        2 0.34657913E+00 0.47057187E+04</pdfrwt>
<pdfrwt beam="2">  1       -2 0.37806182E+00 0.47057187E+04</pdfrwt>
<totfact> 0.37033722E-02</totfact>
</mgrwt>
</event>
<event>
11    1  0.2394516E-013  0.2849988E+04  0.7818608E-02  0.8605975E-01
         -2   -1    0    0    0  501 -0.00000000000E+00  0.00000000000E+00  0.97453989537E+03  0.97453989537E+03  0.00000000000E+00 0.  1.
          2   -1    0    0  501    0  0.00000000000E+00 -0.00000000000E+00 -0.32601889869E+04  0.32601889869E+04  0.00000000000E+00 0. -1.
    9900016    2    1    2    0    0 -0.21826574339E+03  0.49761340438E+02 -0.16040750557E+04  0.27373854006E+04  0.22068316477E+04 0.  0.
         24    2    3    3    0    0  0.19423638843E+03 -0.52762623727E+03 -0.15205421619E+04  0.16221989878E+04  0.57998873246E+02 0.  0.
        -15    1    1    2    0    0 -0.24722520830E+03  0.62777234817E+02 -0.32084108377E+02  0.25708106668E+03  0.00000000000E+00 0.  1.
        -15    1    4    4    0    0  0.11449928498E+03 -0.23110500235E+03 -0.71859058049E+03  0.76347366080E+03  0.00000000000E+00 0.  1.
         15    1    1    2    0    0  0.10117260970E+03  0.30107684468E+03 -0.60990958078E+03  0.68765751656E+03  0.00000000000E+00 0. -1.
         15    1    3    3    0    0 -0.85170700026E+02  0.61230064523E+03 -0.32351260294E+03  0.69772955545E+03  0.00000000000E+00 0. -1.
        -16    1    1    2    0    0  0.36431834199E+03 -0.41361541993E+03 -0.39580346702E+02  0.55260489842E+03  0.00000000000E+00 0.  1.
         16    1    4    4    0    0  0.79737103446E+02 -0.29652123492E+03 -0.80195158137E+03  0.85872532703E+03  0.00000000000E+00 0. -1.
    9900018    1    3    3    0    0 -0.32733143179E+03 -0.34913067518E+02  0.23997970914E+03  0.41745685731E+03  0.91187600000E+02 0.  0.
<mgrwt>
<rscale>  0 0.20013814E+04</rscale>
<asrwt>0</asrwt>
<pdfrwt beam="1">  1        2 0.50156754E+00 0.28499883E+04</pdfrwt>
<pdfrwt beam="2">  1       -2 0.14992921E+00 0.28499883E+04</pdfrwt>
<totfact> 0.30130261E-01</totfact>
</mgrwt>
</event>
<event>
11    1  0.2394516E-013  0.3715431E+04  0.7818608E-02  0.8151431E-01
         -2   -1    0    0    0  501 -0.00000000000E+00  0.00000000000E+00  0.28962701692E+04  0.28962701692E+04  0.00000000000E+00 0. -1.
          2   -1    0    0  501    0  0.00000000000E+00 -0.00000000000E+00 -0.35562810614E+04  0.35562810614E+04  0.00000000000E+00 0.  1.
    9900016    2    1    2    0    0 -0.26288078842E+03  0.12953080245E+03 -0.68893230102E+03  0.23205318661E+04  0.21964416424E+04 0.  0.
        -24    2    3    3    0    0 -0.73427184057E+03  0.44608549786E+03 -0.10304868911E+04  0.13427505896E+04  0.54115671296E+02 0.  0.
        -15    1    3    3    0    0  0.99512556601E+02  0.22794676857E+03  0.65836522980E+02  0.25728763278E+03  0.00000000000E+00 0.  1.
        -15    1    1    2    0    0  0.95674177912E+02  0.74983640321E+03 -0.14831877154E+04  0.16647083766E+04  0.00000000000E+00 0.  1.
         15    1    1    2    0    0  0.85692553642E+03 -0.49045771295E+03  0.32328772119E+03  0.10389345956E+04  0.00000000000E+00 0. -1.
         15    1    4    4    0    0 -0.37272430182E+03  0.23598298115E+03 -0.56920080241E+03  0.72013951845E+03  0.00000000000E+00 0. -1.
        -16    1    4    4    0    0 -0.36154753875E+03  0.21010251671E+03 -0.46128608867E+03  0.62261107113E+03  0.00000000000E+00 0.  1.
         16    1    1    2    0    0 -0.68971892592E+03 -0.38890949271E+03  0.11888214030E+04  0.14283763925E+04  0.00000000000E+00 0. -1.
    9900018    1    3    3    0    0  0.37187849555E+03 -0.54450146398E+03  0.27571806708E+03  0.72049364372E+03  0.91187600000E+02 0.  0.
<mgrwt>
<rscale>  0 0.33454300E+04</rscale>
<asrwt>0</asrwt>
<pdfrwt beam="1">  1        2 0.54712016E+00 0.37154305E+04</pdfrwt>
<pdfrwt beam="2">  1       -2 0.44558003E+00 0.37154305E+04</pdfrwt>
<totfact> 0.20586090E-03</totfact>
</mgrwt>
</event>
<event>
11    1  0.2394516E-013  0.4041950E+04  0.7818608E-02  0.7996137E-01
         -2   -1    0    0    0  501 -0.00000000000E+00  0.00000000000E+00  0.21540822817E+04  0.21540822817E+04  0.00000000000E+00 0. -1.
          2   -1    0    0  501    0  0.00000000000E+00 -0.00000000000E+00 -0.18960928286E+04  0.18960928286E+04  0.00000000000E+00 0.  1.
    9900016    2    1    2    0    0 -0.86830316448E+03 -0.21387669671E+03 -0.40593736669E+03  0.24126642471E+04  0.22037400021E+04 0.  0.
        -24    2    3    3    0    0 -0.63540910833E+03 -0.14928503009E+03  0.62323261415E+03  0.90466951513E+03  0.63065720504E+02 0.  0.
        -15    1    1    2    0    0  0.14573970265E+03  0.48657418090E+03  0.29800908133E+02  0.50880505950E+03  0.00000000000E+00 0.  1.
        -15    1    3    3    0    0 -0.38316100914E+03 -0.36589680982E+03 -0.13287548674E+03  0.54621308053E+03  0.00000000000E+00 0.  1.
         15    1    1    2    0    0  0.31944448076E+03 -0.22946613786E+03  0.21284613246E+02  0.39389404600E+03  0.00000000000E+00 0. -1.
         15    1    4    4    0    0 -0.11582769723E+03 -0.25187882738E+02  0.81465562972E+02  0.14383018748E+03  0.00000000000E+00 0. -1.
        -16    1    4    4    0    0 -0.51958141111E+03 -0.12409714735E+03  0.54176705118E+03  0.76083932765E+03  0.00000000000E+00 0.  1.
         16    1    1    2    0    0  0.40311898106E+03 -0.43231346327E+02  0.61284129846E+03  0.73481175773E+03  0.00000000000E+00 0. -1.
    9900018    1    3    3    0    0  0.15026695300E+03  0.30130514320E+03 -0.89629449410E+03  0.96178165143E+03  0.91187600000E+02 0.  0.
<mgrwt>
<rscale>  0 0.40419500E+04</rscale>
<asrwt>0</asrwt>
<pdfrwt beam="1">  1        2 0.29170659E+00 0.40419500E+04</pdfrwt>
<pdfrwt beam="2">  1       -2 0.33139728E+00 0.40419500E+04</pdfrwt>
<totfact> 0.12206949E-01</totfact>
</mgrwt>
</event>
<event>
11    1  0.2394516E-013  0.6570764E+04  0.7818608E-02  0.7623399E-01
         -2   -1    0    0    0  501 -0.00000000000E+00  0.00000000000E+00  0.32608880642E+04  0.32608880642E+04  0.00000000000E+00 0.  1.
          2   -1    0    0  501    0  0.00000000000E+00 -0.00000000000E+00 -0.33100596248E+04  0.33100596248E+04  0.00000000000E+00 0. -1.
    9900016    2    1    2    0    0  0.77751012516E+03 -0.34513807802E+03  0.13804333902E+03  0.23595156691E+04  0.21965008404E+04 0.  0.
        -24    2    3    3    0    0  0.94393442306E+03 -0.28939285731E+03 -0.52524735297E+03  0.11220169028E+04  0.90976520953E+02 0.  0.
        -15    1    1    2    0    0  0.38162523319E+03 -0.17303002650E+04  0.54210623635E+02  0.17727141950E+04  0.00000000000E+00 0.  1.
        -15    1    3    3    0    0 -0.49063421035E+03 -0.21498483909E+03  0.67872253286E+03  0.86464136265E+03  0.00000000000E+00 0.  1.
         15    1    1    2    0    0 -0.76956226725E+03  0.11584765255E+04 -0.35665165352E+03  0.14357904949E+04  0.00000000000E+00 0. -1.
         15    1    4    4    0    0  0.66439387483E+03 -0.17556268625E+03 -0.32808866181E+03  0.76150091774E+03  0.00000000000E+00 0. -1.
        -16    1    4    4    0    0  0.27954054823E+03 -0.11383017107E+03 -0.19715869116E+03  0.36051598501E+03  0.00000000000E+00 0.  1.
         16    1    1    2    0    0 -0.38957309111E+03  0.91696181751E+03  0.11522613029E+03  0.10029273300E+04  0.00000000000E+00 0. -1.
    9900018    1    3    3    0    0  0.32420991245E+03  0.15923961838E+03 -0.15431840868E+02  0.37285740371E+03  0.91187600000E+02 0.  0.
<mgrwt>
<rscale>  0 0.65707637E+04</rscale>
<asrwt>0</asrwt>
<pdfrwt beam="1">  1        2 0.50923994E+00 0.65707637E+04</pdfrwt>
<pdfrwt beam="2">  1       -2 0.50167509E+00 0.65707637E+04</pdfrwt>
<totfact> 0.11523897E-03</totfact>
</mgrwt>
</event>
