<event>
12    1  0.1542525E-013  0.1322545E+04  0.7818608E-02  0.9011875E-01
         -3   -1    0    0    0  501 -0.00000000000E+00  0.00000000000E+00  0.63484879156E+03  0.63484879156E+03  0.00000000000E+00 0.  1.
          3   -1    0    0  501    0  0.00000000000E+00 -0.00000000000E+00 -0.68879595827E+03  0.68879595827E+03  0.00000000000E+00 0. -1.
    9900016    2    1    2    0    0 -0.23963421262E+03  0.36954543115E+03 -0.21083866345E+02  0.88197929041E+03  0.76384197171E+03 0.  0.
         25    2    3    3    0    0  0.66457387986E+02  0.12483785408E+03 -0.24345870567E+03  0.30805348960E+03  0.12499494733E+03 0.  0.
         23    2    4    4    0    0  0.26526650531E+02  0.79088912492E+02 -0.16544506291E+03  0.20600871606E+03  0.90048892194E+02 0.  0.
        -15    1    4    4    0    0  0.20354427799E+02  0.40552912798E+02 -0.57065947315E+02  0.72906541616E+02  0.00000000000E+00 0. -1.
        -15    1    5    5    0    0  0.50621077618E+02  0.36744031725E+02 -0.13438723209E+03  0.14823139180E+03  0.00000000000E+00 0.  1.
         15    1    4    4    0    0  0.19576309655E+02  0.51960287907E+01 -0.20947695447E+02  0.29138231921E+02  0.00000000000E+00 0.  1.
         15    1    5    5    0    0 -0.24094427087E+02  0.42344880767E+02 -0.31057830824E+02  0.57777324266E+02  0.00000000000E+00 0. -1.
        -16    1    1    2    0    0  0.23963421262E+03 -0.36954543115E+03 -0.32863300365E+02  0.44166545943E+03  0.00000000000E+00 0.  1.
         16    1    3    3    0    0 -0.30314611275E+03  0.21800165607E+03  0.27641819416E+03  0.46457432752E+03  0.00000000000E+00 0. -1.
    9900018    1    3    3    0    0 -0.29454878579E+01  0.26705920999E+02 -0.54043354833E+02  0.10935147329E+03  0.91187600000E+02 0.  0.
<mgrwt>
<rscale>  0 0.13225449E+04</rscale>
<asrwt>0</asrwt>
<pdfrwt beam="1">  1        3 0.10596861E+00 0.13225449E+04</pdfrwt>
<pdfrwt beam="2">  1       -3 0.97669046E-01 0.13225449E+04</pdfrwt>
<totfact> 0.18072972E+00</totfact>
</mgrwt>
</event>
<event>
12    1  0.1542525E-013  0.2649667E+04  0.7818608E-02  0.8351524E-01
         -2   -1    0    0    0  501 -0.00000000000E+00  0.00000000000E+00  0.86226021768E+03  0.86226021768E+03  0.00000000000E+00 0.  1.
          2   -1    0    0  501    0  0.00000000000E+00 -0.00000000000E+00 -0.20355615955E+04  0.20355615955E+04  0.00000000000E+00 0. -1.
    9900016    2    1    2    0    0 -0.96620743434E+03  0.12874291206E+03  0.16667727956E+03  0.12408141651E+04  0.74947110229E+03 0.  0.
         25    2    3    3    0    0 -0.82644931719E+02 -0.84133972946E+02  0.21826693135E+03  0.27780141771E+03  0.12499785687E+03 0.  0.
         23    2    4    4    0    0 -0.71251272777E+02 -0.50024797082E+02  0.15711232068E+03  0.19697922766E+03  0.80853637047E+02 0.  0.
        -15    1    4    4    0    0 -0.25275780307E+01 -0.13732583200E+02  0.56392848221E+02  0.58095833091E+02  0.00000000000E+00 0. -1.
        -15    1    5    5    0    0 -0.84953774193E+02 -0.31218013609E+02  0.97738784453E+02  0.13320877640E+03  0.00000000000E+00 0. -1.
         15    1    5    5    0    0  0.13702501416E+02 -0.18806783473E+02  0.59373536225E+02  0.63770451257E+02  0.00000000000E+00 0.  1.
         15    1    4    4    0    0 -0.88660809111E+01 -0.20376592665E+02  0.47617624463E+01  0.22726356966E+02  0.00000000000E+00 0.  1.
        -16    1    1    2    0    0  0.96620743434E+03 -0.12874291206E+03 -0.13399786574E+04  0.16570076481E+04  0.00000000000E+00 0.  1.
         16    1    3    3    0    0 -0.81260169864E+03  0.21672280198E+03 -0.77393861028E+02  0.84455911768E+03  0.00000000000E+00 0. -1.
    9900018    1    3    3    0    0 -0.70960803988E+02 -0.38459169772E+01  0.25804209246E+02  0.11845362970E+03  0.91187600000E+02 0.  0.
<mgrwt>
<rscale>  0 0.26496670E+04</rscale>
<asrwt>0</asrwt>
<pdfrwt beam="1">  1        2 0.31316331E+00 0.26496670E+04</pdfrwt>
<pdfrwt beam="2">  1       -2 0.13265542E+00 0.26496670E+04</pdfrwt>
<totfact> 0.23199796E+00</totfact>
</mgrwt>
</event>
<event>
12    1  0.1542525E-013  0.9685233E+03  0.7818608E-02  0.9343758E-01
          2   -1    0    0  501    0  0.00000000000E+00  0.00000000000E+00  0.12185912852E+04  0.12185912852E+04  0.00000000000E+00 0.  1.
         -2   -1    0    0    0  501 -0.00000000000E+00 -0.00000000000E+00 -0.19244298589E+03  0.19244298589E+03  0.00000000000E+00 0. -1.
    9900016    2    1    2    0    0 -0.49676146425E+02 -0.14925779012E+03  0.71860844588E+03  0.98902789313E+03  0.66108431192E+03 0.  0.
         25    2    3    3    0    0  0.13283088911E+03 -0.17877786263E+03  0.88204949253E+01  0.25555724749E+03  0.12500454529E+03 0.  0.
         23    2    4    4    0    0  0.78562787266E+02 -0.86924084804E+02  0.35548172644E+01  0.14352972722E+03  0.82826552555E+02 0.  0.
        -15    1    4    4    0    0  0.37046895360E+02 -0.56770529326E+02 -0.12775296739E+02  0.68982415604E+02  0.00000000000E+00 0.  1.
        -15    1    5    5    0    0  0.74531757826E+02 -0.43556019855E+02  0.31372245993E+02  0.91849483443E+02  0.00000000000E+00 0.  1.
         15    1    4    4    0    0  0.17221206480E+02 -0.35083248501E+02  0.18040974400E+02  0.43045104662E+02  0.00000000000E+00 0. -1.
         15    1    5    5    0    0  0.40310294407E+01 -0.43368064950E+02 -0.27817428728E+02  0.51680243777E+02  0.00000000000E+00 0. -1.
        -16    1    3    3    0    0 -0.18250703553E+03  0.29520072513E+02  0.70978795095E+03  0.73347064564E+03  0.00000000000E+00 0.  1.
         16    1    1    2    0    0  0.19485525561E+02  0.18498483877E+03  0.18643161484E+03  0.26335493785E+03  0.00000000000E+00 0. -1.
    9900018    1    1    2    0    0  0.30190620864E+02 -0.35727048654E+02  0.12110823856E+03  0.15865144006E+03  0.91187600000E+02 0.  0.
<mgrwt>
<rscale>  0 0.96852330E+03</rscale>
<asrwt>0</asrwt>
<pdfrwt beam="1">  1        2 0.18747558E+00 0.96852330E+03</pdfrwt>
<pdfrwt beam="2">  1       -2 0.29606614E-01 0.96852330E+03</pdfrwt>
<totfact> 0.19373134E+02</totfact>
</mgrwt>
</event>
<event>
12    1  0.1542525E-013  0.1185180E+04  0.7818608E-02  0.9125928E-01
          1   -1    0    0  501    0  0.00000000000E+00  0.00000000000E+00  0.16610691064E+04  0.16610691064E+04  0.00000000000E+00 0. -1.
         -1   -1    0    0    0  501 -0.00000000000E+00 -0.00000000000E+00 -0.21140790014E+03  0.21140790014E+03  0.00000000000E+00 0.  1.
    9900016    2    1    2    0    0  0.23838508495E+03  0.21673137347E+03  0.82892299385E+03  0.11731088164E+04  0.76503008341E+03 0.  0.
         25    2    3    3    0    0  0.19567455160E+03  0.80223455284E+02 -0.57407902556E+02  0.25227958073E+03  0.12499994662E+03 0.  0.
         23    2    4    4    0    0  0.13888319937E+03  0.45367871617E+02 -0.43194655525E+02  0.17740487248E+03  0.90884122218E+02 0.  0.
        -15    1    4    4    0    0  0.56711770957E+01  0.18341789252E+02  0.39519128087E+00  0.19202595105E+02  0.00000000000E+00 0. -1.
        -15    1    5    5    0    0  0.91620917627E+02  0.69410210371E+00  0.11611974260E+02  0.92356441415E+02  0.00000000000E+00 0.  1.
         15    1    5    5    0    0  0.47262281739E+02  0.44673769513E+02 -0.54806629785E+02  0.85048431062E+02  0.00000000000E+00 0. -1.
         15    1    4    4    0    0  0.51120175142E+02  0.16513794416E+02 -0.14608438312E+02  0.55672113149E+02  0.00000000000E+00 0.  1.
        -16    1    1    2    0    0 -0.23838508495E+03 -0.21673137347E+03  0.62073821245E+03  0.69936819013E+03  0.00000000000E+00 0.  1.
         16    1    3    3    0    0  0.34505639714E+02  0.71628462115E+02  0.69101216752E+03  0.69557105419E+03  0.00000000000E+00 0. -1.
    9900018    1    3    3    0    0  0.82048936300E+01  0.64879456066E+02  0.19531872888E+03  0.22525818153E+03  0.91187600000E+02 0.  0.
<mgrwt>
<rscale>  0 0.11851804E+04</rscale>
<asrwt>0</asrwt>
<pdfrwt beam="1">  1        1 0.25554908E+00 0.11851804E+04</pdfrwt>
<pdfrwt beam="2">  1       -1 0.32524293E-01 0.11851804E+04</pdfrwt>
<totfact> 0.44420488E+01</totfact>
</mgrwt>
</event>
<event>
12    1  0.1542525E-013  0.1545601E+04  0.7818608E-02  0.8854683E-01
         -1   -1    0    0    0  501 -0.00000000000E+00  0.00000000000E+00  0.19946495942E+03  0.19946495942E+03  0.00000000000E+00 0.  1.
          1   -1    0    0  501    0  0.00000000000E+00 -0.00000000000E+00 -0.29941122795E+04  0.29941122795E+04  0.00000000000E+00 0. -1.
    9900016    2    1    2    0    0 -0.12246491354E+03 -0.11792661357E+02 -0.53650697424E+03  0.85567878280E+03  0.65514099552E+03 0.  0.
         25    2    3    3    0    0  0.24235409370E+03 -0.63497407711E+02 -0.13536502568E+03  0.31099433127E+03  0.12500542544E+03 0.  0.
         23    2    4    4    0    0  0.20656149296E+03 -0.63795897102E+02 -0.12000313373E+03  0.26088698124E+03  0.83208761646E+02 0.  0.
        -15    1    4    4    0    0  0.10318627235E+02 -0.14232361849E+02 -0.14243026024E+01  0.17636973371E+02  0.00000000000E+00 0.  1.
        -15    1    5    5    0    0  0.75558264593E+02 -0.29329456552E+02 -0.91910866073E+02  0.12254336242E+03  0.00000000000E+00 0.  1.
         15    1    5    5    0    0  0.13100322837E+03 -0.34466440550E+02 -0.28092267653E+02  0.13834361882E+03  0.00000000000E+00 0. -1.
         15    1    4    4    0    0  0.25473973499E+02  0.14530851239E+02 -0.13937589351E+02  0.32470376660E+02  0.00000000000E+00 0. -1.
        -16    1    3    3    0    0 -0.36481900724E+03  0.51704746355E+02 -0.40114194856E+03  0.54468445152E+03  0.00000000000E+00 0.  1.
         16    1    1    2    0    0  0.22050735727E+03  0.28930579749E+01 -0.21610398943E+04  0.21722627118E+04  0.00000000000E+00 0. -1.
    9900018    1    1    2    0    0 -0.98042443729E+02  0.88996033818E+01 -0.97100451586E+02  0.16563574434E+03  0.91187600000E+02 0.  0.
<mgrwt>
<rscale>  0 0.15456008E+04</rscale>
<asrwt>0</asrwt>
<pdfrwt beam="1">  1        1 0.46063262E+00 0.15456008E+04</pdfrwt>
<pdfrwt beam="2">  1       -1 0.30686920E-01 0.15456008E+04</pdfrwt>
<totfact> 0.57367627E+00</totfact>
</mgrwt>
</event>
<event>
12    1  0.1542525E-013  0.1321270E+04  0.7818608E-02  0.9012866E-01
         -3   -1    0    0    0  501 -0.00000000000E+00  0.00000000000E+00  0.12547812909E+04  0.12547812909E+04  0.00000000000E+00 0.  1.
          3   -1    0    0  501    0  0.00000000000E+00 -0.00000000000E+00 -0.34782067967E+03  0.34782067967E+03  0.00000000000E+00 0. -1.
    9900016    2    1    2    0    0 -0.31316467755E+03  0.36387306583E+02  0.62513705095E+03  0.96081874333E+03  0.65801228995E+03 0.  0.
         25    2    3    3    0    0 -0.77665718205E+02  0.11508699190E+03 -0.87401211813E+02  0.20625650188E+03  0.12500317297E+03 0.  0.
         23    2    4    4    0    0 -0.50509020718E+02  0.11918434580E+03 -0.66569723311E+02  0.16892680718E+03  0.85724376145E+02 0.  0.
        -15    1    4    4    0    0 -0.79805411812E+01 -0.76436897970E+01 -0.10576838775E+02  0.15296553525E+02  0.00000000000E+00 0. -1.
        -15    1    5    5    0    0 -0.70812845381E+02  0.63677027953E+02 -0.32053405025E+02  0.10048205677E+03  0.00000000000E+00 0. -1.
         15    1    5    5    0    0  0.20303824662E+02  0.55507317846E+02 -0.34516318286E+02  0.68444750408E+02  0.00000000000E+00 0.  1.
         15    1    4    4    0    0 -0.19176156306E+02  0.35463358944E+01 -0.10254649726E+02  0.22033141173E+02  0.00000000000E+00 0.  1.
        -16    1    3    3    0    0 -0.23549895934E+03 -0.78699685313E+02  0.71253826277E+03  0.75456224145E+03  0.00000000000E+00 0.  1.
         16    1    1    2    0    0  0.40237221529E+03 -0.29691252682E+02  0.93393162555E+02  0.41413434166E+03  0.00000000000E+00 0. -1.
    9900018    1    1    2    0    0 -0.89207537747E+02 -0.66960539017E+01  0.18843039770E+03  0.22764888557E+03  0.91187600000E+02 0.  0.
<mgrwt>
<rscale>  0 0.13212704E+04</rscale>
<asrwt>0</asrwt>
<pdfrwt beam="1">  1        3 0.53510874E-01 0.13212704E+04</pdfrwt>
<pdfrwt beam="2">  1       -3 0.19304327E+00 0.13212704E+04</pdfrwt>
<totfact> 0.14362766E+00</totfact>
</mgrwt>
</event>
<event>
12    1  0.1542525E-013  0.9899414E+03  0.7818608E-02  0.9319646E-01
         -2   -1    0    0    0  501 -0.00000000000E+00  0.00000000000E+00  0.29410760074E+03  0.29410760074E+03  0.00000000000E+00 0.  1.
          2   -1    0    0  501    0  0.00000000000E+00 -0.00000000000E+00 -0.83301484303E+03  0.83301484303E+03  0.00000000000E+00 0. -1.
    9900016    2    1    2    0    0  0.20041195470E+03 -0.37396960751E+02 -0.34284375163E+03  0.77559675689E+03  0.66516539823E+03 0.  0.
         25    2    3    3    0    0 -0.69854652492E+02 -0.18438271710E+03  0.85152078704E+02  0.24850162096E+03  0.12500208107E+03 0.  0.
         23    2    4    4    0    0 -0.49529266419E+02 -0.15576396453E+03  0.79894313675E+02  0.20365092462E+03  0.91515227494E+02 0.  0.
        -15    1    4    4    0    0 -0.11093252448E+02  0.27876442581E+01  0.39091848878E+01  0.12087718431E+02  0.00000000000E+00 0.  1.
        -15    1    5    5    0    0 -0.68447410106E+02 -0.12221190637E+03  0.86414259477E+02  0.16458500008E+03  0.00000000000E+00 0. -1.
         15    1    4    4    0    0 -0.92321336260E+01 -0.31406396825E+02  0.13485801412E+01  0.32762977905E+02  0.00000000000E+00 0. -1.
         15    1    5    5    0    0  0.18918143688E+02 -0.33552058158E+02 -0.65199458023E+01  0.39065924544E+02  0.00000000000E+00 0.  1.
        -16    1    3    3    0    0  0.27026660720E+03  0.14698575635E+03 -0.42799583034E+03  0.52709513593E+03  0.00000000000E+00 0.  1.
         16    1    1    2    0    0 -0.19530449970E+03  0.36281386485E+02 -0.15192356693E+03  0.25008190017E+03  0.00000000000E+00 0. -1.
    9900018    1    1    2    0    0 -0.51074550087E+01  0.11155742660E+01 -0.44139923723E+02  0.10144378671E+03  0.91187600000E+02 0.  0.
<mgrwt>
<rscale>  0 0.98994141E+03</rscale>
<asrwt>0</asrwt>
<pdfrwt beam="1">  1        2 0.12815613E+00 0.98994141E+03</pdfrwt>
<pdfrwt beam="2">  1       -2 0.45247323E-01 0.98994141E+03</pdfrwt>
<totfact> 0.15089258E+02</totfact>
</mgrwt>
</event>
<event>
12    1  0.1542525E-013  0.1044976E+04  0.7818608E-02  0.9260546E-01
         -2   -1    0    0    0  501 -0.00000000000E+00  0.00000000000E+00  0.69342740934E+03  0.69342740934E+03  0.00000000000E+00 0. -1.
          2   -1    0    0  501    0  0.00000000000E+00 -0.00000000000E+00 -0.39368750218E+03  0.39368750218E+03  0.00000000000E+00 0.  1.
    9900016    2    1    2    0    0  0.11303221480E+03  0.19634975807E+03  0.31355429731E+03  0.86013397300E+03  0.76823475909E+03 0.  0.
         25    2    3    3    0    0  0.27353872270E+03 -0.10943700315E+03 -0.16679731320E+02  0.32047407679E+03  0.12500211991E+03 0.  0.
         23    2    4    4    0    0  0.21873829530E+03 -0.76755929136E+02 -0.36856888655E+02  0.24835322430E+03  0.81135561189E+02 0.  0.
        -15    1    4    4    0    0  0.44100158347E+02 -0.37032913033E+02  0.18251424337E+02  0.60410057973E+02  0.00000000000E+00 0. -1.
        -15    1    5    5    0    0  0.59894599384E+02 -0.57115045407E+02 -0.30404410619E+02  0.88169834027E+02  0.00000000000E+00 0.  1.
         15    1    5    5    0    0  0.15884369592E+03 -0.19640883729E+02 -0.64524780360E+01  0.16018339027E+03  0.00000000000E+00 0. -1.
         15    1    4    4    0    0  0.10700269049E+02  0.43518390226E+01  0.19257329982E+01  0.11710794515E+02  0.00000000000E+00 0.  1.
        -16    1    1    2    0    0 -0.11303221480E+03 -0.19634975807E+03 -0.13814390149E+02  0.22698093852E+03  0.00000000000E+00 0.  1.
         16    1    3    3    0    0 -0.16130567456E+03  0.21218400439E+03  0.30763663846E+03  0.40704038336E+03  0.00000000000E+00 0. -1.
    9900018    1    3    3    0    0  0.79916665968E+00  0.93602756823E+02  0.22597390171E+02  0.13261951285E+03  0.91187600000E+02 0.  0.
<mgrwt>
<rscale>  0 0.10449760E+04</rscale>
<asrwt>0</asrwt>
<pdfrwt beam="1">  1        2 0.60567308E-01 0.10449760E+04</pdfrwt>
<pdfrwt beam="2">  1       -2 0.10668114E+00 0.10449760E+04</pdfrwt>
<totfact> 0.57054257E+01</totfact>
</mgrwt>
</event>
<event>
12    1  0.1542525E-013  0.8808317E+03  0.7818608E-02  0.9449865E-01
         -2   -1    0    0    0  501 -0.00000000000E+00  0.00000000000E+00  0.23282750280E+03  0.23282750280E+03  0.00000000000E+00 0.  1.
          2   -1    0    0  501    0  0.00000000000E+00 -0.00000000000E+00 -0.83308937851E+03  0.83308937851E+03  0.00000000000E+00 0. -1.
    9900016    2    1    2    0    0 -0.43121134539E+02  0.16468910885E+02 -0.47854042744E+03  0.81619816866E+03  0.65958157385E+03 0.  0.
         25    2    3    3    0    0 -0.23507463757E+02 -0.29537167397E+03 -0.12671743108E+03  0.34565734449E+03  0.12499866328E+03 0.  0.
         23    2    4    4    0    0 -0.17195992090E+02 -0.23504641314E+03 -0.10622368255E+03  0.27192893958E+03  0.84376293879E+02 0.  0.
        -15    1    4    4    0    0 -0.16369273424E+02 -0.58260628651E+02 -0.16653048763E+02  0.62766057678E+02  0.00000000000E+00 0. -1.
        -15    1    5    5    0    0 -0.23774041930E+02 -0.13515566855E+03 -0.10332506122E+03  0.17177988267E+03  0.00000000000E+00 0.  1.
         15    1    5    5    0    0  0.65780498405E+01 -0.99890744591E+02 -0.28986213285E+01  0.10014905691E+03  0.00000000000E+00 0. -1.
         15    1    4    4    0    0  0.10057801756E+02 -0.20646321750E+01 -0.38406997684E+01  0.10962347235E+02  0.00000000000E+00 0.  1.
        -16    1    1    2    0    0  0.10081191094E+03  0.21529582571E+02 -0.66636778665E+02  0.12274780888E+03  0.00000000000E+00 0.  1.
         16    1    3    3    0    0 -0.19613670781E+02  0.31184058486E+03 -0.35182299636E+03  0.47054082417E+03  0.00000000000E+00 0. -1.
    9900018    1    1    2    0    0 -0.57690776400E+02 -0.37998493456E+02 -0.55084669594E+02  0.12697090377E+03  0.91187600000E+02 0.  0.
<mgrwt>
<rscale>  0 0.88083170E+03</rscale>
<asrwt>0</asrwt>
<pdfrwt beam="1">  1        2 0.12816760E+00 0.88083170E+03</pdfrwt>
<pdfrwt beam="2">  1       -2 0.35819616E-01 0.88083170E+03</pdfrwt>
<totfact> 0.23963090E+02</totfact>
</mgrwt>
</event>
<event>
12    1  0.1542525E-013  0.1316919E+04  0.7818608E-02  0.9016255E-01
         -1   -1    0    0    0  501 -0.00000000000E+00  0.00000000000E+00  0.14110330565E+04  0.14110330565E+04  0.00000000000E+00 0.  1.
          1   -1    0    0  501    0  0.00000000000E+00 -0.00000000000E+00 -0.30727067235E+03  0.30727067235E+03  0.00000000000E+00 0. -1.
    9900016    2    1    2    0    0  0.23644787375E+03 -0.28204293601E+02  0.20339721735E+03  0.73069747730E+03  0.66018580425E+03 0.  0.
         25    2    3    3    0    0 -0.25546497706E+02 -0.20459778238E+02 -0.20683658716E+03  0.24387841178E+03  0.12499631944E+03 0.  0.
         23    2    4    4    0    0 -0.18632867341E+02 -0.30114201179E+01 -0.14675815213E+03  0.17027628177E+03  0.84260337766E+02 0.  0.
        -15    1    4    4    0    0  0.61799592104E+01 -0.22259317142E+02 -0.18042603288E+02  0.29312192496E+02  0.00000000000E+00 0. -1.
        -15    1    5    5    0    0  0.30070962357E+02  0.15708062386E+02 -0.51654629352E+02  0.61799730861E+02  0.00000000000E+00 0. -1.
         15    1    4    4    0    0 -0.13093589576E+02  0.48109590220E+01 -0.42035831743E+02  0.44289937514E+02  0.00000000000E+00 0.  1.
         15    1    5    5    0    0 -0.48703829697E+02 -0.18719482504E+02 -0.95103522779E+02  0.10847655091E+03  0.00000000000E+00 0.  1.
        -16    1    1    2    0    0 -0.27255525952E+03  0.16125824760E+02  0.80592371371E+03  0.85091682557E+03  0.00000000000E+00 0.  1.
         16    1    3    3    0    0  0.26199437146E+03 -0.77445153624E+01  0.41023380451E+03  0.48681906552E+03  0.00000000000E+00 0. -1.
    9900018    1    1    2    0    0  0.36107385767E+02  0.12078468840E+02  0.94441453088E+02  0.13668942597E+03  0.91187600000E+02 0.  0.
<mgrwt>
<rscale>  0 0.13169192E+04</rscale>
<asrwt>0</asrwt>
<pdfrwt beam="1">  1        1 0.47272412E-01 0.13169192E+04</pdfrwt>
<pdfrwt beam="2">  1       -1 0.21708200E+00 0.13169192E+04</pdfrwt>
<totfact> 0.96029886E+00</totfact>
</mgrwt>
</event>
<event>
12    1  0.1542525E-013  0.9079593E+03  0.7818608E-02  0.9415686E-01
         -2   -1    0    0    0  501 -0.00000000000E+00  0.00000000000E+00  0.17727413899E+03  0.17727413899E+03  0.00000000000E+00 0. -1.
          2   -1    0    0  501    0  0.00000000000E+00 -0.00000000000E+00 -0.11625921350E+04  0.11625921350E+04  0.00000000000E+00 0.  1.
    9900016    2    1    2    0    0 -0.12602119347E+02  0.23870073496E+02 -0.10335206453E+04  0.12846205573E+04  0.76246734888E+03 0.  0.
         25    2    3    3    0    0 -0.27671791100E+03  0.12825461463E+03 -0.50054413835E+03  0.59932377726E+03  0.12499002805E+03 0.  0.
         23    2    4    4    0    0 -0.23154888322E+03  0.81307877652E+02 -0.38298639516E+03  0.46419982417E+03  0.92612318788E+02 0.  0.
        -15    1    4    4    0    0 -0.19681870831E+02  0.12469711838E+02 -0.49107658690E+02  0.54354686042E+02  0.00000000000E+00 0. -1.
        -15    1    5    5    0    0 -0.14801195969E+03  0.82504244885E+02 -0.19409581406E+03  0.25765805959E+03  0.00000000000E+00 0. -1.
         15    1    5    5    0    0 -0.83536923532E+02 -0.11963672337E+01 -0.18889058110E+03  0.20654176458E+03  0.00000000000E+00 0.  1.
         15    1    4    4    0    0 -0.25487156942E+02  0.34477025137E+02 -0.68450084497E+02  0.80769267045E+02  0.00000000000E+00 0.  1.
        -16    1    3    3    0    0  0.28238955542E+03 -0.15276683346E+03 -0.35425902888E+03  0.47810148081E+03  0.00000000000E+00 0.  1.
         16    1    1    2    0    0  0.12602119347E+02 -0.23870073496E+02  0.48202649270E+02  0.55245716733E+02  0.00000000000E+00 0. -1.
    9900018    1    3    3    0    0 -0.18273763766E+02  0.48382292327E+02 -0.17871747809E+03  0.20719529923E+03  0.91187600000E+02 0.  0.
<mgrwt>
<rscale>  0 0.90795929E+03</rscale>
<asrwt>0</asrwt>
<pdfrwt beam="1">  1        2 0.17886033E+00 0.90795929E+03</pdfrwt>
<pdfrwt beam="2">  1       -2 0.27272944E-01 0.90795929E+03</pdfrwt>
<totfact> 0.24428673E+02</totfact>
</mgrwt>
</event>
<event>
12    1  0.1542525E-013  0.1303796E+04  0.7818608E-02  0.9026560E-01
         -2   -1    0    0    0  501 -0.00000000000E+00  0.00000000000E+00  0.37352134382E+03  0.37352134382E+03  0.00000000000E+00 0.  1.
          2   -1    0    0  501    0  0.00000000000E+00 -0.00000000000E+00 -0.11377427789E+04  0.11377427789E+04  0.00000000000E+00 0. -1.
    9900016    2    1    2    0    0  0.30570222051E+03  0.11868411691E+03 -0.83681587165E+03  0.11753925409E+04  0.75746092633E+03 0.  0.
         25    2    3    3    0    0  0.16087557474E+03 -0.79726825963E+02  0.40151207312E+02  0.22243459892E+03  0.12501085562E+03 0.  0.
         23    2    4    4    0    0  0.86366012120E+02 -0.47221867774E+02  0.33786170524E+02  0.13787656097E+03  0.90440300196E+02 0.  0.
        -15    1    4    4    0    0  0.34428138376E+02 -0.52281047659E+01  0.91203339063E+01  0.35997364932E+02  0.00000000000E+00 0.  1.
        -15    1    5    5    0    0  0.48396249929E+02 -0.70691230487E+02  0.36576261044E+02  0.93151864968E+02  0.00000000000E+00 0.  1.
         15    1    4    4    0    0  0.40081424244E+02 -0.27276853424E+02 -0.27552971188E+01  0.48560673022E+02  0.00000000000E+00 0. -1.
         15    1    5    5    0    0  0.37969762191E+02  0.23469362714E+02 -0.27900905203E+01  0.44724695998E+02  0.00000000000E+00 0. -1.
        -16    1    1    2    0    0 -0.30570222051E+03 -0.11868411691E+03  0.72594436599E+02  0.33587158179E+03  0.00000000000E+00 0.  1.
         16    1    3    3    0    0  0.13091432390E+03  0.16808731308E+03 -0.80330882252E+03  0.83108180666E+03  0.00000000000E+00 0. -1.
    9900018    1    3    3    0    0  0.13912321868E+02  0.30323629796E+02 -0.73658256438E+02  0.12187613531E+03  0.91187600000E+02 0.  0.
<mgrwt>
<rscale>  0 0.13037963E+04</rscale>
<asrwt>0</asrwt>
<pdfrwt beam="1">  1        2 0.17503735E+00 0.13037963E+04</pdfrwt>
<pdfrwt beam="2">  1       -2 0.57464822E-01 0.13037963E+04</pdfrwt>
<totfact> 0.57411707E+01</totfact>
</mgrwt>
</event>
<event>
12    1  0.1542525E-013  0.1228198E+04  0.7818608E-02  0.9088527E-01
          2   -1    0    0  501    0  0.00000000000E+00  0.00000000000E+00  0.49600118189E+03  0.49600118189E+03  0.00000000000E+00 0. -1.
         -2   -1    0    0    0  501 -0.00000000000E+00 -0.00000000000E+00 -0.76031531445E+03  0.76031531445E+03  0.00000000000E+00 0.  1.
    9900016    2    1    2    0    0  0.35875064489E+03  0.95195719120E+02 -0.19771554641E+03  0.78913274488E+03  0.66773857280E+03 0.  0.
         25    2    3    3    0    0  0.40542889878E+03  0.37203883316E+01  0.13156619041E+03  0.44420803175E+03  0.12499871901E+03 0.  0.
         23    2    4    4    0    0  0.34749342467E+03  0.11285108750E+02  0.11457930030E+03  0.37711773692E+03  0.90610913122E+02 0.  0.
        -15    1    4    4    0    0  0.26330485814E+02 -0.16772825269E+02  0.13410963795E+02  0.33977582325E+02  0.00000000000E+00 0.  1.
        -15    1    5    5    0    0  0.11567351461E+03  0.36316496591E+02  0.69122614149E+02  0.13956068821E+03  0.00000000000E+00 0.  1.
         15    1    4    4    0    0  0.31604988298E+02  0.92081048506E+01  0.35759263182E+01  0.33112712503E+02  0.00000000000E+00 0. -1.
         15    1    5    5    0    0  0.23181991006E+03 -0.25031387842E+02  0.45456686147E+02  0.23755704871E+03  0.00000000000E+00 0. -1.
        -16    1    1    2    0    0 -0.36007770627E+03 -0.88394142775E+02 -0.48024975504E+02  0.37386612216E+03  0.00000000000E+00 0.  1.
         16    1    3    3    0    0 -0.46678253892E+02  0.91475330788E+02 -0.32928173682E+03  0.34492471313E+03  0.00000000000E+00 0. -1.
    9900018    1    1    2    0    0  0.13270613800E+01 -0.68015763451E+01 -0.18573610653E+02  0.93317629305E+02  0.91187600000E+02 0.  0.
<mgrwt>
<rscale>  0 0.12281975E+04</rscale>
<asrwt>0</asrwt>
<pdfrwt beam="1">  1        2 0.76307874E-01 0.12281975E+04</pdfrwt>
<pdfrwt beam="2">  1       -2 0.11697159E+00 0.12281975E+04</pdfrwt>
<totfact> 0.34619934E+01</totfact>
</mgrwt>
</event>
<event>
12    1  0.1542525E-013  0.8887166E+03  0.7818608E-02  0.9439797E-01
          2   -1    0    0  501    0  0.00000000000E+00  0.00000000000E+00  0.20289122814E+04  0.20289122814E+04  0.00000000000E+00 0. -1.
         -2   -1    0    0    0  501 -0.00000000000E+00 -0.00000000000E+00 -0.97320278977E+02  0.97320278977E+02  0.00000000000E+00 0.  1.
    9900016    2    1    2    0    0  0.74281760597E+02 -0.12369923196E+03  0.14671585815E+04  0.16162163187E+04  0.66240592214E+03 0.  0.
         25    2    3    3    0    0  0.30462986441E+03  0.10216942168E+03  0.89920243999E+03  0.96303098797E+03  0.12500284271E+03 0.  0.
         23    2    4    4    0    0  0.28002438968E+03  0.95376579799E+02  0.85006615566E+03  0.90442494799E+03  0.88666040552E+02 0.  0.
        -15    1    4    4    0    0  0.10060870508E+02  0.12644111263E+02  0.27323481779E+02  0.31743776107E+02  0.00000000000E+00 0.  1.
        -15    1    5    5    0    0  0.24791744860E+03  0.10046551774E+03  0.66961505780E+03  0.72106914177E+03  0.00000000000E+00 0. -1.
         15    1    5    5    0    0  0.32106941078E+02 -0.50889379378E+01  0.18045109786E+03  0.18335580622E+03  0.00000000000E+00 0.  1.
         15    1    4    4    0    0  0.14544604229E+02 -0.58512693806E+01  0.21812802546E+02  0.26862263874E+02  0.00000000000E+00 0. -1.
        -16    1    3    3    0    0 -0.23034810382E+03 -0.22586865364E+03  0.56795614147E+03  0.65318533071E+03  0.00000000000E+00 0.  1.
         16    1    1    2    0    0 -0.61728948688E+02  0.93455832339E+02  0.21495481745E+03  0.24238405321E+03  0.00000000000E+00 0. -1.
    9900018    1    1    2    0    0 -0.12552811909E+02  0.30243399618E+02  0.24947860349E+03  0.26763218846E+03  0.91187600000E+02 0.  0.
<mgrwt>
<rscale>  0 0.88871662E+03</rscale>
<asrwt>0</asrwt>
<pdfrwt beam="1">  1        2 0.31214032E+00 0.88871662E+03</pdfrwt>
<pdfrwt beam="2">  1       -2 0.14972352E-01 0.88871662E+03</pdfrwt>
<totfact> 0.22925533E+02</totfact>
</mgrwt>
</event>
<event>
12    1  0.1542525E-013  0.1322751E+04  0.7818608E-02  0.9011716E-01
         -2   -1    0    0    0  501 -0.00000000000E+00  0.00000000000E+00  0.34336393542E+03  0.34336393542E+03  0.00000000000E+00 0.  1.
          2   -1    0    0  501    0  0.00000000000E+00 -0.00000000000E+00 -0.12739178950E+04  0.12739178950E+04  0.00000000000E+00 0. -1.
    9900016    2    1    2    0    0  0.11231756921E+03 -0.27766662304E+03 -0.20614017133E+03  0.83338813449E+03  0.74988533962E+03 0.  0.
         25    2    3    3    0    0  0.68054102518E+02  0.17838416208E+03 -0.18133774148E+03  0.29148026847E+03  0.12500040108E+03 0.  0.
         23    2    4    4    0    0  0.70461118563E+02  0.15802711508E+03 -0.16051914445E+03  0.25300022815E+03  0.91133865151E+02 0.  0.
        -15    1    4    4    0    0  0.87647983930E+01  0.53894672016E+01  0.29185433098E+00  0.10293358370E+02  0.00000000000E+00 0.  1.
        -15    1    5    5    0    0 -0.18483408198E+02  0.87213208302E+01 -0.86138918413E+01  0.22178749927E+02  0.00000000000E+00 0.  1.
         15    1    5    5    0    0  0.88944526761E+02  0.14930579425E+03 -0.15190525261E+03  0.23082147822E+03  0.00000000000E+00 0. -1.
         15    1    4    4    0    0 -0.11171814438E+02  0.14967579800E+02 -0.21110451359E+02  0.28186681952E+02  0.00000000000E+00 0. -1.
        -16    1    3    3    0    0  0.32503616744E+02 -0.41642256221E+03  0.44633200696E+02  0.42006708752E+03  0.00000000000E+00 0.  1.
         16    1    1    2    0    0 -0.11231756921E+03  0.27766662304E+03 -0.72441378821E+03  0.78389369589E+03  0.00000000000E+00 0. -1.
    9900018    1    3    3    0    0  0.11759849952E+02 -0.39628222913E+02 -0.69435630547E+02  0.12184077850E+03  0.91187600000E+02 0.  0.
<mgrwt>
<rscale>  0 0.13227509E+04</rscale>
<asrwt>0</asrwt>
<pdfrwt beam="1">  1        2 0.19598737E+00 0.13227509E+04</pdfrwt>
<pdfrwt beam="2">  1       -2 0.52825220E-01 0.13227509E+04</pdfrwt>
<totfact> 0.56633023E+01</totfact>
</mgrwt>
</event>
<event>
12    1  0.1542525E-013  0.9694825E+03  0.7818608E-02  0.9342664E-01
          1   -1    0    0  501    0  0.00000000000E+00  0.00000000000E+00  0.41676164150E+03  0.41676164150E+03  0.00000000000E+00 0. -1.
         -1   -1    0    0    0  501 -0.00000000000E+00 -0.00000000000E+00 -0.56380926714E+03  0.56380926714E+03  0.00000000000E+00 0.  1.
    9900016    2    1    2    0    0  0.44979966517E+02  0.17495198788E+03 -0.13660346933E+03  0.79962761407E+03  0.76688487917E+03 0.  0.
         25    2    3    3    0    0  0.75707420517E+02 -0.10531940420E+03  0.18938082742E+03  0.26137027099E+03  0.12500212133E+03 0.  0.
         23    2    4    4    0    0  0.60802274030E+02 -0.69403643784E+02  0.14972815894E+03  0.19805488867E+03  0.91068298828E+02 0.  0.
        -15    1    4    4    0    0 -0.78897580737E+01 -0.19898676425E+02  0.15286054623E+02  0.26303404188E+02  0.00000000000E+00 0.  1.
        -15    1    5    5    0    0  0.70021830074E+02 -0.11711651935E+02  0.76317499045E+02  0.10423329669E+03  0.00000000000E+00 0.  1.
         15    1    5    5    0    0 -0.92195560435E+01 -0.57691991849E+02  0.73410659893E+02  0.93821591987E+02  0.00000000000E+00 0. -1.
         15    1    4    4    0    0  0.22794904560E+02 -0.16017083995E+02  0.24366613859E+02  0.37011978123E+02  0.00000000000E+00 0. -1.
        -16    1    1    2    0    0 -0.44979966517E+02 -0.17495198788E+03 -0.10444156308E+02  0.18094329457E+03  0.00000000000E+00 0.  1.
         16    1    3    3    0    0 -0.85444242089E+02  0.29859309508E+03 -0.28884412228E+03  0.42413380190E+03  0.00000000000E+00 0. -1.
    9900018    1    3    3    0    0  0.54716788089E+02 -0.18321703000E+02 -0.37140174468E+02  0.11412354119E+03  0.91187600000E+02 0.  0.
<mgrwt>
<rscale>  0 0.96948249E+03</rscale>
<asrwt>0</asrwt>
<pdfrwt beam="1">  1        1 0.64117176E-01 0.96948249E+03</pdfrwt>
<pdfrwt beam="2">  1       -1 0.86739887E-01 0.96948249E+03</pdfrwt>
<totfact> 0.74762571E+01</totfact>
</mgrwt>
</event>
<event>
12    1  0.1542525E-013  0.1485525E+04  0.7818608E-02  0.8894136E-01
          2   -1    0    0  501    0  0.00000000000E+00  0.00000000000E+00  0.65411968430E+03  0.65411968430E+03  0.00000000000E+00 0. -1.
         -2   -1    0    0    0  501 -0.00000000000E+00 -0.00000000000E+00 -0.84341750436E+03  0.84341750436E+03  0.00000000000E+00 0.  1.
    9900016    2    1    2    0    0  0.34001532487E+03 -0.62042987311E+01 -0.51843892396E+03  0.90674622854E+03  0.66163501314E+03 0.  0.
         25    2    3    3    0    0 -0.49376437932E+02  0.27359415753E+02  0.10375503796E+03  0.17198246097E+03  0.12500515480E+03 0.  0.
         23    2    4    4    0    0 -0.10787240545E+02  0.12937551361E+02  0.72958193153E+02  0.11769235723E+03  0.90801146519E+02 0.  0.
        -15    1    4    4    0    0 -0.12374316370E+02 -0.50901506267E+00  0.17210128612E+02  0.21203097151E+02  0.00000000000E+00 0. -1.
        -15    1    5    5    0    0  0.23431910880E+02 -0.31621779334E+01  0.76154102627E+02  0.79740210457E+02  0.00000000000E+00 0. -1.
         15    1    5    5    0    0 -0.34219151425E+02  0.16099729294E+02 -0.31959094742E+01  0.37952146776E+02  0.00000000000E+00 0.  1.
         15    1    4    4    0    0 -0.26214881017E+02  0.14930879455E+02  0.13586716198E+02  0.33087006590E+02  0.00000000000E+00 0.  1.
        -16    1    3    3    0    0  0.38939176280E+03 -0.33563714484E+02 -0.62219396192E+03  0.73476376756E+03  0.00000000000E+00 0.  1.
         16    1    1    2    0    0 -0.35240236550E+03  0.21597328023E+02  0.34784519683E+03  0.49563106515E+03  0.00000000000E+00 0. -1.
    9900018    1    1    2    0    0  0.12387040631E+02 -0.15393029292E+02 -0.18704092926E+02  0.95159894978E+02  0.91187600000E+02 0.  0.
<mgrwt>
<rscale>  0 0.14855248E+04</rscale>
<asrwt>0</asrwt>
<pdfrwt beam="1">  1        2 0.10063380E+00 0.14855248E+04</pdfrwt>
<pdfrwt beam="2">  1       -2 0.12975654E+00 0.14855248E+04</pdfrwt>
<totfact> 0.18822825E+01</totfact>
</mgrwt>
</event>
<event>
12    1  0.1542525E-013  0.1141198E+04  0.7818608E-02  0.9165942E-01
          2   -1    0    0  501    0  0.00000000000E+00  0.00000000000E+00  0.98782302162E+03  0.98782302162E+03  0.00000000000E+00 0. -1.
         -2   -1    0    0    0  501 -0.00000000000E+00 -0.00000000000E+00 -0.32959690676E+03  0.32959690676E+03  0.00000000000E+00 0.  1.
    9900016    2    1    2    0    0 -0.16649720928E+03 -0.26627713269E+03  0.49857488475E+03  0.88243486828E+03  0.65687864097E+03 0.  0.
         25    2    3    3    0    0  0.15494382165E+03 -0.11459676517E+03 -0.43926358870E+02  0.23386808715E+03  0.12499900290E+03 0.  0.
         23    2    4    4    0    0  0.12263664688E+03 -0.10139188856E+03 -0.57399701977E+02  0.19205462566E+03  0.90940591744E+02 0.  0.
        -15    1    4    4    0    0  0.24449178520E+02 -0.42899705761E+00  0.66882205970E+01  0.25351107738E+02  0.00000000000E+00 0.  1.
        -15    1    5    5    0    0 -0.10150795626E+01 -0.44166631410E+02  0.71271281410E-01  0.44178352122E+02  0.00000000000E+00 0.  1.
         15    1    5    5    0    0  0.12365172645E+03 -0.57225257153E+02 -0.57470973258E+02  0.14787627354E+03  0.00000000000E+00 0. -1.
         15    1    4    4    0    0  0.78579962479E+01 -0.12775879552E+02  0.67851225102E+01  0.16462353745E+02  0.00000000000E+00 0. -1.
        -16    1    3    3    0    0 -0.32144103093E+03 -0.15168036751E+03  0.54250124362E+03  0.64856678113E+03  0.00000000000E+00 0.  1.
         16    1    1    2    0    0  0.16254550842E+03  0.26606509924E+03  0.13919026779E+03  0.34144635009E+03  0.00000000000E+00 0. -1.
    9900018    1    1    2    0    0  0.39517008550E+01  0.21203344368E+00  0.20460962310E+02  0.93538710010E+02  0.91187600000E+02 0.  0.
<mgrwt>
<rscale>  0 0.11411983E+04</rscale>
<asrwt>0</asrwt>
<pdfrwt beam="1">  1        2 0.15197277E+00 0.11411983E+04</pdfrwt>
<pdfrwt beam="2">  1       -2 0.50707217E-01 0.11411983E+04</pdfrwt>
<totfact> 0.93391620E+01</totfact>
</mgrwt>
</event>
<event>
12    1  0.1542525E-013  0.1034765E+04  0.7818608E-02  0.9271216E-01
         -2   -1    0    0    0  501 -0.00000000000E+00  0.00000000000E+00  0.23659506256E+03  0.23659506256E+03  0.00000000000E+00 0.  1.
          2   -1    0    0  501    0  0.00000000000E+00 -0.00000000000E+00 -0.11314050988E+04  0.11314050988E+04  0.00000000000E+00 0. -1.
    9900016    2    1    2    0    0  0.14187770217E+03  0.17354867767E+03 -0.65772618718E+03  0.95834978844E+03  0.65998648002E+03 0.  0.
         25    2    3    3    0    0 -0.15647996186E+03 -0.13889170223E+03 -0.12961728894E+03  0.27604831909E+03  0.12500059787E+03 0.  0.
         23    2    4    4    0    0 -0.11731141814E+03 -0.13551629338E+03 -0.11699024163E+03  0.23297252539E+03  0.91993729973E+02 0.  0.
        -15    1    4    4    0    0 -0.27761870563E+02  0.11036132353E+01 -0.13299408164E+02  0.30802819300E+02  0.00000000000E+00 0.  1.
        -15    1    5    5    0    0 -0.13058703830E+03 -0.13304150924E+03 -0.11569892570E+03  0.21940660692E+03  0.00000000000E+00 0.  1.
         15    1    5    5    0    0  0.13275620159E+02 -0.24747841383E+01 -0.12913159281E+01  0.13565918471E+02  0.00000000000E+00 0. -1.
         15    1    4    4    0    0 -0.11406673158E+02 -0.44790220878E+01  0.67236085281E+00  0.12272974396E+02  0.00000000000E+00 0. -1.
        -16    1    1    2    0    0 -0.17442754123E+03 -0.14897223019E+03 -0.13195903298E+03  0.26463348029E+03  0.00000000000E+00 0.  1.
         16    1    3    3    0    0  0.29835766404E+03  0.31244037990E+03 -0.52810889824E+03  0.68230146935E+03  0.00000000000E+00 0. -1.
    9900018    1    1    2    0    0  0.32549839058E+02 -0.24576447481E+02 -0.10512481608E+03  0.14501689261E+03  0.91187600000E+02 0.  0.
<mgrwt>
<rscale>  0 0.10347654E+04</rscale>
<asrwt>0</asrwt>
<pdfrwt beam="1">  1        2 0.17406232E+00 0.10347654E+04</pdfrwt>
<pdfrwt beam="2">  1       -2 0.36399241E-01 0.10347654E+04</pdfrwt>
<totfact> 0.14738310E+02</totfact>
</mgrwt>
</event>
<event>
12    1  0.1542525E-013  0.1177639E+04  0.7818608E-02  0.9132657E-01
         -2   -1    0    0    0  501 -0.00000000000E+00  0.00000000000E+00  0.31268776195E+03  0.31268776195E+03  0.00000000000E+00 0.  1.
          2   -1    0    0  501    0  0.00000000000E+00 -0.00000000000E+00 -0.11088011505E+04  0.11088011505E+04  0.00000000000E+00 0. -1.
    9900016    2    1    2    0    0 -0.26252950128E+03 -0.28744084955E+02 -0.31586190081E+03  0.77374866007E+03  0.65511089680E+03 0.  0.
         25    2    3    3    0    0 -0.10565209111E+03 -0.30157515245E+03 -0.23078877627E+02  0.34390076618E+03  0.12500066182E+03 0.  0.
         23    2    4    4    0    0 -0.86298642534E+02 -0.28802238279E+03 -0.21180631437E+02  0.31492622468E+03  0.91244502034E+02 0.  0.
        -15    1    4    4    0    0 -0.10298174183E+02 -0.38708853516E+01 -0.87453601660E+01  0.14054090840E+02  0.00000000000E+00 0. -1.
        -15    1    5    5    0    0  0.12660747634E+02 -0.60901846190E+01  0.51715298419E+01  0.14970958561E+02  0.00000000000E+00 0. -1.
         15    1    4    4    0    0 -0.90552743974E+01 -0.96818843101E+01  0.68471139758E+01  0.14920450664E+02  0.00000000000E+00 0.  1.
         15    1    5    5    0    0 -0.98959390167E+02 -0.28193219817E+03 -0.26352161279E+02  0.29995526612E+03  0.00000000000E+00 0.  1.
        -16    1    1    2    0    0  0.31736684374E+03  0.61346013598E+02 -0.35038144999E+03  0.47670977270E+03  0.00000000000E+00 0.  1.
         16    1    3    3    0    0 -0.15687741017E+03  0.27283106750E+03 -0.29278302318E+03  0.42984789389E+03  0.00000000000E+00 0. -1.
    9900018    1    1    2    0    0 -0.54837342460E+02 -0.32601928643E+02 -0.12987003770E+03  0.17103047964E+03  0.91187600000E+02 0.  0.
<mgrwt>
<rscale>  0 0.11776392E+04</rscale>
<asrwt>0</asrwt>
<pdfrwt beam="1">  1        2 0.17058479E+00 0.11776392E+04</pdfrwt>
<pdfrwt beam="2">  1       -2 0.48105810E-01 0.11776392E+04</pdfrwt>
<totfact> 0.87007811E+01</totfact>
</mgrwt>
</event>
<event>
12    1  0.1542525E-013  0.1456181E+04  0.7818608E-02  0.8914126E-01
          1   -1    0    0  501    0  0.00000000000E+00  0.00000000000E+00  0.16405248173E+04  0.16405248173E+04  0.00000000000E+00 0. -1.
         -1   -1    0    0    0  501 -0.00000000000E+00 -0.00000000000E+00 -0.32313809705E+03  0.32313809705E+03  0.00000000000E+00 0.  1.
    9900016    2    1    2    0    0  0.95202817221E+02  0.51832116368E+03  0.82348877004E+03  0.12414056262E+04  0.76500573145E+03 0.  0.
         25    2    3    3    0    0 -0.12377761340E+03 -0.56501874557E+02  0.39299881589E+03  0.43426524471E+03  0.12499949624E+03 0.  0.
         23    2    4    4    0    0 -0.10732204158E+03 -0.26752435908E+02  0.26505690860E+03  0.30092810274E+03  0.89826748737E+02 0.  0.
        -15    1    4    4    0    0 -0.58118680897E+01 -0.18587557870E+02  0.94834235413E+02  0.96813260067E+02  0.00000000000E+00 0. -1.
        -15    1    5    5    0    0 -0.10547235685E+03  0.34877323318E+01  0.23784326043E+03  0.26020376413E+03  0.00000000000E+00 0. -1.
         15    1    5    5    0    0 -0.18496847325E+01 -0.30240168240E+02  0.27213648168E+02  0.40724338612E+02  0.00000000000E+00 0.  1.
         15    1    4    4    0    0 -0.10643703734E+02 -0.11161880778E+02  0.33107671884E+02  0.36523881903E+02  0.00000000000E+00 0.  1.
        -16    1    1    2    0    0 -0.95202817221E+02 -0.51832116368E+03  0.49389795021E+03  0.72225728820E+03  0.00000000000E+00 0.  1.
         16    1    3    3    0    0  0.19874314823E+03  0.45774303741E+03  0.21187977754E+03  0.54214441563E+03  0.00000000000E+00 0. -1.
    9900018    1    3    3    0    0  0.20237282397E+02  0.11708000083E+03  0.21861017661E+03  0.26499596582E+03  0.91187600000E+02 0.  0.
<mgrwt>
<rscale>  0 0.14561814E+04</rscale>
<asrwt>0</asrwt>
<pdfrwt beam="1">  1        1 0.25238843E+00 0.14561814E+04</pdfrwt>
<pdfrwt beam="2">  1       -1 0.49713554E-01 0.14561814E+04</pdfrwt>
<totfact> 0.20619359E+01</totfact>
</mgrwt>
</event>
<event>
12    1  0.1542525E-013  0.1184672E+04  0.7818608E-02  0.9126380E-01
          2   -1    0    0  501    0  0.00000000000E+00  0.00000000000E+00  0.39892251298E+03  0.39892251298E+03  0.00000000000E+00 0.  1.
         -2   -1    0    0    0  501 -0.00000000000E+00 -0.00000000000E+00 -0.87952450407E+03  0.87952450407E+03  0.00000000000E+00 0. -1.
    9900016    2    1    2    0    0  0.15764111885E+03 -0.20358796670E+03 -0.15352646020E+03  0.72781413005E+03  0.66320754774E+03 0.  0.
         25    2    3    3    0    0  0.11308856895E+03  0.41785500499E+02 -0.36282116325E+03  0.40224180194E+03  0.12499687294E+03 0.  0.
         23    2    4    4    0    0  0.66219877579E+02  0.94625474120E+01 -0.21313884909E+03  0.24132784741E+03  0.91303608667E+02 0.  0.
        -15    1    4    4    0    0  0.30592620361E+02  0.24913917761E+02 -0.83397695013E+02  0.92259347777E+02  0.00000000000E+00 0.  1.
        -15    1    5    5    0    0 -0.20783549209E+02 -0.10754523337E+02 -0.35894724652E+02  0.42849118401E+02  0.00000000000E+00 0.  1.
         15    1    5    5    0    0  0.87003426788E+02  0.20217070749E+02 -0.17724412444E+03  0.19847872901E+03  0.00000000000E+00 0. -1.
         15    1    4    4    0    0  0.16276071007E+02  0.74090353255E+01 -0.66284619148E+02  0.68654606746E+02  0.00000000000E+00 0. -1.
        -16    1    3    3    0    0  0.44552549901E+02 -0.24537346720E+03  0.20929470305E+03  0.32557232812E+03  0.00000000000E+00 0.  1.
         16    1    1    2    0    0 -0.18385604466E+03  0.27033100038E+03 -0.24434811633E+03  0.40815180616E+03  0.00000000000E+00 0. -1.
    9900018    1    1    2    0    0  0.26214925810E+02 -0.66743033673E+02 -0.82727414571E+02  0.14248108083E+03  0.91187600000E+02 0.  0.
<mgrwt>
<rscale>  0 0.11846723E+04</rscale>
<asrwt>0</asrwt>
<pdfrwt beam="1">  1        2 0.61372695E-01 0.11846723E+04</pdfrwt>
<pdfrwt beam="2">  1       -2 0.13531146E+00 0.11846723E+04</pdfrwt>
<totfact> 0.30873541E+01</totfact>
</mgrwt>
</event>
<event>
12    1  0.1542525E-013  0.1639244E+04  0.7818608E-02  0.8796795E-01
          2   -1    0    0  501    0  0.00000000000E+00  0.00000000000E+00  0.26004214442E+04  0.26004214442E+04  0.00000000000E+00 0. -1.
         -2   -1    0    0    0  501 -0.00000000000E+00 -0.00000000000E+00 -0.25833509559E+03  0.25833509559E+03  0.00000000000E+00 0.  1.
    9900016    2    1    2    0    0 -0.41039631640E+03 -0.11476548345E+03  0.22603414148E+04  0.24248458498E+04  0.76755314532E+03 0.  0.
         25    2    3    3    0    0  0.39309480009E+02  0.19406490269E+03  0.60669625862E+03  0.65031704341E+03  0.12500194021E+03 0.  0.
         23    2    4    4    0    0  0.19537948582E+02  0.11899193510E+03  0.44655858436E+03  0.47148277532E+03  0.91327028381E+02 0.  0.
        -15    1    4    4    0    0  0.95836329689E+01  0.56157273586E+02  0.12882668338E+03  0.14086092343E+03  0.00000000000E+00 0. -1.
        -15    1    5    5    0    0  0.41389582773E+02  0.14567304988E+02  0.11037162917E+03  0.11877373642E+03  0.00000000000E+00 0. -1.
         15    1    5    5    0    0 -0.21851634191E+02  0.10442463011E+03  0.33618695518E+03  0.35270903890E+03  0.00000000000E+00 0.  1.
         15    1    4    4    0    0  0.10187898458E+02  0.18915694012E+02  0.31310990880E+02  0.37973344662E+02  0.00000000000E+00 0.  1.
        -16    1    3    3    0    0 -0.44667233258E+03 -0.30765937844E+03  0.15089600115E+04  0.16034745967E+04  0.00000000000E+00 0.  1.
         16    1    1    2    0    0  0.41039631640E+03  0.11476548345E+03  0.81744933791E+02  0.43391069002E+03  0.00000000000E+00 0. -1.
    9900018    1    3    3    0    0 -0.30334638354E+01 -0.11710077070E+01  0.14468514464E+03  0.17105420964E+03  0.91187600000E+02 0.  0.
<mgrwt>
<rscale>  0 0.16392439E+04</rscale>
<asrwt>0</asrwt>
<pdfrwt beam="1">  1        2 0.40006482E+00 0.16392439E+04</pdfrwt>
<pdfrwt beam="2">  1       -2 0.39743863E-01 0.16392439E+04</pdfrwt>
<totfact> 0.17459228E+01</totfact>
</mgrwt>
</event>
<event>
12    1  0.1542525E-013  0.1759515E+04  0.7818608E-02  0.8728130E-01
          2   -1    0    0  501    0  0.00000000000E+00  0.00000000000E+00  0.22270368265E+04  0.22270368265E+04  0.00000000000E+00 0. -1.
         -2   -1    0    0    0  501 -0.00000000000E+00 -0.00000000000E+00 -0.34753487973E+03  0.34753487973E+03  0.00000000000E+00 0.  1.
    9900016    2    1    2    0    0 -0.27600803158E+03  0.37725655995E+02  0.22435551000E+03  0.74837264009E+03  0.65736029310E+03 0.  0.
         25    2    3    3    0    0  0.19869587539E+03  0.69482718652E+01  0.10887162492E+03  0.25885494442E+03  0.12499808861E+03 0.  0.
         23    2    4    4    0    0  0.14861107235E+03  0.25743938631E+02  0.85543250279E+02  0.19555580990E+03  0.90423591600E+02 0.  0.
        -15    1    4    4    0    0  0.15462881224E+02  0.48740488673E+01  0.10974070930E+02  0.19577724099E+02  0.00000000000E+00 0.  1.
        -15    1    5    5    0    0  0.10405218235E+03 -0.13026193984E+02  0.87326878846E+02  0.13646436220E+03  0.00000000000E+00 0. -1.
         15    1    4    4    0    0  0.34621921814E+02 -0.23669715633E+02  0.12354303716E+02  0.43721410413E+02  0.00000000000E+00 0.  1.
         15    1    5    5    0    0  0.44558890004E+02  0.38770132615E+02 -0.17836285669E+01  0.59091447708E+02  0.00000000000E+00 0. -1.
        -16    1    3    3    0    0 -0.47470390696E+03  0.30777384130E+02  0.11548388508E+03  0.48951769567E+03  0.00000000000E+00 0.  1.
         16    1    1    2    0    0  0.39071129643E+03 -0.43461075897E+02  0.16308400284E+04  0.16775527951E+04  0.00000000000E+00 0. -1.
    9900018    1    1    2    0    0 -0.11470326486E+03  0.57354199014E+01  0.24306408420E+02  0.14864627104E+03  0.91187600000E+02 0.  0.
<mgrwt>
<rscale>  0 0.17595147E+04</rscale>
<asrwt>0</asrwt>
<pdfrwt beam="1">  1        2 0.34262104E+00 0.17595147E+04</pdfrwt>
<pdfrwt beam="2">  1       -2 0.53466906E-01 0.17595147E+04</pdfrwt>
<totfact> 0.15575088E+01</totfact>
</mgrwt>
</event>
<event>
12    1  0.1542525E-013  0.9652847E+03  0.7818608E-02  0.9347461E-01
         -5   -1    0    0    0  501 -0.00000000000E+00  0.00000000000E+00  0.67569112894E+03  0.67569112894E+03  0.00000000000E+00 0.  1.
          5   -1    0    0  501    0  0.00000000000E+00 -0.00000000000E+00 -0.34474870507E+03  0.34474870507E+03  0.00000000000E+00 0. -1.
    9900016    2    1    2    0    0 -0.95864269698E+02  0.16472433694E+03  0.26533502914E+03  0.73646574118E+03  0.66004169933E+03 0.  0.
         25    2    3    3    0    0 -0.28699427830E+02 -0.19381246562E+03 -0.68188495098E+02  0.24220093766E+03  0.12499877740E+03 0.  0.
         23    2    4    4    0    0 -0.18049542008E+02 -0.15652043177E+03 -0.34411015246E+02  0.17953319363E+03  0.78889911375E+02 0.  0.
        -15    1    4    4    0    0 -0.87817162048E+01 -0.27100905840E+02 -0.12341853578E+01  0.28514923292E+02  0.00000000000E+00 0. -1.
        -15    1    5    5    0    0 -0.27970525105E+02 -0.57097544097E+02 -0.46665420250E+02  0.78867872189E+02  0.00000000000E+00 0. -1.
         15    1    4    4    0    0 -0.18681696171E+01 -0.10191128010E+02 -0.32543294494E+02  0.34152820738E+02  0.00000000000E+00 0.  1.
         15    1    5    5    0    0  0.99209830969E+01 -0.99422887673E+02  0.12254405004E+02  0.10066532144E+03  0.00000000000E+00 0.  1.
        -16    1    3    3    0    0 -0.67164841868E+02  0.35853680256E+03  0.33352352424E+03  0.49426480352E+03  0.00000000000E+00 0.  1.
         16    1    1    2    0    0  0.87181607104E+02 -0.16021971087E+03  0.60291269890E+02  0.19210941048E+03  0.00000000000E+00 0. -1.
    9900018    1    1    2    0    0  0.86826625932E+01 -0.45046260722E+01  0.53161248357E+01  0.91864682347E+02  0.91187600000E+02 0.  0.
<mgrwt>
<rscale>  0 0.96528471E+03</rscale>
<asrwt>0</asrwt>
<pdfrwt beam="1">  1        5 0.53038262E-01 0.96528471E+03</pdfrwt>
<pdfrwt beam="2">  1       -5 0.10395248E+00 0.96528471E+03</pdfrwt>
<totfact> 0.23284688E+00</totfact>
</mgrwt>
</event>
<event>
12    1  0.1542525E-013  0.1126856E+04  0.7818608E-02  0.9179404E-01
         -1   -1    0    0    0  501 -0.00000000000E+00  0.00000000000E+00  0.87150649830E+02  0.87150649830E+02  0.00000000000E+00 0.  1.
          1   -1    0    0  501    0  0.00000000000E+00 -0.00000000000E+00 -0.36425566326E+04  0.36425566326E+04  0.00000000000E+00 0. -1.
    9900016    2    1    2    0    0 -0.12943534671E+03  0.17709477568E+03 -0.32887340247E+04  0.33844103062E+04  0.76833948695E+03 0.  0.
         25    2    3    3    0    0 -0.19040249956E+03 -0.13804246061E+03 -0.57996523833E+03  0.63819624902E+03  0.12500376723E+03 0.  0.
         23    2    4    4    0    0 -0.12120728296E+03 -0.11820698833E+03 -0.42342986900E+03  0.46519332024E+03  0.91912315338E+02 0.  0.
        -15    1    4    4    0    0 -0.30893378338E+02 -0.95058204601E+00 -0.69001125191E+02  0.75607272858E+02  0.00000000000E+00 0.  1.
        -15    1    5    5    0    0 -0.51974999600E+02 -0.52818414799E+02 -0.81063018801E+02  0.10982895129E+03  0.00000000000E+00 0.  1.
         15    1    5    5    0    0 -0.69232283357E+02 -0.65388573530E+02 -0.34236685020E+03  0.35536436895E+03  0.00000000000E+00 0. -1.
         15    1    4    4    0    0 -0.38301838268E+02 -0.18884890230E+02 -0.87534244143E+02  0.97395655917E+02  0.00000000000E+00 0. -1.
        -16    1    1    2    0    0  0.12943534671E+03 -0.17709477568E+03 -0.26667195810E+03  0.34529697623E+03  0.00000000000E+00 0.  1.
         16    1    3    3    0    0  0.48939079382E+02  0.28350679316E+03 -0.24928799192E+04  0.25094265135E+04  0.00000000000E+00 0. -1.
    9900018    1    3    3    0    0  0.12028073470E+02  0.31630443127E+02 -0.21588886715E+03  0.23678754367E+03  0.91187600000E+02 0.  0.
<mgrwt>
<rscale>  0 0.11268561E+04</rscale>
<asrwt>0</asrwt>
<pdfrwt beam="1">  1        1 0.56039322E+00 0.11268561E+04</pdfrwt>
<pdfrwt beam="2">  1       -1 0.13407795E-01 0.11268561E+04</pdfrwt>
<totfact> 0.77774759E+00</totfact>
</mgrwt>
</event>
<event>
12    1  0.1542525E-013  0.1543741E+04  0.7818608E-02  0.8855875E-01
         -2   -1    0    0    0  501 -0.00000000000E+00  0.00000000000E+00  0.34171470068E+03  0.34171470068E+03  0.00000000000E+00 0.  1.
          2   -1    0    0  501    0  0.00000000000E+00 -0.00000000000E+00 -0.17435134945E+04  0.17435134945E+04  0.00000000000E+00 0. -1.
    9900016    2    1    2    0    0 -0.27284569277E+03  0.50545669255E+03 -0.75334544900E+03  0.12189586179E+04  0.76707203476E+03 0.  0.
         25    2    3    3    0    0 -0.85442101629E+02 -0.86923788192E+02  0.32742761592E+02  0.17763731061E+03  0.12500731178E+03 0.  0.
         23    2    4    4    0    0 -0.34158570220E+02 -0.61281545563E+02  0.39625649850E+02  0.11825686890E+03  0.86557837141E+02 0.  0.
        -15    1    4    4    0    0 -0.31558785720E+02 -0.20201420853E+02 -0.97518734415E+01  0.38718902312E+02  0.00000000000E+00 0. -1.
        -15    1    5    5    0    0  0.46887004281E+01 -0.64993313796E+02  0.44532129184E+02  0.78925441269E+02  0.00000000000E+00 0. -1.
         15    1    4    4    0    0 -0.19724745689E+02 -0.54408217758E+01  0.28689851836E+01  0.20661539393E+02  0.00000000000E+00 0.  1.
         15    1    5    5    0    0 -0.38847270648E+02  0.37117682330E+01 -0.49064793338E+01  0.39331427633E+02  0.00000000000E+00 0.  1.
        -16    1    1    2    0    0  0.27284569277E+03 -0.50545669255E+03 -0.64845334479E+03  0.86626957725E+03  0.00000000000E+00 0.  1.
         16    1    3    3    0    0 -0.21305157667E+03  0.50823554767E+03 -0.68548555804E+03  0.87953669424E+03  0.00000000000E+00 0. -1.
    9900018    1    3    3    0    0  0.25647985535E+02  0.84144933076E+02 -0.10060265256E+03  0.16178461305E+03  0.91187600000E+02 0.  0.
<mgrwt>
<rscale>  0 0.15437412E+04</rscale>
<asrwt>0</asrwt>
<pdfrwt beam="1">  1        2 0.26823284E+00 0.15437412E+04</pdfrwt>
<pdfrwt beam="2">  1       -2 0.52571493E-01 0.15437412E+04</pdfrwt>
<totfact> 0.30491968E+01</totfact>
</mgrwt>
</event>
<event>
12    1  0.1542525E-013  0.1048022E+04  0.7818608E-02  0.9257388E-01
          2   -1    0    0  501    0  0.00000000000E+00  0.00000000000E+00  0.24766963846E+04  0.24766963846E+04  0.00000000000E+00 0. -1.
         -2   -1    0    0    0  501 -0.00000000000E+00 -0.00000000000E+00 -0.11086848492E+03  0.11086848492E+03  0.00000000000E+00 0.  1.
    9900016    2    1    2    0    0 -0.44309660947E+02  0.11947362732E+03  0.10507517704E+04  0.12441092379E+04  0.65382812661E+03 0.  0.
         25    2    3    3    0    0 -0.14934133683E+03 -0.86488406218E+02  0.52553748330E+02  0.21948672035E+03  0.12501777733E+03 0.  0.
         23    2    4    4    0    0 -0.10641765261E+03 -0.51025755085E+02  0.30826151324E+02  0.15313721768E+03  0.92587317509E+02 0.  0.
        -15    1    4    4    0    0 -0.15185747982E+01 -0.15725407370E+02  0.49884471549E+00  0.15806433893E+02  0.00000000000E+00 0.  1.
        -15    1    5    5    0    0 -0.41298273370E+02 -0.52765944789E+02 -0.20644812909E+02  0.70114196942E+02  0.00000000000E+00 0. -1.
         15    1    4    4    0    0 -0.41405109419E+02 -0.19737243763E+02  0.21228752291E+02  0.50543068774E+02  0.00000000000E+00 0. -1.
         15    1    5    5    0    0 -0.65119379243E+02  0.17401897037E+01  0.51470964234E+02  0.83023020738E+02  0.00000000000E+00 0.  1.
        -16    1    1    2    0    0  0.89959732423E+02 -0.95729491131E+02  0.10541799637E+04  0.10623334150E+04  0.00000000000E+00 0.  1.
         16    1    3    3    0    0  0.10503167588E+03  0.20596203353E+03  0.99819802211E+03  0.10246225176E+04  0.00000000000E+00 0. -1.
    9900018    1    1    2    0    0 -0.45650071476E+02 -0.23744136185E+02  0.26089616559E+03  0.28112221656E+03  0.91187600000E+02 0.  0.
<mgrwt>
<rscale>  0 0.10480221E+04</rscale>
<asrwt>0</asrwt>
<pdfrwt beam="1">  1        2 0.38103017E+00 0.10480221E+04</pdfrwt>
<pdfrwt beam="2">  1       -2 0.17056692E-01 0.10480221E+04</pdfrwt>
<totfact> 0.10184374E+02</totfact>
</mgrwt>
</event>
<event>
12    1  0.1542525E-013  0.9750599E+03  0.7818608E-02  0.9336330E-01
         -1   -1    0    0    0  501 -0.00000000000E+00  0.00000000000E+00  0.49228739833E+03  0.49228739833E+03  0.00000000000E+00 0.  1.
          1   -1    0    0  501    0  0.00000000000E+00 -0.00000000000E+00 -0.48281849591E+03  0.48281849591E+03  0.00000000000E+00 0. -1.
    9900016    2    1    2    0    0  0.14460607884E+03 -0.16418935006E+02 -0.11945465497E+03  0.78067908766E+03  0.75763442626E+03 0.  0.
         25    2    3    3    0    0  0.23541588418E+03 -0.12422194768E+03 -0.29485263703E+03  0.41643041400E+03  0.12499792531E+03 0.  0.
         23    2    4    4    0    0  0.15969326626E+03 -0.93173254077E+02 -0.18889154835E+03  0.27970682386E+03  0.91502435542E+02 0.  0.
        -15    1    4    4    0    0  0.41100000493E+02 -0.12942148840E+02 -0.76459067551E+02  0.87765017336E+02  0.00000000000E+00 0.  1.
        -15    1    5    5    0    0  0.96027574567E+02 -0.83192206756E+02 -0.17061015775E+03  0.21272062493E+03  0.00000000000E+00 0. -1.
         15    1    4    4    0    0  0.34622617423E+02 -0.18106544767E+02 -0.29502021135E+02  0.48958572811E+02  0.00000000000E+00 0. -1.
         15    1    5    5    0    0  0.63665691695E+02 -0.99810473217E+01 -0.18281390595E+02  0.66986198927E+02  0.00000000000E+00 0.  1.
        -16    1    1    2    0    0 -0.14460607884E+03  0.16418935006E+02  0.12892355740E+03  0.19442680658E+03  0.00000000000E+00 0.  1.
         16    1    3    3    0    0 -0.13653075800E+03  0.12106808650E+03  0.18633253905E+03  0.26080250105E+03  0.00000000000E+00 0. -1.
    9900018    1    3    3    0    0  0.45720952668E+02 -0.13265073819E+02 -0.10934556985E+02  0.10344617260E+03  0.91187600000E+02 0.  0.
<mgrwt>
<rscale>  0 0.97505992E+03</rscale>
<asrwt>0</asrwt>
<pdfrwt beam="1">  1        1 0.74279769E-01 0.97505992E+03</pdfrwt>
<pdfrwt beam="2">  1       -1 0.75736523E-01 0.97505992E+03</pdfrwt>
<totfact> 0.81845583E+01</totfact>
</mgrwt>
</event>
<event>
12    1  0.1542525E-013  0.1025026E+04  0.7818608E-02  0.9281515E-01
         -2   -1    0    0    0  501 -0.00000000000E+00  0.00000000000E+00  0.51930797659E+03  0.51930797659E+03  0.00000000000E+00 0.  1.
          2   -1    0    0  501    0  0.00000000000E+00 -0.00000000000E+00 -0.50580715760E+03  0.50580715760E+03  0.00000000000E+00 0. -1.
    9900016    2    1    2    0    0  0.20893176629E+03  0.10152481893E+03  0.68366728570E+01  0.79272713392E+03  0.75789827612E+03 0.  0.
         25    2    3    3    0    0 -0.20584797456E+03  0.10325455179E+03  0.24127974490E+02  0.26313849589E+03  0.12499927108E+03 0.  0.
         23    2    4    4    0    0 -0.15364765095E+03  0.10049876386E+03  0.15580716162E+02  0.20542589670E+03  0.90826417625E+02 0.  0.
        -15    1    4    4    0    0 -0.21970400896E+02 -0.99498644137E+01  0.58014256787E+01  0.24806347117E+02  0.00000000000E+00 0.  1.
        -15    1    5    5    0    0 -0.79102460664E+02  0.30914956249E+02  0.49078603683E+02  0.98089974730E+02  0.00000000000E+00 0.  1.
         15    1    5    5    0    0 -0.74545190287E+02  0.69583807615E+02 -0.33497887521E+02  0.10733592197E+03  0.00000000000E+00 0. -1.
         15    1    4    4    0    0 -0.30229922709E+02  0.12705652338E+02  0.27458326495E+01  0.32906252069E+02  0.00000000000E+00 0. -1.
        -16    1    3    3    0    0  0.43543543569E+03 -0.47231133374E+01 -0.74279999446E+01  0.43552439844E+03  0.00000000000E+00 0.  1.
         16    1    1    2    0    0 -0.20893176629E+03 -0.10152481893E+03  0.66641461303E+01  0.23238800027E+03  0.00000000000E+00 0. -1.
    9900018    1    3    3    0    0 -0.20655694843E+02  0.29933804781E+01 -0.98633016887E+01  0.94064239592E+02  0.91187600000E+02 0.  0.
<mgrwt>
<rscale>  0 0.10250262E+04</rscale>
<asrwt>0</asrwt>
<pdfrwt beam="1">  1        2 0.77816486E-01 0.10250262E+04</pdfrwt>
<pdfrwt beam="2">  1       -2 0.79893535E-01 0.10250262E+04</pdfrwt>
<totfact> 0.84048465E+01</totfact>
</mgrwt>
</event>
<event>
12    1  0.1542525E-013  0.9327632E+03  0.7818608E-02  0.9385528E-01
         -2   -1    0    0    0  501 -0.00000000000E+00  0.00000000000E+00  0.79819207858E+03  0.79819207858E+03  0.00000000000E+00 0.  1.
          2   -1    0    0  501    0  0.00000000000E+00 -0.00000000000E+00 -0.27250558395E+03  0.27250558395E+03  0.00000000000E+00 0. -1.
    9900016    2    1    2    0    0  0.58478823907E+02  0.15063763543E+03  0.40161254471E+03  0.78597857244E+03  0.65601692830E+03 0.  0.
         25    2    3    3    0    0 -0.56430674000E+02 -0.23278775667E+03  0.11484033877E+03  0.29357881400E+03  0.12500262396E+03 0.  0.
         23    2    4    4    0    0 -0.62954184155E+02 -0.17113745911E+03  0.98311635066E+02  0.22650039350E+03  0.91575059115E+02 0.  0.
        -15    1    4    4    0    0  0.93671651249E+00 -0.46453038067E+02  0.40548236791E+01  0.46639079950E+02  0.00000000000E+00 0.  1.
        -15    1    5    5    0    0 -0.28058558592E+01  0.11433349612E+02  0.69342254020E+01  0.13663008175E+02  0.00000000000E+00 0. -1.
         15    1    5    5    0    0 -0.60148328296E+02 -0.18257080872E+03  0.91377409664E+02  0.21283738532E+03  0.00000000000E+00 0.  1.
         15    1    4    4    0    0  0.55867936420E+01 -0.15197259489E+02  0.12473880023E+02  0.20439340547E+02  0.00000000000E+00 0. -1.
        -16    1    3    3    0    0  0.11490949791E+03  0.38342539210E+03  0.28677220594E+03  0.49239975844E+03  0.00000000000E+00 0.  1.
         16    1    1    2    0    0 -0.68142041974E+02 -0.12431490045E+03  0.19390829250E+02  0.14308576665E+03  0.00000000000E+00 0. -1.
    9900018    1    1    2    0    0  0.96632180668E+01 -0.26322734972E+02  0.10468312067E+03  0.14163332343E+03  0.91187600000E+02 0.  0.
<mgrwt>
<rscale>  0 0.93276320E+03</rscale>
<asrwt>0</asrwt>
<pdfrwt beam="1">  1        2 0.41923936E-01 0.93276320E+03</pdfrwt>
<pdfrwt beam="2">  1       -2 0.12279878E+00 0.93276320E+03</pdfrwt>
<totfact> 0.61348223E+01</totfact>
</mgrwt>
</event>
<event>
12    1  0.1542525E-013  0.8761593E+03  0.7818608E-02  0.9455884E-01
         -1   -1    0    0    0  501 -0.00000000000E+00  0.00000000000E+00  0.83388819250E+02  0.83388819250E+02  0.00000000000E+00 0.  1.
          1   -1    0    0  501    0  0.00000000000E+00 -0.00000000000E+00 -0.23014328167E+04  0.23014328167E+04  0.00000000000E+00 0. -1.
    9900016    2    1    2    0    0 -0.69301184609E+01  0.62622622276E+02 -0.17434832417E+04  0.19060967356E+04  0.76778990084E+03 0.  0.
         25    2    3    3    0    0 -0.79570314238E+02  0.23953516802E+03 -0.11854357662E+04  0.12184382485E+04  0.12500111218E+03 0.  0.
         23    2    4    4    0    0 -0.72973698946E+02  0.16018255507E+03 -0.79483778397E+03  0.81930537317E+03  0.92252804745E+02 0.  0.
        -15    1    4    4    0    0 -0.12510556505E+02  0.43379747129E+02 -0.19407745199E+03  0.19925956403E+03  0.00000000000E+00 0.  1.
        -15    1    5    5    0    0 -0.90811353701E+01  0.87414070231E+02 -0.22984744199E+03  0.24607627533E+03  0.00000000000E+00 0.  1.
         15    1    5    5    0    0 -0.63892563576E+02  0.72768484836E+02 -0.56499034198E+03  0.57322909783E+03  0.00000000000E+00 0. -1.
         15    1    4    4    0    0  0.59139412127E+01  0.35972865826E+02 -0.19652053026E+03  0.19987331135E+03  0.00000000000E+00 0. -1.
        -16    1    3    3    0    0  0.75294892601E+02 -0.20193278292E+03 -0.13531758934E+03  0.25447400585E+03  0.00000000000E+00 0.  1.
         16    1    1    2    0    0  0.69301184609E+01 -0.62622622276E+02 -0.47456075571E+03  0.47872490036E+03  0.00000000000E+00 0. -1.
    9900018    1    3    3    0    0 -0.26546968235E+01  0.25020237179E+02 -0.42272988614E+03  0.43318448115E+03  0.91187600000E+02 0.  0.
<mgrwt>
<rscale>  0 0.87615927E+03</rscale>
<asrwt>0</asrwt>
<pdfrwt beam="1">  1        1 0.35406660E+00 0.87615927E+03</pdfrwt>
<pdfrwt beam="2">  1       -1 0.12829049E-01 0.87615927E+03</pdfrwt>
<totfact> 0.80618555E+01</totfact>
</mgrwt>
</event>
<event>
12    1  0.1542525E-013  0.1006097E+04  0.7818608E-02  0.9301883E-01
          2   -1    0    0  501    0  0.00000000000E+00  0.00000000000E+00  0.10279278152E+04  0.10279278152E+04  0.00000000000E+00 0. -1.
         -2   -1    0    0    0  501 -0.00000000000E+00 -0.00000000000E+00 -0.24618221350E+03  0.24618221350E+03  0.00000000000E+00 0.  1.
    9900016    2    1    2    0    0 -0.12724856566E+03  0.81905784817E+02  0.57960519159E+03  0.89480299229E+03  0.66470253635E+03 0.  0.
         25    2    3    3    0    0  0.77126923131E+02 -0.20443994251E+03  0.45792403150E+03  0.52255372003E+03  0.12499487719E+03 0.  0.
         23    2    4    4    0    0  0.82347053668E+02 -0.15518912603E+03  0.38627316012E+03  0.43401369178E+03  0.91083633758E+02 0.  0.
        -15    1    4    4    0    0 -0.60603305738E+01 -0.13136473995E+02  0.30668061002E+02  0.33909062525E+02  0.00000000000E+00 0. -1.
        -15    1    5    5    0    0 -0.61456226199E+01 -0.20251412680E+02  0.12608406780E+03  0.12784788049E+03  0.00000000000E+00 0.  1.
         15    1    4    4    0    0  0.84020003679E+00 -0.36114342482E+02  0.40982810382E+02  0.54630965723E+02  0.00000000000E+00 0.  1.
         15    1    5    5    0    0  0.88492676288E+02 -0.13493771335E+03  0.26018909232E+03  0.30616581129E+03  0.00000000000E+00 0. -1.
        -16    1    1    2    0    0  0.13072092440E+03 -0.14815144327E+03  0.80242222519E+02  0.21325014536E+03  0.00000000000E+00 0.  1.
         16    1    3    3    0    0 -0.20437548879E+03  0.28634572733E+03  0.12168116009E+03  0.37224927226E+03  0.00000000000E+00 0. -1.
    9900018    1    1    2    0    0 -0.34723587380E+01  0.66245658456E+02  0.12189818762E+03  0.16605689109E+03  0.91187600000E+02 0.  0.
<mgrwt>
<rscale>  0 0.10060965E+04</rscale>
<asrwt>0</asrwt>
<pdfrwt beam="1">  1        2 0.15814274E+00 0.10060965E+04</pdfrwt>
<pdfrwt beam="2">  1       -2 0.37874187E-01 0.10060965E+04</pdfrwt>
<totfact> 0.15856840E+02</totfact>
</mgrwt>
</event>
<event>
12    1  0.1542525E-013  0.8386515E+03  0.7818608E-02  0.9505696E-01
          1   -1    0    0  501    0  0.00000000000E+00  0.00000000000E+00  0.10797036186E+04  0.10797036186E+04  0.00000000000E+00 0. -1.
         -1   -1    0    0    0  501 -0.00000000000E+00 -0.00000000000E+00 -0.16285402909E+03  0.16285402909E+03  0.00000000000E+00 0.  1.
    9900016    2    1    2    0    0  0.68883567228E+02  0.22322652064E+01  0.75952410563E+03  0.10707984071E+04  0.75165313332E+03 0.  0.
         25    2    3    3    0    0  0.61648267744E+01  0.60007816682E+02 -0.90185984358E+02  0.16552363971E+03  0.12500248147E+03 0.  0.
         23    2    4    4    0    0 -0.10022587155E+02  0.19321714841E+02 -0.50103700949E+02  0.10496292045E+03  0.89627299992E+02 0.  0.
        -15    1    4    4    0    0  0.11225457608E+02  0.30020327624E+02 -0.21590152225E+02  0.38644089357E+02  0.00000000000E+00 0. -1.
        -15    1    5    5    0    0 -0.43002459608E+01  0.34228201973E+02  0.15227656532E+02  0.37708665438E+02  0.00000000000E+00 0.  1.
         15    1    5    5    0    0 -0.57223411945E+01 -0.14906487132E+02 -0.65331357482E+02  0.67254255016E+02  0.00000000000E+00 0. -1.
         15    1    4    4    0    0  0.49619563215E+01  0.10665774218E+02 -0.18492131184E+02  0.21916629894E+02  0.00000000000E+00 0.  1.
        -16    1    3    3    0    0  0.79261338199E+02 -0.72715560403E+02  0.78241216682E+03  0.78977130313E+03  0.00000000000E+00 0.  1.
         16    1    1    2    0    0 -0.68883567228E+02 -0.22322652064E+01  0.15732548384E+03  0.17175924053E+03  0.00000000000E+00 0. -1.
    9900018    1    3    3    0    0 -0.16542597745E+02  0.14940008927E+02  0.67297923167E+02  0.11550346429E+03  0.91187600000E+02 0.  0.
<mgrwt>
<rscale>  0 0.83865150E+03</rscale>
<asrwt>0</asrwt>
<pdfrwt beam="1">  1        1 0.16610824E+00 0.83865150E+03</pdfrwt>
<pdfrwt beam="2">  1       -1 0.25054467E-01 0.83865150E+03</pdfrwt>
<totfact> 0.18490525E+02</totfact>
</mgrwt>
</event>
<event>
12    1  0.1542525E-013  0.1295022E+04  0.7818608E-02  0.9033522E-01
          2   -1    0    0  501    0  0.00000000000E+00  0.00000000000E+00  0.14696621134E+04  0.14696621134E+04  0.00000000000E+00 0. -1.
         -2   -1    0    0    0  501 -0.00000000000E+00 -0.00000000000E+00 -0.28528357245E+03  0.28528357245E+03  0.00000000000E+00 0.  1.
    9900016    2    1    2    0    0  0.34411945599E+03 -0.98813738124E+02  0.94072302844E+03  0.12032021364E+04  0.65920650025E+03 0.  0.
         25    2    3    3    0    0 -0.59960804830E+02 -0.58910256874E+02 -0.27648250984E+02  0.15314686176E+03  0.12499527592E+03 0.  0.
         23    2    4    4    0    0 -0.48961267059E+02 -0.49816092958E+02 -0.20675625455E+02  0.11644733508E+03  0.90849609624E+02 0.  0.
        -15    1    4    4    0    0 -0.19949501882E+02  0.23010294359E+01  0.11017114960E+01  0.20111964848E+02  0.00000000000E+00 0. -1.
        -15    1    5    5    0    0 -0.62900236182E+02 -0.39981462321E+02  0.15792587415E+02  0.76186369242E+02  0.00000000000E+00 0.  1.
         15    1    4    4    0    0  0.89499641111E+01 -0.11395193352E+02 -0.80743370251E+01  0.16587561832E+02  0.00000000000E+00 0.  1.
         15    1    5    5    0    0  0.13938969123E+02 -0.98346306368E+01 -0.36468212870E+02  0.40260965834E+02  0.00000000000E+00 0. -1.
        -16    1    1    2    0    0 -0.37586531750E+03  0.12145121749E+03  0.18151641788E+03  0.43471064524E+03  0.00000000000E+00 0.  1.
         16    1    3    3    0    0  0.40408026082E+03 -0.39903481250E+02  0.96837127942E+03  0.10500552746E+04  0.00000000000E+00 0. -1.
    9900018    1    1    2    0    0  0.31745861513E+02 -0.22637479363E+02  0.62139094672E+02  0.11703290424E+03  0.91187600000E+02 0.  0.
<mgrwt>
<rscale>  0 0.12950219E+04</rscale>
<asrwt>0</asrwt>
<pdfrwt beam="1">  1        2 0.22610186E+00 0.12950219E+04</pdfrwt>
<pdfrwt beam="2">  1       -2 0.43889781E-01 0.12950219E+04</pdfrwt>
<totfact> 0.63720183E+01</totfact>
</mgrwt>
</event>
<event>
12    1  0.1542525E-013  0.9201982E+03  0.7818608E-02  0.9400679E-01
          2   -1    0    0  501    0  0.00000000000E+00  0.00000000000E+00  0.19316489218E+04  0.19316489218E+04  0.00000000000E+00 0. -1.
         -2   -1    0    0    0  501 -0.00000000000E+00 -0.00000000000E+00 -0.10959092913E+03  0.10959092913E+03  0.00000000000E+00 0.  1.
    9900016    2    1    2    0    0 -0.54544554991E+02 -0.10020163187E+03  0.13419542830E+04  0.15477674124E+04  0.76271042331E+03 0.  0.
         25    2    3    3    0    0 -0.10106369567E+02 -0.27797157757E+03  0.91498263321E+03  0.96446431634E+03  0.12501144658E+03 0.  0.
         23    2    4    4    0    0  0.74926875942E+01 -0.23992336311E+03  0.82280379594E+03  0.86206197228E+03  0.92333075875E+02 0.  0.
        -15    1    4    4    0    0 -0.15659461775E+02 -0.16600069965E+02  0.52770229536E+02  0.57493288228E+02  0.00000000000E+00 0.  1.
        -15    1    5    5    0    0 -0.30951871099E+02 -0.18909782597E+03  0.65921100087E+03  0.68649482866E+03  0.00000000000E+00 0.  1.
         15    1    5    5    0    0  0.38444558693E+02 -0.50825537145E+02  0.16359279507E+03  0.17556714362E+03  0.00000000000E+00 0. -1.
         15    1    4    4    0    0 -0.19395953863E+01 -0.21448144495E+02  0.39408607732E+02  0.44909055834E+02  0.00000000000E+00 0. -1.
        -16    1    3    3    0    0 -0.23464920518E+02  0.24417693454E+03  0.16040530658E+03  0.29309186314E+03  0.00000000000E+00 0.  1.
         16    1    1    2    0    0  0.54544554991E+02  0.10020163187E+03  0.48010370965E+03  0.49347243847E+03  0.00000000000E+00 0. -1.
    9900018    1    3    3    0    0 -0.20973264906E+02 -0.66406988844E+02  0.26656634319E+03  0.29021123294E+03  0.91187600000E+02 0.  0.
<mgrwt>
<rscale>  0 0.92019824E+03</rscale>
<asrwt>0</asrwt>
<pdfrwt beam="1">  1        2 0.29717673E+00 0.92019824E+03</pdfrwt>
<pdfrwt beam="2">  1       -2 0.16860144E-01 0.92019824E+03</pdfrwt>
<totfact> 0.21118524E+02</totfact>
</mgrwt>
</event>
<event>
12    1  0.1542525E-013  0.8681304E+03  0.7818608E-02  0.9466321E-01
         -5   -1    0    0    0  501 -0.00000000000E+00  0.00000000000E+00  0.10412995873E+04  0.10412995873E+04  0.00000000000E+00 0.  1.
          5   -1    0    0  501    0  0.00000000000E+00 -0.00000000000E+00 -0.18093984746E+03  0.18093984746E+03  0.00000000000E+00 0. -1.
    9900016    2    1    2    0    0 -0.55403730940E+02 -0.55988342864E+02  0.86341860724E+03  0.11434128871E+04  0.74545091803E+03 0.  0.
         25    2    3    3    0    0 -0.24917620210E+02  0.14225113217E+03 -0.29651467477E+02  0.19329246925E+03  0.12500598684E+03 0.  0.
         23    2    4    4    0    0 -0.42808651799E+02  0.10027146173E+03 -0.26619535114E+02  0.14466257244E+03  0.91278220347E+02 0.  0.
        -15    1    4    4    0    0  0.80762638613E+01  0.94947492343E+01 -0.72714382871E+01  0.14430873700E+02  0.00000000000E+00 0.  1.
        -15    1    5    5    0    0  0.15695068346E+02  0.30882386410E+02 -0.40005726502E+02  0.52919893364E+02  0.00000000000E+00 0. -1.
         15    1    4    4    0    0  0.98147677274E+01  0.32484921205E+02  0.42395059242E+01  0.34199023110E+02  0.00000000000E+00 0. -1.
         15    1    5    5    0    0 -0.58503720145E+02  0.69389075319E+02  0.13386191387E+02  0.91742679077E+02  0.00000000000E+00 0.  1.
        -16    1    3    3    0    0 -0.16948330295E+02 -0.18685790838E+03  0.78732462769E+03  0.80937209810E+03  0.00000000000E+00 0.  1.
         16    1    1    2    0    0  0.55403730940E+02  0.55988342864E+02 -0.30588674146E+01  0.78826547613E+02  0.00000000000E+00 0. -1.
    9900018    1    3    3    0    0 -0.13537780435E+02 -0.11381566654E+02  0.10574544704E+03  0.14074831978E+03  0.91187600000E+02 0.  0.
<mgrwt>
<rscale>  0 0.86813038E+03</rscale>
<asrwt>0</asrwt>
<pdfrwt beam="1">  1        5 0.27836900E-01 0.86813038E+03</pdfrwt>
<pdfrwt beam="2">  1       -5 0.16019993E+00 0.86813038E+03</pdfrwt>
<totfact> 0.27450981E+00</totfact>
</mgrwt>
</event>
<event>
12    1  0.1878375E-013  0.1100587E+04  0.7818608E-02  0.9204620E-01
         -2   -1    0    0    0  501 -0.00000000000E+00  0.00000000000E+00  0.19341138091E+03  0.19341138091E+03  0.00000000000E+00 0.  1.
          2   -1    0    0  501    0  0.00000000000E+00 -0.00000000000E+00 -0.15656923349E+04  0.15656923349E+04  0.00000000000E+00 0. -1.
    9900016    2    1    2    0    0 -0.22423846573E+03  0.16984907516E+03 -0.11346155435E+04  0.13908423342E+04  0.75363012758E+03 0.  0.
         25    2    3    3    0    0 -0.22866688129E+03 -0.26074177768E+02 -0.83962308084E+02  0.27503231018E+03  0.12499878847E+03 0.  0.
         23    2    4    4    0    0 -0.15049019488E+03 -0.29276683179E+02 -0.68454366291E+02  0.19350555555E+03  0.96197592640E+02 0.  0.
        -15    1    4    4    0    0 -0.58183446296E+02  0.26447273443E+01 -0.38372916565E+01  0.58369793668E+02  0.00000000000E+00 0.  1.
        -15    1    5    5    0    0 -0.26291832760E+02  0.31484712964E+02 -0.27198253907E+02  0.49216792215E+02  0.00000000000E+00 0.  1.
         15    1    5    5    0    0 -0.12419836212E+03 -0.60761396143E+02 -0.41256112384E+02  0.14428876333E+03  0.00000000000E+00 0. -1.
         15    1    4    4    0    0 -0.19993240112E+02  0.55777806633E+00 -0.11670650136E+02  0.23156960966E+02  0.00000000000E+00 0. -1.
        -16    1    1    2    0    0  0.22423846573E+03 -0.16984907516E+03 -0.23766541055E+03  0.36826138166E+03  0.00000000000E+00 0.  1.
         16    1    3    3    0    0  0.71554278175E+02  0.19754555458E+03 -0.91638992860E+03  0.94016741174E+03  0.00000000000E+00 0. -1.
    9900018    1    3    3    0    0 -0.67125862615E+02 -0.16223016457E+01 -0.13426330677E+03  0.17564261224E+03  0.91187600000E+02 0.  0.
<mgrwt>
<rscale>  0 0.11005866E+04</rscale>
<asrwt>0</asrwt>
<pdfrwt beam="1">  1        2 0.24087574E+00 0.11005866E+04</pdfrwt>
<pdfrwt beam="2">  1       -2 0.29755598E-01 0.11005866E+04</pdfrwt>
<totfact> 0.12043506E+02</totfact>
</mgrwt>
</event>
<event>
12    1  0.1542525E-013  0.8515835E+03  0.7818608E-02  0.9488214E-01
          1   -1    0    0  501    0  0.00000000000E+00  0.00000000000E+00  0.17750213183E+04  0.17750213183E+04  0.00000000000E+00 0.  1.
         -1   -1    0    0    0  501 -0.00000000000E+00 -0.00000000000E+00 -0.10213884203E+03  0.10213884203E+03  0.00000000000E+00 0. -1.
    9900016    2    1    2    0    0 -0.67089694697E+02  0.11281678436E+02  0.16240296338E+04  0.17934051389E+04  0.75776080480E+03 0.  0.
         25    2    3    3    0    0  0.79708332393E+02  0.12028774831E+03  0.77855658741E+02  0.20618085700E+03  0.12500592605E+03 0.  0.
         23    2    4    4    0    0  0.58937724360E+02  0.98208487460E+02  0.69896960252E+02  0.15813336930E+03  0.83678044152E+02 0.  0.
        -15    1    4    4    0    0  0.86001073120E+01  0.25019247615E+02 -0.81150895964E+01  0.27672717181E+02  0.00000000000E+00 0. -1.
        -15    1    5    5    0    0  0.14736807932E+02 -0.13358372461E+02  0.19885179722E+02  0.28125433249E+02  0.00000000000E+00 0. -1.
         15    1    4    4    0    0  0.12170500720E+02 -0.29399867660E+01  0.16073788085E+02  0.20374770511E+02  0.00000000000E+00 0.  1.
         15    1    5    5    0    0  0.44200916428E+02  0.11156685992E+03  0.50011780530E+02  0.13000793606E+03  0.00000000000E+00 0.  1.
        -16    1    3    3    0    0 -0.15375534174E+03 -0.10813539341E+03  0.14143198907E+04  0.14267567143E+04  0.00000000000E+00 0.  1.
         16    1    1    2    0    0  0.67089694697E+02 -0.11281678436E+02  0.48852842518E+02  0.83755021491E+02  0.00000000000E+00 0. -1.
    9900018    1    3    3    0    0  0.69573146472E+01 -0.87067646530E+00  0.13185408430E+03  0.16046756758E+03  0.91187600000E+02 0.  0.
<mgrwt>
<rscale>  0 0.85158352E+03</rscale>
<asrwt>0</asrwt>
<pdfrwt beam="1">  1        1 0.27308018E+00 0.85158352E+03</pdfrwt>
<pdfrwt beam="2">  1       -1 0.15713669E-01 0.85158352E+03</pdfrwt>
<totfact> 0.13126871E+02</totfact>
</mgrwt>
</event>
