<event>
11    1  0.1502515E-010  0.3277465E+04  0.7818608E-02  0.8168653E-01
          2   -1    0    0  501    0  0.00000000000E+00  0.00000000000E+00  0.15970736118E+04  0.15970736118E+04  0.00000000000E+00 0.  1.
         -2   -1    0    0    0  501 -0.00000000000E+00 -0.00000000000E+00 -0.16814781468E+04  0.16814781468E+04  0.00000000000E+00 0. -1.
    9900016    2    1    2    0    0 -0.41807769887E+03  0.40284055093E+03 -0.19374876103E+03  0.19427477240E+04  0.18438168741E+04 0.  0.
        -24    2    3    3    0    0 -0.69731656362E+03  0.61377876182E+03  0.22322482301E+03  0.95866865458E+03  0.79003223428E+02 0.  0.
        -15    1    1    2    0    0 -0.20731379325E+03 -0.21121829906E+03  0.26551076214E+03  0.39760299740E+03  0.00000000000E+00 0.  1.
        -15    1    3    3    0    0  0.24252088172E+03 -0.31662160931E+03  0.12913786094E+03  0.41921618370E+03  0.00000000000E+00 0.  1.
         15    1    1    2    0    0  0.28848972511E+02  0.20602530013E+03 -0.42160566257E+02  0.21226445971E+03  0.00000000000E+00 0. -1.
         15    1    4    4    0    0 -0.29904527905E+03  0.29947603897E+03  0.72349321302E+02  0.42935812690E+03  0.00000000000E+00 0. -1.
        -16    1    4    4    0    0 -0.39827128457E+03  0.31430272285E+03  0.15087550170E+03  0.52931052769E+03  0.00000000000E+00 0.  1.
         16    1    1    2    0    0  0.59654251961E+03 -0.39764755200E+03 -0.11400596978E+03  0.72593657744E+03  0.00000000000E+00 0. -1.
    9900018    1    3    3    0    0  0.36717983028E+02  0.10568339842E+03 -0.54611144497E+03  0.56486288575E+03  0.91187600000E+02 0.  0.
<mgrwt>
<rscale>  0 0.32774651E+04</rscale>
<asrwt>0</asrwt>
<pdfrwt beam="1">  1        2 0.24570363E+00 0.32774651E+04</pdfrwt>
<pdfrwt beam="2">  1       -2 0.25868895E+00 0.32774651E+04</pdfrwt>
<totfact> 0.53234435E-01</totfact>
</mgrwt>
</event>
<event>
11    1  0.1502515E-010  0.3791265E+04  0.7818608E-02  0.8246096E-01
          2   -1    0    0  501    0  0.00000000000E+00  0.00000000000E+00  0.32023010381E+04  0.32023010381E+04  0.00000000000E+00 0. -1.
         -2   -1    0    0    0  501 -0.00000000000E+00 -0.00000000000E+00 -0.26556282983E+04  0.26556282983E+04  0.00000000000E+00 0.  1.
    9900016    2    1    2    0    0  0.39060497278E+03 -0.76342426616E+02 -0.44628041582E+03  0.19680039789E+04  0.18749594771E+04 0.  0.
        -24    2    3    3    0    0  0.60359933898E+03 -0.68204747833E+03  0.27798403984E+03  0.95559680712E+03  0.79807309540E+02 0.  0.
        -15    1    1    2    0    0 -0.80682409603E+03 -0.63489885831E+03 -0.10402154408E+04  0.14615436516E+04  0.00000000000E+00 0.  1.
        -15    1    3    3    0    0 -0.25268615316E+03  0.41909578331E+03 -0.56634200702E+03  0.74848836765E+03  0.00000000000E+00 0.  1.
         15    1    1    2    0    0 -0.18687423225E+03  0.23792477600E+03  0.55863197179E+02  0.30765382252E+03  0.00000000000E+00 0. -1.
         15    1    4    4    0    0  0.47829988589E+03 -0.58092082518E+03  0.24372684422E+03  0.79097570162E+03  0.00000000000E+00 0. -1.
        -16    1    4    4    0    0  0.12529945309E+03 -0.10112665316E+03  0.34257195616E+02  0.16462110549E+03  0.00000000000E+00 0.  1.
         16    1    1    2    0    0  0.60309335550E+03  0.47331650893E+03  0.19773053993E+04  0.21207278834E+04  0.00000000000E+00 0. -1.
    9900018    1    3    3    0    0  0.39691786956E+02  0.18660926841E+03 -0.15792244864E+03  0.26391880415E+03  0.91187600000E+02 0.  0.
<mgrwt>
<rscale>  0 0.29917323E+04</rscale>
<asrwt>0</asrwt>
<pdfrwt beam="1">  1        2 0.49266169E+00 0.37912651E+04</pdfrwt>
<pdfrwt beam="2">  1       -2 0.40855820E+00 0.37912651E+04</pdfrwt>
<totfact> 0.63518813E-03</totfact>
</mgrwt>
</event>
<event>
11    1  0.1502515E-010  0.2515379E+04  0.7818608E-02  0.8629257E-01
         -2   -1    0    0    0  501 -0.00000000000E+00  0.00000000000E+00  0.94819911764E+03  0.94819911764E+03  0.00000000000E+00 0.  1.
          2   -1    0    0  501    0  0.00000000000E+00 -0.00000000000E+00 -0.35856567737E+04  0.35856567737E+04  0.00000000000E+00 0. -1.
    9900016    2    1    2    0    0 -0.56643349484E+03  0.17414914621E+02 -0.14821678892E+04  0.24344457009E+04  0.18462269729E+04 0.  0.
        -24    2    3    3    0    0 -0.20411763036E+03  0.77640782686E+02 -0.10707002885E+03  0.25632343283E+03  0.80904962626E+02 0.  0.
        -15    1    3    3    0    0 -0.81902205848E+03 -0.52416334046E+03 -0.10925493983E+04  0.14626033391E+04  0.00000000000E+00 0.  1.
        -15    1    1    2    0    0  0.28749796135E+03 -0.13642861412E+03 -0.21462590585E+03  0.38383866923E+03  0.00000000000E+00 0.  1.
         15    1    4    4    0    0 -0.42847308069E+02 -0.16358325102E+02 -0.15538520255E+02  0.48424500210E+02  0.00000000000E+00 0. -1.
         15    1    1    2    0    0  0.44122441749E+03 -0.23009786255E+03  0.18112643623E+03  0.52955717240E+03  0.00000000000E+00 0. -1.
        -16    1    4    4    0    0 -0.16127032229E+03  0.93999107788E+02 -0.91531508598E+02  0.20789893262E+03  0.00000000000E+00 0.  1.
         16    1    1    2    0    0 -0.16228888400E+03  0.34911156205E+03 -0.11217902972E+04  0.11860143487E+04  0.00000000000E+00 0. -1.
    9900018    1    3    3    0    0  0.45670619401E+03  0.46393747240E+03 -0.28254846204E+03  0.71551892899E+03  0.91187600000E+02 0.  0.
<mgrwt>
<rscale>  0 0.19522898E+04</rscale>
<asrwt>0</asrwt>
<pdfrwt beam="1">  1        2 0.55163951E+00 0.25153792E+04</pdfrwt>
<pdfrwt beam="2">  1       -2 0.14587679E+00 0.25153792E+04</pdfrwt>
<totfact> 0.19750510E-01</totfact>
</mgrwt>
</event>
<event>
11    1  0.1502515E-010  0.3040406E+04  0.7818608E-02  0.8707950E-01
          2   -1    0    0  501    0  0.00000000000E+00  0.00000000000E+00  0.25270516617E+04  0.25270516617E+04  0.00000000000E+00 0.  1.
         -2   -1    0    0    0  501 -0.00000000000E+00 -0.00000000000E+00 -0.13772467436E+04  0.13772467436E+04  0.00000000000E+00 0. -1.
    9900016    2    1    2    0    0 -0.42078328542E+03  0.56651056653E+03  0.10975885410E+04  0.22688309597E+04  0.18560443215E+04 0.  0.
        -24    2    3    3    0    0  0.30922268269E+03  0.94085267115E+03  0.77488074685E+03  0.12598977144E+04  0.77972191631E+02 0.  0.
        -15    1    3    3    0    0 -0.61321352157E+03 -0.71424433915E+02  0.23426004660E+03  0.66031056498E+03  0.00000000000E+00 0.  1.
        -15    1    1    2    0    0  0.37910013480E+02 -0.95380616199E+02  0.41240153943E+03  0.42498195349E+03  0.00000000000E+00 0.  1.
         15    1    1    2    0    0  0.96771711571E+02 -0.21510404975E+03  0.33890614801E+03  0.41290664022E+03  0.00000000000E+00 0. -1.
         15    1    4    4    0    0  0.21504269839E+03  0.55392042599E+03  0.43605584548E+03  0.73703181806E+03  0.00000000000E+00 0. -1.
        -16    1    4    4    0    0  0.94179984297E+02  0.38693224516E+03  0.33882490137E+03  0.52286589636E+03  0.00000000000E+00 0.  1.
         16    1    1    2    0    0  0.28610156037E+03 -0.25602590058E+03 -0.69909131043E+03  0.79757885186E+03  0.00000000000E+00 0. -1.
    9900018    1    3    3    0    0 -0.11679244654E+03 -0.30291767071E+03  0.88447747543E+02  0.34862268032E+03  0.91187600000E+02 0.  0.
<mgrwt>
<rscale>  0 0.17968989E+04</rscale>
<asrwt>0</asrwt>
<pdfrwt beam="1">  1        2 0.38877718E+00 0.30404061E+04</pdfrwt>
<pdfrwt beam="2">  1       -2 0.21188411E+00 0.30404061E+04</pdfrwt>
<totfact> 0.31170608E-01</totfact>
</mgrwt>
</event>
<event>
11    1  0.1502515E-010  0.2531537E+04  0.7818608E-02  0.8912607E-01
          4   -1    0    0  501    0  0.00000000000E+00  0.00000000000E+00  0.52879453465E+03  0.52879453465E+03  0.00000000000E+00 0. -1.
         -4   -1    0    0    0  501 -0.00000000000E+00 -0.00000000000E+00 -0.37434190651E+04  0.37434190651E+04  0.00000000000E+00 0.  1.
    9900016    2    1    2    0    0 -0.29738330592E+03  0.32619677698E+03 -0.20077621669E+04  0.27583652459E+04  0.18391924160E+04 0.  0.
        -24    2    3    3    0    0 -0.40444332402E+03 -0.60353902217E+03 -0.40137570111E+03  0.83393023344E+03  0.80643829147E+02 0.  0.
        -15    1    3    3    0    0 -0.16022810455E+03  0.62069382494E+03 -0.96656771195E+03  0.11598219741E+04  0.00000000000E+00 0.  1.
        -15    1    1    2    0    0 -0.13932367652E+03  0.17332612623E+03 -0.23442076650E+03  0.32311937212E+03  0.00000000000E+00 0.  1.
         15    1    1    2    0    0  0.71146957471E+01 -0.51165385913E+02 -0.23667261928E+02  0.56821253932E+02  0.00000000000E+00 0. -1.
         15    1    4    4    0    0 -0.31772460922E+03 -0.42052134400E+03 -0.26645772439E+03  0.59058178685E+03  0.00000000000E+00 0. -1.
        -16    1    4    4    0    0 -0.86718714794E+02 -0.18301767817E+03 -0.13491797671E+03  0.24334844659E+03  0.00000000000E+00 0.  1.
         16    1    1    2    0    0  0.42959228669E+03 -0.44835751730E+03 -0.94877433514E+03  0.11339077278E+04  0.00000000000E+00 0. -1.
    9900018    1    3    3    0    0  0.26728812265E+03  0.30904197421E+03 -0.63981875385E+03  0.76461303841E+03  0.91187600000E+02 0.  0.
<mgrwt>
<rscale>  0 0.14583864E+04</rscale>
<asrwt>0</asrwt>
<pdfrwt beam="1">  1        4 0.81353006E-01 0.25315372E+04</pdfrwt>
<pdfrwt beam="2">  1       -4 0.57591062E+00 0.25315372E+04</pdfrwt>
<totfact> 0.64711480E-04</totfact>
</mgrwt>
</event>
<event>
11    1  0.1502515E-010  0.4222724E+04  0.7818608E-02  0.7961064E-01
         -2   -1    0    0    0  501 -0.00000000000E+00  0.00000000000E+00  0.24364217152E+04  0.24364217152E+04  0.00000000000E+00 0.  1.
          2   -1    0    0  501    0  0.00000000000E+00 -0.00000000000E+00 -0.18296704040E+04  0.18296704040E+04  0.00000000000E+00 0. -1.
    9900016    2    1    2    0    0  0.12015598091E+04  0.13926900149E+03 -0.21435107274E+03  0.22036610768E+04  0.18294900736E+04 0.  0.
        -24    2    3    3    0    0  0.14696119211E+04  0.46270997892E+03 -0.54452545663E+02  0.15442811228E+04  0.89327394616E+02 0.  0.
        -15    1    3    3    0    0 -0.20279445899E+03 -0.21410857279E+03 -0.32017353132E+03  0.43529204415E+03  0.00000000000E+00 0.  1.
        -15    1    1    2    0    0 -0.11627609461E+04  0.14449252186E+03  0.97091354945E+03  0.15216978107E+04  0.00000000000E+00 0.  1.
         15    1    1    2    0    0 -0.14723292660E+03 -0.16347735553E+03  0.10108053257E+03  0.24211496135E+03  0.00000000000E+00 0. -1.
         15    1    4    4    0    0  0.67288970363E+03  0.22514437880E+03 -0.67790222172E+02  0.71278752709E+03  0.00000000000E+00 0. -1.
        -16    1    4    4    0    0  0.79672221743E+03  0.23756560012E+03  0.13337676509E+02  0.83149359572E+03  0.00000000000E+00 0.  1.
         16    1    1    2    0    0  0.10843406356E+03 -0.12028416783E+03 -0.25089169815E+03  0.29861827033E+03  0.00000000000E+00 0. -1.
    9900018    1    3    3    0    0 -0.65257652951E+02 -0.10933240463E+03  0.16027500424E+03  0.22408790987E+03  0.91187600000E+02 0.  0.
<mgrwt>
<rscale>  0 0.42227236E+04</rscale>
<asrwt>0</asrwt>
<pdfrwt beam="1">  1        2 0.28148775E+00 0.42227236E+04</pdfrwt>
<pdfrwt beam="2">  1       -2 0.37483411E+00 0.42227236E+04</pdfrwt>
<totfact> 0.69567179E-02</totfact>
</mgrwt>
</event>
<event>
11    1  0.1502515E-010  0.3552441E+04  0.7818608E-02  0.8408690E-01
          2   -1    0    0  501    0  0.00000000000E+00  0.00000000000E+00  0.28291572177E+04  0.28291572177E+04  0.00000000000E+00 0.  1.
         -2   -1    0    0    0  501 -0.00000000000E+00 -0.00000000000E+00 -0.17327472076E+04  0.17327472076E+04  0.00000000000E+00 0. -1.
    9900016    2    1    2    0    0  0.84251961305E+03  0.41429235858E+03  0.77738950570E+03  0.21778227879E+04  0.18047438032E+04 0.  0.
        -24    2    3    3    0    0  0.38564668356E+03 -0.18930390448E+03  0.11797429681E+04  0.12579962040E+04  0.78750529077E+02 0.  0.
        -15    1    1    2    0    0  0.66854536264E+03  0.38456443580E+02  0.40392638664E+03  0.78204112793E+03  0.00000000000E+00 0.  1.
        -15    1    3    3    0    0  0.15304034382E+03  0.44474617664E+03 -0.26123490635E+03  0.53801875875E+03  0.00000000000E+00 0.  1.
         15    1    4    4    0    0  0.23031062615E+03 -0.72067927346E+02  0.61435636401E+03  0.66005341653E+03  0.00000000000E+00 0. -1.
         15    1    1    2    0    0 -0.15871191802E+03  0.32439366364E+02  0.88039813480E+01  0.16223222707E+03  0.00000000000E+00 0. -1.
        -16    1    4    4    0    0  0.15533605741E+03 -0.11723597713E+03  0.56538660409E+03  0.59794278752E+03  0.00000000000E+00 0.  1.
         16    1    1    2    0    0 -0.13523530577E+04 -0.48518816853E+03 -0.93709863582E+02  0.14398082824E+04  0.00000000000E+00 0. -1.
    9900018    1    3    3    0    0  0.30383258568E+03  0.15885008642E+03 -0.14111855605E+03  0.38180782513E+03  0.91187600000E+02 0.  0.
<mgrwt>
<rscale>  0 0.24840486E+04</rscale>
<asrwt>0</asrwt>
<pdfrwt beam="1">  1        2 0.43525496E+00 0.35524410E+04</pdfrwt>
<pdfrwt beam="2">  1       -2 0.26657649E+00 0.35524410E+04</pdfrwt>
<totfact> 0.89661211E-02</totfact>
</mgrwt>
</event>
<event>
11    1  0.1502515E-010  0.2970569E+04  0.7818608E-02  0.8443262E-01
          2   -1    0    0  501    0  0.00000000000E+00  0.00000000000E+00  0.35100451527E+04  0.35100451527E+04  0.00000000000E+00 0. -1.
         -2   -1    0    0    0  501 -0.00000000000E+00 -0.00000000000E+00 -0.18277305651E+04  0.18277305651E+04  0.00000000000E+00 0.  1.
    9900016    2    1    2    0    0  0.18232985961E+03 -0.12963798018E+03  0.45091353696E+02  0.18604144990E+04  0.18463636408E+04 0.  0.
        -24    2    3    3    0    0  0.34885585498E+03 -0.29688636635E+03  0.60804341855E+03  0.76553317579E+03  0.80512870512E+02 0.  0.
        -15    1    3    3    0    0  0.20919973325E+03 -0.24924682781E+03 -0.37458196395E+03  0.49618560769E+03  0.00000000000E+00 0.  1.
        -15    1    1    2    0    0  0.90782247195E+03  0.28327307532E+03  0.19984191272E+04  0.22131570852E+04  0.00000000000E+00 0.  1.
         15    1    4    4    0    0  0.15302850439E+03 -0.16656455128E+03  0.25005056824E+03  0.33717467221E+03  0.00000000000E+00 0. -1.
         15    1    1    2    0    0 -0.58606524389E+02  0.12454862093E+03 -0.41002245578E+01  0.13770946052E+03  0.00000000000E+00 0. -1.
        -16    1    4    4    0    0  0.19582735058E+03 -0.13032181507E+03  0.35799285031E+03  0.42835850359E+03  0.00000000000E+00 0.  1.
         16    1    1    2    0    0 -0.10315458072E+04 -0.27818371606E+03 -0.35709566872E+03  0.11264946732E+04  0.00000000000E+00 0. -1.
    9900018    1    3    3    0    0 -0.37572572862E+03  0.41649521398E+03 -0.18837010091E+03  0.59869571547E+03  0.91187600000E+02 0.  0.
<mgrwt>
<rscale>  0 0.23899866E+04</rscale>
<asrwt>0</asrwt>
<pdfrwt beam="1">  1        2 0.54000695E+00 0.29705689E+04</pdfrwt>
<pdfrwt beam="2">  1       -2 0.28118932E+00 0.29705689E+04</pdfrwt>
<totfact> 0.26867304E-02</totfact>
</mgrwt>
</event>
<event>
11    1  0.1502515E-010  0.2909651E+04  0.7818608E-02  0.8373277E-01
          2   -1    0    0  501    0  0.00000000000E+00  0.00000000000E+00  0.38791801437E+04  0.38791801437E+04  0.00000000000E+00 0. -1.
         -2   -1    0    0    0  501 -0.00000000000E+00 -0.00000000000E+00 -0.16987286970E+04  0.16987286970E+04  0.00000000000E+00 0.  1.
    9900016    2    1    2    0    0 -0.22978102461E+03 -0.97243178959E+02  0.10088343024E+03  0.18586665050E+04  0.18390780721E+04 0.  0.
         24    2    3    3    0    0  0.20164665374E+03  0.50881908974E+03  0.46757451328E+03  0.72435330702E+03  0.80644583690E+02 0.  0.
        -15    1    4    4    0    0  0.12228203747E+03  0.20050595195E+03  0.19611836984E+03  0.30597050257E+03  0.00000000000E+00 0.  1.
        -15    1    1    2    0    0  0.16081167217E+03 -0.52087914047E+03  0.68775660188E+02  0.54945933818E+03  0.00000000000E+00 0.  1.
         15    1    1    2    0    0 -0.92477400445E+03  0.27317364835E+03  0.18759439868E+04  0.21092644792E+04  0.00000000000E+00 0. -1.
         15    1    3    3    0    0 -0.37936118149E+03 -0.46883295670E+03  0.12258267471E+03  0.61542323604E+03  0.00000000000E+00 0. -1.
        -16    1    1    2    0    0  0.99374335688E+03  0.34494867107E+03  0.13484836940E+03  0.10605185183E+04  0.00000000000E+00 0.  1.
         16    1    4    4    0    0  0.79364616266E+02  0.30831313779E+03  0.27145614344E+03  0.41838280445E+03  0.00000000000E+00 0. -1.
    9900018    1    3    3    0    0 -0.52066496847E+02 -0.13722931200E+03 -0.48927375775E+03  0.51888996192E+03  0.91187600000E+02 0.  0.
<mgrwt>
<rscale>  0 0.25851079E+04</rscale>
<asrwt>0</asrwt>
<pdfrwt beam="1">  1        2 0.59679694E+00 0.29096515E+04</pdfrwt>
<pdfrwt beam="2">  1       -2 0.26134288E+00 0.29096515E+04</pdfrwt>
<totfact> 0.19038578E-02</totfact>
</mgrwt>
</event>
<event>
11    1  0.1502515E-010  0.2879950E+04  0.7818608E-02  0.8554886E-01
         -2   -1    0    0    0  501 -0.00000000000E+00  0.00000000000E+00  0.17684078933E+04  0.17684078933E+04  0.00000000000E+00 0.  1.
          2   -1    0    0  501    0  0.00000000000E+00 -0.00000000000E+00 -0.20890000951E+04  0.20890000951E+04  0.00000000000E+00 0. -1.
    9900016    2    1    2    0    0 -0.39451534103E+03 -0.76490828581E+02 -0.24156483696E+03  0.19075267259E+04  0.18490028227E+04 0.  0.
         24    2    3    3    0    0 -0.45802551783E+03  0.55438778622E+03  0.46656430784E+03  0.86041884914E+03  0.74196698804E+02 0.  0.
        -15    1    1    2    0    0  0.63615003723E+02 -0.32433716972E+02 -0.16413167422E+03  0.17899167907E+03  0.00000000000E+00 0.  1.
        -15    1    4    4    0    0 -0.33972902345E+03  0.43473664322E+03  0.38940601622E+03  0.67531385577E+03  0.00000000000E+00 0.  1.
         15    1    1    2    0    0 -0.40960952944E+03  0.59336731505E+03 -0.33062036393E+03  0.79320524596E+03  0.00000000000E+00 0. -1.
         15    1    3    3    0    0 -0.88189193979E+01 -0.47688310557E+03 -0.70848432528E+03  0.85407570442E+03  0.00000000000E+00 0. -1.
        -16    1    1    2    0    0  0.74050986674E+03 -0.48444276950E+03  0.41572467336E+03  0.97768433746E+03  0.00000000000E+00 0.  1.
         16    1    4    4    0    0 -0.11829649438E+03  0.11965114300E+03  0.77158291624E+02  0.18510499337E+03  0.00000000000E+00 0. -1.
    9900018    1    3    3    0    0  0.72329096198E+02 -0.15399550923E+03  0.35518047855E+00  0.19303217236E+03  0.91187600000E+02 0.  0.
<mgrwt>
<rscale>  0 0.21144917E+04</rscale>
<asrwt>0</asrwt>
<pdfrwt beam="1">  1        2 0.32138463E+00 0.28799499E+04</pdfrwt>
<pdfrwt beam="2">  1       -2 0.27206275E+00 0.28799499E+04</pdfrwt>
<totfact> 0.23521189E-01</totfact>
</mgrwt>
</event>
<event>
11    1  0.1502515E-010  0.3553558E+04  0.7818608E-02  0.8573170E-01
          2   -1    0    0  501    0  0.00000000000E+00  0.00000000000E+00  0.37682767637E+04  0.37682767637E+04  0.00000000000E+00 0.  1.
         -2   -1    0    0    0  501 -0.00000000000E+00 -0.00000000000E+00 -0.14128573688E+04  0.14128573688E+04  0.00000000000E+00 0. -1.
    9900016    2    1    2    0    0 -0.22580753662E+03  0.36292147278E+03  0.18356853686E+04  0.26405935797E+04  0.18494033205E+04 0.  0.
        -24    2    3    3    0    0 -0.66079380767E+03  0.48289406287E+03  0.11465013665E+04  0.14107896705E+04  0.77633618626E+02 0.  0.
        -15    1    3    3    0    0  0.55925222885E+03  0.36132178809E+02  0.60178019430E+02  0.56363994166E+03  0.00000000000E+00 0.  1.
        -15    1    1    2    0    0  0.33896561864E+02  0.20935270208E+03  0.82926329303E+03  0.85595276736E+03  0.00000000000E+00 0.  1.
         15    1    4    4    0    0 -0.11309431553E+03  0.48981694035E+02  0.16375684514E+03  0.20495325049E+03  0.00000000000E+00 0. -1.
         15    1    1    2    0    0  0.44342574446E+02 -0.19255739132E+03  0.63014836604E+03  0.66040258637E+03  0.00000000000E+00 0. -1.
        -16    1    4    4    0    0 -0.54769949215E+03  0.43391236884E+03  0.98274452138E+03  0.12058364200E+04  0.00000000000E+00 0.  1.
         16    1    1    2    0    0  0.14756840031E+03 -0.37971678353E+03 -0.93967763271E+03  0.10241851990E+04  0.00000000000E+00 0. -1.
    9900018    1    3    3    0    0 -0.12426595780E+03 -0.15610476891E+03  0.62900598262E+03  0.66616396758E+03  0.91187600000E+02 0.  0.
<mgrwt>
<rscale>  0 0.20731375E+04</rscale>
<asrwt>0</asrwt>
<pdfrwt beam="1">  1        2 0.57973488E+00 0.35535579E+04</pdfrwt>
<pdfrwt beam="2">  1       -2 0.21736267E+00 0.35535579E+04</pdfrwt>
<totfact> 0.42121728E-02</totfact>
</mgrwt>
</event>
<event>
11    1  0.1502515E-010  0.3535905E+04  0.7818608E-02  0.8105333E-01
         -2   -1    0    0    0  501 -0.00000000000E+00  0.00000000000E+00  0.14077288769E+04  0.14077288769E+04  0.00000000000E+00 0.  1.
          2   -1    0    0  501    0  0.00000000000E+00 -0.00000000000E+00 -0.22203537406E+04  0.22203537406E+04  0.00000000000E+00 0. -1.
    9900016    2    1    2    0    0  0.32976188742E+03 -0.39303011407E+03 -0.26828971557E+03  0.18886785203E+04  0.17977518206E+04 0.  0.
         24    2    3    3    0    0  0.49190044159E+03  0.22307126164E+03  0.53400495542E+03  0.76360516958E+03  0.78770111024E+02 0.  0.
        -15    1    4    4    0    0  0.20075846543E+03  0.49192362985E+02  0.20546107839E+03  0.29144142593E+03  0.00000000000E+00 0.  1.
        -15    1    1    2    0    0  0.34806735457E+03  0.10655727976E+03 -0.49406172178E+02  0.36735038728E+03  0.00000000000E+00 0.  1.
         15    1    1    2    0    0 -0.91002062771E+03  0.42141876597E+03 -0.45227787895E+03  0.11001302645E+04  0.00000000000E+00 0. -1.
         15    1    3    3    0    0 -0.29006483881E+03 -0.27904012719E+03 -0.30961253114E+03  0.50780008147E+03  0.00000000000E+00 0. -1.
        -16    1    1    2    0    0  0.23219138572E+03 -0.13494593166E+03 -0.42651097011E+02  0.27192344538E+03  0.00000000000E+00 0.  1.
         16    1    4    4    0    0  0.29114197616E+03  0.17387889865E+03  0.32854387703E+03  0.47216374365E+03  0.00000000000E+00 0. -1.
    9900018    1    3    3    0    0  0.12792628465E+03 -0.33706124852E+03 -0.49268213985E+03  0.61727326921E+03  0.91187600000E+02 0.  0.
<mgrwt>
<rscale>  0 0.35359050E+04</rscale>
<asrwt>0</asrwt>
<pdfrwt beam="1">  1        2 0.34159288E+00 0.35359050E+04</pdfrwt>
<pdfrwt beam="2">  1       -2 0.21657367E+00 0.35359050E+04</pdfrwt>
<totfact> 0.42821171E-01</totfact>
</mgrwt>
</event>
<event>
11    1  0.1502515E-010  0.3783382E+04  0.7818608E-02  0.8049730E-01
         -2   -1    0    0    0  501 -0.00000000000E+00  0.00000000000E+00  0.88117004733E+03  0.88117004733E+03  0.00000000000E+00 0. -1.
          2   -1    0    0  501    0  0.00000000000E+00 -0.00000000000E+00 -0.40610718623E+04  0.40610718623E+04  0.00000000000E+00 0.  1.
    9900016    2    1    2    0    0  0.28541038722E+03  0.13679717292E+03 -0.24918868576E+04  0.31197665012E+04  0.18502081924E+04 0.  0.
        -24    2    3    3    0    0 -0.41666653497E+03 -0.52409589264E+03 -0.15844211749E+04  0.17219421050E+04  0.80041534930E+02 0.  0.
        -15    1    3    3    0    0  0.62309066987E+03  0.56047723957E+03 -0.91483934815E+03  0.12406884185E+04  0.00000000000E+00 0.  1.
        -15    1    1    2    0    0  0.42257154246E+03 -0.54747669723E+03 -0.68296153052E+03  0.97197422532E+03  0.00000000000E+00 0.  1.
         15    1    4    4    0    0 -0.26593983801E+03 -0.31593905639E+03 -0.10692129623E+04  0.11461927602E+04  0.00000000000E+00 0. -1.
         15    1    1    2    0    0 -0.34416488571E+03  0.28837210484E+03 -0.88655544768E+02  0.45767646326E+03  0.00000000000E+00 0. -1.
        -16    1    4    4    0    0 -0.15072669696E+03 -0.20815683625E+03 -0.51520821255E+03  0.57574934471E+03  0.00000000000E+00 0.  1.
         16    1    1    2    0    0 -0.36381704397E+03  0.12230741947E+03  0.83602117975E+02  0.39282471978E+03  0.00000000000E+00 0. -1.
    9900018    1    3    3    0    0  0.78986252320E+02  0.10041582599E+03  0.73736654262E+01  0.15713597774E+03  0.91187600000E+02 0.  0.
<mgrwt>
<rscale>  0 0.37833820E+04</rscale>
<asrwt>0</asrwt>
<pdfrwt beam="1">  1        2 0.62478029E+00 0.37833820E+04</pdfrwt>
<pdfrwt beam="2">  1       -2 0.13556462E+00 0.37833820E+04</pdfrwt>
<totfact> 0.95217807E-02</totfact>
</mgrwt>
</event>
<event>
11    1  0.1502515E-010  0.4826140E+04  0.7818608E-02  0.7855901E-01
          3   -1    0    0  501    0  0.00000000000E+00  0.00000000000E+00  0.19990297491E+04  0.19990297491E+04  0.00000000000E+00 0.  1.
         -3   -1    0    0    0  501 -0.00000000000E+00 -0.00000000000E+00 -0.29128667918E+04  0.29128667918E+04  0.00000000000E+00 0. -1.
    9900016    2    1    2    0    0  0.62565495011E+03  0.14426956411E+03 -0.85696305894E+03  0.21288471921E+04  0.18399312104E+04 0.  0.
        -24    2    3    3    0    0 -0.18762059051E+02  0.20366821990E+03 -0.13039817713E+04  0.13218778149E+04  0.71831323902E+02 0.  0.
        -15    1    3    3    0    0  0.46055408367E+03 -0.48014534607E+02  0.34534268331E+03  0.57764784119E+03  0.00000000000E+00 0.  1.
        -15    1    1    2    0    0 -0.14278784306E+04 -0.54609298144E+03  0.43063356869E+03  0.15882379002E+04  0.00000000000E+00 0.  1.
         15    1    1    2    0    0  0.46505913655E+03  0.34161560021E+03  0.25923598096E+02  0.57762726021E+03  0.00000000000E+00 0. -1.
         15    1    4    4    0    0 -0.24102088103E+02  0.60040091698E+02 -0.25425562533E+03  0.26235785918E+03  0.00000000000E+00 0. -1.
        -16    1    4    4    0    0  0.53400290513E+01  0.14362812820E+03 -0.10497261460E+04  0.10595199557E+04  0.00000000000E+00 0.  1.
         16    1    1    2    0    0  0.33716434398E+03  0.60207817123E+02 -0.51343115051E+03  0.61718418840E+03  0.00000000000E+00 0. -1.
    9900018    1    3    3    0    0  0.18386292549E+03 -0.11384121190E+02  0.10167602903E+03  0.22932153597E+03  0.91187600000E+02 0.  0.
<mgrwt>
<rscale>  0 0.48261402E+04</rscale>
<asrwt>0</asrwt>
<pdfrwt beam="1">  1        3 0.30754304E+00 0.48261402E+04</pdfrwt>
<pdfrwt beam="2">  1       -3 0.44813335E+00 0.48261402E+04</pdfrwt>
<totfact> 0.38325193E-04</totfact>
</mgrwt>
</event>
<event>
11    1  0.1502515E-010  0.4245540E+04  0.7818608E-02  0.7956766E-01
          2   -1    0    0  501    0  0.00000000000E+00  0.00000000000E+00  0.25441447277E+04  0.25441447277E+04  0.00000000000E+00 0. -1.
         -2   -1    0    0    0  501 -0.00000000000E+00 -0.00000000000E+00 -0.17711853981E+04  0.17711853981E+04  0.00000000000E+00 0.  1.
    9900016    2    1    2    0    0  0.98354656031E+02  0.52343800008E+03 -0.49806992369E+03  0.19835131612E+04  0.18446110250E+04 0.  0.
         24    2    3    3    0    0 -0.36442611611E+03  0.64117345736E+03 -0.46789064049E+03  0.87689195176E+03  0.78153995837E+02 0.  0.
        -15    1    4    4    0    0 -0.22574332405E+03  0.42428370641E+03 -0.26288625501E+03  0.54780096289E+03  0.00000000000E+00 0.  1.
        -15    1    1    2    0    0 -0.24488807196E+03 -0.49369165906E+01  0.51436738230E+03  0.56970900020E+03  0.00000000000E+00 0. -1.
         15    1    1    2    0    0 -0.22710256170E+03 -0.62895524800E+03 -0.22533131157E+03  0.70564472469E+03  0.00000000000E+00 0.  1.
         15    1    3    3    0    0  0.46545977226E+03  0.11548160032E+03 -0.42386333472E+03  0.64003822239E+03  0.00000000000E+00 0. -1.
        -16    1    1    2    0    0  0.37363597762E+03  0.11045416450E+03  0.98199318253E+03  0.10564632397E+04  0.00000000000E+00 0.  1.
         16    1    4    4    0    0 -0.13868279206E+03  0.21688975096E+03 -0.20500438548E+03  0.32909098886E+03  0.00000000000E+00 0. -1.
    9900018    1    3    3    0    0 -0.26790001130E+01 -0.23321705760E+03  0.39368405152E+03  0.46658298706E+03  0.91187600000E+02 0.  0.
<mgrwt>
<rscale>  0 0.42455398E+04</rscale>
<asrwt>0</asrwt>
<pdfrwt beam="1">  1        2 0.39140688E+00 0.42455398E+04</pdfrwt>
<pdfrwt beam="2">  1       -2 0.27249006E+00 0.42455398E+04</pdfrwt>
<totfact> 0.11876501E-01</totfact>
</mgrwt>
</event>
