<event>
11    1  0.2130093E-014  0.3146773E+04  0.7818608E-02  0.8203017E-01
         -1   -1    0    0    0  501 -0.00000000000E+00  0.00000000000E+00  0.23340642851E+04  0.23340642851E+04  0.00000000000E+00 0.  1.
          1   -1    0    0  501    0  0.00000000000E+00 -0.00000000000E+00 -0.10606156078E+04  0.10606156078E+04  0.00000000000E+00 0. -1.
    9900016    2    1    2    0    0  0.11359446708E+03 -0.30351495106E+03  0.84392020730E+03  0.11797781021E+04  0.75805674283E+03 0.  0.
         23    2    3    3    0    0 -0.49575398416E+02 -0.30421191734E+03  0.76141059935E+02  0.33229620615E+03  0.98085150930E+02 0.  0.
        -15    1    4    4    0    0 -0.24041720482E+02 -0.40277472997E+02  0.45527129294E+02  0.65368177705E+02  0.00000000000E+00 0.  1.
        -15    1    1    2    0    0 -0.46181088529E+03 -0.32268806718E+03  0.45265682527E+03  0.72269985743E+03  0.00000000000E+00 0.  1.
         15    1    4    4    0    0 -0.25533677934E+02 -0.26393444434E+03  0.30613930641E+02  0.26692802844E+03  0.00000000000E+00 0. -1.
         15    1    1    2    0    0  0.14233453068E+03  0.59390863126E+02  0.60328467283E+03  0.62268675087E+03  0.00000000000E+00 0. -1.
        -16    1    3    3    0    0  0.17561640205E+03  0.50950276419E+02  0.69793334042E+03  0.72149012399E+03  0.00000000000E+00 0.  1.
         16    1    1    2    0    0  0.20588188753E+03  0.56681215511E+03 -0.62641302815E+03  0.86951518252E+03  0.00000000000E+00 0. -1.
    9900018    1    3    3    0    0 -0.12446536555E+02 -0.50253310144E+02  0.69845806945E+02  0.12599177193E+03  0.91187600000E+02 0.  0.
<mgrwt>
<rscale>  0 0.31467730E+04</rscale>
<asrwt>0</asrwt>
<pdfrwt beam="1">  1        1 0.16317163E+00 0.31467730E+04</pdfrwt>
<pdfrwt beam="2">  1       -1 0.35908681E+00 0.31467730E+04</pdfrwt>
<totfact> 0.15426223E-01</totfact>
</mgrwt>
</event>
<event>
11    1  0.2130093E-014  0.4060387E+04  0.7818608E-02  0.7992474E-01
          2   -1    0    0  501    0  0.00000000000E+00  0.00000000000E+00  0.22755691497E+04  0.22755691497E+04  0.00000000000E+00 0. -1.
         -2   -1    0    0    0  501 -0.00000000000E+00 -0.00000000000E+00 -0.18112770154E+04  0.18112770154E+04  0.00000000000E+00 0.  1.
    9900016    2    1    2    0    0  0.26330399702E+03  0.20387921307E+03 -0.84071581051E+02  0.83043075248E+03  0.75607636886E+03 0.  0.
         23    2    3    3    0    0  0.37589165365E+03  0.64937959391E+01 -0.20228293488E+03  0.43649774890E+03  0.90968095383E+02 0.  0.
        -15    1    1    2    0    0 -0.25921809002E+03 -0.32292866667E+03 -0.54059253459E+02  0.41761147594E+03  0.00000000000E+00 0.  1.
        -15    1    4    4    0    0  0.18411235959E+02  0.24374078708E+01 -0.39561695057E+02  0.43704030506E+02  0.00000000000E+00 0.  1.
         15    1    1    2    0    0 -0.78302075814E+03  0.68475007805E+03  0.12890097341E+04  0.16563665874E+04  0.00000000000E+00 0. -1.
         15    1    4    4    0    0  0.35748041769E+03  0.40563880682E+01 -0.16272123982E+03  0.39279371839E+03  0.00000000000E+00 0. -1.
        -16    1    1    2    0    0  0.77893485115E+03 -0.56570062445E+03 -0.68658676527E+03  0.11824373493E+04  0.00000000000E+00 0.  1.
         16    1    3    3    0    0 -0.14773112557E+03  0.20165616544E+03  0.14945010157E+03  0.29124736459E+03  0.00000000000E+00 0. -1.
    9900018    1    3    3    0    0  0.35143468940E+02 -0.42707483092E+01 -0.31238747740E+02  0.10268563899E+03  0.91187600000E+02 0.  0.
<mgrwt>
<rscale>  0 0.40603872E+04</rscale>
<asrwt>0</asrwt>
<pdfrwt beam="1">  1        2 0.35008756E+00 0.40603872E+04</pdfrwt>
<pdfrwt beam="2">  1       -2 0.27865800E+00 0.40603872E+04</pdfrwt>
<totfact> 0.15769614E-01</totfact>
</mgrwt>
</event>
<event>
11    1  0.2130093E-014  0.1576763E+04  0.7818608E-02  0.8974994E-01
         -2   -1    0    0    0  501 -0.00000000000E+00  0.00000000000E+00  0.89701027878E+03  0.89701027878E+03  0.00000000000E+00 0.  1.
          2   -1    0    0  501    0  0.00000000000E+00 -0.00000000000E+00 -0.18913782501E+04  0.18913782501E+04  0.00000000000E+00 0. -1.
    9900016    2    1    2    0    0  0.62144111872E+01  0.41603713684E+03  0.15946791376E+03  0.87661918231E+03  0.75492096086E+03 0.  0.
         23    2    3    3    0    0  0.47406568478E+02  0.40298793705E+03  0.36525003688E+03  0.55356948022E+03  0.91569207937E+02 0.  0.
        -15    1    1    2    0    0  0.11494404298E+03  0.21248808748E+03  0.61302241413E+02  0.24924141939E+03  0.00000000000E+00 0.  1.
        -15    1    4    4    0    0 -0.11807928688E+02  0.60159333031E+01  0.20815808205E+02  0.24676233599E+02  0.00000000000E+00 0.  1.
         15    1    4    4    0    0  0.59214497165E+02  0.39697200375E+03  0.34443422868E+03  0.52889324662E+03  0.00000000000E+00 0. -1.
         15    1    1    2    0    0 -0.47029475453E+03 -0.39369668420E+03 -0.36437466054E+03  0.71340250107E+03  0.00000000000E+00 0. -1.
        -16    1    3    3    0    0 -0.21112341497E+01 -0.13959012905E+02 -0.21893695093E+03  0.21939165853E+03  0.00000000000E+00 0.  1.
         16    1    1    2    0    0  0.34913630036E+03 -0.23482854012E+03 -0.85076346599E+03  0.94912542614E+03  0.00000000000E+00 0. -1.
    9900018    1    3    3    0    0 -0.39080923141E+02  0.27008212695E+02  0.13154827807E+02  0.10365804356E+03  0.91187600000E+02 0.  0.
<mgrwt>
<rscale>  0 0.13711188E+04</rscale>
<asrwt>0</asrwt>
<pdfrwt beam="1">  1        2 0.29098126E+00 0.15767632E+04</pdfrwt>
<pdfrwt beam="2">  1       -2 0.13800158E+00 0.15767632E+04</pdfrwt>
<totfact> 0.26930213E+00</totfact>
</mgrwt>
</event>
<event>
11    1  0.2130093E-014  0.1671705E+04  0.7818608E-02  0.8867497E-01
          2   -1    0    0  501    0  0.00000000000E+00  0.00000000000E+00  0.98400128088E+03  0.98400128088E+03  0.00000000000E+00 0. -1.
         -2   -1    0    0    0  501 -0.00000000000E+00 -0.00000000000E+00 -0.21317001682E+04  0.21317001682E+04  0.00000000000E+00 0.  1.
    9900016    2    1    2    0    0  0.18423606522E+03  0.10599017245E+03 -0.67593981478E+03  0.10357786605E+04  0.75549053996E+03 0.  0.
         23    2    3    3    0    0  0.14575306862E+03  0.21975105329E+03 -0.66890965204E+03  0.72448685025E+03  0.88919014624E+02 0.  0.
        -15    1    1    2    0    0  0.17136164001E+02 -0.56046036726E+02 -0.22158540924E+03  0.22920493000E+03  0.00000000000E+00 0.  1.
        -15    1    4    4    0    0  0.15435108591E+03  0.20511788618E+03 -0.65113640593E+03  0.69991158305E+03  0.00000000000E+00 0.  1.
         15    1    1    2    0    0 -0.26715709803E+03 -0.89934870495E+03  0.69518690420E+02  0.94076238044E+03  0.00000000000E+00 0. -1.
         15    1    4    4    0    0 -0.85980172923E+01  0.14633167109E+02 -0.17773246109E+02  0.24575267206E+02  0.00000000000E+00 0. -1.
        -16    1    1    2    0    0  0.65784868807E+02  0.84940456923E+03 -0.31969235373E+03  0.90995547815E+03  0.00000000000E+00 0.  1.
         16    1    3    3    0    0  0.63630370250E+01 -0.16318533364E+03  0.70496033747E+02  0.17787532749E+03  0.00000000000E+00 0. -1.
    9900018    1    3    3    0    0  0.32119959578E+02  0.49424452796E+02 -0.77526196488E+02  0.13341648276E+03  0.91187600000E+02 0.  0.
<mgrwt>
<rscale>  0 0.15257671E+04</rscale>
<asrwt>0</asrwt>
<pdfrwt beam="1">  1        2 0.15138481E+00 0.16717051E+04</pdfrwt>
<pdfrwt beam="2">  1       -2 0.32795387E+00 0.16717051E+04</pdfrwt>
<totfact> 0.51504170E-01</totfact>
</mgrwt>
</event>
<event>
11    1  0.2130093E-014  0.1290901E+04  0.7818608E-02  0.9179824E-01
          2   -1    0    0  501    0  0.00000000000E+00  0.00000000000E+00  0.17241693217E+04  0.17241693217E+04  0.00000000000E+00 0. -1.
         -2   -1    0    0    0  501 -0.00000000000E+00 -0.00000000000E+00 -0.60317538513E+03  0.60317538513E+03  0.00000000000E+00 0.  1.
    9900016    2    1    2    0    0  0.10772126165E+03  0.25816085158E+02  0.57203866257E+02  0.67685122878E+03  0.66527059391E+03 0.  0.
         23    2    3    3    0    0  0.13493199471E+03  0.11831988360E+03 -0.26945297350E+03  0.33626046601E+03  0.90884311181E+02 0.  0.
        -15    1    1    2    0    0  0.28235216064E+03 -0.29303972226E+03  0.19656401070E+03  0.45192082464E+03  0.00000000000E+00 0.  1.
        -15    1    4    4    0    0  0.47787124338E+02  0.18346977726E+02 -0.22428972820E+02  0.55886310184E+02  0.00000000000E+00 0.  1.
         15    1    1    2    0    0 -0.90497104702E+02  0.33842305702E+03  0.57438623815E+03  0.67278484084E+03  0.00000000000E+00 0. -1.
         15    1    4    4    0    0  0.87144870374E+02  0.99972905874E+02 -0.24702400068E+03  0.28037415583E+03  0.00000000000E+00 0. -1.
        -16    1    3    3    0    0 -0.27210733058E+02 -0.92503798442E+02  0.32665683976E+03  0.34059076277E+03  0.00000000000E+00 0.  1.
         16    1    1    2    0    0 -0.33327085204E+03 -0.58533673725E+02  0.23483960072E+03  0.41188018870E+03  0.00000000000E+00 0. -1.
    9900018    1    1    2    0    0  0.33694534444E+02 -0.12665746199E+02  0.58000220741E+02  0.11390762388E+03  0.91187600000E+02 0.  0.
<mgrwt>
<rscale>  0 0.11264123E+04</rscale>
<asrwt>0</asrwt>
<pdfrwt beam="1">  1        2 0.26525682E+00 0.12909010E+04</pdfrwt>
<pdfrwt beam="2">  1       -2 0.92796214E-01 0.12909010E+04</pdfrwt>
<totfact> 0.90912156E+00</totfact>
</mgrwt>
</event>
<event>
11    1  0.2130093E-014  0.3651831E+04  0.7818608E-02  0.8078721E-01
          1   -1    0    0  501    0  0.00000000000E+00  0.00000000000E+00  0.12909197821E+04  0.12909197821E+04  0.00000000000E+00 0. -1.
         -1   -1    0    0    0  501 -0.00000000000E+00 -0.00000000000E+00 -0.25826297642E+04  0.25826297642E+04  0.00000000000E+00 0.  1.
    9900016    2    1    2    0    0 -0.10961538538E+03  0.26751037761E+03 -0.29133082157E+03  0.85495547167E+03  0.74999858407E+03 0.  0.
         23    2    3    3    0    0 -0.31878177654E+03  0.30879702328E+03 -0.20067690541E+03  0.49582612754E+03  0.92708714499E+02 0.  0.
        -15    1    1    2    0    0  0.49655016473E+02 -0.71024412112E+02 -0.40895402843E+03  0.41803526782E+03  0.00000000000E+00 0.  1.
        -15    1    4    4    0    0 -0.85910175493E+02  0.32125524542E+02 -0.43587111012E+02  0.10155020348E+03  0.00000000000E+00 0. -1.
         15    1    4    4    0    0 -0.23287160105E+03  0.27667149874E+03 -0.15708979440E+03  0.39427592406E+03  0.00000000000E+00 0.  1.
         15    1    1    2    0    0 -0.48976659204E+03  0.64285881160E+03  0.62650471578E+03  0.10225687875E+04  0.00000000000E+00 0. -1.
        -16    1    1    2    0    0  0.54972696095E+03 -0.83934477710E+03 -0.12179298479E+04  0.15779900192E+04  0.00000000000E+00 0.  1.
         16    1    3    3    0    0  0.24226761679E+03 -0.57149953323E+02 -0.71499542154E+02  0.25898243152E+03  0.00000000000E+00 0. -1.
    9900018    1    3    3    0    0 -0.33101225627E+02  0.15863307646E+02 -0.19154374005E+02  0.10014691261E+03  0.91187600000E+02 0.  0.
<mgrwt>
<rscale>  0 0.36518312E+04</rscale>
<asrwt>0</asrwt>
<pdfrwt beam="1">  1        1 0.19860305E+00 0.36518312E+04</pdfrwt>
<pdfrwt beam="2">  1       -1 0.39732765E+00 0.36518312E+04</pdfrwt>
<totfact> 0.55141338E-02</totfact>
</mgrwt>
</event>
<event>
11    1  0.2130093E-014  0.1780969E+04  0.7818608E-02  0.8716486E-01
         -2   -1    0    0    0  501 -0.00000000000E+00  0.00000000000E+00  0.16763777243E+04  0.16763777243E+04  0.00000000000E+00 0. -1.
          2   -1    0    0  501    0  0.00000000000E+00 -0.00000000000E+00 -0.47302140918E+03  0.47302140918E+03  0.00000000000E+00 0.  1.
    9900016    2    1    2    0    0 -0.73537192799E+02 -0.20916022195E+03  0.95632157961E+03  0.11890362489E+04  0.67089531263E+03 0.  0.
         23    2    3    3    0    0  0.16181820446E+03  0.13466791581E+03  0.12685162698E+03  0.26079578783E+03  0.87192481561E+02 0.  0.
        -15    1    1    2    0    0  0.33912414958E+01 -0.48381439840E+02 -0.31882097880E+02  0.58040782257E+02  0.00000000000E+00 0. -1.
        -15    1    4    4    0    0  0.47514803840E+02  0.85414111907E+02  0.27483475545E+02  0.10153112097E+03  0.00000000000E+00 0.  1.
         15    1    4    4    0    0  0.11430340062E+03  0.49253803901E+02  0.99368151434E+02  0.15926466686E+03  0.00000000000E+00 0. -1.
         15    1    1    2    0    0 -0.98508821038E+02  0.37500011656E+03 -0.12178587896E+03  0.40639989611E+03  0.00000000000E+00 0.  1.
        -16    1    1    2    0    0  0.16939231399E+03 -0.43787850556E+02  0.24048742977E+03  0.29739760553E+03  0.00000000000E+00 0.  1.
         16    1    3    3    0    0 -0.23535539726E+03 -0.34382813776E+03  0.82946995263E+03  0.92824046111E+03  0.00000000000E+00 0. -1.
    9900018    1    1    2    0    0 -0.73754165331E+00 -0.73670604211E+02  0.16021528254E+03  0.19852460061E+03  0.91187600000E+02 0.  0.
<mgrwt>
<rscale>  0 0.17809689E+04</rscale>
<asrwt>0</asrwt>
<pdfrwt beam="1">  1        2 0.72772525E-01 0.17809689E+04</pdfrwt>
<pdfrwt beam="2">  1       -2 0.25790426E+00 0.17809689E+04</pdfrwt>
<totfact> 0.35688331E+00</totfact>
</mgrwt>
</event>
<event>
11    1  0.2130094E-014  0.3428401E+04  0.7818608E-02  0.8130971E-01
          1   -1    0    0  501    0  0.00000000000E+00  0.00000000000E+00  0.16541109895E+04  0.16541109895E+04  0.00000000000E+00 0. -1.
         -1   -1    0    0    0  501 -0.00000000000E+00 -0.00000000000E+00 -0.17764731625E+04  0.17764731625E+04  0.00000000000E+00 0.  1.
    9900016    2    1    2    0    0  0.45629413905E+03  0.69441199934E+02  0.50506742009E+03  0.10209342064E+04  0.75775136645E+03 0.  0.
         23    2    3    3    0    0 -0.38507182184E+02 -0.20705613480E+03  0.11814650127E+03  0.25791409591E+03  0.90587190437E+02 0.  0.
        -15    1    4    4    0    0 -0.33701897332E+02 -0.51303704931E+02 -0.15803456938E+01  0.61403465016E+02  0.00000000000E+00 0.  1.
        -15    1    1    2    0    0 -0.29415295750E+03 -0.50728482674E+03 -0.36027152539E+03  0.68822919863E+03  0.00000000000E+00 0.  1.
         15    1    1    2    0    0 -0.67830335506E+02  0.10559843019E+04 -0.49465347309E+02  0.10593161100E+04  0.00000000000E+00 0. -1.
         15    1    4    4    0    0 -0.48052848513E+01 -0.15575242987E+03  0.11972684696E+03  0.19651063090E+03  0.00000000000E+00 0. -1.
        -16    1    1    2    0    0 -0.94310846051E+02 -0.61814067508E+03 -0.21769272034E+03  0.66210463701E+03  0.00000000000E+00 0.  1.
         16    1    3    3    0    0  0.45547134164E+03  0.30407073694E+03  0.36357902687E+03  0.65734531633E+03  0.00000000000E+00 0. -1.
    9900018    1    3    3    0    0  0.39329979600E+02 -0.27573402207E+02  0.23341891948E+02  0.10567479415E+03  0.91187600000E+02 0.  0.
<mgrwt>
<rscale>  0 0.34284012E+04</rscale>
<asrwt>0</asrwt>
<pdfrwt beam="1">  1        1 0.25447862E+00 0.34284012E+04</pdfrwt>
<pdfrwt beam="2">  1       -1 0.27330356E+00 0.34284012E+04</pdfrwt>
<totfact> 0.20678996E-01</totfact>
</mgrwt>
</event>
<event>
11    1  0.2130093E-014  0.1425097E+04  0.7818608E-02  0.9435512E-01
          1   -1    0    0  501    0  0.00000000000E+00  0.00000000000E+00  0.13090059360E+04  0.13090059360E+04  0.00000000000E+00 0. -1.
         -1   -1    0    0    0  501 -0.00000000000E+00 -0.00000000000E+00 -0.69664828203E+03  0.69664828203E+03  0.00000000000E+00 0.  1.
    9900016    2    1    2    0    0 -0.29980696146E+03 -0.94940825811E+02  0.87491235060E+03  0.12023879246E+04  0.76247434411E+03 0.  0.
         23    2    3    3    0    0  0.17875601856E+03  0.38913834613E+02  0.37145551635E+03  0.42402323528E+03  0.91370141404E+02 0.  0.
        -15    1    1    2    0    0 -0.44905800436E+02 -0.82152890096E+02 -0.36434917041E+02  0.10046457805E+03  0.00000000000E+00 0. -1.
        -15    1    4    4    0    0 -0.34088403070E+01  0.12702043963E+02  0.66888118919E+02  0.68168779992E+02  0.00000000000E+00 0. -1.
         15    1    4    4    0    0  0.18216485887E+03  0.26211790650E+02  0.30456739743E+03  0.35585445529E+03  0.00000000000E+00 0.  1.
         15    1    1    2    0    0 -0.49666625160E+02 -0.71898481041E+02 -0.21960521030E+03  0.23635273136E+03  0.00000000000E+00 0.  1.
        -16    1    3    3    0    0 -0.47696771442E+03 -0.81888243773E+02  0.37352583518E+03  0.61133087163E+03  0.00000000000E+00 0.  1.
         16    1    1    2    0    0  0.39437938706E+03  0.24899219695E+03 -0.65145692919E+01  0.46644898402E+03  0.00000000000E+00 0. -1.
    9900018    1    3    3    0    0 -0.15952655979E+01 -0.51966416650E+02  0.12993099908E+03  0.16703381768E+03  0.91187600000E+02 0.  0.
<mgrwt>
<rscale>  0 0.89209936E+03</rscale>
<asrwt>0</asrwt>
<pdfrwt beam="1">  1        1 0.20138553E+00 0.14250972E+04</pdfrwt>
<pdfrwt beam="2">  1       -1 0.10717666E+00 0.14250972E+04</pdfrwt>
<totfact> 0.69808955E+00</totfact>
</mgrwt>
</event>
<event>
11    1  0.2130093E-014  0.1265262E+04  0.7818608E-02  0.9373483E-01
          2   -1    0    0  501    0  0.00000000000E+00  0.00000000000E+00  0.15844771577E+04  0.15844771577E+04  0.00000000000E+00 0.  1.
         -2   -1    0    0    0  501 -0.00000000000E+00 -0.00000000000E+00 -0.43294580505E+03  0.43294580505E+03  0.00000000000E+00 0. -1.
    9900016    2    1    2    0    0 -0.30517755217E+02  0.22354871544E+03  0.61384264228E+03  0.93456136397E+03  0.66760526659E+03 0.  0.
         23    2    3    3    0    0 -0.23653776819E+03  0.31939442531E+03  0.18071107618E+03  0.44544624521E+03  0.88334306005E+02 0.  0.
        -15    1    1    2    0    0  0.83762214240E+02 -0.62339948782E+02  0.50520760418E+02  0.11599450410E+03  0.00000000000E+00 0.  1.
        -15    1    4    4    0    0 -0.93020835419E+01  0.14548935108E+02 -0.10129985349E+02  0.20020411439E+02  0.00000000000E+00 0. -1.
         15    1    4    4    0    0 -0.22723568465E+03  0.30484549020E+03  0.19084106153E+03  0.42542583377E+03  0.00000000000E+00 0.  1.
         15    1    1    2    0    0 -0.48777174374E+02  0.27725715015E+03  0.25094297412E+03  0.37712480204E+03  0.00000000000E+00 0. -1.
        -16    1    1    2    0    0 -0.14438591086E+01 -0.44499849113E+03  0.16811169301E+03  0.47569662934E+03  0.00000000000E+00 0.  1.
         16    1    3    3    0    0  0.20602001297E+03 -0.95845709866E+02  0.43313156611E+03  0.48911511876E+03  0.00000000000E+00 0. -1.
    9900018    1    1    2    0    0 -0.30234255398E+01  0.65325743222E+01  0.68113282836E+02  0.11404566332E+03  0.91187600000E+02 0.  0.
<mgrwt>
<rscale>  0 0.94290473E+03</rscale>
<asrwt>0</asrwt>
<pdfrwt beam="1">  1        2 0.24376571E+00 0.12652615E+04</pdfrwt>
<pdfrwt beam="2">  1       -2 0.66607048E-01 0.12652615E+04</pdfrwt>
<totfact> 0.23041594E+01</totfact>
</mgrwt>
</event>
<event>
11    1  0.2130093E-014  0.5354621E+04  0.7818608E-02  0.7776016E-01
          2   -1    0    0  501    0  0.00000000000E+00  0.00000000000E+00  0.44538918923E+04  0.44538918923E+04  0.00000000000E+00 0.  1.
         -2   -1    0    0    0  501 -0.00000000000E+00 -0.00000000000E+00 -0.16093771404E+04  0.16093771404E+04  0.00000000000E+00 0. -1.
    9900016    2    1    2    0    0  0.40665811506E+03  0.36953731978E+03  0.70604696715E+03  0.11191552973E+04  0.67236716631E+03 0.  0.
         23    2    3    3    0    0  0.52204816859E+03  0.24897036686E+03  0.25454717738E+03  0.63779959225E+03  0.86449525469E+02 0.  0.
        -15    1    1    2    0    0  0.18933347185E+03  0.15896805259E+04  0.18775214306E+04  0.24673909419E+04  0.00000000000E+00 0.  1.
        -15    1    4    4    0    0  0.46141507341E+03  0.18649378626E+03  0.21330322165E+03  0.54146289499E+03  0.00000000000E+00 0. -1.
         15    1    1    2    0    0  0.43712685464E+02  0.36853489020E+02 -0.14867999938E+03  0.15929444666E+03  0.00000000000E+00 0. -1.
         15    1    4    4    0    0  0.60633095184E+02  0.62476580594E+02  0.41243955721E+02  0.96336697255E+02  0.00000000000E+00 0.  1.
        -16    1    3    3    0    0 -0.11539005353E+03  0.12056695292E+03  0.45149978978E+03  0.48135570502E+03  0.00000000000E+00 0.  1.
         16    1    1    2    0    0 -0.68018378065E+03 -0.20509463852E+04  0.35019695290E+03  0.21889881124E+04  0.00000000000E+00 0. -1.
    9900018    1    1    2    0    0  0.40479508275E+02  0.54875050545E+02  0.59429400634E+02  0.12844023441E+03  0.91187600000E+02 0.  0.
<mgrwt>
<rscale>  0 0.53546211E+04</rscale>
<asrwt>0</asrwt>
<pdfrwt beam="1">  1        2 0.68521413E+00 0.53546211E+04</pdfrwt>
<pdfrwt beam="2">  1       -2 0.24759649E+00 0.53546211E+04</pdfrwt>
<totfact> 0.63579571E-03</totfact>
</mgrwt>
</event>
<event>
11    1  0.2130093E-014  0.1026385E+04  0.7818608E-02  0.9552220E-01
         -2   -1    0    0    0  501 -0.00000000000E+00  0.00000000000E+00  0.39207039111E+03  0.39207039111E+03  0.00000000000E+00 0. -1.
          2   -1    0    0  501    0  0.00000000000E+00 -0.00000000000E+00 -0.27971452858E+04  0.27971452858E+04  0.00000000000E+00 0.  1.
    9900016    2    1    2    0    0  0.12400790556E+03 -0.82454031192E+01 -0.13474840564E+04  0.15078841991E+04  0.66524847126E+03 0.  0.
         23    2    3    3    0    0  0.19837533475E+03  0.25874676908E+03 -0.41610419825E+03  0.53614155077E+03  0.89456104962E+02 0.  0.
        -15    1    1    2    0    0  0.88914134570E+02 -0.55528635825E+02  0.14159689414E+03  0.17617841284E+03  0.00000000000E+00 0.  1.
        -15    1    4    4    0    0  0.30635967157E+02  0.10838162821E+03 -0.13023894354E+03  0.17218397786E+03  0.00000000000E+00 0.  1.
         15    1    4    4    0    0  0.16773936759E+03  0.15036514087E+03 -0.28586525471E+03  0.36395757291E+03  0.00000000000E+00 0. -1.
         15    1    1    2    0    0 -0.11010627987E+03  0.21908752303E+03  0.22697394239E+02  0.24624765445E+03  0.00000000000E+00 0. -1.
        -16    1    3    3    0    0 -0.74367429189E+02 -0.26699217220E+03 -0.93137985810E+03  0.97174264834E+03  0.00000000000E+00 0.  1.
         16    1    1    2    0    0 -0.78745820003E+02 -0.16988554864E+03 -0.99982732438E+03  0.10172102449E+04  0.00000000000E+00 0. -1.
    9900018    1    1    2    0    0 -0.24069940257E+02  0.14572064555E+02 -0.22205780238E+03  0.24169516561E+03  0.91187600000E+02 0.  0.
<mgrwt>
<rscale>  0 0.80540976E+03</rscale>
<asrwt>0</asrwt>
<pdfrwt beam="1">  1        2 0.43033005E+00 0.10263853E+04</pdfrwt>
<pdfrwt beam="2">  1       -2 0.60318521E-01 0.10263853E+04</pdfrwt>
<totfact> 0.60309279E+00</totfact>
</mgrwt>
</event>
<event>
11    1  0.2130093E-014  0.1080250E+04  0.7818608E-02  0.9224658E-01
          1   -1    0    0  501    0  0.00000000000E+00  0.00000000000E+00  0.13939946490E+04  0.13939946490E+04  0.00000000000E+00 0. -1.
         -1   -1    0    0    0  501 -0.00000000000E+00 -0.00000000000E+00 -0.20927999694E+03  0.20927999694E+03  0.00000000000E+00 0.  1.
    9900016    2    1    2    0    0 -0.15703636150E+02 -0.48206127396E+02  0.82325526533E+03  0.11170716110E+04  0.75334541701E+03 0.  0.
         23    2    3    3    0    0  0.14217942897E+03 -0.27665695769E+03  0.48244384998E+03  0.58050340961E+03  0.86475880610E+02 0.  0.
        -15    1    1    2    0    0  0.97405069009E+02 -0.10546116621E+03  0.13563187381E+03  0.19749888668E+03  0.00000000000E+00 0.  1.
        -15    1    4    4    0    0  0.11752716801E+03 -0.27052327161E+03  0.42123214494E+03  0.51422951650E+03  0.00000000000E+00 0.  1.
         15    1    4    4    0    0  0.24652260965E+02 -0.61336860852E+01  0.61211705034E+02  0.66273893117E+02  0.00000000000E+00 0. -1.
         15    1    1    2    0    0 -0.28210393798E+02  0.83537486242E+02  0.14120641694E+03  0.16647399229E+03  0.00000000000E+00 0. -1.
        -16    1    3    3    0    0 -0.17593998364E+03  0.26173849946E+03  0.26835234173E+03  0.41409527799E+03  0.00000000000E+00 0.  1.
         16    1    1    2    0    0 -0.53491039061E+02  0.70129807360E+02  0.84621096005E+02  0.12223015597E+03  0.00000000000E+00 0. -1.
    9900018    1    3    3    0    0  0.18056918518E+02 -0.33287669158E+02  0.72459073615E+02  0.12247292340E+03  0.91187600000E+02 0.  0.
<mgrwt>
<rscale>  0 0.10802503E+04</rscale>
<asrwt>0</asrwt>
<pdfrwt beam="1">  1        1 0.21446071E+00 0.10802503E+04</pdfrwt>
<pdfrwt beam="2">  1       -1 0.32196923E-01 0.10802503E+04</pdfrwt>
<totfact> 0.69675562E+01</totfact>
</mgrwt>
</event>
<event>
11    1  0.2130093E-014  0.4102545E+04  0.7818608E-02  0.7984173E-01
          1   -1    0    0  501    0  0.00000000000E+00  0.00000000000E+00  0.13517230108E+04  0.13517230108E+04  0.00000000000E+00 0. -1.
         -1   -1    0    0    0  501 -0.00000000000E+00 -0.00000000000E+00 -0.31128564389E+04  0.31128564389E+04  0.00000000000E+00 0.  1.
    9900016    2    1    2    0    0 -0.16716378659E+03  0.21316788250E+03 -0.39648277647E+02  0.72275340880E+03  0.66889178970E+03 0.  0.
         23    2    3    3    0    0  0.16020294838E+03  0.26981713746E+02 -0.23380228358E+03  0.29904354742E+03  0.91490643800E+02 0.  0.
        -15    1    1    2    0    0  0.28368552337E+03 -0.20404432254E+03  0.29196532120E+03  0.45536283392E+03  0.00000000000E+00 0.  1.
        -15    1    4    4    0    0  0.36137541598E+02  0.21470200723E+02 -0.13178393487E+03  0.13832533001E+03  0.00000000000E+00 0.  1.
         15    1    4    4    0    0  0.12406540679E+03  0.55115130234E+01 -0.10201834871E+03  0.16071821742E+03  0.00000000000E+00 0. -1.
         15    1    1    2    0    0  0.47943810215E+03  0.97850858627E+03 -0.31430473500E+03  0.11340755767E+04  0.00000000000E+00 0. -1.
        -16    1    1    2    0    0 -0.60508097312E+03 -0.10016472089E+04 -0.16948291480E+04  0.20595790725E+04  0.00000000000E+00 0.  1.
         16    1    3    3    0    0 -0.32736673498E+03  0.18618616875E+03  0.19415400593E+03  0.42370986137E+03  0.00000000000E+00 0. -1.
    9900018    1    1    2    0    0  0.91211341942E+01  0.14015062633E+02 -0.43165885983E+01  0.92808557798E+02  0.91187600000E+02 0.  0.
<mgrwt>
<rscale>  0 0.41025454E+04</rscale>
<asrwt>0</asrwt>
<pdfrwt beam="1">  1        1 0.20795739E+00 0.41025454E+04</pdfrwt>
<pdfrwt beam="2">  1       -1 0.47890099E+00 0.41025454E+04</pdfrwt>
<totfact> 0.13260578E-02</totfact>
</mgrwt>
</event>
<event>
11    1  0.2130093E-014  0.2790816E+04  0.7818608E-02  0.8928704E-01
         -2   -1    0    0    0  501 -0.00000000000E+00  0.00000000000E+00  0.16907753615E+04  0.16907753615E+04  0.00000000000E+00 0. -1.
          2   -1    0    0  501    0  0.00000000000E+00 -0.00000000000E+00 -0.13256049088E+04  0.13256049088E+04  0.00000000000E+00 0.  1.
    9900016    2    1    2    0    0  0.42136944551E+03 -0.46763159582E+03 -0.95898572154E+03  0.13783781038E+04  0.76422579379E+03 0.  0.
         23    2    3    3    0    0 -0.16524837202E+03 -0.14484419814E+03 -0.23582545184E+03  0.33488153688E+03  0.90802719224E+02 0.  0.
        -15    1    1    2    0    0  0.52307197191E+02 -0.79994278711E+02  0.23136341847E+02  0.98338282569E+02  0.00000000000E+00 0. -1.
        -15    1    4    4    0    0 -0.61664313699E+02 -0.72311765919E+01 -0.38936519056E+02  0.73285946914E+02  0.00000000000E+00 0. -1.
         15    1    1    2    0    0 -0.89925536469E+02 -0.36840568287E+02  0.57113342512E+02  0.11271984508E+03  0.00000000000E+00 0.  1.
         15    1    4    4    0    0 -0.10358405832E+03 -0.13761302155E+03 -0.19688893278E+03  0.26159558997E+03  0.00000000000E+00 0.  1.
        -16    1    3    3    0    0  0.56484839748E+03 -0.21628001076E+03 -0.53259272462E+03  0.80590679704E+03  0.00000000000E+00 0.  1.
         16    1    1    2    0    0 -0.38375110623E+03  0.58446644282E+03  0.12439064899E+04  0.14269440388E+04  0.00000000000E+00 0. -1.
    9900018    1    3    3    0    0  0.21769420053E+02 -0.10650738692E+03 -0.19056754507E+03  0.23758976987E+03  0.91187600000E+02 0.  0.
<mgrwt>
<rscale>  0 0.14352312E+04</rscale>
<asrwt>0</asrwt>
<pdfrwt beam="1">  1        2 0.20393922E+00 0.27908157E+04</pdfrwt>
<pdfrwt beam="2">  1       -2 0.26011929E+00 0.27908157E+04</pdfrwt>
<totfact> 0.76926144E-01</totfact>
</mgrwt>
</event>
<event>
11    1  0.2130093E-014  0.3148752E+04  0.7818608E-02  0.8202484E-01
          2   -1    0    0  501    0  0.00000000000E+00  0.00000000000E+00  0.15435828149E+04  0.15435828149E+04  0.00000000000E+00 0. -1.
         -2   -1    0    0    0  501 -0.00000000000E+00 -0.00000000000E+00 -0.16057829869E+04  0.16057829869E+04  0.00000000000E+00 0.  1.
    9900016    2    1    2    0    0 -0.39605421320E+03 -0.29314578804E+02  0.78753119893E+02  0.77664625901E+03  0.66276622833E+03 0.  0.
         23    2    3    3    0    0 -0.28073208057E+03 -0.33430008934E+03  0.32428219744E+02  0.44731154738E+03  0.92027062254E+02 0.  0.
        -15    1    1    2    0    0  0.60033359824E+01 -0.11289828657E+03 -0.22824943475E+03  0.25471526774E+03  0.00000000000E+00 0.  1.
        -15    1    4    4    0    0 -0.10999333551E+03 -0.13755776189E+03  0.58316337686E+02  0.18553023191E+03  0.00000000000E+00 0. -1.
         15    1    4    4    0    0 -0.17073874507E+03 -0.19674232745E+03 -0.25888117941E+02  0.26178131546E+03  0.00000000000E+00 0.  1.
         15    1    1    2    0    0 -0.69586595102E+03  0.10050656171E+03  0.48189785825E+03  0.85238285795E+03  0.00000000000E+00 0. -1.
        -16    1    1    2    0    0  0.11052214374E+04  0.59694689549E+02 -0.37547294666E+03  0.11687847600E+04  0.00000000000E+00 0.  1.
         16    1    3    3    0    0 -0.11532213263E+03  0.30498551053E+03  0.46324900148E+02  0.32933471163E+03  0.00000000000E+00 0. -1.
    9900018    1    1    2    0    0 -0.19304609118E+02 -0.17988385882E+02 -0.19128768768E+02  0.96836657048E+02  0.91187600000E+02 0.  0.
<mgrwt>
<rscale>  0 0.31487515E+04</rscale>
<asrwt>0</asrwt>
<pdfrwt beam="1">  1        2 0.23747428E+00 0.31487515E+04</pdfrwt>
<pdfrwt beam="2">  1       -2 0.24704354E+00 0.31487515E+04</pdfrwt>
<totfact> 0.67978976E-01</totfact>
</mgrwt>
</event>
<event>
11    1  0.2130093E-014  0.1724766E+04  0.7818608E-02  0.8747364E-01
          2   -1    0    0  501    0  0.00000000000E+00  0.00000000000E+00  0.15502891609E+04  0.15502891609E+04  0.00000000000E+00 0. -1.
         -2   -1    0    0    0  501 -0.00000000000E+00 -0.00000000000E+00 -0.47971975055E+03  0.47971975055E+03  0.00000000000E+00 0.  1.
    9900016    2    1    2    0    0  0.19933332486E+03 -0.27008101907E+03  0.91346907372E+03  0.12293974221E+04  0.75120885341E+03 0.  0.
         23    2    3    3    0    0  0.31330744149E+03  0.11244314754E+03  0.41468951625E+03  0.53939270294E+03  0.90399550751E+02 0.  0.
        -15    1    1    2    0    0 -0.10731725931E+03  0.20328638847E+02  0.71480316746E+02  0.13053613823E+03  0.00000000000E+00 0. -1.
        -15    1    4    4    0    0  0.10025111289E+03  0.82242323272E+02  0.16140732641E+03  0.20704204981E+03  0.00000000000E+00 0.  1.
         15    1    1    2    0    0 -0.19269477166E+03  0.41250020924E+03 -0.11576215580E+02  0.45543573248E+03  0.00000000000E+00 0.  1.
         15    1    4    4    0    0  0.21305632860E+03  0.30200824272E+02  0.25328218984E+03  0.33235065312E+03  0.00000000000E+00 0. -1.
        -16    1    1    2    0    0  0.10067870611E+03 -0.16274782902E+03  0.97196235414E+02  0.21463961865E+03  0.00000000000E+00 0.  1.
         16    1    3    3    0    0 -0.12817108523E+03 -0.34286052257E+03  0.32606198482E+03  0.49020157382E+03  0.00000000000E+00 0. -1.
    9900018    1    3    3    0    0  0.14196968606E+02 -0.39663644044E+02  0.17271757264E+03  0.19980314529E+03  0.91187600000E+02 0.  0.
<mgrwt>
<rscale>  0 0.17247659E+04</rscale>
<asrwt>0</asrwt>
<pdfrwt beam="1">  1        2 0.23850602E+00 0.17247659E+04</pdfrwt>
<pdfrwt beam="2">  1       -2 0.73803039E-01 0.17247659E+04</pdfrwt>
<totfact> 0.18686922E+01</totfact>
</mgrwt>
</event>
<event>
11    1  0.2130093E-014  0.1489275E+04  0.7818608E-02  0.9447165E-01
         -1   -1    0    0    0  501 -0.00000000000E+00  0.00000000000E+00  0.36508519288E+03  0.36508519288E+03  0.00000000000E+00 0.  1.
          1   -1    0    0  501    0  0.00000000000E+00 -0.00000000000E+00 -0.19671410184E+04  0.19671410184E+04  0.00000000000E+00 0. -1.
    9900016    2    1    2    0    0  0.29308812641E+03  0.18560082734E+02 -0.31340809727E+03  0.87851856260E+03  0.76637138705E+03 0.  0.
         23    2    3    3    0    0  0.17877853623E+03 -0.19511635020E+03  0.11802162894E+03  0.30371960110E+03  0.91018328147E+02 0.  0.
        -15    1    4    4    0    0  0.16012969459E+03 -0.16092153390E+03  0.61720417764E+02  0.23525872806E+03  0.00000000000E+00 0. -1.
        -15    1    1    2    0    0  0.87132950127E+02  0.25540059315E+02 -0.20999248175E+02  0.93195568841E+02  0.00000000000E+00 0.  1.
         15    1    1    2    0    0 -0.77576072829E+02  0.47282392200E+02 -0.52533786852E+02  0.10494508301E+03  0.00000000000E+00 0. -1.
         15    1    4    4    0    0  0.18648841646E+02 -0.34194816306E+02  0.56301211174E+02  0.68460873034E+02  0.00000000000E+00 0.  1.
        -16    1    3    3    0    0  0.13501938540E+03  0.19884043639E+03 -0.41373345891E+03  0.47848001902E+03  0.00000000000E+00 0.  1.
         16    1    1    2    0    0 -0.30264500371E+03 -0.91382534249E+02 -0.12151146932E+04  0.12555669968E+04  0.00000000000E+00 0. -1.
    9900018    1    3    3    0    0 -0.20709795227E+02  0.14835996545E+02 -0.17696267298E+02  0.96318942487E+02  0.91187600000E+02 0.  0.
<mgrwt>
<rscale>  0 0.88293786E+03</rscale>
<asrwt>0</asrwt>
<pdfrwt beam="1">  1        1 0.30263708E+00 0.14892747E+04</pdfrwt>
<pdfrwt beam="2">  1       -1 0.56166953E-01 0.14892747E+04</pdfrwt>
<totfact> 0.97197688E+00</totfact>
</mgrwt>
</event>
<event>
11    1  0.2130093E-014  0.1419398E+04  0.7818608E-02  0.9434123E-01
         -2   -1    0    0    0  501 -0.00000000000E+00  0.00000000000E+00  0.66733400375E+03  0.66733400375E+03  0.00000000000E+00 0. -1.
          2   -1    0    0  501    0  0.00000000000E+00 -0.00000000000E+00 -0.11264891829E+04  0.11264891829E+04  0.00000000000E+00 0.  1.
    9900016    2    1    2    0    0  0.20848278182E+03 -0.95505016854E+02  0.25744178116E+03  0.74836014383E+03  0.66421408870E+03 0.  0.
         23    2    3    3    0    0  0.13256526740E+03 -0.16793311097E+03  0.46272055590E+03  0.51782018379E+03  0.90842446022E+02 0.  0.
        -15    1    4    4    0    0  0.10463126463E+03 -0.67468115675E+02  0.29678840363E+03  0.32184313679E+03  0.00000000000E+00 0. -1.
        -15    1    1    2    0    0  0.18027044154E+02  0.74590553232E+02 -0.52092595420E+02  0.92748926947E+02  0.00000000000E+00 0.  1.
         15    1    4    4    0    0  0.27934002773E+02 -0.10046499530E+03  0.16593215228E+03  0.19597704700E+03  0.00000000000E+00 0.  1.
         15    1    1    2    0    0  0.38320593895E+02  0.12821003418E+03 -0.23614399827E+03  0.27142267536E+03  0.00000000000E+00 0. -1.
        -16    1    3    3    0    0  0.75917514416E+02  0.72428094119E+02 -0.20527877475E+03  0.23053996004E+03  0.00000000000E+00 0.  1.
         16    1    1    2    0    0 -0.30128229739E+03 -0.94100479174E+02 -0.47616340176E+03  0.57127708520E+03  0.00000000000E+00 0. -1.
    9900018    1    1    2    0    0  0.36451877520E+02 -0.13195091380E+02  0.47803035153E+02  0.11001435531E+03  0.91187600000E+02 0.  0.
<mgrwt>
<rscale>  0 0.89319916E+03</rscale>
<asrwt>0</asrwt>
<pdfrwt beam="1">  1        2 0.17330603E+00 0.14193979E+04</pdfrwt>
<pdfrwt beam="2">  1       -2 0.10266677E+00 0.14193979E+04</pdfrwt>
<totfact> 0.15710647E+01</totfact>
</mgrwt>
</event>
<event>
11    1  0.2130093E-014  0.3622568E+04  0.7818608E-02  0.8085342E-01
          1   -1    0    0  501    0  0.00000000000E+00  0.00000000000E+00  0.17983386875E+04  0.17983386875E+04  0.00000000000E+00 0. -1.
         -1   -1    0    0    0  501 -0.00000000000E+00 -0.00000000000E+00 -0.18243220353E+04  0.18243220353E+04  0.00000000000E+00 0.  1.
    9900016    2    1    2    0    0  0.18288644229E+03  0.21028718477E+03 -0.31347380345E+03  0.77790551956E+03  0.65513587984E+03 0.  0.
         23    2    3    3    0    0  0.28262459156E+03  0.17047648628E+03  0.95553921132E+02  0.35501514415E+03  0.89254179751E+02 0.  0.
        -15    1    1    2    0    0 -0.11826805600E+03  0.29756006769E+03 -0.43741829659E+03  0.54209232898E+03  0.00000000000E+00 0.  1.
        -15    1    4    4    0    0  0.25913970630E+03  0.18085736550E+03  0.84908193573E+02  0.32721884936E+03  0.00000000000E+00 0.  1.
         15    1    1    2    0    0 -0.17942616002E+03  0.69766535071E+03  0.34296447005E+03  0.79784416786E+03  0.00000000000E+00 0. -1.
         15    1    4    4    0    0  0.23484885263E+02 -0.10380879220E+02  0.10645727559E+02  0.27796294797E+02  0.00000000000E+00 0. -1.
        -16    1    1    2    0    0  0.11556361845E+03 -0.13009489052E+04  0.41186092498E+03  0.13694715862E+04  0.00000000000E+00 0.  1.
         16    1    3    3    0    0 -0.99738149269E+02  0.39810698489E+02 -0.40902772458E+03  0.42289037541E+03  0.00000000000E+00 0. -1.
    9900018    1    1    2    0    0 -0.75584472159E+00  0.95436302053E+02 -0.29916642810E+02  0.13534712026E+03  0.91187600000E+02 0.  0.
<mgrwt>
<rscale>  0 0.36225675E+04</rscale>
<asrwt>0</asrwt>
<pdfrwt beam="1">  1        1 0.27666749E+00 0.36225675E+04</pdfrwt>
<pdfrwt beam="2">  1       -1 0.28066493E+00 0.36225675E+04</pdfrwt>
<totfact> 0.14535462E-01</totfact>
</mgrwt>
</event>
