<event>
11    1  0.2765880E-009  0.2798246E+04  0.7818608E-02  0.8303813E-01
          1   -1    0    0  501    0  0.00000000000E+00  0.00000000000E+00  0.28620043357E+04  0.28620043357E+04  0.00000000000E+00 0. -1.
         -1   -1    0    0    0  501 -0.00000000000E+00 -0.00000000000E+00 -0.68397694282E+03  0.68397694282E+03  0.00000000000E+00 0.  1.
    9900016    2    1    2    0    0 -0.44771901583E+03  0.28030962699E+03  0.16719918764E+04  0.28144775204E+04  0.22015224447E+04 0.  0.
         23    2    3    3    0    0 -0.92893880464E+02 -0.14289454062E+03 -0.69555797412E+02  0.20579895004E+03  0.92016716516E+02 0.  0.
        -15    1    4    4    0    0 -0.63891468732E+02 -0.73297817466E+02  0.80873073063E+01  0.97570970896E+02  0.00000000000E+00 0. -1.
        -15    1    3    3    0    0  0.23389361074E+03  0.20908609017E+03  0.10022875969E+04  0.10502398018E+04  0.00000000000E+00 0.  1.
         15    1    4    4    0    0 -0.29002411732E+02 -0.69596723155E+02 -0.77643104718E+02  0.10822797915E+03  0.00000000000E+00 0.  1.
         15    1    3    3    0    0 -0.36584388599E+03 -0.14174885550E+03 -0.10671029035E+03  0.40659755658E+03  0.00000000000E+00 0. -1.
        -16    1    1    2    0    0  0.44771901583E+03 -0.28030962699E+03  0.50603551654E+03  0.73150375810E+03  0.00000000000E+00 0.  1.
         16    1    3    3    0    0 -0.18068555477E+03 -0.37432735839E+02  0.69446125242E+03  0.71855752068E+03  0.00000000000E+00 0. -1.
    9900018    1    3    3    0    0 -0.42189305339E+02  0.39329966879E+03  0.15150911478E+03  0.43328369137E+03  0.91187600000E+02 0.  0.
<mgrwt>
<rscale>  0 0.27982459E+04</rscale>
<asrwt>0</asrwt>
<pdfrwt beam="1">  1        1 0.44030835E+00 0.27982459E+04</pdfrwt>
<pdfrwt beam="2">  1       -1 0.10522722E+00 0.27982459E+04</pdfrwt>
<totfact> 0.55153374E-01</totfact>
</mgrwt>
</event>
<event>
12    1  0.2765880E-009  0.3150364E+04  0.7818608E-02  0.8202050E-01
          2   -1    0    0  501    0  0.00000000000E+00  0.00000000000E+00  0.34410771038E+04  0.34410771038E+04  0.00000000000E+00 0. -1.
         -2   -1    0    0    0  501 -0.00000000000E+00 -0.00000000000E+00 -0.72105265127E+03  0.72105265127E+03  0.00000000000E+00 0.  1.
    9900016    2    1    2    0    0  0.23992443666E+03  0.70536806058E+03  0.24333130778E+04  0.33638119934E+04  0.21997978898E+04 0.  0.
         24    2    3    3    0    0  0.18366779345E+03  0.10161664718E+04  0.20187078039E+04  0.22697585720E+04  0.10146241131E+03 0.  0.
         23    2    3    3    0    0 -0.21168153576E+03 -0.10757673140E+03  0.13766617857E+03  0.28834414257E+03  0.88365955616E+02 0.  0.
        -15    1    5    5    0    0 -0.16121083913E+03 -0.67212348426E+02  0.54391123249E+02  0.18293394633E+03  0.00000000000E+00 0.  1.
        -15    1    4    4    0    0  0.15971722386E+03  0.86097347543E+03  0.17846684337E+04  0.19879201028E+04  0.00000000000E+00 0.  1.
         15    1    3    3    0    0  0.39816346937E+03 -0.33396983051E+03  0.89532197826E+02  0.52733861083E+03  0.00000000000E+00 0. -1.
         15    1    5    5    0    0 -0.50470696632E+02 -0.40364382972E+02  0.83275055326E+02  0.10541019624E+03  0.00000000000E+00 0. -1.
        -16    1    1    2    0    0 -0.23992443666E+03 -0.70536806058E+03  0.28671137469E+03  0.79831776165E+03  0.00000000000E+00 0.  1.
         16    1    4    4    0    0  0.23950569585E+02  0.15519299633E+03  0.23403937020E+03  0.28183846916E+03  0.00000000000E+00 0. -1.
    9900018    1    3    3    0    0 -0.13022529040E+03  0.13074815072E+03  0.18740689750E+03  0.27837066800E+03  0.91187600000E+02 0.  0.
<mgrwt>
<rscale>  0 0.31503636E+04</rscale>
<asrwt>0</asrwt>
<pdfrwt beam="1">  1        2 0.52939647E+00 0.31503636E+04</pdfrwt>
<pdfrwt beam="2">  1       -2 0.11093118E+00 0.31503636E+04</pdfrwt>
<totfact> 0.48571686E-01</totfact>
</mgrwt>
</event>
<event>
12    1  0.2765880E-009  0.2703484E+04  0.7818608E-02  0.8333876E-01
          2   -1    0    0  501    0  0.00000000000E+00  0.00000000000E+00  0.32110023630E+04  0.32110023630E+04  0.00000000000E+00 0. -1.
         -2   -1    0    0    0  501 -0.00000000000E+00 -0.00000000000E+00 -0.56904529859E+03  0.56904529859E+03  0.00000000000E+00 0.  1.
    9900016    2    1    2    0    0  0.24177369558E+03 -0.34929325066E+03  0.24190331071E+04  0.33003025359E+04  0.22044988910E+04 0.  0.
         24    2    3    3    0    0 -0.97044162455E+02  0.61523104000E+03  0.18494571762E+04  0.19538040815E+04  0.94507885420E+02 0.  0.
         23    2    3    3    0    0 -0.67526400476E+01 -0.37145163666E+02  0.28899678255E+03  0.30558345782E+03  0.91851772101E+02 0.  0.
        -15    1    5    5    0    0  0.36526122062E+02 -0.28833639642E+02  0.21030303379E+03  0.21539011674E+03  0.00000000000E+00 0. -1.
        -15    1    4    4    0    0 -0.13107444572E+02  0.36997339939E+03  0.11272470294E+04  0.11864813470E+04  0.00000000000E+00 0.  1.
         15    1    5    5    0    0 -0.43278762110E+02 -0.83115240233E+01  0.78693748753E+02  0.90193341074E+02  0.00000000000E+00 0.  1.
         15    1    3    3    0    0  0.22978743904E+03 -0.51400736830E+03  0.17389223319E+03  0.58927442722E+03  0.00000000000E+00 0. -1.
        -16    1    1    2    0    0 -0.24177369558E+03  0.34929325066E+03  0.22292395723E+03  0.47974512560E+03  0.00000000000E+00 0.  1.
         16    1    4    4    0    0 -0.83936717883E+02  0.24525764061E+03  0.72221014675E+03  0.76732273454E+03  0.00000000000E+00 0. -1.
    9900018    1    3    3    0    0  0.11578305904E+03 -0.41337175869E+03  0.10668691522E+03  0.45164056938E+03  0.91187600000E+02 0.  0.
<mgrwt>
<rscale>  0 0.27034835E+04</rscale>
<asrwt>0</asrwt>
<pdfrwt beam="1">  1        2 0.49400035E+00 0.27034835E+04</pdfrwt>
<pdfrwt beam="2">  1       -2 0.87545433E-01 0.27034835E+04</pdfrwt>
<totfact> 0.12596881E+00</totfact>
</mgrwt>
</event>
<event>
11    1  0.2765880E-009  0.3875995E+04  0.7818608E-02  0.8030040E-01
          1   -1    0    0  501    0  0.00000000000E+00  0.00000000000E+00  0.20693388150E+04  0.20693388150E+04  0.00000000000E+00 0. -1.
         -1   -1    0    0    0  501 -0.00000000000E+00 -0.00000000000E+00 -0.18149925157E+04  0.18149925157E+04  0.00000000000E+00 0.  1.
    9900016    2    1    2    0    0  0.11507270402E+04  0.33483380577E+03  0.70889582943E+03  0.26025740706E+04  0.21987660398E+04 0.  0.
         23    2    3    3    0    0  0.82063299133E+02 -0.87088610571E+02 -0.11184424264E+02  0.15058546222E+03  0.90730804741E+02 0.  0.
        -15    1    4    4    0    0  0.61907480403E+02 -0.28700499798E+02  0.31849488920E+02  0.75303683595E+02  0.00000000000E+00 0. -1.
        -15    1    3    3    0    0  0.66351009864E+03  0.36350457244E+03 -0.12956206879E+03  0.76757250788E+03  0.00000000000E+00 0.  1.
         15    1    4    4    0    0  0.20155818730E+02 -0.58388110773E+02 -0.43033913185E+02  0.75281778621E+02  0.00000000000E+00 0.  1.
         15    1    3    3    0    0 -0.15630711699E+03  0.14813873184E+02  0.28135800245E+03  0.32220132092E+03  0.00000000000E+00 0. -1.
        -16    1    1    2    0    0 -0.11507270402E+04 -0.33483380577E+03 -0.45454953013E+03  0.12817572601E+04  0.00000000000E+00 0.  1.
         16    1    3    3    0    0  0.41054307388E+03  0.38077538128E+03 -0.12285365142E+03  0.57326130706E+03  0.00000000000E+00 0. -1.
    9900018    1    3    3    0    0  0.15091768549E+03 -0.33717141056E+03  0.69113797146E+03  0.78895347257E+03  0.91187600000E+02 0.  0.
<mgrwt>
<rscale>  0 0.38759951E+04</rscale>
<asrwt>0</asrwt>
<pdfrwt beam="1">  1        1 0.31835982E+00 0.38759951E+04</pdfrwt>
<pdfrwt beam="2">  1       -1 0.27922962E+00 0.38759951E+04</pdfrwt>
<totfact> 0.95178937E-02</totfact>
</mgrwt>
</event>
<event>
11    1  0.2765880E-009  0.2592161E+04  0.7818608E-02  0.8370869E-01
          1   -1    0    0  501    0  0.00000000000E+00  0.00000000000E+00  0.60396341351E+03  0.60396341351E+03  0.00000000000E+00 0. -1.
         -1   -1    0    0    0  501 -0.00000000000E+00 -0.00000000000E+00 -0.27813357544E+04  0.27813357544E+04  0.00000000000E+00 0.  1.
    9900016    2    1    2    0    0 -0.40790089890E+00  0.84593856897E+02 -0.23309927661E+04  0.32099266444E+04  0.22052087202E+04 0.  0.
         23    2    3    3    0    0  0.26493715945E+01 -0.13562569774E+03 -0.14216290013E+03  0.21631895283E+03  0.90455790973E+02 0.  0.
        -15    1    4    4    0    0 -0.31434618440E+02 -0.11921547193E+03 -0.93783754091E+02  0.15490596023E+03  0.00000000000E+00 0.  1.
        -15    1    3    3    0    0  0.69282692879E+03 -0.35221678310E+02 -0.48223127284E+03  0.84486491250E+03  0.00000000000E+00 0.  1.
         15    1    3    3    0    0  0.47166565852E+02  0.34871716353E+03 -0.13365913343E+03  0.37642145134E+03  0.00000000000E+00 0. -1.
         15    1    4    4    0    0  0.34083990034E+02 -0.16410225811E+02 -0.48379146037E+02  0.61412992592E+02  0.00000000000E+00 0. -1.
        -16    1    3    3    0    0 -0.68492075796E+03 -0.18565549599E+02 -0.13104938140E+04  0.14788019343E+04  0.00000000000E+00 0.  1.
         16    1    1    2    0    0  0.40790089890E+00 -0.84593856897E+02  0.15362042513E+03  0.17537252358E+03  0.00000000000E+00 0. -1.
    9900018    1    3    3    0    0 -0.58130009167E+02 -0.74710380983E+02 -0.26244564568E+03  0.29351939344E+03  0.91187600000E+02 0.  0.
<mgrwt>
<rscale>  0 0.25921613E+04</rscale>
<asrwt>0</asrwt>
<pdfrwt beam="1">  1        1 0.92917446E-01 0.25921613E+04</pdfrwt>
<pdfrwt beam="2">  1       -1 0.42789782E+00 0.25921613E+04</pdfrwt>
<totfact> 0.13742723E-01</totfact>
</mgrwt>
</event>
<event>
11    1  0.2765880E-009  0.2510644E+04  0.7818608E-02  0.8399203E-01
          1   -1    0    0  501    0  0.00000000000E+00  0.00000000000E+00  0.35919578050E+04  0.35919578050E+04  0.00000000000E+00 0. -1.
         -1   -1    0    0    0  501 -0.00000000000E+00 -0.00000000000E+00 -0.43871152515E+03  0.43871152515E+03  0.00000000000E+00 0.  1.
    9900016    2    1    2    0    0 -0.20766629671E+03 -0.18986829292E+03  0.28698034514E+04  0.36312759195E+04  0.22070835269E+04 0.  0.
         23    2    3    3    0    0 -0.15788579313E+03 -0.23825979770E+03 -0.30250162155E+02  0.30125207416E+03  0.90233502654E+02 0.  0.
        -15    1    3    3    0    0  0.19740482873E+03  0.15368913862E+03  0.26397856350E+02  0.25156681927E+03  0.00000000000E+00 0.  1.
        -15    1    4    4    0    0  0.93197723992E+00 -0.26222337245E+02 -0.25055798886E+02  0.36280471468E+02  0.00000000000E+00 0. -1.
         15    1    4    4    0    0 -0.15881777037E+03 -0.21203746046E+03 -0.51943632690E+01  0.26497160269E+03  0.00000000000E+00 0.  1.
         15    1    3    3    0    0 -0.24223082151E+03 -0.46884339213E+03  0.17457786276E+04  0.18237962917E+04  0.00000000000E+00 0. -1.
        -16    1    1    2    0    0  0.20766629671E+03  0.18986829292E+03  0.28344282836E+03  0.39939341055E+03  0.00000000000E+00 0.  1.
         16    1    3    3    0    0  0.63515762102E+02  0.79869550473E+02  0.18226320051E+02  0.10366096599E+03  0.00000000000E+00 0. -1.
    9900018    1    3    3    0    0 -0.68470272905E+02  0.28367620782E+03  0.11096508096E+04  0.11509997684E+04  0.91187600000E+02 0.  0.
<mgrwt>
<rscale>  0 0.25106440E+04</rscale>
<asrwt>0</asrwt>
<pdfrwt beam="1">  1        1 0.55260887E+00 0.25106440E+04</pdfrwt>
<pdfrwt beam="2">  1       -1 0.67494083E-01 0.25106440E+04</pdfrwt>
<totfact> 0.41709397E-01</totfact>
</mgrwt>
</event>
<event>
12    1  0.2765880E-009  0.2754256E+04  0.7818608E-02  0.8317613E-01
         -2   -1    0    0    0  501 -0.00000000000E+00  0.00000000000E+00  0.10958162591E+04  0.10958162591E+04  0.00000000000E+00 0. -1.
          2   -1    0    0  501    0  0.00000000000E+00 -0.00000000000E+00 -0.17306560842E+04  0.17306560842E+04  0.00000000000E+00 0.  1.
    9900016    2    1    2    0    0  0.28062311919E+02 -0.18103166180E+03 -0.99706315146E+03  0.24205589362E+04  0.21980470149E+04 0.  0.
         24    2    3    3    0    0 -0.19670403536E+03  0.22367373965E+03 -0.11149768318E+04  0.11579640571E+04  0.94789254382E+02 0.  0.
         23    2    3    3    0    0  0.28134311016E+03 -0.11289262716E+03  0.22252116660E+02  0.31779881795E+03  0.92748267323E+02 0.  0.
        -15    1    5    5    0    0  0.76848179717E+02  0.11201962750E+02  0.11653680799E+01  0.77669072210E+02  0.00000000000E+00 0. -1.
        -15    1    4    4    0    0 -0.36686022002E+02  0.86291766875E+02 -0.23384437909E+03  0.25194310245E+03  0.00000000000E+00 0.  1.
         15    1    3    3    0    0  0.20199110669E+03  0.57127944643E+02 -0.28922303348E+03  0.35737091703E+03  0.00000000000E+00 0. -1.
         15    1    5    5    0    0  0.20449493045E+03 -0.12409458991E+03  0.21086748580E+02  0.24012974574E+03  0.00000000000E+00 0.  1.
        -16    1    1    2    0    0 -0.28062311919E+02  0.18103166180E+03  0.36222332633E+03  0.40591340710E+03  0.00000000000E+00 0.  1.
         16    1    4    4    0    0 -0.16001801336E+03  0.13738197278E+03 -0.88113245268E+03  0.90602095461E+03  0.00000000000E+00 0. -1.
    9900018    1    3    3    0    0 -0.25856786957E+03 -0.34894071893E+03  0.38488459712E+03  0.58742514417E+03  0.91187600000E+02 0.  0.
<mgrwt>
<rscale>  0 0.27542557E+04</rscale>
<asrwt>0</asrwt>
<pdfrwt beam="1">  1        2 0.26625478E+00 0.27542557E+04</pdfrwt>
<pdfrwt beam="2">  1       -2 0.16858712E+00 0.27542557E+04</pdfrwt>
<totfact> 0.17968117E+00</totfact>
</mgrwt>
</event>
<event>
12    1  0.2765880E-009  0.3010248E+04  0.7818608E-02  0.8240811E-01
         -1   -1    0    0    0  501 -0.00000000000E+00  0.00000000000E+00  0.19410962349E+04  0.19410962349E+04  0.00000000000E+00 0.  1.
          1   -1    0    0  501    0  0.00000000000E+00 -0.00000000000E+00 -0.11670716665E+04  0.11670716665E+04  0.00000000000E+00 0. -1.
    9900016    2    1    2    0    0 -0.37873332848E+03 -0.15923517777E+03  0.11877978548E+04  0.25250700465E+04  0.21900502779E+04 0.  0.
        -24    2    3    3    0    0  0.48537150940E+03 -0.27246662417E+03  0.17474615608E+03  0.58669109899E+03  0.62021473276E+02 0.  0.
         23    2    3    3    0    0 -0.41217505616E+03  0.21625121611E+03 -0.17819131513E+03  0.50669190376E+03  0.91278010299E+02 0.  0.
        -15    1    3    3    0    0 -0.19670555620E+03 -0.74014430191E+02  0.11338159924E+04  0.11531304853E+04  0.00000000000E+00 0.  1.
        -15    1    5    5    0    0 -0.14567080264E+03  0.33093786128E+02 -0.75669902815E+02  0.16745481663E+03  0.00000000000E+00 0. -1.
         15    1    4    4    0    0  0.12841328469E+03 -0.81905479758E+02  0.75801860411E+02  0.17013054206E+03  0.00000000000E+00 0. -1.
         15    1    5    5    0    0 -0.26650425352E+03  0.18315742999E+03 -0.10252141231E+03  0.33923708713E+03  0.00000000000E+00 0.  1.
        -16    1    4    4    0    0  0.35695822470E+03 -0.19056114441E+03  0.98944295669E+02  0.41656055693E+03  0.00000000000E+00 0.  1.
         16    1    1    2    0    0  0.37873332848E+03  0.15923517777E+03 -0.41377328637E+03  0.58309785496E+03  0.00000000000E+00 0. -1.
    9900018    1    3    3    0    0 -0.25522422552E+03 -0.29005339526E+02  0.57427021496E+02  0.27855655836E+03  0.91187600000E+02 0.  0.
<mgrwt>
<rscale>  0 0.30102481E+04</rscale>
<asrwt>0</asrwt>
<pdfrwt beam="1">  1        1 0.17954949E+00 0.30102481E+04</pdfrwt>
<pdfrwt beam="2">  1       -1 0.29863019E+00 0.30102481E+04</pdfrwt>
<totfact> 0.32379836E-01</totfact>
</mgrwt>
</event>
<event>
11    1  0.2765880E-009  0.2629890E+04  0.7818608E-02  0.8358119E-01
          1   -1    0    0  501    0  0.00000000000E+00  0.00000000000E+00  0.18967958725E+04  0.18967958725E+04  0.00000000000E+00 0. -1.
         -1   -1    0    0    0  501 -0.00000000000E+00 -0.00000000000E+00 -0.91157950039E+03  0.91157950039E+03  0.00000000000E+00 0.  1.
    9900016    2    1    2    0    0 -0.30683465961E+03  0.24308702171E+03  0.86398642151E+03  0.23985760203E+04  0.22030559639E+04 0.  0.
         23    2    3    3    0    0  0.32562981254E+03  0.30152544546E+03  0.39446969309E+03  0.60058906027E+03  0.90269105875E+02 0.  0.
        -15    1    4    4    0    0  0.14013163070E+03  0.14442817452E+03  0.12149114996E+03  0.23506695011E+03  0.00000000000E+00 0.  1.
        -15    1    3    3    0    0 -0.38330539063E+03  0.52021581061E+03  0.25408621408E+03  0.69433948202E+03  0.00000000000E+00 0.  1.
         15    1    3    3    0    0  0.11921123961E+03 -0.10222264408E+03  0.52999588860E+02  0.16573999225E+03  0.00000000000E+00 0. -1.
         15    1    4    4    0    0  0.18549818184E+03  0.15709727093E+03  0.27297854313E+03  0.36552211015E+03  0.00000000000E+00 0. -1.
        -16    1    1    2    0    0  0.30683465961E+03 -0.24308702171E+03  0.12122995060E+03  0.40979935259E+03  0.00000000000E+00 0.  1.
         16    1    3    3    0    0 -0.49865590118E+03 -0.98103871555E+02  0.40697040944E+02  0.50984147196E+03  0.00000000000E+00 0. -1.
    9900018    1    3    3    0    0  0.13028558005E+03 -0.37832771872E+03  0.12173388453E+03  0.42806601379E+03  0.91187600000E+02 0.  0.
<mgrwt>
<rscale>  0 0.26298899E+04</rscale>
<asrwt>0</asrwt>
<pdfrwt beam="1">  1        1 0.29181475E+00 0.26298899E+04</pdfrwt>
<pdfrwt beam="2">  1       -1 0.14024300E+00 0.26298899E+04</pdfrwt>
<totfact> 0.12833834E+00</totfact>
</mgrwt>
</event>
<event>
11    1  0.2765880E-009  0.2650927E+04  0.7818608E-02  0.8351105E-01
          1   -1    0    0  501    0  0.00000000000E+00  0.00000000000E+00  0.25680079413E+04  0.25680079413E+04  0.00000000000E+00 0. -1.
         -1   -1    0    0    0  501 -0.00000000000E+00 -0.00000000000E+00 -0.68413088700E+03  0.68413088700E+03  0.00000000000E+00 0.  1.
    9900016    2    1    2    0    0  0.37894979890E+03  0.44896070049E+02  0.13904598615E+04  0.26283767476E+04  0.21975821017E+04 0.  0.
         23    2    3    3    0    0 -0.11653894639E+03 -0.15394584211E+03 -0.78880488344E+02  0.22679571927E+03  0.89070300929E+02 0.  0.
        -15    1    3    3    0    0 -0.13433183230E+03  0.33670733847E+03 -0.43920057949E+01  0.36254125650E+03  0.00000000000E+00 0.  1.
        -15    1    4    4    0    0 -0.46876776064E+02 -0.36647453341E+02  0.14785635846E+02  0.61311361084E+02  0.00000000000E+00 0.  1.
         15    1    4    4    0    0 -0.69662170324E+02 -0.11729838877E+03 -0.93666124190E+02  0.16548435818E+03  0.00000000000E+00 0. -1.
         15    1    3    3    0    0  0.81430375843E+03  0.26729429434E+03  0.10397978689E+04  0.13474852351E+04  0.00000000000E+00 0. -1.
        -16    1    1    2    0    0 -0.37894979890E+03 -0.44896070049E+02  0.49341719284E+03  0.62376208075E+03  0.00000000000E+00 0.  1.
         16    1    3    3    0    0 -0.20557090194E+03 -0.13391157907E+03  0.25250798336E+03  0.35206815874E+03  0.00000000000E+00 0. -1.
    9900018    1    3    3    0    0  0.21087721098E+02 -0.27124814158E+03  0.18142650340E+03  0.33948637796E+03  0.91187600000E+02 0.  0.
<mgrwt>
<rscale>  0 0.26509270E+04</rscale>
<asrwt>0</asrwt>
<pdfrwt beam="1">  1        1 0.39507814E+00 0.26509270E+04</pdfrwt>
<pdfrwt beam="2">  1       -1 0.10525091E+00 0.26509270E+04</pdfrwt>
<totfact> 0.90145469E-01</totfact>
</mgrwt>
</event>
<event>
12    1  0.2765880E-009  0.3339239E+04  0.7818608E-02  0.8152982E-01
         -1   -1    0    0    0  501 -0.00000000000E+00  0.00000000000E+00  0.11634522521E+04  0.11634522521E+04  0.00000000000E+00 0.  1.
          1   -1    0    0  501    0  0.00000000000E+00 -0.00000000000E+00 -0.23959977286E+04  0.23959977286E+04  0.00000000000E+00 0. -1.
    9900016    2    1    2    0    0 -0.43367196983E+03 -0.13115979326E+02  0.38406150440E+01  0.22491469724E+04  0.22068991700E+04 0.  0.
        -24    2    3    3    0    0 -0.16778623509E+03  0.48388725858E+02  0.68177273105E+03  0.70982737983E+03  0.92450867365E+02 0.  0.
         23    2    3    3    0    0 -0.15426654126E+03 -0.39941476452E+03 -0.13409403867E+03  0.45803524329E+03  0.92112719081E+02 0.  0.
        -15    1    5    5    0    0 -0.10562327164E+03 -0.35738823488E+03 -0.12520517399E+03  0.39313987529E+03  0.00000000000E+00 0.  1.
        -15    1    3    3    0    0  0.34853184949E+02  0.44742018668E+03 -0.69485808128E+03  0.82718034374E+03  0.00000000000E+00 0.  1.
         15    1    5    5    0    0 -0.48643269621E+02 -0.42026529640E+02 -0.88888646716E+01  0.64895368002E+02  0.00000000000E+00 0. -1.
         15    1    4    4    0    0 -0.10374905974E+03  0.63291192022E+02  0.32356361495E+03  0.34563427970E+03  0.00000000000E+00 0. -1.
        -16    1    4    4    0    0 -0.64037175353E+02 -0.14902466165E+02  0.35820911610E+03  0.36419310013E+03  0.00000000000E+00 0.  1.
         16    1    1    2    0    0  0.43367196983E+03  0.13115979326E+02 -0.12363860915E+04  0.13103030083E+04  0.00000000000E+00 0. -1.
    9900018    1    3    3    0    0 -0.14647237842E+03 -0.10951012734E+03  0.15102000394E+03  0.25410400551E+03  0.91187600000E+02 0.  0.
<mgrwt>
<rscale>  0 0.33392388E+04</rscale>
<asrwt>0</asrwt>
<pdfrwt beam="1">  1        1 0.36861504E+00 0.33392388E+04</pdfrwt>
<pdfrwt beam="2">  1       -1 0.17899265E+00 0.33392388E+04</pdfrwt>
<totfact> 0.27972365E-01</totfact>
</mgrwt>
</event>
<event>
11    1  0.2765880E-009  0.3190505E+04  0.7818608E-02  0.8191329E-01
          2   -1    0    0  501    0  0.00000000000E+00  0.00000000000E+00  0.18686455213E+04  0.18686455213E+04  0.00000000000E+00 0. -1.
         -2   -1    0    0    0  501 -0.00000000000E+00 -0.00000000000E+00 -0.13618586532E+04  0.13618586532E+04  0.00000000000E+00 0.  1.
    9900016    2    1    2    0    0 -0.34886806576E+02 -0.83335025309E+03  0.27136276741E+03  0.23638357022E+04  0.21950835387E+04 0.  0.
         23    2    3    3    0    0  0.23605161538E+03  0.22140139602E+02  0.42079389757E+03  0.49130211312E+03  0.89998395638E+02 0.  0.
        -15    1    3    3    0    0  0.29766003092E+02  0.28666227276E+02  0.27835758855E+02  0.49825666050E+02  0.00000000000E+00 0.  1.
        -15    1    4    4    0    0  0.22865269720E+03  0.22479051778E+01  0.35591235857E+03  0.42303748770E+03  0.00000000000E+00 0.  1.
         15    1    4    4    0    0  0.73989181747E+01  0.19892234425E+02  0.64881538997E+02  0.68264625416E+02  0.00000000000E+00 0. -1.
         15    1    3    3    0    0  0.43736789175E+02  0.21994340895E+01 -0.16057440057E+02  0.46643173336E+02  0.00000000000E+00 0. -1.
        -16    1    3    3    0    0 -0.16705429853E+03  0.36176139696E+03 -0.30798167598E+03  0.50361806930E+03  0.00000000000E+00 0.  1.
         16    1    1    2    0    0  0.34886806576E+02  0.83335025309E+03  0.23542410066E+03  0.86666847224E+03  0.00000000000E+00 0. -1.
    9900018    1    3    3    0    0 -0.17738691569E+03 -0.12481174510E+04  0.14677222702E+03  0.12724466804E+04  0.91187600000E+02 0.  0.
<mgrwt>
<rscale>  0 0.31905053E+04</rscale>
<asrwt>0</asrwt>
<pdfrwt beam="1">  1        2 0.28748393E+00 0.31905053E+04</pdfrwt>
<pdfrwt beam="2">  1       -2 0.20951672E+00 0.31905053E+04</pdfrwt>
<totfact> 0.76828347E-01</totfact>
</mgrwt>
</event>
<event>
11    1  0.2765880E-009  0.4619534E+04  0.7818608E-02  0.7890038E-01
         -2   -1    0    0    0  501 -0.00000000000E+00  0.00000000000E+00  0.21861445990E+04  0.21861445990E+04  0.00000000000E+00 0.  1.
          2   -1    0    0  501    0  0.00000000000E+00 -0.00000000000E+00 -0.24403803744E+04  0.24403803744E+04  0.00000000000E+00 0. -1.
    9900016    2    1    2    0    0  0.68872672213E+03 -0.90461918423E+03 -0.15384711905E+04  0.29113162492E+04  0.21945815848E+04 0.  0.
         23    2    3    3    0    0  0.22927563044E+03  0.54258285937E+02 -0.96941772729E+02  0.27001430224E+03  0.89435674152E+02 0.  0.
        -15    1    3    3    0    0  0.28549340273E+03 -0.66915815641E+03 -0.78488042536E+03  0.10701945633E+04  0.00000000000E+00 0.  1.
        -15    1    4    4    0    0 -0.54044112105E+01  0.10178566992E+02  0.17170248622E+01  0.11651569032E+02  0.00000000000E+00 0. -1.
         15    1    4    4    0    0  0.23468004165E+03  0.44079718945E+02 -0.98658797591E+02  0.25836273321E+03  0.00000000000E+00 0.  1.
         15    1    3    3    0    0  0.12517257029E+03  0.18596946468E+03  0.22903571391E+03  0.32048427791E+03  0.00000000000E+00 0. -1.
        -16    1    1    2    0    0 -0.68872672213E+03  0.90461918423E+03  0.12842354151E+04  0.17152087242E+04  0.00000000000E+00 0.  1.
         16    1    3    3    0    0  0.17668910100E+03 -0.63375546348E+03 -0.62219404154E+03  0.90553324137E+03  0.00000000000E+00 0. -1.
    9900018    1    3    3    0    0 -0.12790398232E+03  0.15806668504E+03 -0.26349066481E+03  0.34508986431E+03  0.91187600000E+02 0.  0.
<mgrwt>
<rscale>  0 0.46195343E+04</rscale>
<asrwt>0</asrwt>
<pdfrwt beam="1">  1        2 0.37544313E+00 0.46195343E+04</pdfrwt>
<pdfrwt beam="2">  1       -2 0.33632994E+00 0.46195343E+04</pdfrwt>
<totfact> 0.53611642E-02</totfact>
</mgrwt>
</event>
<event>
12    1  0.2765880E-009  0.2949750E+04  0.7818608E-02  0.8258227E-01
         -2   -1    0    0    0  501 -0.00000000000E+00  0.00000000000E+00  0.96902227229E+03  0.96902227229E+03  0.00000000000E+00 0.  1.
          2   -1    0    0  501    0  0.00000000000E+00 -0.00000000000E+00 -0.22447946893E+04  0.22447946893E+04  0.00000000000E+00 0. -1.
    9900016    2    1    2    0    0  0.46468199629E+03 -0.45863174089E+03 -0.97595042554E+03  0.24953702635E+04  0.22018449281E+04 0.  0.
         24    2    3    3    0    0 -0.86551105466E+02 -0.75772838843E+03  0.34376423916E+03  0.84155428654E+03  0.91631657034E+02 0.  0.
         23    2    3    3    0    0  0.13060190970E+03  0.11567255885E+03 -0.57729388010E+03  0.61014249497E+03  0.92566951311E+02 0.  0.
        -15    1    4    4    0    0 -0.76905179512E+02 -0.28789049712E+03  0.14318808041E+03  0.33060273946E+03  0.00000000000E+00 0.  1.
        -15    1    5    5    0    0  0.24123004330E+02  0.37662577938E+02 -0.52334386812E+02  0.68842408135E+02  0.00000000000E+00 0.  1.
         15    1    3    3    0    0 -0.65859762454E+02  0.14139408568E+03 -0.69123893312E+01  0.15613320243E+03  0.00000000000E+00 0. -1.
         15    1    5    5    0    0  0.10647890537E+03  0.78009980913E+02 -0.52495949329E+03  0.54130008684E+03  0.00000000000E+00 0. -1.
        -16    1    1    2    0    0 -0.46468199629E+03  0.45863174089E+03 -0.29982199149E+03  0.71844669810E+03  0.00000000000E+00 0.  1.
         16    1    4    4    0    0 -0.96459259535E+01 -0.46983789132E+03  0.20057615875E+03  0.51095154708E+03  0.00000000000E+00 0. -1.
    9900018    1    3    3    0    0  0.48649095451E+03  0.42030003018E+02 -0.73550839526E+03  0.88754027958E+03  0.91187600000E+02 0.  0.
<mgrwt>
<rscale>  0 0.29497499E+04</rscale>
<asrwt>0</asrwt>
<pdfrwt beam="1">  1        2 0.34535303E+00 0.29497499E+04</pdfrwt>
<pdfrwt beam="2">  1       -2 0.14908035E+00 0.29497499E+04</pdfrwt>
<totfact> 0.12752866E+00</totfact>
</mgrwt>
</event>
<event>
11    1  0.2765880E-009  0.3060113E+04  0.7818608E-02  0.8226771E-01
          3   -1    0    0  501    0  0.00000000000E+00  0.00000000000E+00  0.81905304794E+03  0.81905304794E+03  0.00000000000E+00 0. -1.
         -3   -1    0    0    0  501 -0.00000000000E+00 -0.00000000000E+00 -0.28582668686E+04  0.28582668686E+04  0.00000000000E+00 0.  1.
    9900016    2    1    2    0    0 -0.71615312800E+03 -0.16061723186E+02 -0.17559865947E+04  0.29070271519E+04  0.22032214277E+04 0.  0.
         23    2    3    3    0    0  0.28373812444E+03 -0.16133200762E+03 -0.35160432878E+03  0.48928535946E+03  0.96120856332E+02 0.  0.
        -15    1    4    4    0    0  0.21614146071E+03 -0.13269220298E+03 -0.32257662942E+03  0.41034136230E+03  0.00000000000E+00 0. -1.
        -15    1    3    3    0    0  0.15846205832E+03 -0.36842630330E+03 -0.35623408725E+03  0.53642416967E+03  0.00000000000E+00 0.  1.
         15    1    4    4    0    0  0.67596663726E+02 -0.28639804636E+02 -0.29027699362E+02  0.78943997154E+02  0.00000000000E+00 0.  1.
         15    1    3    3    0    0 -0.19674000725E+03  0.20258093707E+03  0.81593789309E+02  0.29394423446E+03  0.00000000000E+00 0. -1.
        -16    1    3    3    0    0 -0.68734874269E+03  0.29356884360E+03 -0.51445177872E+03  0.90735417156E+03  0.00000000000E+00 0.  1.
         16    1    1    2    0    0  0.71615312800E+03  0.16061723186E+02 -0.28322722590E+03  0.77029276459E+03  0.00000000000E+00 0. -1.
    9900018    1    3    3    0    0 -0.27426456081E+03  0.17546807055E+02 -0.61529018929E+03  0.68001921678E+03  0.91187600000E+02 0.  0.
<mgrwt>
<rscale>  0 0.30601125E+04</rscale>
<asrwt>0</asrwt>
<pdfrwt beam="1">  1        3 0.12600816E+00 0.30601125E+04</pdfrwt>
<pdfrwt beam="2">  1       -3 0.43973337E+00 0.30601125E+04</pdfrwt>
<totfact> 0.71063487E-03</totfact>
</mgrwt>
</event>
<event>
11    1  0.2765880E-009  0.2640505E+04  0.7818608E-02  0.8354571E-01
         -2   -1    0    0    0  501 -0.00000000000E+00  0.00000000000E+00  0.18488265275E+04  0.18488265275E+04  0.00000000000E+00 0.  1.
          2   -1    0    0  501    0  0.00000000000E+00 -0.00000000000E+00 -0.94279649416E+03  0.94279649416E+03  0.00000000000E+00 0. -1.
    9900016    2    1    2    0    0 -0.83263643997E+02  0.26241224864E+03  0.10827316631E+04  0.24644892744E+04  0.21967263158E+04 0.  0.
         23    2    3    3    0    0  0.32771284123E+03  0.66585426487E+02 -0.27726924869E+03  0.44511003146E+03  0.97032873315E+02 0.  0.
        -15    1    4    4    0    0  0.65183731107E+02  0.32420839018E+02 -0.18962962132E+02  0.75230469468E+02  0.00000000000E+00 0.  1.
        -15    1    3    3    0    0 -0.35883606993E+02 -0.29019700706E+03  0.30589596859E+03  0.42317169064E+03  0.00000000000E+00 0.  1.
         15    1    4    4    0    0  0.26252911013E+03  0.34164587469E+02 -0.25830628656E+03  0.36987956199E+03  0.00000000000E+00 0. -1.
         15    1    3    3    0    0 -0.21714789360E+03  0.40043846372E+03  0.48838669597E+03  0.66785158210E+03  0.00000000000E+00 0. -1.
        -16    1    3    3    0    0  0.22977557731E+03  0.19975237621E+03  0.14277658541E+03  0.33627813052E+03  0.00000000000E+00 0.  1.
         16    1    1    2    0    0  0.83263643997E+02 -0.26241224864E+03 -0.17670162977E+03  0.32713374728E+03  0.00000000000E+00 0. -1.
    9900018    1    3    3    0    0 -0.38772056195E+03 -0.11416701071E+03  0.42294166182E+03  0.59207783964E+03  0.91187600000E+02 0.  0.
<mgrwt>
<rscale>  0 0.26405054E+04</rscale>
<asrwt>0</asrwt>
<pdfrwt beam="1">  1        2 0.14504561E+00 0.26405054E+04</pdfrwt>
<pdfrwt beam="2">  1       -2 0.28443485E+00 0.26405054E+04</pdfrwt>
<totfact> 0.95754070E-01</totfact>
</mgrwt>
</event>
<event>
11    1  0.2765880E-009  0.2818766E+04  0.7818608E-02  0.8297466E-01
          1   -1    0    0  501    0  0.00000000000E+00  0.00000000000E+00  0.29428915460E+04  0.29428915460E+04  0.00000000000E+00 0. -1.
         -1   -1    0    0    0  501 -0.00000000000E+00 -0.00000000000E+00 -0.67496909894E+03  0.67496909894E+03  0.00000000000E+00 0.  1.
    9900016    2    1    2    0    0 -0.36465172599E+03  0.38084087742E+03  0.20315812916E+04  0.30400477021E+04  0.21992173224E+04 0.  0.
         23    2    3    3    0    0 -0.27934550657E+03 -0.84043879365E+02  0.45923302724E+03  0.55181719930E+03  0.92249457645E+02 0.  0.
        -15    1    4    4    0    0 -0.25135111421E+03 -0.53942524014E+02  0.34381224371E+03  0.42929481412E+03  0.00000000000E+00 0.  1.
        -15    1    3    3    0    0  0.46989147010E+02  0.47041864893E+03  0.64691419313E+03  0.80124881184E+03  0.00000000000E+00 0.  1.
         15    1    3    3    0    0 -0.43378763767E+03  0.24507095947E+03  0.24208982714E+03  0.55393047775E+03  0.00000000000E+00 0. -1.
         15    1    4    4    0    0 -0.27994392360E+02 -0.30101355352E+02  0.11542078353E+03  0.12252238518E+03  0.00000000000E+00 0. -1.
        -16    1    1    2    0    0  0.36465172599E+03 -0.38084087742E+03  0.23634115544E+03  0.57781294286E+03  0.00000000000E+00 0.  1.
         16    1    3    3    0    0  0.48345733245E+03 -0.62314775278E+02  0.11523855328E+03  0.50089324979E+03  0.00000000000E+00 0. -1.
    9900018    1    3    3    0    0 -0.18196506121E+03 -0.18829007634E+03  0.56810569080E+03  0.63215796338E+03  0.91187600000E+02 0.  0.
<mgrwt>
<rscale>  0 0.28187663E+04</rscale>
<asrwt>0</asrwt>
<pdfrwt beam="1">  1        1 0.45275254E+00 0.28187663E+04</pdfrwt>
<pdfrwt beam="2">  1       -1 0.10384140E+00 0.28187663E+04</pdfrwt>
<totfact> 0.49639878E-01</totfact>
</mgrwt>
</event>
<event>
12    1  0.2765880E-009  0.2551215E+04  0.7818608E-02  0.8384964E-01
          1   -1    0    0  501    0  0.00000000000E+00  0.00000000000E+00  0.17137362808E+04  0.17137362808E+04  0.00000000000E+00 0. -1.
         -1   -1    0    0    0  501 -0.00000000000E+00 -0.00000000000E+00 -0.94948935072E+03  0.94948935072E+03  0.00000000000E+00 0.  1.
    9900016    2    1    2    0    0  0.17654209228E+00 -0.27778465594E+03  0.84565876648E+03  0.23737567500E+04  0.22005494797E+04 0.  0.
         24    2    3    3    0    0  0.33074593483E+02 -0.68878091101E+03 -0.53640601158E+02  0.69807426027E+03  0.94431385957E+02 0.  0.
         23    2    3    3    0    0 -0.12669036234E+01  0.32897913527E+03  0.31753701390E+03  0.46619858545E+03  0.91008183085E+02 0.  0.
        -15    1    4    4    0    0 -0.89032924168E+01 -0.25465622394E+03 -0.60399416913E+02  0.26187239368E+03  0.00000000000E+00 0.  1.
        -15    1    5    5    0    0  0.15344295280E+02  0.10352998909E+03  0.15796921115E+03  0.18949453214E+03  0.00000000000E+00 0.  1.
         15    1    5    5    0    0 -0.16611198903E+02  0.22544914618E+03  0.15956780274E+03  0.27670405331E+03  0.00000000000E+00 0. -1.
         15    1    3    3    0    0  0.30675017478E+03 -0.37475121880E+03  0.24987006529E+03  0.54494880057E+03  0.00000000000E+00 0. -1.
        -16    1    1    2    0    0 -0.17654209228E+00  0.27778465594E+03 -0.81411836379E+02  0.28946888148E+03  0.00000000000E+00 0.  1.
         16    1    4    4    0    0  0.41977885900E+02 -0.43412468707E+03  0.67588157555E+01  0.43620186659E+03  0.00000000000E+00 0. -1.
    9900018    1    3    3    0    0 -0.33838132255E+03  0.45676833859E+03  0.33189228845E+03  0.66453510375E+03  0.91187600000E+02 0.  0.
<mgrwt>
<rscale>  0 0.25512149E+04</rscale>
<asrwt>0</asrwt>
<pdfrwt beam="1">  1        1 0.26365174E+00 0.25512149E+04</pdfrwt>
<pdfrwt beam="2">  1       -1 0.14607528E+00 0.25512149E+04</pdfrwt>
<totfact> 0.15454698E+00</totfact>
</mgrwt>
</event>
<event>
11    1  0.2765880E-009  0.3226056E+04  0.7818608E-02  0.8181970E-01
         -2   -1    0    0    0  501 -0.00000000000E+00  0.00000000000E+00  0.17731817130E+04  0.17731817130E+04  0.00000000000E+00 0.  1.
          2   -1    0    0  501    0  0.00000000000E+00 -0.00000000000E+00 -0.14673392117E+04  0.14673392117E+04  0.00000000000E+00 0. -1.
    9900016    2    1    2    0    0 -0.27321949122E+03  0.49505907924E+03 -0.42900914052E+03  0.23132996361E+04  0.22017206866E+04 0.  0.
         23    2    3    3    0    0  0.86279828451E+02 -0.40933384248E+03  0.37510499252E+03  0.56876130727E+03  0.88245486236E+02 0.  0.
        -15    1    3    3    0    0 -0.97234190632E+02  0.79920255234E+02  0.16402602631E+02  0.12692824901E+03  0.00000000000E+00 0.  1.
        -15    1    4    4    0    0  0.96469338712E+01 -0.25176737800E+03  0.23280385429E+03  0.34304155802E+03  0.00000000000E+00 0.  1.
         15    1    4    4    0    0  0.76632894579E+02 -0.15756646448E+03  0.14230113823E+03  0.22571974925E+03  0.00000000000E+00 0. -1.
         15    1    3    3    0    0  0.14307674108E+03  0.21779833377E+03 -0.32558296464E+03  0.41702677959E+03  0.00000000000E+00 0. -1.
        -16    1    1    2    0    0  0.27321949122E+03 -0.49505907924E+03  0.73485164182E+03  0.92722128848E+03  0.00000000000E+00 0.  1.
         16    1    3    3    0    0 -0.50210432244E+03  0.65654760646E+03 -0.16702200039E+03  0.84324365326E+03  0.00000000000E+00 0. -1.
    9900018    1    3    3    0    0  0.96762452321E+02 -0.49873273741E+02 -0.32791177063E+03  0.35733964701E+03  0.91187600000E+02 0.  0.
<mgrwt>
<rscale>  0 0.32260558E+04</rscale>
<asrwt>0</asrwt>
<pdfrwt beam="1">  1        2 0.22574449E+00 0.32260558E+04</pdfrwt>
<pdfrwt beam="2">  1       -2 0.27279719E+00 0.32260558E+04</pdfrwt>
<totfact> 0.51862742E-01</totfact>
</mgrwt>
</event>
<event>
11    1  0.2765880E-009  0.2599214E+04  0.7818608E-02  0.8368468E-01
         -2   -1    0    0    0  501 -0.00000000000E+00  0.00000000000E+00  0.78110756761E+03  0.78110756761E+03  0.00000000000E+00 0. -1.
          2   -1    0    0  501    0  0.00000000000E+00 -0.00000000000E+00 -0.21622872538E+04  0.21622872538E+04  0.00000000000E+00 0.  1.
    9900016    2    1    2    0    0  0.22830041465E+03 -0.59645880490E+02 -0.86669466888E+03  0.23773793239E+04  0.22011574433E+04 0.  0.
         23    2    3    3    0    0 -0.24966188875E+03  0.94482627813E+02  0.18233517246E+02  0.28001431012E+03  0.82568317597E+02 0.  0.
        -15    1    3    3    0    0  0.60280271635E+03  0.43991192102E+03 -0.77348053367E+03  0.10747863737E+04  0.00000000000E+00 0.  1.
        -15    1    4    4    0    0 -0.90316328763E+02 -0.32047355713E+01  0.22224493867E+02  0.93065770823E+02  0.00000000000E+00 0.  1.
         15    1    4    4    0    0 -0.15934555998E+03  0.97687363384E+02 -0.39909766206E+01  0.18694853930E+03  0.00000000000E+00 0. -1.
         15    1    3    3    0    0  0.15440476276E+03 -0.19849737188E+03  0.90261111455E+02  0.26718739800E+03  0.00000000000E+00 0. -1.
        -16    1    1    2    0    0 -0.22830041465E+03  0.59645880490E+02 -0.51448501735E+03  0.56601549755E+03  0.00000000000E+00 0.  1.
         16    1    3    3    0    0 -0.24237707934E+03 -0.32845317700E+03 -0.36886193580E+03  0.55017021525E+03  0.00000000000E+00 0. -1.
    9900018    1    3    3    0    0 -0.36868096378E+02 -0.67089880440E+02  0.16715317189E+03  0.20522102683E+03  0.91187600000E+02 0.  0.
<mgrwt>
<rscale>  0 0.25992144E+04</rscale>
<asrwt>0</asrwt>
<pdfrwt beam="1">  1        2 0.33265958E+00 0.25992144E+04</pdfrwt>
<pdfrwt beam="2">  1       -2 0.12017039E+00 0.25992144E+04</pdfrwt>
<totfact> 0.25378180E+00</totfact>
</mgrwt>
</event>
<event>
11    1  0.2765880E-009  0.3679806E+04  0.7818608E-02  0.8072452E-01
          1   -1    0    0  501    0  0.00000000000E+00  0.00000000000E+00  0.31863692531E+04  0.31863692531E+04  0.00000000000E+00 0. -1.
         -1   -1    0    0    0  501 -0.00000000000E+00 -0.00000000000E+00 -0.10624138515E+04  0.10624138515E+04  0.00000000000E+00 0.  1.
    9900016    2    1    2    0    0  0.63996838923E+03 -0.50674109463E+03  0.24031083405E+04  0.33860708469E+04  0.22414727319E+04 0.  0.
         23    2    3    3    0    0 -0.65603433927E+02 -0.50367635055E+02 -0.17611466479E+03  0.21514883088E+03  0.91825568729E+02 0.  0.
        -15    1    3    3    0    0 -0.10262535692E+03 -0.13821494380E+03  0.25244746149E+03  0.30555695932E+03  0.00000000000E+00 0.  1.
        -15    1    4    4    0    0 -0.79175953988E+02 -0.11191555307E+02 -0.95988982718E+02  0.12493185104E+03  0.00000000000E+00 0.  1.
         15    1    4    4    0    0  0.13572520061E+02 -0.39176079748E+02 -0.80125682072E+02  0.90216979847E+02  0.00000000000E+00 0. -1.
         15    1    3    3    0    0  0.69711778773E+03  0.29899297282E+01  0.10595372627E+04  0.12683064932E+04  0.00000000000E+00 0. -1.
        -16    1    1    2    0    0 -0.63996838923E+03  0.50674109463E+03 -0.27915293893E+03  0.86271225766E+03  0.00000000000E+00 0.  1.
         16    1    3    3    0    0  0.48832549129E+03 -0.75648144542E+02  0.81118810916E+03  0.94984765918E+03  0.00000000000E+00 0. -1.
    9900018    1    3    3    0    0 -0.37724609895E+03 -0.24550030096E+03  0.45605017194E+03  0.64721090431E+03  0.91187600000E+02 0.  0.
<mgrwt>
<rscale>  0 0.36798059E+04</rscale>
<asrwt>0</asrwt>
<pdfrwt beam="1">  1        1 0.49021065E+00 0.36798059E+04</pdfrwt>
<pdfrwt beam="2">  1       -1 0.16344829E+00 0.36798059E+04</pdfrwt>
<totfact> 0.96177382E-02</totfact>
</mgrwt>
</event>
<event>
11    1  0.2765880E-009  0.2926077E+04  0.7818608E-02  0.8265161E-01
         -1   -1    0    0    0  501 -0.00000000000E+00  0.00000000000E+00  0.13812572171E+04  0.13812572171E+04  0.00000000000E+00 0.  1.
          1   -1    0    0  501    0  0.00000000000E+00 -0.00000000000E+00 -0.15496616951E+04  0.15496616951E+04  0.00000000000E+00 0. -1.
    9900016    2    1    2    0    0  0.10799302666E+02 -0.63398206053E+03 -0.13035357514E+03  0.22957041853E+04  0.22025475645E+04 0.  0.
         23    2    3    3    0    0 -0.15493303487E+02  0.33607824054E+03 -0.38574584287E+02  0.35129277437E+03  0.93434407756E+02 0.  0.
        -15    1    4    4    0    0 -0.52499200094E+02  0.20971256305E+03 -0.38696155277E+02  0.21961993886E+03  0.00000000000E+00 0.  1.
        -15    1    3    3    0    0  0.38530541082E+03 -0.13804093166E+03  0.15007811293E+03  0.43593462629E+03  0.00000000000E+00 0.  1.
         15    1    3    3    0    0  0.79335285097E+02 -0.31046507660E+03 -0.44029020619E+03  0.54455313507E+03  0.00000000000E+00 0. -1.
         15    1    4    4    0    0  0.37005896607E+02  0.12636567749E+03  0.12157099029E+00  0.13167283551E+03  0.00000000000E+00 0. -1.
        -16    1    3    3    0    0 -0.32973691239E+03 -0.55189015909E+03 -0.82109575146E+02  0.64811354053E+03  0.00000000000E+00 0.  1.
         16    1    1    2    0    0 -0.10799302666E+02  0.63398206053E+03 -0.38050902867E+02  0.63521472686E+03  0.00000000000E+00 0. -1.
    9900018    1    3    3    0    0 -0.10861117738E+03  0.30335866280E+02  0.28054267755E+03  0.31581010901E+03  0.91187600000E+02 0.  0.
<mgrwt>
<rscale>  0 0.29260768E+04</rscale>
<asrwt>0</asrwt>
<pdfrwt beam="1">  1        1 0.23840949E+00 0.29260768E+04</pdfrwt>
<pdfrwt beam="2">  1       -1 0.21250111E+00 0.29260768E+04</pdfrwt>
<totfact> 0.63998627E-01</totfact>
</mgrwt>
</event>
<event>
11    1  0.2765880E-009  0.3257798E+04  0.7818608E-02  0.8173717E-01
         -2   -1    0    0    0  501 -0.00000000000E+00  0.00000000000E+00  0.27402335686E+04  0.27402335686E+04  0.00000000000E+00 0. -1.
          2   -1    0    0  501    0  0.00000000000E+00 -0.00000000000E+00 -0.96827977339E+03  0.96827977339E+03  0.00000000000E+00 0.  1.
    9900016    2    1    2    0    0  0.83385577519E+03  0.33366485290E+03  0.13216964456E+04  0.27038346029E+04  0.21810988923E+04 0.  0.
         23    2    3    3    0    0 -0.17393941521E+03  0.37532267813E+03 -0.83579753854E+02  0.43119154576E+03  0.88422514074E+02 0.  0.
        -15    1    3    3    0    0 -0.14790593724E+02  0.48603063116E+02  0.21346788724E+03  0.21943007608E+03  0.00000000000E+00 0.  1.
        -15    1    4    4    0    0 -0.12080004783E+03  0.15599158493E+03 -0.36017313554E+02  0.20055740575E+03  0.00000000000E+00 0. -1.
         15    1    3    3    0    0  0.45648850018E+03  0.45358803463E+03  0.83368479687E+03  0.10531638982E+04  0.00000000000E+00 0. -1.
         15    1    4    4    0    0 -0.53139367378E+02  0.21933109320E+03 -0.47562440301E+02  0.23063414001E+03  0.00000000000E+00 0.  1.
        -16    1    3    3    0    0  0.56928795780E+03 -0.28084268213E+03  0.14947692661E+03  0.65215392554E+03  0.00000000000E+00 0.  1.
         16    1    1    2    0    0 -0.83385577519E+03 -0.33366485290E+03  0.45025734961E+03  0.10046787391E+04  0.00000000000E+00 0. -1.
    9900018    1    3    3    0    0 -0.31906738581E+01 -0.26300624084E+03  0.20864658875E+03  0.34789515736E+03  0.91187600000E+02 0.  0.
<mgrwt>
<rscale>  0 0.32577985E+04</rscale>
<asrwt>0</asrwt>
<pdfrwt beam="1">  1        2 0.14896612E+00 0.32577985E+04</pdfrwt>
<pdfrwt beam="2">  1       -2 0.42157439E+00 0.32577985E+04</pdfrwt>
<totfact> 0.11835278E-01</totfact>
</mgrwt>
</event>
<event>
11    1  0.2765880E-009  0.2455498E+04  0.7818608E-02  0.8419013E-01
          2   -1    0    0  501    0  0.00000000000E+00  0.00000000000E+00  0.22272001358E+04  0.22272001358E+04  0.00000000000E+00 0. -1.
         -2   -1    0    0    0  501 -0.00000000000E+00 -0.00000000000E+00 -0.67679942501E+03  0.67679942501E+03  0.00000000000E+00 0.  1.
    9900016    2    1    2    0    0 -0.36013531181E+02  0.14544966578E+02  0.16776885430E+04  0.27709179215E+04  0.22049577660E+04 0.  0.
         23    2    3    3    0    0  0.42109216028E+02 -0.33072331279E+02 -0.17245976269E+03  0.20195155762E+03  0.90416241378E+02 0.  0.
        -15    1    4    4    0    0  0.23269685495E+02 -0.27996516164E+02 -0.17798749258E+03  0.18167231682E+03  0.00000000000E+00 0.  1.
        -15    1    3    3    0    0  0.11562444888E+02  0.13284278980E+03 -0.11573933830E+03  0.17656865907E+03  0.00000000000E+00 0.  1.
         15    1    4    4    0    0  0.18839530533E+02 -0.50758151152E+01  0.55277298906E+01  0.20279240802E+02  0.00000000000E+00 0. -1.
         15    1    3    3    0    0  0.18138783199E+03  0.37413773707E+03  0.16629255580E+03  0.44781001106E+03  0.00000000000E+00 0. -1.
        -16    1    1    2    0    0  0.36013531181E+02 -0.14544966578E+02 -0.12728783223E+03  0.13308163929E+03  0.00000000000E+00 0.  1.
         16    1    3    3    0    0 -0.33736728204E+03 -0.87931221114E+02  0.85226239667E+03  0.92081473458E+03  0.00000000000E+00 0. -1.
    9900018    1    3    3    0    0  0.66294257955E+02 -0.37143200790E+03  0.94733269153E+03  0.10237729592E+04  0.91187600000E+02 0.  0.
<mgrwt>
<rscale>  0 0.24554981E+04</rscale>
<asrwt>0</asrwt>
<pdfrwt beam="1">  1        2 0.34264617E+00 0.24554981E+04</pdfrwt>
<pdfrwt beam="2">  1       -2 0.10412299E+00 0.24554981E+04</pdfrwt>
<totfact> 0.33462590E+00</totfact>
</mgrwt>
</event>
<event>
11    1  0.2765880E-009  0.4061748E+04  0.7818608E-02  0.7992205E-01
         -2   -1    0    0    0  501 -0.00000000000E+00  0.00000000000E+00  0.14027746770E+04  0.14027746770E+04  0.00000000000E+00 0.  1.
          2   -1    0    0  501    0  0.00000000000E+00 -0.00000000000E+00 -0.29402076630E+04  0.29402076630E+04  0.00000000000E+00 0. -1.
    9900016    2    1    2    0    0  0.41302522274E+03 -0.87180523160E+03  0.14429374582E+03  0.24042097909E+04  0.21974462080E+04 0.  0.
         23    2    3    3    0    0 -0.16002281048E+03 -0.26027608730E+03 -0.38395569893E+03  0.49890104447E+03  0.90162807945E+02 0.  0.
        -15    1    3    3    0    0  0.28012935866E+03  0.31083636038E+03  0.84161320162E+01  0.41852423083E+03  0.00000000000E+00 0.  1.
        -15    1    4    4    0    0 -0.11289588604E+02 -0.84283328012E+02 -0.13610318975E+03  0.16048430594E+03  0.00000000000E+00 0.  1.
         15    1    3    3    0    0  0.42550321070E+02 -0.49282757967E+03  0.38521980257E+03  0.62696399370E+03  0.00000000000E+00 0. -1.
         15    1    4    4    0    0 -0.14873322188E+03 -0.17599275929E+03 -0.24785250917E+03  0.33841673853E+03  0.00000000000E+00 0. -1.
        -16    1    3    3    0    0  0.27103148088E+02 -0.42688239059E+03 -0.17942839555E+03  0.46385095145E+03  0.00000000000E+00 0.  1.
         16    1    1    2    0    0 -0.41302522274E+03  0.87180523160E+03 -0.16817267318E+04  0.19387725490E+04  0.00000000000E+00 0. -1.
    9900018    1    3    3    0    0  0.22326520540E+03 -0.26555344204E+01  0.31404190571E+03  0.39596957048E+03  0.91187600000E+02 0.  0.
<mgrwt>
<rscale>  0 0.40617478E+04</rscale>
<asrwt>0</asrwt>
<pdfrwt beam="1">  1        2 0.45233964E+00 0.40617478E+04</pdfrwt>
<pdfrwt beam="2">  1       -2 0.21581149E+00 0.40617478E+04</pdfrwt>
<totfact> 0.15643570E-01</totfact>
</mgrwt>
</event>
<event>
11    1  0.2765880E-009  0.2899292E+04  0.7818608E-02  0.8273088E-01
         -2   -1    0    0    0  501 -0.00000000000E+00  0.00000000000E+00  0.15425368254E+04  0.15425368254E+04  0.00000000000E+00 0.  1.
          2   -1    0    0  501    0  0.00000000000E+00 -0.00000000000E+00 -0.13623488519E+04  0.13623488519E+04  0.00000000000E+00 0. -1.
    9900016    2    1    2    0    0 -0.16036199494E+03  0.11605970934E+03 -0.44074617029E+03  0.22531610142E+04  0.22007479510E+04 0.  0.
         23    2    3    3    0    0  0.18339442399E+01 -0.23999416851E+03 -0.42355989699E+02  0.26026233497E+03  0.91333941506E+02 0.  0.
        -15    1    3    3    0    0  0.20628831738E+03 -0.72566506509E+02 -0.13988040099E+03  0.25959062837E+03  0.00000000000E+00 0.  1.
        -15    1    4    4    0    0 -0.11294868884E+02 -0.87031796144E+02 -0.59131698695E+02  0.10582374683E+03  0.00000000000E+00 0. -1.
         15    1    4    4    0    0  0.13128813124E+02 -0.15296237236E+03  0.16775708997E+02  0.15443858813E+03  0.00000000000E+00 0.  1.
         15    1    3    3    0    0  0.18418261857E+02  0.20067810176E+03 -0.59341066914E+03  0.62669542454E+03  0.00000000000E+00 0. -1.
        -16    1    1    2    0    0  0.16036199494E+03 -0.11605970934E+03  0.62093414377E+03  0.65172466307E+03  0.00000000000E+00 0.  1.
         16    1    3    3    0    0  0.31176677551E+03  0.14760681617E+01  0.62461664375E+02  0.31796565947E+03  0.00000000000E+00 0. -1.
    9900018    1    3    3    0    0 -0.69866929393E+03  0.22646621443E+03  0.27243922516E+03  0.78864696687E+03  0.91187600000E+02 0.  0.
<mgrwt>
<rscale>  0 0.28992918E+04</rscale>
<asrwt>0</asrwt>
<pdfrwt beam="1">  1        2 0.20959213E+00 0.28992918E+04</pdfrwt>
<pdfrwt beam="2">  1       -2 0.23731336E+00 0.28992918E+04</pdfrwt>
<totfact> 0.10105408E+00</totfact>
</mgrwt>
</event>
<event>
11    1  0.2765880E-009  0.2859540E+04  0.7818608E-02  0.8285018E-01
          2   -1    0    0  501    0  0.00000000000E+00  0.00000000000E+00  0.14327188084E+04  0.14327188084E+04  0.00000000000E+00 0. -1.
         -2   -1    0    0    0  501 -0.00000000000E+00 -0.00000000000E+00 -0.14268269161E+04  0.14268269161E+04  0.00000000000E+00 0.  1.
    9900016    2    1    2    0    0  0.44619432943E+03 -0.34417187003E+03 -0.15605431586E+03  0.22732265024E+04  0.21967389754E+04 0.  0.
         23    2    3    3    0    0  0.51221230204E+02  0.32074921362E+03  0.32378397210E+03  0.46856152154E+03  0.95969611946E+02 0.  0.
        -15    1    4    4    0    0  0.47809819947E+01  0.11653570452E+03  0.18015578809E+03  0.21461485550E+03  0.00000000000E+00 0.  1.
        -15    1    3    3    0    0  0.43290792341E+03 -0.86332295185E+03 -0.51321555508E+03  0.10936754525E+04  0.00000000000E+00 0.  1.
         15    1    3    3    0    0 -0.12786895648E+03  0.23638299004E+03  0.58947556333E+02  0.27514033221E+03  0.00000000000E+00 0. -1.
         15    1    4    4    0    0  0.46440248209E+02  0.20421350910E+03  0.14362818400E+03  0.25394666604E+03  0.00000000000E+00 0. -1.
        -16    1    3    3    0    0  0.60450390759E+01  0.12363544674E+03  0.13005486117E+03  0.17954535110E+03  0.00000000000E+00 0.  1.
         16    1    1    2    0    0 -0.44619432943E+03  0.34417187003E+03  0.16194620816E+03  0.58631922199E+03  0.00000000000E+00 0. -1.
    9900018    1    3    3    0    0  0.83889093227E+02 -0.16161656858E+03 -0.15562515038E+03  0.25630384513E+03  0.91187600000E+02 0.  0.
<mgrwt>
<rscale>  0 0.28595397E+04</rscale>
<asrwt>0</asrwt>
<pdfrwt beam="1">  1        2 0.22041828E+00 0.28595397E+04</pdfrwt>
<pdfrwt beam="2">  1       -2 0.21951183E+00 0.28595397E+04</pdfrwt>
<totfact> 0.11948152E+00</totfact>
</mgrwt>
</event>
