<event>
11    1  0.1407580E-011  0.9588385E+03  0.7818608E-02  0.9354879E-01
          4   -1    0    0  501    0  0.00000000000E+00  0.00000000000E+00  0.34845584442E+03  0.34845584442E+03  0.00000000000E+00 0. -1.
         -4   -1    0    0    0  501 -0.00000000000E+00 -0.00000000000E+00 -0.65960390382E+03  0.65960390382E+03  0.00000000000E+00 0.  1.
    9900016    2    1    2    0    0  0.96498015807E+02 -0.16536959288E+03 -0.14285201440E+03  0.75314304013E+03  0.71425399654E+03 0.  0.
         23    2    3    3    0    0  0.13742747331E+03  0.58087774134E+02 -0.28982151393E+01  0.17442803960E+03  0.90311911863E+02 0.  0.
        -15    1    3    3    0    0 -0.13349164710E+02  0.99956376532E+00 -0.67212459810E+02  0.68532576778E+02  0.00000000000E+00 0. -1.
        -15    1    4    4    0    0  0.88733189925E+02  0.51410503182E+02 -0.42796717384E+02  0.11112235531E+03  0.00000000000E+00 0.  1.
         15    1    3    3    0    0 -0.72628577792E+00 -0.29560868856E+02  0.21879799503E+02  0.36784481576E+02  0.00000000000E+00 0.  1.
         15    1    4    4    0    0  0.48694283380E+02  0.66772709518E+01  0.39898502245E+02  0.63305684284E+02  0.00000000000E+00 0. -1.
        -16    1    3    3    0    0  0.16699999469E+03 -0.17936633486E+03 -0.81243625764E+02  0.25818947894E+03  0.00000000000E+00 0.  1.
         16    1    1    2    0    0 -0.96498015807E+02  0.16536959288E+03 -0.16829604500E+03  0.25491670810E+03  0.00000000000E+00 0. -1.
    9900018    1    3    3    0    0 -0.19385400170E+03 -0.15529727071E+02 -0.13377513185E+02  0.21520846324E+03  0.91187600000E+02 0.  0.
<mgrwt>
<rscale>  0 0.95883854E+03</rscale>
<asrwt>0</asrwt>
<pdfrwt beam="1">  1        4 0.53608592E-01 0.95883854E+03</pdfrwt>
<pdfrwt beam="2">  1       -4 0.10147752E+00 0.95883854E+03</pdfrwt>
<totfact> 0.52779041E+00</totfact>
</mgrwt>
</event>
<event>
11    1  0.1407580E-011  0.8093286E+03  0.7818608E-02  0.9546612E-01
         -4   -1    0    0    0  501 -0.00000000000E+00  0.00000000000E+00  0.42590328444E+03  0.42590328444E+03  0.00000000000E+00 0.  1.
          4   -1    0    0  501    0  0.00000000000E+00 -0.00000000000E+00 -0.38448442630E+03  0.38448442630E+03  0.00000000000E+00 0. -1.
    9900016    2    1    2    0    0 -0.61672533469E+02 -0.40535109307E+02 -0.29886031941E+02  0.70776712889E+03  0.70327415519E+03 0.  0.
         23    2    3    3    0    0 -0.41613410003E+02  0.59029126090E+02 -0.14931369164E+03  0.18914399901E+03  0.90910726725E+02 0.  0.
        -15    1    3    3    0    0 -0.95738260407E+02  0.19074791980E+02  0.62049281646E+02  0.11567097971E+03  0.00000000000E+00 0.  1.
        -15    1    4    4    0    0 -0.59120394354E+02  0.17925147133E+02 -0.47398440520E+02  0.77866193512E+02  0.00000000000E+00 0. -1.
         15    1    3    3    0    0  0.15282064924E+03 -0.15652926153E+02  0.18835425775E+02  0.15477059861E+03  0.00000000000E+00 0. -1.
         15    1    4    4    0    0  0.17506984350E+02  0.41103978957E+02 -0.10191525112E+03  0.11127780550E+03  0.00000000000E+00 0.  1.
        -16    1    1    2    0    0  0.61672533469E+02  0.40535109307E+02  0.71304890079E+02  0.10262058185E+03  0.00000000000E+00 0.  1.
         16    1    3    3    0    0 -0.99964099185E+02 -0.62822037137E+02  0.74748051147E+02  0.13973797131E+03  0.00000000000E+00 0. -1.
    9900018    1    3    3    0    0  0.22822586888E+02 -0.40164064088E+02 -0.36205098874E+02  0.10844358024E+03  0.91187600000E+02 0.  0.
<mgrwt>
<rscale>  0 0.80932856E+03</rscale>
<asrwt>0</asrwt>
<pdfrwt beam="1">  1        4 0.59151450E-01 0.80932856E+03</pdfrwt>
<pdfrwt beam="2">  1       -4 0.65523582E-01 0.80932856E+03</pdfrwt>
<totfact> 0.11641898E+01</totfact>
</mgrwt>
</event>
<event>
11    1  0.1407580E-011  0.8587456E+03  0.7818608E-02  0.9478673E-01
          2   -1    0    0  501    0  0.00000000000E+00  0.00000000000E+00  0.48068008108E+03  0.48068008108E+03  0.00000000000E+00 0. -1.
         -2   -1    0    0    0  501 -0.00000000000E+00 -0.00000000000E+00 -0.38354204471E+03  0.38354204471E+03  0.00000000000E+00 0.  1.
    9900016    2    1    2    0    0  0.32676159477E+02 -0.63473698820E+02 -0.23218627281E+02  0.72428511022E+03  0.72038404646E+03 0.  0.
         23    2    3    3    0    0 -0.32758469538E+02 -0.12105127868E+03 -0.90019767080E+02  0.17952108655E+03  0.91639143668E+02 0.  0.
        -15    1    4    4    0    0 -0.51949158728E+02 -0.90342575887E+02 -0.28342379102E+02  0.10799901186E+03  0.00000000000E+00 0.  1.
        -15    1    3    3    0    0  0.56921166814E+02 -0.69757733642E+02 -0.28798795734E+02  0.94527939097E+02  0.00000000000E+00 0.  1.
         15    1    4    4    0    0  0.19190689191E+02 -0.30708702797E+02 -0.61677387978E+02  0.71522074682E+02  0.00000000000E+00 0. -1.
         15    1    3    3    0    0  0.30270564003E+02  0.12050627188E+03 -0.12263455066E+03  0.17457749461E+03  0.00000000000E+00 0. -1.
        -16    1    3    3    0    0  0.29591009766E+02  0.37999132539E+02  0.11793756941E+03  0.12739243389E+03  0.00000000000E+00 0.  1.
         16    1    1    2    0    0 -0.32676159477E+02  0.63473698820E+02  0.12035666365E+03  0.13993701557E+03  0.00000000000E+00 0. -1.
    9900018    1    3    3    0    0 -0.51348111568E+02 -0.31170090911E+02  0.10029691678E+03  0.14826615608E+03  0.91187600000E+02 0.  0.
<mgrwt>
<rscale>  0 0.85874565E+03</rscale>
<asrwt>0</asrwt>
<pdfrwt beam="1">  1        2 0.73950781E-01 0.85874565E+03</pdfrwt>
<pdfrwt beam="2">  1       -2 0.59006469E-01 0.85874565E+03</pdfrwt>
<totfact> 0.17391450E+02</totfact>
</mgrwt>
</event>
<event>
11    1  0.1407580E-011  0.1273126E+04  0.7818608E-02  0.9051152E-01
         -2   -1    0    0    0  501 -0.00000000000E+00  0.00000000000E+00  0.21104755511E+03  0.21104755511E+03  0.00000000000E+00 0.  1.
          2   -1    0    0  501    0  0.00000000000E+00 -0.00000000000E+00 -0.19200064926E+04  0.19200064926E+04  0.00000000000E+00 0. -1.
    9900016    2    1    2    0    0 -0.40072569726E+03  0.16650214801E+03 -0.11577073894E+04  0.14294969801E+04  0.71754523698E+03 0.  0.
         23    2    3    3    0    0 -0.34672628584E+03  0.16179031631E+03 -0.53549198560E+03  0.66469316054E+03  0.93113410849E+02 0.  0.
        -15    1    4    4    0    0 -0.20506627429E+03  0.10760789434E+03 -0.24587689236E+03  0.33776779298E+03  0.00000000000E+00 0. -1.
        -15    1    3    3    0    0 -0.20764654392E+02 -0.24731150379E+02  0.56860331156E+01  0.32789200108E+02  0.00000000000E+00 0.  1.
         15    1    4    4    0    0 -0.14166001154E+03  0.54182421974E+02 -0.28961509323E+03  0.32692536755E+03  0.00000000000E+00 0.  1.
         15    1    3    3    0    0  0.75752139519E+02  0.69214878929E+02 -0.10309072022E+03  0.14545371327E+03  0.00000000000E+00 0. -1.
        -16    1    3    3    0    0 -0.14884303527E+03 -0.42510650734E+02 -0.38476466267E+03  0.41473515672E+03  0.00000000000E+00 0.  1.
         16    1    1    2    0    0  0.40072569726E+03 -0.16650214801E+03 -0.55125154813E+03  0.70155706757E+03  0.00000000000E+00 0. -1.
    9900018    1    3    3    0    0  0.39856138722E+02  0.27387538813E+01 -0.14004605398E+03  0.17182574951E+03  0.91187600000E+02 0.  0.
<mgrwt>
<rscale>  0 0.12731264E+04</rscale>
<asrwt>0</asrwt>
<pdfrwt beam="1">  1        2 0.29538561E+00 0.12731264E+04</pdfrwt>
<pdfrwt beam="2">  1       -2 0.32468855E-01 0.12731264E+04</pdfrwt>
<totfact> 0.64271879E+01</totfact>
</mgrwt>
</event>
<event>
11    1  0.1407580E-011  0.1011914E+04  0.7818608E-02  0.9295573E-01
          2   -1    0    0  501    0  0.00000000000E+00  0.00000000000E+00  0.12673957593E+04  0.12673957593E+04  0.00000000000E+00 0. -1.
         -2   -1    0    0    0  501 -0.00000000000E+00 -0.00000000000E+00 -0.20198324228E+03  0.20198324228E+03  0.00000000000E+00 0.  1.
    9900016    2    1    2    0    0  0.44954307602E+02 -0.24022348201E+03  0.65712275778E+03  0.99353371308E+03  0.70396783247E+03 0.  0.
         23    2    3    3    0    0  0.44488627435E+02 -0.14437051281E+03 -0.15759406319E+02  0.17519334830E+03  0.87305598112E+02 0.  0.
        -15    1    4    4    0    0  0.50682389040E+02 -0.10044231121E+03  0.24663015425E+02  0.11517650268E+03  0.00000000000E+00 0. -1.
        -15    1    3    3    0    0  0.32010991623E+02 -0.28257298691E+02  0.54393135236E+02  0.69150500178E+02  0.00000000000E+00 0.  1.
         15    1    4    4    0    0 -0.61937616047E+01 -0.43928201598E+02 -0.40422421744E+02  0.60016845619E+02  0.00000000000E+00 0.  1.
         15    1    3    3    0    0 -0.44311296260E+02  0.10131258459E+03  0.16691444472E+03  0.20022028526E+03  0.00000000000E+00 0. -1.
        -16    1    3    3    0    0  0.55742310081E+02 -0.19439121478E+03  0.24481245932E+03  0.31753470638E+03  0.00000000000E+00 0.  1.
         16    1    1    2    0    0 -0.44954307602E+02  0.24022348201E+03  0.40828975923E+03  0.47584528848E+03  0.00000000000E+00 0. -1.
    9900018    1    3    3    0    0 -0.42976325278E+02  0.25482959679E+02  0.20676212482E+03  0.23143487296E+03  0.91187600000E+02 0.  0.
<mgrwt>
<rscale>  0 0.10119144E+04</rscale>
<asrwt>0</asrwt>
<pdfrwt beam="1">  1        2 0.19498396E+00 0.10119144E+04</pdfrwt>
<pdfrwt beam="2">  1       -2 0.31074346E-01 0.10119144E+04</pdfrwt>
<totfact> 0.16524963E+02</totfact>
</mgrwt>
</event>
<event>
11    1  0.1407580E-011  0.1007076E+04  0.7818608E-02  0.9300818E-01
         -2   -1    0    0    0  501 -0.00000000000E+00  0.00000000000E+00  0.62980996652E+03  0.62980996652E+03  0.00000000000E+00 0.  1.
          2   -1    0    0  501    0  0.00000000000E+00 -0.00000000000E+00 -0.40258238329E+03  0.40258238329E+03  0.00000000000E+00 0. -1.
    9900016    2    1    2    0    0 -0.15787320509E+03 -0.14151159385E+03  0.11747064441E+03  0.79365386171E+03  0.75573647512E+03 0.  0.
         23    2    3    3    0    0 -0.15757726695E+03  0.64456064990E+02 -0.64770803557E+02  0.20405271975E+03  0.91962362247E+02 0.  0.
        -15    1    4    4    0    0 -0.12059899342E+03  0.29622157475E+02 -0.83789960870E+02  0.14980769997E+03  0.00000000000E+00 0.  1.
        -15    1    3    3    0    0 -0.57117486234E+01 -0.94519394127E+02  0.11182656020E+03  0.14653231556E+03  0.00000000000E+00 0.  1.
         15    1    3    3    0    0 -0.32154394057E+02 -0.57731923742E+02 -0.10059210454E+02  0.66843606957E+02  0.00000000000E+00 0. -1.
         15    1    4    4    0    0 -0.36978273531E+02  0.34833907515E+02  0.19019157313E+02  0.54245019780E+02  0.00000000000E+00 0. -1.
        -16    1    1    2    0    0  0.15787320509E+03  0.14151159385E+03  0.10975693882E+03  0.23873848810E+03  0.00000000000E+00 0.  1.
         16    1    3    3    0    0  0.16346283059E+03  0.52702708789E+02  0.75930635348E+02  0.18778480738E+03  0.00000000000E+00 0. -1.
    9900018    1    3    3    0    0 -0.12589262605E+03 -0.10641904976E+03  0.45434628726E+01  0.18844041205E+03  0.91187600000E+02 0.  0.
<mgrwt>
<rscale>  0 0.10070758E+04</rscale>
<asrwt>0</asrwt>
<pdfrwt beam="1">  1        2 0.61935752E-01 0.10070758E+04</pdfrwt>
<pdfrwt beam="2">  1       -2 0.96893841E-01 0.10070758E+04</pdfrwt>
<totfact> 0.70133198E+01</totfact>
</mgrwt>
</event>
