<event>
12    1  0.1510961E-012  0.1801367E+04  0.7818608E-02  0.8705573E-01
         -1   -1    0    0    0  501 -0.00000000000E+00  0.00000000000E+00  0.11570962516E+04  0.11570962516E+04  0.00000000000E+00 0.  1.
          1   -1    0    0  501    0  0.00000000000E+00 -0.00000000000E+00 -0.70109189689E+03  0.70109189689E+03  0.00000000000E+00 0. -1.
    9900016    2    1    2    0    0  0.50129352910E+03 -0.50334906170E+02 -0.32376968755E+03  0.92981518353E+03  0.71126693994E+03 0.  0.
    9900016    2    3    3    0    0  0.44991191846E+03 -0.20039249717E+02 -0.30794930564E+03  0.86032589146E+03  0.66521091300E+03 0.  0.
         23    2    4    4    0    0  0.26610135471E+02 -0.85134212361E+02  0.10484085643E+03  0.16322162124E+03  0.87714075480E+02 0.  0.
        -15    1    3    3    0    0  0.41209297831E+00 -0.13825525700E+02 -0.57855531701E+01  0.14992918561E+02  0.00000000000E+00 0.  1.
        -15    1    5    5    0    0  0.28471757267E+02 -0.65201727205E+02  0.17028923143E+02  0.73156615667E+02  0.00000000000E+00 0.  1.
         15    1    5    5    0    0 -0.18616217960E+01 -0.19932485156E+02  0.87811933289E+02  0.90065005570E+02  0.00000000000E+00 0. -1.
         15    1    3    3    0    0  0.50969517661E+02 -0.16470130753E+02 -0.10034828738E+02  0.54496373507E+02  0.00000000000E+00 0. -1.
        -16    1    1    2    0    0 -0.50129352910E+03  0.50334906170E+02  0.77977404226E+03  0.92837296497E+03  0.00000000000E+00 0.  1.
         16    1    4    4    0    0  0.16491926339E+03 -0.13162017555E+03 -0.87253611299E+02  0.22833183469E+03  0.00000000000E+00 0. -1.
    9900018    1    4    4    0    0  0.25838251960E+03  0.19671513820E+03 -0.32553655077E+03  0.46877243553E+03  0.91187600000E+02 0.  0.
<mgrwt>
<rscale>  0 0.18013670E+04</rscale>
<asrwt>0</asrwt>
<pdfrwt beam="1">  1        1 0.10786029E+00 0.18013670E+04</pdfrwt>
<pdfrwt beam="2">  1       -1 0.17801481E+00 0.18013670E+04</pdfrwt>
<totfact> 0.55150237E+00</totfact>
</mgrwt>
</event>
<event>
12    1  0.1510961E-012  0.1300983E+04  0.7818608E-02  0.9028786E-01
         -1   -1    0    0    0  501 -0.00000000000E+00  0.00000000000E+00  0.80782775978E+03  0.80782775978E+03  0.00000000000E+00 0.  1.
          1   -1    0    0  501    0  0.00000000000E+00 -0.00000000000E+00 -0.52379874932E+03  0.52379874932E+03  0.00000000000E+00 0. -1.
    9900016    2    1    2    0    0  0.66506597411E+02  0.10983798166E+03  0.61195089394E+03  0.97946138962E+03  0.75390530404E+03 0.  0.
    9900016    2    3    3    0    0  0.83251257113E+02  0.10018404984E+03  0.53481144327E+03  0.89755446156E+03  0.70895212530E+03 0.  0.
         23    2    4    4    0    0  0.20162566268E+03  0.15863509102E+03  0.86314303356E+02  0.28804511117E+03  0.98497853543E+02 0.  0.
        -15    1    3    3    0    0 -0.16858415285E+01  0.12054269301E+02  0.38006396535E+02  0.39907814368E+02  0.00000000000E+00 0. -1.
        -15    1    5    5    0    0  0.14982650211E+03  0.94442554246E+02  0.10156209209E+03  0.20416227697E+03  0.00000000000E+00 0. -1.
         15    1    3    3    0    0 -0.15058818174E+02 -0.24003374829E+01  0.39133054137E+02  0.41999113692E+02  0.00000000000E+00 0.  1.
         15    1    5    5    0    0  0.51799160576E+02  0.64192536769E+02 -0.15247788734E+02  0.83882834206E+02  0.00000000000E+00 0.  1.
        -16    1    4    4    0    0 -0.96919831493E+02 -0.16563820029E+03  0.68575940190E+02  0.20379432452E+03  0.00000000000E+00 0.  1.
         16    1    1    2    0    0 -0.66506597411E+02 -0.10983798166E+03 -0.32792188347E+03  0.35216511947E+03  0.00000000000E+00 0. -1.
    9900018    1    4    4    0    0 -0.21454574076E+02  0.10718715912E+03  0.37992119972E+03  0.40571502587E+03  0.91187600000E+02 0.  0.
<mgrwt>
<rscale>  0 0.13009830E+04</rscale>
<asrwt>0</asrwt>
<pdfrwt beam="1">  1        1 0.80584423E-01 0.13009830E+04</pdfrwt>
<pdfrwt beam="2">  1       -1 0.12428119E+00 0.13009830E+04</pdfrwt>
<totfact> 0.23181317E+01</totfact>
</mgrwt>
</event>
<event>
12    1  0.1510961E-012  0.1410799E+04  0.7818608E-02  0.8946038E-01
          2   -1    0    0  501    0  0.00000000000E+00  0.00000000000E+00  0.44850341936E+03  0.44850341936E+03  0.00000000000E+00 0. -1.
         -2   -1    0    0    0  501 -0.00000000000E+00 -0.00000000000E+00 -0.11094420667E+04  0.11094420667E+04  0.00000000000E+00 0.  1.
    9900016    2    1    2    0    0 -0.13441001727E+03  0.38187793693E+03 -0.76132932823E+03  0.11408422611E+04  0.74699525248E+03 0.  0.
    9900016    2    3    3    0    0 -0.88904722322E+02  0.32851004079E+03 -0.61823744976E+03  0.96446259249E+03  0.65737938169E+03 0.  0.
         23    2    4    4    0    0 -0.47332873299E+02 -0.91295889104E+02 -0.44449242647E+02  0.14034720342E+03  0.84535566918E+02 0.  0.
        -15    1    5    5    0    0 -0.17922891167E+02 -0.21927502709E+02 -0.57297362212E+02  0.63914263817E+02  0.00000000000E+00 0.  1.
        -15    1    3    3    0    0 -0.57003569262E+02  0.16264674791E+02 -0.58443067042E+02  0.83243850463E+02  0.00000000000E+00 0.  1.
         15    1    5    5    0    0 -0.29409982132E+02 -0.69368386395E+02  0.12848119565E+02  0.76432939603E+02  0.00000000000E+00 0. -1.
         15    1    3    3    0    0  0.11498274313E+02  0.37103221351E+02 -0.84648811427E+02  0.93135818152E+02  0.00000000000E+00 0. -1.
        -16    1    4    4    0    0  0.28987191582E+02  0.29601567207E+03 -0.88700197733E+02  0.31037599854E+03  0.00000000000E+00 0.  1.
         16    1    1    2    0    0  0.13441001727E+03 -0.38187793693E+03  0.10039068089E+03  0.41710322496E+03  0.00000000000E+00 0. -1.
    9900018    1    4    4    0    0 -0.70559040605E+02  0.12379025782E+03 -0.48508800938E+03  0.51373939053E+03  0.91187600000E+02 0.  0.
<mgrwt>
<rscale>  0 0.14107992E+04</rscale>
<asrwt>0</asrwt>
<pdfrwt beam="1">  1        2 0.69000527E-01 0.14107992E+04</pdfrwt>
<pdfrwt beam="2">  1       -2 0.17068339E+00 0.14107992E+04</pdfrwt>
<totfact> 0.14293827E+01</totfact>
</mgrwt>
</event>
