<event>
13    1  0.3382046E-007  0.4311549E+04  0.7818608E-02  0.7944486E-01
         -2   -1    0    0    0  501 -0.00000000000E+00  0.00000000000E+00  0.14046560302E+04  0.14046560302E+04  0.00000000000E+00 0.  1.
          2   -1    0    0  501    0  0.00000000000E+00 -0.00000000000E+00 -0.33085417059E+04  0.33085417059E+04  0.00000000000E+00 0. -1.
    9900016    2    1    2    0    0  0.26861409621E+03 -0.10902792870E+03 -0.21256617260E+04  0.28303782313E+04  0.18462292753E+04 0.  0.
        -24    2    3    3    0    0  0.10245045662E+04 -0.22788238122E+03 -0.15465925180E+04  0.18707856452E+04  0.79690199370E+02 0.  0.
    9900016    2    1    2    0    0 -0.26861409621E+03  0.10902792870E+03  0.22177605037E+03  0.18828195047E+04  0.18471015264E+04 0.  0.
         23    2    5    5    0    0 -0.16285984185E+02 -0.12214735123E+03  0.73398254754E+03  0.74998164710E+03  0.92503417214E+02 0.  0.
        -15    1    6    6    0    0  0.36264813695E+02 -0.26544220302E+02  0.20564172963E+03  0.21049525721E+03  0.00000000000E+00 0.  1.
        -15    1    3    3    0    0 -0.75589047000E+03  0.11885445252E+03 -0.57906920804E+03  0.95959258606E+03  0.00000000000E+00 0.  1.
         15    1    4    4    0    0  0.64630638757E+03 -0.10448989271E+03 -0.95345804437E+03  0.11565951438E+04  0.00000000000E+00 0. -1.
         15    1    6    6    0    0 -0.52550797880E+02 -0.95603130927E+02  0.52834081791E+03  0.53948638988E+03  0.00000000000E+00 0. -1.
        -16    1    4    4    0    0  0.37819817864E+03 -0.12339248851E+03 -0.59313447363E+03  0.71419050145E+03  0.00000000000E+00 0.  1.
         16    1    5    5    0    0  0.21635007400E+02  0.56637677460E+03 -0.25993121492E+03  0.62355028734E+03  0.00000000000E+00 0. -1.
    9900018    1    5    5    0    0 -0.27396311943E+03 -0.33520149467E+03 -0.25227528224E+03  0.50928757030E+03  0.91187600000E+02 0.  0.
<mgrwt>
<rscale>  0 0.43115487E+04</rscale>
<asrwt>0</asrwt>
<pdfrwt beam="1">  1        2 0.50900642E+00 0.43115487E+04</pdfrwt>
<pdfrwt beam="2">  1       -2 0.21610093E+00 0.43115487E+04</pdfrwt>
<totfact> 0.88385130E-02</totfact>
</mgrwt>
</event>
<event>
13    1  0.3382046E-007  0.4182612E+04  0.7818608E-02  0.7968688E-01
         -2   -1    0    0    0  501 -0.00000000000E+00  0.00000000000E+00  0.12155626201E+04  0.12155626201E+04  0.00000000000E+00 0.  1.
          2   -1    0    0  501    0  0.00000000000E+00 -0.00000000000E+00 -0.35979716363E+04  0.35979716363E+04  0.00000000000E+00 0. -1.
    9900016    2    1    2    0    0 -0.68495425567E+03  0.52968844251E+03 -0.64751234896E+03  0.21348992823E+04  0.18408667863E+04 0.  0.
        -24    2    3    3    0    0  0.18922031498E+03  0.90327744973E+02 -0.10523906072E+04  0.10760577425E+04  0.80067757822E+02 0.  0.
    9900016    2    1    2    0    0  0.68495425567E+03 -0.52968844251E+03 -0.17348966673E+04  0.26786349741E+04  0.18481035415E+04 0.  0.
         23    2    5    5    0    0 -0.51668218765E+02 -0.41508830883E+03 -0.42662169685E+03  0.60419680086E+03  0.89887668705E+02 0.  0.
        -15    1    3    3    0    0 -0.87417457064E+03  0.43936069753E+03  0.40487825825E+03  0.10588415398E+04  0.00000000000E+00 0.  1.
        -15    1    6    6    0    0 -0.21163387073E+02 -0.26460924582E+03 -0.20896674521E+03  0.33783582185E+03  0.00000000000E+00 0.  1.
         15    1    4    4    0    0  0.16798168717E+03  0.44301388310E+02 -0.80768182354E+03  0.82615397373E+03  0.00000000000E+00 0. -1.
         15    1    6    6    0    0 -0.30504831692E+02 -0.15047906302E+03 -0.21765495165E+03  0.26636097901E+03  0.00000000000E+00 0. -1.
        -16    1    4    4    0    0  0.21238627809E+02  0.46026356663E+02 -0.24470878368E+03  0.24990376874E+03  0.00000000000E+00 0.  1.
         16    1    5    5    0    0 -0.15290856379E+03  0.27998112223E+03  0.12247543648E+03  0.34171726650E+03  0.00000000000E+00 0. -1.
    9900018    1    5    5    0    0  0.88953103822E+03 -0.39458125590E+03 -0.14307504069E+04  0.17327209067E+04  0.91187600000E+02 0.  0.
<mgrwt>
<rscale>  0 0.41826115E+04</rscale>
<asrwt>0</asrwt>
<pdfrwt beam="1">  1        2 0.55353410E+00 0.41826115E+04</pdfrwt>
<pdfrwt beam="2">  1       -2 0.18700963E+00 0.41826115E+04</pdfrwt>
<totfact> 0.87242459E-02</totfact>
</mgrwt>
</event>
<event>
13    1  0.3382046E-007  0.5015730E+04  0.7818608E-02  0.7826085E-01
          2   -1    0    0  501    0  0.00000000000E+00  0.00000000000E+00  0.22071301577E+04  0.22071301577E+04  0.00000000000E+00 0. -1.
         -2   -1    0    0    0  501 -0.00000000000E+00 -0.00000000000E+00 -0.28495764073E+04  0.28495764073E+04  0.00000000000E+00 0.  1.
    9900016    2    1    2    0    0 -0.16155557272E+04 -0.15756983548E+03 -0.84807118791E+03  0.25886875770E+04  0.18295436783E+04 0.  0.
        -24    2    3    3    0    0  0.20433490196E+03 -0.48063991787E+03 -0.45899729253E+03  0.69983748338E+03  0.79539334805E+02 0.  0.
    9900016    2    1    2    0    0  0.16155557272E+04  0.15756983548E+03  0.20562493827E+03  0.24680189880E+04  0.18476979052E+04 0.  0.
         23    2    5    5    0    0 -0.94766115171E+02 -0.20210661474E+03 -0.27849171849E+03  0.36867602597E+03  0.92394126188E+02 0.  0.
        -15    1    3    3    0    0 -0.18198906291E+04  0.32307008239E+03 -0.38907389538E+03  0.18888500936E+04  0.00000000000E+00 0.  1.
        -15    1    6    6    0    0 -0.24600967722E+02 -0.15531278953E+03 -0.18086221684E+03  0.23966312124E+03  0.00000000000E+00 0.  1.
         15    1    6    6    0    0 -0.70165147448E+02 -0.46793825209E+02 -0.97629501650E+02  0.12901290473E+03  0.00000000000E+00 0. -1.
         15    1    4    4    0    0  0.10114824287E+03 -0.25381579781E+03 -0.18784384672E+03  0.33157010873E+03  0.00000000000E+00 0. -1.
        -16    1    4    4    0    0  0.10318665910E+03 -0.22682412007E+03 -0.27115344581E+03  0.36826737465E+03  0.00000000000E+00 0.  1.
         16    1    5    5    0    0  0.11232800536E+04  0.73277172286E+03  0.32655273478E+03  0.13803438576E+04  0.00000000000E+00 0. -1.
    9900018    1    5    5    0    0  0.58704178875E+03 -0.37309527264E+03  0.15756392197E+03  0.71899910439E+03  0.91187600000E+02 0.  0.
<mgrwt>
<rscale>  0 0.50157297E+04</rscale>
<asrwt>0</asrwt>
<pdfrwt beam="1">  1        2 0.33955849E+00 0.50157297E+04</pdfrwt>
<pdfrwt beam="2">  1       -2 0.43839637E+00 0.50157297E+04</pdfrwt>
<totfact> 0.15443165E-02</totfact>
</mgrwt>
</event>
<event>
13    1  0.3382046E-007  0.4000770E+04  0.7818608E-02  0.8004391E-01
         -1   -1    0    0    0  501 -0.00000000000E+00  0.00000000000E+00  0.99179113231E+03  0.99179113231E+03  0.00000000000E+00 0.  1.
          1   -1    0    0  501    0  0.00000000000E+00 -0.00000000000E+00 -0.40346609985E+04  0.40346609985E+04  0.00000000000E+00 0. -1.
    9900016    2    1    2    0    0  0.52450790154E+03  0.50856231268E+03 -0.18598950061E+04  0.27209787004E+04  0.18468274120E+04 0.  0.
         24    2    3    3    0    0 -0.44985158088E+03 -0.27577888985E+03 -0.71365127563E+02  0.53845569953E+03  0.80131878922E+02 0.  0.
    9900016    2    1    2    0    0 -0.52450790154E+03 -0.50856231268E+03 -0.11829748600E+04  0.23054734303E+04  0.18390307376E+04 0.  0.
         23    2    5    5    0    0  0.20372186506E+03  0.17195252846E+03 -0.11025339032E+04  0.11378664214E+04  0.89937283306E+02 0.  0.
        -15    1    6    6    0    0  0.60815142913E+02  0.89781407542E+01 -0.17990932218E+03  0.19012220498E+03  0.00000000000E+00 0.  1.
        -15    1    4    4    0    0 -0.28287984562E+03 -0.14103670499E+03 -0.14175343307E+02  0.31640685766E+03  0.00000000000E+00 0.  1.
         15    1    3    3    0    0  0.97435948242E+03  0.78434120252E+03 -0.17885298786E+04  0.21825230009E+04  0.00000000000E+00 0. -1.
         15    1    6    6    0    0  0.14290672215E+03  0.16297438771E+03 -0.92262458100E+03  0.94774421641E+03  0.00000000000E+00 0. -1.
        -16    1    5    5    0    0 -0.16767998372E+03  0.98369573323E+02  0.32373720773E+02  0.19708172846E+03  0.00000000000E+00 0.  1.
         16    1    4    4    0    0 -0.16697173526E+03 -0.13474218485E+03 -0.57189784255E+02  0.22204884187E+03  0.00000000000E+00 0. -1.
    9900018    1    5    5    0    0 -0.56054978288E+03 -0.77888441446E+03 -0.11281467762E+03  0.97052528048E+03  0.91187600000E+02 0.  0.
<mgrwt>
<rscale>  0 0.40007704E+04</rscale>
<asrwt>0</asrwt>
<pdfrwt beam="1">  1        1 0.62071708E+00 0.40007704E+04</pdfrwt>
<pdfrwt beam="2">  1       -1 0.15258325E+00 0.40007704E+04</pdfrwt>
<totfact> 0.23229020E-02</totfact>
</mgrwt>
</event>
<event>
13    1  0.3382046E-007  0.5273517E+04  0.7818608E-02  0.7787646E-01
          2   -1    0    0  501    0  0.00000000000E+00  0.00000000000E+00  0.40165113772E+04  0.40165113772E+04  0.00000000000E+00 0. -1.
         -2   -1    0    0    0  501 -0.00000000000E+00 -0.00000000000E+00 -0.17309786998E+04  0.17309786998E+04  0.00000000000E+00 0.  1.
    9900016    2    1    2    0    0 -0.65011170115E+03  0.17553047601E+04  0.12674340552E+04  0.29214948484E+04  0.18506763737E+04 0.  0.
        -24    2    3    3    0    0 -0.37607348826E+03 -0.29999360155E+03 -0.59769033210E+01  0.48820001081E+03  0.82922238499E+02 0.  0.
    9900016    2    1    2    0    0  0.65011170115E+03 -0.17553047601E+04  0.10180986222E+04  0.28259952286E+04  0.18563362310E+04 0.  0.
         23    2    5    5    0    0 -0.24918768254E+02  0.31097358399E+03 -0.92831660392E+02  0.33678514042E+03  0.86492766694E+02 0.  0.
        -15    1    6    6    0    0  0.20970646451E+02  0.17638590634E+03 -0.77384223482E+02  0.19375261033E+03  0.00000000000E+00 0.  1.
        -15    1    3    3    0    0 -0.27403821288E+03  0.20552983616E+04  0.12734109585E+04  0.24332948376E+04  0.00000000000E+00 0.  1.
         15    1    4    4    0    0 -0.30005699760E+03 -0.20775086367E+03 -0.30325234786E+02  0.36621611520E+03  0.00000000000E+00 0. -1.
         15    1    6    6    0    0 -0.45889414705E+02  0.13458767765E+03 -0.15447436910E+02  0.14303253009E+03  0.00000000000E+00 0. -1.
        -16    1    4    4    0    0 -0.76016490661E+02 -0.92242737878E+02  0.24348331465E+02  0.12198389561E+03  0.00000000000E+00 0.  1.
         16    1    5    5    0    0  0.35380672395E+03 -0.15934732356E+04  0.94922247710E+03  0.18882159468E+04  0.00000000000E+00 0. -1.
    9900018    1    5    5    0    0  0.32122374544E+03 -0.47280510843E+03  0.16170780552E+03  0.60099414136E+03  0.91187600000E+02 0.  0.
<mgrwt>
<rscale>  0 0.52735171E+04</rscale>
<asrwt>0</asrwt>
<pdfrwt beam="1">  1        2 0.61792483E+00 0.52735171E+04</pdfrwt>
<pdfrwt beam="2">  1       -2 0.26630442E+00 0.52735171E+04</pdfrwt>
<totfact> 0.12004947E-02</totfact>
</mgrwt>
</event>
<event>
13    1  0.3382046E-007  0.4580429E+04  0.7818608E-02  0.7896705E-01
          2   -1    0    0  501    0  0.00000000000E+00  0.00000000000E+00  0.36553703148E+04  0.36553703148E+04  0.00000000000E+00 0. -1.
         -2   -1    0    0    0  501 -0.00000000000E+00 -0.00000000000E+00 -0.14348979012E+04  0.14348979012E+04  0.00000000000E+00 0.  1.
    9900016    2    1    2    0    0 -0.41192741590E+02 -0.12976987460E+04  0.69995146394E+03  0.23594707208E+04  0.18415893008E+04 0.  0.
        -24    2    3    3    0    0  0.85541034557E+02 -0.23974593231E+03 -0.61304111332E+03  0.66853159885E+03  0.79496612444E+02 0.  0.
    9900016    2    1    2    0    0  0.41192741590E+02  0.12976987460E+04  0.15205209496E+04  0.27307974952E+04  0.18599871301E+04 0.  0.
         23    2    5    5    0    0  0.21429373795E+03  0.22797239151E+03 -0.20045687384E+03  0.38103057198E+03  0.84309673804E+02 0.  0.
        -15    1    6    6    0    0  0.13281528966E+03  0.18941892123E+03 -0.12205971907E+03  0.26156835418E+03  0.00000000000E+00 0. -1.
        -15    1    3    3    0    0 -0.12673377615E+03 -0.10579528137E+04  0.13129925773E+04  0.16909391219E+04  0.00000000000E+00 0.  1.
         15    1    4    4    0    0  0.29560384103E+02 -0.11865273358E+03 -0.38913682020E+03  0.40789674225E+03  0.00000000000E+00 0. -1.
         15    1    6    6    0    0  0.81478448286E+02  0.38553470282E+02 -0.78397154770E+02  0.11946221780E+03  0.00000000000E+00 0.  1.
        -16    1    4    4    0    0  0.55980650454E+02 -0.12109319872E+03 -0.22390429312E+03  0.26063485661E+03  0.00000000000E+00 0.  1.
         16    1    5    5    0    0  0.35538563132E+02 -0.23880176615E+03  0.45395570376E+03  0.51416442308E+03  0.00000000000E+00 0. -1.
    9900018    1    5    5    0    0 -0.20863955949E+03  0.13085281207E+04  0.12670221197E+04  0.18356025002E+04  0.91187600000E+02 0.  0.
<mgrwt>
<rscale>  0 0.45804293E+04</rscale>
<asrwt>0</asrwt>
<pdfrwt beam="1">  1        2 0.56236466E+00 0.45804293E+04</pdfrwt>
<pdfrwt beam="2">  1       -2 0.22075352E+00 0.45804293E+04</pdfrwt>
<totfact> 0.46205410E-02</totfact>
</mgrwt>
</event>
<event>
13    1  0.3382046E-007  0.4310074E+04  0.7818608E-02  0.7944758E-01
          2   -1    0    0  501    0  0.00000000000E+00  0.00000000000E+00  0.23962260000E+04  0.23962260000E+04  0.00000000000E+00 0. -1.
         -2   -1    0    0    0  501 -0.00000000000E+00 -0.00000000000E+00 -0.19381246992E+04  0.19381246992E+04  0.00000000000E+00 0.  1.
    9900016    2    1    2    0    0 -0.41645331619E+03  0.37857919751E+03 -0.74625547363E+03  0.20589786412E+04  0.18345953886E+04 0.  0.
        -24    2    3    3    0    0  0.71351773935E+03  0.61162347181E+02 -0.12768969307E+03  0.73224895207E+03  0.83877726570E+02 0.  0.
    9900016    2    1    2    0    0  0.41645331619E+03 -0.37857919751E+03  0.12043567744E+04  0.22753720581E+04  0.18466421389E+04 0.  0.
         23    2    5    5    0    0  0.21010582749E+03  0.31476751880E+03 -0.33248295264E+03  0.51189679614E+03  0.90941555199E+02 0.  0.
        -15    1    6    6    0    0  0.80509151679E+02  0.51423398118E+02 -0.88528308829E+02  0.13024342917E+03  0.00000000000E+00 0. -1.
        -15    1    3    3    0    0 -0.11299710555E+04  0.31741685033E+03 -0.61856578056E+03  0.13267296892E+04  0.00000000000E+00 0.  1.
         15    1    6    6    0    0  0.12959667581E+03  0.26334412068E+03 -0.24395464381E+03  0.38165336697E+03  0.00000000000E+00 0.  1.
         15    1    4    4    0    0  0.51618333975E+02 -0.27920220780E+01  0.11258177288E+02  0.52905522826E+02  0.00000000000E+00 0. -1.
        -16    1    4    4    0    0  0.66189940537E+03  0.63954369259E+02 -0.13894787036E+03  0.67934342924E+03  0.00000000000E+00 0.  1.
         16    1    5    5    0    0 -0.72492918815E+02 -0.50466877721E+03  0.10139913612E+04  0.11349556284E+04  0.00000000000E+00 0. -1.
    9900018    1    5    5    0    0  0.27884040752E+03 -0.18867793910E+03  0.52284836588E+03  0.62851963348E+03  0.91187600000E+02 0.  0.
<mgrwt>
<rscale>  0 0.43100742E+04</rscale>
<asrwt>0</asrwt>
<pdfrwt beam="1">  1        2 0.36865015E+00 0.43100742E+04</pdfrwt>
<pdfrwt beam="2">  1       -2 0.29817303E+00 0.43100742E+04</pdfrwt>
<totfact> 0.10025620E-01</totfact>
</mgrwt>
</event>
<event>
13    1  0.3382046E-007  0.4626123E+04  0.7818608E-02  0.7888921E-01
          2   -1    0    0  501    0  0.00000000000E+00  0.00000000000E+00  0.31925088282E+04  0.31925088282E+04  0.00000000000E+00 0.  1.
         -2   -1    0    0    0  501 -0.00000000000E+00 -0.00000000000E+00 -0.16758772159E+04  0.16758772159E+04  0.00000000000E+00 0. -1.
    9900016    2    1    2    0    0 -0.61131003388E+02 -0.84559299256E+03 -0.42549282630E+03  0.20693643234E+04  0.18391465546E+04 0.  0.
         24    2    3    3    0    0 -0.54236514365E+03  0.39813215056E+03 -0.25744883574E+02  0.67715853868E+03  0.72192306547E+02 0.  0.
    9900016    2    1    2    0    0  0.61131003388E+02  0.84559299256E+03  0.19421244385E+04  0.27990217206E+04  0.18286363086E+04 0.  0.
         23    2    5    5    0    0  0.37118427333E+03 -0.15228566322E+03  0.46394768767E+03  0.61988079073E+03  0.89644017300E+02 0.  0.
        -15    1    6    6    0    0  0.11747051966E+03 -0.89612832166E+02  0.13875051323E+03  0.20268568672E+03  0.00000000000E+00 0. -1.
        -15    1    4    4    0    0 -0.34958570905E+03  0.25056212850E+03  0.17948369947E+02  0.43048076866E+03  0.00000000000E+00 0.  1.
         15    1    3    3    0    0  0.48123414026E+03 -0.12437251431E+04 -0.39974794273E+03  0.13922057847E+04  0.00000000000E+00 0. -1.
         15    1    6    6    0    0  0.25371375367E+03 -0.62672831053E+02  0.32519717443E+03  0.41719510401E+03  0.00000000000E+00 0.  1.
        -16    1    5    5    0    0  0.90405736873E+02  0.56570235090E+03 -0.13173751222E+02  0.57303219351E+03  0.00000000000E+00 0.  1.
         16    1    4    4    0    0 -0.19277943460E+03  0.14757002206E+03 -0.43693253521E+02  0.24667777001E+03  0.00000000000E+00 0. -1.
    9900018    1    5    5    0    0 -0.40045900681E+03  0.43217630488E+03  0.14913505021E+04  0.16061087364E+04  0.91187600000E+02 0.  0.
<mgrwt>
<rscale>  0 0.46261227E+04</rscale>
<asrwt>0</asrwt>
<pdfrwt beam="1">  1        2 0.49115520E+00 0.46261227E+04</pdfrwt>
<pdfrwt beam="2">  1       -2 0.25782726E+00 0.46261227E+04</pdfrwt>
<totfact> 0.56532784E-02</totfact>
</mgrwt>
</event>
<event>
13    1  0.3382046E-007  0.4843233E+04  0.7818608E-02  0.7853156E-01
         -2   -1    0    0    0  501 -0.00000000000E+00  0.00000000000E+00  0.27033788362E+04  0.27033788362E+04  0.00000000000E+00 0.  1.
          2   -1    0    0  501    0  0.00000000000E+00 -0.00000000000E+00 -0.21692213542E+04  0.21692213542E+04  0.00000000000E+00 0. -1.
    9900016    2    1    2    0    0 -0.92066086288E+03 -0.12256874071E+03  0.15611455215E+04  0.25811743821E+04  0.18337519819E+04 0.  0.
        -24    2    3    3    0    0 -0.63812477893E+03 -0.96781049915E+03  0.94650239827E+03  0.14985634465E+04  0.77234821233E+02 0.  0.
    9900016    2    1    2    0    0  0.92066086288E+03  0.12256874071E+03 -0.10269880395E+04  0.22914258082E+04  0.18257295201E+04 0.  0.
         23    2    5    5    0    0  0.34501954711E+03 -0.17930902690E+03  0.37176796479E+03  0.54558744424E+03  0.90906681035E+02 0.  0.
        -15    1    3    3    0    0 -0.28253608395E+03  0.84524175844E+03  0.61464312319E+03  0.10826109356E+04  0.00000000000E+00 0.  1.
        -15    1    6    6    0    0  0.31419626477E+03 -0.18640424378E+03  0.35656400827E+03  0.51049361102E+03  0.00000000000E+00 0. -1.
         15    1    4    4    0    0 -0.14218534192E+03 -0.27515359811E+03  0.24005787548E+03  0.39185961464E+03  0.00000000000E+00 0. -1.
         15    1    6    6    0    0  0.30823282339E+02  0.70952168783E+01  0.15203956516E+02  0.35093833225E+02  0.00000000000E+00 0.  1.
        -16    1    4    4    0    0 -0.49593943702E+03 -0.69265690104E+03  0.70644452279E+03  0.11067038319E+04  0.00000000000E+00 0.  1.
         16    1    5    5    0    0  0.96896435534E+02  0.49416107931E+03 -0.52812063906E+03  0.72972289324E+03  0.00000000000E+00 0. -1.
    9900018    1    5    5    0    0  0.47874488024E+03 -0.19228331169E+03 -0.87063536520E+03  0.10161154707E+04  0.91187600000E+02 0.  0.
<mgrwt>
<rscale>  0 0.48432333E+04</rscale>
<asrwt>0</asrwt>
<pdfrwt beam="1">  1        2 0.33372636E+00 0.48432333E+04</pdfrwt>
<pdfrwt beam="2">  1       -2 0.41590444E+00 0.48432333E+04</pdfrwt>
<totfact> 0.23135221E-02</totfact>
</mgrwt>
</event>
<event>
13    1  0.3382046E-007  0.4300142E+04  0.7818608E-02  0.7946592E-01
          2   -1    0    0  501    0  0.00000000000E+00  0.00000000000E+00  0.22415673139E+04  0.22415673139E+04  0.00000000000E+00 0. -1.
         -2   -1    0    0    0  501 -0.00000000000E+00 -0.00000000000E+00 -0.20623097023E+04  0.20623097023E+04  0.00000000000E+00 0.  1.
    9900016    2    1    2    0    0 -0.26156166847E+03  0.74550572123E+03 -0.69123326001E+03  0.21204154031E+04  0.18423259145E+04 0.  0.
        -24    2    3    3    0    0  0.49403393017E+03  0.18533032884E+03 -0.99747762856E+03  0.11312203807E+04  0.79253235837E+02 0.  0.
    9900016    2    1    2    0    0  0.26156166847E+03 -0.74550572123E+03  0.87049087156E+03  0.21834616131E+04  0.18399883075E+04 0.  0.
         23    2    5    5    0    0 -0.18794263809E+03 -0.29682718365E+03 -0.35254622888E+03  0.50604429648E+03  0.91450392729E+02 0.  0.
        -15    1    6    6    0    0 -0.93105839681E+02 -0.13555105988E+03 -0.22865856492E+03  0.28165142735E+03  0.00000000000E+00 0.  1.
        -15    1    3    3    0    0 -0.75559559864E+03  0.56017539239E+03  0.30624436855E+03  0.98919502232E+03  0.00000000000E+00 0.  1.
         15    1    6    6    0    0 -0.94836798413E+02 -0.16127612378E+03 -0.12388766396E+03  0.22439286913E+03  0.00000000000E+00 0. -1.
         15    1    4    4    0    0  0.14227717883E+03  0.17533545959E+02 -0.29012348832E+03  0.32360756994E+03  0.00000000000E+00 0. -1.
        -16    1    4    4    0    0  0.35175675135E+03  0.16779678288E+03 -0.70735414024E+03  0.80761281081E+03  0.00000000000E+00 0.  1.
         16    1    5    5    0    0 -0.10524853316E+03  0.16675696474E+03  0.61448501001E+03  0.64535026656E+03  0.00000000000E+00 0. -1.
    9900018    1    5    5    0    0  0.55475283973E+03 -0.61543550231E+03  0.60855209043E+03  0.10320670501E+04  0.91187600000E+02 0.  0.
<mgrwt>
<rscale>  0 0.43001423E+04</rscale>
<asrwt>0</asrwt>
<pdfrwt beam="1">  1        2 0.34485651E+00 0.43001423E+04</pdfrwt>
<pdfrwt beam="2">  1       -2 0.31727842E+00 0.43001423E+04</pdfrwt>
<totfact> 0.93765097E-02</totfact>
</mgrwt>
</event>
<event>
13    1  0.3382046E-007  0.5578904E+04  0.7818608E-02  0.7744924E-01
         -1   -1    0    0    0  501 -0.00000000000E+00  0.00000000000E+00  0.31483230565E+04  0.31483230565E+04  0.00000000000E+00 0.  1.
          1   -1    0    0  501    0  0.00000000000E+00 -0.00000000000E+00 -0.24714875989E+04  0.24714875989E+04  0.00000000000E+00 0. -1.
    9900016    2    1    2    0    0  0.18862708697E+04 -0.59447034458E+02  0.12531770819E+04  0.29195004926E+04  0.18415967485E+04 0.  0.
        -24    2    3    3    0    0  0.84050290689E+03  0.30681102732E+03 -0.35559181873E+03  0.96606429573E+03  0.79098286642E+02 0.  0.
    9900016    2    1    2    0    0 -0.18862708697E+04  0.59447034458E+02 -0.57634162423E+03  0.27003101628E+04  0.18433538900E+04 0.  0.
         23    2    5    5    0    0 -0.13117954368E+03  0.14680172260E+03  0.25745998108E+03  0.33629631377E+03  0.89725973722E+02 0.  0.
        -15    1    3    3    0    0  0.10457679628E+04 -0.36625806178E+03  0.16087689006E+04  0.19534361969E+04  0.00000000000E+00 0.  1.
        -15    1    6    6    0    0 -0.76751576126E+02  0.55507153887E+02  0.60222838210E+02  0.11224365823E+03  0.00000000000E+00 0. -1.
         15    1    6    6    0    0 -0.54427967558E+02  0.91294568711E+02  0.19723714287E+03  0.22405265555E+03  0.00000000000E+00 0.  1.
         15    1    4    4    0    0  0.65232175288E+03  0.21258174523E+03 -0.29694869537E+03  0.74759159664E+03  0.00000000000E+00 0. -1.
        -16    1    4    4    0    0  0.18818115402E+03  0.94229282092E+02 -0.58643123366E+02  0.21847269909E+03  0.00000000000E+00 0.  1.
         16    1    5    5    0    0 -0.22941809536E+03 -0.56556222438E+03 -0.24769883074E+03  0.65867139218E+03  0.00000000000E+00 0. -1.
    9900018    1    5    5    0    0 -0.15256732307E+04  0.47820753624E+03 -0.58610277457E+03  0.17053424569E+04  0.91187600000E+02 0.  0.
<mgrwt>
<rscale>  0 0.55789036E+04</rscale>
<asrwt>0</asrwt>
<pdfrwt beam="1">  1        1 0.38022886E+00 0.55789036E+04</pdfrwt>
<pdfrwt beam="2">  1       -1 0.48435739E+00 0.55789036E+04</pdfrwt>
<totfact> 0.18597372E-03</totfact>
</mgrwt>
</event>
<event>
13    1  0.3382046E-007  0.4484836E+04  0.7818608E-02  0.7913297E-01
          2   -1    0    0  501    0  0.00000000000E+00  0.00000000000E+00  0.40324131149E+04  0.40324131149E+04  0.00000000000E+00 0.  1.
         -2   -1    0    0    0  501 -0.00000000000E+00 -0.00000000000E+00 -0.12470045321E+04  0.12470045321E+04  0.00000000000E+00 0. -1.
    9900016    2    1    2    0    0  0.24167736170E+03  0.72448102536E+03  0.25913842325E+04  0.32693518396E+04  0.18412247302E+04 0.  0.
        -24    2    3    3    0    0 -0.14137623301E+03 -0.21256894691E+02 -0.25498374818E+03  0.30208613132E+03  0.76159202121E+02 0.  0.
    9900016    2    1    2    0    0 -0.24167736170E+03 -0.72448102536E+03  0.19402435030E+03  0.20100658074E+04  0.18491723550E+04 0.  0.
         23    2    5    5    0    0 -0.86239360471E+02 -0.40091842480E+03  0.16584438768E+03  0.45208090306E+03  0.93273636933E+02 0.  0.
        -15    1    3    3    0    0  0.38305359471E+03  0.74573792005E+03  0.28463679807E+04  0.29672657082E+04  0.00000000000E+00 0.  1.
        -15    1    6    6    0    0 -0.62212695387E+01 -0.20931387660E+03  0.11242687670E+03  0.23767794541E+03  0.00000000000E+00 0.  1.
         15    1    6    6    0    0 -0.80018090933E+02 -0.19160454820E+03  0.53417510980E+02  0.21440295765E+03  0.00000000000E+00 0. -1.
         15    1    4    4    0    0 -0.48891653214E+02  0.24873498960E+02 -0.59263796845E+02  0.80754456973E+02  0.00000000000E+00 0. -1.
        -16    1    4    4    0    0 -0.92484579794E+02 -0.46130393651E+02 -0.19571995134E+03  0.22133167435E+03  0.00000000000E+00 0.  1.
         16    1    5    5    0    0  0.65129818050E+02  0.45017311551E+03  0.45440181487E+03  0.64294536042E+03  0.00000000000E+00 0. -1.
    9900018    1    5    5    0    0 -0.22056781928E+03 -0.77373571607E+03 -0.42622185224E+03  0.91503954393E+03  0.91187600000E+02 0.  0.
<mgrwt>
<rscale>  0 0.44848355E+04</rscale>
<asrwt>0</asrwt>
<pdfrwt beam="1">  1        2 0.62037124E+00 0.44848355E+04</pdfrwt>
<pdfrwt beam="2">  1       -2 0.19184685E+00 0.44848355E+04</pdfrwt>
<totfact> 0.36631322E-02</totfact>
</mgrwt>
</event>
<event>
13    1  0.3382046E-007  0.4049975E+04  0.7818608E-02  0.7994540E-01
          1   -1    0    0  501    0  0.00000000000E+00  0.00000000000E+00  0.19764905510E+04  0.19764905510E+04  0.00000000000E+00 0. -1.
         -1   -1    0    0    0  501 -0.00000000000E+00 -0.00000000000E+00 -0.20746740885E+04  0.20746740885E+04  0.00000000000E+00 0.  1.
    9900016    2    1    2    0    0  0.22041206924E+03 -0.22279007985E+03 -0.83709711165E+03  0.20522002063E+04  0.18473162188E+04 0.  0.
         24    2    3    3    0    0  0.63556684840E+03  0.32487860422E+03  0.25478857028E+03  0.76204175841E+03  0.79366868064E+02 0.  0.
    9900016    2    1    2    0    0 -0.22041206924E+03  0.22279007985E+03  0.73891357413E+03  0.19989644332E+04  0.18307508392E+04 0.  0.
         23    2    5    5    0    0  0.25361631031E+03 -0.50260369405E+01 -0.46279596570E+03  0.53550571240E+03  0.90773169162E+02 0.  0.
        -15    1    4    4    0    0  0.11413084603E+03  0.31734547096E+02  0.61020288980E+02  0.13325316943E+03  0.00000000000E+00 0.  1.
        -15    1    6    6    0    0  0.68371408150E+02 -0.40560422582E+02 -0.16213460749E+03  0.18057527040E+03  0.00000000000E+00 0.  1.
         15    1    6    6    0    0  0.18524490216E+03  0.35534385641E+02 -0.30066135821E+03  0.35493044200E+03  0.00000000000E+00 0. -1.
         15    1    3    3    0    0 -0.41515477917E+03 -0.54766868407E+03 -0.10918856819E+04  0.12901584479E+04  0.00000000000E+00 0. -1.
        -16    1    5    5    0    0 -0.48592129137E+03 -0.94935782544E+02  0.64034093443E+03  0.80942499129E+03  0.00000000000E+00 0.  1.
         16    1    4    4    0    0  0.52143600237E+03  0.29314405712E+03  0.19376828130E+03  0.62878858898E+03  0.00000000000E+00 0. -1.
    9900018    1    5    5    0    0  0.11892911821E+02  0.32275189933E+03  0.56136860540E+03  0.65403372955E+03  0.91187600000E+02 0.  0.
<mgrwt>
<rscale>  0 0.40499747E+04</rscale>
<asrwt>0</asrwt>
<pdfrwt beam="1">  1        1 0.30407547E+00 0.40499747E+04</pdfrwt>
<pdfrwt beam="2">  1       -1 0.31918063E+00 0.40499747E+04</pdfrwt>
<totfact> 0.59703343E-02</totfact>
</mgrwt>
</event>
<event>
13    1  0.3382046E-007  0.4457630E+04  0.7818608E-02  0.7918097E-01
          2   -1    0    0  501    0  0.00000000000E+00  0.00000000000E+00  0.19794828936E+04  0.19794828936E+04  0.00000000000E+00 0. -1.
         -2   -1    0    0    0  501 -0.00000000000E+00 -0.00000000000E+00 -0.25095520079E+04  0.25095520079E+04  0.00000000000E+00 0.  1.
    9900016    2    1    2    0    0 -0.58787931419E+03 -0.97695499865E+03 -0.77519111451E+03  0.23056210674E+04  0.18479513211E+04 0.  0.
        -24    2    3    3    0    0 -0.97573533775E+03 -0.88020374031E+02 -0.89371561513E+03  0.13285411735E+04  0.80541997686E+02 0.  0.
    9900016    2    1    2    0    0  0.58787931419E+03  0.97695499865E+03  0.24512200022E+03  0.21834138340E+04  0.18458515699E+04 0.  0.
         23    2    5    5    0    0  0.14448642970E+03  0.36457138174E+02 -0.61625599181E+03  0.64040506912E+03  0.90231667460E+02 0.  0.
        -15    1    3    3    0    0  0.38785602356E+03 -0.88893462462E+03  0.11852450062E+03  0.97707989393E+03  0.00000000000E+00 0.  1.
        -15    1    6    6    0    0  0.65167968433E+02  0.61669191563E+02 -0.28120542040E+03  0.29517188511E+03  0.00000000000E+00 0. -1.
         15    1    6    6    0    0  0.79318461264E+02 -0.25212053390E+02 -0.33505057142E+03  0.34523318401E+03  0.00000000000E+00 0.  1.
         15    1    4    4    0    0 -0.73210782524E+03 -0.85850333860E+02 -0.70944960707E+03  0.10230693489E+04  0.00000000000E+00 0. -1.
        -16    1    4    4    0    0 -0.24362751251E+03 -0.21700401706E+01 -0.18426600806E+03  0.30547182465E+03  0.00000000000E+00 0.  1.
         16    1    5    5    0    0  0.36888254722E+03  0.57760607140E+03  0.93011853568E+03  0.11553456616E+04  0.00000000000E+00 0. -1.
    9900018    1    5    5    0    0  0.74510337269E+02  0.36289178908E+03 -0.68740543647E+02  0.38766310332E+03  0.91187600000E+02 0.  0.
<mgrwt>
<rscale>  0 0.44576295E+04</rscale>
<asrwt>0</asrwt>
<pdfrwt beam="1">  1        2 0.30453583E+00 0.44576295E+04</pdfrwt>
<pdfrwt beam="2">  1       -2 0.38608493E+00 0.44576295E+04</pdfrwt>
<totfact> 0.47689162E-02</totfact>
</mgrwt>
</event>
<event>
13    1  0.4342809E-007  0.4692310E+04  0.7818608E-02  0.7877808E-01
         -2   -1    0    0    0  501 -0.00000000000E+00  0.00000000000E+00  0.19525286814E+04  0.19525286814E+04  0.00000000000E+00 0. -1.
          2   -1    0    0  501    0  0.00000000000E+00 -0.00000000000E+00 -0.28191359391E+04  0.28191359391E+04  0.00000000000E+00 0.  1.
    9900016    2    1    2    0    0  0.91383146422E+03 -0.72907186012E+03  0.42829542438E+03  0.22253853291E+04  0.18445241039E+04 0.  0.
         24    2    3    3    0    0  0.68551771241E+03  0.19430102563E+03 -0.51731627468E+03  0.88414480596E+03  0.80053027823E+02 0.  0.
    9900016    2    1    2    0    0 -0.91383146422E+03  0.72907186012E+03 -0.12949026821E+04  0.25462792914E+04  0.18547591626E+04 0.  0.
         23    2    5    5    0    0 -0.38480854367E+03  0.27361385963E+03 -0.14457513714E+04  0.15237536655E+04  0.93198958646E+02 0.  0.
        -15    1    6    6    0    0 -0.32962467097E+03  0.26026796060E+03 -0.11950179496E+04  0.12666727024E+04  0.00000000000E+00 0.  1.
        -15    1    4    4    0    0  0.48493248945E+03  0.13175852100E+03 -0.31894109027E+03  0.59518337195E+03  0.00000000000E+00 0.  1.
         15    1    6    6    0    0 -0.55183872702E+02  0.13345899035E+02 -0.25073342180E+03  0.25708096319E+03  0.00000000000E+00 0. -1.
         15    1    3    3    0    0  0.22831375181E+03 -0.92337288574E+03  0.94561169906E+03  0.13412405231E+04  0.00000000000E+00 0. -1.
        -16    1    5    5    0    0 -0.30933282323E+03  0.12572040067E+03  0.41878153488E+03  0.53560282731E+03  0.00000000000E+00 0.  1.
         16    1    4    4    0    0  0.20058522296E+03  0.62542504624E+02 -0.19837518441E+03  0.28896143401E+03  0.00000000000E+00 0. -1.
    9900018    1    5    5    0    0 -0.21969009733E+03  0.32973759982E+03 -0.26793284554E+03  0.48692279851E+03  0.91187600000E+02 0.  0.
<mgrwt>
<rscale>  0 0.46923102E+04</rscale>
<asrwt>0</asrwt>
<pdfrwt beam="1">  1        2 0.43371322E+00 0.46923102E+04</pdfrwt>
<pdfrwt beam="2">  1       -2 0.30038903E+00 0.46923102E+04</pdfrwt>
<totfact> 0.53081416E-02</totfact>
</mgrwt>
</event>
<event>
13    1  0.3382046E-007  0.5997136E+04  0.7818608E-02  0.7690757E-01
          2   -1    0    0  501    0  0.00000000000E+00  0.00000000000E+00  0.39005541999E+04  0.39005541999E+04  0.00000000000E+00 0. -1.
         -2   -1    0    0    0  501 -0.00000000000E+00 -0.00000000000E+00 -0.23051621129E+04  0.23051621129E+04  0.00000000000E+00 0.  1.
    9900016    2    1    2    0    0 -0.22366162122E+03 -0.16344711752E+04 -0.96663910810E+03  0.26541813858E+04  0.18408604293E+04 0.  0.
        -24    2    3    3    0    0 -0.53426119769E+02 -0.88530568727E+03  0.48338578952E+03  0.10132056828E+04  0.79394105215E+02 0.  0.
    9900016    2    1    2    0    0  0.22366162122E+03  0.16344711752E+04  0.25620311951E+04  0.35515349269E+04  0.18242466799E+04 0.  0.
         23    2    5    5    0    0 -0.28578028945E+03  0.14892642912E+03  0.58944532465E+03  0.67812036256E+03  0.92476917292E+02 0.  0.
        -15    1    3    3    0    0 -0.17023550145E+03 -0.74916548791E+03 -0.14500248976E+04  0.16409757030E+04  0.00000000000E+00 0.  1.
        -15    1    6    6    0    0 -0.10535441583E+03  0.33429218197E+02  0.12633826226E+03  0.16786429661E+03  0.00000000000E+00 0.  1.
         15    1    6    6    0    0 -0.18042587362E+03  0.11549721093E+03  0.46310706239E+03  0.51025606595E+03  0.00000000000E+00 0. -1.
         15    1    4    4    0    0 -0.52440866161E+02 -0.41741316053E+03  0.26171923283E+03  0.49546013751E+03  0.00000000000E+00 0. -1.
        -16    1    4    4    0    0 -0.98525360839E+00 -0.46789252675E+03  0.22166655669E+03  0.51774554529E+03  0.00000000000E+00 0.  1.
         16    1    5    5    0    0 -0.11137182764E+03  0.10783531596E+02 -0.16645169758E+03  0.20056454366E+03  0.00000000000E+00 0. -1.
    9900018    1    5    5    0    0  0.62081373831E+03  0.14747612145E+04  0.21390375680E+04  0.26728500207E+04  0.91187600000E+02 0.  0.
<mgrwt>
<rscale>  0 0.59971359E+04</rscale>
<asrwt>0</asrwt>
<pdfrwt beam="1">  1        2 0.60008526E+00 0.59971359E+04</pdfrwt>
<pdfrwt beam="2">  1       -2 0.35464033E+00 0.59971359E+04</pdfrwt>
<totfact> 0.40029632E-03</totfact>
</mgrwt>
</event>
<event>
13    1  0.3382046E-007  0.4127005E+04  0.7818608E-02  0.7979404E-01
          2   -1    0    0  501    0  0.00000000000E+00  0.00000000000E+00  0.21699628813E+04  0.21699628813E+04  0.00000000000E+00 0. -1.
         -2   -1    0    0    0  501 -0.00000000000E+00 -0.00000000000E+00 -0.19622651560E+04  0.19622651560E+04  0.00000000000E+00 0.  1.
    9900016    2    1    2    0    0 -0.47642113292E+03 -0.28584067060E+03  0.84496730072E+03  0.20989757928E+04  0.18393062972E+04 0.  0.
         24    2    3    3    0    0 -0.57750339336E+03  0.13488615066E+03 -0.44019432853E+03  0.74292671748E+03  0.80402846359E+02 0.  0.
    9900016    2    1    2    0    0  0.47642113292E+03  0.28584067060E+03 -0.63726957548E+03  0.20332522444E+04  0.18491403929E+04 0.  0.
         23    2    5    5    0    0 -0.13209417940E+03 -0.47398005540E+03  0.28122399111E+03  0.57398246226E+03  0.90900872662E+02 0.  0.
        -15    1    6    6    0    0 -0.49741566035E+02 -0.91282145585E+02  0.27643523653E+02  0.10756773631E+03  0.00000000000E+00 0.  1.
        -15    1    4    4    0    0 -0.10853429782E+03 -0.44346674406E+01 -0.93328369257E+02  0.14321153790E+03  0.00000000000E+00 0.  1.
         15    1    6    6    0    0 -0.82352613367E+02 -0.38269790982E+03  0.25358046746E+03  0.46641472595E+03  0.00000000000E+00 0. -1.
         15    1    3    3    0    0  0.10108226044E+03 -0.42072682126E+03  0.12851616293E+04  0.13560490754E+04  0.00000000000E+00 0. -1.
        -16    1    5    5    0    0 -0.15159254234E+02  0.40454473936E+03 -0.26141304570E+03  0.48189524753E+03  0.00000000000E+00 0.  1.
         16    1    4    4    0    0 -0.46896909553E+03  0.13932081810E+03 -0.34686595927E+03  0.59971517958E+03  0.00000000000E+00 0. -1.
    9900018    1    5    5    0    0  0.62367456655E+03  0.35527598665E+03 -0.65708052088E+03  0.97737453464E+03  0.91187600000E+02 0.  0.
<mgrwt>
<rscale>  0 0.41270050E+04</rscale>
<asrwt>0</asrwt>
<pdfrwt beam="1">  1        2 0.33384044E+00 0.41270050E+04</pdfrwt>
<pdfrwt beam="2">  1       -2 0.30188695E+00 0.41270050E+04</pdfrwt>
<totfact> 0.12974463E-01</totfact>
</mgrwt>
</event>
<event>
13    1  0.3382046E-007  0.4033080E+04  0.7818608E-02  0.7997906E-01
         -2   -1    0    0    0  501 -0.00000000000E+00  0.00000000000E+00  0.23066216072E+04  0.23066216072E+04  0.00000000000E+00 0.  1.
          2   -1    0    0  501    0  0.00000000000E+00 -0.00000000000E+00 -0.17629387595E+04  0.17629387595E+04  0.00000000000E+00 0. -1.
    9900016    2    1    2    0    0 -0.48335793278E+03 -0.29999172152E+02 -0.38346720961E+03  0.19427719954E+04  0.18419503478E+04 0.  0.
        -24    2    3    3    0    0  0.18775866330E+03 -0.26652006125E+03 -0.96635294480E+03  0.10229375555E+04  0.79227329906E+02 0.  0.
    9900016    2    1    2    0    0  0.48335793278E+03  0.29999172152E+02  0.92715005730E+03  0.21267883713E+04  0.18517793351E+04 0.  0.
         23    2    5    5    0    0  0.47926558052E+03 -0.16379029290E+03  0.12494614699E+04  0.13513236508E+04  0.91645446645E+02 0.  0.
        -15    1    3    3    0    0 -0.67111659608E+03  0.23652088910E+03  0.58288573518E+03  0.91983443988E+03  0.00000000000E+00 0.  1.
        -15    1    6    6    0    0  0.63396815611E+02  0.83419611053E+01  0.17957340450E+03  0.19061834159E+03  0.00000000000E+00 0. -1.
         15    1    6    6    0    0  0.41586876491E+03 -0.17213225400E+03  0.10698880654E+04  0.11607053093E+04  0.00000000000E+00 0.  1.
         15    1    4    4    0    0  0.65361331915E+02 -0.15196162596E+03 -0.41845564025E+03  0.44996617910E+03  0.00000000000E+00 0. -1.
        -16    1    4    4    0    0  0.12239733138E+03 -0.11455843529E+03 -0.54789730455E+03  0.57297137639E+03  0.00000000000E+00 0.  1.
         16    1    5    5    0    0  0.16470991775E+03  0.39475483129E+03 -0.23953055856E+03  0.49024037198E+03  0.00000000000E+00 0. -1.
    9900018    1    5    5    0    0 -0.16061756549E+03 -0.20096536624E+03 -0.82780854020E+02  0.28522434847E+03  0.91187600000E+02 0.  0.
<mgrwt>
<rscale>  0 0.40330795E+04</rscale>
<asrwt>0</asrwt>
<pdfrwt beam="1">  1        2 0.27122135E+00 0.40330795E+04</pdfrwt>
<pdfrwt beam="2">  1       -2 0.35486486E+00 0.40330795E+04</pdfrwt>
<totfact> 0.10315518E-01</totfact>
</mgrwt>
</event>
<event>
13    1  0.3382046E-007  0.4697890E+04  0.7818608E-02  0.7876879E-01
         -1   -1    0    0    0  501 -0.00000000000E+00  0.00000000000E+00  0.28915498311E+04  0.28915498311E+04  0.00000000000E+00 0.  1.
          1   -1    0    0  501    0  0.00000000000E+00 -0.00000000000E+00 -0.19081611393E+04  0.19081611393E+04  0.00000000000E+00 0. -1.
    9900016    2    1    2    0    0 -0.21060095321E+03 -0.10410058252E+04 -0.51236477442E+03  0.21901602100E+04  0.18455996841E+04 0.  0.
         24    2    3    3    0    0  0.81333926194E+03 -0.51311404913E+03 -0.11638834900E+03  0.97199740444E+03  0.80161861498E+02 0.  0.
    9900016    2    1    2    0    0  0.21060095321E+03  0.10410058252E+04  0.14957534663E+04  0.26095507603E+04  0.18559177916E+04 0.  0.
         23    2    5    5    0    0 -0.29630772363E+03  0.13218620681E+03 -0.31752641829E+03  0.46247717161E+03  0.88264645240E+02 0.  0.
        -15    1    6    6    0    0 -0.23214981832E+03  0.83708337372E+02 -0.18888464684E+03  0.31077006565E+03  0.00000000000E+00 0. -1.
        -15    1    4    4    0    0  0.75110816817E+03 -0.47629738012E+03 -0.12867592304E+03  0.89865464321E+03  0.00000000000E+00 0.  1.
         15    1    6    6    0    0 -0.64157905314E+02  0.48477869433E+02 -0.12864177145E+03  0.15170710597E+03  0.00000000000E+00 0.  1.
         15    1    3    3    0    0 -0.10239402151E+04 -0.52789177610E+03 -0.39597642542E+03  0.12181628056E+04  0.00000000000E+00 0. -1.
        -16    1    5    5    0    0  0.74861765155E+02 -0.16429126721E+02  0.16525564224E+02  0.78404683277E+02  0.00000000000E+00 0.  1.
         16    1    4    4    0    0  0.62231093770E+02 -0.36816669004E+02  0.12287574050E+02  0.73342761227E+02  0.00000000000E+00 0. -1.
    9900018    1    5    5    0    0  0.43204691169E+03  0.92524874514E+03  0.17967543203E+04  0.20686689054E+04  0.91187600000E+02 0.  0.
<mgrwt>
<rscale>  0 0.46978902E+04</rscale>
<asrwt>0</asrwt>
<pdfrwt beam="1">  1        1 0.29356325E+00 0.46978902E+04</pdfrwt>
<pdfrwt beam="2">  1       -1 0.44485382E+00 0.46978902E+04</pdfrwt>
<totfact> 0.89433950E-03</totfact>
</mgrwt>
</event>
<event>
13    1  0.3382046E-007  0.4128568E+04  0.7818608E-02  0.7979101E-01
         -2   -1    0    0    0  501 -0.00000000000E+00  0.00000000000E+00  0.22110426928E+04  0.22110426928E+04  0.00000000000E+00 0. -1.
          2   -1    0    0  501    0  0.00000000000E+00 -0.00000000000E+00 -0.19272668296E+04  0.19272668296E+04  0.00000000000E+00 0.  1.
    9900016    2    1    2    0    0  0.22358134032E+01  0.38021927016E+03 -0.73096165650E+03  0.19935758075E+04  0.18153423546E+04 0.  0.
        -24    2    3    3    0    0 -0.32363275238E+03 -0.16738700064E+03  0.49028296241E+03  0.61607757907E+03  0.80110135517E+02 0.  0.
    9900016    2    1    2    0    0 -0.22358134032E+01 -0.38021927016E+03  0.10147375198E+04  0.21447337149E+04  0.18508427220E+04 0.  0.
         23    2    5    5    0    0 -0.45719103373E+03 -0.67631734308E+02 -0.19266221016E+03  0.50960106256E+03  0.94746097165E+02 0.  0.
        -15    1    3    3    0    0  0.32586856578E+03  0.54760627080E+03 -0.12212446189E+04  0.13774982284E+04  0.00000000000E+00 0.  1.
        -15    1    6    6    0    0 -0.37750376183E+03 -0.32929298051E+02 -0.18682663419E+03  0.42248978699E+03  0.00000000000E+00 0.  1.
         15    1    6    6    0    0 -0.79687271900E+02 -0.34702436257E+02 -0.58355759766E+01  0.87111275573E+02  0.00000000000E+00 0. -1.
         15    1    4    4    0    0 -0.75969261532E+02 -0.14250131353E+02  0.14575496837E+03  0.16498153153E+03  0.00000000000E+00 0. -1.
        -16    1    4    4    0    0 -0.24766349084E+03 -0.15313686928E+03  0.34452799404E+03  0.45109604754E+03  0.00000000000E+00 0.  1.
         16    1    5    5    0    0  0.48061209182E+03  0.12326471723E+03  0.20288273746E+03  0.53604438108E+03  0.00000000000E+00 0. -1.
    9900018    1    5    5    0    0 -0.25656871497E+02 -0.43585225309E+03  0.10045169925E+04  0.10990882713E+04  0.91187600000E+02 0.  0.
<mgrwt>
<rscale>  0 0.41285684E+04</rscale>
<asrwt>0</asrwt>
<pdfrwt beam="1">  1        2 0.29650259E+00 0.41285684E+04</pdfrwt>
<pdfrwt beam="2">  1       -2 0.34016041E+00 0.41285684E+04</pdfrwt>
<totfact> 0.10269644E-01</totfact>
</mgrwt>
</event>
<event>
13    1  0.3382046E-007  0.5407231E+04  0.7818608E-02  0.7768585E-01
          1   -1    0    0  501    0  0.00000000000E+00  0.00000000000E+00  0.31555411850E+04  0.31555411850E+04  0.00000000000E+00 0. -1.
         -1   -1    0    0    0  501 -0.00000000000E+00 -0.00000000000E+00 -0.23164129442E+04  0.23164129442E+04  0.00000000000E+00 0.  1.
    9900016    2    1    2    0    0  0.46146435774E+03 -0.15084673761E+04  0.16209604164E+04  0.29210385098E+04  0.18483858164E+04 0.  0.
         24    2    3    3    0    0  0.33716152856E+03 -0.50173898440E+03 -0.35093041337E+03  0.70353841006E+03  0.79963958113E+02 0.  0.
    9900016    2    1    2    0    0 -0.46146435774E+03  0.15084673761E+04 -0.78183217557E+03  0.25509156195E+04  0.18459376395E+04 0.  0.
         23    2    5    5    0    0  0.24636235650E+03  0.23536767866E+03  0.14557218346E+03  0.38153786461E+03  0.91035853762E+02 0.  0.
        -15    1    6    6    0    0  0.58785392777E+02  0.14294269323E+02  0.94035649958E+01  0.61224795419E+02  0.00000000000E+00 0. -1.
        -15    1    4    4    0    0  0.18643286699E+03 -0.30214817802E+03 -0.16286227397E+03  0.39060831488E+03  0.00000000000E+00 0.  1.
         15    1    6    6    0    0  0.18757696372E+03  0.22107340934E+03  0.13616861846E+03  0.32031306919E+03  0.00000000000E+00 0.  1.
         15    1    3    3    0    0  0.12430282917E+03 -0.10067283917E+04  0.19718908297E+04  0.22175000997E+04  0.00000000000E+00 0. -1.
        -16    1    5    5    0    0 -0.13174050936E+03  0.78451581779E+03 -0.11300767323E+04  0.13819891646E+04  0.00000000000E+00 0.  1.
         16    1    4    4    0    0  0.15072866158E+03 -0.19959080638E+03 -0.18806813940E+03  0.31293009518E+03  0.00000000000E+00 0. -1.
    9900018    1    5    5    0    0 -0.57608620488E+03  0.48858387961E+03  0.20267237327E+03  0.78738859031E+03  0.91187600000E+02 0.  0.
<mgrwt>
<rscale>  0 0.54072309E+04</rscale>
<asrwt>0</asrwt>
<pdfrwt beam="1">  1        1 0.48546787E+00 0.54072309E+04</pdfrwt>
<pdfrwt beam="2">  1       -1 0.35637122E+00 0.54072309E+04</pdfrwt>
<totfact> 0.45219955E-03</totfact>
</mgrwt>
</event>
<event>
13    1  0.3382046E-007  0.4195703E+04  0.7818608E-02  0.7966190E-01
          2   -1    0    0  501    0  0.00000000000E+00  0.00000000000E+00  0.22839603579E+04  0.22839603579E+04  0.00000000000E+00 0. -1.
         -2   -1    0    0    0  501 -0.00000000000E+00 -0.00000000000E+00 -0.19269076890E+04  0.19269076890E+04  0.00000000000E+00 0.  1.
    9900016    2    1    2    0    0 -0.54647493766E+02  0.88467760336E+03  0.67918088750E+03  0.21463875262E+04  0.18330444414E+04 0.  0.
         24    2    3    3    0    0  0.64744407028E+03  0.68517487710E+02 -0.27191884198E+03  0.70984981556E+03  0.77900152491E+02 0.  0.
    9900016    2    1    2    0    0  0.54647493766E+02 -0.88467760336E+03 -0.32212821861E+03  0.20644805206E+04  0.18364837109E+04 0.  0.
         23    2    5    5    0    0  0.27154068847E+03  0.35938419419E+03  0.23756195814E+03  0.51687122990E+03  0.88480731311E+02 0.  0.
        -15    1    4    4    0    0  0.35508143923E+03  0.42538639654E+02 -0.10753594258E+03  0.37343854018E+03  0.00000000000E+00 0.  1.
        -15    1    6    6    0    0  0.28529474073E+02  0.97794670836E+02  0.57746137294E+02  0.11709972206E+03  0.00000000000E+00 0. -1.
         15    1    6    6    0    0  0.24301121439E+03  0.26158952336E+03  0.17981582084E+03  0.39977150783E+03  0.00000000000E+00 0.  1.
         15    1    3    3    0    0 -0.70209156405E+03  0.81616011565E+03  0.95109972949E+03  0.14365377106E+04  0.00000000000E+00 0. -1.
        -16    1    5    5    0    0 -0.43093708463E+03 -0.65574166803E+03 -0.16467260926E+03  0.80176117039E+03  0.00000000000E+00 0.  1.
         16    1    4    4    0    0  0.29236263105E+03  0.25978848056E+02 -0.16438289941E+03  0.33641127537E+03  0.00000000000E+00 0. -1.
    9900018    1    5    5    0    0  0.21404388993E+03 -0.58832012952E+03 -0.39501756749E+03  0.74584812035E+03  0.91187600000E+02 0.  0.
<mgrwt>
<rscale>  0 0.41957029E+04</rscale>
<asrwt>0</asrwt>
<pdfrwt beam="1">  1        2 0.35137852E+00 0.41957029E+04</pdfrwt>
<pdfrwt beam="2">  1       -2 0.29644734E+00 0.41957029E+04</pdfrwt>
<totfact> 0.12013442E-01</totfact>
</mgrwt>
</event>
<event>
13    1  0.3382046E-007  0.5195221E+04  0.7818608E-02  0.7799078E-01
          2   -1    0    0  501    0  0.00000000000E+00  0.00000000000E+00  0.45754832359E+04  0.45754832359E+04  0.00000000000E+00 0. -1.
         -2   -1    0    0    0  501 -0.00000000000E+00 -0.00000000000E+00 -0.14747252048E+04  0.14747252048E+04  0.00000000000E+00 0.  1.
    9900016    2    1    2    0    0 -0.15605385102E+03 -0.34845681687E+03 -0.53473982219E+03  0.19545734780E+04  0.18408247733E+04 0.  0.
        -24    2    3    3    0    0 -0.60660647465E+03 -0.25748366481E+03  0.49433986349E+03  0.82750702900E+03  0.78273428950E+02 0.  0.
    9900016    2    1    2    0    0  0.15605385102E+03  0.34845681687E+03  0.36354978533E+04  0.40956349627E+04  0.18470533691E+04 0.  0.
         23    2    5    5    0    0 -0.10275371657E+03 -0.16038793123E+03 -0.10904927518E+03  0.23729486248E+03  0.90191421918E+02 0.  0.
        -15    1    6    6    0    0 -0.11274446904E+03 -0.10367503056E+03 -0.78856954270E+02  0.17227375452E+03  0.00000000000E+00 0.  1.
        -15    1    3    3    0    0  0.45055262362E+03 -0.90973152061E+02 -0.10290796857E+04  0.11270664490E+04  0.00000000000E+00 0.  1.
         15    1    4    4    0    0 -0.20414043574E+03 -0.12246246408E+03  0.20023619265E+03  0.31107057955E+03  0.00000000000E+00 0. -1.
         15    1    6    6    0    0  0.99907524706E+01 -0.56712900676E+02 -0.30192320914E+02  0.65021107958E+02  0.00000000000E+00 0. -1.
        -16    1    4    4    0    0 -0.40246603891E+03 -0.13502120072E+03  0.29410367084E+03  0.51643644945E+03  0.00000000000E+00 0.  1.
         16    1    5    5    0    0 -0.21308365956E+03  0.38484990351E+02  0.50061763199E+03  0.54543904693E+03  0.00000000000E+00 0. -1.
    9900018    1    5    5    0    0  0.47189122716E+03  0.47035975775E+03  0.32439294965E+04  0.33129010533E+04  0.91187600000E+02 0.  0.
<mgrwt>
<rscale>  0 0.51952211E+04</rscale>
<asrwt>0</asrwt>
<pdfrwt beam="1">  1        2 0.70392049E+00 0.51952211E+04</pdfrwt>
<pdfrwt beam="2">  1       -2 0.22688080E+00 0.51952211E+04</pdfrwt>
<totfact> 0.65624280E-03</totfact>
</mgrwt>
</event>
<event>
13    1  0.3382046E-007  0.3994594E+04  0.7818608E-02  0.8005638E-01
          1   -1    0    0  501    0  0.00000000000E+00  0.00000000000E+00  0.20151832187E+04  0.20151832187E+04  0.00000000000E+00 0. -1.
         -1   -1    0    0    0  501 -0.00000000000E+00 -0.00000000000E+00 -0.19795690587E+04  0.19795690587E+04  0.00000000000E+00 0.  1.
    9900016    2    1    2    0    0 -0.41961291134E+03  0.11225394221E+02  0.64194576629E+03  0.20021629807E+04  0.18494218636E+04 0.  0.
        -24    2    3    3    0    0  0.19902351610E+03  0.10559350204E+03  0.11633290030E+04  0.11876343755E+04  0.79879240425E+02 0.  0.
    9900016    2    1    2    0    0  0.41961291134E+03 -0.11225394221E+02 -0.60633160624E+03  0.19925892967E+04  0.18511005061E+04 0.  0.
         23    2    5    5    0    0  0.33581609620E+03 -0.37759125259E+03 -0.11522845685E+04  0.12614240855E+04  0.89907686376E+02 0.  0.
        -15    1    6    6    0    0  0.28030010497E+03 -0.32165988671E+03 -0.88015406428E+03  0.97811267675E+03  0.00000000000E+00 0. -1.
        -15    1    3    3    0    0 -0.61863642744E+03 -0.94368107818E+02 -0.52138323672E+03  0.81452860519E+03  0.00000000000E+00 0.  1.
         15    1    4    4    0    0  0.71308435198E+02  0.80587459362E+02  0.46567888823E+03  0.47794984934E+03  0.00000000000E+00 0. -1.
         15    1    6    6    0    0  0.55515991229E+02 -0.55931365883E+02 -0.27213050427E+03  0.28331140874E+03  0.00000000000E+00 0.  1.
        -16    1    4    4    0    0  0.12771508090E+03  0.25006042677E+02  0.69765011479E+03  0.70968452620E+03  0.00000000000E+00 0.  1.
         16    1    5    5    0    0  0.44259153072E+02  0.38159076896E+03  0.45607969208E+03  0.59630451375E+03  0.00000000000E+00 0. -1.
    9900018    1    5    5    0    0  0.39537662067E+02 -0.15224910586E+02  0.89873270222E+02  0.13486069746E+03  0.91187600000E+02 0.  0.
<mgrwt>
<rscale>  0 0.39945935E+04</rscale>
<asrwt>0</asrwt>
<pdfrwt beam="1">  1        1 0.31002819E+00 0.39945935E+04</pdfrwt>
<pdfrwt beam="2">  1       -1 0.30454908E+00 0.39945935E+04</pdfrwt>
<totfact> 0.70301485E-02</totfact>
</mgrwt>
</event>
<event>
13    1  0.3382046E-007  0.5199118E+04  0.7818608E-02  0.7798505E-01
          2   -1    0    0  501    0  0.00000000000E+00  0.00000000000E+00  0.16501087477E+04  0.16501087477E+04  0.00000000000E+00 0. -1.
         -2   -1    0    0    0  501 -0.00000000000E+00 -0.00000000000E+00 -0.40953096947E+04  0.40953096947E+04  0.00000000000E+00 0.  1.
    9900016    2    1    2    0    0  0.10355656172E+04 -0.44026288878E+03 -0.28272813258E+04  0.35525370018E+04  0.18332408176E+04 0.  0.
        -24    2    3    3    0    0  0.51677598852E+03  0.40127232777E+03 -0.11954224312E+03  0.66997301479E+03  0.80601422552E+02 0.  0.
    9900016    2    1    2    0    0 -0.10355656172E+04  0.44026288878E+03  0.38208037883E+03  0.21928814406E+04  0.18429639275E+04 0.  0.
         23    2    5    5    0    0 -0.19713044915E+03 -0.59634678216E+02 -0.56314843195E+03  0.60619823737E+03  0.89013694161E+02 0.  0.
        -15    1    6    6    0    0 -0.19570089310E+03 -0.74516193572E+02 -0.52428265115E+03  0.56455628680E+03  0.00000000000E+00 0.  1.
        -15    1    3    3    0    0  0.51878962864E+03 -0.84153521655E+03 -0.27077390826E+04  0.28825639870E+04  0.00000000000E+00 0.  1.
         15    1    4    4    0    0  0.35089101527E+02  0.56711637065E+02 -0.18200258302E+02  0.69128172454E+02  0.00000000000E+00 0. -1.
         15    1    6    6    0    0 -0.14295560448E+01  0.14881515356E+02 -0.38865780800E+02  0.41641950567E+02  0.00000000000E+00 0. -1.
        -16    1    4    4    0    0  0.48168688699E+03  0.34456069070E+03 -0.10134198482E+03  0.60084484234E+03  0.00000000000E+00 0.  1.
         16    1    5    5    0    0 -0.30839310096E+03  0.26471675663E+03  0.91232820224E+03  0.99876124001E+03  0.00000000000E+00 0. -1.
    9900018    1    5    5    0    0 -0.53004206706E+03  0.23518081037E+03  0.32900608550E+02  0.58792196324E+03  0.91187600000E+02 0.  0.
<mgrwt>
<rscale>  0 0.51991178E+04</rscale>
<asrwt>0</asrwt>
<pdfrwt beam="1">  1        2 0.25386288E+00 0.51991178E+04</pdfrwt>
<pdfrwt beam="2">  1       -2 0.63004764E+00 0.51991178E+04</pdfrwt>
<totfact> 0.29826327E-03</totfact>
</mgrwt>
</event>
<event>
13    1  0.3382046E-007  0.5538667E+04  0.7818608E-02  0.7750391E-01
         -2   -1    0    0    0  501 -0.00000000000E+00  0.00000000000E+00  0.18897196790E+04  0.18897196790E+04  0.00000000000E+00 0.  1.
          2   -1    0    0  501    0  0.00000000000E+00 -0.00000000000E+00 -0.40583844821E+04  0.40583844821E+04  0.00000000000E+00 0. -1.
    9900016    2    1    2    0    0 -0.88802615456E+03 -0.77641018978E+03  0.74016100508E+03  0.23121397512E+04  0.18457379775E+04 0.  0.
        -24    2    3    3    0    0  0.42792161065E+03  0.12909121090E+03 -0.15560420635E+03  0.48073411030E+03  0.84327754493E+02 0.  0.
    9900016    2    1    2    0    0  0.88802615456E+03  0.77641018978E+03 -0.29088258082E+04  0.36359644100E+04  0.18350930152E+04 0.  0.
         23    2    5    5    0    0 -0.51007965146E+02 -0.88275066609E+02  0.17151637151E+03  0.21961019398E+03  0.91741330441E+02 0.  0.
        -15    1    3    3    0    0 -0.13159477652E+04 -0.90550140068E+03  0.89576521142E+03  0.18314056409E+04  0.00000000000E+00 0.  1.
        -15    1    6    6    0    0 -0.36396011541E+02  0.83309111388E+01  0.31363201890E+02  0.48761913101E+02  0.00000000000E+00 0.  1.
         15    1    6    6    0    0 -0.14611953605E+02 -0.96605977748E+02  0.14015316962E+03  0.17084828088E+03  0.00000000000E+00 0. -1.
         15    1    4    4    0    0  0.12134934534E+03  0.66446462470E-01 -0.55032887600E+02  0.13324521285E+03  0.00000000000E+00 0. -1.
        -16    1    4    4    0    0  0.30657226531E+03  0.12902476444E+03 -0.10057131875E+03  0.34748889745E+03  0.00000000000E+00 0.  1.
         16    1    5    5    0    0  0.42301032668E+03  0.68458750726E+02 -0.46309963600E+03  0.63094025858E+03  0.00000000000E+00 0. -1.
    9900018    1    5    5    0    0  0.51602379302E+03  0.79622650567E+03 -0.26172425437E+04  0.27854139574E+04  0.91187600000E+02 0.  0.
<mgrwt>
<rscale>  0 0.55386674E+04</rscale>
<asrwt>0</asrwt>
<pdfrwt beam="1">  1        2 0.62436684E+00 0.55386674E+04</pdfrwt>
<pdfrwt beam="2">  1       -2 0.29072611E+00 0.55386674E+04</pdfrwt>
<totfact> 0.77008935E-03</totfact>
</mgrwt>
</event>
<event>
13    1  0.3382046E-007  0.4190513E+04  0.7818608E-02  0.7967179E-01
         -2   -1    0    0    0  501 -0.00000000000E+00  0.00000000000E+00  0.23829669878E+04  0.23829669878E+04  0.00000000000E+00 0. -1.
          2   -1    0    0  501    0  0.00000000000E+00 -0.00000000000E+00 -0.18422829395E+04  0.18422829395E+04  0.00000000000E+00 0.  1.
    9900016    2    1    2    0    0 -0.19853164325E+03 -0.11205197569E+03 -0.71351296643E+03  0.19900865311E+04  0.18437389157E+04 0.  0.
         24    2    3    3    0    0 -0.98936046984E+03 -0.27031030169E+03 -0.55101407432E+03  0.11673704071E+04  0.85060912024E+02 0.  0.
    9900016    2    1    2    0    0  0.19853164325E+03  0.11205197569E+03  0.12541970147E+04  0.22351633962E+04  0.18360214589E+04 0.  0.
         23    2    5    5    0    0  0.22672480026E+03  0.24524842380E+03  0.41702483645E+03  0.54154420884E+03  0.88371327268E+02 0.  0.
        -15    1    4    4    0    0 -0.62428729579E+03 -0.21237856734E+03 -0.36003398381E+03  0.75130802807E+03  0.00000000000E+00 0.  1.
        -15    1    6    6    0    0  0.11297368956E+03  0.16392310686E+03  0.29537093055E+03  0.35619913828E+03  0.00000000000E+00 0.  1.
         15    1    6    6    0    0  0.11375111070E+03  0.81325316933E+02  0.12165390590E+03  0.18534507056E+03  0.00000000000E+00 0. -1.
         15    1    3    3    0    0  0.79082882659E+03  0.15825832600E+03 -0.16249889211E+03  0.82271612398E+03  0.00000000000E+00 0. -1.
        -16    1    5    5    0    0  0.41814134833E+03 -0.41057116650E+03 -0.11972695462E+03  0.59811822712E+03  0.00000000000E+00 0.  1.
         16    1    4    4    0    0 -0.36507317406E+03 -0.57931734348E+02 -0.19098009050E+03  0.41606237901E+03  0.00000000000E+00 0. -1.
    9900018    1    5    5    0    0 -0.44633450534E+03  0.27737471840E+03  0.95689913289E+03  0.10955009603E+04  0.91187600000E+02 0.  0.
<mgrwt>
<rscale>  0 0.41905128E+04</rscale>
<asrwt>0</asrwt>
<pdfrwt beam="1">  1        2 0.28342815E+00 0.41905128E+04</pdfrwt>
<pdfrwt beam="2">  1       -2 0.36661030E+00 0.41905128E+04</pdfrwt>
<totfact> 0.77487541E-02</totfact>
</mgrwt>
</event>
<event>
13    1  0.3382046E-007  0.4142581E+04  0.7818608E-02  0.7976385E-01
         -1   -1    0    0    0  501 -0.00000000000E+00  0.00000000000E+00  0.13350060997E+04  0.13350060997E+04  0.00000000000E+00 0.  1.
          1   -1    0    0  501    0  0.00000000000E+00 -0.00000000000E+00 -0.32136515780E+04  0.32136515780E+04  0.00000000000E+00 0. -1.
    9900016    2    1    2    0    0  0.13672590636E+02  0.60054851271E+03 -0.15340104088E+03  0.19473473892E+04  0.18460185587E+04 0.  0.
        -24    2    3    3    0    0  0.42066446205E+03 -0.55652481679E+03 -0.16276632516E+03  0.72074689119E+03  0.79402413181E+02 0.  0.
    9900016    2    1    2    0    0 -0.13672590636E+02 -0.60054851271E+03 -0.17252444374E+04  0.26013102885E+04  0.18518913015E+04 0.  0.
         23    2    5    5    0    0 -0.10478511938E+02  0.35969994767E+03 -0.50616452037E+03  0.62735995708E+03  0.88792693925E+02 0.  0.
        -15    1    6    6    0    0  0.17016847820E+02  0.21380603159E+03 -0.35981829350E+03  0.41889353849E+03  0.00000000000E+00 0.  1.
        -15    1    3    3    0    0 -0.40699187141E+03  0.11570733295E+04  0.93652842822E+01  0.12266004980E+04  0.00000000000E+00 0.  1.
         15    1    4    4    0    0  0.18815502235E+03 -0.19825468755E+03 -0.88034457918E+02  0.28715379042E+03  0.00000000000E+00 0. -1.
         15    1    6    6    0    0 -0.27495359758E+02  0.14589391608E+03 -0.14634622687E+03  0.20846641858E+03  0.00000000000E+00 0. -1.
        -16    1    4    4    0    0  0.23250943970E+03 -0.35827012923E+03 -0.74731867240E+02  0.43359310077E+03  0.00000000000E+00 0.  1.
         16    1    5    5    0    0 -0.38726513856E+03 -0.31523131394E+03 -0.11004975752E+04  0.12084866494E+04  0.00000000000E+00 0. -1.
    9900018    1    5    5    0    0  0.38407105987E+03 -0.64501714644E+03 -0.11858234181E+03  0.76546368197E+03  0.91187600000E+02 0.  0.
<mgrwt>
<rscale>  0 0.41425811E+04</rscale>
<asrwt>0</asrwt>
<pdfrwt beam="1">  1        1 0.49440793E+00 0.41425811E+04</pdfrwt>
<pdfrwt beam="2">  1       -1 0.20538555E+00 0.41425811E+04</pdfrwt>
<totfact> 0.44351410E-02</totfact>
</mgrwt>
</event>
<event>
13    1  0.3382046E-007  0.4754405E+04  0.7818608E-02  0.7867551E-01
          1   -1    0    0  501    0  0.00000000000E+00  0.00000000000E+00  0.32554484582E+04  0.32554484582E+04  0.00000000000E+00 0. -1.
         -1   -1    0    0    0  501 -0.00000000000E+00 -0.00000000000E+00 -0.17358876231E+04  0.17358876231E+04  0.00000000000E+00 0.  1.
    9900016    2    1    2    0    0  0.92062940485E+01  0.12469436139E+04 -0.10699989100E+03  0.22319094565E+04  0.18479766539E+04 0.  0.
        -24    2    3    3    0    0 -0.36029379413E+03  0.62256111390E+03  0.79459738872E+03  0.10746448039E+04  0.77990292572E+02 0.  0.
    9900016    2    1    2    0    0 -0.92062940485E+01 -0.12469436139E+04  0.16265607260E+04  0.27594266248E+04  0.18476423816E+04 0.  0.
         23    2    5    5    0    0  0.13496484886E+03  0.24217944123E+03  0.31103652972E+02  0.29400718393E+03  0.92770656964E+02 0.  0.
        -15    1    6    6    0    0  0.78638873229E+02  0.83269863792E+02  0.48775250746E+02  0.12448681731E+03  0.00000000000E+00 0. -1.
        -15    1    3    3    0    0  0.36950008818E+03  0.62438249995E+03 -0.90159727972E+03  0.11572646526E+04  0.00000000000E+00 0.  1.
         15    1    4    4    0    0 -0.25912906191E+03  0.50066808071E+03  0.59219420576E+03  0.81762483762E+03  0.00000000000E+00 0. -1.
         15    1    6    6    0    0  0.56325975635E+02  0.15890957743E+03 -0.17671597774E+02  0.16952036662E+03  0.00000000000E+00 0.  1.
        -16    1    4    4    0    0 -0.10116473222E+03  0.12189303319E+03  0.20240318296E+03  0.25701996627E+03  0.00000000000E+00 0.  1.
         16    1    5    5    0    0 -0.35902999444E+02 -0.32306206670E+03 -0.15282489326E+03  0.35918459364E+03  0.00000000000E+00 0. -1.
    9900018    1    5    5    0    0 -0.10826814347E+03 -0.11660609884E+04  0.17482819663E+04  0.21062348472E+04  0.91187600000E+02 0.  0.
<mgrwt>
<rscale>  0 0.47544054E+04</rscale>
<asrwt>0</asrwt>
<pdfrwt beam="1">  1        1 0.50083822E+00 0.47544054E+04</pdfrwt>
<pdfrwt beam="2">  1       -1 0.26705963E+00 0.47544054E+04</pdfrwt>
<totfact> 0.15334967E-02</totfact>
</mgrwt>
</event>
<event>
13    1  0.3382046E-007  0.4659522E+04  0.7818608E-02  0.7883289E-01
          2   -1    0    0  501    0  0.00000000000E+00  0.00000000000E+00  0.30406375530E+04  0.30406375530E+04  0.00000000000E+00 0. -1.
         -2   -1    0    0    0  501 -0.00000000000E+00 -0.00000000000E+00 -0.17850815186E+04  0.17850815186E+04  0.00000000000E+00 0.  1.
    9900016    2    1    2    0    0  0.12591886611E+04  0.53021506500E+03  0.24719184726E+03  0.23084408860E+04  0.18442102417E+04 0.  0.
        -24    2    3    3    0    0  0.47227625024E+02 -0.57125299685E+03  0.33555820720E+03  0.66835245613E+03  0.74399329419E+02 0.  0.
    9900016    2    1    2    0    0 -0.12591886611E+04 -0.53021506500E+03  0.10083641872E+04  0.25172781856E+04  0.18582806651E+04 0.  0.
         23    2    5    5    0    0  0.16910770978E+03 -0.37602344201E+03  0.18720474441E+02  0.42305242591E+03  0.92907763166E+02 0.  0.
        -15    1    6    6    0    0  0.93382764874E+02 -0.15148614918E+03 -0.31771670595E+02  0.18077011153E+03  0.00000000000E+00 0.  1.
        -15    1    3    3    0    0  0.12119610361E+04  0.11014680619E+04 -0.88366359944E+02  0.16400884299E+04  0.00000000000E+00 0.  1.
         15    1    4    4    0    0 -0.81673654922E+01 -0.82841457103E+02  0.74871537239E+02  0.11196052859E+03  0.00000000000E+00 0. -1.
         15    1    6    6    0    0  0.75724944906E+02 -0.22453729283E+03  0.50492145036E+02  0.24228231438E+03  0.00000000000E+00 0. -1.
        -16    1    4    4    0    0  0.55394990516E+02 -0.48841153975E+03  0.26068666996E+03  0.55639192754E+03  0.00000000000E+00 0.  1.
         16    1    5    5    0    0 -0.12623556409E+04  0.33726951340E+03  0.59301179453E+03  0.14349060866E+04  0.00000000000E+00 0. -1.
    9900018    1    5    5    0    0 -0.16594072994E+03 -0.49146113640E+03  0.39663191824E+03  0.65931967315E+03  0.91187600000E+02 0.  0.
<mgrwt>
<rscale>  0 0.46595218E+04</rscale>
<asrwt>0</asrwt>
<pdfrwt beam="1">  1        2 0.46779039E+00 0.46595218E+04</pdfrwt>
<pdfrwt beam="2">  1       -2 0.27462793E+00 0.46595218E+04</pdfrwt>
<totfact> 0.55729001E-02</totfact>
</mgrwt>
</event>
<event>
13    1  0.3382046E-007  0.4033441E+04  0.7818608E-02  0.7997834E-01
          1   -1    0    0  501    0  0.00000000000E+00  0.00000000000E+00  0.35628577657E+04  0.35628577657E+04  0.00000000000E+00 0. -1.
         -1   -1    0    0    0  501 -0.00000000000E+00 -0.00000000000E+00 -0.11415446229E+04  0.11415446229E+04  0.00000000000E+00 0.  1.
    9900016    2    1    2    0    0  0.29536866452E+03  0.30243331865E+03  0.42526258704E+03  0.19464590164E+04  0.18517953111E+04 0.  0.
        -24    2    3    3    0    0 -0.78306801879E+03  0.82785065718E+02  0.26318491291E+03  0.83401117159E+03  0.79116665689E+02 0.  0.
    9900016    2    1    2    0    0 -0.29536866452E+03 -0.30243331865E+03  0.19960505558E+04  0.27579433723E+04  0.18556199135E+04 0.  0.
         23    2    5    5    0    0  0.51545519594E+03 -0.29664949198E+03  0.32511211900E+03  0.68410852979E+03  0.92798763484E+02 0.  0.
        -15    1    3    3    0    0  0.10784366833E+04  0.21964825294E+03  0.16207767413E+03  0.11124478448E+04  0.00000000000E+00 0.  1.
        -15    1    6    6    0    0  0.19598221787E+02 -0.34044774299E+02  0.34157062585E+02  0.52056141604E+02  0.00000000000E+00 0.  1.
         15    1    6    6    0    0  0.49585697415E+03 -0.26260471768E+03  0.29095505641E+03  0.63205238819E+03  0.00000000000E+00 0. -1.
         15    1    4    4    0    0 -0.58645995134E+03  0.55342275554E+02  0.16064108891E+03  0.61057645011E+03  0.00000000000E+00 0. -1.
        -16    1    4    4    0    0 -0.19660806746E+03  0.27442790164E+02  0.10254382400E+03  0.22343472148E+03  0.00000000000E+00 0.  1.
         16    1    5    5    0    0 -0.40647550573E+03 -0.42590604431E+03  0.54345262835E+03  0.80122347357E+03  0.00000000000E+00 0. -1.
    9900018    1    5    5    0    0 -0.40434835473E+03  0.42012221764E+03  0.11274858084E+04  0.12726113689E+04  0.91187600000E+02 0.  0.
<mgrwt>
<rscale>  0 0.40334408E+04</rscale>
<asrwt>0</asrwt>
<pdfrwt beam="1">  1        1 0.54813196E+00 0.40334408E+04</pdfrwt>
<pdfrwt beam="2">  1       -1 0.17562225E+00 0.40334408E+04</pdfrwt>
<totfact> 0.38853610E-02</totfact>
</mgrwt>
</event>
<event>
13    1  0.3382046E-007  0.5358283E+04  0.7818608E-02  0.7775496E-01
         -1   -1    0    0    0  501 -0.00000000000E+00  0.00000000000E+00  0.14924198952E+04  0.14924198952E+04  0.00000000000E+00 0.  1.
          1   -1    0    0  501    0  0.00000000000E+00 -0.00000000000E+00 -0.48095036605E+04  0.48095036605E+04  0.00000000000E+00 0. -1.
    9900016    2    1    2    0    0  0.11706593664E+04  0.76545783182E+03 -0.70029025907E+02  0.23151864107E+04  0.18435875373E+04 0.  0.
        -24    2    3    3    0    0 -0.42320928605E+02  0.97331017220E+03 -0.37592213944E+03  0.10470797952E+04  0.77038239183E+02 0.  0.
    9900016    2    1    2    0    0 -0.11706593664E+04 -0.76545783182E+03 -0.32470547394E+04  0.39867371450E+04  0.18423733438E+04 0.  0.
         23    2    5    5    0    0 -0.17124870936E+03  0.33602045103E+03 -0.54251459486E+01  0.38785323569E+03  0.90359483468E+02 0.  0.
        -15    1    6    6    0    0 -0.13228765975E+03  0.19975185228E+03 -0.37602289994E+02  0.24251754498E+03  0.00000000000E+00 0.  1.
        -15    1    3    3    0    0  0.12129802950E+04 -0.20785234038E+03  0.30589311353E+03  0.12681066155E+04  0.00000000000E+00 0.  1.
         15    1    4    4    0    0  0.12473346826E+01  0.26301211769E+03 -0.67854367943E+02  0.27162684909E+03  0.00000000000E+00 0. -1.
         15    1    6    6    0    0 -0.38961049609E+02  0.13626859875E+03  0.32177144046E+02  0.14533569070E+03  0.00000000000E+00 0. -1.
        -16    1    4    4    0    0 -0.43568263288E+02  0.71029805451E+03 -0.30806777150E+03  0.77545294611E+03  0.00000000000E+00 0.  1.
         16    1    5    5    0    0 -0.23049960625E+03 -0.56539842197E+03 -0.14873722287E+04  0.16078188924E+04  0.00000000000E+00 0. -1.
    9900018    1    5    5    0    0 -0.76891105079E+03 -0.53607986088E+03 -0.17542573648E+04  0.19910650169E+04  0.91187600000E+02 0.  0.
<mgrwt>
<rscale>  0 0.53582829E+04</rscale>
<asrwt>0</asrwt>
<pdfrwt beam="1">  1        1 0.73992365E+00 0.53582829E+04</pdfrwt>
<pdfrwt beam="2">  1       -1 0.22960306E+00 0.53582829E+04</pdfrwt>
<totfact> 0.97302050E-04</totfact>
</mgrwt>
</event>
<event>
13    1  0.3382046E-007  0.4573915E+04  0.7818608E-02  0.7897823E-01
          1   -1    0    0  501    0  0.00000000000E+00  0.00000000000E+00  0.37168355453E+04  0.37168355453E+04  0.00000000000E+00 0. -1.
         -1   -1    0    0    0  501 -0.00000000000E+00 -0.00000000000E+00 -0.14071579854E+04  0.14071579854E+04  0.00000000000E+00 0.  1.
    9900016    2    1    2    0    0  0.10109272125E+03  0.12193050436E+04  0.18157133586E+04  0.28584359049E+04  0.18376387822E+04 0.  0.
         24    2    3    3    0    0 -0.27587791368E+03 -0.18187462370E+03 -0.18506697549E+03  0.38689119257E+03  0.79044338602E+02 0.  0.
    9900016    2    1    2    0    0 -0.10109272125E+03 -0.12193050436E+04  0.49396420130E+03  0.22655576259E+04  0.18416911240E+04 0.  0.
         23    2    5    5    0    0 -0.27242514179E+03  0.18430129016E+03 -0.13828080561E+03  0.36843275214E+03  0.91862332938E+02 0.  0.
        -15    1    4    4    0    0 -0.27125480972E+03 -0.18500258135E+03 -0.16777139653E+03  0.36871719298E+03  0.00000000000E+00 0.  1.
        -15    1    6    6    0    0 -0.66365719922E+02  0.39452961110E+02 -0.77356847536E+02  0.10929330621E+03  0.00000000000E+00 0. -1.
         15    1    6    6    0    0 -0.20605942186E+03  0.14484832905E+03 -0.60923958077E+02  0.25913944593E+03  0.00000000000E+00 0.  1.
         15    1    3    3    0    0  0.37697063494E+03  0.14011796673E+04  0.20007803341E+04  0.24715447123E+04  0.00000000000E+00 0. -1.
        -16    1    5    5    0    0 -0.39431761619E+03 -0.80007228622E+03  0.57864445615E+03  0.10632175000E+04  0.00000000000E+00 0.  1.
         16    1    4    4    0    0 -0.46231039629E+01  0.31279576577E+01 -0.17295578965E+02  0.18173999590E+02  0.00000000000E+00 0. -1.
    9900018    1    5    5    0    0  0.56565003673E+03 -0.60353404753E+03  0.53600550768E+02  0.83390737376E+03  0.91187600000E+02 0.  0.
<mgrwt>
<rscale>  0 0.45739151E+04</rscale>
<asrwt>0</asrwt>
<pdfrwt beam="1">  1        1 0.57182085E+00 0.45739151E+04</pdfrwt>
<pdfrwt beam="2">  1       -1 0.21648585E+00 0.45739151E+04</pdfrwt>
<totfact> 0.14474450E-02</totfact>
</mgrwt>
</event>
<event>
13    1  0.3382046E-007  0.4883365E+04  0.7818608E-02  0.7846755E-01
          1   -1    0    0  501    0  0.00000000000E+00  0.00000000000E+00  0.22834012533E+04  0.22834012533E+04  0.00000000000E+00 0. -1.
         -1   -1    0    0    0  501 -0.00000000000E+00 -0.00000000000E+00 -0.26109354520E+04  0.26109354520E+04  0.00000000000E+00 0.  1.
    9900016    2    1    2    0    0  0.14076782043E+03 -0.15661896526E+04  0.10169897974E+03  0.24179750629E+04  0.18339834010E+04 0.  0.
         24    2    3    3    0    0  0.74316727700E+03 -0.27590079953E+03  0.49845021198E+03  0.93975249172E+03  0.79140881208E+02 0.  0.
    9900016    2    1    2    0    0 -0.14076782043E+03  0.15661896526E+04 -0.42923317838E+03  0.24763616424E+04  0.18642318137E+04 0.  0.
         23    2    5    5    0    0  0.30085264904E+03 -0.28567866332E+03 -0.25163835752E+03  0.49354482312E+03  0.90222027981E+02 0.  0.
        -15    1    4    4    0    0  0.87714847404E+02 -0.44469808637E+02  0.91230000784E+02  0.13414310038E+03  0.00000000000E+00 0.  1.
        -15    1    6    6    0    0  0.17574271035E+03 -0.17345564784E+03 -0.97433955504E+02  0.26545383345E+03  0.00000000000E+00 0.  1.
         15    1    6    6    0    0  0.12510993869E+03 -0.11222301549E+03 -0.15420440202E+03  0.22809098966E+03  0.00000000000E+00 0. -1.
         15    1    3    3    0    0 -0.60239945657E+03 -0.12902888531E+04 -0.39675123224E+03  0.14782225712E+04  0.00000000000E+00 0. -1.
        -16    1    5    5    0    0 -0.39262015991E+03  0.74438064650E+03 -0.21943352649E+03  0.86971501620E+03  0.00000000000E+00 0.  1.
         16    1    4    4    0    0  0.65545242960E+03 -0.23143099090E+03  0.40722021119E+03  0.80560939134E+03  0.00000000000E+00 0. -1.
    9900018    1    5    5    0    0 -0.49000309559E+02  0.11074876694E+04  0.41838705635E+02  0.11131018031E+04  0.91187600000E+02 0.  0.
<mgrwt>
<rscale>  0 0.48833649E+04</rscale>
<asrwt>0</asrwt>
<pdfrwt beam="1">  1        1 0.35129250E+00 0.48833649E+04</pdfrwt>
<pdfrwt beam="2">  1       -1 0.40168238E+00 0.48833649E+04</pdfrwt>
<totfact> 0.97016984E-03</totfact>
</mgrwt>
</event>
<event>
13    1  0.3382046E-007  0.4953087E+04  0.7818608E-02  0.7835785E-01
         -2   -1    0    0    0  501 -0.00000000000E+00  0.00000000000E+00  0.23694447650E+04  0.23694447650E+04  0.00000000000E+00 0.  1.
          2   -1    0    0  501    0  0.00000000000E+00 -0.00000000000E+00 -0.25884834092E+04  0.25884834092E+04  0.00000000000E+00 0. -1.
    9900016    2    1    2    0    0 -0.26768226784E+03  0.46334929333E+03  0.14579649407E+04  0.24124440540E+04  0.18460439272E+04 0.  0.
        -24    2    3    3    0    0  0.35453226945E+03  0.46757145448E+03 -0.21331116600E+03  0.62909535506E+03  0.77091614983E+02 0.  0.
    9900016    2    1    2    0    0  0.26768226784E+03 -0.46334929333E+03 -0.16770035849E+04  0.25454841201E+04  0.18386957382E+04 0.  0.
         23    2    5    5    0    0  0.31183971234E+03  0.18086142511E+03  0.27683954598E+03  0.46366845362E+03  0.91615715761E+02 0.  0.
        -15    1    6    6    0    0  0.30077061589E+02 -0.74275026514E+01  0.10720513461E+02  0.32783026680E+02  0.00000000000E+00 0.  1.
        -15    1    3    3    0    0 -0.62221453728E+03 -0.42221611524E+01  0.16712761067E+04  0.17833486989E+04  0.00000000000E+00 0.  1.
         15    1    4    4    0    0  0.23245820962E+03  0.32680104866E+03 -0.10916117523E+03  0.41563434266E+03  0.00000000000E+00 0. -1.
         15    1    6    6    0    0  0.28176265075E+03  0.18828892777E+03  0.26611903252E+03  0.43088542694E+03  0.00000000000E+00 0. -1.
        -16    1    4    4    0    0  0.12207405982E+03  0.14077040582E+03 -0.10414999077E+03  0.21346101240E+03  0.00000000000E+00 0.  1.
         16    1    5    5    0    0 -0.83545944469E+02 -0.59005624864E+03 -0.14990885867E+04  0.16131995822E+04  0.00000000000E+00 0. -1.
    9900018    1    5    5    0    0  0.39388499970E+02 -0.54154469800E+02 -0.45475454426E+03  0.46861608428E+03  0.91187600000E+02 0.  0.
<mgrwt>
<rscale>  0 0.49530873E+04</rscale>
<asrwt>0</asrwt>
<pdfrwt beam="1">  1        2 0.39822822E+00 0.49530873E+04</pdfrwt>
<pdfrwt beam="2">  1       -2 0.36452997E+00 0.49530873E+04</pdfrwt>
<totfact> 0.28426009E-02</totfact>
</mgrwt>
</event>
<event>
13    1  0.3382046E-007  0.6504126E+04  0.7818608E-02  0.7630856E-01
          2   -1    0    0  501    0  0.00000000000E+00  0.00000000000E+00  0.27352869374E+04  0.27352869374E+04  0.00000000000E+00 0. -1.
         -2   -1    0    0    0  501 -0.00000000000E+00 -0.00000000000E+00 -0.38664726512E+04  0.38664726512E+04  0.00000000000E+00 0.  1.
    9900016    2    1    2    0    0 -0.25803510597E+04 -0.70933825420E+03 -0.56572147916E+03  0.32988927829E+04  0.18442560698E+04 0.  0.
        -24    2    3    3    0    0 -0.36968857394E+03 -0.64600880690E+03  0.44140727611E+03  0.86880069115E+03  0.77312594368E+02 0.  0.
    9900016    2    1    2    0    0  0.25803510597E+04  0.70933825420E+03 -0.56546423467E+03  0.33028668057E+04  0.18514337647E+04 0.  0.
         23    2    5    5    0    0 -0.14551216992E+03 -0.10652129864E+03 -0.49059066201E+02  0.20678880492E+03  0.88511237729E+02 0.  0.
        -15    1    6    6    0    0 -0.83591407435E+01 -0.42998203769E+02 -0.32890953328E+02  0.54777144615E+02  0.00000000000E+00 0. -1.
        -15    1    3    3    0    0 -0.22106624858E+04 -0.63329447296E+02 -0.10071287553E+04  0.24300920918E+04  0.00000000000E+00 0.  1.
         15    1    6    6    0    0 -0.13715302918E+03 -0.63523094872E+02 -0.16168112874E+02  0.15201166031E+03  0.00000000000E+00 0.  1.
         15    1    4    4    0    0 -0.24857211468E+03 -0.48664551614E+03  0.29669497712E+03  0.62180371825E+03  0.00000000000E+00 0. -1.
        -16    1    4    4    0    0 -0.12111645926E+03 -0.15936329076E+03  0.14471229899E+03  0.24699697291E+03  0.00000000000E+00 0.  1.
         16    1    5    5    0    0  0.19610224390E+04  0.71084281464E+03  0.12301646225E+03  0.20895070144E+04  0.00000000000E+00 0. -1.
    9900018    1    5    5    0    0  0.76484079066E+03  0.10501673820E+03 -0.63942163072E+03  0.10065709864E+04  0.91187600000E+02 0.  0.
<mgrwt>
<rscale>  0 0.65041255E+04</rscale>
<asrwt>0</asrwt>
<pdfrwt beam="1">  1        2 0.42081338E+00 0.65041255E+04</pdfrwt>
<pdfrwt beam="2">  1       -2 0.59484194E+00 0.65041255E+04</pdfrwt>
<totfact> 0.89412914E-04</totfact>
</mgrwt>
</event>
<event>
13    1  0.3382046E-007  0.4577166E+04  0.7818608E-02  0.7897265E-01
          1   -1    0    0  501    0  0.00000000000E+00  0.00000000000E+00  0.17417039627E+04  0.17417039627E+04  0.00000000000E+00 0. -1.
         -1   -1    0    0    0  501 -0.00000000000E+00 -0.00000000000E+00 -0.30071767826E+04  0.30071767826E+04  0.00000000000E+00 0.  1.
    9900016    2    1    2    0    0  0.25674376268E+03  0.11292220492E+04  0.89375032997E+02  0.21765255444E+04  0.18407106652E+04 0.  0.
         24    2    3    3    0    0  0.44489330105E+03 -0.25962402682E+03 -0.43639150793E+03  0.67962069533E+03  0.78179643842E+02 0.  0.
    9900016    2    1    2    0    0 -0.25674376268E+03 -0.11292220492E+04 -0.13548478529E+04  0.25723552009E+04  0.18548150256E+04 0.  0.
         23    2    5    5    0    0 -0.57130368785E+03 -0.68290293887E+02  0.61388308559E+02  0.58562402297E+03  0.90197027970E+02 0.  0.
        -15    1    6    6    0    0 -0.52159067775E+03 -0.63704924504E+02  0.29312061514E+02  0.52628352575E+03  0.00000000000E+00 0. -1.
        -15    1    4    4    0    0  0.28911169265E+03 -0.12735303492E+03 -0.28236682042E+03  0.42371616396E+03  0.00000000000E+00 0.  1.
         15    1    3    3    0    0 -0.18814953837E+03  0.13888460760E+04  0.52576654093E+03  0.14969048491E+04  0.00000000000E+00 0. -1.
         15    1    6    6    0    0 -0.49713010103E+02 -0.45853693826E+01  0.32076247045E+02  0.59340497220E+02  0.00000000000E+00 0.  1.
        -16    1    5    5    0    0 -0.10981695280E+02 -0.15668600876E+03 -0.85657664878E+03  0.87085857532E+03  0.00000000000E+00 0.  1.
         16    1    4    4    0    0  0.15578160840E+03 -0.13227099189E+03 -0.15402468752E+03  0.25590453137E+03  0.00000000000E+00 0. -1.
    9900018    1    5    5    0    0  0.32554162045E+03 -0.90424574656E+03 -0.55965951263E+03  0.11158726026E+04  0.91187600000E+02 0.  0.
<mgrwt>
<rscale>  0 0.45771658E+04</rscale>
<asrwt>0</asrwt>
<pdfrwt beam="1">  1        1 0.26795446E+00 0.45771658E+04</pdfrwt>
<pdfrwt beam="2">  1       -1 0.46264258E+00 0.45771658E+04</pdfrwt>
<totfact> 0.88452539E-03</totfact>
</mgrwt>
</event>
<event>
13    1  0.3382046E-007  0.4068790E+04  0.7818608E-02  0.7990811E-01
          1   -1    0    0  501    0  0.00000000000E+00  0.00000000000E+00  0.26227109719E+04  0.26227109719E+04  0.00000000000E+00 0. -1.
         -1   -1    0    0    0  501 -0.00000000000E+00 -0.00000000000E+00 -0.15780480370E+04  0.15780480370E+04  0.00000000000E+00 0.  1.
    9900016    2    1    2    0    0 -0.74941328862E+03 -0.25463259776E+03  0.18439047378E+03  0.20211754607E+04  0.18505924346E+04 0.  0.
        -24    2    3    3    0    0  0.11201147778E+03 -0.35897844153E+03  0.84656105891E+03  0.92965790830E+03  0.78651811030E+02 0.  0.
    9900016    2    1    2    0    0  0.74941328862E+03  0.25463259776E+03  0.86027246114E+03  0.21795835482E+04  0.18395808488E+04 0.  0.
         23    2    5    5    0    0  0.32516150675E+03 -0.19339760824E+03  0.43580084027E+03  0.58414076463E+03  0.90362714566E+02 0.  0.
        -15    1    3    3    0    0 -0.86142476641E+03  0.10434584377E+03 -0.66217058513E+03  0.10915175524E+04  0.00000000000E+00 0.  1.
        -15    1    6    6    0    0  0.98722340216E+02 -0.53137944888E+02  0.19569099909E+03  0.22553205708E+03  0.00000000000E+00 0. -1.
         15    1    4    4    0    0  0.72117908652E+02 -0.23552473347E+03  0.45838722142E+03  0.52037653443E+03  0.00000000000E+00 0. -1.
         15    1    6    6    0    0  0.22643916653E+03 -0.14025966335E+03  0.24010984117E+03  0.35860870755E+03  0.00000000000E+00 0.  1.
        -16    1    4    4    0    0  0.39893569129E+02 -0.12345370806E+03  0.38817383748E+03  0.40928137387E+03  0.00000000000E+00 0.  1.
         16    1    5    5    0    0 -0.15998800888E+02  0.22191015892E+03 -0.49754474604E+03  0.54502371928E+03  0.00000000000E+00 0. -1.
    9900018    1    5    5    0    0  0.44025058276E+03  0.22612004708E+03  0.92201636692E+03  0.10504190643E+04  0.91187600000E+02 0.  0.
<mgrwt>
<rscale>  0 0.40687904E+04</rscale>
<asrwt>0</asrwt>
<pdfrwt beam="1">  1        1 0.40349400E+00 0.40687904E+04</pdfrwt>
<pdfrwt beam="2">  1       -1 0.24277662E+00 0.40687904E+04</pdfrwt>
<totfact> 0.67295818E-02</totfact>
</mgrwt>
</event>
