<event>
12    1  0.1881822E-008  0.2712801E+04  0.7818608E-02  0.8330863E-01
         -2   -1    0    0    0  501 -0.00000000000E+00  0.00000000000E+00  0.11893597558E+04  0.11893597558E+04  0.00000000000E+00 0.  1.
          2   -1    0    0  501    0  0.00000000000E+00 -0.00000000000E+00 -0.15469017153E+04  0.15469017153E+04  0.00000000000E+00 0. -1.
    9900016    2    1    2    0    0 -0.43110479878E+03 -0.13509145397E+03 -0.43814821441E+03  0.22773514398E+04  0.21886650439E+04 0.  0.
         23    2    3    3    0    0  0.21397719448E+01  0.65973703777E+02 -0.21651830556E+03  0.24446943432E+03  0.92347276415E+02 0.  0.
         24    2    3    3    0    0 -0.84633326742E+03 -0.79185306328E+03  0.11251380444E+03  0.11672234010E+04  0.80248603594E+02 0.  0.
        -15    1    5    5    0    0 -0.39183769837E+03 -0.31510534208E+03  0.61661538789E+02  0.50658691637E+03  0.00000000000E+00 0.  1.
        -15    1    4    4    0    0  0.11165515368E+02 -0.41540974671E+01  0.42548033129E+01  0.12650241517E+02  0.00000000000E+00 0.  1.
         15    1    3    3    0    0  0.43300754304E+03  0.53505630258E+03 -0.30659055071E+03  0.75351081283E+03  0.00000000000E+00 0. -1.
         15    1    4    4    0    0 -0.90257434233E+01  0.70127801244E+02 -0.22077310887E+03  0.23181919280E+03  0.00000000000E+00 0. -1.
        -16    1    1    2    0    0  0.43110479878E+03  0.13509145397E+03  0.80606254946E+02  0.45891003128E+03  0.00000000000E+00 0.  1.
         16    1    5    5    0    0 -0.45449556904E+03 -0.47674772120E+03  0.50852265654E+02  0.66063648467E+03  0.00000000000E+00 0. -1.
    9900018    1    3    3    0    0 -0.19918846357E+02  0.55731602950E+02 -0.27553162584E+02  0.11214779164E+03  0.91187600000E+02 0.  0.
<mgrwt>
<rscale>  0 0.27128012E+04</rscale>
<asrwt>0</asrwt>
<pdfrwt beam="1">  1        2 0.23798488E+00 0.27128012E+04</pdfrwt>
<pdfrwt beam="2">  1       -2 0.18297842E+00 0.27128012E+04</pdfrwt>
<totfact> 0.18107724E+00</totfact>
</mgrwt>
</event>
<event>
12    1  0.1881822E-008  0.3473326E+04  0.7818608E-02  0.8120141E-01
         -2   -1    0    0    0  501 -0.00000000000E+00  0.00000000000E+00  0.11522808683E+04  0.11522808683E+04  0.00000000000E+00 0. -1.
          2   -1    0    0  501    0  0.00000000000E+00 -0.00000000000E+00 -0.26174152816E+04  0.26174152816E+04  0.00000000000E+00 0.  1.
    9900016    2    1    2    0    0  0.97740005856E+03 -0.10514508929E+03 -0.66007384632E+03  0.24990707602E+04  0.22007477860E+04 0.  0.
         23    2    3    3    0    0 -0.28401947387E+03  0.19572239310E+03 -0.11351826900E+03  0.37487098814E+03  0.93099643691E+02 0.  0.
         24    2    3    3    0    0  0.12231224572E+04 -0.54151455551E+03 -0.96140966499E+02  0.13434762378E+04  0.80117144380E+02 0.  0.
        -15    1    4    4    0    0 -0.17283845286E+03  0.10106070571E+03 -0.19416549784E+02  0.20115516257E+03  0.00000000000E+00 0. -1.
        -15    1    5    5    0    0  0.29840867207E+03 -0.16374288407E+03 -0.43999720433E+02  0.34321340744E+03  0.00000000000E+00 0.  1.
         15    1    3    3    0    0 -0.31653893086E+01  0.16585764211E+03 -0.57845784653E+03  0.60177425780E+03  0.00000000000E+00 0. -1.
         15    1    4    4    0    0 -0.11118102101E+03  0.94661687392E+02 -0.94101719218E+02  0.17371582557E+03  0.00000000000E+00 0.  1.
        -16    1    1    2    0    0 -0.97740005856E+03  0.10514508929E+03 -0.80506056705E+03  0.12706253897E+04  0.00000000000E+00 0.  1.
         16    1    5    5    0    0  0.92471378517E+03 -0.37777167144E+03 -0.52141246066E+02  0.10002628303E+04  0.00000000000E+00 0. -1.
    9900018    1    3    3    0    0  0.41462464503E+02  0.74789431016E+02  0.12804323571E+03  0.17894927650E+03  0.91187600000E+02 0.  0.
<mgrwt>
<rscale>  0 0.34733255E+04</rscale>
<asrwt>0</asrwt>
<pdfrwt beam="1">  1        2 0.40267928E+00 0.34733255E+04</pdfrwt>
<pdfrwt beam="2">  1       -2 0.17727398E+00 0.34733255E+04</pdfrwt>
<totfact> 0.46350142E-01</totfact>
</mgrwt>
</event>
<event>
12    1  0.1881822E-008  0.2658696E+04  0.7818608E-02  0.8348532E-01
         -1   -1    0    0    0  501 -0.00000000000E+00  0.00000000000E+00  0.13618503641E+04  0.13618503641E+04  0.00000000000E+00 0.  1.
          1   -1    0    0  501    0  0.00000000000E+00 -0.00000000000E+00 -0.12976216299E+04  0.12976216299E+04  0.00000000000E+00 0. -1.
    9900016    2    1    2    0    0 -0.16579208549E+03 -0.28522326129E+03 -0.25030946303E+03  0.22036500969E+04  0.21643889664E+04 0.  0.
         23    2    3    3    0    0  0.15422463991E+03  0.27012160671E+02  0.43399470026E+03  0.47011835227E+03  0.90249481469E+02 0.  0.
         24    2    3    3    0    0 -0.21288747895E+03 -0.27937483641E+03  0.28015242214E+03  0.45623705866E+03  0.79344162703E+02 0.  0.
        -15    1    5    5    0    0 -0.11438074850E+03 -0.13032860045E+03  0.90167754364E+02  0.19544493764E+03  0.00000000000E+00 0.  1.
        -15    1    4    4    0    0  0.10890519361E+03  0.54321264523E+02  0.24077111720E+03  0.26978115548E+03  0.00000000000E+00 0. -1.
         15    1    3    3    0    0 -0.45582731312E+02  0.23222424756E+03 -0.96157937675E+03  0.99027308574E+03  0.00000000000E+00 0. -1.
         15    1    4    4    0    0  0.45319446304E+02 -0.27309103852E+02  0.19322358306E+03  0.20033719679E+03  0.00000000000E+00 0.  1.
        -16    1    1    2    0    0  0.16579208549E+03  0.28522326129E+03  0.31453819725E+03  0.45582189715E+03  0.00000000000E+00 0.  1.
         16    1    5    5    0    0 -0.98506730449E+02 -0.14904623596E+03  0.18998466777E+03  0.26079212102E+03  0.00000000000E+00 0. -1.
    9900018    1    3    3    0    0 -0.61546515137E+02 -0.26508483312E+03 -0.28772086893E+01  0.28702160023E+03  0.91187600000E+02 0.  0.
<mgrwt>
<rscale>  0 0.26586963E+04</rscale>
<asrwt>0</asrwt>
<pdfrwt beam="1">  1        1 0.19963410E+00 0.26586963E+04</pdfrwt>
<pdfrwt beam="2">  1       -1 0.20951544E+00 0.26586963E+04</pdfrwt>
<totfact> 0.10308301E+00</totfact>
</mgrwt>
</event>
<event>
12    1  0.1881822E-008  0.2852860E+04  0.7818608E-02  0.8287043E-01
         -2   -1    0    0    0  501 -0.00000000000E+00  0.00000000000E+00  0.65471025582E+03  0.65471025582E+03  0.00000000000E+00 0.  1.
          2   -1    0    0  501    0  0.00000000000E+00 -0.00000000000E+00 -0.31077902623E+04  0.31077902623E+04  0.00000000000E+00 0. -1.
    9900016    2    1    2    0    0  0.12742748402E+03 -0.45811156324E+03 -0.23906588719E+04  0.32829169841E+04  0.21991339465E+04 0.  0.
         23    2    3    3    0    0 -0.11645890359E+03 -0.23368050150E+03 -0.56094145958E+02  0.28250948205E+03  0.92172670736E+02 0.  0.
         24    2    3    3    0    0 -0.64590398736E+03  0.24590039157E+03 -0.10270199940E+04  0.12407559141E+04  0.83941688009E+02 0.  0.
        -15    1    5    5    0    0 -0.18569694957E+03  0.31073679557E+02 -0.28439350890E+03  0.34106978544E+03  0.00000000000E+00 0.  1.
        -15    1    4    4    0    0 -0.10813780024E+03 -0.14963952934E+03 -0.68962630662E+02  0.19708276690E+03  0.00000000000E+00 0.  1.
         15    1    4    4    0    0 -0.83211033506E+01 -0.84040972158E+02  0.12868484705E+02  0.85426715147E+02  0.00000000000E+00 0. -1.
         15    1    3    3    0    0  0.88188373558E+03 -0.51581363767E+03 -0.13050826830E+04  0.16574146860E+04  0.00000000000E+00 0. -1.
        -16    1    1    2    0    0 -0.12742748402E+03  0.45811156324E+03 -0.62421134596E+02  0.47958353402E+03  0.00000000000E+00 0.  1.
         16    1    5    5    0    0 -0.46020703779E+03  0.21482671201E+03 -0.74262648509E+03  0.89968612870E+03  0.00000000000E+00 0. -1.
    9900018    1    3    3    0    0  0.79066393811E+01  0.45482184355E+02 -0.24620489724E+01  0.10223690194E+03  0.91187600000E+02 0.  0.
<mgrwt>
<rscale>  0 0.28528597E+04</rscale>
<asrwt>0</asrwt>
<pdfrwt beam="1">  1        2 0.47812158E+00 0.28528597E+04</pdfrwt>
<pdfrwt beam="2">  1       -2 0.10072465E+00 0.28528597E+04</pdfrwt>
<totfact> 0.10460292E+00</totfact>
</mgrwt>
</event>
<event>
12    1  0.1881822E-008  0.2662695E+04  0.7818608E-02  0.8347212E-01
         -2   -1    0    0    0  501 -0.00000000000E+00  0.00000000000E+00  0.15525632020E+04  0.15525632020E+04  0.00000000000E+00 0.  1.
          2   -1    0    0  501    0  0.00000000000E+00 -0.00000000000E+00 -0.11416515515E+04  0.11416515515E+04  0.00000000000E+00 0. -1.
    9900016    2    1    2    0    0  0.36787425134E+03 -0.41123301796E+02  0.16065093040E+03  0.22473892633E+04  0.22108657102E+04 0.  0.
         23    2    3    3    0    0  0.25768389710E+03 -0.11095747045E+03  0.55377036514E+02  0.30223995401E+03  0.97825469857E+02 0.  0.
         24    2    3    3    0    0  0.19852060210E+03  0.34205571740E+03  0.47215171009E+03  0.62121633786E+03  0.81055276311E+02 0.  0.
        -15    1    4    4    0    0  0.14791863110E+03 -0.10963612221E+03  0.56059144323E+02  0.19246461592E+03  0.00000000000E+00 0.  1.
        -15    1    5    5    0    0  0.14958385350E+03  0.18037727230E+03  0.28886279422E+03  0.37195833567E+03  0.00000000000E+00 0.  1.
         15    1    3    3    0    0  0.52156227793E+03 -0.36208419680E+03 -0.28295449257E+03  0.69512259364E+03  0.00000000000E+00 0. -1.
         15    1    4    4    0    0  0.10976526600E+03 -0.13213482400E+01 -0.68210780930E+00  0.10977533808E+03  0.00000000000E+00 0. -1.
        -16    1    1    2    0    0 -0.36787425134E+03  0.41123301796E+02  0.25026072002E+03  0.44682549025E+03  0.00000000000E+00 0.  1.
         16    1    5    5    0    0  0.48936748599E+02  0.16167844511E+03  0.18328891587E+03  0.24925800219E+03  0.00000000000E+00 0. -1.
    9900018    1    3    3    0    0 -0.60989252578E+03  0.89862648054E+02 -0.83923323628E+02  0.62881037775E+03  0.91187600000E+02 0.  0.
<mgrwt>
<rscale>  0 0.26626950E+04</rscale>
<asrwt>0</asrwt>
<pdfrwt beam="1">  1        2 0.17563870E+00 0.26626950E+04</pdfrwt>
<pdfrwt beam="2">  1       -2 0.23885588E+00 0.26626950E+04</pdfrwt>
<totfact> 0.13609744E+00</totfact>
</mgrwt>
</event>
<event>
12    1  0.1881822E-008  0.3147172E+04  0.7818608E-02  0.8202910E-01
          1   -1    0    0  501    0  0.00000000000E+00  0.00000000000E+00  0.19699588124E+04  0.19699588124E+04  0.00000000000E+00 0. -1.
         -1   -1    0    0    0  501 -0.00000000000E+00 -0.00000000000E+00 -0.12569664552E+04  0.12569664552E+04  0.00000000000E+00 0.  1.
    9900016    2    1    2    0    0  0.10361353867E+03  0.71156565324E+03  0.17932562966E+03  0.23314580040E+04  0.22105377849E+04 0.  0.
         23    2    3    3    0    0  0.66876151409E+02 -0.13519433547E+03  0.50496353757E+03  0.53513462047E+03  0.92902958967E+02 0.  0.
        -24    2    3    3    0    0 -0.52919276501E+03  0.70261511059E+03  0.14078618875E+03  0.89449524542E+03  0.81166600064E+02 0.  0.
        -15    1    4    4    0    0 -0.12168957795E+02 -0.67275970571E+02  0.26179066077E+03  0.27057067435E+03  0.00000000000E+00 0. -1.
        -15    1    3    3    0    0  0.32184308613E+03 -0.53829275962E+02 -0.47285914375E+03  0.57452270004E+03  0.00000000000E+00 0.  1.
         15    1    5    5    0    0 -0.13109581515E+03  0.23019376980E+03  0.58036046866E+02  0.27118898787E+03  0.00000000000E+00 0. -1.
         15    1    4    4    0    0  0.79045109203E+02 -0.67918364895E+02  0.24317287680E+03  0.26456394612E+03  0.00000000000E+00 0.  1.
        -16    1    5    5    0    0 -0.39809694986E+03  0.47242134079E+03  0.82750141887E+02  0.62330625755E+03  0.00000000000E+00 0.  1.
         16    1    1    2    0    0 -0.10361353867E+03 -0.71156565324E+03  0.53366672750E+03  0.89546726367E+03  0.00000000000E+00 0. -1.
    9900018    1    3    3    0    0  0.24408706614E+03  0.19797415407E+03  0.64350470876E+01  0.32730543803E+03  0.91187600000E+02 0.  0.
<mgrwt>
<rscale>  0 0.31471715E+04</rscale>
<asrwt>0</asrwt>
<pdfrwt beam="1">  1        1 0.30307059E+00 0.31471715E+04</pdfrwt>
<pdfrwt beam="2">  1       -1 0.19337945E+00 0.31471715E+04</pdfrwt>
<totfact> 0.43921325E-01</totfact>
</mgrwt>
</event>
<event>
12    1  0.1881822E-008  0.2537638E+04  0.7818608E-02  0.8389698E-01
         -1   -1    0    0    0  501 -0.00000000000E+00  0.00000000000E+00  0.18330625716E+04  0.18330625716E+04  0.00000000000E+00 0.  1.
          1   -1    0    0  501    0  0.00000000000E+00 -0.00000000000E+00 -0.87825818786E+03  0.87825818786E+03  0.00000000000E+00 0. -1.
    9900016    2    1    2    0    0  0.24285471501E+03 -0.19670363774E+03  0.75789426505E+03  0.23419370449E+04  0.21937626744E+04 0.  0.
         23    2    3    3    0    0  0.44035837980E+03  0.15525454160E+03 -0.17536032014E+02  0.47606657003E+03  0.91172316691E+02 0.  0.
         24    2    3    3    0    0  0.56003726138E+03 -0.37083970261E+03  0.64361999565E+03  0.93383753501E+03  0.81498612421E+02 0.  0.
        -15    1    5    5    0    0  0.29420867857E+03 -0.21798582575E+03  0.39923126665E+03  0.54172148844E+03  0.00000000000E+00 0.  1.
        -15    1    4    4    0    0  0.34519102685E+03  0.11597247311E+03 -0.51229666534E+02  0.36773759431E+03  0.00000000000E+00 0. -1.
         15    1    4    4    0    0  0.95167352954E+02  0.39282068490E+02  0.33693634520E+02  0.10832897572E+03  0.00000000000E+00 0.  1.
         15    1    3    3    0    0 -0.38700108375E+03  0.25858755348E+03  0.11385412186E+02  0.46558241940E+03  0.00000000000E+00 0. -1.
        -16    1    1    2    0    0 -0.24285471501E+03  0.19670363774E+03  0.19691011866E+03  0.36938371450E+03  0.00000000000E+00 0.  1.
         16    1    5    5    0    0  0.26582858281E+03 -0.15285387686E+03  0.24438872900E+03  0.39211604656E+03  0.00000000000E+00 0. -1.
    9900018    1    3    3    0    0 -0.37053984242E+03 -0.23970603021E+03  0.12042488923E+03  0.46645052050E+03  0.91187600000E+02 0.  0.
<mgrwt>
<rscale>  0 0.25376384E+04</rscale>
<asrwt>0</asrwt>
<pdfrwt beam="1">  1        1 0.13511664E+00 0.25376384E+04</pdfrwt>
<pdfrwt beam="2">  1       -1 0.28200963E+00 0.25376384E+04</pdfrwt>
<totfact> 0.72538588E-01</totfact>
</mgrwt>
</event>
<event>
12    1  0.1881822E-008  0.2762798E+04  0.7818608E-02  0.8314912E-01
          2   -1    0    0  501    0  0.00000000000E+00  0.00000000000E+00  0.20505427054E+04  0.20505427054E+04  0.00000000000E+00 0. -1.
         -2   -1    0    0    0  501 -0.00000000000E+00 -0.00000000000E+00 -0.93061341387E+03  0.93061341387E+03  0.00000000000E+00 0.  1.
    9900016    2    1    2    0    0 -0.16177858057E+03  0.19583447818E+03  0.43991546421E+03  0.22552482344E+04  0.21972927732E+04 0.  0.
         23    2    3    3    0    0  0.34049565007E+02 -0.13787578205E+03  0.21405248618E+03  0.27282564941E+03  0.91903558060E+02 0.  0.
        -24    2    3    3    0    0  0.53459891689E+03 -0.33147284092E+03  0.45685004934E+03  0.78165928527E+03  0.81295906834E+02 0.  0.
        -15    1    3    3    0    0 -0.76379786693E+03  0.54013407207E+03 -0.35404585293E+03  0.10002402028E+04  0.00000000000E+00 0.  1.
        -15    1    4    4    0    0  0.47285111083E+02 -0.11983458408E+03  0.11968894807E+03  0.17584553893E+03  0.00000000000E+00 0.  1.
         15    1    4    4    0    0 -0.13235546076E+02 -0.18041197967E+02  0.94363538110E+02  0.96980110480E+02  0.00000000000E+00 0. -1.
         15    1    5    5    0    0  0.37614318248E+02 -0.28406856049E+02  0.63638112148E+02  0.79193407084E+02  0.00000000000E+00 0. -1.
        -16    1    5    5    0    0  0.49698459864E+03 -0.30306598487E+03  0.39321193719E+03  0.70246587819E+03  0.00000000000E+00 0.  1.
         16    1    1    2    0    0  0.16177858057E+03 -0.19583447818E+03  0.68001382732E+03  0.72590788487E+03  0.00000000000E+00 0. -1.
    9900018    1    3    3    0    0  0.33370804470E+02  0.12504902908E+03  0.12305878162E+03  0.20052309691E+03  0.91187600000E+02 0.  0.
<mgrwt>
<rscale>  0 0.27627975E+04</rscale>
<asrwt>0</asrwt>
<pdfrwt beam="1">  1        2 0.31546811E+00 0.27627975E+04</pdfrwt>
<pdfrwt beam="2">  1       -2 0.14317129E+00 0.27627975E+04</pdfrwt>
<totfact> 0.18515336E+00</totfact>
</mgrwt>
</event>
<event>
12    1  0.1881822E-008  0.2572531E+04  0.7818608E-02  0.8377592E-01
         -2   -1    0    0    0  501 -0.00000000000E+00  0.00000000000E+00  0.23362437220E+04  0.23362437220E+04  0.00000000000E+00 0.  1.
          2   -1    0    0  501    0  0.00000000000E+00 -0.00000000000E+00 -0.70817889054E+03  0.70817889054E+03  0.00000000000E+00 0. -1.
    9900016    2    1    2    0    0 -0.61589035750E+02 -0.13708047919E+02  0.99821744318E+03  0.24114227291E+04  0.21942060967E+04 0.  0.
         23    2    3    3    0    0  0.36728458526E+03 -0.24333792571E+03  0.29725553227E+03  0.53890402965E+03  0.89136911823E+02 0.  0.
         24    2    3    3    0    0  0.12211153105E+03 -0.59182215712E+03  0.18819121726E+03  0.63836488718E+03  0.83241235346E+02 0.  0.
        -15    1    5    5    0    0  0.88072056111E+02 -0.34409818354E+03  0.71016247897E+02  0.36222031203E+03  0.00000000000E+00 0.  1.
        -15    1    4    4    0    0  0.21413364866E+03 -0.18713762280E+03  0.16416988477E+03  0.32836787361E+03  0.00000000000E+00 0. -1.
         15    1    4    4    0    0  0.15315093660E+03 -0.56200302912E+02  0.13308564750E+03  0.21053615604E+03  0.00000000000E+00 0.  1.
         15    1    3    3    0    0 -0.29864514530E+03  0.77702908077E+03  0.47815179706E+03  0.95999596677E+03  0.00000000000E+00 0. -1.
        -16    1    1    2    0    0  0.61589035750E+02  0.13708047919E+02  0.62984738828E+03  0.63299988343E+03  0.00000000000E+00 0.  1.
         16    1    5    5    0    0  0.34039474940E+02 -0.24772397358E+03  0.11717496937E+03  0.27614457515E+03  0.00000000000E+00 0. -1.
    9900018    1    3    3    0    0 -0.25234000676E+03  0.44422954139E+02  0.34618896593E+02  0.27415784552E+03  0.91187600000E+02 0.  0.
<mgrwt>
<rscale>  0 0.25725307E+04</rscale>
<asrwt>0</asrwt>
<pdfrwt beam="1">  1        2 0.10895060E+00 0.25725307E+04</pdfrwt>
<pdfrwt beam="2">  1       -2 0.35942211E+00 0.25725307E+04</pdfrwt>
<totfact> 0.48557820E-01</totfact>
</mgrwt>
</event>
<event>
12    1  0.1881822E-008  0.3753107E+04  0.7818608E-02  0.8056293E-01
          2   -1    0    0  501    0  0.00000000000E+00  0.00000000000E+00  0.27667370645E+04  0.27667370645E+04  0.00000000000E+00 0. -1.
         -2   -1    0    0    0  501 -0.00000000000E+00 -0.00000000000E+00 -0.12727821688E+04  0.12727821688E+04  0.00000000000E+00 0.  1.
    9900016    2    1    2    0    0  0.81988504402E+03 -0.26446507311E+03  0.50106319685E+02  0.23581947641E+04  0.21946340565E+04 0.  0.
         23    2    3    3    0    0  0.12877834866E+03  0.25762166524E+02  0.95455305311E+02  0.18363239300E+03  0.85799697782E+02 0.  0.
        -24    2    3    3    0    0  0.99967797382E+03 -0.86356600475E+01 -0.41721148504E+03  0.10861857824E+04  0.79394613815E+02 0.  0.
        -15    1    3    3    0    0 -0.60857727284E+03 -0.22693625735E+03  0.40957233714E+03  0.76786448106E+03  0.00000000000E+00 0.  1.
        -15    1    4    4    0    0  0.98291922601E+02  0.55695143496E+02  0.78964366515E+02  0.13783548976E+03  0.00000000000E+00 0.  1.
         15    1    5    5    0    0  0.32098252876E+03  0.16897965675E+02 -0.16840340494E+03  0.36287054414E+03  0.00000000000E+00 0. -1.
         15    1    4    4    0    0  0.30486426061E+02 -0.29932976972E+02  0.16490938796E+02  0.45796903244E+02  0.00000000000E+00 0. -1.
        -16    1    5    5    0    0  0.67869544507E+03 -0.25533625722E+02 -0.24880808010E+03  0.72331523828E+03  0.00000000000E+00 0.  1.
         16    1    1    2    0    0 -0.81988504402E+03  0.26446507311E+03  0.14438485760E+04  0.16813244692E+04  0.00000000000E+00 0. -1.
    9900018    1    3    3    0    0  0.30000599437E+03 -0.54655322237E+02 -0.37709837728E+02  0.32051210767E+03  0.91187600000E+02 0.  0.
<mgrwt>
<rscale>  0 0.37531073E+04</rscale>
<asrwt>0</asrwt>
<pdfrwt beam="1">  1        2 0.42565186E+00 0.37531073E+04</pdfrwt>
<pdfrwt beam="2">  1       -2 0.19581264E+00 0.37531073E+04</pdfrwt>
<totfact> 0.27622996E-01</totfact>
</mgrwt>
</event>
<event>
12    1  0.1881822E-008  0.2733414E+04  0.7818608E-02  0.8324244E-01
         -1   -1    0    0    0  501 -0.00000000000E+00  0.00000000000E+00  0.11285577310E+04  0.11285577310E+04  0.00000000000E+00 0.  1.
          1   -1    0    0  501    0  0.00000000000E+00 -0.00000000000E+00 -0.16551102496E+04  0.16551102496E+04  0.00000000000E+00 0. -1.
    9900016    2    1    2    0    0  0.44073273504E+03  0.14626267277E+03 -0.52295834951E+03  0.23192855614E+04  0.22113258392E+04 0.  0.
         23    2    3    3    0    0 -0.32698542102E+03 -0.19860504641E+03  0.82355887319E+02  0.40184796455E+03  0.91300955195E+02 0.  0.
         24    2    3    3    0    0  0.39274525902E+03  0.65494229872E+02  0.17664863558E+03  0.44291884201E+03  0.80212390134E+02 0.  0.
        -15    1    4    4    0    0 -0.29412289103E+03 -0.15932175479E+03  0.42995373287E+02  0.33725405661E+03  0.00000000000E+00 0.  1.
        -15    1    5    5    0    0  0.27863904691E+03  0.65587444475E+02  0.91425493136E+02  0.30049967077E+03  0.00000000000E+00 0.  1.
         15    1    3    3    0    0 -0.16614551774E+03  0.39637514547E+03 -0.80545050154E+03  0.91294474063E+03  0.00000000000E+00 0. -1.
         15    1    4    4    0    0 -0.32862529986E+02 -0.39283291627E+02  0.39360514032E+02  0.64593907941E+02  0.00000000000E+00 0. -1.
        -16    1    1    2    0    0 -0.44073273504E+03 -0.14626267277E+03 -0.35941691655E+01  0.46438241917E+03  0.00000000000E+00 0.  1.
         16    1    5    5    0    0  0.11410621210E+03 -0.93214603665E-01  0.85223142443E+02  0.14241917124E+03  0.00000000000E+00 0. -1.
    9900018    1    3    3    0    0  0.54111841478E+03 -0.11700165616E+03  0.23487629134E+02  0.56157401425E+03  0.91187600000E+02 0.  0.
<mgrwt>
<rscale>  0 0.27334136E+04</rscale>
<asrwt>0</asrwt>
<pdfrwt beam="1">  1        1 0.25463235E+00 0.27334136E+04</pdfrwt>
<pdfrwt beam="2">  1       -1 0.17362427E+00 0.27334136E+04</pdfrwt>
<totfact> 0.10308975E+00</totfact>
</mgrwt>
</event>
<event>
12    1  0.1881822E-008  0.3020693E+04  0.7818608E-02  0.8237846E-01
          2   -1    0    0  501    0  0.00000000000E+00  0.00000000000E+00  0.96355012095E+03  0.96355012095E+03  0.00000000000E+00 0.  1.
         -2   -1    0    0    0  501 -0.00000000000E+00 -0.00000000000E+00 -0.23674400707E+04  0.23674400707E+04  0.00000000000E+00 0. -1.
    9900016    2    1    2    0    0  0.66308037241E+03 -0.34848788901E+02 -0.13542943960E+04  0.26651450615E+04  0.21972698673E+04 0.  0.
         23    2    3    3    0    0  0.68759908285E+02  0.16933293528E+03 -0.54150419514E+03  0.57875386537E+03  0.91256097750E+02 0.  0.
         24    2    3    3    0    0  0.72062061127E+03 -0.58729254471E+03  0.13950191970E+03  0.94353334142E+03  0.81165154495E+02 0.  0.
        -15    1    5    5    0    0  0.44484187812E+03 -0.40619586657E+03  0.10929432634E+03  0.61222922857E+03  0.00000000000E+00 0.  1.
        -15    1    4    4    0    0  0.38468530626E+02  0.11704096144E+03 -0.46617519960E+03  0.48218018544E+03  0.00000000000E+00 0. -1.
         15    1    4    4    0    0  0.30291377659E+02  0.52291973838E+02 -0.75328995537E+02  0.96573679939E+02  0.00000000000E+00 0.  1.
         15    1    3    3    0    0 -0.43762825714E+02  0.23049674538E+03 -0.91337380022E+03  0.94302472581E+03  0.00000000000E+00 0. -1.
        -16    1    1    2    0    0 -0.66308037241E+03  0.34848788901E+02 -0.49595553747E+02  0.66584513013E+03  0.00000000000E+00 0.  1.
         16    1    5    5    0    0  0.27577873315E+03 -0.18109667815E+03  0.30207593358E+02  0.33130411284E+03  0.00000000000E+00 0. -1.
    9900018    1    3    3    0    0 -0.82537321431E+02  0.15261407516E+03 -0.38918320327E+02  0.19983312892E+03  0.91187600000E+02 0.  0.
<mgrwt>
<rscale>  0 0.30206934E+04</rscale>
<asrwt>0</asrwt>
<pdfrwt beam="1">  1        2 0.14823848E+00 0.30206934E+04</pdfrwt>
<pdfrwt beam="2">  1       -2 0.36422155E+00 0.30206934E+04</pdfrwt>
<totfact> 0.28721416E-01</totfact>
</mgrwt>
</event>
<event>
12    1  0.1881822E-008  0.2828097E+04  0.7818608E-02  0.8294598E-01
         -2   -1    0    0    0  501 -0.00000000000E+00  0.00000000000E+00  0.12965363840E+04  0.12965363840E+04  0.00000000000E+00 0.  1.
          2   -1    0    0  501    0  0.00000000000E+00 -0.00000000000E+00 -0.15422113234E+04  0.15422113234E+04  0.00000000000E+00 0. -1.
    9900016    2    1    2    0    0  0.49206242342E+03  0.11906188126E+03  0.48808605261E+02  0.22530671475E+04  0.21949095952E+04 0.  0.
         23    2    3    3    0    0  0.18994216801E+03  0.35827813594E+02  0.25229282933E+03  0.32994890530E+03  0.88616866151E+02 0.  0.
         24    2    3    3    0    0 -0.23200681252E+03 -0.16824446439E+03 -0.13414321554E+02  0.29730051982E+03  0.77937758558E+02 0.  0.
        -15    1    5    5    0    0 -0.83776593836E+02 -0.10836178138E+03 -0.13477837263E+01  0.13697667633E+03  0.00000000000E+00 0.  1.
        -15    1    4    4    0    0  0.12183243996E+03  0.13276635951E+02  0.88608801690E+02  0.15123138638E+03  0.00000000000E+00 0. -1.
         15    1    3    3    0    0  0.50100554682E+03 -0.27392912175E+03  0.49592964220E+03  0.75630015979E+03  0.00000000000E+00 0. -1.
         15    1    4    4    0    0  0.68109728050E+02  0.22551177643E+02  0.16368402764E+03  0.17871751893E+03  0.00000000000E+00 0.  1.
        -16    1    1    2    0    0 -0.49206242342E+03 -0.11906188126E+03 -0.29448354467E+03  0.58568055986E+03  0.00000000000E+00 0.  1.
         16    1    5    5    0    0 -0.14823021868E+03 -0.59882683015E+02 -0.12066537828E+02  0.16032384349E+03  0.00000000000E+00 0. -1.
    9900018    1    3    3    0    0  0.33121521114E+02  0.52540765380E+03 -0.68599954471E+03  0.86951756255E+03  0.91187600000E+02 0.  0.
<mgrwt>
<rscale>  0 0.28280970E+04</rscale>
<asrwt>0</asrwt>
<pdfrwt beam="1">  1        2 0.23726328E+00 0.28280970E+04</pdfrwt>
<pdfrwt beam="2">  1       -2 0.19946714E+00 0.28280970E+04</pdfrwt>
<totfact> 0.13989096E+00</totfact>
</mgrwt>
</event>
<event>
12    1  0.1881822E-008  0.3822314E+04  0.7818608E-02  0.8041383E-01
         -2   -1    0    0    0  501 -0.00000000000E+00  0.00000000000E+00  0.24995383514E+04  0.24995383514E+04  0.00000000000E+00 0.  1.
          2   -1    0    0  501    0  0.00000000000E+00 -0.00000000000E+00 -0.14612785225E+04  0.14612785225E+04  0.00000000000E+00 0. -1.
    9900016    2    1    2    0    0 -0.10427763249E+04 -0.56648081822E+03  0.11747532034E+04  0.27662820596E+04  0.22054451621E+04 0.  0.
         23    2    3    3    0    0  0.14667916264E+03  0.44102965320E+01 -0.22504858381E+03  0.28337527820E+03  0.90113571411E+02 0.  0.
        -24    2    3    3    0    0 -0.14810089348E+04 -0.47045053704E+03  0.95368917466E+03  0.18250261985E+04  0.80538256245E+02 0.  0.
        -15    1    3    3    0    0  0.20358813308E+03  0.93588994780E+02  0.32947697119E+03  0.39844962344E+03  0.00000000000E+00 0.  1.
        -15    1    4    4    0    0  0.11102912419E+03  0.43546691645E+02 -0.15516660811E+03  0.19570502559E+03  0.00000000000E+00 0.  1.
         15    1    4    4    0    0  0.35650038448E+02 -0.39136395113E+02 -0.69881975706E+02  0.87670252608E+02  0.00000000000E+00 0. -1.
         15    1    5    5    0    0 -0.20268486391E+03 -0.49856112648E+02  0.10091307308E+03  0.23184096779E+03  0.00000000000E+00 0. -1.
        -16    1    5    5    0    0 -0.12783240709E+04 -0.42059442439E+03  0.85277610158E+03  0.15931852307E+04  0.00000000000E+00 0.  1.
         16    1    1    2    0    0  0.10427763249E+04  0.56648081822E+03 -0.13649337449E+03  0.11945348143E+04  0.00000000000E+00 0. -1.
    9900018    1    3    3    0    0  0.87965314134E+02 -0.19402957249E+03  0.11663564137E+03  0.25943095945E+03  0.91187600000E+02 0.  0.
<mgrwt>
<rscale>  0 0.38223143E+04</rscale>
<asrwt>0</asrwt>
<pdfrwt beam="1">  1        2 0.22481208E+00 0.38223143E+04</pdfrwt>
<pdfrwt beam="2">  1       -2 0.38454436E+00 0.38223143E+04</pdfrwt>
<totfact> 0.99932845E-02</totfact>
</mgrwt>
</event>
<event>
12    1  0.1881822E-008  0.3927317E+04  0.7818608E-02  0.8019372E-01
         -1   -1    0    0    0  501 -0.00000000000E+00  0.00000000000E+00  0.17033691930E+04  0.17033691930E+04  0.00000000000E+00 0.  1.
          1   -1    0    0  501    0  0.00000000000E+00 -0.00000000000E+00 -0.22637225157E+04  0.22637225157E+04  0.00000000000E+00 0. -1.
    9900016    2    1    2    0    0  0.14212305954E+03  0.54195716999E+03 -0.16017449037E+04  0.27845465877E+04  0.22077582351E+04 0.  0.
         23    2    3    3    0    0 -0.46937772227E+02 -0.18254525004E+03  0.24074789735E+02  0.21090395353E+03  0.91514803937E+02 0.  0.
         24    2    3    3    0    0  0.38150448415E+03 -0.23389838083E+03 -0.88484717584E+03  0.99477536963E+03  0.79808442214E+02 0.  0.
        -15    1    4    4    0    0 -0.38296805263E+02 -0.71402307792E+02 -0.30763171034E+02  0.86667799922E+02  0.00000000000E+00 0.  1.
        -15    1    5    5    0    0  0.29962969883E+03 -0.19434100683E+03 -0.62992611170E+03  0.72412242719E+03  0.00000000000E+00 0.  1.
         15    1    3    3    0    0 -0.33142369668E+03  0.11015714469E+04 -0.50392991650E+03  0.12558848196E+04  0.00000000000E+00 0. -1.
         15    1    4    4    0    0 -0.86409669639E+01 -0.11114294225E+03  0.54837960769E+02  0.12423615361E+03  0.00000000000E+00 0. -1.
        -16    1    1    2    0    0 -0.14212305954E+03 -0.54195716999E+03  0.10413915810E+04  0.11825451210E+04  0.00000000000E+00 0.  1.
         16    1    5    5    0    0  0.81874785316E+02 -0.39557373994E+02 -0.25492106414E+03  0.27065294244E+03  0.00000000000E+00 0. -1.
    9900018    1    3    3    0    0  0.13898004430E+03 -0.14317064609E+03 -0.23704260107E+03  0.32298244493E+03  0.91187600000E+02 0.  0.
<mgrwt>
<rscale>  0 0.39273172E+04</rscale>
<asrwt>0</asrwt>
<pdfrwt beam="1">  1        1 0.34826500E+00 0.39273172E+04</pdfrwt>
<pdfrwt beam="2">  1       -1 0.26205680E+00 0.39273172E+04</pdfrwt>
<totfact> 0.90281013E-02</totfact>
</mgrwt>
</event>
<event>
12    1  0.1881822E-008  0.2511132E+04  0.7818608E-02  0.8399030E-01
         -2   -1    0    0    0  501 -0.00000000000E+00  0.00000000000E+00  0.45882031615E+03  0.45882031615E+03  0.00000000000E+00 0. -1.
          2   -1    0    0  501    0  0.00000000000E+00 -0.00000000000E+00 -0.34358678170E+04  0.34358678170E+04  0.00000000000E+00 0.  1.
    9900016    2    1    2    0    0 -0.21845341228E+03  0.15022466378E+03 -0.28536219807E+04  0.36022446310E+04  0.21823653749E+04 0.  0.
         23    2    3    3    0    0 -0.13386005785E+03  0.36650203810E+01  0.29229032481E+02  0.16143510437E+03  0.85293664016E+02 0.  0.
        -24    2    3    3    0    0  0.47072333278E+03  0.10831644760E+03 -0.31624501192E+03  0.58334085910E+03  0.83443043385E+02 0.  0.
        -15    1    3    3    0    0 -0.76132174718E+03 -0.30294271979E+03 -0.14108599691E+04  0.16315363761E+04  0.00000000000E+00 0.  1.
        -15    1    4    4    0    0 -0.12221747014E+03 -0.27363455754E+02  0.27635548112E+02  0.12825596375E+03  0.00000000000E+00 0.  1.
         15    1    5    5    0    0  0.16937983211E+03  0.94938645186E+00 -0.12644595105E+03  0.21137409349E+03  0.00000000000E+00 0. -1.
         15    1    4    4    0    0 -0.11642587712E+02  0.31028476135E+02  0.15934843693E+01  0.33179140621E+02  0.00000000000E+00 0. -1.
        -16    1    5    5    0    0  0.30134350067E+03  0.10736706115E+03 -0.18979906087E+03  0.37196676561E+03  0.00000000000E+00 0.  1.
         16    1    1    2    0    0  0.21845341228E+03 -0.15022466378E+03 -0.12342552013E+03  0.29244350217E+03  0.00000000000E+00 0. -1.
    9900018    1    3    3    0    0  0.20600505998E+03  0.34118591559E+03 -0.11557460322E+04  0.12259322914E+04  0.91187600000E+02 0.  0.
<mgrwt>
<rscale>  0 0.25111320E+04</rscale>
<asrwt>0</asrwt>
<pdfrwt beam="1">  1        2 0.52859503E+00 0.25111320E+04</pdfrwt>
<pdfrwt beam="2">  1       -2 0.70587743E-01 0.25111320E+04</pdfrwt>
<totfact> 0.14666527E+00</totfact>
</mgrwt>
</event>
<event>
12    1  0.1881822E-008  0.3265893E+04  0.7818608E-02  0.8171629E-01
         -1   -1    0    0    0  501 -0.00000000000E+00  0.00000000000E+00  0.24914818943E+04  0.24914818943E+04  0.00000000000E+00 0.  1.
          1   -1    0    0  501    0  0.00000000000E+00 -0.00000000000E+00 -0.10702521302E+04  0.10702521302E+04  0.00000000000E+00 0. -1.
    9900016    2    1    2    0    0  0.97356985428E+02 -0.64460698366E+03  0.38493111471E+03  0.23374336379E+04  0.22114310983E+04 0.  0.
         23    2    3    3    0    0  0.22707377866E+03  0.15129799278E+03  0.82451508889E+02  0.29913658158E+03  0.90724084737E+02 0.  0.
         24    2    3    3    0    0 -0.30855874344E+03 -0.10539987763E+04  0.74125036444E+03  0.13274513904E+04  0.80951668015E+02 0.  0.
        -15    1    5    5    0    0 -0.22154978036E+03 -0.80041513991E+03  0.52020925679E+03  0.97998284282E+03  0.00000000000E+00 0.  1.
        -15    1    4    4    0    0  0.16992892240E+03  0.12698954352E+03  0.10011309980E+03  0.23457368902E+03  0.00000000000E+00 0.  1.
         15    1    3    3    0    0  0.26699191782E+03  0.31696262923E+03 -0.36751512598E+03  0.55391096788E+03  0.00000000000E+00 0. -1.
         15    1    4    4    0    0  0.57144856257E+02  0.24308449259E+02 -0.17661590912E+02  0.64562892559E+02  0.00000000000E+00 0. -1.
        -16    1    1    2    0    0 -0.97356985428E+02  0.64460698366E+03  0.10362986494E+04  0.12243003866E+04  0.00000000000E+00 0.  1.
         16    1    5    5    0    0 -0.87008963081E+02 -0.25358363642E+03  0.22104110765E+03  0.34746854762E+03  0.00000000000E+00 0. -1.
    9900018    1    3    3    0    0 -0.88149967613E+02 -0.58868829337E+02 -0.71255632634E+02  0.15693469799E+03  0.91187600000E+02 0.  0.
<mgrwt>
<rscale>  0 0.32658927E+04</rscale>
<asrwt>0</asrwt>
<pdfrwt beam="1">  1        1 0.16465417E+00 0.32658927E+04</pdfrwt>
<pdfrwt beam="2">  1       -1 0.38330491E+00 0.32658927E+04</pdfrwt>
<totfact> 0.10317910E-01</totfact>
</mgrwt>
</event>
<event>
12    1  0.1881822E-008  0.2429006E+04  0.7818608E-02  0.8428723E-01
          2   -1    0    0  501    0  0.00000000000E+00  0.00000000000E+00  0.19832444675E+04  0.19832444675E+04  0.00000000000E+00 0. -1.
         -2   -1    0    0    0  501 -0.00000000000E+00 -0.00000000000E+00 -0.74373992212E+03  0.74373992212E+03  0.00000000000E+00 0.  1.
    9900016    2    1    2    0    0  0.13119241424E+03 -0.10706166824E+03  0.12806836096E+04  0.25527163039E+04  0.22017121451E+04 0.  0.
         23    2    3    3    0    0 -0.24291569550E+03  0.52583182748E+02  0.25211678541E+03  0.36540100573E+03  0.90454382293E+02 0.  0.
         24    2    3    3    0    0  0.58832012656E+03 -0.82437326608E+03  0.63336459708E+03  0.11971420362E+04  0.79287381350E+02 0.  0.
        -15    1    4    4    0    0 -0.31785853281E+02  0.23535395734E+02  0.87784099445E+02  0.96282414991E+02  0.00000000000E+00 0. -1.
        -15    1    5    5    0    0  0.38686465829E+03 -0.60414412183E+03  0.44516154420E+03  0.84428856691E+03  0.00000000000E+00 0.  1.
         15    1    3    3    0    0 -0.38448093818E+03  0.53144209863E+03  0.20240264053E+03  0.68645693595E+03  0.00000000000E+00 0. -1.
         15    1    4    4    0    0 -0.21112984222E+03  0.29047787015E+02  0.16433268597E+03  0.26911859074E+03  0.00000000000E+00 0.  1.
        -16    1    1    2    0    0 -0.13119241424E+03  0.10706166824E+03 -0.41179064208E+02  0.17426808569E+03  0.00000000000E+00 0.  1.
         16    1    5    5    0    0  0.20145546827E+03 -0.22022914425E+03  0.18820305288E+03  0.35285346928E+03  0.00000000000E+00 0. -1.
    9900018    1    3    3    0    0  0.17026892136E+03  0.13328631647E+03  0.19279958654E+03  0.30371632604E+03  0.91187600000E+02 0.  0.
<mgrwt>
<rscale>  0 0.24290065E+04</rscale>
<asrwt>0</asrwt>
<pdfrwt beam="1">  1        2 0.30511453E+00 0.24290065E+04</pdfrwt>
<pdfrwt beam="2">  1       -2 0.11442153E+00 0.24290065E+04</pdfrwt>
<totfact> 0.36555795E+00</totfact>
</mgrwt>
</event>
