<event>
12    1  0.6705921E-014  0.4006395E+04  0.7818608E-02  0.8453476E-01
          2   -1    0    0  501    0  0.00000000000E+00  0.00000000000E+00  0.17030193137E+04  0.17030193137E+04  0.00000000000E+00 0. -1.
         -2   -1    0    0    0  501 -0.00000000000E+00 -0.00000000000E+00 -0.32099946249E+04  0.32099946249E+04  0.00000000000E+00 0.  1.
        -24    2    1    2    0    0  0.13903205008E+03 -0.45725857891E+03 -0.65852002366E+03  0.81776313770E+03  0.81686038444E+02 0.  0.
    9900016    2    1    2    0    0 -0.14401104307E+02 -0.37056649700E+03 -0.17634246346E+02  0.22337542934E+04  0.22026848064E+04 0.  0.
         23    2    4    4    0    0  0.15129724472E+03  0.30935664292E+03 -0.97982198226E+03  0.10439826102E+04  0.10609516787E+03 0.  0.
        -15    1    1    2    0    0 -0.46276936616E+03 -0.18882120416E+03 -0.56402718459E+03  0.75361501999E+03  0.00000000000E+00 0.  1.
        -15    1    5    5    0    0  0.11099348573E+03  0.14410662732E+03 -0.61727673875E+03  0.64351911092E+03  0.00000000000E+00 0.  1.
         15    1    3    3    0    0  0.22436453663E+02 -0.12166270633E+03 -0.22965153608E+03  0.26085443564E+03  0.00000000000E+00 0. -1.
         15    1    5    5    0    0  0.40303758988E+02  0.16525001560E+03 -0.36254524351E+03  0.40046349925E+03  0.00000000000E+00 0. -1.
        -16    1    3    3    0    0  0.11659559642E+03 -0.33559587257E+03 -0.42886848758E+03  0.55690870206E+03  0.00000000000E+00 0.  1.
         16    1    4    4    0    0 -0.16569834903E+03 -0.67992313993E+03  0.96218773591E+03  0.11897716832E+04  0.00000000000E+00 0. -1.
    9900018    1    1    2    0    0  0.33813842039E+03  0.10166462801E+04 -0.26679385662E+03  0.11078814875E+04  0.91187600000E+02 0.  0.
<mgrwt>
<rscale>  0 0.23630294E+04</rscale>
<asrwt>0</asrwt>
<pdfrwt beam="1">  1        2 0.26200298E+00 0.40063952E+04</pdfrwt>
<pdfrwt beam="2">  1       -2 0.49384532E+00 0.40063952E+04</pdfrwt>
<totfact> 0.13592960E-02</totfact>
</mgrwt>
</event>
<event>
11    1  0.6705921E-014  0.4927137E+04  0.7818608E-02  0.8102973E-01
          2   -1    0    0  501    0  0.00000000000E+00  0.00000000000E+00  0.36911399289E+04  0.36911399289E+04  0.00000000000E+00 0. -1.
         -2   -1    0    0    0  501 -0.00000000000E+00 -0.00000000000E+00 -0.27510361400E+04  0.27510361400E+04  0.00000000000E+00 0.  1.
         24    2    1    2    0    0 -0.36693945188E+03 -0.12673272017E+04  0.73126148596E+03  0.15106146621E+04  0.80314999291E+02 0.  0.
    9900016    2    1    2    0    0 -0.99794446436E+03  0.13097156496E+04 -0.34693779541E+03  0.27698957421E+04  0.22001609831E+04 0.  0.
        -15    1    4    4    0    0  0.16414991289E+03  0.11697843767E+03 -0.17198436499E+03  0.26496748967E+03  0.00000000000E+00 0. -1.
        -15    1    3    3    0    0 -0.29214674553E+03 -0.10151420629E+04  0.54800545757E+03  0.11900307182E+04  0.00000000000E+00 0.  1.
         15    1    4    4    0    0  0.40402161510E+03  0.56767209909E+03 -0.40049207557E+03  0.80366596304E+03  0.00000000000E+00 0.  1.
         15    1    1    2    0    0  0.15953213744E+04 -0.35514897384E+03  0.63756205876E+03  0.17543279226E+04  0.00000000000E+00 0. -1.
        -16    1    4    4    0    0 -0.15661159924E+04  0.62506511285E+03  0.22553864515E+03  0.17012622894E+04  0.00000000000E+00 0.  1.
         16    1    3    3    0    0 -0.74792706348E+02 -0.25218513879E+03  0.18325602840E+03  0.32058394391E+03  0.00000000000E+00 0. -1.
    9900018    1    1    2    0    0 -0.23043745815E+03  0.31276052591E+03 -0.81781960331E+02  0.40733774208E+03  0.91187600000E+02 0.  0.
<mgrwt>
<rscale>  0 0.35460042E+04</rscale>
<asrwt>0</asrwt>
<pdfrwt beam="1">  1        2 0.56786768E+00 0.49271374E+04</pdfrwt>
<pdfrwt beam="2">  1       -2 0.42323633E+00 0.49271374E+04</pdfrwt>
<totfact> 0.21542756E-03</totfact>
</mgrwt>
</event>
<event>
12    1  0.6705921E-014  0.3724568E+04  0.7818608E-02  0.8377040E-01
          2   -1    0    0  501    0  0.00000000000E+00  0.00000000000E+00  0.38104901716E+04  0.38104901716E+04  0.00000000000E+00 0.  1.
         -2   -1    0    0    0  501 -0.00000000000E+00 -0.00000000000E+00 -0.16433530971E+04  0.16433530971E+04  0.00000000000E+00 0. -1.
         24    2    1    2    0    0 -0.33494208539E+03 -0.77688890017E+03  0.14203582781E+04  0.16551485403E+04  0.79727588686E+02 0.  0.
    9900016    2    1    2    0    0  0.28372641969E+03 -0.24409843890E+03  0.56788170437E+03  0.23085216876E+04  0.22060593879E+04 0.  0.
         23    2    4    4    0    0  0.39207349880E+03 -0.17696773836E+03 -0.80952272400E+03  0.92523264337E+03  0.12525651602E+03 0.  0.
        -15    1    5    5    0    0  0.24780141196E+03 -0.93850034371E+02 -0.61196027984E+03  0.66686486849E+03  0.00000000000E+00 0. -1.
        -15    1    3    3    0    0 -0.18426976431E+03 -0.49304594365E+03  0.82528187338E+03  0.97884616724E+03  0.00000000000E+00 0.  1.
         15    1    5    5    0    0  0.14427208683E+03 -0.83117703985E+02 -0.19756244417E+03  0.25836777489E+03  0.00000000000E+00 0.  1.
         15    1    1    2    0    0 -0.32065487891E+03  0.97288210105E+03 -0.76819109733E+02  0.10272391686E+04  0.00000000000E+00 0. -1.
        -16    1    4    4    0    0 -0.10834707911E+03 -0.67130700544E+02  0.13774044284E+04  0.13832890442E+04  0.00000000000E+00 0.  1.
         16    1    3    3    0    0 -0.15067232108E+03 -0.28384295652E+03  0.59507640470E+03  0.67630237301E+03  0.00000000000E+00 0. -1.
    9900018    1    1    2    0    0  0.37187054461E+03  0.48105238026E+02  0.25571620181E+03  0.46293387232E+03  0.91187600000E+02 0.  0.
<mgrwt>
<rscale>  0 0.25741360E+04</rscale>
<asrwt>0</asrwt>
<pdfrwt beam="1">  1        2 0.58622926E+00 0.37245675E+04</pdfrwt>
<pdfrwt beam="2">  1       -2 0.25282355E+00 0.37245675E+04</pdfrwt>
<totfact> 0.23020583E-02</totfact>
</mgrwt>
</event>
