<event>
12    1  0.1943847E-010  0.2565944E+04  0.7818608E-02  0.9114997E-01
         -2   -1    0    0    0  501 -0.00000000000E+00  0.00000000000E+00  0.12902379715E+04  0.12902379715E+04  0.00000000000E+00 0.  1.
          2   -1    0    0  501    0  0.00000000000E+00 -0.00000000000E+00 -0.14107930581E+04  0.14107930581E+04  0.00000000000E+00 0. -1.
         23    2    1    2    0    0 -0.99040273797E+01  0.10097665494E+03  0.44898465807E+02  0.12975864761E+03  0.67283428844E+02 0.  0.
    9900016    2    1    2    0    0 -0.56479672929E+03  0.22809027962E+03  0.10586066296E+03  0.95790941235E+03  0.73168534305E+03 0.  0.
         23    2    4    4    0    0 -0.47177068140E+03 -0.10265743000E+03 -0.16738972698E+03  0.51891776253E+03  0.90278457105E+02 0.  0.
        -15    1    5    5    0    0 -0.36803564513E+03 -0.79393871624E+02 -0.89131581265E+02  0.38690833761E+03  0.00000000000E+00 0.  1.
        -15    1    3    3    0    0  0.12264829328E+02  0.31335577834E+02  0.45598675872E+02  0.56670836573E+02  0.00000000000E+00 0. -1.
         15    1    3    3    0    0 -0.22168856707E+02  0.69641077110E+02 -0.70021006476E+00  0.73087811042E+02  0.00000000000E+00 0.  1.
         15    1    5    5    0    0 -0.10373503627E+03 -0.23263558375E+02 -0.78258145711E+02  0.13200942492E+03  0.00000000000E+00 0. -1.
        -16    1    4    4    0    0 -0.93026047896E+02  0.33074770962E+03  0.27325038994E+03  0.43899164982E+03  0.00000000000E+00 0.  1.
         16    1    1    2    0    0  0.60932647095E+03 -0.71149090697E+03 -0.58916034063E+03  0.11066200639E+04  0.00000000000E+00 0. -1.
    9900018    1    1    2    0    0 -0.34625714279E+02  0.38242397241E+03  0.31784612531E+03  0.50674290575E+03  0.91187600000E+02 0.  0.
<mgrwt>
<rscale>  0 0.11975582E+04</rscale>
<asrwt>0</asrwt>
<pdfrwt beam="1">  1        2 0.21704508E+00 0.25659436E+04</pdfrwt>
<pdfrwt beam="2">  1       -2 0.19849815E+00 0.25659436E+04</pdfrwt>
<totfact> 0.17138074E+00</totfact>
</mgrwt>
</event>
<event>
12    1  0.1943847E-010  0.1819982E+04  0.7818608E-02  0.9214416E-01
          1   -1    0    0  501    0  0.00000000000E+00  0.00000000000E+00  0.11001440975E+04  0.11001440975E+04  0.00000000000E+00 0. -1.
         -1   -1    0    0    0  501 -0.00000000000E+00 -0.00000000000E+00 -0.96933675751E+03  0.96933675751E+03  0.00000000000E+00 0.  1.
         23    2    1    2    0    0  0.25290183403E+02 -0.19712086251E+03  0.82884604870E+02  0.24886795450E+03  0.12477649314E+03 0.  0.
    9900016    2    1    2    0    0  0.66042332539E+03  0.20939981942E+03  0.12790460843E+03  0.99150102963E+03  0.69764421433E+03 0.  0.
         23    2    4    4    0    0  0.25855245234E+03  0.10825962892E+03  0.39871764955E+03  0.49645634479E+03  0.94464916017E+02 0.  0.
        -15    1    3    3    0    0  0.70525241965E+02 -0.87128554236E+02  0.18446184820E+02  0.11360218507E+03  0.00000000000E+00 0. -1.
        -15    1    5    5    0    0  0.19816198908E+03  0.46118923827E+02  0.23208285826E+03  0.30863827071E+03  0.00000000000E+00 0. -1.
         15    1    3    3    0    0 -0.45235058562E+02 -0.10999230828E+03  0.64438420050E+02  0.13526576944E+03  0.00000000000E+00 0.  1.
         15    1    5    5    0    0  0.60390463257E+02  0.62140705097E+02  0.16663479129E+03  0.18781807408E+03  0.00000000000E+00 0.  1.
        -16    1    4    4    0    0  0.40187087306E+03  0.10114019050E+03 -0.27081304112E+03  0.49504468484E+03  0.00000000000E+00 0.  1.
         16    1    1    2    0    0 -0.53894195837E+03  0.13787770086E+03 -0.17216180146E+03  0.58233013039E+03  0.00000000000E+00 0. -1.
    9900018    1    1    2    0    0 -0.14677155043E+03 -0.15015665777E+03  0.92179928132E+02  0.24678174048E+03  0.91187600000E+02 0.  0.
<mgrwt>
<rscale>  0 0.10905867E+04</rscale>
<asrwt>0</asrwt>
<pdfrwt beam="1">  1        1 0.16925294E+00 0.18199821E+04</pdfrwt>
<pdfrwt beam="2">  1       -1 0.14912873E+00 0.18199821E+04</pdfrwt>
<totfact> 0.42040506E+00</totfact>
</mgrwt>
</event>
<event>
12    1  0.1943847E-010  0.1473824E+04  0.7818608E-02  0.9252701E-01
          2   -1    0    0  501    0  0.00000000000E+00  0.00000000000E+00  0.18221455987E+04  0.18221455987E+04  0.00000000000E+00 0. -1.
         -2   -1    0    0    0  501 -0.00000000000E+00 -0.00000000000E+00 -0.47920792155E+03  0.47920792155E+03  0.00000000000E+00 0.  1.
         23    2    1    2    0    0 -0.13771444826E+03  0.35035892308E+03  0.38637073604E+03  0.54431658000E+03  0.72674268866E+02 0.  0.
    9900016    2    1    2    0    0  0.31746441134E+02 -0.24430259644E+03  0.48752046860E+03  0.91250246890E+03  0.73095345495E+03 0.  0.
         23    2    4    4    0    0 -0.23929207776E+03 -0.31668815540E+03  0.76199929532E+02  0.41462082260E+03  0.92476543077E+02 0.  0.
        -15    1    3    3    0    0 -0.68464977389E+02  0.10691768280E+03  0.16405416929E+03  0.20744303913E+03  0.00000000000E+00 0. -1.
        -15    1    5    5    0    0 -0.11354111668E+03 -0.16019474130E+03 -0.89421411170E+01  0.19655508695E+03  0.00000000000E+00 0.  1.
         15    1    5    5    0    0 -0.12575096108E+03 -0.15649341410E+03  0.85142070649E+02  0.21806573565E+03  0.00000000000E+00 0. -1.
         15    1    3    3    0    0 -0.69249470867E+02  0.24344124028E+03  0.22231656675E+03  0.33687354086E+03  0.00000000000E+00 0.  1.
        -16    1    1    2    0    0 -0.14015390687E+03 -0.31695485446E+03  0.14006914016E+03  0.37379521319E+03  0.00000000000E+00 0.  1.
         16    1    4    4    0    0  0.27103851889E+03  0.72385558965E+02  0.41132053907E+03  0.49788164631E+03  0.00000000000E+00 0. -1.
    9900018    1    1    2    0    0  0.24612191400E+03  0.21089852782E+03  0.32897733237E+03  0.47073925818E+03  0.91187600000E+02 0.  0.
<mgrwt>
<rscale>  0 0.10525635E+04</rscale>
<asrwt>0</asrwt>
<pdfrwt beam="1">  1        2 0.28033009E+00 0.14738244E+04</pdfrwt>
<pdfrwt beam="2">  1       -2 0.73724297E-01 0.14738244E+04</pdfrwt>
<totfact> 0.13378291E+01</totfact>
</mgrwt>
</event>
