<event>
12    1  0.4529991E-013  0.3062929E+04  0.7818608E-02  0.8831207E-01
          1   -1    0    0  501    0  0.00000000000E+00  0.00000000000E+00  0.20514451850E+04  0.20514451850E+04  0.00000000000E+00 0. -1.
         -1   -1    0    0    0  501 -0.00000000000E+00 -0.00000000000E+00 -0.13418112616E+04  0.13418112616E+04  0.00000000000E+00 0.  1.
         23    2    1    2    0    0 -0.10140281638E+03  0.17230153851E+03  0.18394569794E+03  0.28554351428E+03  0.87913181093E+02 0.  0.
    9900016    2    1    2    0    0 -0.77198800125E+00 -0.53039647205E+03 -0.20701244119E+03  0.22858115156E+04  0.22137658233E+04 0.  0.
        -24    2    4    4    0    0  0.57964315416E+02 -0.88220513095E+03 -0.92876910887E+03  0.12846886406E+04  0.78530827406E+02 0.  0.
        -15    1    4    4    0    0  0.16655894181E+03  0.40697991461E+03  0.40282016138E+03  0.59635443690E+03  0.00000000000E+00 0.  1.
        -15    1    3    3    0    0 -0.84717833943E+02  0.94388651664E+02  0.15611781030E+03  0.20114447455E+03  0.00000000000E+00 0. -1.
         15    1    5    5    0    0  0.14066422864E+02 -0.24940152345E+03 -0.21287425341E+03  0.32819876891E+03  0.00000000000E+00 0. -1.
         15    1    3    3    0    0 -0.16684982440E+02  0.77912886844E+02  0.27827887648E+02  0.84399039724E+02  0.00000000000E+00 0.  1.
        -16    1    5    5    0    0  0.43897892552E+02 -0.63280360751E+03 -0.71589485546E+03  0.95648987173E+03  0.00000000000E+00 0.  1.
         16    1    1    2    0    0  0.10217480438E+03  0.35809493354E+03  0.73270066659E+03  0.82190141678E+03  0.00000000000E+00 0. -1.
    9900018    1    4    4    0    0 -0.22529524522E+03 -0.55171255703E+02  0.31893650630E+03  0.40476843802E+03  0.91187600000E+02 0.  0.
<mgrwt>
<rscale>  0 0.15827649E+04</rscale>
<asrwt>0</asrwt>
<pdfrwt beam="1">  1        1 0.31560695E+00 0.30629286E+04</pdfrwt>
<pdfrwt beam="2">  1       -1 0.20643250E+00 0.30629286E+04</pdfrwt>
<totfact> 0.31372040E-01</totfact>
</mgrwt>
</event>
<event>
12    1  0.4529991E-013  0.2734810E+04  0.7818608E-02  0.8914162E-01
          1   -1    0    0  501    0  0.00000000000E+00  0.00000000000E+00  0.13848842394E+04  0.13848842394E+04  0.00000000000E+00 0. -1.
         -1   -1    0    0    0  501 -0.00000000000E+00 -0.00000000000E+00 -0.15829359519E+04  0.15829359519E+04  0.00000000000E+00 0.  1.
         23    2    1    2    0    0  0.83144542310E+02  0.18131394987E+03 -0.67377064354E+02  0.22989035747E+03  0.92315460927E+02 0.  0.
    9900016    2    1    2    0    0  0.11247199954E+03  0.10041445718E+03  0.25583901305E+03  0.22211808261E+04  0.22012400250E+04 0.  0.
         24    2    4    4    0    0  0.50611637039E+03 -0.15847731630E+03 -0.81029003108E+02  0.54272476686E+03  0.81948966170E+02 0.  0.
        -15    1    5    5    0    0  0.82641581130E+02 -0.30039323310E+02 -0.44891203561E+02  0.98727969866E+02  0.00000000000E+00 0.  1.
        -15    1    3    3    0    0  0.17149252229E+02  0.13003925968E+03 -0.64748148614E+02  0.14627586492E+03  0.00000000000E+00 0.  1.
         15    1    4    4    0    0 -0.44962178009E+03 -0.60836529592E+03  0.26546703533E+03  0.80171118569E+03  0.00000000000E+00 0. -1.
         15    1    3    3    0    0  0.65995290081E+02  0.51274690191E+02 -0.26289157401E+01  0.83614492554E+02  0.00000000000E+00 0. -1.
        -16    1    1    2    0    0 -0.19561654185E+03 -0.28172840704E+03 -0.38651366117E+03  0.51674900779E+03  0.00000000000E+00 0.  1.
         16    1    5    5    0    0  0.42347478926E+03 -0.12843799299E+03 -0.36137799547E+02  0.44399679700E+03  0.00000000000E+00 0. -1.
    9900018    1    4    4    0    0  0.55977409230E+02  0.86725706941E+03  0.71400980827E+02  0.87674487351E+03  0.91187600000E+02 0.  0.
<mgrwt>
<rscale>  0 0.14561290E+04</rscale>
<asrwt>0</asrwt>
<pdfrwt beam="1">  1        1 0.21305911E+00 0.27348097E+04</pdfrwt>
<pdfrwt beam="2">  1       -1 0.24352861E+00 0.27348097E+04</pdfrwt>
<totfact> 0.52287174E-01</totfact>
</mgrwt>
</event>
<event>
12    1  0.4529991E-013  0.2892047E+04  0.7818608E-02  0.8935312E-01
          2   -1    0    0  501    0  0.00000000000E+00  0.00000000000E+00  0.22919489447E+04  0.22919489447E+04  0.00000000000E+00 0. -1.
         -2   -1    0    0    0  501 -0.00000000000E+00 -0.00000000000E+00 -0.11340733076E+04  0.11340733076E+04  0.00000000000E+00 0.  1.
         23    2    1    2    0    0  0.13301558378E+03 -0.43678068195E+02 -0.17236293036E+03  0.24271056521E+03  0.97972034451E+02 0.  0.
    9900016    2    1    2    0    0 -0.28645779853E+03 -0.30683774491E+03  0.52472953319E+03  0.22915434141E+04  0.21908041135E+04 0.  0.
        -24    2    4    4    0    0  0.13858722255E+03  0.45379423741E+03 -0.24110556547E+03  0.53853384889E+03  0.82165592183E+02 0.  0.
        -15    1    3    3    0    0  0.50049363589E+02 -0.49533263644E+01 -0.32447637530E+01  0.50398439753E+02  0.00000000000E+00 0.  1.
        -15    1    4    4    0    0 -0.84926307371E+03 -0.20885996513E+03  0.44348225664E+03  0.98058490981E+03  0.00000000000E+00 0.  1.
         15    1    5    5    0    0  0.82669712930E+02  0.27461105153E+03 -0.10004992600E+03  0.30373590297E+03  0.00000000000E+00 0. -1.
         15    1    3    3    0    0  0.82966220190E+02 -0.38724741831E+02 -0.16911816661E+03  0.19231212546E+03  0.00000000000E+00 0. -1.
        -16    1    5    5    0    0  0.55917509617E+02  0.17918318588E+03 -0.14105563946E+03  0.23479794592E+03  0.00000000000E+00 0.  1.
         16    1    1    2    0    0  0.15344221475E+03  0.35051581310E+03  0.80550903422E+03  0.89176827299E+03  0.00000000000E+00 0. -1.
    9900018    1    4    4    0    0  0.42421805263E+03 -0.55177201719E+03  0.32235284202E+03  0.77242465541E+03  0.91187600000E+02 0.  0.
<mgrwt>
<rscale>  0 0.14258567E+04</rscale>
<asrwt>0</asrwt>
<pdfrwt beam="1">  1        2 0.35260753E+00 0.28920475E+04</pdfrwt>
<pdfrwt beam="2">  1       -2 0.17447282E+00 0.28920475E+04</pdfrwt>
<totfact> 0.77516275E-01</totfact>
</mgrwt>
</event>
<event>
12    1  0.4529991E-013  0.2729512E+04  0.7818608E-02  0.8325492E-01
         -2   -1    0    0    0  501 -0.00000000000E+00  0.00000000000E+00  0.92478842144E+03  0.92478842144E+03  0.00000000000E+00 0. -1.
          2   -1    0    0  501    0  0.00000000000E+00 -0.00000000000E+00 -0.20140376885E+04  0.20140376885E+04  0.00000000000E+00 0.  1.
         23    2    1    2    0    0  0.20492409983E+03  0.26739045332E+03 -0.19280388726E+03  0.39872489492E+03  0.91195732747E+02 0.  0.
    9900016    2    1    2    0    0 -0.90247267655E+02 -0.14125098628E+03 -0.82506418154E+03  0.23552845046E+04  0.21996676530E+04 0.  0.
        -24    2    4    4    0    0  0.46365131213E+01 -0.51482863834E+03 -0.14755371756E+04  0.15647082346E+04  0.77665171426E+02 0.  0.
        -15    1    4    4    0    0  0.45689612404E+02  0.21041907358E+03  0.32139524928E+03  0.38685738130E+03  0.00000000000E+00 0.  1.
        -15    1    3    3    0    0  0.11504899361E+03  0.19827030955E+03 -0.91972636746E+02  0.24699464061E+03  0.00000000000E+00 0. -1.
         15    1    5    5    0    0 -0.30737764568E+02 -0.36777572306E+03 -0.10729126979E+04  0.11346124669E+04  0.00000000000E+00 0. -1.
         15    1    3    3    0    0  0.89875106227E+02  0.69120143762E+02 -0.10083125052E+03  0.15173025431E+03  0.00000000000E+00 0.  1.
        -16    1    5    5    0    0  0.35374277689E+02 -0.14705291528E+03 -0.40262447767E+03  0.43009576774E+03  0.00000000000E+00 0.  1.
         16    1    1    2    0    0 -0.11467683218E+03 -0.12613946703E+03 -0.71381198287E+02  0.18481671042E+03  0.00000000000E+00 0. -1.
    9900018    1    4    4    0    0 -0.14057339318E+03  0.16315857848E+03  0.32907774477E+03  0.40371888871E+03  0.91187600000E+02 0.  0.
<mgrwt>
<rscale>  0 0.27295118E+04</rscale>
<asrwt>0</asrwt>
<pdfrwt beam="1">  1        2 0.30985195E+00 0.27295118E+04</pdfrwt>
<pdfrwt beam="2">  1       -2 0.14227514E+00 0.27295118E+04</pdfrwt>
<totfact> 0.19778739E+00</totfact>
</mgrwt>
</event>
<event>
12    1  0.4529991E-013  0.2600920E+04  0.7818608E-02  0.8367889E-01
         -2   -1    0    0    0  501 -0.00000000000E+00  0.00000000000E+00  0.16027041021E+04  0.16027041021E+04  0.00000000000E+00 0.  1.
          2   -1    0    0  501    0  0.00000000000E+00 -0.00000000000E+00 -0.10552146120E+04  0.10552146120E+04  0.00000000000E+00 0. -1.
         23    2    1    2    0    0 -0.21292051039E+02  0.14351292552E+03 -0.20399196157E+03  0.26720475025E+03  0.93468427518E+02 0.  0.
    9900016    2    1    2    0    0  0.13346899399E+03 -0.14637232866E+03  0.67429579437E+03  0.22545175307E+04  0.21421801154E+04 0.  0.
         24    2    4    4    0    0  0.77994998650E+03  0.25701541553E+03  0.45863580710E+03  0.94410362217E+03  0.81276937554E+02 0.  0.
        -15    1    3    3    0    0 -0.52984999668E+01  0.72395092924E+02 -0.29969485549E+02  0.78532118559E+02  0.00000000000E+00 0. -1.
        -15    1    5    5    0    0  0.70966876826E+03  0.21549102830E+03  0.43163241675E+03  0.85812160392E+03  0.00000000000E+00 0.  1.
         15    1    3    3    0    0 -0.15993551072E+02  0.71117832598E+02 -0.17402247602E+03  0.18867263169E+03  0.00000000000E+00 0.  1.
         15    1    4    4    0    0 -0.14766189629E+03  0.11529328515E+02  0.55368562114E+03  0.57315331988E+03  0.00000000000E+00 0. -1.
        -16    1    1    2    0    0 -0.11217694295E+03  0.28594031344E+01  0.77185657291E+02  0.13619643317E+03  0.00000000000E+00 0.  1.
         16    1    5    5    0    0  0.70281218241E+02  0.41524387232E+02  0.27003390350E+02  0.85982018252E+02  0.00000000000E+00 0. -1.
    9900018    1    4    4    0    0 -0.49881909622E+03 -0.41491707270E+03 -0.33802563388E+03  0.73726058862E+03  0.91187600000E+02 0.  0.
<mgrwt>
<rscale>  0 0.26009204E+04</rscale>
<asrwt>0</asrwt>
<pdfrwt beam="1">  1        2 0.16234071E+00 0.26009204E+04</pdfrwt>
<pdfrwt beam="2">  1       -2 0.24656986E+00 0.26009204E+04</pdfrwt>
<totfact> 0.13862305E+00</totfact>
</mgrwt>
</event>
<event>
12    1  0.4529991E-013  0.3805370E+04  0.7818608E-02  0.8503392E-01
         -2   -1    0    0    0  501 -0.00000000000E+00  0.00000000000E+00  0.25922074258E+04  0.25922074258E+04  0.00000000000E+00 0.  1.
          2   -1    0    0  501    0  0.00000000000E+00 -0.00000000000E+00 -0.18286381900E+04  0.18286381900E+04  0.00000000000E+00 0. -1.
         23    2    1    2    0    0 -0.41768735536E+03  0.15280193105E+03  0.38756557577E+03  0.59694460097E+03  0.91239378288E+02 0.  0.
    9900016    2    1    2    0    0  0.10249339660E+04  0.91785603488E+02  0.12581192632E+04  0.27254022914E+04  0.21877018393E+04 0.  0.
        -24    2    4    4    0    0 -0.32319212984E+03 -0.62665907122E+03  0.38119499687E+03  0.80544836840E+03  0.79263511021E+02 0.  0.
        -15    1    4    4    0    0  0.10585844418E+04  0.63755335492E+03  0.99275070655E+03  0.15851275236E+04  0.00000000000E+00 0.  1.
        -15    1    3    3    0    0 -0.96399404708E+02  0.30408180386E+02  0.14259226069E+03  0.17478574161E+03  0.00000000000E+00 0.  1.
         15    1    3    3    0    0 -0.32128795065E+03  0.12239375067E+03  0.24497331508E+03  0.42215885936E+03  0.00000000000E+00 0. -1.
         15    1    5    5    0    0 -0.10218143621E+03 -0.27728494822E+03  0.17541786587E+03  0.34365595598E+03  0.00000000000E+00 0. -1.
        -16    1    5    5    0    0 -0.22101069363E+03 -0.34937412300E+03  0.20577713100E+03  0.46179241242E+03  0.00000000000E+00 0.  1.
         16    1    1    2    0    0 -0.60724661069E+03 -0.24458753454E+03 -0.88211560312E+03  0.10984987235E+04  0.00000000000E+00 0. -1.
    9900018    1    4    4    0    0  0.28954165409E+03  0.80891319792E+02 -0.11582644024E+03  0.33482639939E+03  0.91187600000E+02 0.  0.
<mgrwt>
<rscale>  0 0.22364893E+04</rscale>
<asrwt>0</asrwt>
<pdfrwt beam="1">  1        2 0.28132895E+00 0.38053699E+04</pdfrwt>
<pdfrwt beam="2">  1       -2 0.39880114E+00 0.38053699E+04</pdfrwt>
<totfact> 0.49409152E-02</totfact>
</mgrwt>
</event>
<event>
12    1  0.4529991E-013  0.3307600E+04  0.7818608E-02  0.8632656E-01
         -2   -1    0    0    0  501 -0.00000000000E+00  0.00000000000E+00  0.16660209266E+04  0.16660209266E+04  0.00000000000E+00 0.  1.
          2   -1    0    0  501    0  0.00000000000E+00 -0.00000000000E+00 -0.21342417843E+04  0.21342417843E+04  0.00000000000E+00 0. -1.
         23    2    1    2    0    0  0.28368320774E+03  0.26037770945E+03 -0.28489648979E+03  0.48758584253E+03  0.91111086113E+02 0.  0.
    9900016    2    1    2    0    0  0.41472916114E+03 -0.64240465842E+03 -0.60977518808E+03  0.24095795709E+04  0.22021725424E+04 0.  0.
         24    2    4    4    0    0  0.80844524167E+03 -0.12003513828E+04 -0.44805922870E+03  0.15171194415E+04  0.80418757181E+02 0.  0.
        -15    1    3    3    0    0  0.23366781907E+03  0.16248392362E+03 -0.22185479558E+03  0.36086178161E+03  0.00000000000E+00 0.  1.
        -15    1    5    5    0    0  0.50878427450E+03 -0.81775437426E+03 -0.31359099060E+03  0.10128785534E+04  0.00000000000E+00 0.  1.
         15    1    3    3    0    0  0.50015388668E+02  0.97893785834E+02 -0.63041694203E+02  0.12672406092E+03  0.00000000000E+00 0. -1.
         15    1    4    4    0    0 -0.24672634811E+02  0.45865884552E+03 -0.19321252342E+03  0.49830488126E+03  0.00000000000E+00 0. -1.
        -16    1    1    2    0    0 -0.69841236888E+03  0.38202694896E+03  0.42645082008E+03  0.90309729746E+03  0.00000000000E+00 0.  1.
         16    1    5    5    0    0  0.29966096717E+03 -0.38259700849E+03 -0.13446823810E+03  0.50424088808E+03  0.00000000000E+00 0. -1.
    9900018    1    4    4    0    0 -0.36904344572E+03  0.99287878817E+02  0.31496564030E+02  0.39415524815E+03  0.91187600000E+02 0.  0.
<mgrwt>
<rscale>  0 0.19452468E+04</rscale>
<asrwt>0</asrwt>
<pdfrwt beam="1">  1        2 0.32834489E+00 0.33076004E+04</pdfrwt>
<pdfrwt beam="2">  1       -2 0.25631091E+00 0.33076004E+04</pdfrwt>
<totfact> 0.27130216E-01</totfact>
</mgrwt>
</event>
<event>
12    1  0.4529991E-013  0.3688547E+04  0.7818608E-02  0.8608378E-01
          1   -1    0    0  501    0  0.00000000000E+00  0.00000000000E+00  0.30068431616E+04  0.30068431616E+04  0.00000000000E+00 0. -1.
         -1   -1    0    0    0  501 -0.00000000000E+00 -0.00000000000E+00 -0.13501942867E+04  0.13501942867E+04  0.00000000000E+00 0.  1.
         23    2    1    2    0    0  0.19098362447E+03  0.23532123940E+03  0.27162107347E+03  0.41702723366E+03  0.91010304521E+02 0.  0.
    9900016    2    1    2    0    0 -0.10644144270E+04 -0.58290509218E+02  0.17112748915E+04  0.29909799675E+04  0.22093264937E+04 0.  0.
         24    2    4    4    0    0 -0.50466062620E+03  0.79617701466E+03  0.13615746065E+03  0.95580863906E+03  0.80318827755E+02 0.  0.
        -15    1    5    5    0    0 -0.40968984387E+03  0.58546137535E+03  0.91494575291E+02  0.72040408626E+03  0.00000000000E+00 0.  1.
        -15    1    3    3    0    0  0.68999474165E+02  0.35188199932E+02  0.38659008088E+02  0.86565904118E+02  0.00000000000E+00 0.  1.
         15    1    4    4    0    0  0.17358420353E+03 -0.35857707151E+03  0.51181697129E+03  0.64858739120E+03  0.00000000000E+00 0. -1.
         15    1    3    3    0    0  0.12198415031E+03  0.20013303947E+03  0.23296206539E+03  0.33046132954E+03  0.00000000000E+00 0. -1.
        -16    1    1    2    0    0  0.87343080254E+03 -0.17703073018E+03 -0.32624709009E+03  0.94903024717E+03  0.00000000000E+00 0.  1.
         16    1    5    5    0    0 -0.94970782330E+02  0.21071563932E+03  0.44662885362E+02  0.23540455280E+03  0.00000000000E+00 0. -1.
    9900018    1    4    4    0    0 -0.73333800434E+03 -0.49589045237E+03  0.10633004595E+04  0.13865839372E+04  0.91187600000E+02 0.  0.
<mgrwt>
<rscale>  0 0.19962458E+04</rscale>
<asrwt>0</asrwt>
<pdfrwt beam="1">  1        1 0.46259125E+00 0.36885469E+04</pdfrwt>
<pdfrwt beam="2">  1       -1 0.20772220E+00 0.36885469E+04</pdfrwt>
<totfact> 0.62473391E-02</totfact>
</mgrwt>
</event>
<event>
12    1  0.4529991E-013  0.3058569E+04  0.7818608E-02  0.8676003E-01
          2   -1    0    0  501    0  0.00000000000E+00  0.00000000000E+00  0.18080805888E+04  0.18080805888E+04  0.00000000000E+00 0. -1.
         -2   -1    0    0    0  501 -0.00000000000E+00 -0.00000000000E+00 -0.21422994602E+04  0.21422994602E+04  0.00000000000E+00 0.  1.
         23    2    1    2    0    0  0.14421933758E+03 -0.38011689877E+03 -0.75568620127E+03  0.86290922741E+03  0.90898987311E+02 0.  0.
    9900016    2    1    2    0    0  0.10707872648E+03  0.94237185691E+03  0.10428364400E+03  0.23947321656E+04  0.21964372279E+04 0.  0.
        -24    2    4    4    0    0 -0.20748828507E+03  0.10846186821E+04  0.88481621498E+03  0.14174936035E+04  0.83302506727E+02 0.  0.
        -15    1    4    4    0    0  0.39975904640E+03 -0.13297402127E+02 -0.45735159404E+03  0.60758093836E+03  0.00000000000E+00 0.  1.
        -15    1    3    3    0    0  0.20050882958E+02 -0.54797174257E+02 -0.53675555593E+02  0.79283248434E+02  0.00000000000E+00 0.  1.
         15    1    5    5    0    0 -0.63375626797E+02  0.49818391702E+03  0.43657931810E+03  0.66543608727E+03  0.00000000000E+00 0. -1.
         15    1    3    3    0    0  0.12416845462E+03 -0.32531972451E+03 -0.70201064568E+03  0.78362597898E+03  0.00000000000E+00 0. -1.
        -16    1    5    5    0    0 -0.14411265828E+03  0.58643476510E+03  0.44823689688E+03  0.75205751623E+03  0.00000000000E+00 0.  1.
         16    1    1    2    0    0 -0.25129806406E+03 -0.56225495814E+03  0.31718368593E+03  0.69273865604E+03  0.00000000000E+00 0. -1.
    9900018    1    4    4    0    0 -0.85192034849E+02 -0.12894942308E+03 -0.32318097694E+03  0.36965762370E+03  0.91187600000E+02 0.  0.
<mgrwt>
<rscale>  0 0.18580909E+04</rscale>
<asrwt>0</asrwt>
<pdfrwt beam="1">  1        2 0.27816625E+00 0.30585685E+04</pdfrwt>
<pdfrwt beam="2">  1       -2 0.32958453E+00 0.30585685E+04</pdfrwt>
<totfact> 0.14765522E-01</totfact>
</mgrwt>
</event>
<event>
12    1  0.4529991E-013  0.2371725E+04  0.7818608E-02  0.9234238E-01
         -1   -1    0    0    0  501 -0.00000000000E+00  0.00000000000E+00  0.21730234762E+04  0.21730234762E+04  0.00000000000E+00 0.  1.
          1   -1    0    0  501    0  0.00000000000E+00 -0.00000000000E+00 -0.71306680521E+03  0.71306680521E+03  0.00000000000E+00 0. -1.
         23    2    1    2    0    0 -0.91301387061E+01 -0.37478248814E+02 -0.46063233541E+01  0.98614377158E+02  0.90639939323E+02 0.  0.
    9900016    2    1    2    0    0  0.11984747563E+03 -0.10178918712E+03  0.13656607884E+04  0.25839190479E+04  0.21878948332E+04 0.  0.
        -24    2    4    4    0    0  0.10437810496E+04  0.66626441040E+02  0.19271518080E+03  0.10665604555E+04  0.80585992393E+02 0.  0.
        -15    1    4    4    0    0 -0.65187459670E+03 -0.17557958438E+03  0.84421941918E+03  0.10809602712E+04  0.00000000000E+00 0.  1.
        -15    1    3    3    0    0  0.18053357797E+02 -0.48385626357E+02 -0.30106908767E+02  0.59778913683E+02  0.00000000000E+00 0.  1.
         15    1    3    3    0    0 -0.27183496503E+02  0.10907377542E+02  0.25500585412E+02  0.38835463475E+02  0.00000000000E+00 0. -1.
         15    1    5    5    0    0  0.76077677171E+03  0.41178561464E+02  0.10442394596E+03  0.76901321886E+03  0.00000000000E+00 0. -1.
        -16    1    5    5    0    0  0.28300427789E+03  0.25447879576E+02  0.88291234836E+02  0.29754723664E+03  0.00000000000E+00 0.  1.
         16    1    1    2    0    0 -0.11071733692E+03  0.13926743593E+03  0.98902205886E+02  0.20355685627E+03  0.00000000000E+00 0. -1.
    9900018    1    4    4    0    0 -0.27205897727E+03  0.71639562233E+01  0.32872618844E+03  0.43639832120E+03  0.91187600000E+02 0.  0.
<mgrwt>
<rscale>  0 0.10706923E+04</rscale>
<asrwt>0</asrwt>
<pdfrwt beam="1">  1        1 0.10970259E+00 0.23717245E+04</pdfrwt>
<pdfrwt beam="2">  1       -1 0.33431130E+00 0.23717245E+04</pdfrwt>
<totfact> 0.46786080E-01</totfact>
</mgrwt>
</event>
<event>
12    1  0.4529991E-013  0.2809516E+04  0.7818608E-02  0.8300320E-01
         -2   -1    0    0    0  501 -0.00000000000E+00  0.00000000000E+00  0.14785560918E+04  0.14785560918E+04  0.00000000000E+00 0.  1.
          2   -1    0    0  501    0  0.00000000000E+00 -0.00000000000E+00 -0.13346437104E+04  0.13346437104E+04  0.00000000000E+00 0. -1.
         23    2    1    2    0    0 -0.22021915486E+03 -0.45218470240E+02  0.31365112868E+03  0.39713298650E+03  0.93789083711E+02 0.  0.
    9900016    2    1    2    0    0  0.73236376038E+02  0.16121715263E+03 -0.79271150595E+02  0.22081148558E+04  0.21995755872E+04 0.  0.
        -24    2    4    4    0    0  0.19641407618E+03 -0.31005423919E+02  0.87669937895E+03  0.90221050143E+03  0.76434038275E+02 0.  0.
        -15    1    3    3    0    0 -0.98186153547E+02  0.11156688984E+02  0.19152503879E+03  0.21551527310E+03  0.00000000000E+00 0. -1.
        -15    1    4    4    0    0 -0.37322705324E+02 -0.28131915327E+03 -0.69541951141E+03  0.75109370067E+03  0.00000000000E+00 0.  1.
         15    1    5    5    0    0  0.39335909746E+02 -0.18522440723E+02  0.90837315157E+02  0.10070656598E+03  0.00000000000E+00 0. -1.
         15    1    3    3    0    0 -0.12203300131E+03 -0.56375159224E+02  0.12212608990E+03  0.18161771340E+03  0.00000000000E+00 0.  1.
        -16    1    5    5    0    0  0.15707816643E+03 -0.12482983196E+02  0.78586206379E+03  0.80150393545E+03  0.00000000000E+00 0.  1.
         16    1    1    2    0    0  0.14698277882E+03 -0.11599868239E+03 -0.90467596660E+02  0.20795195991E+03  0.00000000000E+00 0. -1.
    9900018    1    4    4    0    0 -0.85854994816E+02  0.47354172982E+03 -0.26055101813E+03  0.55481065370E+03  0.91187600000E+02 0.  0.
<mgrwt>
<rscale>  0 0.28095164E+04</rscale>
<asrwt>0</asrwt>
<pdfrwt beam="1">  1        2 0.20532980E+00 0.28095164E+04</pdfrwt>
<pdfrwt beam="2">  1       -2 0.22747017E+00 0.28095164E+04</pdfrwt>
<totfact> 0.12168647E+00</totfact>
</mgrwt>
</event>
<event>
12    1  0.4529991E-013  0.2811863E+04  0.7818608E-02  0.8820350E-01
         -2   -1    0    0    0  501 -0.00000000000E+00  0.00000000000E+00  0.94659861912E+03  0.94659861912E+03  0.00000000000E+00 0.  1.
          2   -1    0    0  501    0  0.00000000000E+00 -0.00000000000E+00 -0.26570787932E+04  0.26570787932E+04  0.00000000000E+00 0. -1.
         23    2    1    2    0    0  0.27624074680E+03  0.40802472542E+02 -0.41135849961E+03  0.50621221103E+03  0.95190311668E+02 0.  0.
    9900016    2    1    2    0    0 -0.70422466803E+03  0.69715442992E+02 -0.13079345409E+04  0.26553542276E+04  0.21998683334E+04 0.  0.
        -24    2    4    4    0    0 -0.68993913483E+03 -0.27551271210E+03 -0.16621158027E+04  0.18220955998E+04  0.74028161815E+02 0.  0.
        -15    1    3    3    0    0  0.75964835490E+02 -0.13666409094E+02 -0.58537729209E+02  0.96871526825E+02  0.00000000000E+00 0.  1.
        -15    1    4    4    0    0  0.57595697967E+02 -0.16844098231E+03  0.23237834048E+03  0.29272738524E+03  0.00000000000E+00 0.  1.
         15    1    3    3    0    0  0.20027591131E+03  0.54468881636E+02 -0.35282077040E+03  0.40934068420E+03  0.00000000000E+00 0. -1.
         15    1    5    5    0    0 -0.18902800440E+03 -0.10724830743E+03 -0.52453805059E+03  0.56777984502E+03  0.00000000000E+00 0. -1.
        -16    1    5    5    0    0 -0.50091113043E+03 -0.16826440467E+03 -0.11375777521E+04  0.12543157548E+04  0.00000000000E+00 0.  1.
         16    1    1    2    0    0  0.42798392123E+03 -0.11051791553E+03  0.88128664601E+01  0.44211097374E+03  0.00000000000E+00 0. -1.
    9900018    1    4    4    0    0 -0.71881231160E+02  0.51366913740E+03  0.12180292133E+03  0.54053124253E+03  0.91187600000E+02 0.  0.
<mgrwt>
<rscale>  0 0.16003219E+04</rscale>
<asrwt>0</asrwt>
<pdfrwt beam="1">  1        2 0.40878136E+00 0.28118630E+04</pdfrwt>
<pdfrwt beam="2">  1       -2 0.14563055E+00 0.28118630E+04</pdfrwt>
<totfact> 0.78381741E-01</totfact>
</mgrwt>
</event>
<event>
12    1  0.4529991E-013  0.3259327E+04  0.7818608E-02  0.8173323E-01
         -2   -1    0    0    0  501 -0.00000000000E+00  0.00000000000E+00  0.81761392562E+03  0.81761392562E+03  0.00000000000E+00 0.  1.
          2   -1    0    0  501    0  0.00000000000E+00 -0.00000000000E+00 -0.32482351915E+04  0.32482351915E+04  0.00000000000E+00 0. -1.
         23    2    1    2    0    0  0.29649611043E+03  0.26427447320E+03 -0.29778527798E+03  0.50486417083E+03  0.91982707728E+02 0.  0.
    9900016    2    1    2    0    0 -0.44608352338E+03 -0.49493415723E+03 -0.22892606621E+04  0.32446797730E+04  0.22007458101E+04 0.  0.
         24    2    4    4    0    0  0.45685204655E+03  0.16619705340E+03 -0.95640373301E+03  0.10758979168E+04  0.80702998381E+02 0.  0.
        -15    1    3    3    0    0  0.48997727486E+02  0.86512104398E+02 -0.45867217478E+02  0.10949394114E+03  0.00000000000E+00 0. -1.
        -15    1    5    5    0    0  0.98638939606E+02  0.36015024169E+02 -0.28683816234E+03  0.30545515833E+03  0.00000000000E+00 0.  1.
         15    1    4    4    0    0 -0.10977431747E+04 -0.10434895111E+03 -0.74327339488E+03  0.13298060463E+04  0.00000000000E+00 0. -1.
         15    1    3    3    0    0  0.24749838294E+03  0.17776236881E+03 -0.25191806050E+03  0.39537022970E+03  0.00000000000E+00 0.  1.
        -16    1    1    2    0    0  0.14958741295E+03  0.23065968402E+03  0.15642467419E+03  0.31630517328E+03  0.00000000000E+00 0.  1.
         16    1    5    5    0    0  0.35821310694E+03  0.13018202923E+03 -0.66956557067E+03  0.77044275851E+03  0.00000000000E+00 0. -1.
    9900018    1    4    4    0    0  0.19480760478E+03 -0.55678225951E+03 -0.58958353421E+03  0.83897580990E+03  0.91187600000E+02 0.  0.
<mgrwt>
<rscale>  0 0.32593265E+04</rscale>
<asrwt>0</asrwt>
<pdfrwt beam="1">  1        2 0.49972849E+00 0.32593265E+04</pdfrwt>
<pdfrwt beam="2">  1       -2 0.12578676E+00 0.32593265E+04</pdfrwt>
<totfact> 0.47630848E-01</totfact>
</mgrwt>
</event>
<event>
12    1  0.4529992E-013  0.3350824E+04  0.7818608E-02  0.8712758E-01
          2   -1    0    0  501    0  0.00000000000E+00  0.00000000000E+00  0.31298994769E+04  0.31298994769E+04  0.00000000000E+00 0. -1.
         -2   -1    0    0    0  501 -0.00000000000E+00 -0.00000000000E+00 -0.12103998229E+04  0.12103998229E+04  0.00000000000E+00 0.  1.
         23    2    1    2    0    0  0.23606031944E+03  0.98408302977E+02  0.73946448506E+03  0.78776392550E+03  0.91409021177E+02 0.  0.
    9900016    2    1    2    0    0  0.35026339586E+03  0.66463102679E+03  0.11292256358E+04  0.25889036362E+04  0.22051876684E+04 0.  0.
         24    2    4    4    0    0 -0.82723773031E+03  0.70394502474E+03  0.36112667628E+03  0.11473692694E+04  0.78631442281E+02 0.  0.
        -15    1    3    3    0    0  0.57851595892E+02  0.69881428256E+02  0.22761099910E+03  0.24502446424E+03  0.00000000000E+00 0. -1.
        -15    1    5    5    0    0 -0.30271255121E+03  0.28944785084E+03  0.10804777913E+03  0.43253817125E+03  0.00000000000E+00 0.  1.
         15    1    4    4    0    0  0.64880639424E+03 -0.13844601799E+03  0.32530752166E+03  0.73887889451E+03  0.00000000000E+00 0. -1.
         15    1    3    3    0    0  0.17820872354E+03  0.28526874721E+02  0.51185348595E+03  0.54273946126E+03  0.00000000000E+00 0.  1.
        -16    1    1    2    0    0 -0.58632371530E+03 -0.76303932977E+03  0.50809533131E+02  0.96363173804E+03  0.00000000000E+00 0.  1.
         16    1    5    5    0    0 -0.52452517909E+03  0.41449717390E+03  0.25307889715E+03  0.71483109813E+03  0.00000000000E+00 0. -1.
    9900018    1    4    4    0    0  0.52869473193E+03  0.99132020049E+02  0.44279143788E+03  0.70265547235E+03  0.91187600000E+02 0.  0.
<mgrwt>
<rscale>  0 0.17879053E+04</rscale>
<asrwt>0</asrwt>
<pdfrwt beam="1">  1        2 0.48152299E+00 0.33508245E+04</pdfrwt>
<pdfrwt beam="2">  1       -2 0.18621536E+00 0.33508245E+04</pdfrwt>
<totfact> 0.19323153E-01</totfact>
</mgrwt>
</event>
<event>
12    1  0.4529991E-013  0.3050743E+04  0.7818608E-02  0.8229388E-01
          1   -1    0    0  501    0  0.00000000000E+00  0.00000000000E+00  0.23179902629E+04  0.23179902629E+04  0.00000000000E+00 0. -1.
         -1   -1    0    0    0  501 -0.00000000000E+00 -0.00000000000E+00 -0.10037826248E+04  0.10037826248E+04  0.00000000000E+00 0.  1.
         23    2    1    2    0    0 -0.26126126784E+02  0.40996054943E+03  0.15169502499E+03  0.44712757678E+03  0.90340814267E+02 0.  0.
    9900016    2    1    2    0    0  0.37881500294E+02 -0.44781751105E+02  0.11934679131E+04  0.25079683767E+04  0.22050168493E+04 0.  0.
         24    2    4    4    0    0 -0.37069206985E+03  0.82869583312E+03 -0.66823649098E+01  0.91130643791E+03  0.79280358858E+02 0.  0.
        -15    1    3    3    0    0 -0.59200870244E+02  0.22191637991E+03  0.82412391257E+02  0.24401521457E+03  0.00000000000E+00 0.  1.
        -15    1    5    5    0    0 -0.26354190573E+03  0.51745710443E+03 -0.28633052909E+02  0.58140867100E+03  0.00000000000E+00 0.  1.
         15    1    3    3    0    0  0.33074743460E+02  0.18804416952E+03  0.69282633733E+02  0.20311236221E+03  0.00000000000E+00 0. -1.
         15    1    4    4    0    0  0.47112699132E+03 -0.64136270812E+03  0.89502465208E+03  0.11976543296E+04  0.00000000000E+00 0. -1.
        -16    1    1    2    0    0 -0.11755373510E+02 -0.36517879832E+03 -0.30955299955E+02  0.36667693430E+03  0.00000000000E+00 0.  1.
         16    1    5    5    0    0 -0.10715016413E+03  0.31123872869E+03  0.21950687999E+02  0.32989776691E+03  0.00000000000E+00 0. -1.
    9900018    1    4    4    0    0 -0.62553421170E+02 -0.23211487610E+03  0.30512562593E+03  0.39900760920E+03  0.91187600000E+02 0.  0.
<mgrwt>
<rscale>  0 0.30507431E+04</rscale>
<asrwt>0</asrwt>
<pdfrwt beam="1">  1        1 0.35661388E+00 0.30507431E+04</pdfrwt>
<pdfrwt beam="2">  1       -1 0.15442810E+00 0.30507431E+04</pdfrwt>
<totfact> 0.49406784E-01</totfact>
</mgrwt>
</event>
<event>
12    1  0.4529991E-013  0.3485329E+04  0.7818608E-02  0.8117275E-01
          3   -1    0    0  501    0  0.00000000000E+00  0.00000000000E+00  0.16827550075E+04  0.16827550075E+04  0.00000000000E+00 0. -1.
         -3   -1    0    0    0  501 -0.00000000000E+00 -0.00000000000E+00 -0.18047073242E+04  0.18047073242E+04  0.00000000000E+00 0.  1.
         23    2    1    2    0    0 -0.41330145847E+03 -0.11691906240E+03 -0.35329509761E+03  0.56360144182E+03  0.91329056192E+02 0.  0.
    9900016    2    1    2    0    0  0.70785841078E+03 -0.20314821168E+03 -0.18864671515E+03  0.23192138565E+04  0.21910802367E+04 0.  0.
        -24    2    4    4    0    0  0.35290296344E+02 -0.98912296399E+03 -0.47793018865E+03  0.11019331268E+04  0.78928498747E+02 0.  0.
        -15    1    3    3    0    0 -0.89330557036E+02 -0.63126828864E+02 -0.10782060139E+03  0.15359110334E+03  0.00000000000E+00 0.  1.
        -15    1    4    4    0    0  0.75427120358E+03  0.71760892098E+03  0.23791145085E+03  0.10679370161E+04  0.00000000000E+00 0.  1.
         15    1    3    3    0    0 -0.32397090144E+03 -0.53792233538E+02 -0.24547449622E+03  0.41001033848E+03  0.00000000000E+00 0. -1.
         15    1    5    5    0    0  0.36889454892E+02 -0.94140044001E+03 -0.43490842787E+03  0.10376612940E+04  0.00000000000E+00 0. -1.
        -16    1    5    5    0    0 -0.15991585478E+01 -0.47722523974E+02 -0.43021760783E+02  0.64271832892E+02  0.00000000000E+00 0.  1.
         16    1    1    2    0    0 -0.29455695231E+03  0.32006727408E+03  0.41998949609E+03  0.60464703333E+03  0.00000000000E+00 0. -1.
    9900018    1    4    4    0    0 -0.81703089139E+02  0.68365831329E+02  0.51372022652E+02  0.14934371354E+03  0.91187600000E+02 0.  0.
<mgrwt>
<rscale>  0 0.34853294E+04</rscale>
<asrwt>0</asrwt>
<pdfrwt beam="1">  1        3 0.25888539E+00 0.34853294E+04</pdfrwt>
<pdfrwt beam="2">  1       -3 0.27764728E+00 0.34853294E+04</pdfrwt>
<totfact> 0.70898628E-03</totfact>
</mgrwt>
</event>
<event>
12    1  0.4529991E-013  0.2485705E+04  0.7818608E-02  0.8983196E-01
         -1   -1    0    0    0  501 -0.00000000000E+00  0.00000000000E+00  0.10074725462E+04  0.10074725462E+04  0.00000000000E+00 0.  1.
          1   -1    0    0  501    0  0.00000000000E+00 -0.00000000000E+00 -0.18222892726E+04  0.18222892726E+04  0.00000000000E+00 0. -1.
         23    2    1    2    0    0 -0.72617557651E+02 -0.19131926248E+03 -0.42553037801E+02  0.22685573738E+03  0.88183868610E+02 0.  0.
    9900016    2    1    2    0    0  0.51688917169E+02 -0.84835324209E+02 -0.56508467826E+03  0.22570412146E+04  0.21828984343E+04 0.  0.
        -24    2    4    4    0    0  0.76634021160E+03  0.11737562300E+03 -0.91477837695E+03  0.12019795192E+04  0.82951364659E+02 0.  0.
        -15    1    3    3    0    0 -0.78198487015E+02 -0.11536131228E+03  0.49716452416E+00  0.13936815603E+03  0.00000000000E+00 0. -1.
        -15    1    4    4    0    0 -0.20091080932E+03  0.10994525067E+03  0.38286708276E+03  0.44613934427E+03  0.00000000000E+00 0.  1.
         15    1    5    5    0    0  0.23948080460E+03 -0.78926731373E+00 -0.26654386159E+03  0.35832570221E+03  0.00000000000E+00 0. -1.
         15    1    3    3    0    0  0.55809293645E+01 -0.75957950197E+02 -0.43050202325E+02  0.87487581353E+02  0.00000000000E+00 0.  1.
        -16    1    5    5    0    0  0.52685940700E+03  0.11816489031E+03 -0.64823451537E+03  0.84365381701E+03  0.00000000000E+00 0.  1.
         16    1    1    2    0    0  0.20928640481E+02  0.27615458669E+03 -0.20717901032E+03  0.34586486676E+03  0.00000000000E+00 0. -1.
    9900018    1    4    4    0    0 -0.51374048511E+03 -0.31215619787E+03 -0.33173384067E+02  0.60892235114E+03  0.91187600000E+02 0.  0.
<mgrwt>
<rscale>  0 0.13601290E+04</rscale>
<asrwt>0</asrwt>
<pdfrwt beam="1">  1        1 0.28035219E+00 0.24857049E+04</pdfrwt>
<pdfrwt beam="2">  1       -1 0.15499578E+00 0.24857049E+04</pdfrwt>
<totfact> 0.11089309E+00</totfact>
</mgrwt>
</event>
<event>
12    1  0.4529991E-013  0.3041016E+04  0.7818608E-02  0.8659071E-01
         -2   -1    0    0    0  501 -0.00000000000E+00  0.00000000000E+00  0.16979364787E+04  0.16979364787E+04  0.00000000000E+00 0.  1.
          2   -1    0    0  501    0  0.00000000000E+00 -0.00000000000E+00 -0.18323217163E+04  0.18323217163E+04  0.00000000000E+00 0. -1.
         23    2    1    2    0    0 -0.72438297674E+02 -0.43992341967E+03 -0.17838729615E+03  0.48892424059E+03  0.91896482281E+02 0.  0.
    9900016    2    1    2    0    0  0.63445266881E+03 -0.53465582082E+02 -0.10434289853E+01  0.22921197285E+04  0.22019134869E+04 0.  0.
         24    2    4    4    0    0  0.30903342195E+03  0.82178106028E+03 -0.54670676972E+03  0.10373898065E+04  0.80396216146E+02 0.  0.
        -15    1    5    5    0    0  0.18553267015E+03  0.48284240733E+03 -0.27533973251E+03  0.58597877974E+03  0.00000000000E+00 0.  1.
        -15    1    3    3    0    0 -0.84530697037E+02 -0.33299965612E+03 -0.16284967934E+03  0.38020287713E+03  0.00000000000E+00 0.  1.
         15    1    4    4    0    0  0.38077473519E+03 -0.69687812627E+03  0.64623661373E+03  0.10238409460E+04  0.00000000000E+00 0. -1.
         15    1    3    3    0    0  0.12092399363E+02 -0.10692376355E+03 -0.15537616810E+02  0.10872136345E+03  0.00000000000E+00 0. -1.
        -16    1    1    2    0    0 -0.56201437114E+03  0.49338900176E+03  0.45045487517E+02  0.74921422595E+03  0.00000000000E+00 0.  1.
         16    1    5    5    0    0  0.12350075180E+03  0.33893865295E+03 -0.27136703720E+03  0.45141102672E+03  0.00000000000E+00 0. -1.
    9900018    1    4    4    0    0 -0.55355488327E+02 -0.17836851609E+03 -0.10057327300E+03  0.23088897604E+03  0.91187600000E+02 0.  0.
<mgrwt>
<rscale>  0 0.18915561E+04</rscale>
<asrwt>0</asrwt>
<pdfrwt beam="1">  1        2 0.28189565E+00 0.30410156E+04</pdfrwt>
<pdfrwt beam="2">  1       -2 0.26122100E+00 0.30410156E+04</pdfrwt>
<totfact> 0.38088659E-01</totfact>
</mgrwt>
</event>
<event>
12    1  0.4529991E-013  0.3454959E+04  0.7818608E-02  0.8902831E-01
          2   -1    0    0  501    0  0.00000000000E+00  0.00000000000E+00  0.35325180038E+04  0.35325180038E+04  0.00000000000E+00 0.  1.
         -2   -1    0    0    0  501 -0.00000000000E+00 -0.00000000000E+00 -0.94663192740E+03  0.94663192740E+03  0.00000000000E+00 0. -1.
         23    2    1    2    0    0 -0.54013129388E+02 -0.43283713916E+02 -0.58654556812E+02  0.12824922489E+03  0.90645510721E+02 0.  0.
    9900016    2    1    2    0    0  0.67505712949E+03 -0.75615298147E+03  0.20157536491E+04  0.31591927927E+04  0.22112817252E+04 0.  0.
         24    2    4    4    0    0  0.44911344571E+03 -0.10455983115E+04  0.17275604608E+04  0.20702379690E+04  0.80258247148E+02 0.  0.
        -15    1    3    3    0    0  0.55588101005E+01  0.12508404722E+02 -0.43022187501E+02  0.45147194551E+02  0.00000000000E+00 0. -1.
        -15    1    5    5    0    0  0.33666055303E+03 -0.69403202614E+03  0.11457373304E+04  0.13812077366E+04  0.00000000000E+00 0.  1.
         15    1    3    3    0    0 -0.59571939488E+02 -0.55792118638E+02 -0.15632369311E+02  0.83102030341E+02  0.00000000000E+00 0.  1.
         15    1    4    4    0    0  0.85066135977E+02  0.53358019937E+03  0.49087950462E+03  0.73000463334E+03  0.00000000000E+00 0. -1.
        -16    1    1    2    0    0 -0.62104400010E+03  0.79943669539E+03  0.62878698412E+03  0.11917079136E+04  0.00000000000E+00 0.  1.
         16    1    5    5    0    0  0.11245289268E+03 -0.35156628531E+03  0.58182313039E+03  0.68903023236E+03  0.00000000000E+00 0. -1.
    9900018    1    4    4    0    0  0.14087754780E+03 -0.24413486939E+03 -0.20268631638E+03  0.35895019037E+03  0.91187600000E+02 0.  0.
<mgrwt>
<rscale>  0 0.14726734E+04</rscale>
<asrwt>0</asrwt>
<pdfrwt beam="1">  1        2 0.54346430E+00 0.34549590E+04</pdfrwt>
<pdfrwt beam="2">  1       -2 0.14563568E+00 0.34549590E+04</pdfrwt>
<totfact> 0.20438096E-01</totfact>
</mgrwt>
</event>
<event>
12    1  0.4529991E-013  0.3327129E+04  0.7818608E-02  0.8688206E-01
         -2   -1    0    0    0  501 -0.00000000000E+00  0.00000000000E+00  0.22774269380E+04  0.22774269380E+04  0.00000000000E+00 0. -1.
          2   -1    0    0  501    0  0.00000000000E+00 -0.00000000000E+00 -0.23690504459E+04  0.23690504459E+04  0.00000000000E+00 0.  1.
         23    2    1    2    0    0  0.15548720785E+02  0.29329047826E+03  0.10770421832E+04  0.11200672925E+04  0.90938485111E+02 0.  0.
    9900016    2    1    2    0    0 -0.62339906726E+03  0.41616172167E+03 -0.50815812585E+03  0.23822620628E+04  0.22034361528E+04 0.  0.
        -24    2    4    4    0    0  0.31835416061E+02 -0.22877221500E+03  0.52406637634E+03  0.57860466034E+03  0.82386686335E+02 0.  0.
        -15    1    3    3    0    0 -0.15372780197E+02  0.22048578688E+03  0.88906299810E+03  0.91612407412E+03  0.00000000000E+00 0.  1.
        -15    1    4    4    0    0 -0.18465892428E+03  0.84918583278E+03 -0.33074118185E+03  0.92984150600E+03  0.00000000000E+00 0.  1.
         15    1    3    3    0    0  0.30921500982E+02  0.72804691378E+02  0.18797918506E+03  0.20394321838E+03  0.00000000000E+00 0. -1.
         15    1    5    5    0    0 -0.38538759111E+01 -0.12964311099E+03  0.36901415321E+03  0.39114400655E+03  0.00000000000E+00 0. -1.
        -16    1    5    5    0    0  0.35689291972E+02 -0.99129104014E+02  0.15505222313E+03  0.18746065379E+03  0.00000000000E+00 0.  1.
         16    1    1    2    0    0  0.60785034647E+03 -0.70945219992E+03 -0.66050756521E+03  0.11441480286E+04  0.00000000000E+00 0. -1.
    9900018    1    4    4    0    0 -0.47057555903E+03 -0.20425189612E+03 -0.70148332034E+03  0.87381589648E+03  0.91187600000E+02 0.  0.
<mgrwt>
<rscale>  0 0.18344208E+04</rscale>
<asrwt>0</asrwt>
<pdfrwt beam="1">  1        2 0.36446930E+00 0.33271292E+04</pdfrwt>
<pdfrwt beam="2">  1       -2 0.35037338E+00 0.33271292E+04</pdfrwt>
<totfact> 0.51205617E-02</totfact>
</mgrwt>
</event>
<event>
12    1  0.4529991E-013  0.2827694E+04  0.7818608E-02  0.8294722E-01
         -2   -1    0    0    0  501 -0.00000000000E+00  0.00000000000E+00  0.43098451945E+03  0.43098451945E+03  0.00000000000E+00 0.  1.
          2   -1    0    0  501    0  0.00000000000E+00 -0.00000000000E+00 -0.46381341954E+04  0.46381341954E+04  0.00000000000E+00 0. -1.
         23    2    1    2    0    0  0.53860527303E+02  0.22215853917E+03 -0.64240248846E+02  0.25577102777E+03  0.95061223140E+02 0.  0.
    9900016    2    1    2    0    0  0.10215827979E+03 -0.66709490792E+02 -0.39140731255E+04  0.44957436447E+04  0.22083604816E+04 0.  0.
        -24    2    4    4    0    0  0.60589272632E+03  0.39250994984E+03 -0.29329079332E+04  0.30215381937E+04  0.81080544972E+02 0.  0.
        -15    1    4    4    0    0 -0.67343879250E+03 -0.23755659730E+03 -0.38893491129E+03  0.81315638680E+03  0.00000000000E+00 0.  1.
        -15    1    3    3    0    0  0.12908003749E+02  0.20106078943E+03 -0.50732663332E+02  0.20776395437E+03  0.00000000000E+00 0. -1.
         15    1    5    5    0    0  0.45852258928E+03  0.26873685706E+03 -0.20368697031E+04  0.21050654742E+04  0.00000000000E+00 0. -1.
         15    1    3    3    0    0  0.40952523553E+02  0.21097749740E+02 -0.13507585514E+02  0.48007073395E+02  0.00000000000E+00 0.  1.
        -16    1    5    5    0    0  0.14737013704E+03  0.12377309278E+03 -0.89603823006E+03  0.91647271946E+03  0.00000000000E+00 0.  1.
         16    1    1    2    0    0 -0.15601880709E+03 -0.15544904838E+03 -0.22883630161E+03  0.31760404239E+03  0.00000000000E+00 0. -1.
    9900018    1    4    4    0    0  0.16970434597E+03 -0.22166284334E+03 -0.59223028098E+03  0.66104906418E+03  0.91187600000E+02 0.  0.
<mgrwt>
<rscale>  0 0.28276945E+04</rscale>
<asrwt>0</asrwt>
<pdfrwt beam="1">  1        2 0.71355912E+00 0.28276945E+04</pdfrwt>
<pdfrwt beam="2">  1       -2 0.66305309E-01 0.28276945E+04</pdfrwt>
<totfact> 0.16227469E-01</totfact>
</mgrwt>
</event>
<event>
12    1  0.4529991E-013  0.2455085E+04  0.7818608E-02  0.9222838E-01
         -1   -1    0    0    0  501 -0.00000000000E+00  0.00000000000E+00  0.14417567765E+04  0.14417567765E+04  0.00000000000E+00 0.  1.
          1   -1    0    0  501    0  0.00000000000E+00 -0.00000000000E+00 -0.11710772220E+04  0.11710772220E+04  0.00000000000E+00 0. -1.
         23    2    1    2    0    0  0.28707398861E+02  0.32822250056E+01 -0.92631939637E+02  0.13101255797E+03  0.88026850192E+02 0.  0.
    9900016    2    1    2    0    0 -0.26025138201E+03 -0.70480672308E+02  0.29367214785E+03  0.22308674886E+04  0.21949551509E+04 0.  0.
         24    2    4    4    0    0 -0.55959924238E+03  0.76357583071E+03  0.54872003293E+03  0.10974991064E+04  0.84919094537E+02 0.  0.
        -15    1    3    3    0    0  0.46937136043E+02 -0.15067210673E+02 -0.92873819024E+02  0.10514590737E+03  0.00000000000E+00 0.  1.
        -15    1    5    5    0    0 -0.53077107880E+03  0.73487850404E+03  0.50460284026E+03  0.10374913880E+04  0.00000000000E+00 0.  1.
         15    1    3    3    0    0 -0.18229737181E+02  0.18349435679E+02  0.24187938745E+00  0.25866650596E+02  0.00000000000E+00 0. -1.
         15    1    4    4    0    0 -0.14830558424E+03 -0.52517922555E+03 -0.19108902161E+03  0.57820651972E+03  0.00000000000E+00 0. -1.
        -16    1    1    2    0    0  0.23154398315E+03  0.67198447303E+02  0.69639346293E+02  0.25095395196E+03  0.00000000000E+00 0.  1.
         16    1    5    5    0    0 -0.28828163576E+02  0.28697326663E+02  0.44117192665E+02  0.60007718349E+02  0.00000000000E+00 0. -1.
    9900018    1    4    4    0    0  0.44765344461E+03 -0.30887727746E+03 -0.63958863473E+02  0.55516186254E+03  0.91187600000E+02 0.  0.
<mgrwt>
<rscale>  0 0.10820783E+04</rscale>
<asrwt>0</asrwt>
<pdfrwt beam="1">  1        1 0.18016573E+00 0.24550850E+04</pdfrwt>
<pdfrwt beam="2">  1       -1 0.22180874E+00 0.24550850E+04</pdfrwt>
<totfact> 0.10660918E+00</totfact>
</mgrwt>
</event>
<event>
12    1  0.4529991E-013  0.3651780E+04  0.7818608E-02  0.8078733E-01
          1   -1    0    0  501    0  0.00000000000E+00  0.00000000000E+00  0.26281792847E+04  0.26281792847E+04  0.00000000000E+00 0. -1.
         -1   -1    0    0    0  501 -0.00000000000E+00 -0.00000000000E+00 -0.12685112323E+04  0.12685112323E+04  0.00000000000E+00 0.  1.
         23    2    1    2    0    0 -0.23523435642E+03 -0.67012591125E+03  0.13715722909E+03  0.72943031215E+03  0.94087913323E+02 0.  0.
    9900016    2    1    2    0    0 -0.79951995706E+02  0.21109123674E+03  0.56197386761E+03  0.23033364010E+04  0.22222943361E+04 0.  0.
         24    2    4    4    0    0 -0.46667780746E+03  0.76811199837E+02  0.49703313325E+03  0.69069508823E+03  0.79558990461E+02 0.  0.
        -15    1    5    5    0    0 -0.29687178435E+03  0.22096055678E+02  0.35024399616E+03  0.45966503985E+03  0.00000000000E+00 0.  1.
        -15    1    3    3    0    0 -0.21818591966E+03 -0.62864117515E+03  0.15128056299E+03  0.68240796549E+03  0.00000000000E+00 0. -1.
         15    1    3    3    0    0 -0.17048436751E+02 -0.41484736098E+02 -0.14123333900E+02  0.47022346658E+02  0.00000000000E+00 0.  1.
         15    1    4    4    0    0  0.94781556790E+03  0.23857701790E+03 -0.16393051192E+03  0.99103307561E+03  0.00000000000E+00 0. -1.
        -16    1    1    2    0    0  0.31518635212E+03  0.45903467451E+03  0.66053695575E+03  0.86392380386E+03  0.00000000000E+00 0.  1.
         16    1    5    5    0    0 -0.16980602312E+03  0.54715144159E+02  0.14678913709E+03  0.23103004838E+03  0.00000000000E+00 0. -1.
    9900018    1    4    4    0    0 -0.56108975614E+03 -0.10429698100E+03  0.22887124628E+03  0.62160823712E+03  0.91187600000E+02 0.  0.
<mgrwt>
<rscale>  0 0.36517804E+04</rscale>
<asrwt>0</asrwt>
<pdfrwt beam="1">  1        1 0.40433527E+00 0.36517804E+04</pdfrwt>
<pdfrwt beam="2">  1       -1 0.19515557E+00 0.36517804E+04</pdfrwt>
<totfact> 0.14439685E-01</totfact>
</mgrwt>
</event>
<event>
12    1  0.4529991E-013  0.2944427E+04  0.7818608E-02  0.8813054E-01
         -1   -1    0    0    0  501 -0.00000000000E+00  0.00000000000E+00  0.78929294508E+03  0.78929294508E+03  0.00000000000E+00 0.  1.
          1   -1    0    0  501    0  0.00000000000E+00 -0.00000000000E+00 -0.32991653864E+04  0.32991653864E+04  0.00000000000E+00 0. -1.
         23    2    1    2    0    0 -0.29573768881E+02  0.24700440510E+03 -0.97786180526E+02  0.28217281366E+03  0.90407829978E+02 0.  0.
    9900016    2    1    2    0    0 -0.39573536008E+03  0.77937689684E+02 -0.24111709118E+04  0.32710509356E+04  0.21733265513E+04 0.  0.
         24    2    4    4    0    0  0.10531554264E+03 -0.25063222476E+03  0.17823482799E+03  0.33491157677E+03  0.80561993153E+02 0.  0.
        -15    1    5    5    0    0  0.71117089175E+02 -0.13942225336E+03  0.56190531338E+02  0.16629365868E+03  0.00000000000E+00 0.  1.
        -15    1    3    3    0    0 -0.59517186399E+02  0.12288622275E+03 -0.42148042209E+02  0.14289778403E+03  0.00000000000E+00 0. -1.
         15    1    4    4    0    0 -0.67459695278E+03  0.68634156953E+03 -0.16184154037E+04  0.18829270346E+04  0.00000000000E+00 0. -1.
         15    1    3    3    0    0  0.29943417518E+02  0.12411818235E+03 -0.55638138318E+02  0.13927502963E+03  0.00000000000E+00 0.  1.
        -16    1    1    2    0    0  0.42530912896E+03 -0.32494209479E+03 -0.91534899918E+00  0.53523458222E+03  0.00000000000E+00 0.  1.
         16    1    5    5    0    0  0.34198453468E+02 -0.11120997139E+03  0.12204429665E+03  0.16861791809E+03  0.00000000000E+00 0. -1.
    9900018    1    4    4    0    0  0.17354605006E+03 -0.35777165509E+03 -0.97099033611E+03  0.10532123242E+04  0.91187600000E+02 0.  0.
<mgrwt>
<rscale>  0 0.16122554E+04</rscale>
<asrwt>0</asrwt>
<pdfrwt beam="1">  1        1 0.50756390E+00 0.29444268E+04</pdfrwt>
<pdfrwt beam="2">  1       -1 0.12142968E+00 0.29444268E+04</pdfrwt>
<totfact> 0.18225695E-01</totfact>
</mgrwt>
</event>
<event>
12    1  0.4529991E-013  0.2813160E+04  0.7818608E-02  0.8781307E-01
          2   -1    0    0  501    0  0.00000000000E+00  0.00000000000E+00  0.11296354787E+04  0.11296354787E+04  0.00000000000E+00 0. -1.
         -2   -1    0    0    0  501 -0.00000000000E+00 -0.00000000000E+00 -0.22327653369E+04  0.22327653369E+04  0.00000000000E+00 0.  1.
         23    2    1    2    0    0 -0.19411597253E+03 -0.27126438072E+03 -0.23653795648E+03  0.41878898559E+03  0.90380498781E+02 0.  0.
    9900016    2    1    2    0    0  0.23851621611E+03 -0.16931855094E+03 -0.10046878128E+04  0.24797635984E+04  0.22481706220E+04 0.  0.
        -24    2    4    4    0    0 -0.47434981402E+03 -0.87047516618E+03 -0.17922644099E+03  0.10105736408E+04  0.80013781882E+02 0.  0.
        -15    1    4    4    0    0  0.20867424143E+03  0.22292826680E+03 -0.69109716246E+03  0.75555095072E+03  0.00000000000E+00 0.  1.
        -15    1    3    3    0    0 -0.20367901870E+03 -0.25511786208E+03 -0.21900879795E+03  0.39310955189E+03  0.00000000000E+00 0.  1.
         15    1    3    3    0    0  0.95630461732E+01 -0.16146518641E+02 -0.17529158524E+02  0.25679433695E+02  0.00000000000E+00 0. -1.
         15    1    5    5    0    0 -0.20914138338E+03 -0.42904419727E+03 -0.12037514393E+03  0.49224914091E+03  0.00000000000E+00 0. -1.
        -16    1    5    5    0    0 -0.26520843064E+03 -0.44143096891E+03 -0.58851297054E+02  0.51832449986E+03  0.00000000000E+00 0.  1.
         16    1    1    2    0    0 -0.44400243584E+02  0.44058293167E+03  0.13809591105E+03  0.46384823160E+03  0.00000000000E+00 0. -1.
    9900018    1    4    4    0    0  0.50419178870E+03  0.47822834843E+03 -0.13436420934E+03  0.71363900691E+03  0.91187600000E+02 0.  0.
<mgrwt>
<rscale>  0 0.16654700E+04</rscale>
<asrwt>0</asrwt>
<pdfrwt beam="1">  1        2 0.17379008E+00 0.28131600E+04</pdfrwt>
<pdfrwt beam="2">  1       -2 0.34350235E+00 0.28131600E+04</pdfrwt>
<totfact> 0.30677722E-01</totfact>
</mgrwt>
</event>
<event>
12    1  0.4529991E-013  0.2695715E+04  0.7818608E-02  0.8336397E-01
          2   -1    0    0  501    0  0.00000000000E+00  0.00000000000E+00  0.18381725140E+04  0.18381725140E+04  0.00000000000E+00 0. -1.
         -2   -1    0    0    0  501 -0.00000000000E+00 -0.00000000000E+00 -0.98832955212E+03  0.98832955212E+03  0.00000000000E+00 0.  1.
         23    2    1    2    0    0  0.23625982807E+03  0.48944025808E+02  0.31538194949E+03  0.40721976725E+03  0.90265944592E+02 0.  0.
    9900016    2    1    2    0    0 -0.80635971605E+02 -0.77226541144E+02  0.54703761987E+03  0.22606101323E+04  0.21905802688E+04 0.  0.
         24    2    4    4    0    0 -0.46057932178E+03 -0.83165215834E+03  0.32471197160E+03  0.10078834343E+04  0.81317454707E+02 0.  0.
        -15    1    5    5    0    0 -0.28113475957E+03 -0.52398446338E+03  0.16205651188E+03  0.61632684831E+03  0.00000000000E+00 0.  1.
        -15    1    3    3    0    0  0.48640511499E+02  0.42582801671E+02  0.11975548156E+03  0.13609029988E+03  0.00000000000E+00 0. -1.
         15    1    4    4    0    0  0.17704149786E+03  0.81360033142E+03  0.43492074728E+03  0.93938556923E+03  0.00000000000E+00 0. -1.
         15    1    3    3    0    0  0.18761931657E+03  0.63612241378E+01  0.19562646793E+03  0.27112946737E+03  0.00000000000E+00 0.  1.
        -16    1    1    2    0    0 -0.15562385647E+03  0.28282515335E+02 -0.12576607524E+02  0.15867216653E+03  0.00000000000E+00 0.  1.
         16    1    5    5    0    0 -0.17944456221E+03 -0.30766769495E+03  0.16265545972E+03  0.39155658595E+03  0.00000000000E+00 0. -1.
    9900018    1    4    4    0    0  0.20290185232E+03 -0.59174714231E+02 -0.21259509902E+03  0.31334112880E+03  0.91187600000E+02 0.  0.
<mgrwt>
<rscale>  0 0.26957153E+04</rscale>
<asrwt>0</asrwt>
<pdfrwt beam="1">  1        2 0.28279577E+00 0.26957153E+04</pdfrwt>
<pdfrwt beam="2">  1       -2 0.15205070E+00 0.26957153E+04</pdfrwt>
<totfact> 0.20844933E+00</totfact>
</mgrwt>
</event>
<event>
12    1  0.4529991E-013  0.3448758E+04  0.7818608E-02  0.8126042E-01
          2   -1    0    0  501    0  0.00000000000E+00  0.00000000000E+00  0.41612281100E+04  0.41612281100E+04  0.00000000000E+00 0. -1.
         -2   -1    0    0    0  501 -0.00000000000E+00 -0.00000000000E+00 -0.71456849974E+03  0.71456849974E+03  0.00000000000E+00 0.  1.
         23    2    1    2    0    0  0.35478574512E+03 -0.19260909965E+03 -0.91965751774E+02  0.42441301391E+03  0.93260477522E+02 0.  0.
    9900016    2    1    2    0    0 -0.49388761162E+03  0.21737998703E+03  0.36349429281E+04  0.42803865209E+04  0.21949304423E+04 0.  0.
         24    2    4    4    0    0 -0.10183607529E+04  0.55236790553E+03  0.16244612947E+04  0.19968501347E+04  0.79793711443E+02 0.  0.
        -15    1    3    3    0    0  0.87856224324E+02 -0.27418257779E+02 -0.57727901953E+02  0.10864155594E+03  0.00000000000E+00 0.  1.
        -15    1    5    5    0    0 -0.76649095463E+03  0.41940118657E+03  0.11643063437E+04  0.14556836885E+04  0.00000000000E+00 0.  1.
         15    1    4    4    0    0  0.60602026767E+03 -0.38259745885E+03  0.83349530474E+03  0.10992523838E+04  0.00000000000E+00 0. -1.
         15    1    3    3    0    0  0.26692952080E+03 -0.16519084188E+03 -0.34237849821E+02  0.31577145798E+03  0.00000000000E+00 0. -1.
        -16    1    1    2    0    0  0.13910186650E+03 -0.24770887371E+02 -0.96317565974E+02  0.17099707495E+03  0.00000000000E+00 0.  1.
         16    1    5    5    0    0 -0.25186979827E+03  0.13296671896E+03  0.46015495091E+03  0.54116644619E+03  0.00000000000E+00 0. -1.
    9900018    1    4    4    0    0 -0.81547126392E+02  0.47609540354E+02  0.11769863287E+04  0.11842840024E+04  0.91187600000E+02 0.  0.
<mgrwt>
<rscale>  0 0.34487578E+04</rscale>
<asrwt>0</asrwt>
<pdfrwt beam="1">  1        2 0.64018893E+00 0.34487578E+04</pdfrwt>
<pdfrwt beam="2">  1       -2 0.10993362E+00 0.34487578E+04</pdfrwt>
<totfact> 0.13593883E-01</totfact>
</mgrwt>
</event>
<event>
12    1  0.4529991E-013  0.2624681E+04  0.7818608E-02  0.9005791E-01
         -2   -1    0    0    0  501 -0.00000000000E+00  0.00000000000E+00  0.57588831182E+03  0.57588831182E+03  0.00000000000E+00 0.  1.
          2   -1    0    0  501    0  0.00000000000E+00 -0.00000000000E+00 -0.34002334545E+04  0.34002334545E+04  0.00000000000E+00 0. -1.
         23    2    1    2    0    0 -0.12215087361E+03  0.85052661045E+02 -0.15357043560E+03  0.23152749538E+03  0.88692228251E+02 0.  0.
    9900016    2    1    2    0    0 -0.11576328900E+03  0.45174188407E+02 -0.26843375285E+04  0.34730318818E+04  0.22001910460E+04 0.  0.
         24    2    4    4    0    0 -0.33693528592E+03  0.77457507184E+03 -0.24443257945E+04  0.25873914436E+04  0.79837109287E+02 0.  0.
        -15    1    3    3    0    0 -0.64853027393E+02  0.41406168622E+02 -0.13774914931E+03  0.15778217294E+03  0.00000000000E+00 0. -1.
        -15    1    5    5    0    0 -0.15666927098E+03  0.43574204584E+03 -0.12571292312E+04  0.13396978372E+04  0.00000000000E+00 0.  1.
         15    1    4    4    0    0  0.19302388708E+03 -0.68930445598E+03 -0.28794827322E+03  0.77156533234E+03  0.00000000000E+00 0. -1.
         15    1    3    3    0    0 -0.57297846215E+02  0.43646492424E+02 -0.15821286288E+02  0.73745322439E+02  0.00000000000E+00 0.  1.
        -16    1    1    2    0    0  0.23791416261E+03 -0.13022684945E+03  0.13562821348E+02  0.27156238917E+03  0.00000000000E+00 0.  1.
         16    1    5    5    0    0 -0.18026601494E+03  0.33883302600E+03 -0.11871965633E+04  0.12476936064E+04  0.00000000000E+00 0. -1.
    9900018    1    4    4    0    0  0.28148109842E+02 -0.40096427445E+02  0.47936539272E+02  0.11407510584E+03  0.91187600000E+02 0.  0.
<mgrwt>
<rscale>  0 0.13304106E+04</rscale>
<asrwt>0</asrwt>
<pdfrwt beam="1">  1        2 0.52311283E+00 0.26246807E+04</pdfrwt>
<pdfrwt beam="2">  1       -2 0.88598204E-01 0.26246807E+04</pdfrwt>
<totfact> 0.91793583E-01</totfact>
</mgrwt>
</event>
<event>
12    1  0.4529991E-013  0.3559518E+04  0.7818608E-02  0.8099828E-01
          1   -1    0    0  501    0  0.00000000000E+00  0.00000000000E+00  0.30272728316E+04  0.30272728316E+04  0.00000000000E+00 0. -1.
         -1   -1    0    0    0  501 -0.00000000000E+00 -0.00000000000E+00 -0.10463351308E+04  0.10463351308E+04  0.00000000000E+00 0.  1.
         23    2    1    2    0    0 -0.17072042358E+03 -0.18110312540E+03  0.11033969392E+04  0.11348392275E+04  0.91822992532E+02 0.  0.
    9900016    2    1    2    0    0  0.98776909893E+02  0.35132657696E+03  0.12252998847E+04  0.25449562157E+04  0.22005124609E+04 0.  0.
         24    2    4    4    0    0  0.79476788635E+03 -0.95103477905E+02 -0.20176389069E+03  0.82900179841E+03  0.76384877436E+02 0.  0.
        -15    1    5    5    0    0  0.60989233636E+03 -0.71560996517E+02 -0.12098960208E+03  0.62588187543E+03  0.00000000000E+00 0.  1.
        -15    1    3    3    0    0 -0.10108924820E+03 -0.12183925448E+03  0.86775985186E+03  0.88208332970E+03  0.00000000000E+00 0. -1.
         15    1    4    4    0    0 -0.47549413405E+03  0.11034381468E+03  0.48709920050E+03  0.68959122680E+03  0.00000000000E+00 0. -1.
         15    1    3    3    0    0 -0.69631175382E+02 -0.59263870922E+02  0.23563708729E+03  0.25275589783E+03  0.00000000000E+00 0.  1.
        -16    1    1    2    0    0  0.71943513688E+02 -0.17022345155E+03 -0.34775912303E+03  0.39381251919E+03  0.00000000000E+00 0.  1.
         16    1    5    5    0    0  0.18487554998E+03 -0.23542481388E+02 -0.80774288607E+02  0.20311992298E+03  0.00000000000E+00 0. -1.
    9900018    1    4    4    0    0 -0.22049684240E+03  0.33608624018E+03  0.93996457490E+03  0.10263631905E+04  0.91187600000E+02 0.  0.
<mgrwt>
<rscale>  0 0.35595179E+04</rscale>
<asrwt>0</asrwt>
<pdfrwt beam="1">  1        1 0.46573428E+00 0.35595179E+04</pdfrwt>
<pdfrwt beam="2">  1       -1 0.16097464E+00 0.35595179E+04</pdfrwt>
<totfact> 0.13305424E-01</totfact>
</mgrwt>
</event>
<event>
12    1  0.4529991E-013  0.4045321E+04  0.7818608E-02  0.7995466E-01
          2   -1    0    0  501    0  0.00000000000E+00  0.00000000000E+00  0.29791113365E+04  0.29791113365E+04  0.00000000000E+00 0. -1.
         -2   -1    0    0    0  501 -0.00000000000E+00 -0.00000000000E+00 -0.13732804165E+04  0.13732804165E+04  0.00000000000E+00 0.  1.
         23    2    1    2    0    0 -0.46553694413E+03  0.33418673094E+03  0.57160976230E+03  0.81456856855E+03  0.91535867440E+02 0.  0.
    9900016    2    1    2    0    0  0.29160287496E+03 -0.41867393073E+02 -0.22791547753E+03  0.22306535161E+04  0.21993372931E+04 0.  0.
        -24    2    4    4    0    0  0.73419629150E+03  0.31118246824E+03 -0.10443381206E+03  0.80833195667E+03  0.81335158925E+02 0.  0.
        -15    1    4    4    0    0 -0.82992449464E+03 -0.20576956437E+03 -0.36992302514E+03  0.93164307809E+03  0.00000000000E+00 0.  1.
        -15    1    3    3    0    0 -0.41530870278E+03  0.29754877197E+03  0.54476267266E+03  0.74684868603E+03  0.00000000000E+00 0. -1.
         15    1    3    3    0    0 -0.50228241343E+02  0.36637958970E+02  0.26847089648E+02  0.67719882520E+02  0.00000000000E+00 0.  1.
         15    1    5    5    0    0  0.29058270340E+03  0.16636025904E+03 -0.48838089605E+02  0.33837730760E+03  0.00000000000E+00 0. -1.
        -16    1    5    5    0    0  0.44361358810E+03  0.14482220920E+03 -0.55595722452E+02  0.46995464907E+03  0.00000000000E+00 0.  1.
         16    1    1    2    0    0  0.17393406917E+03 -0.29231933786E+03  0.12621366352E+04  0.13071696683E+04  0.00000000000E+00 0. -1.
    9900018    1    4    4    0    0  0.38733107810E+03 -0.14728029695E+03  0.24644135966E+03  0.49067848137E+03  0.91187600000E+02 0.  0.
<mgrwt>
<rscale>  0 0.40453209E+04</rscale>
<asrwt>0</asrwt>
<pdfrwt beam="1">  1        2 0.45832482E+00 0.40453209E+04</pdfrwt>
<pdfrwt beam="2">  1       -2 0.21127391E+00 0.40453209E+04</pdfrwt>
<totfact> 0.15839418E-01</totfact>
</mgrwt>
</event>
<event>
12    1  0.4529991E-013  0.3367026E+04  0.7818608E-02  0.8632037E-01
          2   -1    0    0  501    0  0.00000000000E+00  0.00000000000E+00  0.19888960989E+04  0.19888960989E+04  0.00000000000E+00 0. -1.
         -2   -1    0    0    0  501 -0.00000000000E+00 -0.00000000000E+00 -0.18359252168E+04  0.18359252168E+04  0.00000000000E+00 0.  1.
         23    2    1    2    0    0 -0.39357890438E+02  0.36250768342E+03 -0.22240160961E+03  0.43693611641E+03  0.92140272345E+02 0.  0.
    9900016    2    1    2    0    0  0.11894885688E+03 -0.10830141499E+04 -0.18852902562E+03  0.24694902890E+04  0.22081147195E+04 0.  0.
        -24    2    4    4    0    0  0.68995739051E+03  0.34588188587E+02 -0.72643783538E+03  0.10057827932E+04  0.81544803639E+02 0.  0.
        -15    1    4    4    0    0 -0.44663981613E+03 -0.10238473508E+04  0.28465848689E+03  0.11527276250E+04  0.00000000000E+00 0.  1.
        -15    1    3    3    0    0 -0.50803710794E+02  0.21058108597E+03 -0.88157926303E+02  0.23387439100E+03  0.00000000000E+00 0. -1.
         15    1    3    3    0    0  0.11445820356E+02  0.15192659746E+03 -0.13424368330E+03  0.20306172541E+03  0.00000000000E+00 0.  1.
         15    1    5    5    0    0  0.22408111833E+03  0.49497440433E+02 -0.23587142875E+03  0.32908612110E+03  0.00000000000E+00 0. -1.
        -16    1    5    5    0    0  0.46587627219E+03 -0.14909251847E+02 -0.49056640662E+03  0.67669667214E+03  0.00000000000E+00 0.  1.
         16    1    1    2    0    0 -0.79590966438E+02  0.72050646647E+03  0.56390151730E+03  0.91839491036E+03  0.00000000000E+00 0. -1.
    9900018    1    4    4    0    0 -0.12436871751E+03 -0.93754987629E+02  0.25325032286E+03  0.31097987077E+03  0.91187600000E+02 0.  0.
<mgrwt>
<rscale>  0 0.19465271E+04</rscale>
<asrwt>0</asrwt>
<pdfrwt beam="1">  1        2 0.30598402E+00 0.33670256E+04</pdfrwt>
<pdfrwt beam="2">  1       -2 0.28245003E+00 0.33670256E+04</pdfrwt>
<totfact> 0.22536838E-01</totfact>
</mgrwt>
</event>
<event>
12    1  0.4529991E-013  0.3685306E+04  0.7818608E-02  0.8071226E-01
          1   -1    0    0  501    0  0.00000000000E+00  0.00000000000E+00  0.16086414088E+04  0.16086414088E+04  0.00000000000E+00 0. -1.
         -1   -1    0    0    0  501 -0.00000000000E+00 -0.00000000000E+00 -0.21107060553E+04  0.21107060553E+04  0.00000000000E+00 0.  1.
         23    2    1    2    0    0  0.93723845639E+02 -0.42550009348E+03  0.51323265799E+03  0.67934546307E+03  0.90928588258E+02 0.  0.
    9900016    2    1    2    0    0 -0.25399160993E+03  0.55019505023E+03 -0.13437334022E+04  0.26538610180E+04  0.22068376731E+04 0.  0.
        -24    2    4    4    0    0  0.36912759667E+02 -0.38989356962E+03 -0.47986335668E+03  0.62436846723E+03  0.78661263230E+02 0.  0.
        -15    1    4    4    0    0 -0.56088838226E+03  0.43182970305E+03 -0.11728778119E+04  0.13699324915E+04  0.00000000000E+00 0.  1.
        -15    1    3    3    0    0  0.80354546239E+01 -0.12969751297E+03  0.21131725324E+03  0.24807457531E+03  0.00000000000E+00 0. -1.
         15    1    5    5    0    0  0.29487880931E+01 -0.33252954339E+03 -0.39126673388E+03  0.51349220989E+03  0.00000000000E+00 0. -1.
         15    1    3    3    0    0  0.85688391016E+02 -0.29580258052E+03  0.30191540476E+03  0.43127088775E+03  0.00000000000E+00 0.  1.
        -16    1    5    5    0    0  0.33963971574E+02 -0.57364026231E+02 -0.88596622799E+02  0.11087625734E+03  0.00000000000E+00 0.  1.
         16    1    1    2    0    0  0.16026776429E+03 -0.12469495675E+03  0.32843609767E+03  0.38614098301E+03  0.00000000000E+00 0. -1.
    9900018    1    4    4    0    0  0.26998401266E+03  0.50825891681E+03  0.30900776638E+03  0.65956005919E+03  0.91187600000E+02 0.  0.
<mgrwt>
<rscale>  0 0.36853055E+04</rscale>
<asrwt>0</asrwt>
<pdfrwt beam="1">  1        1 0.24748329E+00 0.36853055E+04</pdfrwt>
<pdfrwt beam="2">  1       -1 0.32472401E+00 0.36853055E+04</pdfrwt>
<totfact> 0.10076939E-01</totfact>
</mgrwt>
</event>
<event>
12    1  0.4529991E-013  0.2677861E+04  0.7818608E-02  0.8342224E-01
         -2   -1    0    0    0  501 -0.00000000000E+00  0.00000000000E+00  0.77425142432E+03  0.77425142432E+03  0.00000000000E+00 0. -1.
          2   -1    0    0  501    0  0.00000000000E+00 -0.00000000000E+00 -0.23154424320E+04  0.23154424320E+04  0.00000000000E+00 0.  1.
         23    2    1    2    0    0 -0.98249766592E+02 -0.17224762596E+03 -0.14599045871E+03  0.26178620073E+03  0.88862475635E+02 0.  0.
    9900016    2    1    2    0    0  0.29133408957E+02  0.22505766807E+03 -0.15281958373E+04  0.26689934707E+04  0.21763832200E+04 0.  0.
        -24    2    4    4    0    0  0.99018381187E+03  0.28988265341E+03 -0.79980210121E+03  0.13079849689E+04  0.81518977357E+02 0.  0.
        -15    1    3    3    0    0 -0.11860880514E+02 -0.25022615836E+02  0.11072304005E+02  0.29822939256E+02  0.00000000000E+00 0. -1.
        -15    1    4    4    0    0 -0.60780601736E+03 -0.16749635376E+03 -0.75195008671E+03  0.98128085489E+03  0.00000000000E+00 0.  1.
         15    1    5    5    0    0  0.35425359138E+03  0.72822478429E+02 -0.31195169649E+03  0.47761132871E+03  0.00000000000E+00 0. -1.
         15    1    3    3    0    0 -0.86388886077E+02 -0.14722501012E+03 -0.15706276272E+03  0.23196326148E+03  0.00000000000E+00 0.  1.
        -16    1    5    5    0    0  0.63593022049E+03  0.21706017499E+03 -0.48785040472E+03  0.83037364016E+03  0.00000000000E+00 0.  1.
         16    1    1    2    0    0  0.69116357635E+02 -0.52810042113E+02  0.13299528829E+03  0.15891418486E+03  0.00000000000E+00 0. -1.
    9900018    1    4    4    0    0 -0.35324438555E+03  0.10267136841E+03  0.23556350661E+02  0.37972764696E+03  0.91187600000E+02 0.  0.
<mgrwt>
<rscale>  0 0.26778608E+04</rscale>
<asrwt>0</asrwt>
<pdfrwt beam="1">  1        2 0.35622191E+00 0.26778608E+04</pdfrwt>
<pdfrwt beam="2">  1       -2 0.11911561E+00 0.26778608E+04</pdfrwt>
<totfact> 0.21116517E+00</totfact>
</mgrwt>
</event>
<event>
12    1  0.4529991E-013  0.2761572E+04  0.7818608E-02  0.8740142E-01
          2   -1    0    0  501    0  0.00000000000E+00  0.00000000000E+00  0.25880710404E+04  0.25880710404E+04  0.00000000000E+00 0. -1.
         -2   -1    0    0    0  501 -0.00000000000E+00 -0.00000000000E+00 -0.11436783781E+04  0.11436783781E+04  0.00000000000E+00 0.  1.
         23    2    1    2    0    0  0.42037163599E+03  0.52917343363E+02 -0.24198156485E+03  0.49598983278E+03  0.89097019690E+02 0.  0.
    9900016    2    1    2    0    0 -0.46710103126E+03  0.40366682433E+03  0.13881921064E+04  0.26884339826E+04  0.22179877539E+04 0.  0.
        -24    2    4    4    0    0 -0.41863838112E+02 -0.23254174253E+03  0.13677126098E+04  0.13902352228E+04  0.79296586935E+02 0.  0.
        -15    1    3    3    0    0  0.12543768927E+03 -0.13185308993E+01 -0.11553380833E+03  0.17054152949E+03  0.00000000000E+00 0.  1.
        -15    1    4    4    0    0 -0.73611775644E+03  0.29253851961E+03  0.15494111396E+03  0.80712755225E+03  0.00000000000E+00 0.  1.
         15    1    3    3    0    0  0.29493394672E+03  0.54235874262E+02 -0.12644775652E+03  0.32544830329E+03  0.00000000000E+00 0. -1.
         15    1    5    5    0    0 -0.44927961178E+02 -0.75710937443E+02  0.37426862875E+03  0.38448364622E+03  0.00000000000E+00 0. -1.
        -16    1    5    5    0    0  0.30641230658E+01 -0.15683080509E+03  0.99344398105E+03  0.10057515766E+04  0.00000000000E+00 0.  1.
         16    1    1    2    0    0  0.46729395264E+02 -0.45658416770E+03  0.29818212077E+03  0.54732560302E+03  0.00000000000E+00 0. -1.
    9900018    1    4    4    0    0  0.31088056330E+03  0.34367004726E+03 -0.13446161734E+03  0.49107120762E+03  0.91187600000E+02 0.  0.
<mgrwt>
<rscale>  0 0.17377138E+04</rscale>
<asrwt>0</asrwt>
<pdfrwt beam="1">  1        2 0.39816478E+00 0.27615724E+04</pdfrwt>
<pdfrwt beam="2">  1       -2 0.17595052E+00 0.27615724E+04</pdfrwt>
<totfact> 0.51121186E-01</totfact>
</mgrwt>
</event>
<event>
12    1  0.4529991E-013  0.2981841E+04  0.7818608E-02  0.8686760E-01
         -2   -1    0    0    0  501 -0.00000000000E+00  0.00000000000E+00  0.13667310003E+04  0.13667310003E+04  0.00000000000E+00 0.  1.
          2   -1    0    0  501    0  0.00000000000E+00 -0.00000000000E+00 -0.21402009593E+04  0.21402009593E+04  0.00000000000E+00 0. -1.
         23    2    1    2    0    0 -0.33759367309E+03  0.24983127315E+03 -0.14221336334E+02  0.42994760131E+03  0.90926015585E+02 0.  0.
    9900016    2    1    2    0    0 -0.16570796855E+03 -0.52493433112E+03 -0.19533859563E+03  0.22726282471E+04  0.21962847720E+04 0.  0.
        -24    2    4    4    0    0 -0.51110432278E+03 -0.66614968990E+03 -0.91140424755E+03  0.12417671965E+04  0.79655694584E+02 0.  0.
        -15    1    4    4    0    0  0.83897623512E+02 -0.24677363867E+03  0.30694038439E+03  0.40267659423E+03  0.00000000000E+00 0.  1.
        -15    1    3    3    0    0 -0.19740554035E+03  0.12501131944E+03  0.34072231152E+02  0.23613067206E+03  0.00000000000E+00 0. -1.
         15    1    3    3    0    0 -0.14018813274E+03  0.12481995371E+03 -0.48293567486E+02  0.19381692925E+03  0.00000000000E+00 0.  1.
         15    1    5    5    0    0 -0.50337611560E+03 -0.63037485237E+03 -0.86773643319E+03  0.11847896378E+04  0.00000000000E+00 0. -1.
        -16    1    5    5    0    0 -0.77282071775E+01 -0.35774837530E+02 -0.43667814359E+02  0.56977558717E+02  0.00000000000E+00 0.  1.
         16    1    1    2    0    0  0.50330164164E+03  0.27510305797E+03 -0.56391002705E+03  0.80435611118E+03  0.00000000000E+00 0. -1.
    9900018    1    4    4    0    0  0.26149873072E+03  0.38798899745E+03  0.40912526754E+03  0.62818445638E+03  0.91187600000E+02 0.  0.
<mgrwt>
<rscale>  0 0.18372057E+04</rscale>
<asrwt>0</asrwt>
<pdfrwt beam="1">  1        2 0.32926168E+00 0.29818408E+04</pdfrwt>
<pdfrwt beam="2">  1       -2 0.21026631E+00 0.29818408E+04</pdfrwt>
<totfact> 0.53728024E-01</totfact>
</mgrwt>
</event>
<event>
12    1  0.4529991E-013  0.3150080E+04  0.7818608E-02  0.8660965E-01
         -2   -1    0    0    0  501 -0.00000000000E+00  0.00000000000E+00  0.13974357841E+04  0.13974357841E+04  0.00000000000E+00 0.  1.
          2   -1    0    0  501    0  0.00000000000E+00 -0.00000000000E+00 -0.22699206026E+04  0.22699206026E+04  0.00000000000E+00 0. -1.
         23    2    1    2    0    0  0.28844509671E+03 -0.27125756087E+03 -0.34689329243E+02  0.40776966813E+03  0.91057753867E+02 0.  0.
    9900016    2    1    2    0    0  0.30932820981E+03  0.62246577825E+03 -0.10445299050E+04  0.25361095201E+04  0.22040102516E+04 0.  0.
         24    2    4    4    0    0 -0.70153852679E+03  0.22837552778E+03 -0.47529428917E+03  0.88112921909E+03  0.78564324986E+02 0.  0.
        -15    1    5    5    0    0 -0.54529427026E+03  0.14548680487E+03 -0.34523942392E+03  0.66159089428E+03  0.00000000000E+00 0.  1.
        -15    1    3    3    0    0  0.16391475251E+03 -0.21226111252E+03 -0.30433777065E+02  0.26990561455E+03  0.00000000000E+00 0.  1.
         15    1    4    4    0    0  0.45736597824E+03  0.74488054238E+03 -0.19763570420E+03  0.89615318559E+03  0.00000000000E+00 0. -1.
         15    1    3    3    0    0  0.12453034421E+03 -0.58996448341E+02 -0.42555521776E+01  0.13786405358E+03  0.00000000000E+00 0. -1.
        -16    1    1    2    0    0 -0.59777330652E+03 -0.35120821739E+03  0.20673441577E+03  0.72347719841E+03  0.00000000000E+00 0.  1.
         16    1    5    5    0    0 -0.15624425653E+03  0.82888722914E+02 -0.13005486525E+03  0.21953832481E+03  0.00000000000E+00 0. -1.
    9900018    1    4    4    0    0  0.55350075836E+03 -0.35079029192E+03 -0.37159991164E+03  0.75882711544E+03  0.91187600000E+02 0.  0.
<mgrwt>
<rscale>  0 0.18877767E+04</rscale>
<asrwt>0</asrwt>
<pdfrwt beam="1">  1        2 0.34921855E+00 0.31500800E+04</pdfrwt>
<pdfrwt beam="2">  1       -2 0.21499012E+00 0.31500800E+04</pdfrwt>
<totfact> 0.41794228E-01</totfact>
</mgrwt>
</event>
<event>
12    1  0.4529991E-013  0.3420327E+04  0.7818608E-02  0.8723721E-01
          2   -1    0    0  501    0  0.00000000000E+00  0.00000000000E+00  0.18872447479E+04  0.18872447479E+04  0.00000000000E+00 0. -1.
         -2   -1    0    0    0  501 -0.00000000000E+00 -0.00000000000E+00 -0.18535673043E+04  0.18535673043E+04  0.00000000000E+00 0.  1.
         23    2    1    2    0    0 -0.12068585526E+03 -0.19089036489E+03 -0.19576035458E+03  0.31279844775E+03  0.92285131121E+02 0.  0.
    9900016    2    1    2    0    0  0.30908291261E+03 -0.27155699304E+03  0.10557050497E+04  0.24625766148E+04  0.21864343082E+04 0.  0.
         24    2    4    4    0    0 -0.23817928709E+03  0.16438300422E+03 -0.31252324705E+03  0.43310300788E+03  0.78462032962E+02 0.  0.
        -15    1    3    3    0    0 -0.66245977959E+02 -0.10335506614E+03 -0.16414893979E+03  0.20497725173E+03  0.00000000000E+00 0.  1.
        -15    1    5    5    0    0 -0.75473183471E+02  0.95074224801E+02 -0.10553139071E+03  0.16084832629E+03  0.00000000000E+00 0.  1.
         15    1    3    3    0    0 -0.54439877299E+02 -0.87535298741E+02 -0.31611414786E+02  0.10782119602E+03  0.00000000000E+00 0. -1.
         15    1    4    4    0    0  0.72035191497E+03 -0.25768794032E+03  0.15360875090E+04  0.17160637492E+04  0.00000000000E+00 0. -1.
        -16    1    1    2    0    0 -0.18839705735E+03  0.46244735793E+03 -0.82626725157E+03  0.96543698970E+03  0.00000000000E+00 0.  1.
         16    1    5    5    0    0 -0.16270610362E+03  0.69308779419E+02 -0.20699185634E+03  0.27225468159E+03  0.00000000000E+00 0. -1.
    9900018    1    4    4    0    0 -0.17308971527E+03 -0.17825205694E+03 -0.16785921229E+03  0.31340985766E+03  0.91187600000E+02 0.  0.
<mgrwt>
<rscale>  0 0.17676011E+04</rscale>
<asrwt>0</asrwt>
<pdfrwt beam="1">  1        2 0.29034535E+00 0.34203268E+04</pdfrwt>
<pdfrwt beam="2">  1       -2 0.28516420E+00 0.34203268E+04</pdfrwt>
<totfact> 0.24712220E-01</totfact>
</mgrwt>
</event>
<event>
12    1  0.6994502E-013  0.2623477E+04  0.7818608E-02  0.8799813E-01
         -2   -1    0    0    0  501 -0.00000000000E+00  0.00000000000E+00  0.11594410976E+04  0.11594410976E+04  0.00000000000E+00 0.  1.
          2   -1    0    0  501    0  0.00000000000E+00 -0.00000000000E+00 -0.19865624064E+04  0.19865624064E+04  0.00000000000E+00 0. -1.
         23    2    1    2    0    0 -0.24086669863E+03 -0.29859669857E+03  0.80544678908E+00  0.39498658632E+03  0.94005317525E+02 0.  0.
    9900016    2    1    2    0    0  0.22722286531E+03 -0.96994808945E+02 -0.64756223269E+03  0.23160339800E+04  0.22098955468E+04 0.  0.
        -24    2    4    4    0    0  0.78407002726E+03  0.35532467062E+03 -0.74200361784E+03  0.11391923186E+04  0.78538784802E+02 0.  0.
        -15    1    3    3    0    0 -0.12027926876E+03 -0.18786621646E+03 -0.39115271400E+02  0.22647477175E+03  0.00000000000E+00 0.  1.
        -15    1    4    4    0    0 -0.73238757337E+03 -0.82955308831E+02  0.15584989838E+03  0.75336732854E+03  0.00000000000E+00 0.  1.
         15    1    5    5    0    0  0.18319012347E+03  0.12034784089E+03 -0.18435567105E+03  0.28640746777E+03  0.00000000000E+00 0. -1.
         15    1    3    3    0    0 -0.12058742986E+03 -0.11073048211E+03  0.39920718189E+02  0.16851181457E+03  0.00000000000E+00 0. -1.
        -16    1    5    5    0    0  0.60087990379E+03  0.23497682973E+03 -0.55764794679E+03  0.85278485085E+03  0.00000000000E+00 0.  1.
         16    1    1    2    0    0  0.13643833319E+02  0.39559150752E+03 -0.18036452281E+03  0.43498293771E+03  0.00000000000E+00 0. -1.
    9900018    1    4    4    0    0  0.17554041142E+03 -0.36936417073E+03 -0.61408513227E+02  0.42347433281E+03  0.91187600000E+02 0.  0.
<mgrwt>
<rscale>  0 0.16341928E+04</rscale>
<asrwt>0</asrwt>
<pdfrwt beam="1">  1        2 0.30562498E+00 0.26234770E+04</pdfrwt>
<pdfrwt beam="2">  1       -2 0.17837556E+00 0.26234770E+04</pdfrwt>
<totfact> 0.11014065E+00</totfact>
</mgrwt>
</event>
<event>
12    1  0.4529991E-013  0.2592573E+04  0.7818608E-02  0.9031305E-01
          1   -1    0    0  501    0  0.00000000000E+00  0.00000000000E+00  0.35522152085E+04  0.35522152085E+04  0.00000000000E+00 0. -1.
         -1   -1    0    0    0  501 -0.00000000000E+00 -0.00000000000E+00 -0.53551969730E+03  0.53551969730E+03  0.00000000000E+00 0.  1.
         23    2    1    2    0    0  0.10077138497E+03 -0.89921318383E+02  0.13541337899E+03  0.21175465071E+03  0.90898478318E+02 0.  0.
    9900016    2    1    2    0    0 -0.29910682374E+03 -0.94656067316E+02  0.21542668072E+04  0.31001213501E+04  0.22071389276E+04 0.  0.
        -24    2    4    4    0    0 -0.93297073330E+03  0.17959463882E+03  0.17416054017E+04  0.19854455586E+04  0.78205289559E+02 0.  0.
        -15    1    4    4    0    0 -0.57389597151E+00  0.13127588619E+03 -0.12790437727E+03  0.18328452574E+03  0.00000000000E+00 0.  1.
        -15    1    3    3    0    0 -0.15647651806E+02 -0.15072998574E+02  0.66645873300E+01  0.22725778696E+02  0.00000000000E+00 0. -1.
         15    1    5    5    0    0 -0.90403122912E+03  0.18294377034E+03  0.16637110660E+04  0.19022816294E+04  0.00000000000E+00 0. -1.
         15    1    3    3    0    0  0.11641903677E+03 -0.74848319810E+02  0.12874879166E+03  0.18902887202E+03  0.00000000000E+00 0.  1.
        -16    1    5    5    0    0 -0.28939504175E+02 -0.33491315213E+01  0.77894335707E+02  0.83163929195E+02  0.00000000000E+00 0.  1.
         16    1    1    2    0    0  0.19833543877E+03  0.18457738570E+03  0.72701532499E+03  0.77585890492E+03  0.00000000000E+00 0. -1.
    9900018    1    4    4    0    0  0.63443780553E+03 -0.40552659233E+03  0.54056578274E+03  0.93139126581E+03  0.91187600000E+02 0.  0.
<mgrwt>
<rscale>  0 0.12978087E+04</rscale>
<asrwt>0</asrwt>
<pdfrwt beam="1">  1        1 0.54649463E+00 0.25925733E+04</pdfrwt>
<pdfrwt beam="2">  1       -1 0.82387648E-01 0.25925733E+04</pdfrwt>
<totfact> 0.29214608E-01</totfact>
</mgrwt>
</event>
<event>
12    1  0.4529991E-013  0.2837920E+04  0.7818608E-02  0.8928671E-01
          1   -1    0    0  501    0  0.00000000000E+00  0.00000000000E+00  0.21861929156E+04  0.21861929156E+04  0.00000000000E+00 0. -1.
         -1   -1    0    0    0  501 -0.00000000000E+00 -0.00000000000E+00 -0.10521783362E+04  0.10521783362E+04  0.00000000000E+00 0.  1.
         23    2    1    2    0    0  0.14743713750E+03 -0.68630790660E+02  0.13571934772E+03  0.22998570897E+03  0.89586773821E+02 0.  0.
    9900016    2    1    2    0    0  0.23069276410E+03  0.32791814906E+03  0.11544938351E+04  0.25240198129E+04  0.22084090510E+04 0.  0.
         24    2    4    4    0    0 -0.33159709487E+03  0.11046435298E+04  0.29979249554E+03  0.11943294191E+04  0.79707338362E+02 0.  0.
        -15    1    5    5    0    0 -0.79319996022E+02  0.26882764596E+03  0.10854267333E+03  0.30056858940E+03  0.00000000000E+00 0.  1.
        -15    1    3    3    0    0  0.12242844197E+03 -0.71700420889E+02  0.67216422885E+02  0.15699592754E+03  0.00000000000E+00 0.  1.
         15    1    3    3    0    0  0.25008695529E+02  0.30696302288E+01  0.68502924836E+02  0.72989781428E+02  0.00000000000E+00 0. -1.
         15    1    4    4    0    0  0.46469696271E+03 -0.40266536385E+03  0.59153792181E+03  0.85322902865E+03  0.00000000000E+00 0. -1.
        -16    1    1    2    0    0 -0.37812990161E+03 -0.25928735840E+03 -0.15619860339E+03  0.48436573002E+03  0.00000000000E+00 0.  1.
         16    1    5    5    0    0 -0.25227709885E+03  0.83581588382E+03  0.19124982221E+03  0.89376082972E+03  0.00000000000E+00 0. -1.
    9900018    1    4    4    0    0  0.97592896263E+02 -0.37406001687E+03  0.26316341771E+03  0.47646136511E+03  0.91187600000E+02 0.  0.
<mgrwt>
<rscale>  0 0.14352782E+04</rscale>
<asrwt>0</asrwt>
<pdfrwt beam="1">  1        1 0.33633737E+00 0.28379200E+04</pdfrwt>
<pdfrwt beam="2">  1       -1 0.16187359E+00 0.28379200E+04</pdfrwt>
<totfact> 0.53986770E-01</totfact>
</mgrwt>
</event>
<event>
12    1  0.4529991E-013  0.3095167E+04  0.7818608E-02  0.8685990E-01
         -1   -1    0    0    0  501 -0.00000000000E+00  0.00000000000E+00  0.17367414776E+04  0.17367414776E+04  0.00000000000E+00 0.  1.
          1   -1    0    0  501    0  0.00000000000E+00 -0.00000000000E+00 -0.20403493300E+04  0.20403493300E+04  0.00000000000E+00 0. -1.
         23    2    1    2    0    0  0.16429128380E+03 -0.33678202356E+03  0.44897453269E+03  0.59174360805E+03  0.90380359233E+02 0.  0.
    9900016    2    1    2    0    0  0.39824434496E+03  0.69677002762E+03 -0.89765313030E+03  0.25019123323E+04  0.21931021742E+04 0.  0.
        -24    2    4    4    0    0 -0.41371582401E+03  0.27124217663E+03 -0.95771964743E+03  0.10809089008E+04  0.80025167157E+02 0.  0.
        -15    1    3    3    0    0  0.14870058955E+03 -0.22021149619E+03  0.33900329617E+03  0.43072984944E+03  0.00000000000E+00 0. -1.
        -15    1    4    4    0    0  0.88935968298E+03  0.11965812154E+02 -0.20855230420E+03  0.91356329280E+03  0.00000000000E+00 0.  1.
         15    1    3    3    0    0  0.15590694252E+02 -0.11657052737E+03  0.10997123652E+03  0.16101375861E+03  0.00000000000E+00 0.  1.
         15    1    5    5    0    0 -0.14197027445E+03  0.13392300029E+03 -0.41546008822E+03  0.45901853311E+03  0.00000000000E+00 0. -1.
        -16    1    5    5    0    0 -0.27174554956E+03  0.13731917634E+03 -0.54225955922E+03  0.62189036771E+03  0.00000000000E+00 0.  1.
         16    1    1    2    0    0 -0.56253562876E+03 -0.35998800406E+03  0.14507074522E+03  0.68343486728E+03  0.00000000000E+00 0. -1.
    9900018    1    4    4    0    0 -0.77399514009E+02  0.41356203883E+03  0.26861882133E+03  0.50744013864E+03  0.91187600000E+02 0.  0.
<mgrwt>
<rscale>  0 0.18386918E+04</rscale>
<asrwt>0</asrwt>
<pdfrwt beam="1">  1        1 0.31389989E+00 0.30951666E+04</pdfrwt>
<pdfrwt beam="2">  1       -1 0.26719100E+00 0.30951666E+04</pdfrwt>
<totfact> 0.12454956E-01</totfact>
</mgrwt>
</event>
<event>
12    1  0.4529991E-013  0.2865245E+04  0.7818608E-02  0.9001350E-01
          1   -1    0    0  501    0  0.00000000000E+00  0.00000000000E+00  0.22658901705E+04  0.22658901705E+04  0.00000000000E+00 0. -1.
         -1   -1    0    0    0  501 -0.00000000000E+00 -0.00000000000E+00 -0.99526771358E+03  0.99526771358E+03  0.00000000000E+00 0.  1.
         23    2    1    2    0    0 -0.21768795192E+02  0.94946410227E+02  0.87158420534E+02  0.16112340064E+03  0.94209652932E+02 0.  0.
    9900016    2    1    2    0    0  0.38451980842E+03 -0.53192501772E+03  0.92512257735E+03  0.24761122844E+04  0.22010180722E+04 0.  0.
        -24    2    4    4    0    0  0.52252611126E+03 -0.78423378244E+03 -0.98961371407E+02  0.95062945997E+03  0.76464728241E+02 0.  0.
        -15    1    3    3    0    0  0.25935770667E+01 -0.18621597729E+02  0.73066948261E+01  0.20171225378E+02  0.00000000000E+00 0.  1.
        -15    1    4    4    0    0 -0.20604850259E+03 -0.23491401212E+03  0.97371290990E+03  0.10226228090E+04  0.00000000000E+00 0.  1.
         15    1    5    5    0    0  0.41506127747E+03 -0.58378034221E+03 -0.50425721447E+02  0.71806553001E+03  0.00000000000E+00 0. -1.
         15    1    3    3    0    0 -0.24362372259E+02  0.11356800796E+03  0.79851725708E+02  0.14095217526E+03  0.00000000000E+00 0. -1.
        -16    1    5    5    0    0  0.10746483379E+03 -0.20045344023E+03 -0.48535649961E+02  0.23256392996E+03  0.00000000000E+00 0.  1.
         16    1    1    2    0    0 -0.36275101323E+03  0.43697860749E+03  0.25834145909E+03  0.62392219907E+03  0.00000000000E+00 0. -1.
    9900018    1    4    4    0    0  0.68042199756E+02  0.48722277684E+03  0.50371038853E+02  0.50286001548E+03  0.91187600000E+02 0.  0.
<mgrwt>
<rscale>  0 0.13361883E+04</rscale>
<asrwt>0</asrwt>
<pdfrwt beam="1">  1        1 0.34859849E+00 0.28652446E+04</pdfrwt>
<pdfrwt beam="2">  1       -1 0.15311811E+00 0.28652446E+04</pdfrwt>
<totfact> 0.55527898E-01</totfact>
</mgrwt>
</event>
<event>
12    1  0.4529991E-013  0.2774768E+04  0.7818608E-02  0.8796505E-01
          2   -1    0    0  501    0  0.00000000000E+00  0.00000000000E+00  0.14549114234E+04  0.14549114234E+04  0.00000000000E+00 0. -1.
         -2   -1    0    0    0  501 -0.00000000000E+00 -0.00000000000E+00 -0.17465202737E+04  0.17465202737E+04  0.00000000000E+00 0.  1.
         23    2    1    2    0    0  0.28415780357E+03 -0.15917734136E+03 -0.25957802465E+03  0.42647884246E+03  0.91762567823E+02 0.  0.
    9900016    2    1    2    0    0 -0.64640198258E+03 -0.10296003641E+03 -0.15481345340E+03  0.23112585332E+04  0.22112242106E+04 0.  0.
        -24    2    4    4    0    0 -0.46181094226E+03 -0.73083022554E+03 -0.81081891306E+03  0.11878921540E+04  0.79235691737E+02 0.  0.
        -15    1    3    3    0    0  0.10280122396E+03 -0.14006963507E+02 -0.10392755933E+03  0.14685102745E+03  0.00000000000E+00 0. -1.
        -15    1    4    4    0    0 -0.13262153935E+03 -0.72960691664E+02  0.28683792676E+03  0.32432658149E+03  0.00000000000E+00 0.  1.
         15    1    3    3    0    0  0.18135657961E+03 -0.14517037785E+03 -0.15565046531E+03  0.27962781501E+03  0.00000000000E+00 0.  1.
         15    1    5    5    0    0 -0.35918271132E+03 -0.53589963212E+03 -0.64403403805E+03  0.91158130629E+03  0.00000000000E+00 0. -1.
        -16    1    5    5    0    0 -0.10262823094E+03 -0.19493059343E+03 -0.16678487501E+03  0.27631084773E+03  0.00000000000E+00 0.  1.
         16    1    1    2    0    0  0.36224417901E+03  0.26213737777E+03  0.12278262771E+03  0.46369432142E+03  0.00000000000E+00 0. -1.
    9900018    1    4    4    0    0 -0.51969500969E+02  0.70083088080E+03  0.36916753289E+03  0.79903979766E+03  0.91187600000E+02 0.  0.
<mgrwt>
<rscale>  0 0.16397299E+04</rscale>
<asrwt>0</asrwt>
<pdfrwt beam="1">  1        2 0.22383253E+00 0.27747680E+04</pdfrwt>
<pdfrwt beam="2">  1       -2 0.26869543E+00 0.27747680E+04</pdfrwt>
<totfact> 0.57143949E-01</totfact>
</mgrwt>
</event>
<event>
12    1  0.4529991E-013  0.2988081E+04  0.7818608E-02  0.8644760E-01
          2   -1    0    0  501    0  0.00000000000E+00  0.00000000000E+00  0.31327540754E+04  0.31327540754E+04  0.00000000000E+00 0. -1.
         -2   -1    0    0    0  501 -0.00000000000E+00 -0.00000000000E+00 -0.98752339699E+03  0.98752339699E+03  0.00000000000E+00 0.  1.
         23    2    1    2    0    0  0.36639209389E+03 -0.34089354448E+03  0.16600828896E+03  0.53615303093E+03  0.97209801141E+02 0.  0.
    9900016    2    1    2    0    0 -0.87208106128E+03  0.18629441584E+03  0.12450940762E+04  0.26793777351E+04  0.21985392428E+04 0.  0.
        -24    2    4    4    0    0 -0.10219598145E+04 -0.33995198966E+03  0.35500739492E+03  0.11368746701E+04  0.80526687701E+02 0.  0.
        -15    1    4    4    0    0  0.36317688033E+03  0.44752780595E+02  0.93706971613E+03  0.10059820628E+04  0.00000000000E+00 0.  1.
        -15    1    3    3    0    0  0.12452539309E+03 -0.59492912129E+02  0.32293385010E+02  0.14173511503E+03  0.00000000000E+00 0. -1.
         15    1    5    5    0    0 -0.10051109920E+04 -0.34086931168E+03  0.35725209109E+03  0.11198522449E+04  0.00000000000E+00 0. -1.
         15    1    3    3    0    0  0.24186670080E+03 -0.28140063235E+03  0.13371490395E+03  0.39441791590E+03  0.00000000000E+00 0.  1.
        -16    1    5    5    0    0 -0.16848822479E+02  0.91732201935E+00 -0.22446961652E+01  0.17022425194E+02  0.00000000000E+00 0.  1.
         16    1    1    2    0    0  0.50568896739E+03  0.15459912864E+03  0.73412831321E+03  0.90474670631E+03  0.00000000000E+00 0. -1.
    9900018    1    4    4    0    0 -0.21329812711E+03  0.48149362490E+03 -0.46983034844E+02  0.53652100220E+03  0.91187600000E+02 0.  0.
<mgrwt>
<rscale>  0 0.19204160E+04</rscale>
<asrwt>0</asrwt>
<pdfrwt beam="1">  1        2 0.48196216E+00 0.29880808E+04</pdfrwt>
<pdfrwt beam="2">  1       -2 0.15192668E+00 0.29880808E+04</pdfrwt>
<totfact> 0.34983693E-01</totfact>
</mgrwt>
</event>
<event>
12    1  0.4529991E-013  0.2556030E+04  0.7818608E-02  0.8868575E-01
          1   -1    0    0  501    0  0.00000000000E+00  0.00000000000E+00  0.13447553036E+04  0.13447553036E+04  0.00000000000E+00 0. -1.
         -1   -1    0    0    0  501 -0.00000000000E+00 -0.00000000000E+00 -0.17440080502E+04  0.17440080502E+04  0.00000000000E+00 0.  1.
         23    2    1    2    0    0 -0.26122772138E+03  0.16722063033E+03  0.29776398701E+03  0.43940056172E+03  0.90591390629E+02 0.  0.
    9900016    2    1    2    0    0  0.23617423021E+02  0.74971191556E+02 -0.49510900017E+03  0.22545435102E+04  0.21981026034E+04 0.  0.
        -24    2    4    4    0    0  0.14736829786E+03 -0.84121712158E+03 -0.80561005538E+03  0.11766593600E+04  0.78460354363E+02 0.  0.
        -15    1    3    3    0    0 -0.43135755203E+02  0.10873497724E+02  0.93493156804E+01  0.45456969029E+02  0.00000000000E+00 0.  1.
        -15    1    4    4    0    0 -0.13960356791E+03  0.85967499917E+03  0.14936027929E+03  0.88365080965E+03  0.00000000000E+00 0.  1.
         15    1    3    3    0    0 -0.21809196618E+03  0.15634713261E+03  0.28841467133E+03  0.39394359269E+03  0.00000000000E+00 0. -1.
         15    1    5    5    0    0  0.39451240734E+02 -0.38503054491E+03 -0.40242893096E+03  0.55834932200E+03  0.00000000000E+00 0. -1.
        -16    1    5    5    0    0  0.10791705712E+03 -0.45618657667E+03 -0.40318112442E+03  0.61831003796E+03  0.00000000000E+00 0.  1.
         16    1    1    2    0    0  0.23761029836E+03 -0.24219182189E+03 -0.20190773348E+03  0.39481928184E+03  0.00000000000E+00 0. -1.
    9900018    1    4    4    0    0  0.15852693078E+02  0.56513313970E+02  0.16114077591E+03  0.19423334057E+03  0.91187600000E+02 0.  0.
<mgrwt>
<rscale>  0 0.15241123E+04</rscale>
<asrwt>0</asrwt>
<pdfrwt beam="1">  1        1 0.20688543E+00 0.25560303E+04</pdfrwt>
<pdfrwt beam="2">  1       -1 0.26830893E+00 0.25560303E+04</pdfrwt>
<totfact> 0.38767666E-01</totfact>
</mgrwt>
</event>
<event>
12    1  0.4529991E-013  0.3172214E+04  0.7818608E-02  0.8196194E-01
          2   -1    0    0  501    0  0.00000000000E+00  0.00000000000E+00  0.23429281961E+04  0.23429281961E+04  0.00000000000E+00 0. -1.
         -2   -1    0    0    0  501 -0.00000000000E+00 -0.00000000000E+00 -0.10737566217E+04  0.10737566217E+04  0.00000000000E+00 0.  1.
         23    2    1    2    0    0  0.51451435869E+03  0.15269270192E+03 -0.69982819271E+02  0.54909425402E+03  0.92557108217E+02 0.  0.
    9900016    2    1    2    0    0 -0.45352377788E+03  0.88040752906E+02  0.13567526235E+04  0.26186284283E+04  0.21915752721E+04 0.  0.
         24    2    4    4    0    0 -0.70830485938E+03  0.43092830557E+02 -0.25926454009E+02  0.71453953513E+03  0.79635421657E+02 0.  0.
        -15    1    5    5    0    0 -0.19833626799E+03  0.44862032502E+02  0.73882314873E+01  0.20348086673E+03  0.00000000000E+00 0.  1.
        -15    1    3    3    0    0  0.76912923104E+02  0.48613115669E+02  0.12319627421E+02  0.91818331368E+02  0.00000000000E+00 0.  1.
         15    1    3    3    0    0  0.43760143559E+03  0.10407958625E+03 -0.82302446691E+02  0.45727592265E+03  0.00000000000E+00 0. -1.
         15    1    4    4    0    0 -0.49716538799E+03 -0.14357000435E+03  0.67456038152E+03  0.85018673095E+03  0.00000000000E+00 0. -1.
        -16    1    1    2    0    0 -0.60990580813E+02 -0.24073345483E+03 -0.17598229802E+02  0.24896213550E+03  0.00000000000E+00 0.  1.
         16    1    5    5    0    0 -0.50996859139E+03 -0.17692019453E+01 -0.33314685496E+02  0.51105866840E+03  0.00000000000E+00 0. -1.
    9900018    1    4    4    0    0  0.75194646949E+03  0.18851792670E+03  0.70811869596E+03  0.10539021623E+04  0.91187600000E+02 0.  0.
<mgrwt>
<rscale>  0 0.31722135E+04</rscale>
<asrwt>0</asrwt>
<pdfrwt beam="1">  1        2 0.36045049E+00 0.31722135E+04</pdfrwt>
<pdfrwt beam="2">  1       -2 0.16519333E+00 0.31722135E+04</pdfrwt>
<totfact> 0.83465264E-01</totfact>
</mgrwt>
</event>
<event>
12    1  0.4529991E-013  0.2881002E+04  0.7818608E-02  0.9022657E-01
          2   -1    0    0  501    0  0.00000000000E+00  0.00000000000E+00  0.42570378039E+04  0.42570378039E+04  0.00000000000E+00 0. -1.
         -2   -1    0    0    0  501 -0.00000000000E+00 -0.00000000000E+00 -0.53200323676E+03  0.53200323676E+03  0.00000000000E+00 0.  1.
         23    2    1    2    0    0 -0.55907768704E+02  0.58699098131E+02  0.22026771600E+03  0.25213002764E+03  0.92089203498E+02 0.  0.
    9900016    2    1    2    0    0 -0.45561085116E+03 -0.16800968023E+03  0.24855606576E+04  0.33913188662E+04  0.22554873907E+04 0.  0.
         24    2    4    4    0    0  0.11602730871E+03 -0.41471040450E+03  0.52932831971E+03  0.68733202196E+03  0.82400135916E+02 0.  0.
        -15    1    3    3    0    0 -0.49519462392E+02  0.12945410998E+02  0.37071232572E+02  0.63198394805E+02  0.00000000000E+00 0. -1.
        -15    1    5    5    0    0  0.76539310978E+02 -0.26835772191E+03  0.27848461918E+03  0.39424334637E+03  0.00000000000E+00 0.  1.
         15    1    4    4    0    0 -0.87841108061E+03 -0.36828809553E+03  0.46598257624E+03  0.10603687610E+04  0.00000000000E+00 0. -1.
         15    1    3    3    0    0 -0.63883063118E+01  0.45753687133E+02  0.18319648343E+03  0.18893163283E+03  0.00000000000E+00 0.  1.
        -16    1    1    2    0    0  0.51151861986E+03  0.10931058210E+03  0.10192061936E+04  0.11455921468E+04  0.00000000000E+00 0.  1.
         16    1    5    5    0    0  0.39487997730E+02 -0.14635268258E+03  0.25084370053E+03  0.29308867559E+03  0.00000000000E+00 0. -1.
    9900018    1    4    4    0    0  0.30677292074E+03  0.61498881979E+03  0.14902497616E+04  0.16436180833E+04  0.91187600000E+02 0.  0.
<mgrwt>
<rscale>  0 0.13087472E+04</rscale>
<asrwt>0</asrwt>
<pdfrwt beam="1">  1        2 0.65492887E+00 0.28810017E+04</pdfrwt>
<pdfrwt beam="2">  1       -2 0.81846655E-01 0.28810017E+04</pdfrwt>
<totfact> 0.23448544E-01</totfact>
</mgrwt>
</event>
<event>
12    1  0.4529991E-013  0.2515143E+04  0.7818608E-02  0.9098497E-01
          2   -1    0    0  501    0  0.00000000000E+00  0.00000000000E+00  0.18938163095E+04  0.18938163095E+04  0.00000000000E+00 0. -1.
         -2   -1    0    0    0  501 -0.00000000000E+00 -0.00000000000E+00 -0.92978271719E+03  0.92978271719E+03  0.00000000000E+00 0.  1.
         23    2    1    2    0    0 -0.62967680758E+02 -0.72528519619E+02  0.68639544995E+02  0.15382824308E+03  0.98622645747E+02 0.  0.
    9900016    2    1    2    0    0  0.11220177971E+03 -0.21034451221E+03  0.70255212527E+03  0.23238963041E+04  0.22022898289E+04 0.  0.
         24    2    4    4    0    0  0.62561281252E+03 -0.16415002084E+03  0.10039279102E+03  0.66071802029E+03  0.90182976843E+02 0.  0.
        -15    1    3    3    0    0 -0.64997070368E+02 -0.17782393641E+02  0.72410761331E+02  0.98914867621E+02  0.00000000000E+00 0.  1.
        -15    1    5    5    0    0  0.21270272451E+03 -0.92093516654E+02  0.61275755524E+02  0.23974649745E+03  0.00000000000E+00 0.  1.
         15    1    4    4    0    0  0.11068900214E+03  0.60828535799E+03  0.38606708902E+03  0.72891078272E+03  0.00000000000E+00 0. -1.
         15    1    3    3    0    0  0.20293896101E+01 -0.54746125978E+02 -0.37712163360E+01  0.54913375460E+02  0.00000000000E+00 0. -1.
        -16    1    1    2    0    0 -0.49234098947E+02  0.28287303183E+03  0.19284192201E+03  0.34587447942E+03  0.00000000000E+00 0.  1.
         16    1    5    5    0    0  0.41291008800E+03 -0.72056504188E+02  0.39117035500E+02  0.42097152283E+03  0.00000000000E+00 0. -1.
    9900018    1    4    4    0    0 -0.62410003495E+03 -0.65447984936E+03  0.21609224522E+03  0.93426750114E+03  0.91187600000E+02 0.  0.
<mgrwt>
<rscale>  0 0.12165450E+04</rscale>
<asrwt>0</asrwt>
<pdfrwt beam="1">  1        2 0.29135635E+00 0.25151432E+04</pdfrwt>
<pdfrwt beam="2">  1       -2 0.14304350E+00 0.25151432E+04</pdfrwt>
<totfact> 0.23042446E+00</totfact>
</mgrwt>
</event>
<event>
12    1  0.4529991E-013  0.2570329E+04  0.7818608E-02  0.9093592E-01
          2   -1    0    0  501    0  0.00000000000E+00  0.00000000000E+00  0.30735973812E+04  0.30735973812E+04  0.00000000000E+00 0. -1.
         -2   -1    0    0    0  501 -0.00000000000E+00 -0.00000000000E+00 -0.60689428824E+03  0.60689428824E+03  0.00000000000E+00 0.  1.
         23    2    1    2    0    0 -0.93724830165E+02  0.18326950460E+02  0.22078785463E+02  0.13327005619E+03  0.90295150518E+02 0.  0.
    9900016    2    1    2    0    0 -0.76875126865E+02 -0.31646051358E+03  0.21233417428E+04  0.30768914599E+04  0.22028671901E+04 0.  0.
        -24    2    4    4    0    0  0.31832616982E+03 -0.69552486947E+03  0.43663300812E+03  0.88425718081E+03  0.78587426372E+02 0.  0.
        -15    1    4    4    0    0  0.46489382888E+03  0.37790592479E+02  0.48055736684E+03  0.66969379856E+03  0.00000000000E+00 0.  1.
        -15    1    3    3    0    0 -0.35656415150E+02  0.65589750449E+00  0.53982378621E+02  0.64698588427E+02  0.00000000000E+00 0. -1.
         15    1    3    3    0    0 -0.58068415014E+02  0.17671052956E+02 -0.31903593159E+02  0.68571467763E+02  0.00000000000E+00 0.  1.
         15    1    5    5    0    0  0.20722792637E+03 -0.47594848742E+03  0.25469617531E+03  0.57822185869E+03  0.00000000000E+00 0. -1.
        -16    1    5    5    0    0  0.11109824345E+03 -0.21957638205E+03  0.18193683281E+03  0.30603532212E+03  0.00000000000E+00 0.  1.
         16    1    1    2    0    0  0.17059995703E+03  0.29813356312E+03  0.32128256465E+03  0.47033015334E+03  0.00000000000E+00 0. -1.
    9900018    1    4    4    0    0 -0.86009512557E+03  0.34127376341E+03  0.12061513679E+04  0.15229404805E+04  0.91187600000E+02 0.  0.
<mgrwt>
<rscale>  0 0.12222609E+04</rscale>
<asrwt>0</asrwt>
<pdfrwt beam="1">  1        2 0.47286112E+00 0.25703294E+04</pdfrwt>
<pdfrwt beam="2">  1       -2 0.93368354E-01 0.25703294E+04</pdfrwt>
<totfact> 0.13402955E+00</totfact>
</mgrwt>
</event>
<event>
12    1  0.4529991E-013  0.3494030E+04  0.7818608E-02  0.8869659E-01
          1   -1    0    0  501    0  0.00000000000E+00  0.00000000000E+00  0.19437424527E+04  0.19437424527E+04  0.00000000000E+00 0. -1.
         -1   -1    0    0    0  501 -0.00000000000E+00 -0.00000000000E+00 -0.17580469111E+04  0.17580469111E+04  0.00000000000E+00 0.  1.
         23    2    1    2    0    0  0.53996580703E+02 -0.67745801119E+02 -0.14509690317E+03  0.19213579876E+03  0.91421712735E+02 0.  0.
    9900016    2    1    2    0    0 -0.10575491248E+04 -0.20341531130E+03  0.24937123763E+03  0.24669285434E+04  0.22053939521E+04 0.  0.
        -24    2    4    4    0    0 -0.59149761858E+03  0.65019241543E+03  0.63377569617E+03  0.10866697318E+04  0.80992982331E+02 0.  0.
        -15    1    4    4    0    0 -0.51065526508E+03 -0.10112382603E+03 -0.33564063143E+03  0.61939443121E+03  0.00000000000E+00 0.  1.
        -15    1    3    3    0    0  0.61856173519E+02 -0.18598673089E+02 -0.12026648967E+03  0.13651419480E+03  0.00000000000E+00 0. -1.
         15    1    3    3    0    0 -0.78595928162E+01 -0.49147128030E+02 -0.24830413492E+02  0.55621603959E+02  0.00000000000E+00 0.  1.
         15    1    5    5    0    0 -0.46407835296E+03  0.46727634191E+03  0.49789249737E+03  0.82559847161E+03  0.00000000000E+00 0. -1.
        -16    1    5    5    0    0 -0.12741926562E+03  0.18291607352E+03  0.13588319880E+03  0.26107126023E+03  0.00000000000E+00 0.  1.
         16    1    1    2    0    0  0.10035525441E+04  0.27116111242E+03  0.81421207109E+02  0.10427250216E+04  0.00000000000E+00 0. -1.
    9900018    1    4    4    0    0  0.44603758847E+02 -0.75248390070E+03 -0.48763827103E+02  0.76086438039E+03  0.91187600000E+02 0.  0.
<mgrwt>
<rscale>  0 0.15224509E+04</rscale>
<asrwt>0</asrwt>
<pdfrwt beam="1">  1        1 0.29903730E+00 0.34940298E+04</pdfrwt>
<pdfrwt beam="2">  1       -1 0.27046876E+00 0.34940298E+04</pdfrwt>
<totfact> 0.13531043E-01</totfact>
</mgrwt>
</event>
<event>
12    1  0.4529991E-013  0.3205127E+04  0.7818608E-02  0.8187464E-01
          1   -1    0    0  501    0  0.00000000000E+00  0.00000000000E+00  0.16826499744E+04  0.16826499744E+04  0.00000000000E+00 0. -1.
         -1   -1    0    0    0  501 -0.00000000000E+00 -0.00000000000E+00 -0.15262886984E+04  0.15262886984E+04  0.00000000000E+00 0.  1.
         23    2    1    2    0    0  0.20930553698E+03 -0.21340435920E+03  0.33703142528E+03  0.45979736725E+03  0.92050035127E+02 0.  0.
    9900016    2    1    2    0    0 -0.40209143082E+03  0.38442390702E+02 -0.53922914635E+03  0.23060356233E+04  0.22054198891E+04 0.  0.
        -24    2    4    4    0    0 -0.11117121540E+04  0.28200483808E+03 -0.26659454755E+03  0.11801916159E+04  0.79680332777E+02 0.  0.
        -15    1    4    4    0    0  0.39011013374E+03 -0.41642557517E+03  0.12013287030E+03  0.58311926965E+03  0.00000000000E+00 0.  1.
        -15    1    3    3    0    0  0.18375410423E+03 -0.15237375596E+03  0.21633416878E+03  0.32215493929E+03  0.00000000000E+00 0.  1.
         15    1    3    3    0    0  0.25551432746E+02 -0.61030603243E+02  0.12069725651E+03  0.13764242796E+03  0.00000000000E+00 0. -1.
         15    1    5    5    0    0 -0.90005846832E+03  0.20580215902E+03 -0.23766213600E+03  0.95338505649E+03  0.00000000000E+00 0. -1.
        -16    1    5    5    0    0 -0.21165368569E+03  0.76202679057E+02 -0.28932411544E+02  0.22680655943E+03  0.00000000000E+00 0.  1.
         16    1    1    2    0    0  0.19278589384E+03  0.17496196850E+03  0.35855899712E+03  0.44310568231E+03  0.00000000000E+00 0. -1.
    9900018    1    4    4    0    0  0.31951058945E+03  0.17286312780E+03 -0.39276746910E+03  0.54272473769E+03  0.91187600000E+02 0.  0.
<mgrwt>
<rscale>  0 0.32051269E+04</rscale>
<asrwt>0</asrwt>
<pdfrwt beam="1">  1        1 0.25886923E+00 0.32051269E+04</pdfrwt>
<pdfrwt beam="2">  1       -1 0.23481365E+00 0.32051269E+04</pdfrwt>
<totfact> 0.35928852E-01</totfact>
</mgrwt>
</event>
<event>
12    1  0.4529991E-013  0.2739827E+04  0.7818608E-02  0.8854074E-01
          2   -1    0    0  501    0  0.00000000000E+00  0.00000000000E+00  0.18542263775E+04  0.18542263775E+04  0.00000000000E+00 0. -1.
         -2   -1    0    0    0  501 -0.00000000000E+00 -0.00000000000E+00 -0.12829769218E+04  0.12829769218E+04  0.00000000000E+00 0.  1.
         23    2    1    2    0    0 -0.12150666797E+03  0.23291410604E+03  0.25824894888E+03  0.37955577532E+03  0.91417809134E+02 0.  0.
    9900016    2    1    2    0    0  0.15737444976E+03 -0.63593644034E+03  0.42669578372E+03  0.23373617691E+04  0.22027275987E+04 0.  0.
        -24    2    4    4    0    0 -0.48308738432E+02  0.52985596860E+03  0.87165551945E+03  0.10243422947E+04  0.80079400494E+02 0.  0.
        -15    1    3    3    0    0 -0.44507372168E+02  0.66092589005E+02  0.26850009450E+02  0.84083645890E+02  0.00000000000E+00 0.  1.
        -15    1    4    4    0    0 -0.20540635609E+02 -0.77086999980E+03 -0.27518628632E+03  0.81877345248E+03  0.00000000000E+00 0.  1.
         15    1    3    3    0    0 -0.76999295800E+02  0.16682151704E+03  0.23139893943E+03  0.29547212943E+03  0.00000000000E+00 0. -1.
         15    1    5    5    0    0 -0.47155644861E+02  0.26354847342E+03  0.49932707626E+03  0.56657654538E+03  0.00000000000E+00 0. -1.
        -16    1    5    5    0    0 -0.11530935716E+01  0.26630749518E+03  0.37232844319E+03  0.45776574929E+03  0.00000000000E+00 0.  1.
         16    1    1    2    0    0 -0.35867781790E+02  0.40302233430E+03 -0.11369527693E+03  0.42028575483E+03  0.00000000000E+00 0. -1.
    9900018    1    4    4    0    0  0.22622382380E+03 -0.39492240913E+03 -0.16977344941E+03  0.49424602195E+03  0.91187600000E+02 0.  0.
<mgrwt>
<rscale>  0 0.15465499E+04</rscale>
<asrwt>0</asrwt>
<pdfrwt beam="1">  1        2 0.28526560E+00 0.27398267E+04</pdfrwt>
<pdfrwt beam="2">  1       -2 0.19738107E+00 0.27398267E+04</pdfrwt>
<totfact> 0.96275542E-01</totfact>
</mgrwt>
</event>
<event>
12    1  0.4529991E-013  0.3728611E+04  0.7818608E-02  0.8656782E-01
          2   -1    0    0  501    0  0.00000000000E+00  0.00000000000E+00  0.28104722372E+04  0.28104722372E+04  0.00000000000E+00 0. -1.
         -2   -1    0    0    0  501 -0.00000000000E+00 -0.00000000000E+00 -0.17276769191E+04  0.17276769191E+04  0.00000000000E+00 0.  1.
         23    2    1    2    0    0 -0.32064980712E+02  0.22937089861E+03  0.75504844731E+03  0.79516146109E+03  0.92436028160E+02 0.  0.
    9900016    2    1    2    0    0  0.61508151675E+03 -0.10511786135E+04  0.80912845324E+03  0.26262941700E+04  0.21816118957E+04 0.  0.
         24    2    4    4    0    0  0.33764518293E+03 -0.14702946220E+04  0.11207587531E+04  0.18810767936E+04  0.81112120270E+02 0.  0.
        -15    1    5    5    0    0  0.30269998151E+03 -0.12425804704E+04  0.91932276234E+03  0.15750516961E+04  0.00000000000E+00 0.  1.
        -15    1    3    3    0    0 -0.33925700562E+02  0.17002481319E+03  0.66552612007E+03  0.68773861805E+03  0.00000000000E+00 0. -1.
         15    1    3    3    0    0  0.18607198494E+01  0.59346085420E+02  0.89522327240E+02  0.10742284304E+03  0.00000000000E+00 0.  1.
         15    1    4    4    0    0  0.36410846151E+03  0.40174677568E+03 -0.20592727749E+03  0.57998404041E+03  0.00000000000E+00 0. -1.
        -16    1    1    2    0    0 -0.58301653604E+03  0.82180771490E+03 -0.48138158247E+03  0.11166935253E+04  0.00000000000E+00 0.  1.
         16    1    5    5    0    0  0.34945201418E+02 -0.22771415158E+03  0.20143599074E+03  0.30602509750E+03  0.00000000000E+00 0. -1.
    9900018    1    4    4    0    0 -0.86672127695E+02  0.17369232765E+02 -0.10570302235E+03  0.16523333591E+03  0.91187600000E+02 0.  0.
<mgrwt>
<rscale>  0 0.18961372E+04</rscale>
<asrwt>0</asrwt>
<pdfrwt beam="1">  1        2 0.43238035E+00 0.37286109E+04</pdfrwt>
<pdfrwt beam="2">  1       -2 0.26579645E+00 0.37286109E+04</pdfrwt>
<totfact> 0.92266124E-02</totfact>
</mgrwt>
</event>
<event>
12    1  0.4529991E-013  0.2934328E+04  0.7818608E-02  0.8262737E-01
         -2   -1    0    0    0  501 -0.00000000000E+00  0.00000000000E+00  0.83360358139E+03  0.83360358139E+03  0.00000000000E+00 0.  1.
          2   -1    0    0  501    0  0.00000000000E+00 -0.00000000000E+00 -0.25822466969E+04  0.25822466969E+04  0.00000000000E+00 0. -1.
         23    2    1    2    0    0 -0.53356174561E+02 -0.37179415004E+03 -0.30234123538E+03  0.49062188536E+03  0.90674364705E+02 0.  0.
    9900016    2    1    2    0    0 -0.24008433001E+03  0.42422001625E+03 -0.11966156747E+04  0.25363852338E+04  0.21826034623E+04 0.  0.
         24    2    4    4    0    0 -0.46465634602E+03  0.37393672612E+03 -0.19982193621E+03  0.63395152171E+03  0.78940044615E+02 0.  0.
        -15    1    5    5    0    0 -0.41969159238E+03  0.30297094616E+03 -0.17131775287E+03  0.54523591167E+03  0.00000000000E+00 0.  1.
        -15    1    3    3    0    0 -0.62888277082E+02 -0.15963677706E+03 -0.16270600186E+03  0.23645735139E+03  0.00000000000E+00 0.  1.
         15    1    4    4    0    0 -0.61513872585E+03 -0.12642512375E+03 -0.80053176246E+03  0.10174625628E+04  0.00000000000E+00 0. -1.
         15    1    3    3    0    0  0.95321025217E+01 -0.21215737297E+03 -0.13963523351E+03  0.25416453396E+03  0.00000000000E+00 0. -1.
        -16    1    1    2    0    0  0.29344050458E+03 -0.52425866208E+02 -0.24968620546E+03  0.38884315909E+03  0.00000000000E+00 0.  1.
         16    1    5    5    0    0 -0.44964753644E+02  0.70965779963E+02 -0.28504183338E+02  0.88715610035E+02  0.00000000000E+00 0. -1.
    9900018    1    4    4    0    0  0.83971074186E+03  0.17670841388E+03 -0.19626197598E+03  0.88497114933E+03  0.91187600000E+02 0.  0.
<mgrwt>
<rscale>  0 0.29343279E+04</rscale>
<asrwt>0</asrwt>
<pdfrwt beam="1">  1        2 0.39726872E+00 0.29343279E+04</pdfrwt>
<pdfrwt beam="2">  1       -2 0.12824671E+00 0.29343279E+04</pdfrwt>
<totfact> 0.12055099E+00</totfact>
</mgrwt>
</event>
<event>
12    1  0.4529991E-013  0.2672895E+04  0.7818608E-02  0.8343854E-01
          2   -1    0    0  501    0  0.00000000000E+00  0.00000000000E+00  0.10272183525E+04  0.10272183525E+04  0.00000000000E+00 0. -1.
         -2   -1    0    0    0  501 -0.00000000000E+00 -0.00000000000E+00 -0.17387653841E+04  0.17387653841E+04  0.00000000000E+00 0.  1.
         23    2    1    2    0    0 -0.19603768118E+03  0.80584939101E+02 -0.79785888491E+02  0.24359270518E+03  0.89704588301E+02 0.  0.
    9900016    2    1    2    0    0  0.30539089288E+02 -0.18850935518E+03 -0.45892179430E+03  0.22598821668E+04  0.22045384510E+04 0.  0.
         24    2    4    4    0    0 -0.23203974351E+03 -0.83896244629E+03 -0.70885017907E+03  0.11255030524E+04  0.81167208304E+02 0.  0.
        -15    1    3    3    0    0 -0.18064534847E+03  0.87598374199E+02 -0.46235052534E+02  0.20601916700E+03  0.00000000000E+00 0.  1.
        -15    1    5    5    0    0 -0.18854724592E+03 -0.64630671885E+03 -0.50441803517E+03  0.84124906715E+03  0.00000000000E+00 0.  1.
         15    1    3    3    0    0 -0.15392332702E+02 -0.70134350983E+01 -0.33550835957E+02  0.37573538179E+02  0.00000000000E+00 0. -1.
         15    1    4    4    0    0 -0.21754077347E+03  0.47464551732E+03 -0.66303314822E+02  0.52631595529E+03  0.00000000000E+00 0. -1.
        -16    1    1    2    0    0  0.16549859189E+03  0.10792441608E+03 -0.17283934884E+03  0.26250886463E+03  0.00000000000E+00 0.  1.
         16    1    5    5    0    0 -0.43492497589E+02 -0.19265572743E+03 -0.20443214389E+03  0.28425398523E+03  0.00000000000E+00 0. -1.
    9900018    1    4    4    0    0  0.48011960627E+03  0.17580757378E+03  0.31623169958E+03  0.60806315917E+03  0.91187600000E+02 0.  0.
<mgrwt>
<rscale>  0 0.26728948E+04</rscale>
<asrwt>0</asrwt>
<pdfrwt beam="1">  1        2 0.15803359E+00 0.26728948E+04</pdfrwt>
<pdfrwt beam="2">  1       -2 0.26750236E+00 0.26728948E+04</pdfrwt>
<totfact> 0.10680426E+00</totfact>
</mgrwt>
</event>
<event>
12    1  0.4529991E-013  0.2834156E+04  0.7818608E-02  0.8292742E-01
         -2   -1    0    0    0  501 -0.00000000000E+00  0.00000000000E+00  0.18033697789E+04  0.18033697789E+04  0.00000000000E+00 0.  1.
          2   -1    0    0  501    0  0.00000000000E+00 -0.00000000000E+00 -0.11135321083E+04  0.11135321083E+04  0.00000000000E+00 0. -1.
         23    2    1    2    0    0 -0.30221654666E+03 -0.11621082372E+03  0.25698706437E+02  0.33693925354E+03  0.89598216718E+02 0.  0.
    9900016    2    1    2    0    0  0.15052107036E+03  0.63263688202E+02  0.86193153497E+03  0.23251355987E+04  0.21532929886E+04 0.  0.
        -24    2    4    4    0    0  0.36983029162E+03  0.35875514821E+02  0.13177693362E+04  0.13713642436E+04  0.77861209786E+02 0.  0.
        -15    1    4    4    0    0 -0.48058782962E+02  0.22285374589E+03 -0.60076010693E+03  0.64256217189E+03  0.00000000000E+00 0.  1.
        -15    1    3    3    0    0 -0.97279865693E+00 -0.15845124780E+02  0.10537908521E+02  0.19054181497E+02  0.00000000000E+00 0.  1.
         15    1    5    5    0    0  0.22471264266E+03  0.40182714437E+02  0.92096495774E+03  0.94883448277E+03  0.00000000000E+00 0. -1.
         15    1    3    3    0    0 -0.30124374800E+03 -0.10036569894E+03  0.15160797917E+02  0.31788507204E+03  0.00000000000E+00 0. -1.
        -16    1    5    5    0    0  0.14511764896E+03 -0.43071996162E+01  0.39680437847E+03  0.42252976082E+03  0.00000000000E+00 0.  1.
         16    1    1    2    0    0  0.15169547630E+03  0.52947135513E+02 -0.19779257084E+03  0.25482703500E+03  0.00000000000E+00 0. -1.
    9900018    1    4    4    0    0 -0.17125043829E+03 -0.19546557251E+03  0.14492230569E+03  0.31120918324E+03  0.91187600000E+02 0.  0.
<mgrwt>
<rscale>  0 0.28341561E+04</rscale>
<asrwt>0</asrwt>
<pdfrwt beam="1">  1        2 0.17131263E+00 0.28341561E+04</pdfrwt>
<pdfrwt beam="2">  1       -2 0.27744150E+00 0.28341561E+04</pdfrwt>
<totfact> 0.80952141E-01</totfact>
</mgrwt>
</event>
<event>
12    1  0.4529991E-013  0.3008542E+04  0.7818608E-02  0.8241296E-01
          2   -1    0    0  501    0  0.00000000000E+00  0.00000000000E+00  0.24489098493E+04  0.24489098493E+04  0.00000000000E+00 0. -1.
         -2   -1    0    0    0  501 -0.00000000000E+00 -0.00000000000E+00 -0.92401602295E+03  0.92401602295E+03  0.00000000000E+00 0.  1.
         23    2    1    2    0    0  0.44086438118E+03 -0.17071659589E+03  0.67977912145E+03  0.83281870346E+03  0.89340809024E+02 0.  0.
    9900016    2    1    2    0    0 -0.41988325519E+03  0.54229677831E+02  0.89604179812E+03  0.24112546230E+04  0.21981845116E+04 0.  0.
         24    2    4    4    0    0  0.18061069989E+03 -0.52366249796E+03  0.53336924995E+03  0.77310899608E+03  0.79825599571E+02 0.  0.
        -15    1    3    3    0    0  0.34150064819E+03 -0.10855788544E+03  0.56301300376E+03  0.66737631783E+03  0.00000000000E+00 0. -1.
        -15    1    5    5    0    0  0.50810101271E+02 -0.24925179262E+03  0.21318257828E+03  0.33189596894E+03  0.00000000000E+00 0.  1.
         15    1    3    3    0    0  0.99363732995E+02 -0.62158710452E+02  0.11676611770E+03  0.16544238563E+03  0.00000000000E+00 0.  1.
         15    1    4    4    0    0 -0.60495232822E+03  0.81058127627E+03 -0.19222949666E+03  0.10295443187E+04  0.00000000000E+00 0. -1.
        -16    1    1    2    0    0 -0.20981125994E+02  0.11648691806E+03 -0.50927093233E+02  0.12885254578E+03  0.00000000000E+00 0.  1.
         16    1    5    5    0    0  0.12980059862E+03 -0.27441070534E+03  0.32018667166E+03  0.44121302714E+03  0.00000000000E+00 0. -1.
    9900018    1    4    4    0    0  0.44583731431E+01 -0.23268910048E+03  0.55490204483E+03  0.60860130818E+03  0.91187600000E+02 0.  0.
<mgrwt>
<rscale>  0 0.30085425E+04</rscale>
<asrwt>0</asrwt>
<pdfrwt beam="1">  1        2 0.37675536E+00 0.30085425E+04</pdfrwt>
<pdfrwt beam="2">  1       -2 0.14215631E+00 0.30085425E+04</pdfrwt>
<totfact> 0.10998970E+00</totfact>
</mgrwt>
</event>
<event>
12    1  0.4529991E-013  0.2765137E+04  0.7818608E-02  0.9037419E-01
          1   -1    0    0  501    0  0.00000000000E+00  0.00000000000E+00  0.77671966221E+03  0.77671966221E+03  0.00000000000E+00 0. -1.
         -1   -1    0    0    0  501 -0.00000000000E+00 -0.00000000000E+00 -0.29174867523E+04  0.29174867523E+04  0.00000000000E+00 0.  1.
         23    2    1    2    0    0  0.85254076332E+02 -0.40633629594E+02  0.74851305982E+02  0.15091035277E+03  0.90839788525E+02 0.  0.
    9900016    2    1    2    0    0  0.17499878266E+03  0.48439728203E+03 -0.17185662449E+04  0.28279509906E+04  0.21859944113E+04 0.  0.
        -24    2    4    4    0    0 -0.47730390984E+03 -0.32354232570E+03 -0.10186637379E+03  0.59117347996E+03  0.81306004850E+02 0.  0.
        -15    1    4    4    0    0  0.40422514881E+03  0.96308835963E+03 -0.66805103165E+03  0.12398505314E+04  0.00000000000E+00 0.  1.
        -15    1    3    3    0    0 -0.16500671528E+02  0.73278498014E+01  0.15088123479E+02  0.23529152422E+02  0.00000000000E+00 0.  1.
         15    1    3    3    0    0  0.10175474786E+03 -0.47961479396E+02  0.59763182503E+02  0.12738120034E+03  0.00000000000E+00 0. -1.
         15    1    5    5    0    0 -0.23172657399E+03 -0.12075313564E+03 -0.18477317340E+02  0.26195407253E+03  0.00000000000E+00 0. -1.
        -16    1    5    5    0    0 -0.24557733585E+03 -0.20278919006E+03 -0.83389056453E+02  0.32921940743E+03  0.00000000000E+00 0.  1.
         16    1    1    2    0    0 -0.26025285899E+03 -0.44376365243E+03 -0.49705215118E+03  0.71534507116E+03  0.00000000000E+00 0. -1.
    9900018    1    4    4    0    0  0.24807754369E+03 -0.15514875189E+03 -0.94864883946E+03  0.99692697922E+03  0.91187600000E+02 0.  0.
<mgrwt>
<rscale>  0 0.12901423E+04</rscale>
<asrwt>0</asrwt>
<pdfrwt beam="1">  1        1 0.11949533E+00 0.27651369E+04</pdfrwt>
<pdfrwt beam="2">  1       -1 0.44884412E+00 0.27651369E+04</pdfrwt>
<totfact> 0.65792840E-02</totfact>
</mgrwt>
</event>
<event>
12    1  0.4529991E-013  0.2777928E+04  0.7818608E-02  0.9019669E-01
         -2   -1    0    0    0  501 -0.00000000000E+00  0.00000000000E+00  0.61736200796E+03  0.61736200796E+03  0.00000000000E+00 0.  1.
          2   -1    0    0  501    0  0.00000000000E+00 -0.00000000000E+00 -0.34480885300E+04  0.34480885300E+04  0.00000000000E+00 0. -1.
         23    2    1    2    0    0 -0.49310103705E+02  0.85205200810E+02 -0.16492224527E+03  0.21533429848E+03  0.97355536790E+02 0.  0.
    9900016    2    1    2    0    0 -0.29684180943E+03 -0.18164301076E+03 -0.26906281243E+04  0.34899251491E+04  0.21952194879E+04 0.  0.
         24    2    4    4    0    0 -0.75575856411E+03 -0.51338717261E+02 -0.16473606496E+04  0.18149354752E+04  0.79918697769E+02 0.  0.
        -15    1    3    3    0    0  0.14290500395E+02  0.44398119712E+02 -0.11674397715E+03  0.12571621867E+03  0.00000000000E+00 0.  1.
        -15    1    5    5    0    0 -0.19897233169E+03 -0.47223152199E+02 -0.46910270499E+03  0.51173954578E+03  0.00000000000E+00 0.  1.
         15    1    3    3    0    0 -0.63600604100E+02  0.40807081098E+02 -0.48178268117E+02  0.89618079808E+02  0.00000000000E+00 0. -1.
         15    1    4    4    0    0  0.12983502634E+03 -0.66255167234E+03 -0.48310297138E+03  0.83019294959E+03  0.00000000000E+00 0. -1.
        -16    1    1    2    0    0  0.34615191314E+03  0.96437809950E+02  0.24823847569E+02  0.36019109035E+03  0.00000000000E+00 0.  1.
         16    1    5    5    0    0 -0.55678623242E+03 -0.41155650615E+01 -0.11782579446E+04  0.13031959294E+04  0.00000000000E+00 0. -1.
    9900018    1    4    4    0    0  0.32908172834E+03  0.53224737884E+03 -0.56016450334E+03  0.84479672431E+03  0.91187600000E+02 0.  0.
<mgrwt>
<rscale>  0 0.13125537E+04</rscale>
<asrwt>0</asrwt>
<pdfrwt beam="1">  1        2 0.53047516E+00 0.27779278E+04</pdfrwt>
<pdfrwt beam="2">  1       -2 0.94978770E-01 0.27779278E+04</pdfrwt>
<totfact> 0.71529286E-01</totfact>
</mgrwt>
</event>
<event>
12    1  0.4529991E-013  0.2707969E+04  0.7818608E-02  0.8332424E-01
         -1   -1    0    0    0  501 -0.00000000000E+00  0.00000000000E+00  0.10976137996E+04  0.10976137996E+04  0.00000000000E+00 0.  1.
          1   -1    0    0  501    0  0.00000000000E+00 -0.00000000000E+00 -0.16702356535E+04  0.16702356535E+04  0.00000000000E+00 0. -1.
         23    2    1    2    0    0  0.11205492029E+03 -0.16467066938E+03  0.56955221178E+02  0.22689616229E+03  0.92548564159E+02 0.  0.
    9900016    2    1    2    0    0 -0.29956872340E+03  0.25576444092E+03 -0.50323540339E+03  0.22971875846E+04  0.22065058482E+04 0.  0.
        -24    2    4    4    0    0  0.48583424528E+03  0.75079998184E+03 -0.64958246124E+03  0.11082108700E+04  0.80239839293E+02 0.  0.
        -15    1    3    3    0    0  0.68943319011E+02 -0.53931279419E+02 -0.13768575298E+02  0.88607775064E+02  0.00000000000E+00 0.  1.
        -15    1    4    4    0    0 -0.91210298208E+03 -0.41782324909E+03  0.96781490525E+02  0.10079061337E+04  0.00000000000E+00 0.  1.
         15    1    5    5    0    0  0.28955562682E+03  0.50954458002E+03 -0.40210454953E+03  0.71075045466E+03  0.00000000000E+00 0. -1.
         15    1    3    3    0    0  0.43111601276E+02 -0.11073938996E+03  0.70723796477E+02  0.13828838722E+03  0.00000000000E+00 0. -1.
        -16    1    5    5    0    0  0.19627861847E+03  0.24125540182E+03 -0.24747791171E+03  0.39746041533E+03  0.00000000000E+00 0.  1.
         16    1    1    2    0    0  0.18751380311E+03 -0.91093771540E+02 -0.12634167169E+03  0.24376570632E+03  0.00000000000E+00 0. -1.
    9900018    1    4    4    0    0  0.12670001340E+03 -0.77212291829E+02  0.49565567332E+02  0.18107058089E+03  0.91187600000E+02 0.  0.
<mgrwt>
<rscale>  0 0.27079688E+04</rscale>
<asrwt>0</asrwt>
<pdfrwt beam="1">  1        1 0.25695933E+00 0.27079688E+04</pdfrwt>
<pdfrwt beam="2">  1       -1 0.16886366E+00 0.27079688E+04</pdfrwt>
<totfact> 0.10932660E+00</totfact>
</mgrwt>
</event>
<event>
12    1  0.4529991E-013  0.3109962E+04  0.7818608E-02  0.8213009E-01
         -1   -1    0    0    0  501 -0.00000000000E+00  0.00000000000E+00  0.66843786989E+03  0.66843786989E+03  0.00000000000E+00 0.  1.
          1   -1    0    0  501    0  0.00000000000E+00 -0.00000000000E+00 -0.36173382474E+04  0.36173382474E+04  0.00000000000E+00 0. -1.
         23    2    1    2    0    0 -0.26273431463E+02 -0.30133009460E+03 -0.81849611514E+03  0.87752059981E+03  0.92824530599E+02 0.  0.
    9900016    2    1    2    0    0 -0.84271808481E+02  0.45554030378E+03 -0.22528209543E+04  0.31824527602E+04  0.21995873732E+04 0.  0.
         24    2    4    4    0    0  0.39945553592E+03  0.77727898497E+03 -0.22723895373E+04  0.24358700222E+04  0.77338282090E+02 0.  0.
        -15    1    3    3    0    0 -0.32328836934E+02 -0.28006546107E+02 -0.12268760930E+03  0.12992986492E+03  0.00000000000E+00 0.  1.
        -15    1    5    5    0    0  0.62003816074E+02  0.12245838741E+03 -0.44132604623E+03  0.46217876296E+03  0.00000000000E+00 0.  1.
         15    1    4    4    0    0 -0.26081492122E+03 -0.15561521754E+03  0.23436422021E+03  0.38362365252E+03  0.00000000000E+00 0. -1.
         15    1    3    3    0    0  0.60554054705E+01 -0.27332354849E+03 -0.69580850585E+03  0.74759073490E+03  0.00000000000E+00 0. -1.
        -16    1    1    2    0    0  0.11054523994E+03 -0.15421020918E+03  0.12241669203E+03  0.22580275724E+03  0.00000000000E+00 0.  1.
         16    1    5    5    0    0  0.33745171985E+03  0.65482059756E+03 -0.18310634911E+04  0.19736912592E+04  0.00000000000E+00 0. -1.
    9900018    1    4    4    0    0 -0.22291242318E+03 -0.16612346365E+03 -0.21479563723E+03  0.36295908551E+03  0.91187600000E+02 0.  0.
<mgrwt>
<rscale>  0 0.31099620E+04</rscale>
<asrwt>0</asrwt>
<pdfrwt beam="1">  1        1 0.55651357E+00 0.31099620E+04</pdfrwt>
<pdfrwt beam="2">  1       -1 0.10283660E+00 0.31099620E+04</pdfrwt>
<totfact> 0.15158406E-01</totfact>
</mgrwt>
</event>
<event>
12    1  0.4529991E-013  0.3114075E+04  0.7818608E-02  0.8691420E-01
          2   -1    0    0  501    0  0.00000000000E+00  0.00000000000E+00  0.26959170577E+04  0.26959170577E+04  0.00000000000E+00 0. -1.
         -2   -1    0    0    0  501 -0.00000000000E+00 -0.00000000000E+00 -0.11256730834E+04  0.11256730834E+04  0.00000000000E+00 0.  1.
         23    2    1    2    0    0  0.36011092109E+03  0.28962873660E+02  0.17349880841E+03  0.40862110692E+03  0.79690959105E+02 0.  0.
    9900016    2    1    2    0    0 -0.34262994722E+03  0.71298898286E+03  0.93713022943E+03  0.25400177000E+04  0.22243489562E+04 0.  0.
        -24    2    4    4    0    0  0.28786252366E+03  0.97946998711E+03  0.10501144657E+04  0.14667263968E+04  0.79496188393E+02 0.  0.
        -15    1    4    4    0    0 -0.71825738684E+03  0.30716567496E+02  0.31108571269E+02  0.71958663445E+03  0.00000000000E+00 0.  1.
        -15    1    3    3    0    0  0.78710893755E+02  0.10761717794E+02  0.38540449538E+01  0.79536614386E+02  0.00000000000E+00 0. -1.
         15    1    3    3    0    0  0.28140002733E+03  0.18201155866E+02  0.16964476345E+03  0.32908449253E+03  0.00000000000E+00 0.  1.
         15    1    5    5    0    0  0.16079657455E+03  0.54078441085E+03  0.52343383107E+03  0.76960138573E+03  0.00000000000E+00 0. -1.
        -16    1    5    5    0    0  0.12706594911E+03  0.43868557626E+03  0.52668063458E+03  0.69712501109E+03  0.00000000000E+00 0.  1.
         16    1    1    2    0    0 -0.17480973868E+02 -0.74195185652E+03  0.45961493647E+03  0.87295133408E+03  0.00000000000E+00 0. -1.
    9900018    1    4    4    0    0  0.87764915961E+02 -0.29719757174E+03 -0.14409280750E+03  0.35370466874E+03  0.91187600000E+02 0.  0.
<mgrwt>
<rscale>  0 0.18282477E+04</rscale>
<asrwt>0</asrwt>
<pdfrwt beam="1">  1        2 0.41475647E+00 0.31140746E+04</pdfrwt>
<pdfrwt beam="2">  1       -2 0.17318047E+00 0.31140746E+04</pdfrwt>
<totfact> 0.45244934E-01</totfact>
</mgrwt>
</event>
