<event>
12    1  0.4221990E-009  0.4578025E+04  0.7818608E-02  0.8467731E-01
         -2   -1    0    0    0  501 -0.00000000000E+00  0.00000000000E+00  0.20329155872E+04  0.20329155872E+04  0.00000000000E+00 0.  1.
          2   -1    0    0  501    0  0.00000000000E+00 -0.00000000000E+00 -0.30693211457E+04  0.30693211457E+04  0.00000000000E+00 0. -1.
        -24    2    1    2    0    0  0.53490273553E+02 -0.28981714017E+03 -0.36424177243E+03  0.47513014079E+03  0.78875837879E+02 0.  0.
    9900016    2    1    2    0    0  0.28738021633E+03 -0.90273569891E+03 -0.19344441190E+04  0.28574380910E+04  0.18775940092E+04 0.  0.
         24    2    4    4    0    0  0.35001831744E+03 -0.38123352264E+03 -0.16773496557E+04  0.17571430386E+04  0.78727182596E+02 0.  0.
        -15    1    1    2    0    0 -0.34087048989E+03  0.11925528391E+04  0.12622803330E+04  0.17696685011E+04  0.00000000000E+00 0.  1.
        -15    1    5    5    0    0  0.32029115811E+03 -0.32319836204E+03 -0.13938210177E+04  0.14662130256E+04  0.00000000000E+00 0.  1.
         15    1    3    3    0    0  0.65513959510E+01 -0.12349632259E+03 -0.20887683994E+03  0.24274224343E+03  0.00000000000E+00 0. -1.
         15    1    4    4    0    0 -0.19800225403E+02  0.46704906022E+02  0.29638918298E+03  0.30069909371E+03  0.00000000000E+00 0. -1.
        -16    1    3    3    0    0  0.46938877602E+02 -0.16632081757E+03 -0.15536493249E+03  0.23238789735E+03  0.00000000000E+00 0.  1.
         16    1    5    5    0    0  0.29727159323E+02 -0.58035160597E+02 -0.28352863808E+03  0.29093001302E+03  0.00000000000E+00 0. -1.
    9900018    1    4    4    0    0 -0.42837875699E+02 -0.56820708229E+03 -0.55348364628E+03  0.79959595863E+03  0.91187600000E+02 0.  0.
<mgrwt>
<rscale>  0 0.23260214E+04</rscale>
<asrwt>0</asrwt>
<pdfrwt beam="1">  1        2 0.47220325E+00 0.45780248E+04</pdfrwt>
<pdfrwt beam="2">  1       -2 0.31275625E+00 0.45780248E+04</pdfrwt>
<totfact> 0.30954876E-02</totfact>
</mgrwt>
</event>
<event>
12    1  0.4221990E-009  0.2103584E+04  0.7818608E-02  0.9344663E-01
          1   -1    0    0  501    0  0.00000000000E+00  0.00000000000E+00  0.12084538830E+04  0.12084538830E+04  0.00000000000E+00 0. -1.
         -1   -1    0    0    0  501 -0.00000000000E+00 -0.00000000000E+00 -0.11108340846E+04  0.11108340846E+04  0.00000000000E+00 0.  1.
        -24    2    1    2    0    0 -0.37507758664E+02  0.34100585190E+02  0.19169823327E+03  0.21360110339E+03  0.79420002901E+02 0.  0.
    9900016    2    1    2    0    0  0.13192398684E+03 -0.24780165778E+03 -0.87201748593E+02  0.18719565466E+04  0.18487313400E+04 0.  0.
         24    2    4    4    0    0  0.35999165906E+03  0.73651924830E+03  0.35552838025E+02  0.82436592757E+03  0.79123830323E+02 0.  0.
        -15    1    5    5    0    0  0.21699170802E+03  0.52618250416E+03  0.19050343173E+02  0.56948779144E+03  0.00000000000E+00 0.  1.
        -15    1    1    2    0    0 -0.94416228175E+02  0.21370107259E+03 -0.68766863489E+01  0.23373031764E+03  0.00000000000E+00 0.  1.
         15    1    4    4    0    0 -0.29700404520E+02 -0.52961583002E+03 -0.90190232380E+01  0.53052463111E+03  0.00000000000E+00 0. -1.
         15    1    3    3    0    0 -0.57016246705E+02  0.48403850373E+01  0.97481764243E+02  0.11303528686E+03  0.00000000000E+00 0. -1.
        -16    1    3    3    0    0  0.19508488041E+02  0.29260200153E+02  0.94216469025E+02  0.10056581653E+03  0.00000000000E+00 0.  1.
         16    1    5    5    0    0  0.14299995104E+03  0.21033674415E+03  0.16502494852E+02  0.25487813612E+03  0.00000000000E+00 0. -1.
    9900018    1    4    4    0    0 -0.19836726770E+03 -0.45470507606E+03 -0.11373556338E+03  0.51706598792E+03  0.91187600000E+02 0.  0.
<mgrwt>
<rscale>  0 0.96773074E+03</rscale>
<asrwt>0</asrwt>
<pdfrwt beam="1">  1        1 0.18591598E+00 0.21035842E+04</pdfrwt>
<pdfrwt beam="2">  1       -1 0.17089755E+00 0.21035842E+04</pdfrwt>
<totfact> 0.23321812E+00</totfact>
</mgrwt>
</event>
<event>
12    1  0.4221990E-009  0.4727882E+04  0.7818608E-02  0.8339178E-01
         -2   -1    0    0    0  501 -0.00000000000E+00  0.00000000000E+00  0.26206453476E+04  0.26206453476E+04  0.00000000000E+00 0.  1.
          2   -1    0    0  501    0  0.00000000000E+00 -0.00000000000E+00 -0.26013261950E+04  0.26013261950E+04  0.00000000000E+00 0. -1.
        -24    2    1    2    0    0  0.17706196339E+03 -0.45350939079E+03  0.26296200161E+02  0.49408473728E+03  0.80040808701E+02 0.  0.
    9900016    2    1    2    0    0  0.14446250339E+04 -0.42619001576E+03 -0.10556437505E+04  0.26057554200E+04  0.18458055593E+04 0.  0.
         24    2    4    4    0    0  0.10078346185E+04 -0.80569623836E+03 -0.41537420653E+03  0.13579144707E+04  0.80739899893E+02 0.  0.
        -15    1    1    2    0    0 -0.16216869973E+04  0.87969940655E+03  0.10486667029E+04  0.21221313854E+04  0.00000000000E+00 0.  1.
        -15    1    5    5    0    0  0.48546157336E+03 -0.35938892179E+03 -0.22951860627E+03  0.64615178321E+03  0.00000000000E+00 0.  1.
         15    1    3    3    0    0  0.15012425237E+03 -0.33997327121E+03 -0.10318560339E+02  0.37178702099E+03  0.00000000000E+00 0. -1.
         15    1    4    4    0    0  0.89512673061E+02  0.11237131179E+03  0.22888538126E+03  0.27023757716E+03  0.00000000000E+00 0. -1.
        -16    1    3    3    0    0  0.26937711017E+02 -0.11353611958E+03  0.36614760500E+02  0.12229771629E+03  0.00000000000E+00 0.  1.
         16    1    5    5    0    0  0.52237304514E+03 -0.44630731656E+03 -0.18585560027E+03  0.71176268745E+03  0.00000000000E+00 0. -1.
    9900018    1    4    4    0    0  0.34727774231E+03  0.26713491081E+03 -0.86915492519E+03  0.97760337216E+03  0.91187600000E+02 0.  0.
<mgrwt>
<rscale>  0 0.26871773E+04</rscale>
<asrwt>0</asrwt>
<pdfrwt beam="1">  1        2 0.40020403E+00 0.47278817E+04</pdfrwt>
<pdfrwt beam="2">  1       -2 0.40317621E+00 0.47278817E+04</pdfrwt>
<totfact> 0.15709820E-02</totfact>
</mgrwt>
</event>
<event>
12    1  0.4221990E-009  0.3553888E+04  0.7818608E-02  0.8439766E-01
          2   -1    0    0  501    0  0.00000000000E+00  0.00000000000E+00  0.28159211941E+04  0.28159211941E+04  0.00000000000E+00 0. -1.
         -2   -1    0    0    0  501 -0.00000000000E+00 -0.00000000000E+00 -0.16411016374E+04  0.16411016374E+04  0.00000000000E+00 0.  1.
        -24    2    1    2    0    0  0.73233116080E+03  0.37540954980E+02  0.10577334687E+03  0.74582644713E+03  0.85737016236E+02 0.  0.
    9900016    2    1    2    0    0  0.18823694518E+03  0.70590983874E+03  0.14630304930E+04  0.24640442943E+04  0.18431804613E+04 0.  0.
         24    2    4    4    0    0 -0.45689037078E+03 -0.24807385729E+03  0.38892948497E+02  0.52748672289E+03  0.80250431781E+02 0.  0.
        -15    1    5    5    0    0 -0.12655850506E+03 -0.38494336487E+02 -0.12704566478E+02  0.13289196798E+03  0.00000000000E+00 0.  1.
        -15    1    1    2    0    0 -0.92056810598E+03 -0.74345079372E+03 -0.39398428318E+03  0.12471520901E+04  0.00000000000E+00 0.  1.
         15    1    4    4    0    0  0.63052476021E+03  0.40229886559E+03  0.73053455328E+03  0.10455078116E+04  0.00000000000E+00 0. -1.
         15    1    3    3    0    0  0.62379483993E+03  0.12463515278E+02  0.65389620572E+02  0.62733654765E+03  0.00000000000E+00 0. -1.
        -16    1    3    3    0    0  0.10853632087E+03  0.25077439702E+02  0.40383726294E+02  0.11848989948E+03  0.00000000000E+00 0.  1.
         16    1    5    5    0    0 -0.33033186572E+03 -0.20957952081E+03  0.51597514976E+02  0.39459475491E+03  0.00000000000E+00 0. -1.
    9900018    1    4    4    0    0  0.14602555756E+02  0.55168483044E+03  0.69360299118E+03  0.89104975986E+03  0.91187600000E+02 0.  0.
<mgrwt>
<rscale>  0 0.23992982E+04</rscale>
<asrwt>0</asrwt>
<pdfrwt beam="1">  1        2 0.43321865E+00 0.35538878E+04</pdfrwt>
<pdfrwt beam="2">  1       -2 0.25247717E+00 0.35538878E+04</pdfrwt>
<totfact> 0.11186964E-01</totfact>
</mgrwt>
</event>
