<event>
11    1  0.2438452E-013  0.3392226E+04  0.7818608E-02  0.8139817E-01
          2   -1    0    0  501    0  0.00000000000E+00  0.00000000000E+00  0.24977268174E+04  0.24977268174E+04  0.00000000000E+00 0. -1.
         -2   -1    0    0    0  501 -0.00000000000E+00 -0.00000000000E+00 -0.11517671823E+04  0.11517671823E+04  0.00000000000E+00 0.  1.
    9900016    2    1    2    0    0  0.23436117810E+02 -0.86212719722E+03  0.68210085398E+03  0.24233246353E+04  0.21594972001E+04 0.  0.
         23    2    3    3    0    0  0.40017145124E+03  0.24825425901E+03  0.55678423206E+03  0.73501129630E+03  0.92008462244E+02 0.  0.
        -15    1    4    4    0    0  0.12650861363E+03  0.34514339087E+02  0.17890267391E+03  0.22181486798E+03  0.00000000000E+00 0. -1.
        -15    1    3    3    0    0 -0.38417191703E+03 -0.17050512324E+03  0.23484704760E+03  0.48146982735E+03  0.00000000000E+00 0.  1.
         15    1    4    4    0    0  0.27366283761E+03  0.21373991992E+03  0.37788155814E+03  0.51319642832E+03  0.00000000000E+00 0.  1.
         15    1    3    3    0    0 -0.33501217659E+03 -0.26203029110E+03  0.57699014497E+02  0.42921114640E+03  0.00000000000E+00 0. -1.
        -16    1    3    3    0    0  0.34244876019E+03 -0.67784604189E+03 -0.16722944017E+03  0.77763236528E+03  0.00000000000E+00 0.  1.
         16    1    1    2    0    0 -0.39227521018E+02  0.89978957814E+03  0.67516821893E+03  0.11256163677E+04  0.00000000000E+00 0. -1.
    9900018    1    1    2    0    0  0.15791403208E+02 -0.37662380925E+02 -0.11309437848E+02  0.10055299663E+03  0.91187600000E+02 0.  0.
<mgrwt>
<rscale>  0 0.33922263E+04</rscale>
<asrwt>0</asrwt>
<pdfrwt beam="1">  1        2 0.38426566E+00 0.33922263E+04</pdfrwt>
<pdfrwt beam="2">  1       -2 0.17719495E+00 0.33922263E+04</pdfrwt>
<totfact> 0.54885547E-01</totfact>
</mgrwt>
</event>
<event>
12    1  0.2438452E-013  0.3160306E+04  0.7818608E-02  0.8199380E-01
          2   -1    0    0  501    0  0.00000000000E+00  0.00000000000E+00  0.11972639115E+04  0.11972639115E+04  0.00000000000E+00 0. -1.
         -2   -1    0    0    0  501 -0.00000000000E+00 -0.00000000000E+00 -0.20854914695E+04  0.20854914695E+04  0.00000000000E+00 0.  1.
    9900016    2    1    2    0    0  0.59519656603E+03 -0.16081250307E+03 -0.11807350607E+04  0.26003476931E+04  0.22332830604E+04 0.  0.
         23    2    3    3    0    0 -0.32596563794E+03 -0.27425977847E+03 -0.31226883953E+03  0.53633821060E+03  0.93138739517E+02 0.  0.
        -24    2    3    3    0    0 -0.86178120804E+02 -0.50070011977E+03 -0.56294085407E+03  0.76127348684E+03  0.67138946438E+02 0.  0.
        -15    1    3    3    0    0  0.97766750432E+03  0.63181400419E+03 -0.25024826770E+03  0.11906497723E+04  0.00000000000E+00 0.  1.
        -15    1    4    4    0    0 -0.27573035877E+03 -0.18010635100E+03 -0.23621961681E+03  0.40529647887E+03  0.00000000000E+00 0. -1.
         15    1    4    4    0    0 -0.50235279173E+02 -0.94153427470E+02 -0.76049222727E+02  0.13104173173E+03  0.00000000000E+00 0.  1.
         15    1    5    5    0    0 -0.42622492300E+01 -0.18993920307E+03 -0.23373300424E+03  0.30120787656E+03  0.00000000000E+00 0. -1.
        -16    1    5    5    0    0 -0.81915871574E+02 -0.31076091670E+03 -0.32920784983E+03  0.46006561027E+03  0.00000000000E+00 0.  1.
         16    1    1    2    0    0 -0.59519656603E+03  0.16081250307E+03  0.29250750263E+03  0.68240768787E+03  0.00000000000E+00 0. -1.
    9900018    1    3    3    0    0  0.29672820454E+02 -0.17666609016E+02 -0.55277099372E+02  0.11208622331E+03  0.91187600000E+02 0.  0.
<mgrwt>
<rscale>  0 0.31603061E+04</rscale>
<asrwt>0</asrwt>
<pdfrwt beam="1">  1        2 0.18419445E+00 0.31603061E+04</pdfrwt>
<pdfrwt beam="2">  1       -2 0.32084484E+00 0.31603061E+04</pdfrwt>
<totfact> 0.37992147E-01</totfact>
</mgrwt>
</event>
<event>
11    1  0.2438452E-013  0.2736405E+04  0.7818608E-02  0.8323289E-01
         -2   -1    0    0    0  501 -0.00000000000E+00  0.00000000000E+00  0.13880698061E+04  0.13880698061E+04  0.00000000000E+00 0. -1.
          2   -1    0    0  501    0  0.00000000000E+00 -0.00000000000E+00 -0.13486196127E+04  0.13486196127E+04  0.00000000000E+00 0.  1.
    9900016    2    1    2    0    0  0.28396406094E+03 -0.30720556279E+03 -0.91394914063E+02  0.22983615873E+04  0.22581191532E+04 0.  0.
         23    2    3    3    0    0  0.30069282931E+03  0.14612039861E+03 -0.28915588002E+03  0.45193678080E+03  0.94172089298E+02 0.  0.
        -15    1    3    3    0    0 -0.66512289747E+02 -0.12718015962E+02 -0.30618236396E+02  0.74317622523E+02  0.00000000000E+00 0.  1.
        -15    1    4    4    0    0  0.38017505187E+02  0.59465169196E+02 -0.64156658883E+02  0.95380888689E+02  0.00000000000E+00 0. -1.
         15    1    3    3    0    0  0.74665625532E+03 -0.25090999506E+03  0.45762282788E+03  0.91097203131E+03  0.00000000000E+00 0. -1.
         15    1    4    4    0    0  0.26267532412E+03  0.86655229415E+02 -0.22499922114E+03  0.35655589211E+03  0.00000000000E+00 0.  1.
        -16    1    1    2    0    0 -0.28396406094E+03  0.30720556279E+03  0.13084510751E+03  0.43832783151E+03  0.00000000000E+00 0.  1.
         16    1    3    3    0    0 -0.68666576951E+03 -0.11244570164E+03 -0.25008853284E+03  0.73939041723E+03  0.00000000000E+00 0. -1.
    9900018    1    3    3    0    0 -0.10206964429E+02 -0.77252248740E+02  0.20844907315E+02  0.12174473546E+03  0.91187600000E+02 0.  0.
<mgrwt>
<rscale>  0 0.27364051E+04</rscale>
<asrwt>0</asrwt>
<pdfrwt beam="1">  1        2 0.20747994E+00 0.27364051E+04</pdfrwt>
<pdfrwt beam="2">  1       -2 0.21354920E+00 0.27364051E+04</pdfrwt>
<totfact> 0.14721903E+00</totfact>
</mgrwt>
</event>
<event>
12    1  0.2438452E-013  0.2816803E+04  0.7818608E-02  0.8298071E-01
         -2   -1    0    0    0  501 -0.00000000000E+00  0.00000000000E+00  0.47292914239E+03  0.47292914239E+03  0.00000000000E+00 0.  1.
          2   -1    0    0  501    0  0.00000000000E+00 -0.00000000000E+00 -0.41942756461E+04  0.41942756461E+04  0.00000000000E+00 0. -1.
    9900016    2    1    2    0    0 -0.26982975368E+03  0.39514572648E+03 -0.27379593010E+04  0.35735875650E+04  0.22461430741E+04 0.  0.
         23    2    3    3    0    0 -0.29366240086E+03 -0.33186041460E+03 -0.42007000051E+02  0.45403204744E+03  0.89507382900E+02 0.  0.
         24    2    3    3    0    0 -0.15870319453E+03  0.16147258730E+03  0.48821142113E+02  0.25191912733E+03  0.99094108763E+02 0.  0.
        -15    1    4    4    0    0 -0.12705670667E+03 -0.10194958755E+03 -0.48689978758E+02  0.17002305474E+03  0.00000000000E+00 0.  1.
        -15    1    5    5    0    0 -0.16255567700E+03  0.11201869076E+03  0.42210459364E+02  0.20187683890E+03  0.00000000000E+00 0.  1.
         15    1    3    3    0    0  0.20270220485E+03  0.56071414337E+03 -0.26979648730E+04  0.27630604391E+04  0.00000000000E+00 0. -1.
         15    1    4    4    0    0 -0.16660569419E+03 -0.22991082705E+03  0.66829787071E+01  0.28400899270E+03  0.00000000000E+00 0. -1.
        -16    1    1    2    0    0  0.26982975368E+03 -0.39514572648E+03 -0.98338720264E+03  0.10936172235E+04  0.00000000000E+00 0.  1.
         16    1    5    5    0    0  0.38524824725E+01  0.49453896540E+02  0.66106827482E+01  0.50042288423E+02  0.00000000000E+00 0. -1.
    9900018    1    3    3    0    0 -0.20166363141E+02  0.48194103992E+01 -0.46808570128E+02  0.10457595111E+03  0.91187600000E+02 0.  0.
<mgrwt>
<rscale>  0 0.28168033E+04</rscale>
<asrwt>0</asrwt>
<pdfrwt beam="1">  1        2 0.64527314E+00 0.28168033E+04</pdfrwt>
<pdfrwt beam="2">  1       -2 0.72758333E-01 0.28168033E+04</pdfrwt>
<totfact> 0.34933757E-01</totfact>
</mgrwt>
</event>
<event>
12    1  0.2438452E-013  0.2722597E+04  0.7818608E-02  0.8327710E-01
         -2   -1    0    0    0  501 -0.00000000000E+00  0.00000000000E+00  0.26842048827E+04  0.26842048827E+04  0.00000000000E+00 0.  1.
          2   -1    0    0  501    0  0.00000000000E+00 -0.00000000000E+00 -0.69038448062E+03  0.69038448062E+03  0.00000000000E+00 0. -1.
    9900016    2    1    2    0    0  0.28357776562E+02 -0.43511369272E+03  0.16930419169E+04  0.28448764352E+04  0.22442822706E+04 0.  0.
         23    2    3    3    0    0 -0.36099996840E+03  0.33083743495E+03  0.17475088782E+04  0.18170297643E+04  0.89640945836E+02 0.  0.
        -24    2    3    3    0    0  0.29781939776E+03 -0.34781983866E+03 -0.46549429388E+02  0.47066436917E+03  0.98402566900E+02 0.  0.
        -15    1    4    4    0    0 -0.97683287961E+01  0.20871397214E+02  0.37475491913E+02  0.43993726408E+02  0.00000000000E+00 0.  1.
        -15    1    3    3    0    0  0.54119279450E+02 -0.37965835068E+03 -0.12117934659E+03  0.40218626741E+03  0.00000000000E+00 0.  1.
         15    1    4    4    0    0 -0.35123163960E+03  0.30996603773E+03  0.17100333863E+04  0.17730360378E+04  0.00000000000E+00 0. -1.
         15    1    5    5    0    0  0.31906262823E+02 -0.41022542912E+02 -0.38342680929E+02  0.64583432977E+02  0.00000000000E+00 0. -1.
        -16    1    5    5    0    0  0.26591313494E+03 -0.30679729575E+03 -0.82067484592E+01  0.40608093619E+03  0.00000000000E+00 0.  1.
         16    1    1    2    0    0 -0.28357776562E+02  0.43511369272E+03  0.30077848513E+03  0.52971292810E+03  0.00000000000E+00 0. -1.
    9900018    1    3    3    0    0  0.37419067746E+02 -0.38472938321E+02  0.11326181469E+03  0.15499603438E+03  0.91187600000E+02 0.  0.
<mgrwt>
<rscale>  0 0.27225968E+04</rscale>
<asrwt>0</asrwt>
<pdfrwt beam="1">  1        2 0.10621300E+00 0.27225968E+04</pdfrwt>
<pdfrwt beam="2">  1       -2 0.41295459E+00 0.27225968E+04</pdfrwt>
<totfact> 0.22270802E-01</totfact>
</mgrwt>
</event>
<event>
12    1  0.2438452E-013  0.3017960E+04  0.7818608E-02  0.8238621E-01
          1   -1    0    0  501    0  0.00000000000E+00  0.00000000000E+00  0.17130831133E+04  0.17130831133E+04  0.00000000000E+00 0. -1.
         -1   -1    0    0    0  501 -0.00000000000E+00 -0.00000000000E+00 -0.13291944952E+04  0.13291944952E+04  0.00000000000E+00 0.  1.
    9900016    2    1    2    0    0 -0.51077314634E+03  0.68381491543E+02 -0.16564068259E+02  0.22118988738E+04  0.21509665325E+04 0.  0.
         23    2    3    3    0    0 -0.46056197407E+02 -0.41392057828E+03  0.44447394027E+03  0.61573440329E+03  0.90113003342E+02 0.  0.
        -24    2    3    3    0    0 -0.93140662061E+03  0.34295768894E+03 -0.12809729818E+03  0.10061936045E+04  0.10429948515E+03 0.  0.
        -15    1    4    4    0    0 -0.26244166724E+02 -0.12127085140E+03  0.19262520958E+03  0.22912845099E+03  0.00000000000E+00 0.  1.
        -15    1    3    3    0    0  0.46668967168E+03  0.13934438088E+03 -0.33294071035E+03  0.58997086601E+03  0.00000000000E+00 0.  1.
         15    1    5    5    0    0 -0.66802470083E+03  0.23905576651E+03 -0.44181459576E+02  0.71088442225E+03  0.00000000000E+00 0. -1.
         15    1    4    4    0    0 -0.19812030684E+02 -0.29264972689E+03  0.25184873068E+03  0.38660595230E+03  0.00000000000E+00 0. -1.
        -16    1    5    5    0    0 -0.26338191978E+03  0.10390192244E+03 -0.83915838601E+02  0.29530918225E+03  0.00000000000E+00 0.  1.
         16    1    1    2    0    0  0.55439640184E+03 -0.37420314057E+02  0.44866702994E+03  0.71418327762E+03  0.00000000000E+00 0. -1.
    9900018    1    1    2    0    0 -0.43623255499E+02 -0.30961177486E+02 -0.48214343625E+02  0.11619545713E+03  0.91187600000E+02 0.  0.
<mgrwt>
<rscale>  0 0.30179600E+04</rscale>
<asrwt>0</asrwt>
<pdfrwt beam="1">  1        1 0.26355125E+00 0.30179600E+04</pdfrwt>
<pdfrwt beam="2">  1       -1 0.20449146E+00 0.30179600E+04</pdfrwt>
<totfact> 0.55616508E-01</totfact>
</mgrwt>
</event>
<event>
11    1  0.2438452E-013  0.3523449E+04  0.7818608E-02  0.8108255E-01
         -1   -1    0    0    0  501 -0.00000000000E+00  0.00000000000E+00  0.18079635510E+04  0.18079635510E+04  0.00000000000E+00 0.  1.
          1   -1    0    0  501    0  0.00000000000E+00 -0.00000000000E+00 -0.17166680067E+04  0.17166680067E+04  0.00000000000E+00 0. -1.
    9900016    2    1    2    0    0 -0.10051980447E+04  0.52054822994E+02  0.21136859008E+01  0.23707867405E+04  0.21465070435E+04 0.  0.
         23    2    3    3    0    0 -0.39233354603E+03  0.24569329836E+03 -0.30970110898E+03  0.56477254835E+03  0.93607939122E+02 0.  0.
        -15    1    4    4    0    0 -0.88793827041E+02  0.10421081647E+03 -0.10158323898E+03  0.17047988864E+03  0.00000000000E+00 0.  1.
        -15    1    3    3    0    0  0.80296213248E+02  0.31547242976E+02  0.44483680950E+01  0.86385753339E+02  0.00000000000E+00 0.  1.
         15    1    3    3    0    0 -0.11127796409E+04 -0.46562556994E+03  0.25744365688E+03  0.12334354207E+04  0.00000000000E+00 0. -1.
         15    1    4    4    0    0 -0.30353971899E+03  0.14148248189E+03 -0.20811786999E+03  0.39429265970E+03  0.00000000000E+00 0. -1.
        -16    1    1    2    0    0  0.10314263429E+04 -0.10085147469E+03  0.11875067279E+03  0.10431265710E+04  0.00000000000E+00 0.  1.
         16    1    3    3    0    0  0.41961892906E+03  0.24043985160E+03  0.49922769904E+02  0.48619301807E+03  0.00000000000E+00 0. -1.
    9900018    1    1    2    0    0 -0.26228298265E+02  0.48796651696E+02 -0.29568814389E+02  0.11071824612E+03  0.91187600000E+02 0.  0.
<mgrwt>
<rscale>  0 0.35234490E+04</rscale>
<asrwt>0</asrwt>
<pdfrwt beam="1">  1        1 0.26410277E+00 0.35234490E+04</pdfrwt>
<pdfrwt beam="2">  1       -1 0.27814824E+00 0.35234490E+04</pdfrwt>
<totfact> 0.17295708E-01</totfact>
</mgrwt>
</event>
<event>
12    1  0.2438452E-013  0.3069123E+04  0.7818608E-02  0.8224263E-01
         -2   -1    0    0    0  501 -0.00000000000E+00  0.00000000000E+00  0.13848025736E+04  0.13848025736E+04  0.00000000000E+00 0.  1.
          2   -1    0    0  501    0  0.00000000000E+00 -0.00000000000E+00 -0.17005160181E+04  0.17005160181E+04  0.00000000000E+00 0. -1.
    9900016    2    1    2    0    0 -0.15618065245E+03 -0.69223169551E+03 -0.34201248928E+03  0.23751997592E+04  0.22407642082E+04 0.  0.
         23    2    3    3    0    0 -0.81313839243E+02  0.62036308634E+03  0.42407345295E+03  0.76128286084E+03  0.90835022757E+02 0.  0.
         24    2    3    3    0    0  0.23417150289E+02 -0.22030729234E+03 -0.17478544814E+03  0.30306477186E+03  0.11051984924E+03 0.  0.
        -15    1    5    5    0    0  0.66250532086E+02 -0.12375005448E+03 -0.11652729463E+03  0.18243305452E+03  0.00000000000E+00 0.  1.
        -15    1    4    4    0    0 -0.19144051617E+02  0.82908472956E+02  0.24053600549E+02  0.88424460979E+02  0.00000000000E+00 0. -1.
         15    1    3    3    0    0 -0.72483638235E+02 -0.10641409085E+04 -0.57136534921E+03  0.12100033525E+04  0.00000000000E+00 0. -1.
         15    1    4    4    0    0 -0.62169787626E+02  0.53745461338E+03  0.40001985240E+03  0.67285839986E+03  0.00000000000E+00 0.  1.
        -16    1    1    2    0    0  0.15618065245E+03  0.69223169551E+03  0.26299044777E+02  0.71011883247E+03  0.00000000000E+00 0.  1.
         16    1    5    5    0    0 -0.42833381798E+02 -0.96557237861E+02 -0.58258153507E+02  0.12063171734E+03  0.00000000000E+00 0. -1.
    9900018    1    3    3    0    0 -0.25800325256E+02 -0.28146581039E+02 -0.19935144886E+02  0.10084877393E+03  0.91187600000E+02 0.  0.
<mgrwt>
<rscale>  0 0.30691230E+04</rscale>
<asrwt>0</asrwt>
<pdfrwt beam="1">  1        2 0.26161785E+00 0.30691230E+04</pdfrwt>
<pdfrwt beam="2">  1       -2 0.21304655E+00 0.30691230E+04</pdfrwt>
<totfact> 0.91317539E-01</totfact>
</mgrwt>
</event>
<event>
12    1  0.2438452E-013  0.2771205E+04  0.7818608E-02  0.8312264E-01
         -1   -1    0    0    0  501 -0.00000000000E+00  0.00000000000E+00  0.21589055899E+04  0.21589055899E+04  0.00000000000E+00 0.  1.
          1   -1    0    0  501    0  0.00000000000E+00 -0.00000000000E+00 -0.88929039074E+03  0.88929039074E+03  0.00000000000E+00 0. -1.
    9900016    2    1    2    0    0  0.88133946883E+02 -0.17100957788E+03  0.13594859618E+04  0.25494170163E+04  0.21480952433E+04 0.  0.
         23    2    3    3    0    0 -0.22150629453E+03 -0.42824664561E+03 -0.80795612892E+02  0.49692644375E+03  0.89150050193E+02 0.  0.
        -24    2    3    3    0    0 -0.48618985071E+03  0.27818986706E+03  0.24067797798E+03  0.61275679698E+03  0.61439645835E+02 0.  0.
        -15    1    3    3    0    0  0.79583009212E+03 -0.20952799341E+02  0.11996035967E+04  0.14397337756E+04  0.00000000000E+00 0.  1.
        -15    1    4    4    0    0 -0.38337942823E+02 -0.22790857662E+02 -0.15679021863E+02  0.47276344819E+02  0.00000000000E+00 0. -1.
         15    1    4    4    0    0 -0.18316835170E+03 -0.40545578794E+03 -0.65116591029E+02  0.44965009893E+03  0.00000000000E+00 0.  1.
         15    1    5    5    0    0 -0.38445808886E+03  0.24179442434E+03  0.17771824816E+03  0.48770517883E+03  0.00000000000E+00 0. -1.
        -16    1    5    5    0    0 -0.10173176186E+03  0.36395442727E+02  0.62959729822E+02  0.12505161815E+03  0.00000000000E+00 0.  1.
         16    1    1    2    0    0 -0.10778626942E+03  0.20441163937E+03 -0.23073493864E+03  0.32655873912E+03  0.00000000000E+00 0. -1.
    9900018    1    1    2    0    0  0.19652322536E+02 -0.33402061492E+02  0.14086417593E+03  0.17222022514E+03  0.91187600000E+02 0.  0.
<mgrwt>
<rscale>  0 0.27712048E+04</rscale>
<asrwt>0</asrwt>
<pdfrwt beam="1">  1        1 0.13681391E+00 0.27712048E+04</pdfrwt>
<pdfrwt beam="2">  1       -1 0.33213932E+00 0.27712048E+04</pdfrwt>
<totfact> 0.32845645E-01</totfact>
</mgrwt>
</event>
<event>
12    1  0.2438452E-013  0.2719127E+04  0.7818608E-02  0.8328825E-01
          2   -1    0    0  501    0  0.00000000000E+00  0.00000000000E+00  0.18052350721E+04  0.18052350721E+04  0.00000000000E+00 0.  1.
         -2   -1    0    0    0  501 -0.00000000000E+00 -0.00000000000E+00 -0.10239181689E+04  0.10239181689E+04  0.00000000000E+00 0. -1.
    9900016    2    1    2    0    0 -0.25467197700E+03  0.32952449266E+03  0.55990289663E+03  0.23574877140E+04  0.22518465447E+04 0.  0.
         23    2    3    3    0    0  0.41152846644E+03 -0.37032784089E+03  0.15333759325E+03  0.58158382921E+03  0.90713529640E+02 0.  0.
        -24    2    3    3    0    0 -0.63826448203E+01  0.24750276404E+03  0.78838977182E+03  0.83317831478E+03  0.10643925754E+03 0.  0.
        -15    1    3    3    0    0 -0.63558239381E+03  0.40030206528E+03 -0.35926343819E+03  0.83263253649E+03  0.00000000000E+00 0.  1.
        -15    1    4    4    0    0  0.80886816260E+02 -0.43253725747E+02 -0.47600967903E+00  0.91726705059E+02  0.00000000000E+00 0.  1.
         15    1    5    5    0    0 -0.10628887129E+02  0.14656038234E+03  0.61672518356E+03  0.63398964577E+03  0.00000000000E+00 0. -1.
         15    1    4    4    0    0  0.33064165018E+03 -0.32707411514E+03  0.15381360293E+03  0.48985712415E+03  0.00000000000E+00 0. -1.
        -16    1    5    5    0    0  0.42462423092E+01  0.10094238170E+03  0.17166458826E+03  0.19918866901E+03  0.00000000000E+00 0.  1.
         16    1    1    2    0    0  0.25467197700E+03 -0.32952449266E+03  0.22141400648E+03  0.47166552704E+03  0.00000000000E+00 0. -1.
    9900018    1    3    3    0    0 -0.24235404811E+02  0.52047504231E+02 -0.22561030246E+02  0.11009303349E+03  0.91187600000E+02 0.  0.
<mgrwt>
<rscale>  0 0.27191271E+04</rscale>
<asrwt>0</asrwt>
<pdfrwt beam="1">  1        2 0.27772847E+00 0.27191271E+04</pdfrwt>
<pdfrwt beam="2">  1       -2 0.15752587E+00 0.27191271E+04</pdfrwt>
<totfact> 0.19732654E+00</totfact>
</mgrwt>
</event>
<event>
11    1  0.2438452E-013  0.3097088E+04  0.7818608E-02  0.8216538E-01
         -2   -1    0    0    0  501 -0.00000000000E+00  0.00000000000E+00  0.24668313672E+04  0.24668313672E+04  0.00000000000E+00 0. -1.
          2   -1    0    0  501    0  0.00000000000E+00 -0.00000000000E+00 -0.97209244824E+03  0.97209244824E+03  0.00000000000E+00 0.  1.
    9900016    2    1    2    0    0  0.61551255774E+03 -0.45673545341E+02  0.15725344535E+04  0.28168354563E+04  0.22540531491E+04 0.  0.
         23    2    3    3    0    0 -0.51710509032E+03  0.69033147623E+01  0.83212621572E+03  0.98429238219E+03  0.94615667615E+02 0.  0.
        -15    1    3    3    0    0  0.88351095355E+01  0.71363539086E+02  0.27143277171E+03  0.28079630238E+03  0.00000000000E+00 0.  1.
        -15    1    4    4    0    0 -0.45317577750E+03 -0.25802063214E+02  0.71581002477E+03  0.84759543612E+03  0.00000000000E+00 0.  1.
         15    1    4    4    0    0 -0.63929312822E+02  0.32705377977E+02  0.11631619095E+03  0.13669694607E+03  0.00000000000E+00 0. -1.
         15    1    3    3    0    0  0.10758659405E+04 -0.22210041691E+03  0.90033817308E+02  0.11022350954E+04  0.00000000000E+00 0. -1.
        -16    1    1    2    0    0 -0.61551255774E+03  0.45673545341E+02 -0.77795534507E+02  0.62208835921E+03  0.00000000000E+00 0.  1.
         16    1    3    3    0    0 -0.26714625576E+02  0.55831239490E+02  0.28847953255E+03  0.29504446991E+03  0.00000000000E+00 0. -1.
    9900018    1    3    3    0    0  0.74631223582E+02  0.42328778235E+02  0.90462116207E+02  0.15446720643E+03  0.91187600000E+02 0.  0.
<mgrwt>
<rscale>  0 0.30970878E+04</rscale>
<asrwt>0</asrwt>
<pdfrwt beam="1">  1        2 0.14955268E+00 0.30970878E+04</pdfrwt>
<pdfrwt beam="2">  1       -2 0.37951252E+00 0.30970878E+04</pdfrwt>
<totfact> 0.22476204E-01</totfact>
</mgrwt>
</event>
