<event>
11    1  0.1796405E-008  0.3646979E+04  0.7818608E-02  0.8079815E-01
         -2   -1    0    0    0  501 -0.00000000000E+00  0.00000000000E+00  0.11331572683E+04  0.11331572683E+04  0.00000000000E+00 0.  1.
          2   -1    0    0  501    0  0.00000000000E+00 -0.00000000000E+00 -0.29343801021E+04  0.29343801021E+04  0.00000000000E+00 0. -1.
    9900016    2    1    2    0    0  0.50265797127E+03  0.59532230821E+03 -0.22856766102E+04  0.31500575895E+04  0.20227386298E+04 0.  0.
         24    2    3    3    0    0  0.36583909512E+02  0.31466234610E+03 -0.17017205971E+03  0.36840524940E+03  0.80081979168E+02 0.  0.
        -15    1    4    4    0    0 -0.19344140671E+02  0.16443217173E+03 -0.72957357149E+02  0.18092791615E+03  0.00000000000E+00 0.  1.
        -15    1    3    3    0    0  0.18074540983E+03  0.57101630820E+01 -0.44413388382E+03  0.47953771061E+03  0.00000000000E+00 0.  1.
         15    1    3    3    0    0 -0.24664575347E+03 -0.39159237458E+03 -0.47245189123E+03  0.66135429616E+03  0.00000000000E+00 0. -1.
         15    1    3    3    0    0  0.54376597918E+03  0.16348937080E+03 -0.84801655311E+03  0.10205597919E+04  0.00000000000E+00 0. -1.
        -16    1    1    2    0    0 -0.50265797127E+03 -0.59532230821E+03  0.48445377646E+03  0.91747978085E+03  0.00000000000E+00 0.  1.
         16    1    4    4    0    0  0.55928050183E+02  0.15023017437E+03 -0.97214702565E+02  0.18747733325E+03  0.00000000000E+00 0. -1.
    9900018    1    3    3    0    0 -0.11791573789E+02  0.50305280281E+03 -0.35090222231E+03  0.62020054148E+03  0.91187600000E+02 0.  0.
<mgrwt>
<rscale>  0 0.36469791E+04</rscale>
<asrwt>0</asrwt>
<pdfrwt beam="1">  1        2 0.45144309E+00 0.36469791E+04</pdfrwt>
<pdfrwt beam="2">  1       -2 0.17433189E+00 0.36469791E+04</pdfrwt>
<totfact> 0.30833671E-01</totfact>
</mgrwt>
</event>
<event>
11    1  0.1796405E-008  0.2774613E+04  0.7818608E-02  0.8311194E-01
          2   -1    0    0  501    0  0.00000000000E+00  0.00000000000E+00  0.14582278193E+04  0.14582278193E+04  0.00000000000E+00 0. -1.
         -2   -1    0    0    0  501 -0.00000000000E+00 -0.00000000000E+00 -0.13198343406E+04  0.13198343406E+04  0.00000000000E+00 0.  1.
    9900016    2    1    2    0    0 -0.20916296464E+03 -0.35427635834E+03  0.61374128958E+03  0.21493997503E+04  0.20184102735E+04 0.  0.
         24    2    3    3    0    0 -0.38950016179E+03 -0.32597071365E+03  0.24665346734E+03  0.57044230863E+03  0.81235536167E+02 0.  0.
        -15    1    4    4    0    0 -0.14286100804E+03 -0.14352221326E+03  0.59454612770E+02  0.21105152048E+03  0.00000000000E+00 0.  1.
        -15    1    3    3    0    0  0.15443570486E+03 -0.12168367359E+03 -0.31255560298E+03  0.36925371807E+03  0.00000000000E+00 0.  1.
         15    1    3    3    0    0  0.37779924139E+03  0.14497883156E+03  0.23434637908E+02  0.40533974719E+03  0.00000000000E+00 0. -1.
         15    1    3    3    0    0 -0.21817156097E+03  0.10245400819E+03  0.36247070698E+03  0.43529377118E+03  0.00000000000E+00 0. -1.
        -16    1    1    2    0    0  0.20916296464E+03  0.35427635834E+03 -0.47534781090E+03  0.62866240955E+03  0.00000000000E+00 0.  1.
         16    1    4    4    0    0 -0.24663915375E+03 -0.18244850039E+03  0.18719885457E+03  0.35939078815E+03  0.00000000000E+00 0. -1.
    9900018    1    3    3    0    0 -0.13372618813E+03 -0.15405481085E+03  0.29373808033E+03  0.36907020520E+03  0.91187600000E+02 0.  0.
<mgrwt>
<rscale>  0 0.27746129E+04</rscale>
<asrwt>0</asrwt>
<pdfrwt beam="1">  1        2 0.22434274E+00 0.27746129E+04</pdfrwt>
<pdfrwt beam="2">  1       -2 0.20305144E+00 0.27746129E+04</pdfrwt>
<totfact> 0.14848070E+00</totfact>
</mgrwt>
</event>
<event>
11    1  0.1796405E-008  0.2591734E+04  0.7818608E-02  0.8371014E-01
          2   -1    0    0  501    0  0.00000000000E+00  0.00000000000E+00  0.17590971838E+04  0.17590971838E+04  0.00000000000E+00 0. -1.
         -2   -1    0    0    0  501 -0.00000000000E+00 -0.00000000000E+00 -0.95462133034E+03  0.95462133034E+03  0.00000000000E+00 0.  1.
    9900016    2    1    2    0    0 -0.21724305676E+02 -0.23855106713E+03  0.18129861199E+03  0.20460895518E+04  0.20239156875E+04 0.  0.
        -24    2    3    3    0    0 -0.56913723033E+02  0.50747211787E+02 -0.28073371523E+03  0.30193054530E+03  0.80846669341E+02 0.  0.
        -15    1    3    3    0    0  0.11890001296E+03  0.62074977090E+02  0.40667744347E+03  0.42822547670E+03  0.00000000000E+00 0.  1.
        -15    1    3    3    0    0 -0.11642900035E+03 -0.51623788211E+02 -0.29120602047E+03  0.31783906933E+03  0.00000000000E+00 0.  1.
         15    1    4    4    0    0 -0.39036088111E+02  0.66796756764E+02 -0.25605849207E+03  0.26749126014E+03  0.00000000000E+00 0. -1.
         15    1    3    3    0    0  0.16218363904E+03 -0.53314143360E+02  0.59188046045E+03  0.61601007307E+03  0.00000000000E+00 0. -1.
        -16    1    4    4    0    0 -0.17877634922E+02 -0.16049544977E+02 -0.24675223163E+02  0.34439285162E+02  0.00000000000E+00 0.  1.
         16    1    1    2    0    0  0.21724305676E+02  0.23855106713E+03  0.62317724147E+03  0.66762896236E+03  0.00000000000E+00 0. -1.
    9900018    1    3    3    0    0 -0.12946523430E+03 -0.24643532444E+03 -0.24531955623E+03  0.38208438739E+03  0.91187600000E+02 0.  0.
<mgrwt>
<rscale>  0 0.25917343E+04</rscale>
<asrwt>0</asrwt>
<pdfrwt beam="1">  1        2 0.27063034E+00 0.25917343E+04</pdfrwt>
<pdfrwt beam="2">  1       -2 0.14686482E+00 0.25917343E+04</pdfrwt>
<totfact> 0.25502995E+00</totfact>
</mgrwt>
</event>
<event>
11    1  0.1796405E-008  0.3094499E+04  0.7818608E-02  0.8217249E-01
          1   -1    0    0  501    0  0.00000000000E+00  0.00000000000E+00  0.20206590400E+04  0.20206590400E+04  0.00000000000E+00 0.  1.
         -1   -1    0    0    0  501 -0.00000000000E+00 -0.00000000000E+00 -0.11847528534E+04  0.11847528534E+04  0.00000000000E+00 0. -1.
    9900016    2    1    2    0    0 -0.67415275055E+03  0.26563625254E+03  0.63981364843E+02  0.21466803504E+04  0.20196777866E+04 0.  0.
         24    2    3    3    0    0 -0.25425224431E+03  0.48569120280E+03 -0.58162668636E+02  0.55665108007E+03  0.77054400997E+02 0.  0.
        -15    1    3    3    0    0  0.40307913581E+01  0.25485213001E+03  0.13945152280E+03  0.29053843577E+03  0.00000000000E+00 0.  1.
        -15    1    4    4    0    0 -0.15952385879E+03  0.37321244692E+03 -0.54796509111E+02  0.40955835905E+03  0.00000000000E+00 0.  1.
         15    1    3    3    0    0  0.20114211601E+03  0.20729762059E+03  0.33738079973E+02  0.29080700194E+03  0.00000000000E+00 0. -1.
         15    1    3    3    0    0 -0.35847506615E+03 -0.58483250352E+03 -0.13470318603E+03  0.69905534728E+03  0.00000000000E+00 0. -1.
        -16    1    1    2    0    0  0.67415275055E+03 -0.26563625254E+03  0.77192482181E+03  0.10587315431E+04  0.00000000000E+00 0.  1.
         16    1    4    4    0    0 -0.94728385529E+02  0.11247875588E+03 -0.33661595246E+01  0.14709272103E+03  0.00000000000E+00 0. -1.
    9900018    1    3    3    0    0 -0.26659834745E+03 -0.97372197337E+02  0.83657616742E+02  0.30962848530E+03  0.91187600000E+02 0.  0.
<mgrwt>
<rscale>  0 0.30944994E+04</rscale>
<asrwt>0</asrwt>
<pdfrwt beam="1">  1        1 0.31087062E+00 0.30944994E+04</pdfrwt>
<pdfrwt beam="2">  1       -1 0.18226967E+00 0.30944994E+04</pdfrwt>
<totfact> 0.48827388E-01</totfact>
</mgrwt>
</event>
<event>
11    1  0.1796405E-008  0.2565437E+04  0.7818608E-02  0.8380037E-01
         -2   -1    0    0    0  501 -0.00000000000E+00  0.00000000000E+00  0.15362740671E+04  0.15362740671E+04  0.00000000000E+00 0.  1.
          2   -1    0    0  501    0  0.00000000000E+00 -0.00000000000E+00 -0.10710110293E+04  0.10710110293E+04  0.00000000000E+00 0. -1.
    9900016    2    1    2    0    0  0.23655506874E+03  0.31121338480E+03  0.89229852426E+02  0.20648710221E+04  0.20255661678E+04 0.  0.
         24    2    3    3    0    0  0.57820955376E+03  0.13315555469E+03  0.80395462308E+02  0.60401886168E+03  0.79490031454E+02 0.  0.
        -15    1    3    3    0    0  0.82208118380E+02  0.18959654563E+02  0.38783092500E+03  0.39690108291E+03  0.00000000000E+00 0.  1.
        -15    1    4    4    0    0  0.73600903705E+02  0.17075138802E+02  0.37794394041E+02  0.84481179042E+02  0.00000000000E+00 0.  1.
         15    1    3    3    0    0 -0.31100275702E+03  0.33882142842E+02 -0.52598516113E+03  0.61198946413E+03  0.00000000000E+00 0. -1.
         15    1    3    3    0    0  0.70875299321E+02  0.59433756691E+02 -0.91835641334E+02  0.13034364007E+03  0.00000000000E+00 0. -1.
        -16    1    1    2    0    0 -0.23655506874E+03 -0.31121338480E+03  0.37603318541E+03  0.54241407426E+03  0.00000000000E+00 0.  1.
         16    1    4    4    0    0  0.50460865005E+03  0.11608041589E+03  0.42601068266E+02  0.51953768264E+03  0.00000000000E+00 0. -1.
    9900018    1    3    3    0    0 -0.18373514571E+03  0.65782276012E+02  0.23882426758E+03  0.32161797335E+03  0.91187600000E+02 0.  0.
<mgrwt>
<rscale>  0 0.25654368E+04</rscale>
<asrwt>0</asrwt>
<pdfrwt beam="1">  1        2 0.16477093E+00 0.25654368E+04</pdfrwt>
<pdfrwt beam="2">  1       -2 0.23634986E+00 0.25654368E+04</pdfrwt>
<totfact> 0.15719719E+00</totfact>
</mgrwt>
</event>
<event>
11    1  0.1796405E-008  0.2721560E+04  0.7818608E-02  0.8328043E-01
          2   -1    0    0  501    0  0.00000000000E+00  0.00000000000E+00  0.19329888976E+04  0.19329888976E+04  0.00000000000E+00 0. -1.
         -2   -1    0    0    0  501 -0.00000000000E+00 -0.00000000000E+00 -0.95795791026E+03  0.95795791026E+03  0.00000000000E+00 0.  1.
    9900016    2    1    2    0    0 -0.37888878091E+03 -0.23923302367E+03  0.11970983300E+04  0.23908437660E+04  0.20204703298E+04 0.  0.
         24    2    3    3    0    0 -0.50837150096E+03 -0.53372669944E+03 -0.67105429404E+02  0.74442372074E+03  0.79735592213E+02 0.  0.
        -15    1    4    4    0    0 -0.20798947801E+03 -0.17696416240E+03 -0.50729513792E+02  0.27775784652E+03  0.00000000000E+00 0.  1.
        -15    1    3    3    0    0 -0.51365450770E+01 -0.40902610288E+02  0.21946469834E+02  0.46701768295E+02  0.00000000000E+00 0. -1.
         15    1    3    3    0    0  0.61377387392E+01  0.46171838885E+03  0.87449636933E+03  0.98892135299E+03  0.00000000000E+00 0. -1.
         15    1    3    3    0    0  0.19773732468E+03 -0.18164518808E+03  0.56257982884E+02  0.27433553281E+03  0.00000000000E+00 0.  1.
        -16    1    1    2    0    0  0.37888878091E+03  0.23923302367E+03 -0.22206734259E+03  0.50010304194E+03  0.00000000000E+00 0.  1.
         16    1    4    4    0    0 -0.30038202295E+03 -0.35676253705E+03 -0.16375915612E+02  0.46666587422E+03  0.00000000000E+00 0. -1.
    9900018    1    3    3    0    0 -0.69255798293E+02  0.55323085290E+02  0.31150293733E+03  0.33646139113E+03  0.91187600000E+02 0.  0.
<mgrwt>
<rscale>  0 0.27215599E+04</rscale>
<asrwt>0</asrwt>
<pdfrwt beam="1">  1        2 0.29738291E+00 0.27215599E+04</pdfrwt>
<pdfrwt beam="2">  1       -2 0.14737814E+00 0.27215599E+04</pdfrwt>
<totfact> 0.20016050E+00</totfact>
</mgrwt>
</event>
<event>
11    1  0.1796405E-008  0.2237909E+04  0.7818608E-02  0.8502813E-01
         -1   -1    0    0    0  501 -0.00000000000E+00  0.00000000000E+00  0.10047950383E+04  0.10047950383E+04  0.00000000000E+00 0.  1.
          1   -1    0    0  501    0  0.00000000000E+00 -0.00000000000E+00 -0.12460844368E+04  0.12460844368E+04  0.00000000000E+00 0. -1.
    9900016    2    1    2    0    0 -0.32323026377E+02  0.13999324391E+03 -0.76784160353E+02  0.20324650531E+04  0.20259258373E+04 0.  0.
        -24    2    3    3    0    0  0.30466246914E+03  0.45737704465E+03  0.15392874521E+03  0.57711275451E+03  0.85744339429E+02 0.  0.
        -15    1    3    3    0    0 -0.73986871414E+02 -0.45480982967E+03 -0.37103567373E+03  0.59160249280E+03  0.00000000000E+00 0.  1.
        -15    1    3    3    0    0 -0.24786151117E+03  0.23218026335E+03  0.23877608166E+03  0.41515903047E+03  0.00000000000E+00 0.  1.
         15    1    4    4    0    0  0.14882518644E+03  0.24773534893E+03  0.12293739012E+03  0.31406263884E+03  0.00000000000E+00 0. -1.
         15    1    3    3    0    0  0.18527433827E+02 -0.12084863483E+03 -0.24325294959E+03  0.27224925313E+03  0.00000000000E+00 0. -1.
        -16    1    4    4    0    0  0.15583728269E+03  0.20964169572E+03  0.30991355095E+02  0.26305011567E+03  0.00000000000E+00 0.  1.
         16    1    1    2    0    0  0.32323026377E+02 -0.13999324391E+03 -0.16450523811E+03  0.21841442201E+03  0.00000000000E+00 0. -1.
    9900018    1    3    3    0    0 -0.33664546756E+02  0.26094400415E+02  0.14479963610E+03  0.17634152219E+03  0.91187600000E+02 0.  0.
<mgrwt>
<rscale>  0 0.22379093E+04</rscale>
<asrwt>0</asrwt>
<pdfrwt beam="1">  1        1 0.19170530E+00 0.22379093E+04</pdfrwt>
<pdfrwt beam="2">  1       -1 0.15458385E+00 0.22379093E+04</pdfrwt>
<totfact> 0.28898671E+00</totfact>
</mgrwt>
</event>
<event>
11    1  0.1796405E-008  0.3306870E+04  0.7818608E-02  0.8161150E-01
          2   -1    0    0  501    0  0.00000000000E+00  0.00000000000E+00  0.14687646076E+04  0.14687646076E+04  0.00000000000E+00 0. -1.
         -2   -1    0    0    0  501 -0.00000000000E+00 -0.00000000000E+00 -0.18613241765E+04  0.18613241765E+04  0.00000000000E+00 0.  1.
    9900016    2    1    2    0    0  0.46184274987E+02 -0.66182359162E+03  0.53055910882E+03  0.21932987652E+04  0.20221085658E+04 0.  0.
         24    2    3    3    0    0 -0.92576839347E+01 -0.38529576167E+03 -0.16427533001E+03  0.42600308603E+03  0.77160330394E+02 0.  0.
        -15    1    4    4    0    0 -0.21534712953E+02 -0.17939211270E+03 -0.11419154587E+03  0.21374045735E+03  0.00000000000E+00 0.  1.
        -15    1    3    3    0    0  0.22218502719E+03 -0.89841440513E+02  0.36522162662E+03  0.43683464525E+03  0.00000000000E+00 0.  1.
         15    1    3    3    0    0 -0.35940795732E+03 -0.32438366859E+03 -0.17693889410E+03  0.51546698873E+03  0.00000000000E+00 0. -1.
         15    1    3    3    0    0  0.27009470175E+03  0.96020470061E+02 -0.63044262623E+01  0.28672430028E+03  0.00000000000E+00 0. -1.
        -16    1    1    2    0    0 -0.46184274987E+02  0.66182359162E+03 -0.92311867777E+03  0.11367900188E+04  0.00000000000E+00 0.  1.
         16    1    4    4    0    0  0.12277029019E+02 -0.20590364897E+03 -0.50083784142E+02  0.21226262869E+03  0.00000000000E+00 0. -1.
    9900018    1    3    3    0    0 -0.77429812698E+02  0.41676809090E+02  0.51285613257E+03  0.52826974494E+03  0.91187600000E+02 0.  0.
<mgrwt>
<rscale>  0 0.33068699E+04</rscale>
<asrwt>0</asrwt>
<pdfrwt beam="1">  1        2 0.22596379E+00 0.33068699E+04</pdfrwt>
<pdfrwt beam="2">  1       -2 0.28635756E+00 0.33068699E+04</pdfrwt>
<totfact> 0.42502888E-01</totfact>
</mgrwt>
</event>
<event>
11    1  0.1796405E-008  0.2756427E+04  0.7818608E-02  0.8316925E-01
          2   -1    0    0  501    0  0.00000000000E+00  0.00000000000E+00  0.14292774504E+04  0.14292774504E+04  0.00000000000E+00 0. -1.
         -2   -1    0    0    0  501 -0.00000000000E+00 -0.00000000000E+00 -0.13289741052E+04  0.13289741052E+04  0.00000000000E+00 0.  1.
    9900016    2    1    2    0    0 -0.42766349320E+03 -0.47068609500E+03  0.11994617764E+03  0.21219911496E+04  0.20208953189E+04 0.  0.
         24    2    3    3    0    0 -0.15503708130E+03 -0.26765407604E+03 -0.25448191031E+03  0.40864679352E+03  0.80968871706E+02 0.  0.
        -15    1    3    3    0    0  0.70247518137E+02 -0.24497269639E+03 -0.12468976432E+03  0.28371442175E+03  0.00000000000E+00 0.  1.
        -15    1    4    4    0    0 -0.54460275830E+02 -0.77198501058E+02 -0.12727037834E+03  0.15850324733E+03  0.00000000000E+00 0.  1.
         15    1    3    3    0    0 -0.11469480806E+02  0.38590771513E+03 -0.26658252180E+02  0.38699738500E+03  0.00000000000E+00 0. -1.
         15    1    3    3    0    0 -0.20621706711E+03 -0.47410308047E+03  0.42533216498E+02  0.51875647869E+03  0.00000000000E+00 0. -1.
        -16    1    1    2    0    0  0.42766349320E+03  0.47068609500E+03 -0.19642832449E+02  0.63626040606E+03  0.00000000000E+00 0.  1.
         16    1    4    4    0    0 -0.10057680547E+03 -0.19045557498E+03 -0.12721153196E+03  0.25014354619E+03  0.00000000000E+00 0. -1.
    9900018    1    3    3    0    0 -0.12518738212E+03  0.13013604276E+03  0.48324288795E+03  0.52387607066E+03  0.91187600000E+02 0.  0.
<mgrwt>
<rscale>  0 0.27564272E+04</rscale>
<asrwt>0</asrwt>
<pdfrwt beam="1">  1        2 0.21988884E+00 0.27564272E+04</pdfrwt>
<pdfrwt beam="2">  1       -2 0.20445755E+00 0.27564272E+04</pdfrwt>
<totfact> 0.15122750E+00</totfact>
</mgrwt>
</event>
<event>
11    1  0.1796405E-008  0.2450648E+04  0.7818608E-02  0.8420781E-01
         -2   -1    0    0    0  501 -0.00000000000E+00  0.00000000000E+00  0.70896907188E+03  0.70896907188E+03  0.00000000000E+00 0.  1.
          2   -1    0    0  501    0  0.00000000000E+00 -0.00000000000E+00 -0.21177493685E+04  0.21177493685E+04  0.00000000000E+00 0. -1.
    9900016    2    1    2    0    0  0.29486071101E+03  0.21037424752E+03 -0.98453173892E+03  0.22688770636E+04  0.20117903027E+04 0.  0.
        -24    2    3    3    0    0  0.14367181386E+03 -0.18777595731E+03 -0.81636132107E+03  0.85369316957E+03  0.80279642458E+02 0.  0.
        -15    1    3    3    0    0 -0.62991901149E+02  0.72635562159E+03  0.14874456643E+03  0.74410040630E+03  0.00000000000E+00 0.  1.
        -15    1    3    3    0    0  0.26511306229E+03 -0.13936533665E+03 -0.23305383264E+03  0.37950193908E+03  0.00000000000E+00 0.  1.
         15    1    4    4    0    0  0.63180046557E+02 -0.27613050756E+02 -0.18717040715E+03  0.19946668937E+03  0.00000000000E+00 0. -1.
         15    1    3    3    0    0 -0.43727005279E+02  0.19686192928E+02  0.25707774445E+01  0.48022974495E+02  0.00000000000E+00 0. -1.
        -16    1    4    4    0    0  0.80491767300E+02 -0.16016290655E+03 -0.62919091392E+03  0.65422648021E+03  0.00000000000E+00 0.  1.
         16    1    1    2    0    0 -0.29486071101E+03 -0.21037424752E+03 -0.42424855775E+03  0.55784137680E+03  0.00000000000E+00 0. -1.
    9900018    1    3    3    0    0 -0.72052587071E+01 -0.20852627304E+03 -0.86431929088E+02  0.24355857418E+03  0.91187600000E+02 0.  0.
<mgrwt>
<rscale>  0 0.24506479E+04</rscale>
<asrwt>0</asrwt>
<pdfrwt beam="1">  1        2 0.32580759E+00 0.24506479E+04</pdfrwt>
<pdfrwt beam="2">  1       -2 0.10907217E+00 0.24506479E+04</pdfrwt>
<totfact> 0.34487206E+00</totfact>
</mgrwt>
</event>
<event>
11    1  0.1796405E-008  0.3123525E+04  0.7818608E-02  0.8209311E-01
          1   -1    0    0  501    0  0.00000000000E+00  0.00000000000E+00  0.23828920318E+04  0.23828920318E+04  0.00000000000E+00 0. -1.
         -1   -1    0    0    0  501 -0.00000000000E+00 -0.00000000000E+00 -0.10235890424E+04  0.10235890424E+04  0.00000000000E+00 0.  1.
    9900016    2    1    2    0    0 -0.23896721895E+03  0.19554968487E+02  0.14167653845E+01  0.20275892272E+04  0.20133624459E+04 0.  0.
        -24    2    3    3    0    0  0.50472704659E+03 -0.51074799646E+03  0.93961818965E+02  0.72823971961E+03  0.76755184499E+02 0.  0.
        -15    1    3    3    0    0 -0.76009107372E+02  0.83903619245E+00  0.10871995384E+03  0.13265789365E+03  0.00000000000E+00 0.  1.
        -15    1    3    3    0    0 -0.37275141103E+03  0.22154853664E+03 -0.32675168551E+03  0.54294938300E+03  0.00000000000E+00 0.  1.
         15    1    4    4    0    0  0.27222697759E+03 -0.22823100336E+03  0.26897700728E+02  0.35625890098E+03  0.00000000000E+00 0. -1.
         15    1    3    3    0    0 -0.20470433720E+03  0.30123481147E+03  0.25243826540E+03  0.44313807684E+03  0.00000000000E+00 0. -1.
        -16    1    4    4    0    0  0.23250006901E+03 -0.28251699310E+03  0.67064118238E+02  0.37198081863E+03  0.00000000000E+00 0.  1.
         16    1    1    2    0    0  0.23896721895E+03 -0.19554968487E+02  0.13578862239E+04  0.13788918470E+04  0.00000000000E+00 0. -1.
    9900018    1    3    3    0    0 -0.90229409942E+02  0.66805806427E+01 -0.12695158730E+03  0.18060415413E+03  0.91187600000E+02 0.  0.
<mgrwt>
<rscale>  0 0.31235250E+04</rscale>
<asrwt>0</asrwt>
<pdfrwt beam="1">  1        1 0.36659877E+00 0.31235250E+04</pdfrwt>
<pdfrwt beam="2">  1       -1 0.15747524E+00 0.31235250E+04</pdfrwt>
<totfact> 0.41982464E-01</totfact>
</mgrwt>
</event>
<event>
11    1  0.1796405E-008  0.3548092E+04  0.7818608E-02  0.8102487E-01
          1   -1    0    0  501    0  0.00000000000E+00  0.00000000000E+00  0.38291675991E+04  0.38291675991E+04  0.00000000000E+00 0. -1.
         -1   -1    0    0    0  501 -0.00000000000E+00 -0.00000000000E+00 -0.82191190836E+03  0.82191190836E+03  0.00000000000E+00 0.  1.
    9900016    2    1    2    0    0 -0.95678733707E+03 -0.64965732678E+03  0.24162586074E+04  0.33523207912E+04  0.20155030088E+04 0.  0.
         24    2    3    3    0    0 -0.30120756000E+03 -0.33893447441E+03  0.11542168108E+04  0.12428444710E+04  0.82724606948E+02 0.  0.
        -15    1    4    4    0    0 -0.11875111655E+03 -0.17168322506E+03  0.44129652952E+03  0.48817986892E+03  0.00000000000E+00 0.  1.
        -15    1    3    3    0    0 -0.47031253797E+02  0.96452110735E+02 -0.91252308030E+02  0.14086139365E+03  0.00000000000E+00 0.  1.
         15    1    3    3    0    0 -0.59978151734E+03  0.16943846267E+02  0.77112026399E+03  0.97706265102E+03  0.00000000000E+00 0. -1.
         15    1    3    3    0    0  0.20582505171E+03 -0.50184885132E+03  0.30968860556E+03  0.62459847414E+03  0.00000000000E+00 0. -1.
        -16    1    1    2    0    0  0.95678733707E+03  0.64965732678E+03  0.59099708333E+03  0.12987587163E+04  0.00000000000E+00 0.  1.
         16    1    4    4    0    0 -0.18245644345E+03 -0.16725124935E+03  0.71292028124E+03  0.75466460203E+03  0.00000000000E+00 0. -1.
    9900018    1    3    3    0    0 -0.21459205764E+03  0.77730041941E+02  0.27248523511E+03  0.36695380141E+03  0.91187600000E+02 0.  0.
<mgrwt>
<rscale>  0 0.35480916E+04</rscale>
<asrwt>0</asrwt>
<pdfrwt beam="1">  1        1 0.58910270E+00 0.35480916E+04</pdfrwt>
<pdfrwt beam="2">  1       -1 0.12644799E+00 0.35480916E+04</pdfrwt>
<totfact> 0.59380555E-02</totfact>
</mgrwt>
</event>
<event>
11    1  0.1796405E-008  0.2483122E+04  0.7818608E-02  0.8409023E-01
          2   -1    0    0  501    0  0.00000000000E+00  0.00000000000E+00  0.13131092573E+04  0.13131092573E+04  0.00000000000E+00 0.  1.
         -2   -1    0    0    0  501 -0.00000000000E+00 -0.00000000000E+00 -0.11739110546E+04  0.11739110546E+04  0.00000000000E+00 0. -1.
    9900016    2    1    2    0    0  0.14915374654E+03 -0.34824683252E+03  0.29855489908E+03  0.20760248702E+04  0.20192130986E+04 0.  0.
        -24    2    3    3    0    0 -0.61359601529E+02  0.47379995014E+03 -0.10419652986E+02  0.48459405681E+03  0.80445243959E+02 0.  0.
        -15    1    3    3    0    0  0.25317233176E+03 -0.11584513396E+03 -0.20879637607E+03  0.34801185510E+03  0.00000000000E+00 0.  1.
        -15    1    3    3    0    0  0.15145416604E+03 -0.26319036083E+02  0.55026444311E+02  0.16327573501E+03  0.00000000000E+00 0.  1.
         15    1    4    4    0    0 -0.14025201012E+02  0.37080880267E+03 -0.11217413930E+02  0.37124345755E+03  0.00000000000E+00 0. -1.
         15    1    3    3    0    0 -0.29097651448E+02 -0.75811619831E+03  0.28820037828E+03  0.81157026899E+03  0.00000000000E+00 0. -1.
        -16    1    4    4    0    0 -0.47334400517E+02  0.10299114747E+03  0.79776094394E+00  0.11335059926E+03  0.00000000000E+00 0.  1.
         16    1    1    2    0    0 -0.14915374654E+03  0.34824683252E+03 -0.15935669633E+03  0.41099544174E+03  0.00000000000E+00 0. -1.
    9900018    1    3    3    0    0 -0.16501549829E+03  0.78233585703E+02  0.17454410554E+03  0.26857295430E+03  0.91187600000E+02 0.  0.
<mgrwt>
<rscale>  0 0.24831218E+04</rscale>
<asrwt>0</asrwt>
<pdfrwt beam="1">  1        2 0.20201681E+00 0.24831218E+04</pdfrwt>
<pdfrwt beam="2">  1       -2 0.18060170E+00 0.24831218E+04</pdfrwt>
<totfact> 0.26056311E+00</totfact>
</mgrwt>
</event>
<event>
11    1  0.1796405E-008  0.2714642E+04  0.7818608E-02  0.8330270E-01
         -2   -1    0    0    0  501 -0.00000000000E+00  0.00000000000E+00  0.12191862755E+04  0.12191862755E+04  0.00000000000E+00 0.  1.
          2   -1    0    0  501    0  0.00000000000E+00 -0.00000000000E+00 -0.15111064617E+04  0.15111064617E+04  0.00000000000E+00 0. -1.
    9900016    2    1    2    0    0 -0.35856155239E+03 -0.46534537895E+03 -0.12294047645E+03  0.21190097823E+04  0.20322340879E+04 0.  0.
         24    2    3    3    0    0  0.26941103366E+03 -0.90175678255E+01  0.23382946909E+03  0.36672237125E+03  0.84530795422E+02 0.  0.
        -15    1    3    3    0    0  0.13001408118E+03 -0.52156041291E+03 -0.17243994410E+03  0.56450372890E+03  0.00000000000E+00 0.  1.
        -15    1    4    4    0    0  0.26161048052E+03 -0.15875007131E+02  0.19540158175E+03  0.32691564282E+03  0.00000000000E+00 0.  1.
         15    1    3    3    0    0  0.79062503285E+02  0.41617215482E+02 -0.10866677356E+03  0.14068169649E+03  0.00000000000E+00 0. -1.
         15    1    3    3    0    0 -0.40325282111E+03 -0.20853835442E+02  0.26784111561E+03  0.48454781332E+03  0.00000000000E+00 0. -1.
        -16    1    1    2    0    0  0.35856155239E+03  0.46534537895E+03 -0.16897970972E+03  0.61128295482E+03  0.00000000000E+00 0.  1.
         16    1    4    4    0    0  0.78005531367E+01  0.68574393056E+01  0.38427887336E+02  0.39806728428E+02  0.00000000000E+00 0. -1.
    9900018    1    3    3    0    0 -0.43379634941E+03  0.44469221747E+02 -0.34350434348E+03  0.56255417235E+03  0.91187600000E+02 0.  0.
<mgrwt>
<rscale>  0 0.27146420E+04</rscale>
<asrwt>0</asrwt>
<pdfrwt beam="1">  1        2 0.23247792E+00 0.27146420E+04</pdfrwt>
<pdfrwt beam="2">  1       -2 0.18756712E+00 0.27146420E+04</pdfrwt>
<totfact> 0.17649453E+00</totfact>
</mgrwt>
</event>
<event>
11    1  0.1796405E-008  0.2523198E+04  0.7818608E-02  0.8394767E-01
         -1   -1    0    0    0  501 -0.00000000000E+00  0.00000000000E+00  0.47243722529E+03  0.47243722529E+03  0.00000000000E+00 0.  1.
          1   -1    0    0  501    0  0.00000000000E+00 -0.00000000000E+00 -0.33689809049E+04  0.33689809049E+04  0.00000000000E+00 0. -1.
    9900016    2    1    2    0    0  0.30356315248E+03 -0.61675706053E+02 -0.28666869901E+04  0.35302173876E+04  0.20368078024E+04 0.  0.
         24    2    3    3    0    0  0.91063257686E+03 -0.49886840689E+02 -0.17100349834E+04  0.19397214452E+04  0.80989219118E+02 0.  0.
        -15    1    3    3    0    0  0.61583121316E+02 -0.24442080109E+02  0.73672953102E+02  0.99083803569E+02  0.00000000000E+00 0.  1.
        -15    1    4    4    0    0  0.52828514147E+03 -0.49846154500E+02 -0.10652836006E+04  0.11901256150E+04  0.00000000000E+00 0.  1.
         15    1    3    3    0    0 -0.30577396544E+03  0.17074122044E+02 -0.14665960642E+03  0.33955600973E+03  0.00000000000E+00 0. -1.
         15    1    3    3    0    0 -0.20285629250E+03  0.32841151262E+01 -0.49368927598E+03  0.53375140472E+03  0.00000000000E+00 0. -1.
        -16    1    1    2    0    0 -0.30356315248E+03  0.61675706053E+02 -0.29856689422E+02  0.31120074255E+03  0.00000000000E+00 0.  1.
         16    1    4    4    0    0  0.38234743539E+03 -0.40686189569E-01 -0.64475138276E+03  0.74959583015E+03  0.00000000000E+00 0. -1.
    9900018    1    3    3    0    0 -0.16002228774E+03 -0.77050224250E+01 -0.58997607749E+03  0.61810472442E+03  0.91187600000E+02 0.  0.
<mgrwt>
<rscale>  0 0.25231980E+04</rscale>
<asrwt>0</asrwt>
<pdfrwt beam="1">  1        1 0.51830475E+00 0.25231980E+04</pdfrwt>
<pdfrwt beam="2">  1       -1 0.72682650E-01 0.25231980E+04</pdfrwt>
<totfact> 0.53539612E-01</totfact>
</mgrwt>
</event>
<event>
11    1  0.1796405E-008  0.3372850E+04  0.7818608E-02  0.8144602E-01
         -1   -1    0    0    0  501 -0.00000000000E+00  0.00000000000E+00  0.16437623387E+04  0.16437623387E+04  0.00000000000E+00 0.  1.
          1   -1    0    0  501    0  0.00000000000E+00 -0.00000000000E+00 -0.17301947494E+04  0.17301947494E+04  0.00000000000E+00 0. -1.
    9900016    2    1    2    0    0  0.77626996733E+03 -0.27331670137E+02 -0.82786598728E+03  0.23001480591E+04  0.20004941686E+04 0.  0.
         24    2    3    3    0    0  0.25985915382E+03 -0.66082878535E+03 -0.33759121145E+03  0.79025209035E+03  0.79429697737E+02 0.  0.
        -15    1    3    3    0    0  0.35107448523E+02  0.16312652332E+03 -0.10511236605E+03  0.19720903896E+03  0.00000000000E+00 0.  1.
        -15    1    4    4    0    0  0.12094486112E+03 -0.26812267637E+03 -0.18025329309E+03  0.34497634511E+03  0.00000000000E+00 0.  1.
         15    1    3    3    0    0  0.31396147891E+03 -0.27529948894E+02 -0.22419538780E+03  0.38677290525E+03  0.00000000000E+00 0. -1.
         15    1    3    3    0    0  0.10465506352E+03  0.14391901880E+03  0.29110011019E+03  0.34118124281E+03  0.00000000000E+00 0. -1.
        -16    1    1    2    0    0 -0.77626996733E+03  0.27331670137E+02  0.74143357658E+03  0.10738090290E+04  0.00000000000E+00 0.  1.
         16    1    4    4    0    0  0.13891429271E+03 -0.39270610898E+03 -0.15733791836E+03  0.44527574524E+03  0.00000000000E+00 0. -1.
    9900018    1    3    3    0    0  0.62686822556E+02  0.35398152198E+03 -0.45206713217E+03  0.58473278171E+03  0.91187600000E+02 0.  0.
<mgrwt>
<rscale>  0 0.33728498E+04</rscale>
<asrwt>0</asrwt>
<pdfrwt beam="1">  1        1 0.26618381E+00 0.33728498E+04</pdfrwt>
<pdfrwt beam="2">  1       -1 0.25288651E+00 0.33728498E+04</pdfrwt>
<totfact> 0.25020120E-01</totfact>
</mgrwt>
</event>
<event>
11    1  0.1796405E-008  0.2448627E+04  0.7818608E-02  0.8421520E-01
          2   -1    0    0  501    0  0.00000000000E+00  0.00000000000E+00  0.24560280826E+04  0.24560280826E+04  0.00000000000E+00 0. -1.
         -2   -1    0    0    0  501 -0.00000000000E+00 -0.00000000000E+00 -0.61031181510E+03  0.61031181510E+03  0.00000000000E+00 0.  1.
    9900016    2    1    2    0    0  0.31945346827E+03 -0.21384527428E+03  0.14304287047E+04  0.25004387760E+04  0.20145191669E+04 0.  0.
        -24    2    3    3    0    0 -0.14503647872E+03  0.28629983127E+03  0.45204854864E+03  0.55958097967E+03  0.76025054644E+02 0.  0.
        -15    1    3    3    0    0 -0.45250830369E+02 -0.15523700620E+03 -0.19560915254E+03  0.25378949210E+03  0.00000000000E+00 0.  1.
        -15    1    3    3    0    0  0.19477235207E+03 -0.38487699389E+03  0.90116095521E+03  0.99907839370E+03  0.00000000000E+00 0.  1.
         15    1    3    3    0    0 -0.11156366929E+03 -0.24198902817E+02  0.21489416940E+03  0.24333422128E+03  0.00000000000E+00 0. -1.
         15    1    4    4    0    0  0.26280351496E+00  0.65519450219E+02  0.89963318890E+02  0.11129360345E+03  0.00000000000E+00 0. -1.
        -16    1    4    4    0    0 -0.14529928224E+03  0.22078038105E+03  0.36208522975E+03  0.44828737623E+03  0.00000000000E+00 0.  1.
         16    1    1    2    0    0 -0.31945346827E+03  0.21384527428E+03  0.41528756283E+03  0.56590112172E+03  0.00000000000E+00 0. -1.
    9900018    1    3    3    0    0  0.42653209458E+03  0.64167797354E+02  0.57934183972E+02  0.44465568926E+03  0.91187600000E+02 0.  0.
<mgrwt>
<rscale>  0 0.24486265E+04</rscale>
<asrwt>0</asrwt>
<pdfrwt beam="1">  1        2 0.37785047E+00 0.24486265E+04</pdfrwt>
<pdfrwt beam="2">  1       -2 0.93894127E-01 0.24486265E+04</pdfrwt>
<totfact> 0.31661500E+00</totfact>
</mgrwt>
</event>
<event>
11    1  0.1796405E-008  0.2900682E+04  0.7818608E-02  0.8272675E-01
          2   -1    0    0  501    0  0.00000000000E+00  0.00000000000E+00  0.25956402973E+04  0.25956402973E+04  0.00000000000E+00 0. -1.
         -2   -1    0    0    0  501 -0.00000000000E+00 -0.00000000000E+00 -0.81039310638E+03  0.81039310638E+03  0.00000000000E+00 0.  1.
    9900016    2    1    2    0    0 -0.14661931911E+03  0.13036497755E+01  0.46496880068E+03  0.20776381493E+04  0.20196250566E+04 0.  0.
        -24    2    3    3    0    0 -0.69351862616E+03  0.84259157636E+02  0.70217274757E+03  0.99375581672E+03  0.80226961550E+02 0.  0.
        -15    1    3    3    0    0  0.59047776545E+03 -0.57554207194E+02 -0.22042936036E+02  0.59368541273E+03  0.00000000000E+00 0.  1.
        -15    1    3    3    0    0 -0.14276135163E+02 -0.10212768088E+03 -0.25933902629E+01  0.10315326903E+03  0.00000000000E+00 0.  1.
         15    1    4    4    0    0 -0.39207843776E+03  0.69728526095E+02  0.35219631042E+03  0.53162939138E+03  0.00000000000E+00 0. -1.
         15    1    3    3    0    0  0.88297386519E+02  0.43834330380E+02 -0.21292729177E+03  0.23463995518E+03  0.00000000000E+00 0. -1.
        -16    1    4    4    0    0 -0.30144018840E+03  0.14530631541E+02  0.34997643715E+03  0.46212642534E+03  0.00000000000E+00 0.  1.
         16    1    1    2    0    0  0.14661931911E+03 -0.13036497755E+01  0.13202783902E+04  0.13283952544E+04  0.00000000000E+00 0. -1.
    9900018    1    3    3    0    0 -0.11759970975E+03  0.32892049837E+02  0.35967118151E+00  0.15240369560E+03  0.91187600000E+02 0.  0.
<mgrwt>
<rscale>  0 0.29006820E+04</rscale>
<asrwt>0</asrwt>
<pdfrwt beam="1">  1        2 0.39932927E+00 0.29006820E+04</pdfrwt>
<pdfrwt beam="2">  1       -2 0.12467586E+00 0.29006820E+04</pdfrwt>
<totfact> 0.12746580E+00</totfact>
</mgrwt>
</event>
<event>
11    1  0.1796405E-008  0.2959466E+04  0.7818608E-02  0.8255401E-01
         -1   -1    0    0    0  501 -0.00000000000E+00  0.00000000000E+00  0.11103639838E+04  0.11103639838E+04  0.00000000000E+00 0.  1.
          1   -1    0    0  501    0  0.00000000000E+00 -0.00000000000E+00 -0.19719748256E+04  0.19719748256E+04  0.00000000000E+00 0. -1.
    9900016    2    1    2    0    0  0.27027433718E+03  0.82353205073E+02 -0.13941524461E+04  0.24794865655E+04  0.20308526086E+04 0.  0.
         24    2    3    3    0    0 -0.83370195706E+02  0.40804694118E+02 -0.31168770431E+02  0.12457787409E+03  0.77022995707E+02 0.  0.
        -15    1    4    4    0    0 -0.64748631224E+02 -0.10171202912E+02 -0.98894922171E+01  0.66284543224E+02  0.00000000000E+00 0.  1.
        -15    1    3    3    0    0  0.33092228531E+03  0.24164398657E+02 -0.11809600927E+03  0.35219333395E+03  0.00000000000E+00 0. -1.
         15    1    3    3    0    0  0.64100296933E+03 -0.16179757576E+03 -0.42372562077E+03  0.78524306040E+03  0.00000000000E+00 0.  1.
         15    1    3    3    0    0 -0.32727117996E+03  0.38443872629E+03 -0.61609956034E+03  0.79654141622E+03  0.00000000000E+00 0. -1.
        -16    1    1    2    0    0 -0.27027433718E+03 -0.82353205073E+02  0.53254160434E+03  0.60285224398E+03  0.00000000000E+00 0.  1.
         16    1    4    4    0    0 -0.18621564482E+02  0.50975897031E+02 -0.21279278214E+02  0.58293330863E+02  0.00000000000E+00 0. -1.
    9900018    1    3    3    0    0 -0.29100954180E+03 -0.20525703823E+03 -0.20506248530E+03  0.42093088082E+03  0.91187600000E+02 0.  0.
<mgrwt>
<rscale>  0 0.29594660E+04</rscale>
<asrwt>0</asrwt>
<pdfrwt beam="1">  1        1 0.30338074E+00 0.29594660E+04</pdfrwt>
<pdfrwt beam="2">  1       -1 0.17082523E+00 0.29594660E+04</pdfrwt>
<totfact> 0.64516990E-01</totfact>
</mgrwt>
</event>
