<event>
12    1  0.1216177E-009  0.5109440E+04  0.7818608E-02  0.7811843E-01
          2   -1    0    0  501    0  0.00000000000E+00  0.00000000000E+00  0.13686191998E+04  0.13686191998E+04  0.00000000000E+00 0. -1.
         -2   -1    0    0    0  501 -0.00000000000E+00 -0.00000000000E+00 -0.47687429362E+04  0.47687429362E+04  0.00000000000E+00 0.  1.
         23    2    1    2    0    0 -0.49244838719E+03 -0.20962818924E+03  0.11892711142E+03  0.55580131294E+03  0.91225269856E+02 0.  0.
    9900016    2    1    2    0    0  0.17037012422E+03  0.15375341234E+04 -0.16088314660E+04  0.28916798314E+04  0.18385963129E+04 0.  0.
        -24    2    4    4    0    0 -0.72167942976E+03  0.47714283741E+03 -0.11296741015E+04  0.14254691146E+04  0.85511019805E+02 0.  0.
        -15    1    4    4    0    0  0.89204955398E+03  0.10603912860E+04 -0.47915736451E+03  0.14662107168E+04  0.00000000000E+00 0.  1.
        -15    1    3    3    0    0 -0.40720099318E+03 -0.14785922448E+03  0.12335477872E+03  0.45043467956E+03  0.00000000000E+00 0.  1.
         15    1    5    5    0    0 -0.34460015201E+03  0.19030877916E+03 -0.46558887516E+03  0.60970459804E+03  0.00000000000E+00 0. -1.
         15    1    3    3    0    0 -0.85247394010E+02 -0.61768964763E+02 -0.44276672946E+01  0.10536663339E+03  0.00000000000E+00 0. -1.
        -16    1    5    5    0    0 -0.37707927775E+03  0.28683405826E+03 -0.66408522629E+03  0.81576451655E+03  0.00000000000E+00 0.  1.
         16    1    1    2    0    0 -0.21368387463E+02  0.24969277605E+03 -0.12141450565E+03  0.27846826135E+03  0.00000000000E+00 0. -1.
    9900018    1    1    2    0    0  0.34344665044E+03 -0.15775987102E+04 -0.17888048763E+04  0.24114127303E+04  0.91187600000E+02 0.  0.
<mgrwt>
<rscale>  0 0.51094396E+04</rscale>
<asrwt>0</asrwt>
<pdfrwt beam="1">  1        2 0.21055680E+00 0.51094396E+04</pdfrwt>
<pdfrwt beam="2">  1       -2 0.73365275E+00 0.51094396E+04</pdfrwt>
<totfact> 0.18524251E-03</totfact>
</mgrwt>
</event>
<event>
12    1  0.1216177E-009  0.2357854E+04  0.7818608E-02  0.9171282E-01
         -1   -1    0    0    0  501 -0.00000000000E+00  0.00000000000E+00  0.12220976476E+04  0.12220976476E+04  0.00000000000E+00 0.  1.
          1   -1    0    0  501    0  0.00000000000E+00 -0.00000000000E+00 -0.12825091081E+04  0.12825091081E+04  0.00000000000E+00 0. -1.
         23    2    1    2    0    0 -0.34675784689E+02 -0.82801473957E+02  0.66781817129E+02  0.14332446116E+03  0.89574527261E+02 0.  0.
    9900016    2    1    2    0    0  0.18301148912E+03 -0.69124701417E+02 -0.39973076945E+02  0.18596955792E+04  0.18489452049E+04 0.  0.
        -24    2    4    4    0    0 -0.38434689316E+03 -0.15273282593E+03  0.76394175975E+03  0.87219119080E+03  0.77849923673E+02 0.  0.
        -15    1    4    4    0    0  0.56735838228E+03  0.83608124512E+02 -0.80391483669E+03  0.98750438839E+03  0.00000000000E+00 0.  1.
        -15    1    3    3    0    0 -0.43703217550E+02 -0.91383170459E+02  0.76979421202E+02  0.12722690893E+03  0.00000000000E+00 0.  1.
         15    1    3    3    0    0  0.90274328619E+01  0.85816965016E+01 -0.10197604073E+02  0.16097552228E+02  0.00000000000E+00 0. -1.
         15    1    5    5    0    0 -0.15360622843E+03 -0.23782028006E+02  0.25323053138E+03  0.29712987109E+03  0.00000000000E+00 0. -1.
        -16    1    5    5    0    0 -0.23074066474E+03 -0.12895079792E+03  0.51071122837E+03  0.57506131971E+03  0.00000000000E+00 0.  1.
         16    1    1    2    0    0 -0.24142830163E+03 -0.20390596668E+02 -0.13913262266E+03  0.27939450237E+03  0.00000000000E+00 0. -1.
    9900018    1    1    2    0    0  0.93092597208E+02  0.17231677204E+03  0.51912421912E+02  0.22219221301E+03  0.91187600000E+02 0.  0.
<mgrwt>
<rscale>  0 0.11354827E+04</rscale>
<asrwt>0</asrwt>
<pdfrwt beam="1">  1        1 0.19730909E+00 0.23578541E+04</pdfrwt>
<pdfrwt beam="2">  1       -1 0.18801502E+00 0.23578541E+04</pdfrwt>
<totfact> 0.15208673E+00</totfact>
</mgrwt>
</event>
<event>
12    1  0.1216177E-009  0.2382373E+04  0.7818608E-02  0.9143642E-01
          1   -1    0    0  501    0  0.00000000000E+00  0.00000000000E+00  0.15880345268E+04  0.15880345268E+04  0.00000000000E+00 0. -1.
         -1   -1    0    0    0  501 -0.00000000000E+00 -0.00000000000E+00 -0.11646752066E+04  0.11646752066E+04  0.00000000000E+00 0.  1.
         23    2    1    2    0    0  0.20496999747E+02  0.10010711923E+03  0.34282101445E+03  0.36897593094E+03  0.90418069798E+02 0.  0.
    9900016    2    1    2    0    0  0.49262404595E+02 -0.86067548095E+01 -0.89461881096E+02  0.18377537803E+04  0.18348936394E+04 0.  0.
        -24    2    4    4    0    0 -0.46151605104E+01  0.32540885402E+03  0.81025520737E+03  0.87652536920E+03  0.76622449776E+02 0.  0.
        -15    1    4    4    0    0  0.53877565106E+02 -0.33401560883E+03 -0.89971708846E+03  0.96122841106E+03  0.00000000000E+00 0.  1.
        -15    1    3    3    0    0 -0.22925937748E+02  0.59878923672E+02  0.25592253136E+03  0.26383219322E+03  0.00000000000E+00 0. -1.
         15    1    5    5    0    0  0.68533365326E+01  0.12705934420E+03  0.41619772349E+03  0.43521441866E+03  0.00000000000E+00 0. -1.
         15    1    3    3    0    0  0.43422937496E+02  0.40228195557E+02  0.86898483091E+02  0.10514373772E+03  0.00000000000E+00 0.  1.
        -16    1    5    5    0    0 -0.11468497043E+02  0.19834950982E+03  0.39405748388E+03  0.44131095055E+03  0.00000000000E+00 0.  1.
         16    1    1    2    0    0  0.67715178080E+02 -0.19646486403E+03  0.25823361001E+03  0.33146400330E+03  0.00000000000E+00 0. -1.
    9900018    1    1    2    0    0 -0.13747458242E+03  0.10496449962E+03 -0.88233423229E+02  0.21451601889E+03  0.91187600000E+02 0.  0.
<mgrwt>
<rscale>  0 0.11654563E+04</rscale>
<asrwt>0</asrwt>
<pdfrwt beam="1">  1        1 0.24431300E+00 0.23823729E+04</pdfrwt>
<pdfrwt beam="2">  1       -1 0.17918080E+00 0.23823729E+04</pdfrwt>
<totfact> 0.10654067E+00</totfact>
</mgrwt>
</event>
<event>
12    1  0.1216177E-009  0.3053452E+04  0.7818608E-02  0.8636011E-01
          3   -1    0    0  501    0  0.00000000000E+00  0.00000000000E+00  0.21496749217E+04  0.21496749217E+04  0.00000000000E+00 0. -1.
         -3   -1    0    0    0  501 -0.00000000000E+00 -0.00000000000E+00 -0.14650441955E+04  0.14650441955E+04  0.00000000000E+00 0.  1.
         23    2    1    2    0    0  0.39544610067E+03  0.28476390185E+03  0.98370756405E+02  0.50549603121E+03  0.91549623293E+02 0.  0.
    9900016    2    1    2    0    0 -0.38599502967E+03 -0.25393660036E+03  0.18190636402E+03  0.19148130505E+04  0.18493088258E+04 0.  0.
        -24    2    4    4    0    0 -0.75765922672E+03  0.33825312475E+03 -0.47162574058E+03  0.95777221663E+03  0.80212839003E+02 0.  0.
        -15    1    3    3    0    0  0.13890534198E+03  0.65723607065E+02  0.63840818035E+02  0.16640293448E+03  0.00000000000E+00 0.  1.
        -15    1    4    4    0    0  0.37166419705E+03 -0.59218972511E+03  0.65353210459E+03  0.95704083384E+03  0.00000000000E+00 0.  1.
         15    1    5    5    0    0 -0.19352071937E+03  0.12409016966E+03 -0.14156156912E+03  0.26997836373E+03  0.00000000000E+00 0. -1.
         15    1    3    3    0    0  0.25654075869E+03  0.21904029478E+03  0.34529938370E+02  0.33909309673E+03  0.00000000000E+00 0. -1.
        -16    1    5    5    0    0 -0.56413850735E+03  0.21416295509E+03 -0.33006417146E+03  0.68779385290E+03  0.00000000000E+00 0.  1.
         16    1    1    2    0    0  0.78647399270E+02 -0.49956598456E+03  0.48672051013E+03  0.70188919447E+03  0.00000000000E+00 0. -1.
    9900018    1    1    2    0    0 -0.88098470273E+02  0.46873868307E+03 -0.82366904352E+02  0.49252084098E+03  0.91187600000E+02 0.  0.
<mgrwt>
<rscale>  0 0.19383266E+04</rscale>
<asrwt>0</asrwt>
<pdfrwt beam="1">  1        3 0.33071922E+00 0.30534517E+04</pdfrwt>
<pdfrwt beam="2">  1       -3 0.22539142E+00 0.30534517E+04</pdfrwt>
<totfact> 0.57891908E-03</totfact>
</mgrwt>
</event>
<event>
12    1  0.1216177E-009  0.2829882E+04  0.7818608E-02  0.8935411E-01
          2   -1    0    0  501    0  0.00000000000E+00  0.00000000000E+00  0.20810211407E+04  0.20810211407E+04  0.00000000000E+00 0.  1.
         -2   -1    0    0    0  501 -0.00000000000E+00 -0.00000000000E+00 -0.10940089787E+04  0.10940089787E+04  0.00000000000E+00 0. -1.
         23    2    1    2    0    0 -0.91631255506E+02  0.12581152703E+03  0.15272780702E+02  0.18295556836E+03  0.94945536192E+02 0.  0.
    9900016    2    1    2    0    0 -0.98205140004E+02  0.43967377766E+02  0.67808844784E+03  0.19671214327E+04  0.18434167755E+04 0.  0.
        -24    2    4    4    0    0 -0.59479647508E+03 -0.70830343069E+03  0.47662899734E+03  0.10434871796E+04  0.78827001408E+02 0.  0.
        -15    1    3    3    0    0 -0.10683944900E+02  0.82261290377E+02 -0.18568361872E+02  0.85005003593E+02  0.00000000000E+00 0. -1.
        -15    1    4    4    0    0  0.49659133508E+03  0.75227080845E+03  0.20145945050E+03  0.92363425311E+03  0.00000000000E+00 0.  1.
         15    1    5    5    0    0 -0.18379209518E+03 -0.22833198258E+03  0.11096652308E+03  0.31341441856E+03  0.00000000000E+00 0. -1.
         15    1    3    3    0    0 -0.80947310606E+02  0.43550236654E+02  0.33841142574E+02  0.97950564764E+02  0.00000000000E+00 0.  1.
        -16    1    5    5    0    0 -0.41100437991E+03 -0.47997144811E+03  0.36566247426E+03  0.73007276102E+03  0.00000000000E+00 0.  1.
         16    1    1    2    0    0  0.19720059020E+03 -0.54753710504E+03  0.99245902169E+02  0.59036827766E+03  0.00000000000E+00 0. -1.
    9900018    1    1    2    0    0 -0.73641946861E+01  0.37775820024E+03  0.19440503129E+03  0.43458484074E+03  0.91187600000E+02 0.  0.
<mgrwt>
<rscale>  0 0.14257160E+04</rscale>
<asrwt>0</asrwt>
<pdfrwt beam="1">  1        2 0.32015710E+00 0.28298821E+04</pdfrwt>
<pdfrwt beam="2">  1       -2 0.16830907E+00 0.28298821E+04</pdfrwt>
<totfact> 0.11378629E+00</totfact>
</mgrwt>
</event>
<event>
12    1  0.1216177E-009  0.3133716E+04  0.7818608E-02  0.8994194E-01
         -3   -1    0    0    0  501 -0.00000000000E+00  0.00000000000E+00  0.77919520491E+03  0.77919520491E+03  0.00000000000E+00 0.  1.
          3   -1    0    0  501    0  0.00000000000E+00 -0.00000000000E+00 -0.35029639901E+04  0.35029639901E+04  0.00000000000E+00 0. -1.
         23    2    1    2    0    0 -0.13856817925E+02 -0.52198598771E+02  0.29735019025E+02  0.11059349684E+03  0.91815276884E+02 0.  0.
    9900016    2    1    2    0    0  0.16325509060E+03  0.66222121222E+02 -0.18792724120E+04  0.26077846909E+04  0.17993995115E+04 0.  0.
        -24    2    4    4    0    0  0.23469285333E+03 -0.80330947629E+03 -0.13402446859E+04  0.15822412045E+04  0.82731862790E+02 0.  0.
        -15    1    4    4    0    0 -0.71437762731E+02  0.86953159752E+03 -0.53902772608E+03  0.10255434864E+04  0.00000000000E+00 0.  1.
        -15    1    3    3    0    0  0.63087510825E+01 -0.33675209321E+02  0.60426056630E+02  0.69463144061E+02  0.00000000000E+00 0.  1.
         15    1    3    3    0    0 -0.20165569007E+02 -0.18523389450E+02 -0.30691037605E+02  0.41130352775E+02  0.00000000000E+00 0. -1.
         15    1    5    5    0    0  0.12293597258E+03 -0.55600311370E+03 -0.92169508187E+03  0.10834087593E+04  0.00000000000E+00 0. -1.
        -16    1    5    5    0    0  0.11175688075E+03 -0.24730636259E+03 -0.41854960404E+03  0.49883244523E+03  0.00000000000E+00 0.  1.
         16    1    1    2    0    0  0.10197226169E+03  0.63188213477E+02 -0.11592320505E+04  0.11654226870E+04  0.00000000000E+00 0. -1.
    9900018    1    1    2    0    0 -0.25137053436E+03 -0.77211735928E+02  0.28500065826E+03  0.39835832025E+03  0.91187600000E+02 0.  0.
<mgrwt>
<rscale>  0 0.13455619E+04</rscale>
<asrwt>0</asrwt>
<pdfrwt beam="1">  1        3 0.53891753E+00 0.31337162E+04</pdfrwt>
<pdfrwt beam="2">  1       -3 0.11987619E+00 0.31337162E+04</pdfrwt>
<totfact> 0.27427756E-03</totfact>
</mgrwt>
</event>
<event>
12    1  0.1216178E-009  0.2910966E+04  0.7818608E-02  0.9017447E-01
          2   -1    0    0  501    0  0.00000000000E+00  0.00000000000E+00  0.19925413341E+04  0.19925413341E+04  0.00000000000E+00 0. -1.
         -2   -1    0    0    0  501 -0.00000000000E+00 -0.00000000000E+00 -0.11571338090E+04  0.11571338090E+04  0.00000000000E+00 0.  1.
         23    2    1    2    0    0 -0.65109111861E+02  0.15606781308E+02  0.68564521360E+02  0.13939774351E+03  0.10123176001E+03 0.  0.
    9900016    2    1    2    0    0  0.23889628500E+03 -0.22187455161E+03  0.60882722392E+03  0.19545076172E+04  0.18284227316E+04 0.  0.
         24    2    4    4    0    0  0.62345258633E+03 -0.52052116940E+03  0.10275923926E+04  0.13122945547E+04  0.80842177931E+02 0.  0.
        -15    1    5    5    0    0  0.50591564554E+03 -0.37869803581E+03  0.80132455463E+03  0.10205311777E+04  0.00000000000E+00 0.  1.
        -15    1    3    3    0    0 -0.92459825458E+02  0.14015996384E+02  0.57954120445E+02  0.11001794197E+03  0.00000000000E+00 0.  1.
         15    1    3    3    0    0  0.27350713597E+02  0.15907849240E+01  0.10610400915E+02  0.29379801540E+02  0.00000000000E+00 0. -1.
         15    1    4    4    0    0 -0.38455630133E+03  0.29864661779E+03 -0.41876516864E+03  0.64221306252E+03  0.00000000000E+00 0. -1.
        -16    1    1    2    0    0 -0.23687748812E+03 -0.23574825450E+03 -0.27071206863E+03  0.43008511714E+03  0.00000000000E+00 0.  1.
         16    1    5    5    0    0  0.11753694078E+03 -0.14182313359E+03  0.22626783793E+03  0.29176337698E+03  0.00000000000E+00 0. -1.
    9900018    1    1    2    0    0  0.63090314981E+02  0.44201602480E+03  0.42872784841E+03  0.62568466532E+03  0.91187600000E+02 0.  0.
<mgrwt>
<rscale>  0 0.13153930E+04</rscale>
<asrwt>0</asrwt>
<pdfrwt beam="1">  1        2 0.30654482E+00 0.29109658E+04</pdfrwt>
<pdfrwt beam="2">  1       -2 0.17802059E+00 0.29109658E+04</pdfrwt>
<totfact> 0.10837128E+00</totfact>
</mgrwt>
</event>
