<event>
11    1  0.5553104E-010  0.3075878E+04  0.7818608E-02  0.8921484E-01
         -1   -1    0    0    0  501 -0.00000000000E+00  0.00000000000E+00  0.13041736577E+04  0.13041736577E+04  0.00000000000E+00 0.  1.
          1   -1    0    0  501    0  0.00000000000E+00 -0.00000000000E+00 -0.20064754376E+04  0.20064754376E+04  0.00000000000E+00 0. -1.
         23    2    1    2    0    0  0.84222924091E+02  0.92025932369E+02 -0.88245677659E+02  0.17407586745E+03  0.83383660460E+02 0.  0.
    9900016    2    1    2    0    0 -0.38039950302E+02 -0.31803295036E+03  0.24860019692E+03  0.22436074224E+04  0.22066672183E+04 0.  0.
        -15    1    4    4    0    0 -0.33724760510E+03  0.22369555916E+02 -0.68722546000E+03  0.76584278872E+03  0.00000000000E+00 0.  1.
        -15    1    3    3    0    0  0.86214919016E+02  0.64098619909E+02 -0.33412125936E+02  0.11250784637E+03  0.00000000000E+00 0.  1.
         15    1    3    3    0    0 -0.19919949245E+01  0.27927312460E+02 -0.54833551724E+02  0.61568021080E+02  0.00000000000E+00 0. -1.
         15    1    4    4    0    0  0.53279668465E+02  0.71433799977E+02  0.34199477276E+01  0.89180754053E+02  0.00000000000E+00 0. -1.
        -16    1    4    4    0    0  0.21977722388E+03  0.21853138807E+03  0.72735975767E+02  0.31835281980E+03  0.00000000000E+00 0.  1.
         16    1    1    2    0    0 -0.46182973790E+02  0.22600701799E+03 -0.86265629916E+03  0.89296580546E+03  0.00000000000E+00 0. -1.
    9900018    1    4    4    0    0  0.26150762453E+02 -0.63036769432E+03  0.85966973342E+03  0.10702310598E+04  0.91187600000E+02 0.  0.
<mgrwt>
<rscale>  0 0.14455599E+04</rscale>
<asrwt>0</asrwt>
<pdfrwt beam="1">  1        1 0.30868853E+00 0.30758782E+04</pdfrwt>
<pdfrwt beam="2">  1       -1 0.20064210E+00 0.30758782E+04</pdfrwt>
<totfact> 0.36958158E-01</totfact>
</mgrwt>
</event>
<event>
11    1  0.5553102E-010  0.3393086E+04  0.7818608E-02  0.8921212E-01
         -1   -1    0    0    0  501 -0.00000000000E+00  0.00000000000E+00  0.17496310627E+04  0.17496310627E+04  0.00000000000E+00 0.  1.
          1   -1    0    0  501    0  0.00000000000E+00 -0.00000000000E+00 -0.18804085667E+04  0.18804085667E+04  0.00000000000E+00 0. -1.
         23    2    1    2    0    0 -0.65920673826E+02  0.23795053139E+01 -0.20787327878E+03  0.23607821375E+03  0.90390407106E+02 0.  0.
    9900016    2    1    2    0    0 -0.42420554325E+02  0.33895622846E+03  0.97868028902E+03  0.24238570186E+04  0.21910218872E+04 0.  0.
        -15    1    4    4    0    0 -0.40304766972E+03 -0.54643381006E+03  0.50022743372E+03  0.84336517493E+03  0.00000000000E+00 0.  1.
        -15    1    3    3    0    0 -0.76622199243E+02 -0.26519306940E+02 -0.15002855630E+03  0.17053680765E+03  0.00000000000E+00 0.  1.
         15    1    4    4    0    0  0.22638252049E+03  0.53389019491E+03 -0.55597576694E+02  0.58256233687E+03  0.00000000000E+00 0. -1.
         15    1    3    3    0    0  0.10701525417E+02  0.28898812253E+02 -0.57844722473E+02  0.65541406102E+02  0.00000000000E+00 0. -1.
        -16    1    4    4    0    0  0.11043868339E+03  0.45441542386E+03  0.23042868119E+02  0.46821048045E+03  0.00000000000E+00 0.  1.
         16    1    1    2    0    0  0.10834122815E+03 -0.34133573378E+03 -0.90158451427E+03  0.97010439708E+03  0.00000000000E+00 0. -1.
    9900018    1    4    4    0    0  0.23805911513E+02 -0.10291558025E+03  0.51100756388E+03  0.52971902629E+03  0.91187600000E+02 0.  0.
<mgrwt>
<rscale>  0 0.14459514E+04</rscale>
<asrwt>0</asrwt>
<pdfrwt beam="1">  1        1 0.28929363E+00 0.33930857E+04</pdfrwt>
<pdfrwt beam="2">  1       -1 0.26917401E+00 0.33930857E+04</pdfrwt>
<totfact> 0.15343832E-01</totfact>
</mgrwt>
</event>
<event>
12    1  0.5553102E-010  0.2619746E+04  0.7818608E-02  0.9089261E-01
         -1   -1    0    0    0  501 -0.00000000000E+00  0.00000000000E+00  0.21073022872E+04  0.21073022872E+04  0.00000000000E+00 0.  1.
          1   -1    0    0  501    0  0.00000000000E+00 -0.00000000000E+00 -0.90616047094E+03  0.90616047094E+03  0.00000000000E+00 0. -1.
         23    2    1    2    0    0 -0.14647582027E+02  0.73131119621E+02  0.13578682082E+03  0.18537985697E+03  0.10180824300E+03 0.  0.
    9900016    2    1    2    0    0 -0.35208686147E+03 -0.23653743123E+02  0.79085833943E+03  0.23673328854E+04  0.22032438403E+04 0.  0.
        -24    2    4    4    0    0  0.96239920266E+01 -0.86558524915E+03  0.57953694363E+02  0.87261661351E+03  0.93651901776E+02 0.  0.
        -15    1    3    3    0    0 -0.20935411949E+02 -0.22031743523E+02  0.26414921486E+02  0.40267074307E+02  0.00000000000E+00 0.  1.
        -15    1    4    4    0    0 -0.15530693678E+03  0.83041887732E+03  0.13498795448E+03  0.85553346181E+03  0.00000000000E+00 0.  1.
         15    1    5    5    0    0  0.20976748348E+02 -0.14873721666E+03  0.40043437184E+02  0.15545501103E+03  0.00000000000E+00 0. -1.
         15    1    3    3    0    0  0.62878299225E+01  0.95162863144E+02  0.10937189934E+03  0.14511278266E+03  0.00000000000E+00 0. -1.
        -16    1    5    5    0    0 -0.11352756322E+02 -0.71684803249E+03  0.17910257178E+02  0.71716160248E+03  0.00000000000E+00 0.  1.
         16    1    1    2    0    0  0.36673444349E+03 -0.49477376499E+02  0.27449665596E+03  0.46075001569E+03  0.00000000000E+00 0. -1.
    9900018    1    4    4    0    0 -0.20640391672E+03  0.11512628708E+02  0.59791669059E+03  0.63918281011E+03  0.91187600000E+02 0.  0.
<mgrwt>
<rscale>  0 0.12273356E+04</rscale>
<asrwt>0</asrwt>
<pdfrwt beam="1">  1        1 0.13940930E+00 0.26197465E+04</pdfrwt>
<pdfrwt beam="2">  1       -1 0.32420035E+00 0.26197465E+04</pdfrwt>
<totfact> 0.36174475E-01</totfact>
</mgrwt>
</event>
<event>
11    1  0.5553102E-010  0.2810877E+04  0.7818608E-02  0.9002166E-01
          2   -1    0    0  501    0  0.00000000000E+00  0.00000000000E+00  0.11704954944E+04  0.11704954944E+04  0.00000000000E+00 0. -1.
         -2   -1    0    0    0  501 -0.00000000000E+00 -0.00000000000E+00 -0.19019062472E+04  0.19019062472E+04  0.00000000000E+00 0.  1.
         23    2    1    2    0    0  0.11027033451E+03  0.24812551067E+01 -0.13960806733E+03  0.19990151096E+03  0.91129020184E+02 0.  0.
    9900016    2    1    2    0    0  0.23348744297E+03 -0.28179066422E+03 -0.82923973730E+03  0.23699472393E+04  0.21897691683E+04 0.  0.
        -15    1    3    3    0    0  0.12410544099E+03  0.28444270602E+01 -0.10486046916E+03  0.16249913612E+03  0.00000000000E+00 0. -1.
        -15    1    4    4    0    0 -0.35008458909E+02 -0.32127256242E+03  0.51447788286E+03  0.60755999169E+03  0.00000000000E+00 0.  1.
         15    1    3    3    0    0 -0.13835106472E+02 -0.36317195345E+00 -0.34747598171E+02  0.37402374840E+02  0.00000000000E+00 0.  1.
         15    1    4    4    0    0 -0.11407100393E+03 -0.14271850128E+03 -0.63671363616E+03  0.66240849860E+03  0.00000000000E+00 0. -1.
        -16    1    4    4    0    0 -0.77608621144E+02 -0.13903174898E+03 -0.44751541564E+03  0.47499786582E+03  0.00000000000E+00 0.  1.
         16    1    1    2    0    0 -0.34375777748E+03  0.27930940911E+03  0.23743705179E+03  0.50255299140E+03  0.00000000000E+00 0. -1.
    9900018    1    4    4    0    0  0.46017552695E+03  0.32123214846E+03 -0.25948856835E+03  0.62498088316E+03  0.91187600000E+02 0.  0.
<mgrwt>
<rscale>  0 0.13351240E+04</rscale>
<asrwt>0</asrwt>
<pdfrwt beam="1">  1        2 0.18007623E+00 0.28108766E+04</pdfrwt>
<pdfrwt beam="2">  1       -2 0.29260096E+00 0.28108766E+04</pdfrwt>
<totfact> 0.60148898E-01</totfact>
</mgrwt>
</event>
