<event>
11    1  0.2851647E-017  0.1215300E+04  0.7818608E-02  0.9354058E-01
          1   -1    0    0  501    0  0.00000000000E+00  0.00000000000E+00  0.63845323133E+03  0.63845323133E+03  0.00000000000E+00 0. -1.
         -1   -1    0    0    0  501 -0.00000000000E+00 -0.00000000000E+00 -0.12282074526E+04  0.12282074526E+04  0.00000000000E+00 0.  1.
    9900016    2    1    2    0    0  0.19143903358E+03  0.10351460338E+03 -0.70936239655E+03  0.10605021163E+04  0.75769753351E+03 0.  0.
         23    2    3    3    0    0  0.37833962251E+03 -0.57557193003E+02 -0.39235640678E+03  0.55331037957E+03  0.75862545253E+02 0.  0.
        -15    1    4    4    0    0  0.28187302398E+03 -0.58043641630E+02 -0.24921237993E+03  0.38069446580E+03  0.00000000000E+00 0.  1.
        -15    1    1    2    0    0 -0.64198024711E+02 -0.11398009420E+03 -0.42228164034E+02  0.13746296261E+03  0.00000000000E+00 0. -1.
         15    1    4    4    0    0  0.96466598538E+02  0.48644862754E+00 -0.14314402685E+03  0.17261591377E+03  0.00000000000E+00 0. -1.
         15    1    1    2    0    0 -0.74936618148E+02 -0.31001837841E+03  0.12222814798E+03  0.34156494529E+03  0.00000000000E+00 0.  1.
        -16    1    1    2    0    0 -0.52304390726E+02  0.32048386924E+03  0.39608191327E+02  0.32713065976E+03  0.00000000000E+00 0.  1.
         16    1    3    3    0    0 -0.22565029998E+03  0.18643873647E+03 -0.24983416722E+03  0.38483057499E+03  0.00000000000E+00 0. -1.
    9900018    1    3    3    0    0  0.38749711050E+02 -0.25366940094E+02 -0.67171822548E+02  0.12236116171E+03  0.91187600000E+02 0.  0.
<mgrwt>
<rscale>  0 0.95954912E+03</rscale>
<asrwt>0</asrwt>
<pdfrwt beam="1">  1        1 0.98223574E-01 0.12153000E+04</pdfrwt>
<pdfrwt beam="2">  1       -1 0.18895499E+00 0.12153000E+04</pdfrwt>
<totfact> 0.55269663E+00</totfact>
</mgrwt>
</event>
<event>
11    1  0.2851647E-017  0.2555595E+04  0.7818608E-02  0.8383443E-01
          2   -1    0    0  501    0  0.00000000000E+00  0.00000000000E+00  0.23399223192E+04  0.23399223192E+04  0.00000000000E+00 0.  1.
         -2   -1    0    0    0  501 -0.00000000000E+00 -0.00000000000E+00 -0.69778685363E+03  0.69778685363E+03  0.00000000000E+00 0. -1.
    9900016    2    1    2    0    0 -0.13769078098E+03 -0.55976021078E+03  0.51503677699E+03  0.10770338376E+04  0.74996583988E+03 0.  0.
         23    2    3    3    0    0 -0.30098013059E+03 -0.16040562795E+03 -0.15959725433E+01  0.36306341243E+03  0.12447284776E+03 0.  0.
        -15    1    1    2    0    0 -0.18633339812E+03  0.76457118106E+03  0.64194334531E+03  0.10155690448E+04  0.00000000000E+00 0.  1.
        -15    1    4    4    0    0 -0.21323165853E+03 -0.17010851354E+03  0.15205224567E+02  0.27319561751E+03  0.00000000000E+00 0. -1.
         15    1    1    2    0    0  0.35970877535E+03 -0.94422158094E+02 -0.69598518721E+02  0.37835155717E+03  0.00000000000E+00 0. -1.
         15    1    4    4    0    0 -0.87748472067E+02  0.97028855874E+01 -0.16801197110E+02  0.89867794916E+02  0.00000000000E+00 0.  1.
        -16    1    1    2    0    0 -0.35684596253E+02 -0.11038881218E+03  0.55475386198E+03  0.56675473324E+03  0.00000000000E+00 0.  1.
         16    1    3    3    0    0  0.17120626695E+03 -0.34723142785E+03  0.41643338930E+03  0.56859301618E+03  0.00000000000E+00 0. -1.
    9900018    1    3    3    0    0 -0.79169173341E+01 -0.52123154987E+02  0.10019936024E+03  0.14537740901E+03  0.91187600000E+02 0.  0.
<mgrwt>
<rscale>  0 0.25555955E+04</rscale>
<asrwt>0</asrwt>
<pdfrwt beam="1">  1        2 0.35998804E+00 0.25555955E+04</pdfrwt>
<pdfrwt beam="2">  1       -2 0.10735183E+00 0.25555955E+04</pdfrwt>
<totfact> 0.26616532E+00</totfact>
</mgrwt>
</event>
<event>
11    1  0.2851647E-017  0.1248362E+04  0.7818608E-02  0.9266562E-01
         -1   -1    0    0    0  501 -0.00000000000E+00  0.00000000000E+00  0.22913634598E+04  0.22913634598E+04  0.00000000000E+00 0.  1.
          1   -1    0    0  501    0  0.00000000000E+00 -0.00000000000E+00 -0.39598005865E+03  0.39598005865E+03  0.00000000000E+00 0. -1.
    9900016    2    1    2    0    0 -0.16850481137E+03  0.96703736263E+02  0.63275220792E+03  0.10147951458E+04  0.76921281013E+03 0.  0.
         23    2    3    3    0    0 -0.24332614115E+03  0.16866945165E+03  0.59888537674E+03  0.67624337693E+03  0.10480656218E+03 0.  0.
        -15    1    4    4    0    0 -0.49429707900E+02  0.78576965209E+02  0.25433337859E+03  0.27074545786E+03  0.00000000000E+00 0. -1.
        -15    1    1    2    0    0  0.40431071382E+03  0.33712649395E+03  0.92903570627E+03  0.10678149511E+04  0.00000000000E+00 0.  1.
         15    1    1    2    0    0 -0.40538703835E+02 -0.23723782959E+02  0.12898730163E+02  0.48709153415E+02  0.00000000000E+00 0. -1.
         15    1    4    4    0    0 -0.19389643325E+03  0.90092486440E+02  0.34455199815E+03  0.40549791907E+03  0.00000000000E+00 0.  1.
        -16    1    3    3    0    0  0.10368272057E+03 -0.29255016131E+02 -0.11431869020E+03  0.15708190679E+03  0.00000000000E+00 0.  1.
         16    1    1    2    0    0 -0.19526719862E+03 -0.41010644726E+03  0.32069675677E+03  0.55602426813E+03  0.00000000000E+00 0. -1.
    9900018    1    3    3    0    0 -0.28861390780E+02 -0.42710699255E+02  0.14818552137E+03  0.18146986209E+03  0.91187600000E+02 0.  0.
<mgrwt>
<rscale>  0 0.10392035E+04</rscale>
<asrwt>0</asrwt>
<pdfrwt beam="1">  1        1 0.60920010E-01 0.12483624E+04</pdfrwt>
<pdfrwt beam="2">  1       -1 0.35251745E+00 0.12483624E+04</pdfrwt>
<totfact> 0.90114410E-01</totfact>
</mgrwt>
</event>
<event>
11    1  0.2851647E-017  0.2799355E+04  0.7818608E-02  0.8303469E-01
         -2   -1    0    0    0  501 -0.00000000000E+00  0.00000000000E+00  0.54866129974E+03  0.54866129974E+03  0.00000000000E+00 0. -1.
          2   -1    0    0  501    0  0.00000000000E+00 -0.00000000000E+00 -0.35706865655E+04  0.35706865655E+04  0.00000000000E+00 0.  1.
    9900016    2    1    2    0    0 -0.26529178502E+03  0.46246177369E+03 -0.10809666067E+04  0.13772271501E+04  0.66634465182E+03 0.  0.
         23    2    3    3    0    0  0.76046123116E+02  0.26676810063E+03 -0.72566436385E+02  0.29478616577E+03  0.68445332092E+02 0.  0.
        -15    1    1    2    0    0 -0.16017739844E+03  0.18005642804E+03 -0.26743392650E+03  0.35999725178E+03  0.00000000000E+00 0.  1.
        -15    1    4    4    0    0  0.30953945472E+02  0.91618571491E+02 -0.59298933916E+02  0.11343929190E+03  0.00000000000E+00 0.  1.
         15    1    1    2    0    0  0.45248013420E+03 -0.25334818488E+03  0.64839185206E+02  0.52261620197E+03  0.00000000000E+00 0. -1.
         15    1    4    4    0    0  0.45092177644E+02  0.17514952913E+03 -0.13267502469E+02  0.18134687387E+03  0.00000000000E+00 0. -1.
        -16    1    1    2    0    0  0.38506636241E+02 -0.47712051559E+03 -0.15557006489E+04  0.16276766437E+04  0.00000000000E+00 0.  1.
         16    1    3    3    0    0 -0.34133790814E+03  0.19569367306E+03 -0.10084001703E+04  0.10824409844E+04  0.00000000000E+00 0. -1.
    9900018    1    1    2    0    0 -0.65517586977E+02  0.87950498738E+02 -0.18276326890E+03  0.23183061766E+03  0.91187600000E+02 0.  0.
<mgrwt>
<rscale>  0 0.27993553E+04</rscale>
<asrwt>0</asrwt>
<pdfrwt beam="1">  1        2 0.54933638E+00 0.27993553E+04</pdfrwt>
<pdfrwt beam="2">  1       -2 0.84409433E-01 0.27993553E+04</pdfrwt>
<totfact> 0.77185392E-01</totfact>
</mgrwt>
</event>
<event>
11    1  0.2851647E-017  0.1838693E+04  0.7818608E-02  0.8706506E-01
          3   -1    0    0  501    0  0.00000000000E+00  0.00000000000E+00  0.35754244143E+04  0.35754244143E+04  0.00000000000E+00 0. -1.
         -3   -1    0    0    0  501 -0.00000000000E+00 -0.00000000000E+00 -0.10101934232E+04  0.10101934232E+04  0.00000000000E+00 0.  1.
    9900016    2    1    2    0    0 -0.82754220866E+03 -0.16636498846E+03  0.27496314728E+03  0.11025492667E+04  0.65383999322E+03 0.  0.
         23    2    3    3    0    0 -0.25927364970E+03 -0.89344316085E+02 -0.20827487657E+03  0.35262905314E+03  0.75918328919E+02 0.  0.
        -15    1    4    4    0    0 -0.16418297066E+03 -0.94060447657E+02 -0.13360031039E+03  0.23163000368E+03  0.00000000000E+00 0. -1.
        -15    1    1    2    0    0  0.10683499420E+04 -0.36495293551E+03  0.79263890845E+03  0.13794341894E+04  0.00000000000E+00 0.  1.
         15    1    4    4    0    0 -0.95090679041E+02  0.47161315717E+01 -0.74674566178E+02  0.12099904946E+03  0.00000000000E+00 0.  1.
         15    1    1    2    0    0  0.44948653602E+02  0.57930424477E+03  0.12810584657E+03  0.59499991378E+03  0.00000000000E+00 0. -1.
        -16    1    3    3    0    0 -0.56826855897E+03 -0.77020672371E+02  0.48323802385E+03  0.74992021361E+03  0.00000000000E+00 0.  1.
         16    1    1    2    0    0 -0.12605741920E+03 -0.88445243954E+02  0.12981699169E+04  0.13072712677E+04  0.00000000000E+00 0. -1.
    9900018    1    1    2    0    0 -0.15969896769E+03  0.40458923146E+02  0.71353171813E+02  0.20136319988E+03  0.91187600000E+02 0.  0.
<mgrwt>
<rscale>  0 0.17996108E+04</rscale>
<asrwt>0</asrwt>
<pdfrwt beam="1">  1        3 0.55006529E+00 0.18386930E+04</pdfrwt>
<pdfrwt beam="2">  1       -3 0.15541437E+00 0.18386930E+04</pdfrwt>
<totfact> 0.13431387E-03</totfact>
</mgrwt>
</event>
<event>
11    1  0.2851647E-017  0.1644709E+04  0.7818608E-02  0.8813944E-01
         -2   -1    0    0    0  501 -0.00000000000E+00  0.00000000000E+00  0.76684427586E+03  0.76684427586E+03  0.00000000000E+00 0.  1.
          2   -1    0    0  501    0  0.00000000000E+00 -0.00000000000E+00 -0.32551115166E+04  0.32551115166E+04  0.00000000000E+00 0. -1.
    9900016    2    1    2    0    0  0.11581677045E+02 -0.88160571135E+01 -0.35571884756E+03  0.75741621411E+03  0.66852940458E+03 0.  0.
         23    2    3    3    0    0 -0.29633662416E+02  0.29321307338E+03 -0.33612073589E+03  0.45195854789E+03  0.66613208626E+02 0.  0.
        -15    1    4    4    0    0 -0.48102100612E+02  0.18893216737E+03 -0.23722838544E+03  0.30706104085E+03  0.00000000000E+00 0. -1.
        -15    1    1    2    0    0  0.10014554685E+04 -0.96898890287E+02 -0.39854133562E+03  0.10821911321E+04  0.00000000000E+00 0.  1.
         15    1    4    4    0    0  0.18468438196E+02  0.10428090601E+03 -0.98892350456E+02  0.14489750704E+03  0.00000000000E+00 0.  1.
         15    1    1    2    0    0 -0.85052310406E+03  0.73531835591E+02 -0.79665156595E+03  0.11676687026E+04  0.00000000000E+00 0. -1.
        -16    1    3    3    0    0  0.41215339461E+02 -0.30202913049E+03 -0.19598111663E+02  0.30545766622E+03  0.00000000000E+00 0.  1.
         16    1    1    2    0    0 -0.19620791427E+03  0.64962754716E+02 -0.86446865317E+03  0.88883280624E+03  0.00000000000E+00 0. -1.
    9900018    1    1    2    0    0  0.33693872827E+02 -0.32779642907E+02 -0.72886838490E+02  0.12584693748E+03  0.91187600000E+02 0.  0.
<mgrwt>
<rscale>  0 0.16107940E+04</rscale>
<asrwt>0</asrwt>
<pdfrwt beam="1">  1        2 0.50078638E+00 0.16447085E+04</pdfrwt>
<pdfrwt beam="2">  1       -2 0.11797604E+00 0.16447085E+04</pdfrwt>
<totfact> 0.62158028E-01</totfact>
</mgrwt>
</event>
<event>
11    1  0.2851647E-017  0.1297443E+04  0.7818608E-02  0.9394952E-01
          2   -1    0    0  501    0  0.00000000000E+00  0.00000000000E+00  0.14007905895E+04  0.14007905895E+04  0.00000000000E+00 0.  1.
         -2   -1    0    0    0  501 -0.00000000000E+00 -0.00000000000E+00 -0.58259581277E+03  0.58259581277E+03  0.00000000000E+00 0. -1.
    9900016    2    1    2    0    0  0.21352200300E+03  0.21789908752E+03  0.49989350972E+03  0.88296902977E+03  0.66080944937E+03 0.  0.
         23    2    3    3    0    0 -0.11361622636E+03  0.12398842212E+02  0.47678931947E+03  0.49595019879E+03  0.74673732605E+02 0.  0.
        -15    1    1    2    0    0 -0.95916825252E+02 -0.13939313362E+03  0.47890805732E+03  0.50792067337E+03  0.00000000000E+00 0. -1.
        -15    1    4    4    0    0 -0.96028295827E+02  0.24807080919E+02  0.45357721821E+03  0.46429421463E+03  0.00000000000E+00 0.  1.
         15    1    4    4    0    0 -0.17587930530E+02 -0.12408238708E+02  0.23212101263E+02  0.31655984162E+02  0.00000000000E+00 0.  1.
         15    1    1    2    0    0 -0.99221095167E+02  0.74154670755E+02  0.92897959071E+02  0.15483465930E+03  0.00000000000E+00 0. -1.
        -16    1    3    3    0    0  0.32713822936E+03  0.20550024530E+03  0.23104190251E+02  0.38701883098E+03  0.00000000000E+00 0.  1.
         16    1    1    2    0    0 -0.11780582624E+02 -0.17535306227E+03 -0.28796247129E+03  0.33735717488E+03  0.00000000000E+00 0. -1.
    9900018    1    1    2    0    0 -0.66034999569E+01  0.22692437611E+02  0.34457721875E+02  0.10030486492E+03  0.91187600000E+02 0.  0.
<mgrwt>
<rscale>  0 0.92492239E+03</rscale>
<asrwt>0</asrwt>
<pdfrwt beam="1">  1        2 0.21550624E+00 0.12974433E+04</pdfrwt>
<pdfrwt beam="2">  1       -2 0.89630125E-01 0.12974433E+04</pdfrwt>
<totfact> 0.14995724E+01</totfact>
</mgrwt>
</event>
<event>
11    1  0.2851647E-017  0.1337474E+04  0.7818608E-02  0.9162766E-01
          1   -1    0    0  501    0  0.00000000000E+00  0.00000000000E+00  0.82598936624E+03  0.82598936624E+03  0.00000000000E+00 0. -1.
         -1   -1    0    0    0  501 -0.00000000000E+00 -0.00000000000E+00 -0.13340925595E+04  0.13340925595E+04  0.00000000000E+00 0.  1.
    9900016    2    1    2    0    0 -0.85930440048E+02  0.13686779471E+02 -0.34502852514E+03  0.83199520046E+03  0.75206380179E+03 0.  0.
         23    2    3    3    0    0  0.14327418941E+03 -0.17905795553E+03  0.90742107131E+02  0.25354411589E+03  0.58832337289E+02 0.  0.
        -15    1    1    2    0    0  0.38875830090E+03 -0.46770353486E+03 -0.33915199030E+03  0.69635026069E+03  0.00000000000E+00 0.  1.
        -15    1    4    4    0    0  0.51947446056E+02 -0.65004691490E+02  0.64065430423E+02  0.10501679124E+03  0.00000000000E+00 0. -1.
         15    1    4    4    0    0  0.91326743351E+02 -0.11405326404E+03  0.26676676708E+02  0.14852732465E+03  0.00000000000E+00 0.  1.
         15    1    1    2    0    0 -0.20387080377E+03  0.40816284956E+03  0.22902113329E+03  0.51050063260E+03  0.00000000000E+00 0. -1.
        -16    1    3    3    0    0 -0.21793286565E+03  0.16841694367E+03 -0.37631652721E+03  0.46634014356E+03  0.00000000000E+00 0.  1.
         16    1    1    2    0    0 -0.98957057080E+02  0.45853905835E+02 -0.52943811135E+02  0.12123583201E+03  0.00000000000E+00 0. -1.
    9900018    1    3    3    0    0 -0.11271763803E+02  0.24327791326E+02 -0.59454105056E+02  0.11211094100E+03  0.91187600000E+02 0.  0.
<mgrwt>
<rscale>  0 0.11446143E+04</rscale>
<asrwt>0</asrwt>
<pdfrwt beam="1">  1        1 0.12707529E+00 0.13374742E+04</pdfrwt>
<pdfrwt beam="2">  1       -1 0.20524501E+00 0.13374742E+04</pdfrwt>
<totfact> 0.28200986E+00</totfact>
</mgrwt>
</event>
<event>
10    1  0.2851647E-017  0.4108873E+04  0.7818608E-02  0.7982936E-01
         -1   -1    0    0    0  501 -0.00000000000E+00  0.00000000000E+00  0.20783797179E+04  0.20783797179E+04  0.00000000000E+00 0.  1.
          1   -1    0    0  501    0  0.00000000000E+00 -0.00000000000E+00 -0.20307693170E+04  0.20307693170E+04  0.00000000000E+00 0. -1.
    9900016    2    1    2    0    0 -0.38496511053E+03 -0.80916165123E+02 -0.42441820019E+03  0.95017104344E+03  0.75362367336E+03 0.  0.
        -15    1    1    2    0    0  0.61145718734E+03 -0.13575120494E+02  0.88527418279E+03  0.10759993283E+04  0.00000000000E+00 0.  1.
        -15    1    3    3    0    0 -0.22252535776E+03 -0.13214031799E+03  0.93550385847E+02  0.27519133921E+03  0.00000000000E+00 0. -1.
         15    1    1    2    0    0 -0.64878665451E+03  0.57647338719E+03 -0.92091822498E+03  0.12654390804E+04  0.00000000000E+00 0. -1.
         15    1    3    3    0    0 -0.49436351905E+02 -0.93536200589E+02 -0.78913768416E+02  0.13198619835E+03  0.00000000000E+00 0.  1.
        -16    1    1    2    0    0  0.42229457770E+03 -0.48198210158E+03  0.50767264322E+03  0.81753958270E+03  0.00000000000E+00 0.  1.
         16    1    3    3    0    0 -0.68251609499E+02  0.15792495189E+03 -0.39624168257E+03  0.43197921667E+03  0.00000000000E+00 0. -1.
    9900018    1    3    3    0    0 -0.44751791366E+02 -0.13164598434E+02 -0.42813135047E+02  0.11101428921E+03  0.91187600000E+02 0.  0.
<mgrwt>
<rscale>  0 0.41088732E+04</rscale>
<asrwt>0</asrwt>
<pdfrwt beam="1">  1        1 0.31242605E+00 0.41088732E+04</pdfrwt>
<pdfrwt beam="2">  1       -1 0.31975073E+00 0.41088732E+04</pdfrwt>
<totfact> 0.54119068E-02</totfact>
</mgrwt>
</event>
<event>
10    1  0.2851647E-017  0.3427540E+04  0.7818608E-02  0.8131180E-01
         -1   -1    0    0    0  501 -0.00000000000E+00  0.00000000000E+00  0.14272143247E+04  0.14272143247E+04  0.00000000000E+00 0.  1.
          1   -1    0    0  501    0  0.00000000000E+00 -0.00000000000E+00 -0.20578605742E+04  0.20578605742E+04  0.00000000000E+00 0. -1.
    9900016    2    1    2    0    0 -0.40697607218E+02 -0.32424640987E+03 -0.77327144165E+02  0.82762611197E+03  0.75643470601E+03 0.  0.
        -15    1    1    2    0    0 -0.72682000049E+03 -0.46155255013E+03  0.34016447258E+03  0.92574831247E+03  0.00000000000E+00 0.  1.
        -15    1    3    3    0    0  0.45544352757E+02 -0.39097043744E+02  0.92386120445E+02  0.11017287392E+03  0.00000000000E+00 0. -1.
         15    1    3    3    0    0  0.10174796409E+03 -0.97384734294E+01  0.16930212286E+03  0.19776424062E+03  0.00000000000E+00 0.  1.
         15    1    1    2    0    0  0.28374847253E+03  0.82042445004E+03 -0.20918636100E+03  0.89295487429E+03  0.00000000000E+00 0. -1.
        -16    1    3    3    0    0 -0.15130553652E+03 -0.22524962469E+03 -0.29518011950E+03  0.40095144562E+03  0.00000000000E+00 0.  1.
         16    1    1    2    0    0  0.48376913517E+03 -0.34625490049E+02 -0.68429721695E+03  0.83874560018E+03  0.00000000000E+00 0. -1.
    9900018    1    3    3    0    0 -0.36684387549E+02 -0.50161268009E+02 -0.43835267970E+02  0.11873755181E+03  0.91187600000E+02 0.  0.
<mgrwt>
<rscale>  0 0.34275403E+04</rscale>
<asrwt>0</asrwt>
<pdfrwt beam="1">  1        1 0.31659393E+00 0.34275403E+04</pdfrwt>
<pdfrwt beam="2">  1       -1 0.21957143E+00 0.34275403E+04</pdfrwt>
<totfact> 0.24754544E-01</totfact>
</mgrwt>
</event>
<event>
11    1  0.2851647E-017  0.4125440E+04  0.7818608E-02  0.7979709E-01
          2   -1    0    0  501    0  0.00000000000E+00  0.00000000000E+00  0.17826163836E+04  0.17826163836E+04  0.00000000000E+00 0. -1.
         -2   -1    0    0    0  501 -0.00000000000E+00 -0.00000000000E+00 -0.23868362013E+04  0.23868362013E+04  0.00000000000E+00 0.  1.
    9900016    2    1    2    0    0  0.41275295800E+03  0.64378581130E+02  0.19360187770E+03  0.80206972510E+03  0.65675303640E+03 0.  0.
         23    2    3    3    0    0  0.20129441906E+03 -0.16105077398E+03  0.35556951195E+03  0.45311898017E+03  0.11149142308E+03 0.  0.
        -15    1    4    4    0    0  0.74268035685E+02 -0.11274182783E+03  0.23703756557E+03  0.27278795493E+03  0.00000000000E+00 0.  1.
        -15    1    1    2    0    0 -0.99118692893E+02 -0.79641701169E+03 -0.11113438340E+04  0.13708353983E+04  0.00000000000E+00 0.  1.
         15    1    4    4    0    0  0.12702638337E+03 -0.48308946157E+02  0.11853194638E+03  0.18033102524E+03  0.00000000000E+00 0. -1.
         15    1    1    2    0    0 -0.77186804478E+03  0.58644119461E+03  0.75366513258E+03  0.12278862673E+04  0.00000000000E+00 0. -1.
        -16    1    1    2    0    0  0.33703460592E+03  0.17460676148E+03 -0.47730025177E+03  0.60983225323E+03  0.00000000000E+00 0.  1.
         16    1    3    3    0    0  0.21145853894E+03  0.22542935511E+03 -0.16196763425E+03  0.34895074492E+03  0.00000000000E+00 0. -1.
    9900018    1    1    2    0    0  0.12119917376E+03 -0.29009525535E+02  0.37157257845E+02  0.15882894099E+03  0.91187600000E+02 0.  0.
<mgrwt>
<rscale>  0 0.41254398E+04</rscale>
<asrwt>0</asrwt>
<pdfrwt beam="1">  1        2 0.27424867E+00 0.41254398E+04</pdfrwt>
<pdfrwt beam="2">  1       -2 0.36720557E+00 0.41254398E+04</pdfrwt>
<totfact> 0.83331870E-02</totfact>
</mgrwt>
</event>
<event>
11    1  0.2851647E-017  0.3267221E+04  0.7818608E-02  0.8171286E-01
         -1   -1    0    0    0  501 -0.00000000000E+00  0.00000000000E+00  0.13872736045E+04  0.13872736045E+04  0.00000000000E+00 0.  1.
          1   -1    0    0  501    0  0.00000000000E+00 -0.00000000000E+00 -0.19236895983E+04  0.19236895983E+04  0.00000000000E+00 0. -1.
    9900016    2    1    2    0    0 -0.50614476869E+03 -0.12926579182E+03 -0.56054145714E+03  0.10200607456E+04  0.67336841901E+03 0.  0.
         23    2    3    3    0    0 -0.34967783901E+03  0.23753913743E+03 -0.19078148495E+03  0.47623155069E+03  0.10816414361E+03 0.  0.
        -15    1    4    4    0    0 -0.34398378236E+03  0.20582769788E+03 -0.19093791242E+03  0.44401257881E+03  0.00000000000E+00 0. -1.
        -15    1    1    2    0    0  0.22804998246E+03  0.97026140464E+03  0.11087350976E+03  0.10028494020E+04  0.00000000000E+00 0.  1.
         15    1    1    2    0    0  0.28337862949E+03 -0.14854769016E+03  0.28562267319E+03  0.42889413070E+03  0.00000000000E+00 0. -1.
         15    1    4    4    0    0 -0.56940566541E+01  0.31711439548E+02  0.15642746653E+00  0.32218971879E+02  0.00000000000E+00 0.  1.
        -16    1    3    3    0    0 -0.15646692968E+03 -0.36680492925E+03 -0.36975997219E+03  0.54382919491E+03  0.00000000000E+00 0.  1.
         16    1    1    2    0    0  0.61090975505E+02 -0.65045755054E+03 -0.32651748228E+03  0.73037031605E+03  0.00000000000E+00 0. -1.
    9900018    1    1    2    0    0 -0.66374818764E+02 -0.41990372124E+02 -0.45853237380E+02  0.12878860854E+03  0.91187600000E+02 0.  0.
<mgrwt>
<rscale>  0 0.32672213E+04</rscale>
<asrwt>0</asrwt>
<pdfrwt beam="1">  1        1 0.29595225E+00 0.32672213E+04</pdfrwt>
<pdfrwt beam="2">  1       -1 0.21342671E+00 0.32672213E+04</pdfrwt>
<totfact> 0.34039065E-01</totfact>
</mgrwt>
</event>
<event>
10    1  0.2851647E-017  0.1746472E+04  0.7818608E-02  0.9276695E-01
         -2   -1    0    0    0  501 -0.00000000000E+00  0.00000000000E+00  0.10687559877E+04  0.10687559877E+04  0.00000000000E+00 0.  1.
          2   -1    0    0  501    0  0.00000000000E+00 -0.00000000000E+00 -0.95479663841E+03  0.95479663841E+03  0.00000000000E+00 0. -1.
    9900016    2    1    2    0    0 -0.67698682476E+02  0.51513466930E+02  0.55379800543E+03  0.87626692700E+03  0.67373195534E+03 0.  0.
        -15    1    3    3    0    0  0.13625546948E+03  0.39717294729E+01  0.49337696163E+02  0.14496736136E+03  0.00000000000E+00 0. -1.
        -15    1    1    2    0    0 -0.10721359425E+02 -0.11297275912E+03  0.46182840246E+02  0.12251794393E+03  0.00000000000E+00 0.  1.
         15    1    3    3    0    0  0.30165817482E+02  0.22715431202E+03  0.17030072399E+03  0.28550200456E+03  0.00000000000E+00 0.  1.
         15    1    1    2    0    0  0.92798614512E+02  0.14111672643E+03 -0.71683066303E+03  0.73645890095E+03  0.00000000000E+00 0. -1.
        -16    1    3    3    0    0 -0.23411996944E+03 -0.17961257456E+03  0.33415958528E+03  0.44579756108E+03  0.00000000000E+00 0.  1.
         16    1    1    2    0    0 -0.66852473784E+01 -0.78387959860E+02  0.13168278198E+03  0.15339400201E+03  0.00000000000E+00 0. -1.
    9900018    1    1    2    0    0 -0.76933252320E+01 -0.12694743750E+01  0.99126384675E+02  0.13491485222E+03  0.91187600000E+02 0.  0.
<mgrwt>
<rscale>  0 0.10295692E+04</rscale>
<asrwt>0</asrwt>
<pdfrwt beam="1">  1        2 0.14689179E+00 0.17464719E+04</pdfrwt>
<pdfrwt beam="2">  1       -2 0.16442400E+00 0.17464719E+04</pdfrwt>
<totfact> 0.59229922E+00</totfact>
</mgrwt>
</event>
