<event>
12    1  0.1056090E-022  0.1236908E+04  0.7818608E-02  0.9081150E-01
          1   -1    0    0  501    0  0.00000000000E+00  0.00000000000E+00  0.85154643702E+03  0.85154643702E+03  0.00000000000E+00 0. -1.
         -1   -1    0    0    0  501 -0.00000000000E+00 -0.00000000000E+00 -0.44916583482E+03  0.44916583482E+03  0.00000000000E+00 0.  1.
    9900016    2    1    2    0    0 -0.28221629430E+03 -0.49907028878E+02  0.12761006310E+03  0.77663485103E+03  0.71045099432E+03 0.  0.
         24    2    3    3    0    0  0.61803114170E+02 -0.16645761965E+03  0.31170031325E+03  0.36942162210E+03  0.88246731044E+02 0.  0.
         23    2    4    4    0    0  0.61313279594E+02 -0.15371668584E+03  0.29456167630E+03  0.34754823176E+03  0.81455843861E+02 0.  0.
        -15    1    4    4    0    0  0.81954397955E+00 -0.13083397606E+02  0.16406928369E+02  0.21000815312E+02  0.00000000000E+00 0.  1.
        -15    1    5    5    0    0 -0.14173357665E+02 -0.32367487642E+01  0.37966961255E+02  0.40655267273E+02  0.00000000000E+00 0. -1.
         15    1    5    5    0    0  0.75486637259E+02 -0.15047993707E+03  0.25659471504E+03  0.30689296449E+03  0.00000000000E+00 0.  1.
         15    1    3    3    0    0 -0.34401940847E+03  0.11655059077E+03 -0.18409025014E+03  0.40721322893E+03  0.00000000000E+00 0. -1.
        -16    1    4    4    0    0 -0.32970940404E+00  0.34246379043E+00  0.73170858083E+00  0.87257503180E+00  0.00000000000E+00 0.  1.
         16    1    1    2    0    0  0.20428103070E+03  0.14014881105E+03  0.28002042496E+03  0.37387680743E+03  0.00000000000E+00 0. -1.
    9900018    1    1    2    0    0  0.77935263598E+02 -0.90241782169E+02 -0.52498858621E+01  0.15020061337E+03  0.91187600000E+02 0.  0.
<mgrwt>
<rscale>  0 0.12369083E+04</rscale>
<asrwt>0</asrwt>
<pdfrwt beam="1">  1        1 0.13100714E+00 0.12369083E+04</pdfrwt>
<pdfrwt beam="2">  1       -1 0.69102436E-01 0.12369083E+04</pdfrwt>
<totfact> 0.41769660E+01</totfact>
</mgrwt>
</event>
<event>
12    1  0.1056090E-022  0.1303537E+04  0.7818608E-02  0.9026765E-01
         -2   -1    0    0    0  501 -0.00000000000E+00  0.00000000000E+00  0.29576574174E+03  0.29576574174E+03  0.00000000000E+00 0.  1.
          2   -1    0    0  501    0  0.00000000000E+00 -0.00000000000E+00 -0.14362788729E+04  0.14362788729E+04  0.00000000000E+00 0. -1.
    9900016    2    1    2    0    0 -0.39302094473E+03  0.12137498022E+03 -0.90281562744E+03  0.12250643930E+04  0.71868585694E+03 0.  0.
         24    2    3    3    0    0  0.49436432749E+02 -0.13105489305E+03 -0.62094509404E+03  0.64287853829E+03  0.90003662701E+02 0.  0.
         23    2    4    4    0    0  0.47455717498E+02 -0.11309611323E+03 -0.57205745482E+03  0.59033854181E+03  0.78785064432E+02 0.  0.
        -15    1    4    4    0    0  0.30629118684E+01 -0.17835118620E+02 -0.44990049714E+02  0.48493066088E+02  0.00000000000E+00 0. -1.
        -15    1    5    5    0    0  0.52337327865E+02 -0.12317848679E+03 -0.54144724074E+03  0.55774299637E+03  0.00000000000E+00 0.  1.
         15    1    5    5    0    0 -0.48816103669E+01  0.10082373558E+02 -0.30610214087E+02  0.32595545444E+02  0.00000000000E+00 0.  1.
         15    1    3    3    0    0 -0.44245737748E+03  0.25242987327E+03 -0.28187053340E+03  0.58218585469E+03  0.00000000000E+00 0. -1.
        -16    1    4    4    0    0 -0.10821966173E+01 -0.12366119312E+00 -0.38975895042E+01  0.40469303864E+01  0.00000000000E+00 0.  1.
         16    1    1    2    0    0  0.28602357842E+03 -0.56559064224E+02 -0.17435005813E+03  0.33971511289E+03  0.00000000000E+00 0. -1.
    9900018    1    1    2    0    0  0.10699736631E+03 -0.64815915999E+02 -0.63347445643E+02  0.16726510881E+03  0.91187600000E+02 0.  0.
<mgrwt>
<rscale>  0 0.13035369E+04</rscale>
<asrwt>0</asrwt>
<pdfrwt beam="1">  1        2 0.22096598E+00 0.13035369E+04</pdfrwt>
<pdfrwt beam="2">  1       -2 0.45502422E-01 0.13035369E+04</pdfrwt>
<totfact> 0.61896855E+01</totfact>
</mgrwt>
</event>
<event>
12    1  0.1056090E-022  0.3090769E+04  0.7818608E-02  0.8218276E-01
         -2   -1    0    0    0  501 -0.00000000000E+00  0.00000000000E+00  0.91932590439E+03  0.91932590439E+03  0.00000000000E+00 0.  1.
          2   -1    0    0  501    0  0.00000000000E+00 -0.00000000000E+00 -0.25977873229E+04  0.25977873229E+04  0.00000000000E+00 0. -1.
    9900016    2    1    2    0    0  0.11861733836E+03  0.22792729493E+03  0.38303982929E+03  0.85020962181E+03  0.71422403030E+03 0.  0.
         24    2    3    3    0    0 -0.65184224312E+02 -0.66028116686E+02 -0.16011130186E+03  0.20584485731E+03  0.90154206802E+02 0.  0.
         23    2    4    4    0    0 -0.59818393474E+02 -0.58356785069E+02 -0.14920906291E+03  0.18873326010E+03  0.79831976378E+02 0.  0.
        -15    1    4    4    0    0 -0.61569236196E+01 -0.87846546975E+01 -0.11403980933E+02  0.15656584804E+02  0.00000000000E+00 0.  1.
        -15    1    5    5    0    0 -0.79468326938E+02 -0.42303175421E+02 -0.12053782580E+03  0.15044647250E+03  0.00000000000E+00 0.  1.
         15    1    3    3    0    0  0.18380156268E+03  0.29395541162E+03  0.54315113115E+03  0.64436476450E+03  0.00000000000E+00 0. -1.
         15    1    5    5    0    0  0.19649933464E+02 -0.16053609648E+02 -0.28671237107E+02  0.38286787605E+02  0.00000000000E+00 0. -1.
        -16    1    4    4    0    0  0.79109278174E+00  0.11133230805E+01  0.50174198314E+00  0.14550124015E+01  0.00000000000E+00 0.  1.
         16    1    1    2    0    0  0.90708392484E+02 -0.49292749617E+03 -0.22250217794E+04  0.22807734320E+04  0.00000000000E+00 0. -1.
    9900018    1    1    2    0    0 -0.20932573085E+03  0.26500020123E+03  0.16352053163E+03  0.38613017353E+03  0.91187600000E+02 0.  0.
<mgrwt>
<rscale>  0 0.30907690E+04</rscale>
<asrwt>0</asrwt>
<pdfrwt beam="1">  1        2 0.39965959E+00 0.30907690E+04</pdfrwt>
<pdfrwt beam="2">  1       -2 0.14143475E+00 0.30907690E+04</pdfrwt>
<totfact> 0.90679903E-01</totfact>
</mgrwt>
</event>
