<event>
12    1  0.2011601E-010  0.5217504E+04  0.7818608E-02  0.7795804E-01
         -2   -1    0    0    0  501 -0.00000000000E+00  0.00000000000E+00  0.19264622227E+04  0.19264622227E+04  0.00000000000E+00 0.  1.
          2   -1    0    0  501    0  0.00000000000E+00 -0.00000000000E+00 -0.35326863949E+04  0.35326863949E+04  0.00000000000E+00 0. -1.
    9900016    2    1    2    0    0 -0.25814238556E+03 -0.45812943949E+03  0.97152187963E+03  0.20583416108E+04  0.17367772884E+04 0.  0.
         24    2    3    3    0    0  0.24352488477E+02 -0.93885155868E+03  0.11368983571E+04  0.14767519883E+04  0.78887690480E+02 0.  0.
    9900016    2    1    2    0    0  0.10194092703E+03  0.55928323300E+03 -0.19683901251E+04  0.27571760493E+04  0.18450665015E+04 0.  0.
        -15    1    5    5    0    0 -0.19123906256E+03 -0.47033730473E+03 -0.98608385936E+03  0.11091216962E+04  0.00000000000E+00 0. -1.
        -15    1    4    4    0    0  0.38191385394E+02 -0.27571331609E+03  0.36503915356E+03  0.45905337187E+03  0.00000000000E+00 0.  1.
         15    1    3    3    0    0 -0.28249487403E+03  0.48072211918E+03 -0.16537647742E+03  0.58158962251E+03  0.00000000000E+00 0. -1.
         15    1    5    5    0    0 -0.98673102189E+02 -0.69926594916E+02 -0.22849797639E+03  0.25852936968E+03  0.00000000000E+00 0.  1.
        -16    1    5    5    0    0  0.39185309177E+03  0.10995471326E+04 -0.75380828936E+03  0.13895249834E+04  0.00000000000E+00 0.  1.
         16    1    4    4    0    0 -0.13838896917E+02 -0.66313824258E+03  0.77185920349E+03  0.10176986164E+04  0.00000000000E+00 0. -1.
    9900018    1    1    2    0    0  0.15620145853E+03 -0.10115379351E+03 -0.60935592671E+03  0.64363095746E+03  0.91187600000E+02 0.  0.
<mgrwt>
<rscale>  0 0.52175040E+04</rscale>
<asrwt>0</asrwt>
<pdfrwt beam="1">  1        2 0.54349021E+00 0.52175040E+04</pdfrwt>
<pdfrwt beam="2">  1       -2 0.29637881E+00 0.52175040E+04</pdfrwt>
<totfact> 0.18415004E-02</totfact>
</mgrwt>
</event>
<event>
13    1  0.2011601E-010  0.6285305E+04  0.7818608E-02  0.7656000E-01
         -2   -1    0    0    0  501 -0.00000000000E+00  0.00000000000E+00  0.26553234406E+04  0.26553234406E+04  0.00000000000E+00 0.  1.
          2   -1    0    0  501    0  0.00000000000E+00 -0.00000000000E+00 -0.37194209915E+04  0.37194209915E+04  0.00000000000E+00 0. -1.
    9900016    2    1    2    0    0 -0.77982078030E+03 -0.88338703646E+03 -0.27041551732E+04  0.34386165975E+04  0.17672395983E+04 0.  0.
         24    2    3    3    0    0 -0.30368064377E+03 -0.78673578903E+03 -0.17655707416E+03  0.86474732265E+03  0.73759043229E+02 0.  0.
    9900016    2    1    2    0    0  0.41499492293E+03  0.72850227763E+03  0.13101799822E+04  0.24124660826E+04  0.18440403084E+04 0.  0.
         23    2    5    5    0    0  0.64162944070E+02 -0.51143169268E+02 -0.44050275537E+03  0.46417961802E+03  0.12119213316E+03 0.  0.
        -15    1    4    4    0    0 -0.29118322528E+03 -0.71087649956E+03 -0.17483909586E+03  0.78784629069E+03  0.00000000000E+00 0.  1.
        -15    1    6    6    0    0  0.97480256812E+00 -0.77440345661E+02 -0.25226118481E+03  0.26388191059E+03  0.00000000000E+00 0. -1.
         15    1    3    3    0    0 -0.47614013654E+03 -0.96651247432E+02 -0.25275980991E+04  0.25738692748E+04  0.00000000000E+00 0. -1.
         15    1    6    6    0    0  0.63188141502E+02  0.26297176393E+02 -0.18824157056E+03  0.20029770743E+03  0.00000000000E+00 0.  1.
        -16    1    5    5    0    0  0.35083197886E+03  0.77964544690E+03  0.17506827376E+04  0.19482864645E+04  0.00000000000E+00 0.  1.
         16    1    4    4    0    0 -0.12497418487E+02 -0.75859289467E+02 -0.17179783062E+01  0.76901031961E+02  0.00000000000E+00 0. -1.
    9900018    1    1    2    0    0  0.36482585737E+03  0.15488475883E+03  0.32987764015E+03  0.52366175208E+03  0.91187600000E+02 0.  0.
<mgrwt>
<rscale>  0 0.62853053E+04</rscale>
<asrwt>0</asrwt>
<pdfrwt beam="1">  1        2 0.57221861E+00 0.62853053E+04</pdfrwt>
<pdfrwt beam="2">  1       -2 0.40851130E+00 0.62853053E+04</pdfrwt>
<totfact> 0.24232278E-03</totfact>
</mgrwt>
</event>
<event>
12    1  0.2011601E-010  0.4208799E+04  0.7818608E-02  0.7963701E-01
         -2   -1    0    0    0  501 -0.00000000000E+00  0.00000000000E+00  0.11277338412E+04  0.11277338412E+04  0.00000000000E+00 0.  1.
          2   -1    0    0  501    0  0.00000000000E+00 -0.00000000000E+00 -0.39268984722E+04  0.39268984722E+04  0.00000000000E+00 0. -1.
        -24    2    1    2    0    0  0.48243237897E+03 -0.21647955619E+03 -0.25276025432E+04  0.25835122680E+04  0.78464158708E+02 0.  0.
    9900016    2    1    2    0    0 -0.36778846622E+03 -0.22585139521E+03 -0.31909472880E+03  0.19214117802E+04  0.18449185821E+04 0.  0.
         23    2    4    4    0    0  0.15157714446E+03  0.23896344290E+03  0.65638557108E+03  0.72251425049E+03  0.10538342603E+03 0.  0.
        -15    1    5    5    0    0  0.11461834874E+03  0.18853699809E+03  0.38243570061E+03  0.44152081561E+03  0.00000000000E+00 0. -1.
        -15    1    1    2    0    0 -0.19042403759E+03  0.34328606178E+03  0.22566636618E+02  0.39321226761E+03  0.00000000000E+00 0.  1.
         15    1    3    3    0    0  0.18094050526E+03 -0.12213762007E+03 -0.98703128031E+03  0.10108846685E+04  0.00000000000E+00 0. -1.
         15    1    5    5    0    0  0.36958795720E+02  0.50426444809E+02  0.27394987047E+03  0.28099343489E+03  0.00000000000E+00 0.  1.
        -16    1    3    3    0    0  0.30149187371E+03 -0.94341936120E+02 -0.15405712629E+04  0.15726275995E+04  0.00000000000E+00 0.  1.
         16    1    4    4    0    0 -0.51936561068E+03 -0.46481483811E+03 -0.97548029988E+03  0.11988975297E+04  0.00000000000E+00 0. -1.
    9900018    1    1    2    0    0  0.75780124850E+02  0.99044889624E+02  0.24966004329E+02  0.15649599755E+03  0.91187600000E+02 0.  0.
<mgrwt>
<rscale>  0 0.42087985E+04</rscale>
<asrwt>0</asrwt>
<pdfrwt beam="1">  1        2 0.60413823E+00 0.42087985E+04</pdfrwt>
<pdfrwt beam="2">  1       -2 0.17349751E+00 0.42087985E+04</pdfrwt>
<totfact> 0.60922726E-02</totfact>
</mgrwt>
</event>
<event>
13    1  0.2011601E-010  0.4281349E+04  0.7818608E-02  0.7950076E-01
          1   -1    0    0  501    0  0.00000000000E+00  0.00000000000E+00  0.29844114853E+04  0.29844114853E+04  0.00000000000E+00 0. -1.
         -1   -1    0    0    0  501 -0.00000000000E+00 -0.00000000000E+00 -0.15354746187E+04  0.15354746187E+04  0.00000000000E+00 0.  1.
    9900016    2    1    2    0    0 -0.12581946097E+03  0.38617220774E+03  0.78496218069E+02  0.19608119948E+04  0.19166800755E+04 0.  0.
        -24    2    3    3    0    0  0.80490556584E+02 -0.42946937806E+03 -0.69038170460E+03  0.82107155078E+03  0.81295246253E+02 0.  0.
    9900016    2    1    2    0    0  0.24096289254E+03 -0.18753115177E+03  0.10109147830E+04  0.21228513389E+04  0.18415531652E+04 0.  0.
         23    2    5    5    0    0  0.43425149002E+02  0.42000830440E+02 -0.53409800992E+03  0.54844014067E+03  0.10897747645E+03 0.  0.
        -15    1    3    3    0    0 -0.20631001755E+03  0.81564158580E+03  0.76887792267E+03  0.11397404440E+04  0.00000000000E+00 0.  1.
        -15    1    6    6    0    0 -0.33987699393E+02  0.11650422245E+02 -0.95610429750E+02  0.10213838811E+03  0.00000000000E+00 0.  1.
         15    1    6    6    0    0  0.77412848395E+02  0.30350408195E+02 -0.43848758017E+03  0.44630175256E+03  0.00000000000E+00 0. -1.
         15    1    4    4    0    0  0.34450257553E+02 -0.33930977602E+03 -0.56455665832E+03  0.65957726219E+03  0.00000000000E+00 0. -1.
        -16    1    4    4    0    0  0.46040299032E+02 -0.90159602045E+02 -0.12582504628E+03  0.16149428859E+03  0.00000000000E+00 0.  1.
         16    1    5    5    0    0  0.19753774354E+03 -0.22953198221E+03  0.15450127929E+04  0.15744111983E+04  0.00000000000E+00 0. -1.
    9900018    1    1    2    0    0 -0.11514343157E+03 -0.19864105596E+03  0.35952586549E+03  0.43622277027E+03  0.91187600000E+02 0.  0.
<mgrwt>
<rscale>  0 0.42813494E+04</rscale>
<asrwt>0</asrwt>
<pdfrwt beam="1">  1        1 0.45914023E+00 0.42813494E+04</pdfrwt>
<pdfrwt beam="2">  1       -1 0.23622686E+00 0.42813494E+04</pdfrwt>
<totfact> 0.40278962E-02</totfact>
</mgrwt>
</event>
<event>
12    1  0.2011601E-010  0.5930746E+04  0.7818608E-02  0.7699048E-01
         -2   -1    0    0    0  501 -0.00000000000E+00  0.00000000000E+00  0.34387761063E+04  0.34387761063E+04  0.00000000000E+00 0.  1.
          2   -1    0    0  501    0  0.00000000000E+00 -0.00000000000E+00 -0.25571417875E+04  0.25571417875E+04  0.00000000000E+00 0. -1.
    9900016    2    1    2    0    0  0.39594035575E+03  0.17210936122E+04 -0.36847210632E+03  0.26594678694E+04  0.19539871208E+04 0.  0.
         24    2    3    3    0    0 -0.45268400353E+03  0.86846130519E+03  0.56790620234E+03  0.11350173156E+04  0.81234269098E+02 0.  0.
    9900016    2    1    2    0    0 -0.26506040648E+02 -0.70904501166E+03  0.56949203983E+03  0.20588447634E+04  0.18469090875E+04 0.  0.
        -15    1    5    5    0    0  0.77163594609E+02 -0.27667666703E+03 -0.45649269574E+03  0.53934198768E+03  0.00000000000E+00 0.  1.
        -15    1    4    4    0    0 -0.44379593940E+03  0.81215941932E+03  0.52921510127E+03  0.10661268131E+04  0.00000000000E+00 0.  1.
         15    1    5    5    0    0  0.36429625358E+02 -0.27964665812E+02 -0.20820632103E+03  0.21321119167E+03  0.00000000000E+00 0. -1.
         15    1    3    3    0    0  0.84862435928E+03  0.85263230698E+03 -0.93637830866E+03  0.15244505538E+04  0.00000000000E+00 0. -1.
        -16    1    5    5    0    0 -0.14009926062E+03 -0.40440367882E+03  0.12341910566E+04  0.13062915840E+04  0.00000000000E+00 0.  1.
         16    1    4    4    0    0 -0.88880641277E+01  0.56301885874E+02  0.38691101064E+02  0.68890502527E+02  0.00000000000E+00 0. -1.
    9900018    1    1    2    0    0 -0.36943431510E+03 -0.10120486005E+04  0.68061438529E+03  0.12776052610E+04  0.91187600000E+02 0.  0.
<mgrwt>
<rscale>  0 0.59307464E+04</rscale>
<asrwt>0</asrwt>
<pdfrwt beam="1">  1        2 0.39340643E+00 0.59307464E+04</pdfrwt>
<pdfrwt beam="2">  1       -2 0.52904248E+00 0.59307464E+04</pdfrwt>
<totfact> 0.24553332E-03</totfact>
</mgrwt>
</event>
