<event>
12    1  0.5974998E-009  0.2667849E+04  0.7818608E-02  0.8345513E-01
         -1   -1    0    0    0  501 -0.00000000000E+00  0.00000000000E+00  0.55974826013E+03  0.55974826013E+03  0.00000000000E+00 0.  1.
          1   -1    0    0  501    0  0.00000000000E+00 -0.00000000000E+00 -0.31788469248E+04  0.31788469248E+04  0.00000000000E+00 0. -1.
    9900016    2    1    2    0    0 -0.98061389546E+02  0.31419528115E+03 -0.25840855883E+04  0.34075957494E+04  0.21967875985E+04 0.  0.
         23    2    3    3    0    0  0.13602562558E+03 -0.57834905447E+02 -0.55867182319E+03  0.58558037852E+03  0.94563875654E+02 0.  0.
         24    2    3    3    0    0 -0.57515560954E+03  0.41191777938E+03 -0.22218317666E+03  0.74715678845E+03  0.91638803830E+02 0.  0.
        -15    1    5    5    0    0 -0.26955303147E+03  0.20777414094E+03 -0.15317910231E+03  0.37321946332E+03  0.00000000000E+00 0.  1.
        -15    1    4    4    0    0  0.98139898668E+02  0.54785510001E+01 -0.26083864077E+03  0.27874405958E+03  0.00000000000E+00 0.  1.
         15    1    3    3    0    0 -0.33073534706E+03 -0.84463528103E+02 -0.70817801490E+03  0.78615269392E+03  0.00000000000E+00 0. -1.
         15    1    4    4    0    0  0.37885726911E+02 -0.63313456447E+02 -0.29783318242E+03  0.30683631894E+03  0.00000000000E+00 0. -1.
        -16    1    1    2    0    0  0.98061389546E+02 -0.31419528115E+03 -0.35013076367E+02  0.33099943555E+03  0.00000000000E+00 0.  1.
         16    1    5    5    0    0 -0.30560257808E+03  0.20414363844E+03 -0.69004074345E+02  0.37393732512E+03  0.00000000000E+00 0. -1.
    9900018    1    3    3    0    0  0.67180394148E+03  0.44575935317E+02 -0.10950525736E+04  0.12887058885E+04  0.91187600000E+02 0.  0.
<mgrwt>
<rscale>  0 0.26678486E+04</rscale>
<asrwt>0</asrwt>
<pdfrwt beam="1">  1        1 0.48905338E+00 0.26678486E+04</pdfrwt>
<pdfrwt beam="2">  1       -1 0.86115116E-01 0.26678486E+04</pdfrwt>
<totfact> 0.51357856E-01</totfact>
</mgrwt>
</event>
<event>
11    1  0.5974998E-009  0.2672882E+04  0.7818608E-02  0.8343858E-01
         -2   -1    0    0    0  501 -0.00000000000E+00  0.00000000000E+00  0.12331119815E+04  0.12331119815E+04  0.00000000000E+00 0.  1.
          2   -1    0    0  501    0  0.00000000000E+00 -0.00000000000E+00 -0.14484281515E+04  0.14484281515E+04  0.00000000000E+00 0. -1.
    9900016    2    1    2    0    0  0.94350481216E+02  0.29295624518E+03 -0.47483554844E+03  0.22789538905E+04  0.22075861619E+04 0.  0.
         23    2    3    3    0    0  0.27287957943E+03  0.20239040020E+03 -0.16879882829E+03  0.39030537165E+03  0.91761101500E+02 0.  0.
        -15    1    3    3    0    0 -0.10595200246E+03  0.39465938121E+03  0.15083594918E+03  0.43558390416E+03  0.00000000000E+00 0.  1.
        -15    1    4    4    0    0  0.16206178944E+03  0.17344064628E+03 -0.11268004910E+03  0.26275934778E+03  0.00000000000E+00 0. -1.
         15    1    3    3    0    0 -0.22017249828E+03 -0.39130348630E+03  0.71498794068E+02  0.45464978273E+03  0.00000000000E+00 0. -1.
         15    1    4    4    0    0  0.11081778998E+03  0.28949753919E+02 -0.56118779187E+02  0.12754602387E+03  0.00000000000E+00 0.  1.
        -16    1    1    2    0    0 -0.94350481216E+02 -0.29295624518E+03  0.25951937845E+03  0.40258624255E+03  0.00000000000E+00 0.  1.
         16    1    3    3    0    0 -0.15228919329E+03  0.28557632277E+03  0.33253940333E+02  0.32534851939E+03  0.00000000000E+00 0. -1.
    9900018    1    3    3    0    0  0.29988459582E+03 -0.19836637270E+03 -0.56162540374E+03  0.67306631259E+03  0.91187600000E+02 0.  0.
<mgrwt>
<rscale>  0 0.26728817E+04</rscale>
<asrwt>0</asrwt>
<pdfrwt beam="1">  1        2 0.22283510E+00 0.26728817E+04</pdfrwt>
<pdfrwt beam="2">  1       -2 0.18970954E+00 0.26728817E+04</pdfrwt>
<totfact> 0.18590277E+00</totfact>
</mgrwt>
</event>
<event>
12    1  0.5974998E-009  0.2661487E+04  0.7818608E-02  0.8347610E-01
          1   -1    0    0  501    0  0.00000000000E+00  0.00000000000E+00  0.39906151498E+04  0.39906151498E+04  0.00000000000E+00 0. -1.
         -1   -1    0    0    0  501 -0.00000000000E+00 -0.00000000000E+00 -0.44376086916E+03  0.44376086916E+03  0.00000000000E+00 0.  1.
    9900016    2    1    2    0    0 -0.28008700506E+03 -0.45745314050E+02  0.24291995777E+04  0.32812526955E+04  0.21874796683E+04 0.  0.
         23    2    3    3    0    0 -0.39603628976E+02  0.92254562546E+02  0.26155448753E+03  0.29540521310E+03  0.93670370146E+02 0.  0.
        -24    2    3    3    0    0  0.47988823287E+03 -0.52797091188E+02  0.19673353285E+04  0.20262893071E+04  0.48577900468E+02 0.  0.
        -15    1    4    4    0    0  0.24571394928E+02  0.53113655717E+02  0.14876750100E+03  0.15986426501E+03  0.00000000000E+00 0.  1.
        -15    1    3    3    0    0  0.26281685684E+02 -0.15531977013E+03  0.12356516209E+03  0.20020815987E+03  0.00000000000E+00 0.  1.
         15    1    5    5    0    0  0.45183140600E+03 -0.59493148885E+02  0.18727594659E+04  0.19274125328E+04  0.00000000000E+00 0. -1.
         15    1    4    4    0    0 -0.64175023904E+02  0.39140906829E+02  0.11278698653E+03  0.13554094809E+03  0.00000000000E+00 0. -1.
        -16    1    5    5    0    0  0.28056826876E+02  0.66960576970E+01  0.94575862597E+02  0.98876774366E+02  0.00000000000E+00 0.  1.
         16    1    1    2    0    0  0.28008700506E+03  0.45745314050E+02  0.11176547029E+04  0.11531233235E+04  0.00000000000E+00 0. -1.
    9900018    1    3    3    0    0 -0.74665329464E+03  0.70116984726E+02  0.76744599581E+02  0.75935001541E+03  0.91187600000E+02 0.  0.
<mgrwt>
<rscale>  0 0.26614874E+04</rscale>
<asrwt>0</asrwt>
<pdfrwt beam="1">  1        1 0.61394077E+00 0.26614874E+04</pdfrwt>
<pdfrwt beam="2">  1       -1 0.68270905E-01 0.26614874E+04</pdfrwt>
<totfact> 0.18629486E-01</totfact>
</mgrwt>
</event>
<event>
12    1  0.5974998E-009  0.3142329E+04  0.7818608E-02  0.8204216E-01
          2   -1    0    0  501    0  0.00000000000E+00  0.00000000000E+00  0.18769482214E+04  0.18769482214E+04  0.00000000000E+00 0. -1.
         -2   -1    0    0    0  501 -0.00000000000E+00 -0.00000000000E+00 -0.13151979629E+04  0.13151979629E+04  0.00000000000E+00 0.  1.
    9900016    2    1    2    0    0 -0.79419529877E+03  0.86642508283E+02  0.43023935829E+03  0.23824868647E+04  0.22029263851E+04 0.  0.
         23    2    3    3    0    0 -0.85615974649E+02 -0.17349581132E+02 -0.11266887268E+03  0.16886556819E+03  0.90499735725E+02 0.  0.
        -24    2    3    3    0    0 -0.25727465146E+03  0.87947580675E+03  0.34728753105E+03  0.98480842690E+03  0.97831832869E+02 0.  0.
        -15    1    4    4    0    0 -0.15996603094E+02 -0.30718263153E+01  0.15389199902E+02  0.22408813023E+02  0.00000000000E+00 0.  1.
        -15    1    3    3    0    0 -0.16155019596E+03 -0.87574397197E+03  0.10729917334E+03  0.89696102638E+03  0.00000000000E+00 0.  1.
         15    1    4    4    0    0 -0.69619371555E+02 -0.14277754817E+02 -0.12805807259E+03  0.14645675516E+03  0.00000000000E+00 0. -1.
         15    1    5    5    0    0 -0.28414125647E+02  0.10831721678E+03  0.78231535840E+02  0.13660217856E+03  0.00000000000E+00 0. -1.
        -16    1    5    5    0    0 -0.22886052581E+03  0.77115858998E+03  0.26905599521E+03  0.84820624834E+03  0.00000000000E+00 0.  1.
         16    1    1    2    0    0  0.79419529877E+03 -0.86642508283E+02  0.13151090024E+03  0.80965931953E+03  0.00000000000E+00 0. -1.
    9900018    1    3    3    0    0 -0.28975447669E+03  0.10026025463E+03  0.88321526588E+02  0.33185184326E+03  0.91187600000E+02 0.  0.
<mgrwt>
<rscale>  0 0.31423294E+04</rscale>
<asrwt>0</asrwt>
<pdfrwt beam="1">  1        2 0.28876127E+00 0.31423294E+04</pdfrwt>
<pdfrwt beam="2">  1       -2 0.20233815E+00 0.31423294E+04</pdfrwt>
<totfact> 0.84958899E-01</totfact>
</mgrwt>
</event>
<event>
12    1  0.5974998E-009  0.4138291E+04  0.7818608E-02  0.7977216E-01
          2   -1    0    0  501    0  0.00000000000E+00  0.00000000000E+00  0.32608707028E+04  0.32608707028E+04  0.00000000000E+00 0. -1.
         -2   -1    0    0    0  501 -0.00000000000E+00 -0.00000000000E+00 -0.13129507051E+04  0.13129507051E+04  0.00000000000E+00 0.  1.
    9900016    2    1    2    0    0 -0.49040085642E+03 -0.15628074275E+03  0.27883308828E+04  0.35883229927E+04  0.21991716890E+04 0.  0.
         23    2    3    3    0    0 -0.40908041658E+03 -0.19458111136E+02  0.77338057957E+03  0.88004623717E+03  0.92943280453E+02 0.  0.
         24    2    3    3    0    0  0.43957541502E+03  0.34556085683E+03  0.10544627955E+04  0.11977108679E+04  0.99903377174E+02 0.  0.
        -15    1    5    5    0    0  0.12269789910E+02  0.40070829946E+02  0.62372063603E+02  0.75143153215E+02  0.00000000000E+00 0.  1.
        -15    1    4    4    0    0 -0.64886796848E+02 -0.17552402898E+02  0.20319623842E+03  0.21402592030E+03  0.00000000000E+00 0.  1.
         15    1    3    3    0    0  0.10606264506E+03 -0.14733188842E+03 -0.11737531051E+03  0.21617801354E+03  0.00000000000E+00 0. -1.
         15    1    4    4    0    0 -0.34419361974E+03 -0.19057082372E+01  0.57018434115E+03  0.66602031687E+03  0.00000000000E+00 0. -1.
        -16    1    1    2    0    0  0.49040085642E+03  0.15628074275E+03 -0.84041088506E+03  0.98549841515E+03  0.00000000000E+00 0.  1.
         16    1    5    5    0    0  0.42730562511E+03  0.30549002688E+03  0.99209073191E+03  0.11225677147E+04  0.00000000000E+00 0. -1.
    9900018    1    3    3    0    0 -0.62695849992E+03 -0.33505160002E+03  0.10778628182E+04  0.12943878741E+04  0.91187600000E+02 0.  0.
<mgrwt>
<rscale>  0 0.41382907E+04</rscale>
<asrwt>0</asrwt>
<pdfrwt beam="1">  1        2 0.50167241E+00 0.41382907E+04</pdfrwt>
<pdfrwt beam="2">  1       -2 0.20199242E+00 0.41382907E+04</pdfrwt>
<totfact> 0.11893183E-01</totfact>
</mgrwt>
</event>
<event>
12    1  0.5974998E-009  0.3783672E+04  0.7818608E-02  0.8049668E-01
          2   -1    0    0  501    0  0.00000000000E+00  0.00000000000E+00  0.27852314623E+04  0.27852314623E+04  0.00000000000E+00 0.  1.
         -2   -1    0    0    0  501 -0.00000000000E+00 -0.00000000000E+00 -0.12850077185E+04  0.12850077185E+04  0.00000000000E+00 0. -1.
    9900016    2    1    2    0    0  0.11274539845E+03 -0.48527392217E+03  0.22351024465E+04  0.31824052931E+04  0.22099362432E+04 0.  0.
         23    2    3    3    0    0 -0.87902805802E+02 -0.26489208956E+03  0.84591524803E+03  0.89523751498E+03  0.89346958510E+02 0.  0.
        -24    2    3    3    0    0  0.45086274980E+03  0.50237836629E+03  0.42667419497E+02  0.68531261009E+03  0.11032507783E+03 0.  0.
        -15    1    3    3    0    0 -0.23736656489E+03 -0.73202071191E+03  0.11385956796E+04  0.13742624678E+04  0.00000000000E+00 0.  1.
        -15    1    4    4    0    0 -0.64428718565E+02 -0.69816998405E+02  0.23394764446E+03  0.25250143245E+03  0.00000000000E+00 0. -1.
         15    1    4    4    0    0 -0.23474087237E+02 -0.19507509116E+03  0.61196760357E+03  0.64273608253E+03  0.00000000000E+00 0.  1.
         15    1    5    5    0    0  0.32263349633E+03  0.40708853993E+03 -0.19536092268E+01  0.51943937942E+03  0.00000000000E+00 0. -1.
        -16    1    5    5    0    0  0.12822925346E+03  0.95289826357E+02  0.44621028723E+02  0.16587323068E+03  0.00000000000E+00 0.  1.
         16    1    1    2    0    0 -0.11274539845E+03  0.48527392217E+03 -0.73487870272E+03  0.88783388768E+03  0.00000000000E+00 0. -1.
    9900018    1    3    3    0    0 -0.12847980658E+02  0.92605130092E+01  0.20792409944E+03  0.22759270030E+03  0.91187600000E+02 0.  0.
<mgrwt>
<rscale>  0 0.37836723E+04</rscale>
<asrwt>0</asrwt>
<pdfrwt beam="1">  1        2 0.42849715E+00 0.37836723E+04</pdfrwt>
<pdfrwt beam="2">  1       -2 0.19769350E+00 0.37836723E+04</pdfrwt>
<totfact> 0.26095431E-01</totfact>
</mgrwt>
</event>
<event>
12    1  0.5974998E-009  0.2463463E+04  0.7818608E-02  0.8416119E-01
          2   -1    0    0  501    0  0.00000000000E+00  0.00000000000E+00  0.29193837202E+04  0.29193837202E+04  0.00000000000E+00 0. -1.
         -2   -1    0    0    0  501 -0.00000000000E+00 -0.00000000000E+00 -0.51968573266E+03  0.51968573266E+03  0.00000000000E+00 0.  1.
    9900016    2    1    2    0    0 -0.27395704416E+02 -0.21028447671E+03  0.21747781104E+04  0.31299432053E+04  0.22409628630E+04 0.  0.
         23    2    3    3    0    0 -0.19872983392E+03 -0.20208631651E+03  0.44529451446E+02  0.30188630804E+03  0.93915093190E+02 0.  0.
         24    2    3    3    0    0  0.89310019019E+03 -0.28493387898E+03  0.11941880229E+04  0.15197081396E+04  0.67915613603E+02 0.  0.
        -15    1    4    4    0    0 -0.18411607663E+03 -0.13279470627E+03  0.43049145438E+02  0.23105495582E+03  0.00000000000E+00 0.  1.
        -15    1    5    5    0    0  0.27305454785E+03 -0.56999197457E+02  0.37377949261E+03  0.46638911191E+03  0.00000000000E+00 0.  1.
         15    1    4    4    0    0 -0.14613757287E+02 -0.69291610238E+02  0.14803060077E+01  0.70831352220E+02  0.00000000000E+00 0. -1.
         15    1    3    3    0    0 -0.67327526242E+03  0.30043261962E+03  0.94885365711E+03  0.12016166612E+04  0.00000000000E+00 0. -1.
        -16    1    1    2    0    0  0.27395704416E+02  0.21028447671E+03  0.22491987720E+03  0.30912624755E+03  0.00000000000E+00 0.  1.
         16    1    5    5    0    0  0.62004564234E+03 -0.22793468152E+03  0.82040853029E+03  0.10533190277E+04  0.00000000000E+00 0. -1.
    9900018    1    3    3    0    0 -0.48490798267E+02 -0.23696900853E+02 -0.12793021080E+02  0.10673209643E+03  0.91187600000E+02 0.  0.
<mgrwt>
<rscale>  0 0.24634627E+04</rscale>
<asrwt>0</asrwt>
<pdfrwt beam="1">  1        2 0.44913595E+00 0.24634627E+04</pdfrwt>
<pdfrwt beam="2">  1       -2 0.79951653E-01 0.24634627E+04</pdfrwt>
<totfact> 0.24204830E+00</totfact>
</mgrwt>
</event>
<event>
12    1  0.5974998E-009  0.3090623E+04  0.7818608E-02  0.8218316E-01
         -2   -1    0    0    0  501 -0.00000000000E+00  0.00000000000E+00  0.14850703281E+04  0.14850703281E+04  0.00000000000E+00 0.  1.
          2   -1    0    0  501    0  0.00000000000E+00 -0.00000000000E+00 -0.16079967568E+04  0.16079967568E+04  0.00000000000E+00 0. -1.
    9900016    2    1    2    0    0 -0.25265018924E+03 -0.71739313866E+03 -0.26557484052E+01  0.23230345726E+04  0.21949937446E+04 0.  0.
         23    2    3    3    0    0  0.83313829414E+01  0.20663875454E+03  0.23222398658E+01  0.22655637107E+03  0.92484645501E+02 0.  0.
        -24    2    3    3    0    0 -0.52137247381E+03 -0.72018480983E+03  0.52966257381E+03  0.10363639940E+04  0.54885966133E+02 0.  0.
        -15    1    4    4    0    0 -0.18902692567E+02  0.12865186612E+03  0.39599882846E+02  0.13592926530E+03  0.00000000000E+00 0.  1.
        -15    1    3    3    0    0 -0.22241245931E+03 -0.16318453637E+03 -0.49351984698E+03  0.56538335166E+03  0.00000000000E+00 0.  1.
         15    1    5    5    0    0 -0.13774047590E+03 -0.15114863430E+03  0.12441521523E+03  0.23936894981E+03  0.00000000000E+00 0. -1.
         15    1    4    4    0    0  0.27234075509E+02  0.77986888418E+02 -0.37277642980E+02  0.90627105769E+02  0.00000000000E+00 0. -1.
        -16    1    5    5    0    0 -0.38363199791E+03 -0.56903617554E+03  0.40524735858E+03  0.79699504423E+03  0.00000000000E+00 0.  1.
         16    1    1    2    0    0  0.25265018924E+03  0.71739313866E+03 -0.12027068034E+03  0.77003251234E+03  0.00000000000E+00 0. -1.
    9900018    1    3    3    0    0  0.48280336095E+03 -0.40662546996E+02 -0.41120715096E+02  0.49473085579E+03  0.91187600000E+02 0.  0.
<mgrwt>
<rscale>  0 0.30906234E+04</rscale>
<asrwt>0</asrwt>
<pdfrwt beam="1">  1        2 0.24738412E+00 0.30906234E+04</pdfrwt>
<pdfrwt beam="2">  1       -2 0.22847236E+00 0.30906234E+04</pdfrwt>
<totfact> 0.81976553E-01</totfact>
</mgrwt>
</event>
<event>
12    1  0.5974998E-009  0.2975814E+04  0.7818608E-02  0.8250671E-01
          1   -1    0    0  501    0  0.00000000000E+00  0.00000000000E+00  0.23118514758E+04  0.23118514758E+04  0.00000000000E+00 0. -1.
         -1   -1    0    0    0  501 -0.00000000000E+00 -0.00000000000E+00 -0.95761678909E+03  0.95761678909E+03  0.00000000000E+00 0.  1.
    9900016    2    1    2    0    0 -0.33926524561E+03  0.15961249633E+03  0.16639469157E+04  0.27831569237E+04  0.21992421575E+04 0.  0.
         23    2    3    3    0    0  0.18177450952E+03  0.23162728117E+02  0.33551124832E+03  0.39278912491E+03  0.90205402346E+02 0.  0.
         24    2    3    3    0    0  0.48424136428E+03  0.25727967238E+02  0.22326771303E+03  0.53808589067E+03  0.67352259640E+02 0.  0.
        -15    1    4    4    0    0  0.12926398818E+03  0.45480695826E+02  0.17390229611E+03  0.22140388643E+03  0.00000000000E+00 0.  1.
        -15    1    5    5    0    0  0.21556287874E+03  0.28195738867E+02  0.68128909301E+02  0.22782428023E+03  0.00000000000E+00 0.  1.
         15    1    3    3    0    0 -0.19343340117E+03 -0.34222332247E+03  0.76145016059E+03  0.85693618794E+03  0.00000000000E+00 0. -1.
         15    1    4    4    0    0  0.52510521336E+02 -0.22317967709E+02  0.16160895222E+03  0.17138523849E+03  0.00000000000E+00 0. -1.
        -16    1    1    2    0    0  0.33926524561E+03 -0.15961249633E+03 -0.30971222899E+03  0.48631134127E+03  0.00000000000E+00 0.  1.
         16    1    5    5    0    0  0.26867848554E+03 -0.24677716284E+01  0.15513880373E+03  0.31026161044E+03  0.00000000000E+00 0. -1.
    9900018    1    3    3    0    0 -0.81184771823E+03  0.45294512345E+03  0.34371779381E+03  0.99534572015E+03  0.91187600000E+02 0.  0.
<mgrwt>
<rscale>  0 0.29758144E+04</rscale>
<asrwt>0</asrwt>
<pdfrwt beam="1">  1        1 0.35566946E+00 0.29758144E+04</pdfrwt>
<pdfrwt beam="2">  1       -1 0.14732566E+00 0.29758144E+04</pdfrwt>
<totfact> 0.57031640E-01</totfact>
</mgrwt>
</event>
<event>
11    1  0.5974998E-009  0.3581026E+04  0.7818608E-02  0.8094852E-01
         -1   -1    0    0    0  501 -0.00000000000E+00  0.00000000000E+00  0.12817431898E+04  0.12817431898E+04  0.00000000000E+00 0.  1.
          1   -1    0    0  501    0  0.00000000000E+00 -0.00000000000E+00 -0.25012316738E+04  0.25012316738E+04  0.00000000000E+00 0. -1.
    9900016    2    1    2    0    0 -0.10956278103E+04 -0.13572369581E+03 -0.10041461377E+04  0.26581666371E+04  0.21997088862E+04 0.  0.
         23    2    3    3    0    0 -0.66522249443E+02  0.17219124687E+03 -0.19499164861E+03  0.28365204257E+03  0.91442348264E+02 0.  0.
        -15    1    4    4    0    0 -0.25352483468E+02  0.42895492130E+02 -0.11694034063E+03  0.12711339398E+03  0.00000000000E+00 0.  1.
        -15    1    3    3    0    0 -0.47515097593E+02 -0.34911449514E+03  0.27623393048E+03  0.44770950354E+03  0.00000000000E+00 0.  1.
         15    1    4    4    0    0 -0.41169765974E+02  0.12929575474E+03 -0.78051307988E+02  0.15653864859E+03  0.00000000000E+00 0. -1.
         15    1    3    3    0    0 -0.99839209560E+03  0.19586869045E+03 -0.10640572227E+04  0.14721987277E+04  0.00000000000E+00 0. -1.
        -16    1    1    2    0    0  0.10956278103E+04  0.13572369581E+03 -0.21534234631E+03  0.11248082265E+04  0.00000000000E+00 0.  1.
         16    1    3    3    0    0 -0.70180647366E+01 -0.26447820226E+03  0.81777212918E+02  0.27692144239E+03  0.00000000000E+00 0. -1.
    9900018    1    3    3    0    0  0.23819697031E+02  0.10980906427E+03 -0.10310840973E+03  0.17768492089E+03  0.91187600000E+02 0.  0.
<mgrwt>
<rscale>  0 0.35810259E+04</rscale>
<asrwt>0</asrwt>
<pdfrwt beam="1">  1        1 0.38480487E+00 0.35810259E+04</pdfrwt>
<pdfrwt beam="2">  1       -1 0.19719126E+00 0.35810259E+04</pdfrwt>
<totfact> 0.17242635E-01</totfact>
</mgrwt>
</event>
<event>
12    1  0.5974998E-009  0.3543809E+04  0.7818608E-02  0.8103486E-01
          1   -1    0    0  501    0  0.00000000000E+00  0.00000000000E+00  0.28817254058E+04  0.28817254058E+04  0.00000000000E+00 0. -1.
         -1   -1    0    0    0  501 -0.00000000000E+00 -0.00000000000E+00 -0.10895017537E+04  0.10895017537E+04  0.00000000000E+00 0.  1.
    9900016    2    1    2    0    0 -0.10358923828E+04  0.28138969218E+03  0.10158326654E+04  0.26464493850E+04  0.21953416945E+04 0.  0.
         23    2    3    3    0    0 -0.95609803222E+01 -0.41579835770E+02 -0.15735235639E+03  0.18610314059E+03  0.89745862235E+02 0.  0.
        -24    2    3    3    0    0 -0.70930425148E+03  0.71637984281E+02  0.15810810959E+04  0.17367559815E+04  0.90881161096E+02 0.  0.
        -15    1    3    3    0    0 -0.41116698607E+03  0.18853359960E+03 -0.30975851332E+03  0.54822763993E+03  0.00000000000E+00 0.  1.
        -15    1    4    4    0    0 -0.32196661731E+02 -0.36810526245E+02 -0.31565107693E+02  0.58206493562E+02  0.00000000000E+00 0.  1.
         15    1    5    5    0    0 -0.68466412821E+02  0.30667808460E+02  0.13341208483E+03  0.15305864411E+03  0.00000000000E+00 0. -1.
         15    1    4    4    0    0  0.22635681409E+02 -0.47693095242E+01 -0.12578724870E+03  0.12789664703E+03  0.00000000000E+00 0. -1.
        -16    1    5    5    0    0 -0.64083783866E+03  0.40970175821E+02  0.14476690111E+04  0.15836973373E+04  0.00000000000E+00 0.  1.
         16    1    1    2    0    0  0.10358923828E+04 -0.28138969218E+03  0.77639098668E+03  0.13247777745E+04  0.00000000000E+00 0. -1.
    9900018    1    3    3    0    0  0.94139835037E+02  0.62797944070E+02 -0.98137560807E+02  0.17536262303E+03  0.91187600000E+02 0.  0.
<mgrwt>
<rscale>  0 0.35438086E+04</rscale>
<asrwt>0</asrwt>
<pdfrwt beam="1">  1        1 0.44334237E+00 0.35438086E+04</pdfrwt>
<pdfrwt beam="2">  1       -1 0.16761565E+00 0.35438086E+04</pdfrwt>
<totfact> 0.15159798E-01</totfact>
</mgrwt>
</event>
<event>
11    1  0.5974998E-009  0.4139513E+04  0.7818608E-02  0.7976979E-01
          1   -1    0    0  501    0  0.00000000000E+00  0.00000000000E+00  0.17968399059E+04  0.17968399059E+04  0.00000000000E+00 0. -1.
         -1   -1    0    0    0  501 -0.00000000000E+00 -0.00000000000E+00 -0.23841258853E+04  0.23841258853E+04  0.00000000000E+00 0.  1.
    9900016    2    1    2    0    0  0.13894491707E+04  0.17066982780E+03  0.12605937591E+03  0.26098010055E+04  0.21989709261E+04 0.  0.
         23    2    3    3    0    0 -0.30090607458E+02  0.53640311856E+02  0.17332378508E+02  0.11174003447E+03  0.91666221945E+02 0.  0.
        -15    1    4    4    0    0 -0.18322722921E+02 -0.47264418245E+01  0.42940867063E+02  0.46925254306E+02  0.00000000000E+00 0.  1.
        -15    1    3    3    0    0 -0.65179599542E+02  0.10969746718E+02 -0.50275821782E+02  0.83044408573E+02  0.00000000000E+00 0.  1.
         15    1    3    3    0    0  0.34862951734E+03  0.80581814493E+02 -0.20846987796E+03  0.41412034387E+03  0.00000000000E+00 0. -1.
         15    1    4    4    0    0 -0.11767884537E+02  0.58366753681E+02 -0.25608488556E+02  0.64814780165E+02  0.00000000000E+00 0. -1.
        -16    1    1    2    0    0 -0.13894491707E+04 -0.17066982780E+03 -0.71334535524E+03  0.15711647857E+04  0.00000000000E+00 0.  1.
         16    1    3    3    0    0 -0.41004258557E+03  0.56223530966E+02  0.26739978737E+02  0.41474212937E+03  0.00000000000E+00 0. -1.
    9900018    1    3    3    0    0  0.15461324459E+04 -0.30745576233E+02  0.34073271841E+03  0.15861540892E+04  0.91187600000E+02 0.  0.
<mgrwt>
<rscale>  0 0.41395133E+04</rscale>
<asrwt>0</asrwt>
<pdfrwt beam="1">  1        1 0.27643691E+00 0.41395133E+04</pdfrwt>
<pdfrwt beam="2">  1       -1 0.36678860E+00 0.41395133E+04</pdfrwt>
<totfact> 0.38024171E-02</totfact>
</mgrwt>
</event>
<event>
12    1  0.5974998E-009  0.3010688E+04  0.7818608E-02  0.8240685E-01
         -2   -1    0    0    0  501 -0.00000000000E+00  0.00000000000E+00  0.15398032603E+04  0.15398032603E+04  0.00000000000E+00 0. -1.
          2   -1    0    0  501    0  0.00000000000E+00 -0.00000000000E+00 -0.14716563311E+04  0.14716563311E+04  0.00000000000E+00 0.  1.
    9900016    2    1    2    0    0  0.76221452022E+00 -0.52725116338E+03  0.51509958358E+03  0.23202569832E+04  0.22000614802E+04 0.  0.
         23    2    3    3    0    0 -0.42655435516E+03 -0.90503810517E+02  0.14936504813E+03  0.46987254243E+03  0.91272837691E+02 0.  0.
         24    2    3    3    0    0  0.45960154516E+03 -0.44390842345E+03 -0.49317785950E+03  0.80974831325E+03  0.64650297676E+02 0.  0.
        -15    1    5    5    0    0  0.32251359361E+03 -0.31493468389E+03 -0.38395329394E+03  0.59213090201E+03  0.00000000000E+00 0.  1.
        -15    1    4    4    0    0 -0.39552921059E+03 -0.89006828360E+02  0.11067208981E+03  0.42025454594E+03  0.00000000000E+00 0.  1.
         15    1    4    4    0    0 -0.31025144571E+02 -0.14969821570E+01  0.38692958324E+02  0.49617996484E+02  0.00000000000E+00 0. -1.
         15    1    3    3    0    0  0.19487421610E+03  0.84011715803E+02  0.71636447731E+03  0.74713585970E+03  0.00000000000E+00 0. -1.
        -16    1    1    2    0    0 -0.76221452022E+00  0.52725116338E+03 -0.44695265446E+03  0.69120260821E+03  0.00000000000E+00 0.  1.
         16    1    5    5    0    0  0.13708795155E+03 -0.12897373956E+03 -0.10922456555E+03  0.21761741124E+03  0.00000000000E+00 0. -1.
    9900018    1    3    3    0    0 -0.22715919158E+03 -0.76850645222E+02  0.14254791763E+03  0.29350026782E+03  0.91187600000E+02 0.  0.
<mgrwt>
<rscale>  0 0.30106884E+04</rscale>
<asrwt>0</asrwt>
<pdfrwt beam="1">  1        2 0.22640867E+00 0.30106884E+04</pdfrwt>
<pdfrwt beam="2">  1       -2 0.23689281E+00 0.30106884E+04</pdfrwt>
<totfact> 0.87240319E-01</totfact>
</mgrwt>
</event>
<event>
12    1  0.5974998E-009  0.3068500E+04  0.7818608E-02  0.8224436E-01
         -2   -1    0    0    0  501 -0.00000000000E+00  0.00000000000E+00  0.87303614994E+03  0.87303614994E+03  0.00000000000E+00 0.  1.
          2   -1    0    0  501    0  0.00000000000E+00 -0.00000000000E+00 -0.26962499988E+04  0.26962499988E+04  0.00000000000E+00 0. -1.
    9900016    2    1    2    0    0 -0.60015093963E+03 -0.10358030623E+03 -0.90195652519E+03  0.24649197754E+04  0.22116495870E+04 0.  0.
         23    2    3    3    0    0  0.11707035557E+03  0.10013929334E+03  0.96032083091E+02  0.20414120573E+03  0.93370898396E+02 0.  0.
        -24    2    3    3    0    0 -0.85766781123E+03 -0.80777019698E+02  0.10660495143E+03  0.86949591684E+03  0.50393773552E+02 0.  0.
        -15    1    4    4    0    0  0.29496976585E+01 -0.13422049225E+02  0.24238005840E+02  0.27862753790E+02  0.00000000000E+00 0. -1.
        -15    1    3    3    0    0 -0.23797002763E+03 -0.14480639114E+03 -0.91749228871E+03  0.95884864541E+03  0.00000000000E+00 0.  1.
         15    1    4    4    0    0  0.11412065792E+03  0.11356134257E+03  0.71794077251E+02  0.17627845194E+03  0.00000000000E+00 0.  1.
         15    1    5    5    0    0 -0.69848113117E+03 -0.53015268003E+02  0.71432311112E+02  0.70412291847E+03  0.00000000000E+00 0. -1.
        -16    1    5    5    0    0 -0.15918668006E+03 -0.27761751695E+02  0.35172640318E+02  0.16537299838E+03  0.00000000000E+00 0.  1.
         16    1    1    2    0    0  0.60015093963E+03  0.10358030623E+03 -0.92125732365E+03  0.11043663733E+04  0.00000000000E+00 0. -1.
    9900018    1    3    3    0    0  0.37841654365E+03  0.21863811262E+02 -0.18710127100E+03  0.43243400740E+03  0.91187600000E+02 0.  0.
<mgrwt>
<rscale>  0 0.30685004E+04</rscale>
<asrwt>0</asrwt>
<pdfrwt beam="1">  1        2 0.41480769E+00 0.30685004E+04</pdfrwt>
<pdfrwt beam="2">  1       -2 0.13431326E+00 0.30685004E+04</pdfrwt>
<totfact> 0.90779185E-01</totfact>
</mgrwt>
</event>
<event>
11    1  0.5974998E-009  0.2754049E+04  0.7818608E-02  0.8317678E-01
         -2   -1    0    0    0  501 -0.00000000000E+00  0.00000000000E+00  0.12343979608E+04  0.12343979608E+04  0.00000000000E+00 0.  1.
          2   -1    0    0  501    0  0.00000000000E+00 -0.00000000000E+00 -0.15361304853E+04  0.15361304853E+04  0.00000000000E+00 0. -1.
    9900016    2    1    2    0    0  0.24983192082E+03  0.98592414257E+01 -0.67011148602E+03  0.23253136073E+04  0.22125823771E+04 0.  0.
         23    2    3    3    0    0 -0.15817514938E+02 -0.12060551512E+03 -0.20830769241E+02  0.15391586637E+03  0.91979828857E+02 0.  0.
        -15    1    4    4    0    0 -0.72555653280E+01 -0.16947469545E+02  0.32246862781E+02  0.37144583878E+02  0.00000000000E+00 0. -1.
        -15    1    3    3    0    0 -0.12485592522E+03 -0.60394258804E+03  0.88610069698E+02  0.62304686515E+03  0.00000000000E+00 0.  1.
         15    1    3    3    0    0  0.45351310764E+03  0.87654361062E+03 -0.71759264421E+03  0.12202221286E+04  0.00000000000E+00 0. -1.
         15    1    4    4    0    0 -0.85619496102E+01 -0.10365804557E+03 -0.53077632022E+02  0.11677128249E+03  0.00000000000E+00 0.  1.
        -16    1    1    2    0    0 -0.24983192082E+03 -0.98592414257E+01  0.36837896156E+03  0.44521483872E+03  0.00000000000E+00 0.  1.
         16    1    3    3    0    0 -0.53078095341E+02 -0.18845241673E+03  0.51896602023E+02  0.20254593276E+03  0.00000000000E+00 0. -1.
    9900018    1    3    3    0    0 -0.99296513174E+01  0.46316150704E+02 -0.72194744286E+02  0.12558281446E+03  0.91187600000E+02 0.  0.
<mgrwt>
<rscale>  0 0.27540489E+04</rscale>
<asrwt>0</asrwt>
<pdfrwt beam="1">  1        2 0.23632776E+00 0.27540489E+04</pdfrwt>
<pdfrwt beam="2">  1       -2 0.18990738E+00 0.27540489E+04</pdfrwt>
<totfact> 0.16422941E+00</totfact>
</mgrwt>
</event>
<event>
12    1  0.5974998E-009  0.2523643E+04  0.7818608E-02  0.8394611E-01
          2   -1    0    0  501    0  0.00000000000E+00  0.00000000000E+00  0.23472362279E+04  0.23472362279E+04  0.00000000000E+00 0. -1.
         -2   -1    0    0    0  501 -0.00000000000E+00 -0.00000000000E+00 -0.67832714267E+03  0.67832714267E+03  0.00000000000E+00 0.  1.
    9900016    2    1    2    0    0 -0.23755678809E+03 -0.50804263033E+02  0.12326286631E+04  0.25262088798E+04  0.21916531620E+04 0.  0.
         23    2    3    3    0    0 -0.41607734571E+02 -0.24567142090E+03  0.54133875604E+02  0.27081684330E+03  0.91244920428E+02 0.  0.
         24    2    3    3    0    0  0.16512158322E+03  0.80956237575E+03  0.16763817267E+03  0.84803017190E+03  0.91630988406E+02 0.  0.
        -15    1    4    4    0    0  0.28200253067E+02 -0.98594090700E+02  0.21089604039E+02  0.10469393675E+03  0.00000000000E+00 0. -1.
        -15    1    5    5    0    0  0.13468996440E+03  0.44885359192E+03  0.11155371823E+03  0.48172104536E+03  0.00000000000E+00 0.  1.
         15    1    3    3    0    0  0.44866622559E+02 -0.51845749527E+03  0.37507557626E+03  0.64147710491E+03  0.00000000000E+00 0. -1.
         15    1    4    4    0    0 -0.69807987638E+02 -0.14707733020E+03  0.33044271565E+02  0.16612290655E+03  0.00000000000E+00 0.  1.
        -16    1    1    2    0    0  0.23755678809E+03  0.50804263033E+02  0.43628042213E+03  0.49935449076E+03  0.00000000000E+00 0.  1.
         16    1    5    5    0    0  0.30431618821E+02  0.36070878384E+03  0.56084454447E+02  0.36630912655E+03  0.00000000000E+00 0. -1.
    9900018    1    3    3    0    0 -0.40593725930E+03 -0.96237722620E+02  0.63578103859E+03  0.76588475972E+03  0.91187600000E+02 0.  0.
<mgrwt>
<rscale>  0 0.25236434E+04</rscale>
<asrwt>0</asrwt>
<pdfrwt beam="1">  1        2 0.36111326E+00 0.25236434E+04</pdfrwt>
<pdfrwt beam="2">  1       -2 0.10435802E+00 0.25236434E+04</pdfrwt>
<totfact> 0.28293383E+00</totfact>
</mgrwt>
</event>
<event>
11    1  0.5974998E-009  0.3105130E+04  0.7818608E-02  0.8214331E-01
         -2   -1    0    0    0  501 -0.00000000000E+00  0.00000000000E+00  0.93156456361E+03  0.93156456361E+03  0.00000000000E+00 0.  1.
          2   -1    0    0  501    0  0.00000000000E+00 -0.00000000000E+00 -0.25875373708E+04  0.25875373708E+04  0.00000000000E+00 0. -1.
    9900016    2    1    2    0    0 -0.23501559530E+03  0.10394850404E+03 -0.43472767099E+03  0.22711126299E+04  0.22142553620E+04 0.  0.
         23    2    3    3    0    0 -0.26249572314E+03 -0.12534131891E+03  0.57639215921E+02  0.30863674510E+03  0.85556474463E+02 0.  0.
        -15    1    4    4    0    0 -0.11067631753E+03 -0.21647163334E+02  0.53296875169E+02  0.12473333093E+03  0.00000000000E+00 0.  1.
        -15    1    3    3    0    0 -0.48815631356E+03  0.12926903441E+03 -0.28654600344E+03  0.58061663928E+03  0.00000000000E+00 0.  1.
         15    1    4    4    0    0 -0.15181940561E+03 -0.10369415558E+03  0.43423407520E+01  0.18390341417E+03  0.00000000000E+00 0. -1.
         15    1    3    3    0    0  0.40197153240E+03  0.43053337586E+03 -0.16382353222E+02  0.58924399198E+03  0.00000000000E+00 0. -1.
        -16    1    3    3    0    0  0.36150000287E+03 -0.23064180325E+02 -0.60109257985E+02  0.36718841401E+03  0.00000000000E+00 0.  1.
         16    1    1    2    0    0  0.23501559530E+03 -0.10394850404E+03 -0.12212451362E+04  0.12479893045E+04  0.00000000000E+00 0. -1.
    9900018    1    3    3    0    0 -0.24783509386E+03 -0.30744840699E+03 -0.12932927226E+03  0.42542683950E+03  0.91187600000E+02 0.  0.
<mgrwt>
<rscale>  0 0.31051300E+04</rscale>
<asrwt>0</asrwt>
<pdfrwt beam="1">  1        2 0.39808266E+00 0.31051300E+04</pdfrwt>
<pdfrwt beam="2">  1       -2 0.14331763E+00 0.31051300E+04</pdfrwt>
<totfact> 0.88717179E-01</totfact>
</mgrwt>
</event>
<event>
11    1  0.5974998E-009  0.3032243E+04  0.7818608E-02  0.8234583E-01
         -2   -1    0    0    0  501 -0.00000000000E+00  0.00000000000E+00  0.16156045195E+04  0.16156045195E+04  0.00000000000E+00 0.  1.
          2   -1    0    0  501    0  0.00000000000E+00 -0.00000000000E+00 -0.14227642702E+04  0.14227642702E+04  0.00000000000E+00 0. -1.
    9900016    2    1    2    0    0  0.29619112104E+03 -0.35208046568E+03 -0.41798860863E+03  0.22736454880E+04  0.21870206889E+04 0.  0.
         23    2    3    3    0    0  0.14675576221E+03 -0.88093916792E+02  0.13375908374E+03  0.23554456456E+03  0.91060186100E+02 0.  0.
        -15    1    4    4    0    0 -0.87874728732E+01 -0.80194595578E+01  0.29693453771E+02  0.31988007252E+02  0.00000000000E+00 0.  1.
        -15    1    3    3    0    0  0.97577907637E+01 -0.23384203093E+03 -0.13966204609E+03  0.27254870579E+03  0.00000000000E+00 0.  1.
         15    1    3    3    0    0  0.53449917817E+03  0.40623668064E+03  0.96352497316E+02  0.67823404212E+03  0.00000000000E+00 0. -1.
         15    1    4    4    0    0  0.15554323509E+03 -0.80074457234E+02  0.10406562996E+03  0.20355655731E+03  0.00000000000E+00 0. -1.
        -16    1    1    2    0    0 -0.29619112104E+03  0.35208046568E+03  0.61082885790E+03  0.76472330169E+03  0.00000000000E+00 0.  1.
         16    1    3    3    0    0  0.22224867338E+02 -0.52032062698E+03 -0.33329743205E+03  0.61831600157E+03  0.00000000000E+00 0. -1.
    9900018    1    3    3    0    0 -0.41704647744E+03  0.83939428387E+02 -0.17514071155E+03  0.46900217400E+03  0.91187600000E+02 0.  0.
<mgrwt>
<rscale>  0 0.30322430E+04</rscale>
<asrwt>0</asrwt>
<pdfrwt beam="1">  1        2 0.21888681E+00 0.30322430E+04</pdfrwt>
<pdfrwt beam="2">  1       -2 0.24855454E+00 0.30322430E+04</pdfrwt>
<totfact> 0.78643358E-01</totfact>
</mgrwt>
</event>
<event>
11    1  0.5974998E-009  0.2542219E+04  0.7818608E-02  0.8388097E-01
          2   -1    0    0  501    0  0.00000000000E+00  0.00000000000E+00  0.20081071615E+04  0.20081071615E+04  0.00000000000E+00 0. -1.
         -2   -1    0    0    0  501 -0.00000000000E+00 -0.00000000000E+00 -0.80459831150E+03  0.80459831150E+03  0.00000000000E+00 0.  1.
    9900016    2    1    2    0    0 -0.21769510950E+03 -0.16917326098E+03  0.88004086363E+03  0.23876851310E+04  0.22023981498E+04 0.  0.
         23    2    3    3    0    0  0.10534528638E+03  0.21231840158E+03  0.21884944650E+03  0.33480011687E+03  0.89550572372E+02 0.  0.
        -15    1    4    4    0    0  0.67454677647E+02  0.15614252987E+03  0.98139404115E+02  0.19637200873E+03  0.00000000000E+00 0.  1.
        -15    1    3    3    0    0 -0.29150465453E+03 -0.80579921978E+03  0.10294092341E+04  0.13393919208E+04  0.00000000000E+00 0.  1.
         15    1    4    4    0    0  0.37890608734E+02  0.56175871709E+02  0.12071004238E+03  0.13842810814E+03  0.00000000000E+00 0. -1.
         15    1    3    3    0    0 -0.32028137312E+02 -0.34658747698E+02 -0.10732866660E+03  0.11724535405E+03  0.00000000000E+00 0. -1.
        -16    1    3    3    0    0 -0.66869718506E+02  0.11881019988E+03 -0.18490592589E+03  0.22973381179E+03  0.00000000000E+00 0.  1.
         16    1    1    2    0    0  0.21769510950E+03  0.16917326098E+03  0.32346798641E+03  0.42502034206E+03  0.00000000000E+00 0. -1.
    9900018    1    3    3    0    0  0.67362114472E+02  0.34015610504E+03 -0.75983224472E+02  0.36651392751E+03  0.91187600000E+02 0.  0.
<mgrwt>
<rscale>  0 0.25422192E+04</rscale>
<asrwt>0</asrwt>
<pdfrwt beam="1">  1        2 0.30893956E+00 0.25422192E+04</pdfrwt>
<pdfrwt beam="2">  1       -2 0.12378436E+00 0.25422192E+04</pdfrwt>
<totfact> 0.28877840E+00</totfact>
</mgrwt>
</event>
<event>
11    1  0.5974998E-009  0.2574396E+04  0.7818608E-02  0.8376951E-01
         -2   -1    0    0    0  501 -0.00000000000E+00  0.00000000000E+00  0.11093027957E+04  0.11093027957E+04  0.00000000000E+00 0.  1.
          2   -1    0    0  501    0  0.00000000000E+00 -0.00000000000E+00 -0.14936214623E+04  0.14936214623E+04  0.00000000000E+00 0. -1.
    9900016    2    1    2    0    0  0.80697041963E+02  0.46740303941E+02  0.21350220030E+01  0.22053778807E+04  0.22034042684E+04 0.  0.
         23    2    3    3    0    0  0.22857073263E+02  0.16030782213E+03 -0.31472065882E+02  0.18866698961E+03  0.91562538220E+02 0.  0.
        -15    1    3    3    0    0  0.37416751205E+03  0.59233216334E+02 -0.23646364257E+03  0.44657021312E+03  0.00000000000E+00 0.  1.
        -15    1    4    4    0    0  0.32192134426E+02  0.14435484372E+03 -0.55832248613E+02  0.15808824880E+03  0.00000000000E+00 0.  1.
         15    1    4    4    0    0 -0.93350611627E+01  0.15952978411E+02  0.24360182730E+02  0.30578740813E+02  0.00000000000E+00 0. -1.
         15    1    3    3    0    0 -0.30120891533E+03  0.30334271546E+03  0.94657330007E+02  0.43783972389E+03  0.00000000000E+00 0. -1.
        -16    1    3    3    0    0 -0.25478506246E+03  0.24146086730E+03  0.10808238567E+03  0.36728814381E+03  0.00000000000E+00 0.  1.
         16    1    1    2    0    0 -0.80697041963E+02 -0.46740303941E+02 -0.38645368867E+03  0.39754637727E+03  0.00000000000E+00 0. -1.
    9900018    1    3    3    0    0  0.23966643443E+03 -0.71760431728E+03  0.67331014772E+02  0.76501281030E+03  0.91187600000E+02 0.  0.
<mgrwt>
<rscale>  0 0.25743958E+04</rscale>
<asrwt>0</asrwt>
<pdfrwt beam="1">  1        2 0.22978792E+00 0.25743958E+04</pdfrwt>
<pdfrwt beam="2">  1       -2 0.17066197E+00 0.25743958E+04</pdfrwt>
<totfact> 0.23925027E+00</totfact>
</mgrwt>
</event>
<event>
12    1  0.5974998E-009  0.3492773E+04  0.7818608E-02  0.8115505E-01
          1   -1    0    0  501    0  0.00000000000E+00  0.00000000000E+00  0.20563121646E+04  0.20563121646E+04  0.00000000000E+00 0. -1.
         -1   -1    0    0    0  501 -0.00000000000E+00 -0.00000000000E+00 -0.14831727188E+04  0.14831727188E+04  0.00000000000E+00 0.  1.
    9900016    2    1    2    0    0 -0.12153948907E+03  0.52719193064E+03  0.13139154320E+04  0.26221778242E+04  0.22038011708E+04 0.  0.
         23    2    3    3    0    0 -0.29109810988E+02  0.37698808569E+03  0.42453710490E+03  0.57591657061E+03  0.92090960549E+02 0.  0.
         24    2    3    3    0    0  0.14715769847E+03 -0.14031314225E+03  0.48039851265E+03  0.52619758607E+03  0.68978275742E+02 0.  0.
        -15    1    5    5    0    0  0.12265000633E+03 -0.84188935719E+02  0.28594193916E+03  0.32232529147E+03  0.00000000000E+00 0.  1.
        -15    1    4    4    0    0 -0.61399223533E+02  0.23401312465E+03  0.28036976078E+03  0.37032311556E+03  0.00000000000E+00 0.  1.
         15    1    4    4    0    0  0.32289412545E+02  0.14297496104E+03  0.14416734412E+03  0.20559345505E+03  0.00000000000E+00 0. -1.
         15    1    3    3    0    0 -0.51049445383E+03 -0.38525991864E+03 -0.70680928845E+02  0.64344819994E+03  0.00000000000E+00 0. -1.
        -16    1    1    2    0    0  0.12153948907E+03 -0.52719193064E+03 -0.74077598619E+03  0.91730705920E+03  0.00000000000E+00 0.  1.
         16    1    5    5    0    0  0.24507692140E+02 -0.56124206530E+02  0.19445657349E+03  0.20387229460E+03  0.00000000000E+00 0. -1.
    9900018    1    3    3    0    0  0.27090707728E+03  0.67577690585E+03  0.47966074325E+03  0.87661546758E+03  0.91187600000E+02 0.  0.
<mgrwt>
<rscale>  0 0.34927732E+04</rscale>
<asrwt>0</asrwt>
<pdfrwt beam="1">  1        1 0.31635572E+00 0.34927732E+04</pdfrwt>
<pdfrwt beam="2">  1       -1 0.22818042E+00 0.34927732E+04</pdfrwt>
<totfact> 0.21621990E-01</totfact>
</mgrwt>
</event>
<event>
12    1  0.5974998E-009  0.2595862E+04  0.7818608E-02  0.8369608E-01
         -2   -1    0    0    0  501 -0.00000000000E+00  0.00000000000E+00  0.53936018615E+03  0.53936018615E+03  0.00000000000E+00 0.  1.
          2   -1    0    0  501    0  0.00000000000E+00 -0.00000000000E+00 -0.31233772583E+04  0.31233772583E+04  0.00000000000E+00 0. -1.
    9900016    2    1    2    0    0  0.10601109543E+03  0.32050386137E+03 -0.23626341876E+04  0.32590402076E+04  0.22193110851E+04 0.  0.
         23    2    3    3    0    0  0.29623304862E+03 -0.19507673795E+03 -0.13855977746E+04  0.14334712328E+04  0.95653696154E+02 0.  0.
         24    2    3    3    0    0 -0.19361863514E+03  0.23066582379E+03  0.24197010360E+03  0.39110534681E+03  0.60983302051E+02 0.  0.
        -15    1    5    5    0    0 -0.26547369150E+02  0.72000483879E+02  0.65282700671E+02  0.10075050121E+03  0.00000000000E+00 0.  1.
        -15    1    4    4    0    0  0.25944897666E+03 -0.14387184679E+03 -0.10119087872E+04  0.10545009594E+04  0.00000000000E+00 0.  1.
         15    1    3    3    0    0 -0.28328521863E+03 -0.31654082437E+02 -0.70219480789E+03  0.75784565992E+03  0.00000000000E+00 0. -1.
         15    1    4    4    0    0  0.36784071953E+02 -0.51204891160E+02 -0.37368898741E+03  0.37897027343E+03  0.00000000000E+00 0. -1.
        -16    1    1    2    0    0 -0.10601109543E+03 -0.32050386137E+03 -0.22138288452E+03  0.40369723688E+03  0.00000000000E+00 0.  1.
         16    1    5    5    0    0 -0.16707126599E+03  0.15866533991E+03  0.17668740293E+03  0.29035484560E+03  0.00000000000E+00 0. -1.
    9900018    1    3    3    0    0  0.28668190058E+03  0.31656885797E+03 -0.51681170873E+03  0.67661796801E+03  0.91187600000E+02 0.  0.
<mgrwt>
<rscale>  0 0.25958624E+04</rscale>
<asrwt>0</asrwt>
<pdfrwt beam="1">  1        2 0.48051958E+00 0.25958624E+04</pdfrwt>
<pdfrwt beam="2">  1       -2 0.82978490E-01 0.25958624E+04</pdfrwt>
<totfact> 0.16372826E+00</totfact>
</mgrwt>
</event>
<event>
12    1  0.5974998E-009  0.2681626E+04  0.7818608E-02  0.8340991E-01
         -2   -1    0    0    0  501 -0.00000000000E+00  0.00000000000E+00  0.12842409261E+04  0.12842409261E+04  0.00000000000E+00 0.  1.
          2   -1    0    0  501    0  0.00000000000E+00 -0.00000000000E+00 -0.13998771498E+04  0.13998771498E+04  0.00000000000E+00 0. -1.
    9900016    2    1    2    0    0  0.33994082068E+02 -0.30221714163E+03  0.22182970148E+03  0.22298339699E+04  0.21978308212E+04 0.  0.
         23    2    3    3    0    0  0.22363784042E+03 -0.14521024862E+03  0.51252863231E+02  0.28680149228E+03  0.92349011976E+02 0.  0.
        -24    2    3    3    0    0 -0.20280521224E+03 -0.22181907896E+03  0.10048963079E+04  0.10531546837E+04  0.94786814639E+02 0.  0.
        -15    1    3    3    0    0  0.13822306665E+03  0.68209809566E+02 -0.38961310595E+03  0.41899470951E+03  0.00000000000E+00 0.  1.
        -15    1    4    4    0    0  0.24404359060E+02 -0.44923845988E+01 -0.20892762559E+02  0.32438584863E+02  0.00000000000E+00 0. -1.
         15    1    4    4    0    0  0.19923348136E+03 -0.14071786402E+03  0.72145625790E+02  0.25436290742E+03  0.00000000000E+00 0.  1.
         15    1    5    5    0    0 -0.14692190535E+03 -0.14805608375E+03  0.82364391972E+03  0.84964460611E+03  0.00000000000E+00 0. -1.
        -16    1    5    5    0    0 -0.55883306891E+02 -0.73762995214E+02  0.18125238820E+03  0.20351007759E+03  0.00000000000E+00 0.  1.
         16    1    1    2    0    0 -0.33994082068E+02  0.30221714163E+03 -0.33746592515E+03  0.45428410598E+03  0.00000000000E+00 0. -1.
    9900018    1    3    3    0    0 -0.12506161276E+03 -0.33976236121E+01 -0.44470636372E+03  0.47088308439E+03  0.91187600000E+02 0.  0.
<mgrwt>
<rscale>  0 0.26816260E+04</rscale>
<asrwt>0</asrwt>
<pdfrwt beam="1">  1        2 0.21536572E+00 0.26816260E+04</pdfrwt>
<pdfrwt beam="2">  1       -2 0.19757553E+00 0.26816260E+04</pdfrwt>
<totfact> 0.17547950E+00</totfact>
</mgrwt>
</event>
<event>
12    1  0.5974998E-009  0.2454992E+04  0.7818608E-02  0.8419197E-01
         -2   -1    0    0    0  501 -0.00000000000E+00  0.00000000000E+00  0.19220499408E+04  0.19220499408E+04  0.00000000000E+00 0.  1.
          2   -1    0    0  501    0  0.00000000000E+00 -0.00000000000E+00 -0.78392700682E+03  0.78392700682E+03  0.00000000000E+00 0. -1.
    9900016    2    1    2    0    0 -0.17186523807E+03  0.74320432199E+02  0.12036022221E+04  0.25076118199E+04  0.21918935977E+04 0.  0.
         23    2    3    3    0    0 -0.74473168953E+02 -0.11977555359E+03  0.63043378602E+03  0.65234156683E+03  0.90610844439E+02 0.  0.
        -24    2    3    3    0    0 -0.16636587926E+03  0.51632581055E+03 -0.45070089738E+03  0.70807861900E+03  0.63040331201E+02 0.  0.
        -15    1    3    3    0    0 -0.63945676668E+02 -0.33320556874E+03  0.54683352098E+03  0.64353857714E+03  0.00000000000E+00 0.  1.
        -15    1    4    4    0    0  0.18870238312E+02 -0.41330660287E+02  0.15498731607E+03  0.16150968242E+03  0.00000000000E+00 0. -1.
         15    1    4    4    0    0 -0.93343407265E+02 -0.78444893304E+02  0.47544646995E+03  0.49083188441E+03  0.00000000000E+00 0.  1.
         15    1    5    5    0    0 -0.35639390387E+02  0.16210251220E+03 -0.17005527710E+03  0.23762615151E+03  0.00000000000E+00 0. -1.
        -16    1    5    5    0    0 -0.13072648888E+03  0.35422329835E+03 -0.28064562028E+03  0.47045246749E+03  0.00000000000E+00 0.  1.
         16    1    1    2    0    0  0.17186523807E+03 -0.74320432199E+02 -0.65479288196E+02  0.19836512768E+03  0.00000000000E+00 0. -1.
    9900018    1    3    3    0    0  0.13291948682E+03  0.10975743980E+02  0.47703581252E+03  0.50365305693E+03  0.91187600000E+02 0.  0.
<mgrwt>
<rscale>  0 0.24549923E+04</rscale>
<asrwt>0</asrwt>
<pdfrwt beam="1">  1        2 0.12060415E+00 0.24549923E+04</pdfrwt>
<pdfrwt beam="2">  1       -2 0.29569999E+00 0.24549923E+04</pdfrwt>
<totfact> 0.10699209E+00</totfact>
</mgrwt>
</event>
<event>
12    1  0.7467073E-009  0.3891604E+04  0.7818608E-02  0.8026778E-01
         -2   -1    0    0    0  501 -0.00000000000E+00  0.00000000000E+00  0.13106152244E+04  0.13106152244E+04  0.00000000000E+00 0.  1.
          2   -1    0    0  501    0  0.00000000000E+00 -0.00000000000E+00 -0.28888299434E+04  0.28888299434E+04  0.00000000000E+00 0. -1.
    9900016    2    1    2    0    0 -0.18272586215E+03  0.10179558451E+04 -0.18687801410E+03  0.24658244857E+04  0.22306376126E+04 0.  0.
         23    2    3    3    0    0 -0.17141555993E+03  0.42523888802E+02  0.30617934551E+03  0.36516127333E+03  0.91680906515E+02 0.  0.
        -24    2    3    3    0    0 -0.38245253339E+03  0.12581411999E+04 -0.37438100603E+03  0.13702406168E+04  0.90603482065E+02 0.  0.
        -15    1    4    4    0    0 -0.14918100440E+03  0.25151020156E+02  0.17657820691E+03  0.23252399671E+03  0.00000000000E+00 0.  1.
        -15    1    3    3    0    0  0.44675070024E+03 -0.24496768423E+03 -0.23416107504E+03  0.56073769585E+03  0.00000000000E+00 0.  1.
         15    1    4    4    0    0 -0.22234555531E+02  0.17372868647E+02  0.12960113860E+03  0.13263727663E+03  0.00000000000E+00 0. -1.
         15    1    5    5    0    0 -0.21096461876E+03  0.83909240526E+03 -0.23707444423E+03  0.89709889480E+03  0.00000000000E+00 0. -1.
        -16    1    5    5    0    0 -0.17148791463E+03  0.41904879468E+03 -0.13730656180E+03  0.47314172201E+03  0.00000000000E+00 0.  1.
         16    1    1    2    0    0  0.18272586215E+03 -0.10179558451E+04 -0.13913367049E+04  0.17336206822E+04  0.00000000000E+00 0. -1.
    9900018    1    3    3    0    0 -0.75608469076E+02 -0.37741559390E+02  0.11548472146E+03  0.16968489970E+03  0.91187600000E+02 0.  0.
<mgrwt>
<rscale>  0 0.38916035E+04</rscale>
<asrwt>0</asrwt>
<pdfrwt beam="1">  1        2 0.44443537E+00 0.38916035E+04</pdfrwt>
<pdfrwt beam="2">  1       -2 0.20163311E+00 0.38916035E+04</pdfrwt>
<totfact> 0.21068408E-01</totfact>
</mgrwt>
</event>
<event>
12    1  0.5974998E-009  0.3084474E+04  0.7818608E-02  0.8220012E-01
         -2   -1    0    0    0  501 -0.00000000000E+00  0.00000000000E+00  0.11333298659E+04  0.11333298659E+04  0.00000000000E+00 0.  1.
          2   -1    0    0  501    0  0.00000000000E+00 -0.00000000000E+00 -0.20986790067E+04  0.20986790067E+04  0.00000000000E+00 0. -1.
    9900016    2    1    2    0    0  0.21531656080E+03  0.57076515869E+03 -0.12019055490E+04  0.25777206930E+04  0.21972557737E+04 0.  0.
         23    2    3    3    0    0 -0.10613933344E+03 -0.92437506268E+01 -0.20164082755E+02  0.14291634363E+03  0.93099334113E+02 0.  0.
         24    2    3    3    0    0  0.34809219786E+03  0.29133910419E+03  0.26510042425E+03  0.53366195806E+03  0.92033682418E+02 0.  0.
        -15    1    4    4    0    0 -0.34684325508E+02  0.50470962664E+01  0.36503146252E+02  0.50605882099E+02  0.00000000000E+00 0.  1.
        -15    1    5    5    0    0  0.12557972185E+03  0.50808972190E+02  0.79935927463E+02  0.15729453485E+03  0.00000000000E+00 0.  1.
         15    1    4    4    0    0 -0.71455007935E+02 -0.14290846893E+02 -0.56667229007E+02  0.92310461527E+02  0.00000000000E+00 0. -1.
         15    1    3    3    0    0  0.49692073629E+03  0.35100965244E+03 -0.11187682991E+04  0.12734914610E+04  0.00000000000E+00 0. -1.
        -16    1    1    2    0    0 -0.21531656080E+03 -0.57076515869E+03  0.23655640813E+03  0.65428817959E+03  0.00000000000E+00 0.  1.
         16    1    5    5    0    0  0.22251247601E+03  0.24053013200E+03  0.18516449678E+03  0.37636742320E+03  0.00000000000E+00 0. -1.
    9900018    1    3    3    0    0 -0.52355703991E+03 -0.62339847314E+02 -0.32807359141E+03  0.62765093035E+03  0.91187600000E+02 0.  0.
<mgrwt>
<rscale>  0 0.30844744E+04</rscale>
<asrwt>0</asrwt>
<pdfrwt beam="1">  1        2 0.32287369E+00 0.30844744E+04</pdfrwt>
<pdfrwt beam="2">  1       -2 0.17435844E+00 0.30844744E+04</pdfrwt>
<totfact> 0.99340991E-01</totfact>
</mgrwt>
</event>
<event>
12    1  0.5974998E-009  0.2474004E+04  0.7818608E-02  0.8412306E-01
          2   -1    0    0  501    0  0.00000000000E+00  0.00000000000E+00  0.16019003350E+04  0.16019003350E+04  0.00000000000E+00 0. -1.
         -2   -1    0    0    0  501 -0.00000000000E+00 -0.00000000000E+00 -0.95522406958E+03  0.95522406958E+03  0.00000000000E+00 0.  1.
    9900016    2    1    2    0    0 -0.15752525306E+03 -0.18781266013E+03  0.50466848634E+03  0.22738330175E+04  0.22035286497E+04 0.  0.
         23    2    3    3    0    0 -0.82188759567E+02 -0.44254328080E+03 -0.23511544679E+03  0.51602059801E+03  0.91642984857E+02 0.  0.
        -24    2    3    3    0    0 -0.18202628118E+03  0.29221849717E+03  0.11885917057E+04  0.12410708667E+04  0.94770439660E+02 0.  0.
        -15    1    3    3    0    0  0.78603525900E+02 -0.77399270757E+02 -0.37173149620E+03  0.38775438961E+03  0.00000000000E+00 0.  1.
        -15    1    4    4    0    0 -0.56889164105E+02 -0.26237380132E+03 -0.18901489183E+03  0.32833369907E+03  0.00000000000E+00 0.  1.
         15    1    4    4    0    0 -0.25299595462E+02 -0.18016947948E+03 -0.46100554955E+02  0.18768689894E+03  0.00000000000E+00 0. -1.
         15    1    5    5    0    0 -0.14754688566E+03  0.21809734143E+03  0.74888282094E+03  0.79382744555E+03  0.00000000000E+00 0. -1.
        -16    1    5    5    0    0 -0.34479395512E+02  0.74121155742E+02  0.43970888477E+03  0.44724342118E+03  0.00000000000E+00 0.  1.
         16    1    1    2    0    0  0.15752525306E+03  0.18781266013E+03  0.14200777913E+03  0.28329138708E+03  0.00000000000E+00 0. -1.
    9900018    1    3    3    0    0  0.28086261784E+02  0.39911394258E+02 -0.77076276393E+02  0.12898716319E+03  0.91187600000E+02 0.  0.
<mgrwt>
<rscale>  0 0.24740038E+04</rscale>
<asrwt>0</asrwt>
<pdfrwt beam="1">  1        2 0.24644620E+00 0.24740038E+04</pdfrwt>
<pdfrwt beam="2">  1       -2 0.14695755E+00 0.24740038E+04</pdfrwt>
<totfact> 0.31456169E+00</totfact>
</mgrwt>
</event>
