<event>
11    1  0.5047901E-016  0.1068199E+04  0.7818608E-02  0.9236754E-01
         -2   -1    0    0    0  501 -0.00000000000E+00  0.00000000000E+00  0.13829385528E+03  0.13829385528E+03  0.00000000000E+00 0.  1.
          2   -1    0    0  501    0  0.00000000000E+00 -0.00000000000E+00 -0.20627263234E+04  0.20627263234E+04  0.00000000000E+00 0. -1.
    9900016    2    1    2    0    0 -0.21621810915E+03 -0.34842440322E+02 -0.13076774739E+04  0.14840760540E+04  0.66670615123E+03 0.  0.
         23    2    3    3    0    0 -0.16534363565E+03 -0.19359711982E+03 -0.59870709162E+03  0.66117770596E+03  0.11784487536E+03 0.  0.
        -15    1    4    4    0    0 -0.14607771851E+03 -0.10000643172E+03 -0.45865355476E+03  0.49163306390E+03  0.00000000000E+00 0. -1.
        -15    1    3    3    0    0  0.16229289393E+02 -0.64854867918E+01  0.49484252270E+01  0.18164203406E+02  0.00000000000E+00 0. -1.
         15    1    4    4    0    0 -0.19265917133E+02 -0.93590688097E+02 -0.14005353686E+03  0.16954464205E+03  0.00000000000E+00 0.  1.
         15    1    3    3    0    0 -0.10039779187E+03 -0.90234441309E+01 -0.56258007166E+03  0.57153956660E+03  0.00000000000E+00 0.  1.
        -16    1    1    2    0    0  0.25148606304E+03  0.15945182056E+02 -0.34281422330E+03  0.42546572181E+03  0.00000000000E+00 0.  1.
         16    1    3    3    0    0  0.33294028974E+02  0.17426361042E+03 -0.15133873583E+03  0.23319457807E+03  0.00000000000E+00 0. -1.
    9900018    1    1    2    0    0 -0.35267953892E+02  0.18897258267E+02 -0.27394077093E+03  0.29147840283E+03  0.91187600000E+02 0.  0.
<mgrwt>
<rscale>  0 0.10681992E+04</rscale>
<asrwt>0</asrwt>
<pdfrwt beam="1">  1        2 0.31734250E+00 0.10681992E+04</pdfrwt>
<pdfrwt beam="2">  1       -2 0.21275979E-01 0.10681992E+04</pdfrwt>
<totfact> 0.11788357E+02</totfact>
</mgrwt>
</event>
<event>
11    1  0.5047901E-016  0.8752669E+03  0.7818608E-02  0.9457038E-01
          2   -1    0    0  501    0  0.00000000000E+00  0.00000000000E+00  0.70694650792E+03  0.70694650792E+03  0.00000000000E+00 0. -1.
         -2   -1    0    0    0  501 -0.00000000000E+00 -0.00000000000E+00 -0.27091586195E+03  0.27091586195E+03  0.00000000000E+00 0.  1.
    9900016    2    1    2    0    0  0.56881314618E+02  0.82756246475E+02  0.34951019281E+03  0.75847891948E+03  0.66561912242E+03 0.  0.
         23    2    3    3    0    0  0.12514979625E+03 -0.25335146677E+02 -0.60945731713E+02  0.16157464136E+03  0.78023338550E+02 0.  0.
        -15    1    3    3    0    0  0.90931417851E+01  0.70102060527E+02 -0.18541926091E+02  0.73080689247E+02  0.00000000000E+00 0. -1.
        -15    1    4    4    0    0  0.11954418013E+02  0.48247390069E+01 -0.40701005966E+02  0.42693771245E+02  0.00000000000E+00 0.  1.
         15    1    4    4    0    0  0.11319537824E+03 -0.30159885684E+02 -0.20244725747E+02  0.11888087012E+03  0.00000000000E+00 0.  1.
         15    1    3    3    0    0  0.54030867970E+02 -0.96639930787E+02  0.13233455038E+03  0.17254287624E+03  0.00000000000E+00 0. -1.
        -16    1    1    2    0    0 -0.68755191683E+02 -0.85297577950E+02  0.44562588063E+02  0.11827416219E+03  0.00000000000E+00 0.  1.
         16    1    3    3    0    0 -0.13139249139E+03  0.13462926341E+03  0.29666330023E+03  0.35128071263E+03  0.00000000000E+00 0. -1.
    9900018    1    1    2    0    0  0.11873877065E+02  0.25413314749E+01  0.41957865106E+02  0.10110928820E+03  0.91187600000E+02 0.  0.
<mgrwt>
<rscale>  0 0.87526687E+03</rscale>
<asrwt>0</asrwt>
<pdfrwt beam="1">  1        2 0.10876100E+00 0.87526687E+03</pdfrwt>
<pdfrwt beam="2">  1       -2 0.41679364E-01 0.87526687E+03</pdfrwt>
<totfact> 0.22147592E+02</totfact>
</mgrwt>
</event>
<event>
11    1  0.5047901E-016  0.9900699E+03  0.7818608E-02  0.9319504E-01
          2   -1    0    0  501    0  0.00000000000E+00  0.00000000000E+00  0.27187720130E+04  0.27187720130E+04  0.00000000000E+00 0. -1.
         -2   -1    0    0    0  501 -0.00000000000E+00 -0.00000000000E+00 -0.90136129730E+02  0.90136129730E+02  0.00000000000E+00 0.  1.
    9900016    2    1    2    0    0 -0.93556157015E+02 -0.41884338626E+02  0.25918806879E+04  0.27000137134E+04  0.74948082051E+03 0.  0.
         23    2    3    3    0    0  0.32962240522E+01 -0.12341079559E+03  0.23856963301E+03  0.27673596285E+03  0.66529946466E+02 0.  0.
        -15    1    4    4    0    0 -0.20625982731E+02 -0.16801100095E+02  0.78879981248E+02  0.83245177456E+02  0.00000000000E+00 0. -1.
        -15    1    3    3    0    0  0.69114144663E+01  0.72295883200E+02  0.39974092764E+03  0.40628471742E+03  0.00000000000E+00 0.  1.
         15    1    3    3    0    0 -0.69673270381E+02 -0.12350639374E+03  0.21677316651E+03  0.25903435992E+03  0.00000000000E+00 0. -1.
         15    1    4    4    0    0  0.23922206783E+02 -0.10660969550E+03  0.15968965176E+03  0.19349078539E+03  0.00000000000E+00 0.  1.
        -16    1    1    2    0    0  0.93556157015E+02  0.41884338626E+02  0.36755195384E+02  0.10889442927E+03  0.00000000000E+00 0.  1.
         16    1    3    3    0    0 -0.33624293915E+02  0.15681949309E+03  0.13648121489E+04  0.13742034596E+04  0.00000000000E+00 0. -1.
    9900018    1    3    3    0    0 -0.46623123806E+00 -0.24082525577E+02  0.37198481176E+03  0.38375521362E+03  0.91187600000E+02 0.  0.
<mgrwt>
<rscale>  0 0.99006987E+03</rscale>
<asrwt>0</asrwt>
<pdfrwt beam="1">  1        2 0.41827255E+00 0.99006987E+03</pdfrwt>
<pdfrwt beam="2">  1       -2 0.13867099E-01 0.99006987E+03</pdfrwt>
<totfact> 0.10548827E+02</totfact>
</mgrwt>
</event>
<event>
11    1  0.5047901E-016  0.1079075E+04  0.7818608E-02  0.9225831E-01
          1   -1    0    0  501    0  0.00000000000E+00  0.00000000000E+00  0.32895991437E+04  0.32895991437E+04  0.00000000000E+00 0. -1.
         -1   -1    0    0    0  501 -0.00000000000E+00 -0.00000000000E+00 -0.88491177483E+02  0.88491177483E+02  0.00000000000E+00 0.  1.
    9900016    2    1    2    0    0  0.16447568645E+03  0.17772451179E+03  0.18502710886E+04  0.19776455661E+04  0.65493559230E+03 0.  0.
    9900016    2    3    3    0    0  0.14328582564E+03  0.86303791661E+02  0.16539535234E+04  0.17476619767E+04  0.53924109153E+03 0.  0.
        -15    1    4    4    0    0  0.13470485322E+02 -0.39709158209E+02  0.66425221750E+02  0.78553047713E+02  0.00000000000E+00 0. -1.
        -15    1    3    3    0    0  0.48440251913E+02  0.45832223850E+02  0.10882296209E+03  0.12763027786E+03  0.00000000000E+00 0. -1.
         15    1    3    3    0    0 -0.27250391100E+02  0.45588496280E+02  0.87494603112E+02  0.10235331153E+03  0.00000000000E+00 0.  1.
         15    1    4    4    0    0 -0.19605364269E+02 -0.17108025755E+03  0.39126621995E+03  0.42748342623E+03  0.00000000000E+00 0.  1.
        -16    1    4    4    0    0  0.14942070459E+03  0.29709320742E+03  0.11962620817E+04  0.12416255027E+04  0.00000000000E+00 0.  1.
         16    1    1    2    0    0 -0.17677388934E+03 -0.14994320266E+03  0.11955839025E+04  0.12178476258E+04  0.00000000000E+00 0. -1.
    9900018    1    1    2    0    0  0.12298202891E+02 -0.27781309127E+02  0.15525297510E+03  0.18259712923E+03  0.91187600000E+02 0.  0.
<mgrwt>
<rscale>  0 0.10790746E+04</rscale>
<asrwt>0</asrwt>
<pdfrwt beam="1">  1        1 0.50609208E+00 0.10790746E+04</pdfrwt>
<pdfrwt beam="2">  1       -1 0.13614030E-01 0.10790746E+04</pdfrwt>
<totfact> 0.14325079E+01</totfact>
</mgrwt>
</event>
<event>
11    1  0.5047901E-016  0.1224056E+04  0.7818608E-02  0.9092057E-01
          2   -1    0    0  501    0  0.00000000000E+00  0.00000000000E+00  0.16874474974E+04  0.16874474974E+04  0.00000000000E+00 0. -1.
         -2   -1    0    0    0  501 -0.00000000000E+00 -0.00000000000E+00 -0.22197927778E+03  0.22197927778E+03  0.00000000000E+00 0.  1.
    9900016    2    1    2    0    0  0.21613373933E+03 -0.19416070079E+03  0.76055106665E+03  0.10542210122E+04  0.66972520225E+03 0.  0.
         23    2    3    3    0    0 -0.12613663179E+03 -0.86453090255E+02  0.11029394241E+03  0.21732124017E+03  0.10807025957E+03 0.  0.
        -15    1    4    4    0    0 -0.43351988614E+02  0.19571459448E+02  0.77843418762E+01  0.48197851821E+02  0.00000000000E+00 0.  1.
        -15    1    3    3    0    0  0.23244154394E+03 -0.97204115813E+02  0.29393586984E+03  0.38713822733E+03  0.00000000000E+00 0.  1.
         15    1    3    3    0    0  0.58755572871E+02  0.12034310346E+03  0.17879035196E+03  0.22338457836E+03  0.00000000000E+00 0. -1.
         15    1    4    4    0    0 -0.82784643174E+02 -0.10602454970E+03  0.10250960054E+03  0.16912338835E+03  0.00000000000E+00 0. -1.
        -16    1    3    3    0    0  0.51073254313E+02 -0.13084659818E+03  0.17753090244E+03  0.22637696632E+03  0.00000000000E+00 0.  1.
         16    1    1    2    0    0 -0.23670557600E+03  0.26226509697E+03  0.61281073826E+03  0.70735388012E+03  0.00000000000E+00 0. -1.
    9900018    1    1    2    0    0  0.20571836669E+02 -0.68104396179E+02  0.92106414701E+02  0.14785188286E+03  0.91187600000E+02 0.  0.
<mgrwt>
<rscale>  0 0.12240562E+04</rscale>
<asrwt>0</asrwt>
<pdfrwt beam="1">  1        2 0.25960730E+00 0.12240562E+04</pdfrwt>
<pdfrwt beam="2">  1       -2 0.34150659E-01 0.12240562E+04</pdfrwt>
<totfact> 0.78818954E+01</totfact>
</mgrwt>
</event>
<event>
11    1  0.5047901E-016  0.9651466E+03  0.7818608E-02  0.9347620E-01
          2   -1    0    0  501    0  0.00000000000E+00  0.00000000000E+00  0.24582030643E+03  0.24582030643E+03  0.00000000000E+00 0. -1.
         -2   -1    0    0    0  501 -0.00000000000E+00 -0.00000000000E+00 -0.94734650801E+03  0.94734650801E+03  0.00000000000E+00 0.  1.
    9900016    2    1    2    0    0  0.83004076482E+02  0.18586190592E+03 -0.46139372830E+03  0.82802889584E+03  0.65674451277E+03 0.  0.
         23    2    3    3    0    0  0.26817206852E+03  0.19609595152E+03 -0.29846762691E+03  0.45338793794E+03  0.78152526632E+02 0.  0.
        -15    1    4    4    0    0  0.26624487039E+03  0.17444286235E+03 -0.28801857380E+03  0.42926838002E+03  0.00000000000E+00 0. -1.
        -15    1    3    3    0    0 -0.11325357291E+03  0.77751521024E+02 -0.20070394970E+03  0.24321543171E+03  0.00000000000E+00 0.  1.
         15    1    4    4    0    0  0.19271981332E+01  0.21653089172E+02 -0.10449053111E+02  0.24119557920E+02  0.00000000000E+00 0.  1.
         15    1    3    3    0    0 -0.41054264246E+02 -0.52249040929E+02 -0.64099817161E+01  0.66757042748E+02  0.00000000000E+00 0. -1.
        -16    1    3    3    0    0 -0.30860154888E+02 -0.35736525699E+02  0.44187830023E+02  0.64668483444E+02  0.00000000000E+00 0.  1.
         16    1    1    2    0    0 -0.79148182025E+02 -0.14868814100E+03 -0.19215328821E+03  0.25552981071E+03  0.00000000000E+00 0. -1.
    9900018    1    1    2    0    0 -0.38558944567E+01 -0.37173764920E+02 -0.47979185070E+02  0.10960810789E+03  0.91187600000E+02 0.  0.
<mgrwt>
<rscale>  0 0.96514664E+03</rscale>
<asrwt>0</asrwt>
<pdfrwt beam="1">  1        2 0.37818507E-01 0.96514664E+03</pdfrwt>
<pdfrwt beam="2">  1       -2 0.14574562E+00 0.96514664E+03</pdfrwt>
<totfact> 0.44311144E+01</totfact>
</mgrwt>
</event>
<event>
11    1  0.5047901E-016  0.1049975E+04  0.7818608E-02  0.9255370E-01
          2   -1    0    0  501    0  0.00000000000E+00  0.00000000000E+00  0.48260733718E+03  0.48260733718E+03  0.00000000000E+00 0. -1.
         -2   -1    0    0    0  501 -0.00000000000E+00 -0.00000000000E+00 -0.57108887594E+03  0.57108887594E+03  0.00000000000E+00 0.  1.
    9900016    2    1    2    0    0 -0.58386992351E+01  0.15067370233E+03 -0.27225717582E+03  0.81597759844E+03  0.75429358766E+03 0.  0.
         23    2    3    3    0    0 -0.18993640653E+03  0.21020367622E+03 -0.69334914853E+02  0.29900971591E+03  0.65863918547E+02 0.  0.
        -15    1    4    4    0    0 -0.98688042277E+02  0.11862913920E+03 -0.70676255427E+02  0.16972723834E+03  0.00000000000E+00 0. -1.
        -15    1    3    3    0    0  0.34967385131E+02 -0.85822345950E+01 -0.19821320780E+02  0.41100578232E+02  0.00000000000E+00 0.  1.
         15    1    3    3    0    0 -0.35678373820E+02  0.24747371276E+02  0.58275466447E+02  0.72673301378E+02  0.00000000000E+00 0. -1.
         15    1    4    4    0    0 -0.91248364248E+02  0.91574537029E+02  0.13413405731E+01  0.12928247756E+03  0.00000000000E+00 0.  1.
        -16    1    3    3    0    0  0.20357360735E+03 -0.99894096825E+02 -0.16840892963E+03  0.28245815933E+03  0.00000000000E+00 0.  1.
         16    1    1    2    0    0  0.58386992351E+01 -0.15067370233E+03  0.18377563707E+03  0.23771861467E+03  0.00000000000E+00 0. -1.
    9900018    1    3    3    0    0 -0.18764911374E+02  0.24198986252E+02 -0.72967477009E+02  0.12073584360E+03  0.91187600000E+02 0.  0.
<mgrwt>
<rscale>  0 0.10499746E+04</rscale>
<asrwt>0</asrwt>
<pdfrwt beam="1">  1        2 0.74247283E-01 0.10499746E+04</pdfrwt>
<pdfrwt beam="2">  1       -2 0.87859827E-01 0.10499746E+04</pdfrwt>
<totfact> 0.71408160E+01</totfact>
</mgrwt>
</event>
<event>
11    1  0.5047901E-016  0.1013163E+04  0.7818608E-02  0.9294224E-01
          2   -1    0    0  501    0  0.00000000000E+00  0.00000000000E+00  0.23390956251E+04  0.23390956251E+04  0.00000000000E+00 0. -1.
         -2   -1    0    0    0  501 -0.00000000000E+00 -0.00000000000E+00 -0.10971117883E+03  0.10971117883E+03  0.00000000000E+00 0.  1.
    9900016    2    1    2    0    0 -0.12475800514E+03  0.18404771337E+03  0.18554341558E+04  0.20137471065E+04  0.75040214652E+03 0.  0.
         23    2    3    3    0    0 -0.67168283602E+02  0.10488789278E+03  0.22755456068E+03  0.28673163185E+03  0.12215114506E+03 0.  0.
        -15    1    4    4    0    0  0.12411142173E+02  0.89578430982E+02  0.14614972355E+03  0.17186644070E+03  0.00000000000E+00 0.  1.
        -15    1    3    3    0    0  0.16415075627E+02 -0.50919627619E+02  0.88043082925E+02  0.10302352952E+03  0.00000000000E+00 0. -1.
         15    1    3    3    0    0 -0.10953175470E+03 -0.11282350824E+03  0.42147782710E+03  0.44985543015E+03  0.00000000000E+00 0.  1.
         15    1    4    4    0    0 -0.79579425774E+02  0.15309461802E+02  0.81404837137E+02  0.11486519114E+03  0.00000000000E+00 0. -1.
        -16    1    1    2    0    0  0.12475800514E+03 -0.18404771337E+03  0.37395029045E+03  0.43505969748E+03  0.00000000000E+00 0.  1.
         16    1    3    3    0    0  0.35784424082E+02  0.25350896727E+03  0.93000340162E+03  0.96460025322E+03  0.00000000000E+00 0. -1.
    9900018    1    3    3    0    0 -0.25746654631E+00 -0.10606010818E+02  0.18835528352E+03  0.20953626172E+03  0.91187600000E+02 0.  0.
<mgrwt>
<rscale>  0 0.10131632E+04</rscale>
<asrwt>0</asrwt>
<pdfrwt beam="1">  1        2 0.35986083E+00 0.10131632E+04</pdfrwt>
<pdfrwt beam="2">  1       -2 0.16878645E-01 0.10131632E+04</pdfrwt>
<totfact> 0.12445624E+02</totfact>
</mgrwt>
</event>
<event>
11    1  0.5047901E-016  0.9047919E+03  0.7818608E-02  0.9419611E-01
          2   -1    0    0  501    0  0.00000000000E+00  0.00000000000E+00  0.84689988841E+03  0.84689988841E+03  0.00000000000E+00 0. -1.
         -2   -1    0    0    0  501 -0.00000000000E+00 -0.00000000000E+00 -0.24166030324E+03  0.24166030324E+03  0.00000000000E+00 0.  1.
    9900016    2    1    2    0    0  0.46102809031E+02 -0.42721082799E+02  0.37034953079E+03  0.75226187499E+03  0.65175807911E+03 0.  0.
         23    2    3    3    0    0  0.20182573765E+03 -0.99915533870E+01 -0.11083735619E+02  0.21553301808E+03  0.74149667357E+02 0.  0.
        -15    1    4    4    0    0  0.12721222519E+03 -0.38696837535E+02  0.84516887343E+01  0.13323598056E+03  0.00000000000E+00 0.  1.
        -15    1    3    3    0    0  0.27863201033E+02  0.78534974884E+02  0.41367132556E+02  0.93034079281E+02  0.00000000000E+00 0. -1.
         15    1    3    3    0    0  0.18490045625E+02 -0.51688214537E+02  0.16021560078E+02  0.57186044596E+02  0.00000000000E+00 0. -1.
         15    1    4    4    0    0  0.74613512465E+02  0.28705284148E+02 -0.19535424354E+02  0.82297037523E+02  0.00000000000E+00 0.  1.
        -16    1    3    3    0    0 -0.20207617528E+03 -0.59576289759E+02  0.32404457377E+03  0.38650873303E+03  0.00000000000E+00 0.  1.
         16    1    1    2    0    0 -0.10594578465E+03 -0.14461330081E+02  0.15910218647E+03  0.19169544881E+03  0.00000000000E+00 0. -1.
    9900018    1    1    2    0    0  0.59842975622E+02  0.57182412879E+02  0.75787867917E+02  0.14460286785E+03  0.91187600000E+02 0.  0.
<mgrwt>
<rscale>  0 0.90479187E+03</rscale>
<asrwt>0</asrwt>
<pdfrwt beam="1">  1        2 0.13029229E+00 0.90479187E+03</pdfrwt>
<pdfrwt beam="2">  1       -2 0.37178509E-01 0.90479187E+03</pdfrwt>
<totfact> 0.21791107E+02</totfact>
</mgrwt>
</event>
<event>
11    1  0.5047901E-016  0.8979593E+03  0.7818608E-02  0.9428136E-01
          2   -1    0    0  501    0  0.00000000000E+00  0.00000000000E+00  0.56324336996E+03  0.56324336996E+03  0.00000000000E+00 0. -1.
         -2   -1    0    0    0  501 -0.00000000000E+00 -0.00000000000E+00 -0.35789628673E+03  0.35789628673E+03  0.00000000000E+00 0.  1.
    9900016    2    1    2    0    0 -0.21304812633E+02  0.10938364773E+03  0.13591450171E+03  0.69293448312E+03  0.67027365209E+03 0.  0.
         23    2    3    3    0    0  0.11534356572E+03  0.23374024208E+03  0.15023701969E+03  0.30849298773E+03  0.68250439386E+02 0.  0.
        -15    1    3    3    0    0  0.51803760787E+02  0.43500896681E+02 -0.76904420648E+02  0.10242190956E+03  0.00000000000E+00 0.  1.
        -15    1    4    4    0    0  0.63059750750E+02  0.19332188709E+03  0.11249630018E+03  0.23239040804E+03  0.00000000000E+00 0.  1.
         15    1    4    4    0    0  0.52283814966E+02  0.40418354984E+02  0.37740719510E+02  0.76102579694E+02  0.00000000000E+00 0. -1.
         15    1    3    3    0    0 -0.35960181690E+02 -0.18945937988E+02  0.55461862982E+02  0.68761191662E+02  0.00000000000E+00 0. -1.
        -16    1    3    3    0    0 -0.15249195745E+03 -0.14891155304E+03  0.71200396868E+01  0.21325839416E+03  0.00000000000E+00 0.  1.
         16    1    1    2    0    0  0.40495382558E+02 -0.11690287359E+03  0.44138608888E+02  0.13135590834E+03  0.00000000000E+00 0. -1.
    9900018    1    1    2    0    0 -0.19190569925E+02  0.75192258552E+01  0.25293972632E+02  0.96849265236E+02  0.91187600000E+02 0.  0.
<mgrwt>
<rscale>  0 0.89795927E+03</rscale>
<asrwt>0</asrwt>
<pdfrwt beam="1">  1        2 0.86652826E-01 0.89795927E+03</pdfrwt>
<pdfrwt beam="2">  1       -2 0.55060967E-01 0.89795927E+03</pdfrwt>
<totfact> 0.16661350E+02</totfact>
</mgrwt>
</event>
<event>
11    1  0.5047901E-016  0.2477223E+04  0.7818608E-02  0.8411145E-01
         -1   -1    0    0    0  501 -0.00000000000E+00  0.00000000000E+00  0.61474055305E+03  0.61474055305E+03  0.00000000000E+00 0.  1.
          1   -1    0    0  501    0  0.00000000000E+00 -0.00000000000E+00 -0.24956203192E+04  0.24956203192E+04  0.00000000000E+00 0. -1.
    9900016    2    1    2    0    0  0.11692506183E+03  0.18972655704E+03  0.26909853805E+03  0.75445747527E+03  0.66867362912E+03 0.  0.
         23    2    3    3    0    0 -0.52838796014E+02  0.18870967309E+03  0.20253946016E+03  0.28893594993E+03  0.63706131251E+02 0.  0.
        -15    1    3    3    0    0  0.47776546035E+02  0.13165778363E+03  0.11354676895E+03  0.18030318655E+03  0.00000000000E+00 0.  1.
        -15    1    4    4    0    0 -0.35527405197E+02  0.56885683168E+02  0.36944056863E+02  0.76570495669E+02  0.00000000000E+00 0.  1.
         15    1    4    4    0    0 -0.17311390817E+02  0.13182398992E+03  0.16559540329E+03  0.21236545426E+03  0.00000000000E+00 0. -1.
         15    1    3    3    0    0  0.94760562699E+02  0.43996034581E+02 -0.21112474313E+02  0.10658776606E+03  0.00000000000E+00 0. -1.
        -16    1    3    3    0    0  0.27226749105E+02 -0.17463693426E+03 -0.25875216743E+02  0.17863057273E+03  0.00000000000E+00 0.  1.
         16    1    1    2    0    0 -0.10944239523E+03 -0.22069413956E+03 -0.22218757283E+04  0.22354899448E+04  0.00000000000E+00 0. -1.
    9900018    1    1    2    0    0 -0.74826665921E+01  0.30967582521E+02  0.71897424162E+02  0.12041345216E+03  0.91187600000E+02 0.  0.
<mgrwt>
<rscale>  0 0.24772235E+04</rscale>
<asrwt>0</asrwt>
<pdfrwt beam="1">  1        1 0.38394159E+00 0.24772235E+04</pdfrwt>
<pdfrwt beam="2">  1       -1 0.94575470E-01 0.24772235E+04</pdfrwt>
<totfact> 0.13130997E+00</totfact>
</mgrwt>
</event>
<event>
10    1  0.5047901E-016  0.8783748E+03  0.7818608E-02  0.9453025E-01
         -1   -1    0    0    0  501 -0.00000000000E+00  0.00000000000E+00  0.39917850616E+03  0.39917850616E+03  0.00000000000E+00 0.  1.
          1   -1    0    0  501    0  0.00000000000E+00 -0.00000000000E+00 -0.48320635106E+03  0.48320635106E+03  0.00000000000E+00 0. -1.
    9900016    2    1    2    0    0 -0.12947396919E+02  0.58446908299E+02 -0.16194545880E+02  0.66487701034E+03  0.66197847351E+03 0.  0.
        -15    1    3    3    0    0 -0.21334430699E+02 -0.50342546087E+01 -0.88343044170E+02  0.91021948485E+02  0.00000000000E+00 0.  1.
        -15    1    3    3    0    0 -0.48728621172E+02  0.15615272847E+03  0.15971886657E+03  0.22862254803E+03  0.00000000000E+00 0.  1.
         15    1    3    3    0    0  0.12477939182E+02  0.45589740323E+02  0.38373174922E+02  0.60882049428E+02  0.00000000000E+00 0. -1.
         15    1    3    3    0    0  0.11777958908E+03 -0.27456013820E+02 -0.46118867986E+02  0.12943266312E+03  0.00000000000E+00 0. -1.
        -16    1    3    3    0    0 -0.73141873307E+02 -0.11080529206E+03 -0.79824675216E+02  0.15491780128E+03  0.00000000000E+00 0.  1.
         16    1    1    2    0    0  0.54464014008E+02 -0.54452266097E+02 -0.86170684029E+02  0.11557147092E+03  0.00000000000E+00 0. -1.
    9900018    1    1    2    0    0 -0.41516617089E+02 -0.39946422024E+01  0.18337385015E+02  0.10193637596E+03  0.91187600000E+02 0.  0.
<mgrwt>
<rscale>  0 0.87837484E+03</rscale>
<asrwt>0</asrwt>
<pdfrwt beam="1">  1        1 0.74339439E-01 0.87837484E+03</pdfrwt>
<pdfrwt beam="2">  1       -1 0.61412078E-01 0.87837484E+03</pdfrwt>
<totfact> 0.12608441E+02</totfact>
</mgrwt>
</event>
<event>
10    1  0.5047901E-016  0.8942860E+03  0.7818608E-02  0.9432752E-01
          2   -1    0    0  501    0  0.00000000000E+00  0.00000000000E+00  0.16085240413E+04  0.16085240413E+04  0.00000000000E+00 0. -1.
         -2   -1    0    0    0  501 -0.00000000000E+00 -0.00000000000E+00 -0.12429834581E+03  0.12429834581E+03  0.00000000000E+00 0.  1.
    9900016    2    1    2    0    0  0.53850783561E+02  0.57963007128E+02  0.14678637567E+04  0.16520304932E+04  0.75387076155E+03 0.  0.
        -15    1    3    3    0    0 -0.13055058306E+02 -0.64905733656E+02  0.11686245411E+03  0.13431314898E+03  0.00000000000E+00 0.  1.
        -15    1    3    3    0    0 -0.10271542563E+03 -0.39916420364E+02  0.27149300037E+03  0.29300550938E+03  0.00000000000E+00 0.  1.
         15    1    3    3    0    0  0.13913760069E+02 -0.17735690598E+02 -0.39122826301E+01  0.22879103907E+02  0.00000000000E+00 0. -1.
         15    1    3    3    0    0  0.10777684202E+03 -0.46878886597E+02  0.47956107831E+03  0.49375328405E+03  0.00000000000E+00 0. -1.
        -16    1    1    2    0    0 -0.53850783561E+02 -0.57963007128E+02  0.16361938837E+02  0.80791893950E+02  0.00000000000E+00 0.  1.
         16    1    3    3    0    0  0.44204357066E+02  0.25520692784E+03  0.33941485849E+03  0.42695087231E+03  0.00000000000E+00 0. -1.
    9900018    1    3    3    0    0  0.37263083514E+01 -0.27807189496E+02  0.26444464802E+03  0.28112857454E+03  0.91187600000E+02 0.  0.
<mgrwt>
<rscale>  0 0.89428603E+03</rscale>
<asrwt>0</asrwt>
<pdfrwt beam="1">  1        2 0.24746522E+00 0.89428603E+03</pdfrwt>
<pdfrwt beam="2">  1       -2 0.19122824E-01 0.89428603E+03</pdfrwt>
<totfact> 0.25607819E+02</totfact>
</mgrwt>
</event>
<event>
10    1  0.5047901E-016  0.1064920E+04  0.7818608E-02  0.9240074E-01
         -4   -1    0    0    0  501 -0.00000000000E+00  0.00000000000E+00  0.12371391765E+04  0.12371391765E+04  0.00000000000E+00 0. -1.
          4   -1    0    0  501    0  0.00000000000E+00 -0.00000000000E+00 -0.22916865193E+03  0.22916865193E+03  0.00000000000E+00 0.  1.
    9900016    2    1    2    0    0  0.18881780962E+03  0.13385335313E+03  0.59129535433E+03  0.98966636687E+03  0.75910502323E+03 0.  0.
        -15    1    3    3    0    0  0.71530927128E+02  0.26316909040E+02 -0.98250811993E+00  0.76224789665E+02  0.00000000000E+00 0.  1.
        -15    1    3    3    0    0 -0.62821903202E+02  0.84854238678E+02 -0.52216961709E+02  0.11778558670E+03  0.00000000000E+00 0.  1.
         15    1    3    3    0    0 -0.15329037576E+02 -0.65172223066E+02  0.26407937591E+02  0.71970669166E+02  0.00000000000E+00 0. -1.
         15    1    3    3    0    0 -0.83999121200E+01  0.35037321203E+02  0.16288954034E+03  0.16682678068E+03  0.00000000000E+00 0. -1.
        -16    1    3    3    0    0  0.21298424638E+03  0.72373848323E+02  0.34917350902E+03  0.41535816175E+03  0.00000000000E+00 0.  1.
         16    1    1    2    0    0 -0.18881780962E+03 -0.13385335313E+03  0.41667517025E+03  0.47664146156E+03  0.00000000000E+00 0. -1.
    9900018    1    3    3    0    0 -0.91465109944E+01 -0.19556741050E+02  0.10602383720E+03  0.14150037891E+03  0.91187600000E+02 0.  0.
<mgrwt>
<rscale>  0 0.10649197E+04</rscale>
<asrwt>0</asrwt>
<pdfrwt beam="1">  1        4 0.35256716E-01 0.10649197E+04</pdfrwt>
<pdfrwt beam="2">  1       -4 0.19032910E+00 0.10649197E+04</pdfrwt>
<totfact> 0.23789335E+00</totfact>
</mgrwt>
</event>
