<event>
11    1  0.3436648E-013  0.4590633E+04  0.7818608E-02  0.8027676E-01
          1   -1    0    0  501    0  0.00000000000E+00  0.00000000000E+00  0.28305043761E+04  0.28305043761E+04  0.00000000000E+00 0. -1.
         -1   -1    0    0    0  501 -0.00000000000E+00 -0.00000000000E+00 -0.45065522911E+04  0.45065522911E+04  0.00000000000E+00 0.  1.
    9900016    2    1    2    0    0 -0.80811710779E+03 -0.22256281915E+03 -0.15347333836E+04  0.28059830240E+04  0.21944353952E+04 0.  0.
        -24    2    3    3    0    0 -0.17698022309E+03 -0.42995998809E+03 -0.19604819461E+04  0.20169271379E+04  0.91203223080E+02 0.  0.
        -15    1    1    2    0    0  0.57091883841E+03 -0.52979235668E+03 -0.48899490369E+03  0.91964355980E+03  0.00000000000E+00 0.  1.
        -15    1    3    3    0    0 -0.63113688470E+03  0.20739716894E+03  0.42574856250E+03  0.78905588609E+03  0.00000000000E+00 0.  1.
         15    1    1    2    0    0 -0.34729032060E+02 -0.12657114715E+04  0.70837298258E+03  0.14508700552E+04  0.00000000000E+00 0. -1.
         15    1    4    4    0    0 -0.32487893865E+02 -0.12429193149E+03 -0.71083517528E+03  0.72235074160E+03  0.00000000000E+00 0. -1.
        -16    1    4    4    0    0 -0.14449232923E+03 -0.30566805660E+03 -0.12496467708E+04  0.12945763963E+04  0.00000000000E+00 0.  1.
         16    1    1    2    0    0  0.12002083026E+03  0.16720333499E+04 -0.74806669262E+02  0.16780037428E+04  0.00000000000E+00 0. -1.
    9900018    1    1    2    0    0  0.15190647119E+03  0.34603329739E+03 -0.28588594106E+03  0.48255628540E+03  0.91187600000E+02 0.  0.
<mgrwt>
<rscale>  0 0.38873003E+04</rscale>
<asrwt>0</asrwt>
<pdfrwt beam="1">  1        1 0.43546221E+00 0.45906329E+04</pdfrwt>
<pdfrwt beam="2">  1       -1 0.69331574E+00 0.45906329E+04</pdfrwt>
<totfact> 0.11699947E-04</totfact>
</mgrwt>
</event>
<event>
11    1  0.3436648E-013  0.4843450E+04  0.7818608E-02  0.7853121E-01
          2   -1    0    0  501    0  0.00000000000E+00  0.00000000000E+00  0.39809457484E+04  0.39809457484E+04  0.00000000000E+00 0.  1.
         -2   -1    0    0    0  501 -0.00000000000E+00 -0.00000000000E+00 -0.14732054131E+04  0.14732054131E+04  0.00000000000E+00 0. -1.
    9900016    2    1    2    0    0  0.19704806678E+03  0.66097213983E+03  0.14666161917E+04  0.27211346059E+04  0.21858404286E+04 0.  0.
        -24    2    3    3    0    0 -0.81498160919E+03 -0.31598253493E+03  0.65938632025E+03  0.10993255644E+04  0.98419467395E+02 0.  0.
        -15    1    1    2    0    0  0.28729477049E+03 -0.28492647556E+03 -0.21205090341E+03  0.45682268690E+03  0.00000000000E+00 0.  1.
        -15    1    3    3    0    0  0.10120296760E+04  0.97695467476E+03  0.80722987150E+03  0.16218090415E+04  0.00000000000E+00 0.  1.
         15    1    4    4    0    0 -0.59259663766E+03 -0.25752168592E+03  0.44163981482E+03  0.78264546235E+03  0.00000000000E+00 0. -1.
         15    1    1    2    0    0  0.10310857507E+03 -0.76100963007E+03  0.24521299766E+02  0.76835429943E+03  0.00000000000E+00 0. -1.
        -16    1    4    4    0    0 -0.22238497152E+03 -0.58460849012E+02  0.21774650542E+03  0.31668010208E+03  0.00000000000E+00 0.  1.
         16    1    1    2    0    0 -0.25050366825E+03 -0.95842461816E+02  0.27425481919E+03  0.38360601030E+03  0.00000000000E+00 0. -1.
    9900018    1    1    2    0    0 -0.33694774410E+03  0.48080642761E+03  0.95439892799E+03  0.11242335590E+04  0.91187600000E+02 0.  0.
<mgrwt>
<rscale>  0 0.48434495E+04</rscale>
<asrwt>0</asrwt>
<pdfrwt beam="1">  1        2 0.61245319E+00 0.48434495E+04</pdfrwt>
<pdfrwt beam="2">  1       -2 0.22664699E+00 0.48434495E+04</pdfrwt>
<totfact> 0.23344218E-02</totfact>
</mgrwt>
</event>
<event>
11    1  0.3436648E-013  0.5011626E+04  0.7818608E-02  0.8024954E-01
         -2   -1    0    0    0  501 -0.00000000000E+00  0.00000000000E+00  0.33396839879E+04  0.33396839879E+04  0.00000000000E+00 0.  1.
          2   -1    0    0  501    0  0.00000000000E+00 -0.00000000000E+00 -0.36147908207E+04  0.36147908207E+04  0.00000000000E+00 0. -1.
    9900016    2    1    2    0    0  0.13128293152E+03  0.77346389271E+03 -0.84369573153E+03  0.24903853874E+04  0.22078757413E+04 0.  0.
         24    2    3    3    0    0  0.51638178749E+03  0.18181225595E+03 -0.14554355703E+04  0.15562663273E+04  0.62978847937E+02 0.  0.
        -15    1    1    2    0    0 -0.73442913586E+03  0.99032048197E+03 -0.34350938697E+03  0.12798904295E+04  0.00000000000E+00 0.  1.
        -15    1    4    4    0    0  0.49263892583E+03  0.18197018262E+03 -0.13588344490E+04  0.14567900735E+04  0.00000000000E+00 0.  1.
         15    1    3    3    0    0 -0.38509885597E+03  0.59165163676E+03  0.61173983876E+03  0.93411906011E+03  0.00000000000E+00 0. -1.
         15    1    1    2    0    0  0.81505920936E+03 -0.21636953128E+03 -0.33284395415E+03  0.90659935288E+03  0.00000000000E+00 0. -1.
        -16    1    1    2    0    0 -0.47495349215E+03 -0.37494044584E+03  0.77707397236E+03  0.98488837751E+03  0.00000000000E+00 0.  1.
         16    1    4    4    0    0  0.23742861656E+02 -0.15792667336E+00 -0.96601121329E+02  0.99476253762E+02  0.00000000000E+00 0. -1.
    9900018    1    1    2    0    0  0.26304048713E+03 -0.11724743976E+04  0.46786826751E+03  0.12927112612E+04  0.91187600000E+02 0.  0.
<mgrwt>
<rscale>  0 0.39003605E+04</rscale>
<asrwt>0</asrwt>
<pdfrwt beam="1">  1        2 0.55612167E+00 0.50116257E+04</pdfrwt>
<pdfrwt beam="2">  1       -2 0.51379754E+00 0.50116257E+04</pdfrwt>
<totfact> 0.62940729E-04</totfact>
</mgrwt>
</event>
<event>
11    1  0.3436648E-013  0.3308512E+04  0.7818608E-02  0.8350329E-01
          1   -1    0    0  501    0  0.00000000000E+00  0.00000000000E+00  0.26748055664E+04  0.26748055664E+04  0.00000000000E+00 0. -1.
         -1   -1    0    0    0  501 -0.00000000000E+00 -0.00000000000E+00 -0.20815970673E+04  0.20815970673E+04  0.00000000000E+00 0.  1.
    9900016    2    1    2    0    0  0.80773127596E+03  0.32719386386E+03  0.99041526575E+03  0.25588165670E+04  0.21925177733E+04 0.  0.
         24    2    3    3    0    0 -0.64043877311E+03  0.33044786559E+03  0.82762452609E+03  0.11015218458E+04  0.95028451466E+02 0.  0.
        -15    1    4    4    0    0 -0.11372829436E+03  0.73321235375E+02  0.10621764330E+03  0.17202417343E+03  0.00000000000E+00 0.  1.
        -15    1    1    2    0    0 -0.43439777112E+02  0.13961250619E+03 -0.25030824982E+03  0.28988426319E+03  0.00000000000E+00 0.  1.
         15    1    3    3    0    0  0.14481700491E+04 -0.32540017334E+01  0.16279073966E+03  0.14572947212E+04  0.00000000000E+00 0. -1.
         15    1    1    2    0    0 -0.86134793901E+03 -0.64263999660E+03  0.13642875598E+03  0.10832909317E+04  0.00000000000E+00 0. -1.
        -16    1    1    2    0    0  0.70654303181E+02  0.35907763962E+03  0.10837108295E+03  0.38167142079E+03  0.00000000000E+00 0.  1.
         16    1    4    4    0    0 -0.52671047875E+03  0.25712663022E+03  0.72140688279E+03  0.92949767236E+03  0.00000000000E+00 0. -1.
    9900018    1    1    2    0    0  0.26402136983E+02 -0.18324401306E+03 -0.39169835576E+03  0.44273945098E+03  0.91187600000E+02 0.  0.
<mgrwt>
<rscale>  0 0.26532698E+04</rscale>
<asrwt>0</asrwt>
<pdfrwt beam="1">  1        1 0.41150855E+00 0.33085124E+04</pdfrwt>
<pdfrwt beam="2">  1       -1 0.32024570E+00 0.33085124E+04</pdfrwt>
<totfact> 0.19817058E-02</totfact>
</mgrwt>
</event>
