<event>
12    1  0.1023176E-008  0.3126289E+04  0.7818608E-02  0.8208560E-01
          1   -1    0    0  501    0  0.00000000000E+00  0.00000000000E+00  0.24398710106E+04  0.24398710106E+04  0.00000000000E+00 0. -1.
         -1   -1    0    0    0  501 -0.00000000000E+00 -0.00000000000E+00 -0.10014546812E+04  0.10014546812E+04  0.00000000000E+00 0.  1.
    9900016    2    1    2    0    0 -0.57903451152E+03  0.52212066412E+03  0.10439392140E+04  0.25675390199E+04  0.22123644779E+04 0.  0.
         23    2    3    3    0    0 -0.38341339994E+03  0.34888855885E+03 -0.21281695265E+03  0.56707688832E+03  0.86925716445E+02 0.  0.
        -24    2    3    3    0    0  0.73640664629E+02  0.27820289742E+03 -0.62464064196E+02  0.30543130866E+03  0.81035334116E+02 0.  0.
        -15    1    4    4    0    0 -0.28952689332E+03  0.30925665473E+03 -0.16747123645E+03  0.45553497725E+03  0.00000000000E+00 0.  1.
        -15    1    3    3    0    0  0.17496054249E+03 -0.27559720960E+03  0.11277529815E+04  0.11740493178E+04  0.00000000000E+00 0.  1.
         15    1    4    4    0    0 -0.93886506613E+02  0.39631904116E+02 -0.45345716195E+02  0.11154191107E+03  0.00000000000E+00 0. -1.
         15    1    5    5    0    0  0.49087982089E+02  0.92091435918E+02 -0.54037759548E+02  0.11751826246E+03  0.00000000000E+00 0. -1.
        -16    1    5    5    0    0  0.24552682540E+02  0.18611146150E+03 -0.84263046477E+01  0.18791304620E+03  0.00000000000E+00 0.  1.
         16    1    1    2    0    0  0.57903451152E+03 -0.52212066412E+03  0.39447711545E+03  0.87378667193E+03  0.00000000000E+00 0. -1.
    9900018    1    3    3    0    0 -0.44422231870E+03  0.17062641745E+03  0.19146724932E+03  0.52098150516E+03  0.91187600000E+02 0.  0.
<mgrwt>
<rscale>  0 0.31262887E+04</rscale>
<asrwt>0</asrwt>
<pdfrwt beam="1">  1        1 0.37536477E+00 0.31262887E+04</pdfrwt>
<pdfrwt beam="2">  1       -1 0.15406995E+00 0.31262887E+04</pdfrwt>
<totfact> 0.40717388E-01</totfact>
</mgrwt>
</event>
<event>
12    1  0.1023176E-008  0.2737600E+04  0.7818608E-02  0.8322907E-01
         -2   -1    0    0    0  501 -0.00000000000E+00  0.00000000000E+00  0.10588893056E+04  0.10588893056E+04  0.00000000000E+00 0. -1.
          2   -1    0    0  501    0  0.00000000000E+00 -0.00000000000E+00 -0.17694133247E+04  0.17694133247E+04  0.00000000000E+00 0.  1.
    9900016    2    1    2    0    0 -0.39605566528E+03  0.23838260600E+03 -0.71382098828E+03  0.23660286565E+04  0.22079096094E+04 0.  0.
         23    2    3    3    0    0  0.18231079052E+03 -0.24538242873E+03  0.12773972853E+03  0.34320816586E+03  0.89580389573E+02 0.  0.
         24    2    3    3    0    0 -0.61886454401E+03 -0.10008952602E+03 -0.95367015549E+03  0.11440527685E+04  0.79741674005E+02 0.  0.
        -15    1    4    4    0    0  0.10108228630E+02  0.32190635790E+00 -0.89441108386E+01  0.13501001016E+02  0.00000000000E+00 0.  1.
        -15    1    5    5    0    0 -0.30960177305E+03 -0.76504879828E+02 -0.53797552089E+03  0.62539900511E+03  0.00000000000E+00 0.  1.
         15    1    3    3    0    0 -0.16586863210E+02  0.46261127265E+03  0.35735489128E+03  0.58479640213E+03  0.00000000000E+00 0. -1.
         15    1    4    4    0    0  0.17220256189E+03 -0.24570433509E+03  0.13668383937E+03  0.32970716484E+03  0.00000000000E+00 0. -1.
        -16    1    1    2    0    0  0.39605566528E+03 -0.23838260600E+03  0.32969691222E+01  0.46227397380E+03  0.00000000000E+00 0.  1.
         16    1    5    5    0    0 -0.30926277097E+03 -0.23584646189E+02 -0.41569463460E+03  0.51865376339E+03  0.00000000000E+00 0. -1.
    9900018    1    3    3    0    0  0.57084951420E+02  0.12124328809E+03 -0.24524545260E+03  0.29397132003E+03  0.91187600000E+02 0.  0.
<mgrwt>
<rscale>  0 0.27375996E+04</rscale>
<asrwt>0</asrwt>
<pdfrwt beam="1">  1        2 0.27221743E+00 0.27375996E+04</pdfrwt>
<pdfrwt beam="2">  1       -2 0.16290605E+00 0.27375996E+04</pdfrwt>
<totfact> 0.18821403E+00</totfact>
</mgrwt>
</event>
<event>
12    1  0.1023176E-008  0.2750380E+04  0.7818608E-02  0.8318841E-01
         -2   -1    0    0    0  501 -0.00000000000E+00  0.00000000000E+00  0.59144517120E+03  0.59144517120E+03  0.00000000000E+00 0.  1.
          2   -1    0    0  501    0  0.00000000000E+00 -0.00000000000E+00 -0.31975018076E+04  0.31975018076E+04  0.00000000000E+00 0. -1.
    9900016    2    1    2    0    0  0.41206031517E+03  0.27583688491E+03 -0.21778157788E+04  0.31337600418E+04  0.21981107211E+04 0.  0.
         23    2    3    3    0    0 -0.24777277214E+03  0.13498455099E+03  0.14213183280E+03  0.32741318928E+03  0.85940461979E+02 0.  0.
        -24    2    3    3    0    0 -0.32631591669E+03  0.22550512992E+03 -0.20565262854E+03  0.45359393587E+03  0.78229239570E+02 0.  0.
        -15    1    3    3    0    0  0.54878477537E+03 -0.17522415355E+03 -0.11603903398E+04  0.12955207348E+04  0.00000000000E+00 0.  1.
        -15    1    4    4    0    0 -0.61064208285E+02  0.43071635726E+01  0.49537734960E+01  0.61416032625E+02  0.00000000000E+00 0. -1.
         15    1    5    5    0    0 -0.25150589320E+03  0.13058033492E+03 -0.14744261328E+03  0.31944602422E+03  0.00000000000E+00 0. -1.
         15    1    4    4    0    0 -0.18670856385E+03  0.13067738741E+03  0.13717805930E+03  0.26599715666E+03  0.00000000000E+00 0.  1.
        -16    1    5    5    0    0 -0.74810023483E+02  0.94924795006E+02 -0.58210015265E+02  0.13414791164E+03  0.00000000000E+00 0.  1.
         16    1    1    2    0    0 -0.41206031517E+03 -0.27583688491E+03 -0.42824085759E+03  0.65518693708E+03  0.00000000000E+00 0. -1.
    9900018    1    3    3    0    0  0.43736422862E+03  0.90571357543E+02 -0.95390464332E+03  0.10572321818E+04  0.91187600000E+02 0.  0.
<mgrwt>
<rscale>  0 0.27503796E+04</rscale>
<asrwt>0</asrwt>
<pdfrwt beam="1">  1        2 0.49192335E+00 0.27503796E+04</pdfrwt>
<pdfrwt beam="2">  1       -2 0.90991565E-01 0.27503796E+04</pdfrwt>
<totfact> 0.11714474E+00</totfact>
</mgrwt>
</event>
<event>
12    1  0.1023176E-008  0.2955577E+04  0.7818608E-02  0.8256531E-01
         -2   -1    0    0    0  501 -0.00000000000E+00  0.00000000000E+00  0.14185533939E+04  0.14185533939E+04  0.00000000000E+00 0.  1.
          2   -1    0    0  501    0  0.00000000000E+00 -0.00000000000E+00 -0.15394972901E+04  0.15394972901E+04  0.00000000000E+00 0. -1.
    9900016    2    1    2    0    0  0.61357019260E+03  0.14831849559E+03  0.98534665377E+02  0.22897411776E+04  0.21988039528E+04 0.  0.
         23    2    3    3    0    0 -0.33224531611E+03 -0.31352590158E+03  0.38801203352E+03  0.60642933628E+03  0.92291715288E+02 0.  0.
         24    2    3    3    0    0  0.45199282342E+03 -0.17537151824E+03 -0.37255363223E+03  0.61699039568E+03  0.82633272052E+02 0.  0.
        -15    1    4    4    0    0 -0.54659693163E+02 -0.13424162438E+02  0.60357366550E+02  0.82528188461E+02  0.00000000000E+00 0. -1.
        -15    1    5    5    0    0  0.32292383168E+03 -0.14015784324E+03 -0.22488027134E+03  0.41772617649E+03  0.00000000000E+00 0.  1.
         15    1    3    3    0    0  0.62859911546E+03  0.60666997497E+03  0.15244936177E+03  0.88680669505E+03  0.00000000000E+00 0. -1.
         15    1    4    4    0    0 -0.27758562295E+03 -0.30010173914E+03  0.32765466697E+03  0.52390114782E+03  0.00000000000E+00 0.  1.
        -16    1    1    2    0    0 -0.61357019260E+03 -0.14831849559E+03 -0.21947856153E+03  0.66830950641E+03  0.00000000000E+00 0.  1.
         16    1    5    5    0    0  0.12906899174E+03 -0.35213675001E+02 -0.14767336088E+03  0.19926421919E+03  0.00000000000E+00 0. -1.
    9900018    1    3    3    0    0 -0.13477643016E+03  0.30545940438E+02 -0.69373097685E+02  0.17951475060E+03  0.91187600000E+02 0.  0.
<mgrwt>
<rscale>  0 0.29555772E+04</rscale>
<asrwt>0</asrwt>
<pdfrwt beam="1">  1        2 0.23684574E+00 0.29555772E+04</pdfrwt>
<pdfrwt beam="2">  1       -2 0.21823898E+00 0.29555772E+04</pdfrwt>
<totfact> 0.10507630E+00</totfact>
</mgrwt>
</event>
<event>
12    1  0.1023176E-008  0.2629585E+04  0.7818608E-02  0.8358221E-01
          2   -1    0    0  501    0  0.00000000000E+00  0.00000000000E+00  0.11552508359E+04  0.11552508359E+04  0.00000000000E+00 0. -1.
         -2   -1    0    0    0  501 -0.00000000000E+00 -0.00000000000E+00 -0.14963674153E+04  0.14963674153E+04  0.00000000000E+00 0.  1.
    9900016    2    1    2    0    0  0.28763284418E+03  0.14268006164E+03 -0.52898041566E+03  0.22796194957E+04  0.21940270081E+04 0.  0.
         23    2    3    3    0    0  0.33607584631E+02 -0.31012128150E+03  0.51524799651E+03  0.60951978195E+03  0.93430121983E+02 0.  0.
        -24    2    3    3    0    0  0.22466482474E+02 -0.37451522517E+03 -0.27739760167E+03  0.47331228302E+03  0.79427269410E+02 0.  0.
        -15    1    3    3    0    0  0.16520548526E+03  0.77122349936E+03 -0.69815496814E+03  0.10533275359E+04  0.00000000000E+00 0.  1.
        -15    1    4    4    0    0 -0.26677492346E+02 -0.16144985434E+03  0.23035446623E+03  0.28256136356E+03  0.00000000000E+00 0.  1.
         15    1    4    4    0    0  0.60285076977E+02 -0.14867142716E+03  0.28489353028E+03  0.32695841839E+03  0.00000000000E+00 0. -1.
         15    1    5    5    0    0  0.59100260975E+01 -0.31511174600E+03 -0.26175889770E+03  0.40969264260E+03  0.00000000000E+00 0. -1.
        -16    1    5    5    0    0  0.16556456376E+02 -0.59403479166E+02 -0.15638703969E+02  0.63619640415E+02  0.00000000000E+00 0.  1.
         16    1    1    2    0    0 -0.28763284418E+03 -0.14268006164E+03  0.18786383626E+03  0.37199875539E+03  0.00000000000E+00 0. -1.
    9900018    1    3    3    0    0  0.66353291813E+02  0.56093068953E+02 -0.68675842366E+02  0.14345989487E+03  0.91187600000E+02 0.  0.
<mgrwt>
<rscale>  0 0.26295853E+04</rscale>
<asrwt>0</asrwt>
<pdfrwt beam="1">  1        2 0.17773090E+00 0.26295853E+04</pdfrwt>
<pdfrwt beam="2">  1       -2 0.23021037E+00 0.26295853E+04</pdfrwt>
<totfact> 0.15158142E+00</totfact>
</mgrwt>
</event>
<event>
12    1  0.1023176E-008  0.2802087E+04  0.7818608E-02  0.8302621E-01
         -2   -1    0    0    0  501 -0.00000000000E+00  0.00000000000E+00  0.14552618990E+04  0.14552618990E+04  0.00000000000E+00 0.  1.
          2   -1    0    0  501    0  0.00000000000E+00 -0.00000000000E+00 -0.13488448698E+04  0.13488448698E+04  0.00000000000E+00 0. -1.
    9900016    2    1    2    0    0  0.13136072018E+03  0.26863460077E+03 -0.34689874477E+03  0.22610456503E+04  0.22141744525E+04 0.  0.
         23    2    3    3    0    0  0.40411279024E+03 -0.78009932424E+00  0.57054261876E+02  0.41818363896E+03  0.91184490492E+02 0.  0.
         24    2    3    3    0    0  0.83321573742E+02  0.32616676086E+03 -0.69009759185E+03  0.77182637446E+03  0.78447597108E+02 0.  0.
        -15    1    5    5    0    0 -0.80316071382E+01  0.85313462764E+02 -0.21379740214E+03  0.23033068142E+03  0.00000000000E+00 0.  1.
        -15    1    4    4    0    0  0.14791400996E+03 -0.17496602125E+02  0.62144391870E+02  0.16138962442E+03  0.00000000000E+00 0.  1.
         15    1    4    4    0    0  0.25619878028E+03  0.16716502801E+02 -0.50901299941E+01  0.25679401455E+03  0.00000000000E+00 0. -1.
         15    1    3    3    0    0 -0.25017127074E+03  0.25374444134E+03  0.53954696752E+03  0.64659325419E+03  0.00000000000E+00 0. -1.
        -16    1    1    2    0    0 -0.13136072018E+03 -0.26863460077E+03  0.45331577399E+03  0.54306111855E+03  0.00000000000E+00 0.  1.
         16    1    5    5    0    0  0.91353180880E+02  0.24085329810E+03 -0.47630018971E+03  0.54149569304E+03  0.00000000000E+00 0. -1.
    9900018    1    3    3    0    0 -0.10590237307E+03 -0.31049650211E+03 -0.25340238231E+03  0.42444238266E+03  0.91187600000E+02 0.  0.
<mgrwt>
<rscale>  0 0.28020868E+04</rscale>
<asrwt>0</asrwt>
<pdfrwt beam="1">  1        2 0.20751459E+00 0.28020868E+04</pdfrwt>
<pdfrwt beam="2">  1       -2 0.22388645E+00 0.28020868E+04</pdfrwt>
<totfact> 0.12583920E+00</totfact>
</mgrwt>
</event>
<event>
12    1  0.1023176E-008  0.2700731E+04  0.7818608E-02  0.8334768E-01
          2   -1    0    0  501    0  0.00000000000E+00  0.00000000000E+00  0.12227964453E+04  0.12227964453E+04  0.00000000000E+00 0. -1.
         -2   -1    0    0    0  501 -0.00000000000E+00 -0.00000000000E+00 -0.14912434009E+04  0.14912434009E+04  0.00000000000E+00 0.  1.
    9900016    2    1    2    0    0 -0.22037211040E+03  0.13722146598E+03  0.17232398640E+03  0.22025003842E+04  0.21803483181E+04 0.  0.
         23    2    3    3    0    0 -0.45518542455E+03  0.27470406540E+03  0.52142554180E+03  0.75009926483E+03  0.90045639482E+02 0.  0.
         24    2    3    3    0    0 -0.13311542084E+03  0.10050078273E+03  0.86460270506E+02  0.20466245181E+03  0.81186317892E+02 0.  0.
        -15    1    4    4    0    0 -0.82619374977E+02  0.12994780135E+02  0.72177929869E+02  0.11047388376E+03  0.00000000000E+00 0.  1.
        -15    1    5    5    0    0  0.11054040719E+02  0.61058686806E+01  0.10137461297E+02  0.16193874462E+02  0.00000000000E+00 0.  1.
         15    1    4    4    0    0 -0.37256604957E+03  0.26170928526E+03  0.44924761193E+03  0.63962538107E+03  0.00000000000E+00 0. -1.
         15    1    3    3    0    0  0.49627015211E+03 -0.54234665296E+03 -0.51299098069E+03  0.89642830284E+03  0.00000000000E+00 0. -1.
        -16    1    1    2    0    0  0.22037211040E+03 -0.13722146598E+03 -0.44077094207E+03  0.51153946196E+03  0.00000000000E+00 0.  1.
         16    1    5    5    0    0 -0.14416946156E+03  0.94394914045E+02  0.76322809208E+02  0.18846857735E+03  0.00000000000E+00 0. -1.
    9900018    1    3    3    0    0 -0.12834141713E+03  0.30436327081E+03  0.77429154791E+02  0.35131036474E+03  0.91187600000E+02 0.  0.
<mgrwt>
<rscale>  0 0.27007311E+04</rscale>
<asrwt>0</asrwt>
<pdfrwt beam="1">  1        2 0.18812253E+00 0.27007311E+04</pdfrwt>
<pdfrwt beam="2">  1       -2 0.22942206E+00 0.27007311E+04</pdfrwt>
<totfact> 0.13883298E+00</totfact>
</mgrwt>
</event>
<event>
12    1  0.1023176E-008  0.3816538E+04  0.7818608E-02  0.8042615E-01
         -2   -1    0    0    0  501 -0.00000000000E+00  0.00000000000E+00  0.14433662545E+04  0.14433662545E+04  0.00000000000E+00 0.  1.
          2   -1    0    0  501    0  0.00000000000E+00 -0.00000000000E+00 -0.25229147316E+04  0.25229147316E+04  0.00000000000E+00 0. -1.
    9900016    2    1    2    0    0 -0.61038559278E+03 -0.36255165770E+03  0.39636073167E+03  0.23285013095E+04  0.21819262688E+04 0.  0.
         23    2    3    3    0    0 -0.88809311891E+02 -0.21612112892E+03  0.47531752100E+03  0.53759640591E+03  0.92128788332E+02 0.  0.
        -24    2    3    3    0    0 -0.57370892014E+02 -0.30887361682E+02 -0.38621375098E+03  0.39960618251E+03  0.79237562392E+02 0.  0.
        -15    1    3    3    0    0  0.24789923100E+03  0.15818435825E+03 -0.29388367602E+03  0.41574503600E+03  0.00000000000E+00 0.  1.
        -15    1    4    4    0    0 -0.79673141348E+02 -0.14397202291E+03  0.23768598650E+03  0.28908542165E+03  0.00000000000E+00 0.  1.
         15    1    4    4    0    0 -0.91361705426E+01 -0.72149106005E+02  0.23763153450E+03  0.24851098426E+03  0.00000000000E+00 0. -1.
         15    1    5    5    0    0 -0.49524321737E+01 -0.41951872440E+02 -0.10224222600E+03  0.11062530888E+03  0.00000000000E+00 0. -1.
        -16    1    5    5    0    0 -0.52418459840E+02  0.11064510758E+02 -0.28397152498E+03  0.28898087364E+03  0.00000000000E+00 0.  1.
         16    1    1    2    0    0  0.61038559278E+03  0.36255165770E+03 -0.14759092088E+04  0.16377796766E+04  0.00000000000E+00 0. -1.
    9900018    1    3    3    0    0 -0.71210461988E+03 -0.27372752534E+03  0.60114063767E+03  0.97555368506E+03  0.91187600000E+02 0.  0.
<mgrwt>
<rscale>  0 0.38165377E+04</rscale>
<asrwt>0</asrwt>
<pdfrwt beam="1">  1        2 0.38814073E+00 0.38165377E+04</pdfrwt>
<pdfrwt beam="2">  1       -2 0.22205635E+00 0.38165377E+04</pdfrwt>
<totfact> 0.25927903E-01</totfact>
</mgrwt>
</event>
<event>
12    1  0.1023176E-008  0.3092953E+04  0.7818608E-02  0.8217674E-01
          1   -1    0    0  501    0  0.00000000000E+00  0.00000000000E+00  0.13853447781E+04  0.13853447781E+04  0.00000000000E+00 0. -1.
         -1   -1    0    0    0  501 -0.00000000000E+00 -0.00000000000E+00 -0.17263500648E+04  0.17263500648E+04  0.00000000000E+00 0.  1.
    9900016    2    1    2    0    0 -0.67300824495E+02 -0.47171033566E+03  0.34523150324E+03  0.22762542563E+04  0.21988880387E+04 0.  0.
         23    2    3    3    0    0 -0.32135721807E+03  0.36971745970E+03 -0.73515091227E+02  0.50349388003E+03  0.90222818530E+02 0.  0.
        -24    2    3    3    0    0  0.39391182953E+03 -0.41963215424E+02 -0.16541448250E+03  0.43655148493E+03  0.79295694000E+02 0.  0.
        -15    1    3    3    0    0  0.29959694710E+03 -0.63123006490E+03  0.47423261735E+03  0.84445621610E+03  0.00000000000E+00 0.  1.
        -15    1    4    4    0    0 -0.10081427737E+02  0.53189019892E+02 -0.65256009733E+01  0.54527887272E+02  0.00000000000E+00 0. -1.
         15    1    5    5    0    0  0.20607712936E+03  0.17347900334E+02 -0.77572498710E+02  0.22087604091E+03  0.00000000000E+00 0. -1.
         15    1    4    4    0    0 -0.31127579033E+03  0.31652843981E+03 -0.66989490253E+02  0.44896599276E+03  0.00000000000E+00 0.  1.
        -16    1    5    5    0    0  0.18783470017E+03 -0.59311115758E+02 -0.87841983787E+02  0.21567544402E+03  0.00000000000E+00 0.  1.
         16    1    1    2    0    0  0.67300824495E+02  0.47171033566E+03 -0.68623678999E+03  0.83544058656E+03  0.00000000000E+00 0. -1.
    9900018    1    3    3    0    0 -0.43945238306E+03 -0.16823451503E+03  0.10992845961E+03  0.49175267528E+03  0.91187600000E+02 0.  0.
<mgrwt>
<rscale>  0 0.30929533E+04</rscale>
<asrwt>0</asrwt>
<pdfrwt beam="1">  1        1 0.21312996E+00 0.30929533E+04</pdfrwt>
<pdfrwt beam="2">  1       -1 0.26559232E+00 0.30929533E+04</pdfrwt>
<totfact> 0.36658513E-01</totfact>
</mgrwt>
</event>
<event>
12    1  0.1023176E-008  0.2607819E+04  0.7818608E-02  0.8365550E-01
         -2   -1    0    0    0  501 -0.00000000000E+00  0.00000000000E+00  0.18017566524E+04  0.18017566524E+04  0.00000000000E+00 0.  1.
          2   -1    0    0  501    0  0.00000000000E+00 -0.00000000000E+00 -0.94362356721E+03  0.94362356721E+03  0.00000000000E+00 0. -1.
    9900016    2    1    2    0    0  0.22249529003E+03 -0.21351358086E+03  0.49301150723E+03  0.22674618479E+04  0.21916274050E+04 0.  0.
         23    2    3    3    0    0 -0.55559716673E+02 -0.51968017211E+02  0.68912983556E+02  0.13781969595E+03  0.91965821688E+02 0.  0.
         24    2    3    3    0    0  0.59205521972E+03 -0.37358150222E+03  0.98916470486E+03  0.12145351627E+04  0.80971143618E+02 0.  0.
        -15    1    4    4    0    0  0.12766718853E+02 -0.39702722070E+02  0.25490812707E+01  0.41782688585E+02  0.00000000000E+00 0. -1.
        -15    1    5    5    0    0  0.20107503097E+03 -0.15138682016E+03  0.41289709308E+03  0.48356297095E+03  0.00000000000E+00 0.  1.
         15    1    4    4    0    0 -0.68326435526E+02 -0.12265295141E+02  0.66363902285E+02  0.96037007362E+02  0.00000000000E+00 0.  1.
         15    1    3    3    0    0 -0.28319217834E+03  0.40890335186E+03 -0.43146985902E+03  0.65845728812E+03  0.00000000000E+00 0. -1.
        -16    1    1    2    0    0 -0.22249529003E+03  0.21351358086E+03  0.36512157795E+03  0.47791837167E+03  0.00000000000E+00 0.  1.
         16    1    5    5    0    0  0.39098018875E+03 -0.22219468206E+03  0.57626761178E+03  0.73097219175E+03  0.00000000000E+00 0. -1.
    9900018    1    3    3    0    0 -0.30808034669E+02 -0.19686741329E+03 -0.13359632217E+03  0.25664970116E+03  0.91187600000E+02 0.  0.
<mgrwt>
<rscale>  0 0.26078190E+04</rscale>
<asrwt>0</asrwt>
<pdfrwt beam="1">  1        2 0.14517286E+00 0.26078190E+04</pdfrwt>
<pdfrwt beam="2">  1       -2 0.27719333E+00 0.26078190E+04</pdfrwt>
<totfact> 0.10615821E+00</totfact>
</mgrwt>
</event>
<event>
12    1  0.1023176E-008  0.2787138E+04  0.7818608E-02  0.8307273E-01
          1   -1    0    0  501    0  0.00000000000E+00  0.00000000000E+00  0.17405479596E+04  0.17405479596E+04  0.00000000000E+00 0. -1.
         -1   -1    0    0    0  501 -0.00000000000E+00 -0.00000000000E+00 -0.11157606878E+04  0.11157606878E+04  0.00000000000E+00 0.  1.
    9900016    2    1    2    0    0 -0.11134662951E+03  0.44577375800E+03  0.24480749682E+03  0.22600730022E+04  0.21992923748E+04 0.  0.
         23    2    3    3    0    0 -0.19071252301E+03 -0.85631261133E+02  0.53630066522E+03  0.58301352785E+03  0.92641194000E+02 0.  0.
        -24    2    3    3    0    0  0.28310296187E+03 -0.16523557523E+03 -0.62555808996E+03  0.71065625145E+03  0.79115747265E+02 0.  0.
        -15    1    3    3    0    0 -0.18608412536E+03  0.63370047464E+03  0.45455568810E+03  0.80176334841E+03  0.00000000000E+00 0.  1.
        -15    1    4    4    0    0 -0.14446903044E+03 -0.51246300202E+02  0.26935481153E+03  0.30991853532E+03  0.00000000000E+00 0.  1.
         15    1    4    4    0    0 -0.46243492572E+02 -0.34384960931E+02  0.26694585369E+03  0.27309499253E+03  0.00000000000E+00 0. -1.
         15    1    5    5    0    0  0.17562479020E+03 -0.75052661804E+02 -0.29344901903E+03  0.35012754211E+03  0.00000000000E+00 0. -1.
        -16    1    5    5    0    0  0.10747817167E+03 -0.90182913422E+02 -0.33210907093E+03  0.36052870933E+03  0.00000000000E+00 0.  1.
         16    1    1    2    0    0  0.11134662951E+03 -0.44577375800E+03  0.37997977499E+03  0.59623564522E+03  0.00000000000E+00 0. -1.
    9900018    1    3    3    0    0 -0.17652943009E+02  0.62940119726E+02 -0.12049076654E+03  0.16463987452E+03  0.91187600000E+02 0.  0.
<mgrwt>
<rscale>  0 0.27871383E+04</rscale>
<asrwt>0</asrwt>
<pdfrwt beam="1">  1        1 0.26777661E+00 0.27871383E+04</pdfrwt>
<pdfrwt beam="2">  1       -1 0.17165549E+00 0.27871383E+04</pdfrwt>
<totfact> 0.92737211E-01</totfact>
</mgrwt>
</event>
<event>
12    1  0.1023176E-008  0.2313739E+04  0.7818608E-02  0.8472524E-01
         -3   -1    0    0    0  501 -0.00000000000E+00  0.00000000000E+00  0.11046936488E+04  0.11046936488E+04  0.00000000000E+00 0.  1.
          3   -1    0    0  501    0  0.00000000000E+00 -0.00000000000E+00 -0.12115092630E+04  0.12115092630E+04  0.00000000000E+00 0. -1.
    9900016    2    1    2    0    0  0.91352304272E+02  0.22922256515E+02 -0.16691268813E+03  0.22044785561E+04  0.21961318689E+04 0.  0.
         23    2    3    3    0    0 -0.75172455670E+02 -0.19774433716E+03  0.37689636669E+03  0.44137838721E+03  0.89500215059E+02 0.  0.
         24    2    3    3    0    0  0.11332844065E+03 -0.49658417530E+03  0.10530799907E+03  0.52614351234E+03  0.79360205932E+02 0.  0.
        -15    1    5    5    0    0  0.67478065099E+01 -0.16605595468E+03  0.55995929385E+02  0.17537290864E+03  0.00000000000E+00 0.  1.
        -15    1    4    4    0    0 -0.94448548900E+02 -0.14047723188E+03  0.27887849450E+03  0.32623242598E+03  0.00000000000E+00 0.  1.
         15    1    3    3    0    0 -0.29209657332E+03  0.48082572396E+03 -0.15603227788E+03  0.58383204494E+03  0.00000000000E+00 0. -1.
         15    1    4    4    0    0  0.19276093230E+02 -0.57267105283E+02  0.98017872196E+02  0.11514596123E+03  0.00000000000E+00 0. -1.
        -16    1    1    2    0    0 -0.91352304272E+02 -0.22922256515E+02  0.60097073933E+02  0.11172435560E+03  0.00000000000E+00 0.  1.
         16    1    5    5    0    0  0.10658063414E+03 -0.33052822062E+03  0.49312069689E+02  0.35077060370E+03  0.00000000000E+00 0. -1.
    9900018    1    3    3    0    0  0.34529289261E+03  0.23642504502E+03 -0.49308477602E+03  0.65312461165E+03  0.91187600000E+02 0.  0.
<mgrwt>
<rscale>  0 0.23137386E+04</rscale>
<asrwt>0</asrwt>
<pdfrwt beam="1">  1        3 0.18638604E+00 0.23137386E+04</pdfrwt>
<pdfrwt beam="2">  1       -3 0.16995287E+00 0.23137386E+04</pdfrwt>
<totfact> 0.98483398E-02</totfact>
</mgrwt>
</event>
<event>
12    1  0.1023176E-008  0.2272425E+04  0.7818608E-02  0.8488873E-01
          2   -1    0    0  501    0  0.00000000000E+00  0.00000000000E+00  0.29192750662E+04  0.29192750662E+04  0.00000000000E+00 0. -1.
         -2   -1    0    0    0  501 -0.00000000000E+00 -0.00000000000E+00 -0.44222602615E+03  0.44222602615E+03  0.00000000000E+00 0.  1.
    9900016    2    1    2    0    0 -0.33161633958E+02 -0.53563817687E+02  0.24511976824E+04  0.32934050629E+04  0.21986764323E+04 0.  0.
         23    2    3    3    0    0 -0.17470116234E+03 -0.13886796171E+03  0.25872716129E+02  0.24299506318E+03  0.92587236575E+02 0.  0.
         24    2    3    3    0    0  0.88210918898E+02 -0.39751401522E+03  0.58342630917E+03  0.71595364603E+03  0.80030035129E+02 0.  0.
        -15    1    4    4    0    0 -0.68004694948E+02 -0.10152513234E+03  0.41118294573E+02  0.12892907034E+03  0.00000000000E+00 0. -1.
        -15    1    5    5    0    0  0.46602381429E+02 -0.27438813642E+03  0.33452839424E+03  0.43516649448E+03  0.00000000000E+00 0.  1.
         15    1    4    4    0    0 -0.10669646739E+03 -0.37342829378E+02 -0.15245578444E+02  0.11406599284E+03  0.00000000000E+00 0.  1.
         15    1    3    3    0    0  0.40765518324E+03  0.63831396372E+02  0.23312469643E+01  0.41262892567E+03  0.00000000000E+00 0. -1.
        -16    1    1    2    0    0  0.33161633958E+02  0.53563817687E+02  0.25851357659E+02  0.68096029435E+02  0.00000000000E+00 0.  1.
         16    1    5    5    0    0  0.41608537469E+02 -0.12312587880E+03  0.24889791493E+03  0.28078715156E+03  0.00000000000E+00 0. -1.
    9900018    1    3    3    0    0 -0.35432657376E+03  0.41898676288E+03  0.18395674102E+04  0.19218274281E+04  0.91187600000E+02 0.  0.
<mgrwt>
<rscale>  0 0.22724255E+04</rscale>
<asrwt>0</asrwt>
<pdfrwt beam="1">  1        2 0.44911923E+00 0.22724255E+04</pdfrwt>
<pdfrwt beam="2">  1       -2 0.68034775E-01 0.22724255E+04</pdfrwt>
<totfact> 0.35157981E+00</totfact>
</mgrwt>
</event>
<event>
12    1  0.1023176E-008  0.2489740E+04  0.7818608E-02  0.8406650E-01
         -1   -1    0    0    0  501 -0.00000000000E+00  0.00000000000E+00  0.12848165883E+04  0.12848165883E+04  0.00000000000E+00 0.  1.
          1   -1    0    0  501    0  0.00000000000E+00 -0.00000000000E+00 -0.12061652650E+04  0.12061652650E+04  0.00000000000E+00 0. -1.
    9900016    2    1    2    0    0 -0.27254634944E+03  0.22304390601E+02  0.45257926896E+02  0.22154929835E+04  0.21980859586E+04 0.  0.
         23    2    3    3    0    0  0.41084429856E+03  0.40365412182E+02  0.51117974647E+03  0.66331360415E+03  0.90872438571E+02 0.  0.
         24    2    3    3    0    0 -0.14843763487E+03  0.46845410771E+03 -0.51145060827E+03  0.71371436577E+03  0.79520366702E+02 0.  0.
        -15    1    5    5    0    0 -0.69462274957E+02  0.20309365578E+03 -0.16804119945E+03  0.27259839576E+03  0.00000000000E+00 0.  1.
        -15    1    4    4    0    0  0.17048136240E+03  0.46219963230E+02  0.27088744746E+03  0.32338860388E+03  0.00000000000E+00 0.  1.
         15    1    4    4    0    0  0.24036293616E+03 -0.58545510482E+01  0.24029229901E+03  0.33992500028E+03  0.00000000000E+00 0. -1.
         15    1    3    3    0    0 -0.31527712402E+03 -0.20076289981E+03  0.21354654914E+03  0.43047361768E+03  0.00000000000E+00 0. -1.
        -16    1    1    2    0    0  0.27254634944E+03 -0.22304390601E+02  0.33393396359E+02  0.27548886975E+03  0.00000000000E+00 0.  1.
         16    1    5    5    0    0 -0.78975359917E+02  0.26536045193E+03 -0.34340940882E+03  0.44111597001E+03  0.00000000000E+00 0. -1.
    9900018    1    3    3    0    0 -0.21967588911E+03 -0.28575222949E+03 -0.16801776045E+03  0.40799139590E+03  0.91187600000E+02 0.  0.
<mgrwt>
<rscale>  0 0.24897399E+04</rscale>
<asrwt>0</asrwt>
<pdfrwt beam="1">  1        1 0.18556389E+00 0.24897399E+04</pdfrwt>
<pdfrwt beam="2">  1       -1 0.19766409E+00 0.24897399E+04</pdfrwt>
<totfact> 0.14689626E+00</totfact>
</mgrwt>
</event>
<event>
12    1  0.1023176E-008  0.2870064E+04  0.7818608E-02  0.8281840E-01
          1   -1    0    0  501    0  0.00000000000E+00  0.00000000000E+00  0.17490622693E+04  0.17490622693E+04  0.00000000000E+00 0. -1.
         -1   -1    0    0    0  501 -0.00000000000E+00 -0.00000000000E+00 -0.11773832688E+04  0.11773832688E+04  0.00000000000E+00 0.  1.
    9900016    2    1    2    0    0  0.51284888192E+01  0.19628254477E+03 -0.79572683002E+02  0.22462382947E+04  0.22362248379E+04 0.  0.
         23    2    3    3    0    0  0.20307117954E+03 -0.19257650163E+03  0.11004114477E+03  0.31420776311E+03  0.91070587557E+02 0.  0.
        -24    2    3    3    0    0 -0.14728515201E+03  0.17621843494E+01 -0.30462799307E+03  0.34773798047E+03  0.80171488740E+02 0.  0.
        -15    1    3    3    0    0 -0.51942289900E+03 -0.38294477994E+03  0.19637795994E+03  0.67454514722E+03  0.00000000000E+00 0.  1.
        -15    1    4    4    0    0  0.19630614195E+03 -0.16896845659E+03  0.12267194576E+03  0.28659177757E+03  0.00000000000E+00 0. -1.
         15    1    5    5    0    0 -0.80695794367E+02  0.16159721607E+02 -0.24044169155E+03  0.25413609517E+03  0.00000000000E+00 0. -1.
         15    1    4    4    0    0  0.67650375880E+01 -0.23608045035E+02 -0.12630800992E+02  0.27615985545E+02  0.00000000000E+00 0.  1.
        -16    1    5    5    0    0 -0.66589357644E+02 -0.14397537257E+02 -0.64186301517E+02  0.93601885306E+02  0.00000000000E+00 0.  1.
         16    1    1    2    0    0 -0.51284888192E+01 -0.19628254477E+03  0.65125168344E+03  0.68020724339E+03  0.00000000000E+00 0. -1.
    9900018    1    3    3    0    0  0.46876536029E+03  0.77004164199E+03 -0.81363794638E+02  0.90974740388E+03  0.91187600000E+02 0.  0.
<mgrwt>
<rscale>  0 0.28700639E+04</rscale>
<asrwt>0</asrwt>
<pdfrwt beam="1">  1        1 0.26908650E+00 0.28700639E+04</pdfrwt>
<pdfrwt beam="2">  1       -1 0.18113589E+00 0.28700639E+04</pdfrwt>
<totfact> 0.77558108E-01</totfact>
</mgrwt>
</event>
<event>
12    1  0.1023176E-008  0.2443483E+04  0.7818608E-02  0.8423401E-01
         -2   -1    0    0    0  501 -0.00000000000E+00  0.00000000000E+00  0.81998134353E+03  0.81998134353E+03  0.00000000000E+00 0.  1.
          2   -1    0    0  501    0  0.00000000000E+00 -0.00000000000E+00 -0.18203489708E+04  0.18203489708E+04  0.00000000000E+00 0. -1.
    9900016    2    1    2    0    0 -0.16394598938E+03 -0.15698831646E+03 -0.95746438355E+03  0.24093231559E+04  0.21992217725E+04 0.  0.
         23    2    3    3    0    0  0.38089484781E+03 -0.23869749031E+03 -0.85534543188E+02  0.46671077173E+03  0.91898908629E+02 0.  0.
         24    2    3    3    0    0 -0.14591080910E+03 -0.43266660489E+03 -0.26578389152E+03  0.53468236415E+03  0.82181496360E+02 0.  0.
        -15    1    4    4    0    0  0.24042169329E+03 -0.18733967980E+03 -0.26600682356E+02  0.30595153625E+03  0.00000000000E+00 0.  1.
        -15    1    5    5    0    0 -0.13062947684E+03 -0.26428896455E+03 -0.17320606170E+03  0.34192551354E+03  0.00000000000E+00 0.  1.
         15    1    4    4    0    0  0.14047315451E+03 -0.51357810506E+02 -0.58933860832E+02  0.16075923548E+03  0.00000000000E+00 0. -1.
         15    1    3    3    0    0  0.29526125059E+03  0.30957710576E+03 -0.52000931609E+03  0.67336979390E+03  0.00000000000E+00 0. -1.
        -16    1    1    2    0    0  0.16394598938E+03  0.15698831646E+03 -0.42903243700E+02  0.23100715846E+03  0.00000000000E+00 0.  1.
         16    1    5    5    0    0 -0.15281332259E+02 -0.16837764034E+03 -0.92577829822E+02  0.19275685061E+03  0.00000000000E+00 0. -1.
    9900018    1    3    3    0    0 -0.69419127868E+03  0.20479867297E+03 -0.86136632751E+02  0.73456022608E+03  0.91187600000E+02 0.  0.
<mgrwt>
<rscale>  0 0.24434829E+04</rscale>
<asrwt>0</asrwt>
<pdfrwt beam="1">  1        2 0.28005369E+00 0.24434829E+04</pdfrwt>
<pdfrwt beam="2">  1       -2 0.12615098E+00 0.24434829E+04</pdfrwt>
<totfact> 0.35300132E+00</totfact>
</mgrwt>
</event>
<event>
12    1  0.1023176E-008  0.4073999E+04  0.7818608E-02  0.7989783E-01
          2   -1    0    0  501    0  0.00000000000E+00  0.00000000000E+00  0.23108174007E+04  0.23108174007E+04  0.00000000000E+00 0. -1.
         -2   -1    0    0    0  501 -0.00000000000E+00 -0.00000000000E+00 -0.17956276309E+04  0.17956276309E+04  0.00000000000E+00 0.  1.
    9900016    2    1    2    0    0  0.11069975793E+02  0.10455610768E+04  0.13349312795E+04  0.27778003641E+04  0.22001847268E+04 0.  0.
         23    2    3    3    0    0 -0.33091492666E+03 -0.90912422817E+02  0.71201438841E+02  0.36204027700E+03  0.90740068152E+02 0.  0.
         24    2    3    3    0    0 -0.53708587146E+03  0.57338883021E+03  0.22866697348E+03  0.82208156909E+03  0.79331819297E+02 0.  0.
        -15    1    4    4    0    0 -0.72339299915E+02 -0.14324500360E+02  0.54774591441E+02  0.91860881175E+02  0.00000000000E+00 0.  1.
        -15    1    5    5    0    0 -0.28551491684E+03  0.32350999680E+03  0.16430330176E+03  0.46170668258E+03  0.00000000000E+00 0.  1.
         15    1    4    4    0    0 -0.25857562674E+03 -0.76587922456E+02  0.16426847401E+02  0.27017939582E+03  0.00000000000E+00 0. -1.
         15    1    3    3    0    0  0.86047126413E+03  0.29047468990E+03  0.66960124522E+03  0.11283404493E+04  0.00000000000E+00 0. -1.
        -16    1    1    2    0    0 -0.11069975793E+02 -0.10455610768E+04 -0.81974150973E+03  0.13286446675E+04  0.00000000000E+00 0.  1.
         16    1    5    5    0    0 -0.25157095462E+03  0.24987883341E+03  0.64363671719E+02  0.36037488651E+03  0.00000000000E+00 0. -1.
    9900018    1    3    3    0    0  0.18599509782E+02  0.27260997952E+03  0.36546162194E+03  0.46533806873E+03  0.91187600000E+02 0.  0.
<mgrwt>
<rscale>  0 0.40739993E+04</rscale>
<asrwt>0</asrwt>
<pdfrwt beam="1">  1        2 0.35551037E+00 0.40739993E+04</pdfrwt>
<pdfrwt beam="2">  1       -2 0.27625040E+00 0.40739993E+04</pdfrwt>
<totfact> 0.15560837E-01</totfact>
</mgrwt>
</event>
<event>
12    1  0.1023176E-008  0.2598082E+04  0.7818608E-02  0.8368853E-01
         -2   -1    0    0    0  501 -0.00000000000E+00  0.00000000000E+00  0.10843625189E+04  0.10843625189E+04  0.00000000000E+00 0. -1.
          2   -1    0    0  501    0  0.00000000000E+00 -0.00000000000E+00 -0.15562213378E+04  0.15562213378E+04  0.00000000000E+00 0.  1.
    9900016    2    1    2    0    0  0.78893735949E+02 -0.36835187974E+03 -0.30256050164E+03  0.22275835551E+04  0.21745524387E+04 0.  0.
         23    2    3    3    0    0  0.19967763338E+03  0.28078095611E+03 -0.21288081702E+03  0.41566711350E+03  0.93551079129E+02 0.  0.
        -24    2    3    3    0    0  0.62844689709E+03 -0.27979071210E+02  0.16443806468E+03  0.65509120740E+03  0.79851624987E+02 0.  0.
        -15    1    3    3    0    0 -0.81413877051E+03 -0.51636701597E+03 -0.27388263907E+03  0.10022317760E+04  0.00000000000E+00 0.  1.
        -15    1    4    4    0    0  0.11486067747E+03  0.15850253224E+03 -0.65994843198E+02  0.20657044146E+03  0.00000000000E+00 0.  1.
         15    1    4    4    0    0  0.84816955906E+02  0.12227842386E+03 -0.14688597382E+03  0.20909667204E+03  0.00000000000E+00 0. -1.
         15    1    5    5    0    0  0.27988107157E+03 -0.37674875099E+02  0.10537177878E+03  0.30142332723E+03  0.00000000000E+00 0. -1.
        -16    1    5    5    0    0  0.34856582552E+03  0.96958038895E+01  0.59066285895E+02  0.35366788017E+03  0.00000000000E+00 0.  1.
         16    1    1    2    0    0 -0.78893735949E+02  0.36835187974E+03 -0.16929831728E+03  0.41300030159E+03  0.00000000000E+00 0. -1.
    9900018    1    3    3    0    0  0.64907975996E+02 -0.10478674867E+03  0.19764889773E+02  0.15459345816E+03  0.91187600000E+02 0.  0.
<mgrwt>
<rscale>  0 0.25980824E+04</rscale>
<asrwt>0</asrwt>
<pdfrwt beam="1">  1        2 0.23941867E+00 0.25980824E+04</pdfrwt>
<pdfrwt beam="2">  1       -2 0.16682500E+00 0.25980824E+04</pdfrwt>
<totfact> 0.23451221E+00</totfact>
</mgrwt>
</event>
