<event>
12    1  0.1030530E-010  0.2801692E+04  0.7818608E-02  0.8302743E-01
         -2   -1    0    0    0  501 -0.00000000000E+00  0.00000000000E+00  0.72088258110E+03  0.72088258110E+03  0.00000000000E+00 0.  1.
          2   -1    0    0  501    0  0.00000000000E+00 -0.00000000000E+00 -0.27221754386E+04  0.27221754386E+04  0.00000000000E+00 0. -1.
        -24    2    1    2    0    0 -0.18012332381E+03  0.42371858548E+03 -0.80514988515E+01  0.46740335190E+03  0.80120005444E+02 0.  0.
    9900016    2    1    2    0    0  0.17075800294E+03 -0.55937104175E+03 -0.20591482619E+04  0.28245486850E+04  0.18428047784E+04 0.  0.
         24    2    4    4    0    0 -0.61767573152E+03 -0.47816072250E+03 -0.10323042327E+04  0.12969845604E+04  0.79724120305E+02 0.  0.
        -15    1    1    2    0    0  0.93653208738E+01  0.13565245627E+03  0.65906903297E+02  0.15110598277E+03  0.00000000000E+00 0.  1.
        -15    1    5    5    0    0 -0.41581228557E+03 -0.28248234420E+03 -0.69812015853E+03  0.86027198453E+03  0.00000000000E+00 0.  1.
         15    1    4    4    0    0  0.77261699087E+03  0.14340934254E+03 -0.45926912336E+03  0.91018205969E+03  0.00000000000E+00 0. -1.
         15    1    3    3    0    0 -0.50763180756E+02  0.22165769195E+03 -0.20078653791E+01  0.22740506688E+03  0.00000000000E+00 0. -1.
        -16    1    3    3    0    0 -0.12936014306E+03  0.20206089353E+03 -0.60436334724E+01  0.23999828502E+03  0.00000000000E+00 0.  1.
         16    1    5    5    0    0 -0.20186344595E+03 -0.19567837830E+03 -0.33418407416E+03  0.43671257592E+03  0.00000000000E+00 0. -1.
    9900018    1    4    4    0    0  0.15816743587E+02 -0.22461966179E+03 -0.56757490585E+03  0.61738206484E+03  0.91187600000E+02 0.  0.
<mgrwt>
<rscale>  0 0.28016915E+04</rscale>
<asrwt>0</asrwt>
<pdfrwt beam="1">  1        2 0.41879623E+00 0.28016915E+04</pdfrwt>
<pdfrwt beam="2">  1       -2 0.11090501E+00 0.28016915E+04</pdfrwt>
<totfact> 0.14428994E+00</totfact>
</mgrwt>
</event>
<event>
12    1  0.1030530E-010  0.4417198E+04  0.7818608E-02  0.7925295E-01
          2   -1    0    0  501    0  0.00000000000E+00  0.00000000000E+00  0.14136112044E+04  0.14136112044E+04  0.00000000000E+00 0. -1.
         -2   -1    0    0    0  501 -0.00000000000E+00 -0.00000000000E+00 -0.34506723849E+04  0.34506723849E+04  0.00000000000E+00 0.  1.
        -24    2    1    2    0    0  0.10130534480E+04  0.31092619821E+03 -0.44871722181E+03  0.11535475231E+04  0.79827023378E+02 0.  0.
    9900016    2    1    2    0    0 -0.35635795008E+03 -0.10537922833E+04 -0.45194358240E+03  0.22025899151E+04  0.18465319298E+04 0.  0.
         24    2    4    4    0    0 -0.32467686706E+03 -0.11327937303E+04 -0.42315393586E+03  0.12545138675E+04  0.78160647742E+02 0.  0.
        -15    1    5    5    0    0 -0.15678858021E+03 -0.62228174634E+03 -0.19523882660E+03  0.67077226398E+03  0.00000000000E+00 0.  1.
        -15    1    1    2    0    0 -0.65669549797E+03  0.74286608509E+03 -0.11364003764E+04  0.15081461510E+04  0.00000000000E+00 0.  1.
         15    1    3    3    0    0  0.24657109013E+03  0.10818826311E+03 -0.97111711633E+02  0.28623886406E+03  0.00000000000E+00 0. -1.
         15    1    4    4    0    0  0.26631674415E+03  0.32870716550E+03 -0.25016427033E+03  0.49148262535E+03  0.00000000000E+00 0. -1.
        -16    1    3    3    0    0  0.76648235791E+03  0.20273793510E+03 -0.35160551017E+03  0.86730865908E+03  0.00000000000E+00 0.  1.
         16    1    5    5    0    0 -0.16788828685E+03 -0.51051198396E+03 -0.22791510926E+03  0.58374160350E+03  0.00000000000E+00 0. -1.
    9900018    1    4    4    0    0 -0.29799782718E+03 -0.24970571851E+03  0.22137462378E+03  0.45659342232E+03  0.91187600000E+02 0.  0.
<mgrwt>
<rscale>  0 0.44171978E+04</rscale>
<asrwt>0</asrwt>
<pdfrwt beam="1">  1        2 0.21747865E+00 0.44171978E+04</pdfrwt>
<pdfrwt beam="2">  1       -2 0.53087267E+00 0.44171978E+04</pdfrwt>
<totfact> 0.11786655E-02</totfact>
</mgrwt>
</event>
<event>
12    1  0.1030530E-010  0.4507941E+04  0.7818608E-02  0.8313254E-01
          2   -1    0    0  501    0  0.00000000000E+00  0.00000000000E+00  0.21591186298E+04  0.21591186298E+04  0.00000000000E+00 0.  1.
         -2   -1    0    0    0  501 -0.00000000000E+00 -0.00000000000E+00 -0.35109663015E+04  0.35109663015E+04  0.00000000000E+00 0. -1.
         24    2    1    2    0    0 -0.24297502816E+02  0.63476146724E+03 -0.94772356610E+03  0.11440657233E+04  0.84817053406E+02 0.  0.
    9900016    2    1    2    0    0 -0.10336844053E+04 -0.18111747325E+04 -0.81216603998E+03  0.28920754792E+04  0.18318377493E+04 0.  0.
        -24    2    4    4    0    0 -0.55596562923E+03 -0.86837140090E+03 -0.66925797547E+03  0.12318110679E+04  0.79281766179E+02 0.  0.
        -15    1    4    4    0    0  0.37518612438E+02  0.22549655250E+03  0.23267753949E+03  0.32618273843E+03  0.00000000000E+00 0.  1.
        -15    1    3    3    0    0  0.31692137012E+02  0.26195220578E+03 -0.38687552418E+03  0.46829053041E+03  0.00000000000E+00 0.  1.
         15    1    1    2    0    0  0.10579819081E+04  0.11764132653E+04  0.40804193435E+03  0.16339437288E+04  0.00000000000E+00 0. -1.
         15    1    5    5    0    0 -0.38456433234E+03 -0.62211573884E+03 -0.51447448785E+03  0.89420451624E+03  0.00000000000E+00 0. -1.
        -16    1    5    5    0    0 -0.17140129689E+03 -0.24625566206E+03 -0.15478348762E+03  0.33760655165E+03  0.00000000000E+00 0.  1.
         16    1    3    3    0    0 -0.55989639828E+02  0.37280926146E+03 -0.56084804192E+03  0.67577519289E+03  0.00000000000E+00 0. -1.
    9900018    1    4    4    0    0 -0.51523738852E+03 -0.11682998841E+04 -0.37558560400E+03  0.13340816729E+04  0.91187600000E+02 0.  0.
<mgrwt>
<rscale>  0 0.27680579E+04</rscale>
<asrwt>0</asrwt>
<pdfrwt beam="1">  1        2 0.33217210E+00 0.45079412E+04</pdfrwt>
<pdfrwt beam="2">  1       -2 0.54014866E+00 0.45079412E+04</pdfrwt>
<totfact> 0.38596592E-03</totfact>
</mgrwt>
</event>
<event>
12    1  0.1030530E-010  0.5107927E+04  0.7818608E-02  0.7812071E-01
         -1   -1    0    0    0  501 -0.00000000000E+00  0.00000000000E+00  0.22345693606E+04  0.22345693606E+04  0.00000000000E+00 0.  1.
          1   -1    0    0  501    0  0.00000000000E+00 -0.00000000000E+00 -0.29190091594E+04  0.29190091594E+04  0.00000000000E+00 0. -1.
         24    2    1    2    0    0  0.77389078435E+03 -0.85852354152E+03 -0.32396148845E+03  0.12030048627E+04  0.79372766780E+02 0.  0.
    9900016    2    1    2    0    0 -0.17092770537E+04  0.37470486254E+03 -0.10153434539E+04  0.27104622337E+04  0.18037880725E+04 0.  0.
        -24    2    4    4    0    0 -0.66927873981E+03  0.42003918441E+03  0.14661826835E+03  0.80744522556E+03  0.78127637057E+02 0.  0.
        -15    1    4    4    0    0  0.19958505023E+03 -0.15494745717E+03 -0.26618542582E+03  0.36701169965E+03  0.00000000000E+00 0.  1.
        -15    1    3    3    0    0  0.34474376609E+03 -0.36286650851E+03 -0.17884302560E+03  0.53151217772E+03  0.00000000000E+00 0.  1.
         15    1    1    2    0    0  0.93538626934E+03  0.48381867899E+03  0.65486514346E+03  0.12401114237E+04  0.00000000000E+00 0. -1.
         15    1    5    5    0    0 -0.49338592898E+03  0.31719322031E+03  0.74296636133E+02  0.59123701175E+03  0.00000000000E+00 0. -1.
        -16    1    5    5    0    0 -0.17589281083E+03  0.10284596410E+03  0.72321632214E+02  0.21620821381E+03  0.00000000000E+00 0.  1.
         16    1    3    3    0    0  0.42914701826E+03 -0.49565703301E+03 -0.14511846286E+03  0.67149268493E+03  0.00000000000E+00 0. -1.
    9900018    1    4    4    0    0 -0.12395833641E+04  0.10961313530E+03 -0.89577629641E+03  0.15360053085E+04  0.91187600000E+02 0.  0.
<mgrwt>
<rscale>  0 0.51079266E+04</rscale>
<asrwt>0</asrwt>
<pdfrwt beam="1">  1        1 0.44907833E+00 0.51079266E+04</pdfrwt>
<pdfrwt beam="2">  1       -1 0.34377990E+00 0.51079266E+04</pdfrwt>
<totfact> 0.83708353E-03</totfact>
</mgrwt>
</event>
<event>
12    1  0.1030530E-010  0.3784450E+04  0.7818608E-02  0.8576365E-01
         -2   -1    0    0    0  501 -0.00000000000E+00  0.00000000000E+00  0.20596731039E+04  0.20596731039E+04  0.00000000000E+00 0. -1.
          2   -1    0    0  501    0  0.00000000000E+00 -0.00000000000E+00 -0.22037670216E+04  0.22037670216E+04  0.00000000000E+00 0.  1.
        -24    2    1    2    0    0  0.29816497528E+03  0.13130707737E+03  0.30315660654E+03  0.45265380113E+03  0.82750435287E+02 0.  0.
    9900016    2    1    2    0    0  0.83758225788E+03 -0.51703749760E+03 -0.11885906372E+04  0.24007172135E+04  0.18389735244E+04 0.  0.
         24    2    4    4    0    0  0.18326129795E+03  0.47050184144E+03 -0.99097807005E+03  0.11150230890E+04  0.79260756430E+02 0.  0.
        -15    1    5    5    0    0  0.41082707154E+02  0.21324333469E+03 -0.41650164099E+03  0.46971706970E+03  0.00000000000E+00 0.  1.
        -15    1    1    2    0    0 -0.11357472332E+04  0.38573042023E+03  0.74134011288E+03  0.14100691110E+04  0.00000000000E+00 0.  1.
         15    1    4    4    0    0  0.26291000824E+03 -0.75368304415E+02 -0.34843241870E+02  0.27571018343E+03  0.00000000000E+00 0. -1.
         15    1    3    3    0    0  0.20569989207E+03  0.12805016264E+03  0.20091637081E+03  0.31476447991E+03  0.00000000000E+00 0. -1.
        -16    1    3    3    0    0  0.92465083211E+02  0.32569147254E+01  0.10224023572E+03  0.13788932122E+03  0.00000000000E+00 0.  1.
         16    1    5    5    0    0  0.14217859080E+03  0.25725850676E+03 -0.57447642906E+03  0.64530601929E+03  0.00000000000E+00 0. -1.
    9900018    1    4    4    0    0  0.39141095168E+03 -0.91217103463E+03 -0.16276932524E+03  0.10099839410E+04  0.91187600000E+02 0.  0.
<mgrwt>
<rscale>  0 0.20660118E+04</rscale>
<asrwt>0</asrwt>
<pdfrwt beam="1">  1        2 0.33904108E+00 0.37844497E+04</pdfrwt>
<pdfrwt beam="2">  1       -2 0.31687278E+00 0.37844497E+04</pdfrwt>
<totfact> 0.10150456E-01</totfact>
</mgrwt>
</event>
