<event>
11    1  0.5235796E-014  0.3715650E+04  0.7818608E-02  0.8217667E-01
         -2   -1    0    0    0  501 -0.00000000000E+00  0.00000000000E+00  0.47948831285E+04  0.47948831285E+04  0.00000000000E+00 0.  1.
          2   -1    0    0  501    0  0.00000000000E+00 -0.00000000000E+00 -0.19276497641E+04  0.19276497641E+04  0.00000000000E+00 0. -1.
    9900016    2    1    2    0    0 -0.10321129315E+03 -0.14991682441E+03  0.15991988083E+03  0.21718329750E+04  0.21582762747E+04 0.  0.
         24    2    3    3    0    0  0.53295166566E+03  0.68295470283E+02 -0.81999099839E+03  0.98332750723E+03  0.76459138359E+02 0.  0.
        -15    1    1    2    0    0  0.28740125874E+03  0.61433459224E+03  0.87882920547E+03  0.11101113670E+04  0.00000000000E+00 0.  1.
        -15    1    4    4    0    0  0.14388161709E+03 -0.11184672201E+02 -0.18937191384E+03  0.23809396964E+03  0.00000000000E+00 0.  1.
         15    1    3    3    0    0 -0.63616295881E+03 -0.21821229470E+03  0.97991087923E+03  0.11885054678E+04  0.00000000000E+00 0. -1.
         15    1    1    2    0    0 -0.71676622586E+03  0.84165048730E+03  0.15021395035E+04  0.18650877870E+04  0.00000000000E+00 0. -1.
        -16    1    1    2    0    0  0.54358864476E+03 -0.13378970212E+04  0.30429101486E+03  0.14758218307E+04  0.00000000000E+00 0.  1.
         16    1    4    4    0    0  0.38907004857E+03  0.79480142484E+02 -0.63061908455E+03  0.74523353759E+03  0.00000000000E+00 0. -1.
    9900018    1    1    2    0    0 -0.11012384496E+02  0.31828766110E+02  0.22053759691E+02  0.99678932953E+02  0.91187600000E+02 0.  0.
<mgrwt>
<rscale>  0 0.30929810E+04</rscale>
<asrwt>0</asrwt>
<pdfrwt beam="1">  1        2 0.29656150E+00 0.37156503E+04</pdfrwt>
<pdfrwt beam="2">  1       -2 0.73767432E+00 0.37156503E+04</pdfrwt>
<totfact> 0.90181562E-04</totfact>
</mgrwt>
</event>
<event>
11    1  0.5235796E-014  0.6218088E+04  0.7818608E-02  0.7663934E-01
         -2   -1    0    0    0  501 -0.00000000000E+00  0.00000000000E+00  0.25072619471E+04  0.25072619471E+04  0.00000000000E+00 0. -1.
          2   -1    0    0  501    0  0.00000000000E+00 -0.00000000000E+00 -0.38552633312E+04  0.38552633312E+04  0.00000000000E+00 0.  1.
    9900016    2    1    2    0    0 -0.64638159940E+03  0.47012125033E+03  0.24610846172E+03  0.24027254054E+04  0.22524868117E+04 0.  0.
        -24    2    3    3    0    0 -0.19119544965E+03  0.27628569760E+03  0.12004685039E+04  0.12493444651E+04  0.82749483909E+02 0.  0.
        -15    1    1    2    0    0  0.38365452549E+03 -0.74485927869E+03 -0.25148757574E+04  0.26507746444E+04  0.00000000000E+00 0.  1.
        -15    1    3    3    0    0 -0.42450793840E+03  0.11783456235E+03 -0.92901273865E+03  0.10281812303E+04  0.00000000000E+00 0.  1.
         15    1    4    4    0    0 -0.74710259380E+02  0.11659876714E+03  0.35441090126E+03  0.38050490442E+03  0.00000000000E+00 0. -1.
         15    1    1    2    0    0  0.54443827041E+02  0.42600069736E+03  0.89336372709E+02  0.43865899278E+03  0.00000000000E+00 0. -1.
        -16    1    4    4    0    0 -0.11648519027E+03  0.15968693046E+03  0.84605760261E+03  0.86883956071E+03  0.00000000000E+00 0.  1.
         16    1    1    2    0    0  0.20828324687E+03 -0.15126266900E+03  0.83142953898E+03  0.87036623570E+03  0.00000000000E+00 0. -1.
    9900018    1    3    3    0    0 -0.30678211353E+02  0.76000990376E+02 -0.25347303504E+02  0.12519970998E+03  0.91187600000E+02 0.  0.
<mgrwt>
<rscale>  0 0.62180881E+04</rscale>
<asrwt>0</asrwt>
<pdfrwt beam="1">  1        2 0.59311743E+00 0.62180881E+04</pdfrwt>
<pdfrwt beam="2">  1       -2 0.38573261E+00 0.62180881E+04</pdfrwt>
<totfact> 0.27008847E-03</totfact>
</mgrwt>
</event>
<event>
11    1  0.5235796E-014  0.2802641E+04  0.7818608E-02  0.8565074E-01
          2   -1    0    0  501    0  0.00000000000E+00  0.00000000000E+00  0.15839100498E+04  0.15839100498E+04  0.00000000000E+00 0. -1.
         -2   -1    0    0    0  501 -0.00000000000E+00 -0.00000000000E+00 -0.21773248637E+04  0.21773248637E+04  0.00000000000E+00 0.  1.
    9900016    2    1    2    0    0  0.60023224633E+01 -0.93582303507E+02 -0.14482266591E+03  0.21649122539E+04  0.21580263639E+04 0.  0.
        -24    2    3    3    0    0 -0.53745942380E+03  0.50071916182E+03 -0.82755349915E+03  0.11091346770E+04  0.75846071083E+02 0.  0.
        -15    1    3    3    0    0  0.54346174626E+03 -0.59430146533E+03  0.68273083324E+03  0.10557775769E+04  0.00000000000E+00 0.  1.
        -15    1    1    2    0    0 -0.65351563560E+03  0.87135741166E+02 -0.13212222610E+03  0.67240732149E+03  0.00000000000E+00 0.  1.
         15    1    4    4    0    0 -0.46090649605E+03  0.46188991154E+03 -0.72498361320E+03  0.97538624549E+03  0.00000000000E+00 0. -1.
         15    1    1    2    0    0  0.98145450201E+02 -0.57590167847E+02 -0.25424453214E+03  0.27854880892E+03  0.00000000000E+00 0. -1.
        -16    1    4    4    0    0 -0.76552927744E+02  0.38829250274E+02 -0.10256988595E+03  0.13374843149E+03  0.00000000000E+00 0.  1.
         16    1    1    2    0    0  0.53937995158E+03  0.78058053922E+02 -0.80125896533E+02  0.55085746909E+03  0.00000000000E+00 0. -1.
    9900018    1    1    2    0    0  0.99879113536E+01 -0.14021323734E+02  0.17900506809E+02  0.94509060043E+02  0.91187600000E+02 0.  0.
<mgrwt>
<rscale>  0 0.20913261E+04</rscale>
<asrwt>0</asrwt>
<pdfrwt beam="1">  1        2 0.24367847E+00 0.28026412E+04</pdfrwt>
<pdfrwt beam="2">  1       -2 0.33497305E+00 0.28026412E+04</pdfrwt>
<totfact> 0.18613920E-01</totfact>
</mgrwt>
</event>
<event>
11    1  0.5235796E-014  0.5144006E+04  0.7818608E-02  0.7981641E-01
         -2   -1    0    0    0  501 -0.00000000000E+00  0.00000000000E+00  0.27867786447E+04  0.27867786447E+04  0.00000000000E+00 0.  1.
          2   -1    0    0  501    0  0.00000000000E+00 -0.00000000000E+00 -0.47523070611E+04  0.47523070611E+04  0.00000000000E+00 0. -1.
    9900016    2    1    2    0    0  0.68188019570E+03 -0.47742063171E+03  0.32045437024E+03  0.24124390842E+04  0.22414906359E+04 0.  0.
         24    2    3    3    0    0  0.67371239707E+03  0.79164618875E+03  0.12171904243E+03  0.10496223225E+04  0.79368838845E+02 0.  0.
        -15    1    4    4    0    0  0.98528735218E+02  0.15456915492E+03  0.38332804733E+02  0.18726702655E+03  0.00000000000E+00 0.  1.
        -15    1    1    2    0    0 -0.55559556947E+02 -0.91638971222E+03 -0.60492158817E+03  0.10994485422E+04  0.00000000000E+00 0.  1.
         15    1    1    2    0    0 -0.50245322816E+03 -0.83479202504E+03  0.32402065923E+03  0.10268039536E+04  0.00000000000E+00 0. -1.
         15    1    3    3    0    0 -0.38094444839E+02 -0.12340007100E+04  0.14807370840E+03  0.12434366739E+04  0.00000000000E+00 0. -1.
        -16    1    1    2    0    0 -0.12386741059E+03  0.22286023690E+04 -0.20050818577E+04  0.30003941258E+04  0.00000000000E+00 0.  1.
         16    1    4    4    0    0  0.57518366185E+03  0.63707703383E+03  0.83386237699E+02  0.86235529599E+03  0.00000000000E+00 0. -1.
    9900018    1    3    3    0    0  0.46262243473E+02 -0.35066110470E+02  0.50661619411E+02  0.11938008774E+03  0.91187600000E+02 0.  0.
<mgrwt>
<rscale>  0 0.41155126E+04</rscale>
<asrwt>0</asrwt>
<pdfrwt beam="1">  1        2 0.73112416E+00 0.51440056E+04</pdfrwt>
<pdfrwt beam="2">  1       -2 0.42873518E+00 0.51440056E+04</pdfrwt>
<totfact> 0.21488411E-04</totfact>
</mgrwt>
</event>
<event>
11    1  0.5235798E-014  0.3873658E+04  0.7818608E-02  0.8203442E-01
         -2   -1    0    0    0  501 -0.00000000000E+00  0.00000000000E+00  0.23373269053E+04  0.23373269053E+04  0.00000000000E+00 0.  1.
          2   -1    0    0  501    0  0.00000000000E+00 -0.00000000000E+00 -0.33163466368E+04  0.33163466368E+04  0.00000000000E+00 0. -1.
    9900016    2    1    2    0    0  0.44099964364E+03  0.41994778222E+03 -0.73944800272E+03  0.24413783556E+04  0.22455974931E+04 0.  0.
        -24    2    3    3    0    0  0.28406485658E+03  0.87627566697E+03  0.48529859998E+03  0.10446788547E+04  0.85365631518E+02 0.  0.
        -15    1    1    2    0    0  0.80494656901E+03 -0.55769580270E+02  0.54279127271E+03  0.97245647243E+03  0.00000000000E+00 0.  1.
        -15    1    3    3    0    0  0.18452986943E+03 -0.47575130817E+03 -0.11876457142E+04  0.12926302342E+04  0.00000000000E+00 0.  1.
         15    1    4    4    0    0  0.11914795699E+03  0.44566268955E+03  0.28249103150E+03  0.54093682754E+03  0.00000000000E+00 0. -1.
         15    1    1    2    0    0  0.23467460345E+03 -0.21534364924E+02 -0.67653846342E+03  0.71640783836E+03  0.00000000000E+00 0. -1.
        -16    1    4    4    0    0  0.16491689959E+03  0.43061297742E+03  0.20280756848E+03  0.50374202716E+03  0.00000000000E+00 0.  1.
         16    1    1    2    0    0 -0.14806208161E+04 -0.34264383703E+03 -0.10582453805E+03  0.15234308757E+04  0.00000000000E+00 0. -1.
    9900018    1    3    3    0    0 -0.27595082374E+02  0.19423423424E+02 -0.37100888481E+02  0.10406926669E+03  0.91187600000E+02 0.  0.
<mgrwt>
<rscale>  0 0.31451989E+04</rscale>
<asrwt>0</asrwt>
<pdfrwt beam="1">  1        2 0.51020717E+00 0.38736580E+04</pdfrwt>
<pdfrwt beam="2">  1       -2 0.35958876E+00 0.38736580E+04</pdfrwt>
<totfact> 0.11089001E-02</totfact>
</mgrwt>
</event>
<event>
11    1  0.5235796E-014  0.4707234E+04  0.7818608E-02  0.7875328E-01
         -2   -1    0    0    0  501 -0.00000000000E+00  0.00000000000E+00  0.17198637297E+04  0.17198637297E+04  0.00000000000E+00 0. -1.
          2   -1    0    0  501    0  0.00000000000E+00 -0.00000000000E+00 -0.32209019098E+04  0.32209019098E+04  0.00000000000E+00 0.  1.
    9900016    2    1    2    0    0 -0.96237977875E+03  0.38777378412E+03 -0.14867625122E+04  0.28874346939E+04  0.22472812457E+04 0.  0.
         24    2    3    3    0    0 -0.74120820710E+03  0.11083767116E+04 -0.20907527363E+03  0.13519573750E+04  0.78662142355E+02 0.  0.
        -15    1    1    2    0    0  0.40046397330E+02 -0.48003375657E+02 -0.23619852286E+03  0.24433129193E+03  0.00000000000E+00 0.  1.
        -15    1    4    4    0    0 -0.55071094622E+03  0.75881499877E+03 -0.14719232090E+03  0.94907761958E+03  0.00000000000E+00 0.  1.
         15    1    3    3    0    0 -0.17935815388E+03 -0.72508737631E+03 -0.11711940503E+04  0.13891063869E+04  0.00000000000E+00 0. -1.
         15    1    1    2    0    0  0.10861951359E+04 -0.73096776170E+03  0.36872766404E+03  0.13601815438E+04  0.00000000000E+00 0. -1.
        -16    1    1    2    0    0 -0.16386175444E+03  0.39119735324E+03 -0.14680480903E+03  0.44881810982E+03  0.00000000000E+00 0.  1.
         16    1    4    4    0    0 -0.19049726088E+03  0.34956171284E+03 -0.61882952732E+02  0.40287975542E+03  0.00000000000E+00 0. -1.
    9900018    1    3    3    0    0 -0.41813417775E+02  0.44844488082E+01 -0.10649318834E+03  0.14637093203E+03  0.91187600000E+02 0.  0.
<mgrwt>
<rscale>  0 0.47072337E+04</rscale>
<asrwt>0</asrwt>
<pdfrwt beam="1">  1        2 0.49552337E+00 0.47072337E+04</pdfrwt>
<pdfrwt beam="2">  1       -2 0.26459442E+00 0.47072337E+04</pdfrwt>
<totfact> 0.48916133E-02</totfact>
</mgrwt>
</event>
