<event>
11    1  0.8472310E-009  0.3323795E+04  0.7818608E-02  0.8156867E-01
         -2   -1    0    0    0  501 -0.00000000000E+00  0.00000000000E+00  0.11726476242E+04  0.11726476242E+04  0.00000000000E+00 0.  1.
          2   -1    0    0  501    0  0.00000000000E+00 -0.00000000000E+00 -0.23552711649E+04  0.23552711649E+04  0.00000000000E+00 0. -1.
    9900016    2    1    2    0    0  0.43868594104E+03 -0.29142375278E+03 -0.11046859481E+04  0.23610338882E+04  0.20191029738E+04 0.  0.
         24    2    3    3    0    0  0.20982781277E+03  0.26518032225E+03 -0.12109838875E+04  0.12598565119E+04  0.80050860924E+02 0.  0.
        -15    1    4    4    0    0  0.14324503062E+03  0.15129722459E+03 -0.86060039472E+03  0.88546204230E+03  0.00000000000E+00 0.  1.
        -15    1    3    3    0    0 -0.54158022706E+01 -0.24385673422E+03  0.82535003595E+02  0.25750235835E+03  0.00000000000E+00 0.  1.
         15    1    3    3    0    0 -0.25010207098E+03  0.55935833169E+00  0.83607318268E+02  0.26370730452E+03  0.00000000000E+00 0. -1.
         15    1    3    3    0    0  0.48437600152E+03 -0.31330669915E+03 -0.59844382474E+02  0.57996771349E+03  0.00000000000E+00 0. -1.
        -16    1    1    2    0    0 -0.53713256599E+03  0.44664038985E+03  0.28138187764E+03  0.75311007984E+03  0.00000000000E+00 0.  1.
         16    1    4    4    0    0  0.66582782147E+02  0.11388309767E+03 -0.35038349279E+03  0.37439446956E+03  0.00000000000E+00 0. -1.
    9900018    1    1    2    0    0  0.98446624952E+02 -0.15521663707E+03 -0.35931947023E+03  0.41377482097E+03  0.91187600000E+02 0.  0.
<mgrwt>
<rscale>  0 0.33237949E+04</rscale>
<asrwt>0</asrwt>
<pdfrwt beam="1">  1        2 0.36234941E+00 0.33237949E+04</pdfrwt>
<pdfrwt beam="2">  1       -2 0.18040733E+00 0.33237949E+04</pdfrwt>
<totfact> 0.63322359E-01</totfact>
</mgrwt>
</event>
<event>
11    1  0.6138927E-009  0.3856087E+04  0.7818608E-02  0.8034225E-01
          2   -1    0    0  501    0  0.00000000000E+00  0.00000000000E+00  0.24078397626E+04  0.24078397626E+04  0.00000000000E+00 0.  1.
         -2   -1    0    0    0  501 -0.00000000000E+00 -0.00000000000E+00 -0.15438534570E+04  0.15438534570E+04  0.00000000000E+00 0. -1.
    9900016    2    1    2    0    0  0.19976724369E+03  0.44950132575E+03  0.23700068798E+03  0.20936468869E+04  0.20211950840E+04 0.  0.
        -24    2    3    3    0    0 -0.62047920803E+02 -0.12566789790E+03 -0.30988100867E+03  0.34940983948E+03  0.80116361328E+02 0.  0.
        -15    1    3    3    0    0  0.27757248148E+03  0.91134752584E+03  0.49146123724E+03  0.10719771187E+04  0.00000000000E+00 0.  1.
        -15    1    3    3    0    0  0.18180149560E+02 -0.48370961601E+03 -0.51706966990E+02  0.48680501322E+03  0.00000000000E+00 0.  1.
         15    1    4    4    0    0 -0.20540968083E+02 -0.11681809907E+02 -0.13202470474E+03  0.13412277478E+03  0.00000000000E+00 0. -1.
         15    1    3    3    0    0 -0.33937466555E+02  0.14753131382E+03  0.10712742639E+03  0.18545491549E+03  0.00000000000E+00 0. -1.
        -16    1    4    4    0    0 -0.41506952720E+02 -0.11398608799E+03 -0.17785630393E+03  0.21528706470E+03  0.00000000000E+00 0.  1.
         16    1    1    2    0    0 -0.35465323198E+03  0.47943056764E+03 -0.17091796724E+03  0.62035919891E+03  0.00000000000E+00 0. -1.
    9900018    1    1    2    0    0  0.15488598830E+03 -0.92893189339E+03  0.79790358491E+03  0.12376871338E+04  0.91187600000E+02 0.  0.
<mgrwt>
<rscale>  0 0.38560870E+04</rscale>
<asrwt>0</asrwt>
<pdfrwt beam="1">  1        2 0.37043688E+00 0.38560870E+04</pdfrwt>
<pdfrwt beam="2">  1       -2 0.23751592E+00 0.38560870E+04</pdfrwt>
<totfact> 0.24102838E-01</totfact>
</mgrwt>
</event>
<event>
11    1  0.6138927E-009  0.3941244E+04  0.7818608E-02  0.8016506E-01
         -1   -1    0    0    0  501 -0.00000000000E+00  0.00000000000E+00  0.11583496305E+04  0.11583496305E+04  0.00000000000E+00 0.  1.
          1   -1    0    0  501    0  0.00000000000E+00 -0.00000000000E+00 -0.33524860702E+04  0.33524860702E+04  0.00000000000E+00 0. -1.
    9900016    2    1    2    0    0 -0.10787038706E+03  0.95569903552E+03 -0.40986565242E+03  0.22735389189E+04  0.20189087884E+04 0.  0.
        -24    2    3    3    0    0  0.60138796603E+03  0.26982816740E+03 -0.46056509773E+03  0.80805548046E+03  0.79741611759E+02 0.  0.
        -15    1    3    3    0    0  0.16595479434E+03  0.24883838176E+03 -0.58755425841E+02  0.30481754226E+03  0.00000000000E+00 0.  1.
        -15    1    3    3    0    0 -0.25337377487E+03  0.13831135056E+03  0.32806939441E+03  0.43698721610E+03  0.00000000000E+00 0.  1.
         15    1    3    3    0    0 -0.62183937256E+03  0.29872113580E+03 -0.21861452325E+03  0.72367868009E+03  0.00000000000E+00 0. -1.
         15    1    4    4    0    0  0.26331304079E+03  0.16155978374E+03 -0.20996624248E+03  0.37352529252E+03  0.00000000000E+00 0. -1.
        -16    1    4    4    0    0  0.33807492523E+03  0.10826838366E+03 -0.25059885525E+03  0.43453018793E+03  0.00000000000E+00 0.  1.
         16    1    1    2    0    0 -0.25358981606E+02 -0.96651515321E+03 -0.18295159437E+04  0.20692808431E+04  0.00000000000E+00 0. -1.
    9900018    1    1    2    0    0  0.13322936867E+03  0.10816117692E+02  0.45245156426E+02  0.16801593868E+03  0.91187600000E+02 0.  0.
<mgrwt>
<rscale>  0 0.39412440E+04</rscale>
<asrwt>0</asrwt>
<pdfrwt beam="1">  1        1 0.51576708E+00 0.39412440E+04</pdfrwt>
<pdfrwt beam="2">  1       -1 0.17820764E+00 0.39412440E+04</pdfrwt>
<totfact> 0.54822319E-02</totfact>
</mgrwt>
</event>
<event>
11    1  0.6138927E-009  0.3849191E+04  0.7818608E-02  0.8035680E-01
          1   -1    0    0  501    0  0.00000000000E+00  0.00000000000E+00  0.23692598776E+04  0.23692598776E+04  0.00000000000E+00 0. -1.
         -1   -1    0    0    0  501 -0.00000000000E+00 -0.00000000000E+00 -0.15633863085E+04  0.15633863085E+04  0.00000000000E+00 0.  1.
    9900016    2    1    2    0    0 -0.84715546954E+03 -0.69132295285E+03  0.11060427173E+04  0.25532847859E+04  0.20249278730E+04 0.  0.
        -24    2    3    3    0    0 -0.76421313304E+03 -0.38733368328E+03  0.59591182418E+03  0.10469067540E+04  0.82787405446E+02 0.  0.
        -15    1    3    3    0    0 -0.24419024885E+03  0.26607313516E+03  0.59260857767E+03  0.69398034354E+03  0.00000000000E+00 0.  1.
        -15    1    3    3    0    0 -0.17919935807E+03 -0.92577709480E+02 -0.10121647994E+03  0.22567192567E+03  0.00000000000E+00 0.  1.
         15    1    3    3    0    0  0.34044727041E+03 -0.47748469525E+03  0.18738795416E+02  0.58672576268E+03  0.00000000000E+00 0. -1.
         15    1    4    4    0    0 -0.35799879677E+03 -0.22405085971E+03  0.27266131957E+03  0.50269883769E+03  0.00000000000E+00 0. -1.
        -16    1    4    4    0    0 -0.40621433627E+03 -0.16328282357E+03  0.32325050461E+03  0.54420791633E+03  0.00000000000E+00 0.  1.
         16    1    1    2    0    0  0.76272290202E+02  0.51584826548E+03  0.19243538170E+02  0.52181146884E+03  0.00000000000E+00 0. -1.
    9900018    1    1    2    0    0  0.77088317934E+03  0.17547468737E+03 -0.31941268645E+03  0.85754993135E+03  0.91187600000E+02 0.  0.
<mgrwt>
<rscale>  0 0.38491913E+04</rscale>
<asrwt>0</asrwt>
<pdfrwt beam="1">  1        1 0.36450152E+00 0.38491913E+04</pdfrwt>
<pdfrwt beam="2">  1       -1 0.24052097E+00 0.38491913E+04</pdfrwt>
<totfact> 0.10632734E-01</totfact>
</mgrwt>
</event>
<event>
11    1  0.6138927E-009  0.2601014E+04  0.7818608E-02  0.8367857E-01
         -2   -1    0    0    0  501 -0.00000000000E+00  0.00000000000E+00  0.20570366025E+04  0.20570366025E+04  0.00000000000E+00 0. -1.
          2   -1    0    0  501    0  0.00000000000E+00 -0.00000000000E+00 -0.82221088501E+03  0.82221088501E+03  0.00000000000E+00 0.  1.
    9900016    2    1    2    0    0  0.28687494696E+03  0.29380512975E+03  0.11668680418E+04  0.23740217445E+04  0.20262723230E+04 0.  0.
        -24    2    3    3    0    0  0.35933536553E+03 -0.32967290996E+03  0.47150240604E+03  0.68296361605E+03  0.79489933102E+02 0.  0.
        -15    1    3    3    0    0 -0.25924961362E+03  0.56554612141E+03  0.85554084587E+03  0.10578293419E+04  0.00000000000E+00 0.  1.
        -15    1    3    3    0    0  0.27175181907E+02 -0.64546748325E+02 -0.34981058887E+03  0.35675232489E+03  0.00000000000E+00 0.  1.
         15    1    3    3    0    0  0.15961401314E+03  0.12247866662E+03  0.18963537880E+03  0.27647646167E+03  0.00000000000E+00 0. -1.
         15    1    4    4    0    0  0.70049380608E+02 -0.37411299651E+02  0.48670149581E+02  0.93141314815E+02  0.00000000000E+00 0. -1.
        -16    1    4    4    0    0  0.28928598493E+03 -0.29226161030E+03  0.42283225645E+03  0.58982230123E+03  0.00000000000E+00 0.  1.
         16    1    1    2    0    0 -0.21533765128E+03 -0.37813808770E+02  0.45556057243E+02  0.22332832902E+03  0.00000000000E+00 0. -1.
    9900018    1    1    2    0    0 -0.71537295683E+02 -0.25599132098E+03  0.22401618375E+02  0.28189741395E+03  0.91187600000E+02 0.  0.
<mgrwt>
<rscale>  0 0.26010136E+04</rscale>
<asrwt>0</asrwt>
<pdfrwt beam="1">  1        2 0.12649398E+00 0.26010136E+04</pdfrwt>
<pdfrwt beam="2">  1       -2 0.31646717E+00 0.26010136E+04</pdfrwt>
<totfact> 0.73955284E-01</totfact>
</mgrwt>
</event>
<event>
11    1  0.6138927E-009  0.4371196E+04  0.7818608E-02  0.7933583E-01
          1   -1    0    0  501    0  0.00000000000E+00  0.00000000000E+00  0.26805444782E+04  0.26805444782E+04  0.00000000000E+00 0. -1.
         -1   -1    0    0    0  501 -0.00000000000E+00 -0.00000000000E+00 -0.17820403142E+04  0.17820403142E+04  0.00000000000E+00 0.  1.
    9900016    2    1    2    0    0 -0.23941130042E+03 -0.13539716339E+03  0.56672615322E+03  0.21188110189E+04  0.20230006027E+04 0.  0.
         24    2    3    3    0    0  0.10328099402E+03  0.68070318741E+02  0.21037923028E+03  0.25691616426E+03  0.80286754220E+02 0.  0.
        -15    1    4    4    0    0  0.53674508912E+02  0.56919574823E+00  0.39618336059E+02  0.66714986643E+02  0.00000000000E+00 0.  1.
        -15    1    3    3    0    0 -0.16406385235E+03  0.26593350897E+02  0.76643295622E+02  0.18302554118E+03  0.00000000000E+00 0.  1.
         15    1    3    3    0    0 -0.21164293400E+03 -0.72282740026E+03 -0.38889100675E+03  0.84764874637E+03  0.00000000000E+00 0. -1.
         15    1    3    3    0    0  0.33014491910E+02  0.49276656723E+03  0.66859463407E+03  0.83122056710E+03  0.00000000000E+00 0. -1.
        -16    1    1    2    0    0 -0.12498859243E+03 -0.54628638812E+03 -0.79600482905E+03  0.97348582628E+03  0.00000000000E+00 0.  1.
         16    1    4    4    0    0  0.49606485112E+02  0.67501122993E+02  0.17076089422E+03  0.19020117761E+03  0.00000000000E+00 0. -1.
    9900018    1    1    2    0    0  0.36439989285E+03  0.68168355151E+03  0.11277828398E+04  0.13702879472E+04  0.91187600000E+02 0.  0.
<mgrwt>
<rscale>  0 0.43711959E+04</rscale>
<asrwt>0</asrwt>
<pdfrwt beam="1">  1        1 0.41239146E+00 0.43711959E+04</pdfrwt>
<pdfrwt beam="2">  1       -1 0.27416005E+00 0.43711959E+04</pdfrwt>
<totfact> 0.37347147E-02</totfact>
</mgrwt>
</event>
<event>
11    1  0.6138927E-009  0.3061091E+04  0.7818608E-02  0.8226498E-01
         -1   -1    0    0    0  501 -0.00000000000E+00  0.00000000000E+00  0.20393338223E+04  0.20393338223E+04  0.00000000000E+00 0.  1.
          1   -1    0    0  501    0  0.00000000000E+00 -0.00000000000E+00 -0.11486933543E+04  0.11486933543E+04  0.00000000000E+00 0. -1.
    9900016    2    1    2    0    0 -0.64369732784E+03  0.22157795866E+03  0.50173576111E+03  0.21885911404E+04  0.20186008432E+04 0.  0.
        -24    2    3    3    0    0 -0.72990166091E+03 -0.37471758896E+02  0.35811620169E+03  0.81745613479E+03  0.76333158480E+02 0.  0.
        -15    1    3    3    0    0 -0.47956888651E+03  0.31034472903E+03  0.21637763324E+03  0.61083504149E+03  0.00000000000E+00 0.  1.
        -15    1    3    3    0    0  0.64044683030E+03 -0.84466013815E+02  0.71212172679E+01  0.64603201288E+03  0.00000000000E+00 0.  1.
         15    1    4    4    0    0 -0.45212772195E+03 -0.59634913772E+02  0.21458898512E+03  0.50400816703E+03  0.00000000000E+00 0. -1.
         15    1    3    3    0    0 -0.74673610712E+02  0.33171002339E+02 -0.79879291091E+02  0.11426795123E+03  0.00000000000E+00 0. -1.
        -16    1    4    4    0    0 -0.27777393896E+03  0.22163154876E+02  0.14352721657E+03  0.31344796776E+03  0.00000000000E+00 0.  1.
         16    1    1    2    0    0  0.15380590823E+03 -0.22958953895E+03 -0.10703430536E+03  0.29635106939E+03  0.00000000000E+00 0. -1.
    9900018    1    1    2    0    0  0.48989141960E+03  0.80115802969E+01  0.49593901223E+03  0.70308496689E+03  0.91187600000E+02 0.  0.
<mgrwt>
<rscale>  0 0.30610908E+04</rscale>
<asrwt>0</asrwt>
<pdfrwt beam="1">  1        1 0.17672205E+00 0.30610908E+04</pdfrwt>
<pdfrwt beam="2">  1       -1 0.31374367E+00 0.30610908E+04</pdfrwt>
<totfact> 0.26531890E-01</totfact>
</mgrwt>
</event>
<event>
11    1  0.6138927E-009  0.3251206E+04  0.7818608E-02  0.8175423E-01
          2   -1    0    0  501    0  0.00000000000E+00  0.00000000000E+00  0.28408081144E+04  0.28408081144E+04  0.00000000000E+00 0. -1.
         -2   -1    0    0    0  501 -0.00000000000E+00 -0.00000000000E+00 -0.93022320893E+03  0.93022320893E+03  0.00000000000E+00 0.  1.
    9900016    2    1    2    0    0 -0.55328016971E+03 -0.90836618639E+02  0.84320701517E+03  0.22608649524E+04  0.20214207937E+04 0.  0.
        -24    2    3    3    0    0  0.41290512656E+03  0.43627579348E+03  0.63190201554E+03  0.87539342263E+03  0.78652880622E+02 0.  0.
        -15    1    3    3    0    0 -0.85094976995E+03 -0.27051591666E+03  0.11920341956E+03  0.90083507225E+03  0.00000000000E+00 0.  1.
        -15    1    3    3    0    0 -0.59330299377E+01 -0.79989411648E+02 -0.14728485491E+03  0.16770907938E+03  0.00000000000E+00 0.  1.
         15    1    3    3    0    0 -0.10930249639E+03 -0.17660708380E+03  0.23938643497E+03  0.31692737814E+03  0.00000000000E+00 0. -1.
         15    1    4    4    0    0  0.18259937301E+03  0.20173467401E+03  0.34257004374E+03  0.43748559358E+03  0.00000000000E+00 0. -1.
        -16    1    4    4    0    0  0.23030575356E+03  0.23454111946E+03  0.28933197180E+03  0.43790782905E+03  0.00000000000E+00 0.  1.
         16    1    1    2    0    0 -0.21319672327E+03 -0.62361184017E+02  0.47766520885E+03  0.52678820396E+03  0.00000000000E+00 0. -1.
    9900018    1    1    2    0    0  0.76647689298E+03  0.15319780266E+03  0.58971268141E+03  0.98337816694E+03  0.91187600000E+02 0.  0.
<mgrwt>
<rscale>  0 0.32512063E+04</rscale>
<asrwt>0</asrwt>
<pdfrwt beam="1">  1        2 0.43704740E+00 0.32512063E+04</pdfrwt>
<pdfrwt beam="2">  1       -2 0.14311126E+00 0.32512063E+04</pdfrwt>
<totfact> 0.62077602E-01</totfact>
</mgrwt>
</event>
<event>
11    1  0.6138927E-009  0.4427744E+04  0.7818608E-02  0.7923410E-01
         -2   -1    0    0    0  501 -0.00000000000E+00  0.00000000000E+00  0.23149161451E+04  0.23149161451E+04  0.00000000000E+00 0.  1.
          2   -1    0    0  501    0  0.00000000000E+00 -0.00000000000E+00 -0.21172384834E+04  0.21172384834E+04  0.00000000000E+00 0. -1.
    9900016    2    1    2    0    0 -0.23675065746E+03 -0.82314398235E+03 -0.18635827713E+03  0.22019418313E+04  0.20199508736E+04 0.  0.
         24    2    3    3    0    0 -0.69297153621E+03 -0.12031943965E+03  0.14579138100E+03  0.72303085781E+03  0.82656984034E+02 0.  0.
        -15    1    4    4    0    0 -0.24726932189E+03 -0.76018894460E+02  0.30129385515E+02  0.26043957022E+03  0.00000000000E+00 0.  1.
        -15    1    3    3    0    0 -0.79574341874E+02  0.32198318672E+02  0.28669630642E+03  0.29927174896E+03  0.00000000000E+00 0.  1.
         15    1    3    3    0    0  0.54625444051E+03 -0.42060875590E+03 -0.43751829349E+03  0.81653407550E+03  0.00000000000E+00 0. -1.
         15    1    3    3    0    0 -0.10459219888E+02 -0.31441410547E+03 -0.18132767106E+03  0.36310514909E+03  0.00000000000E+00 0. -1.
        -16    1    1    2    0    0 -0.43617254394E+03  0.68837628164E+03  0.10093763647E+04  0.12972852573E+04  0.00000000000E+00 0.  1.
         16    1    4    4    0    0 -0.44570221432E+03 -0.44300545195E+02  0.11566199549E+03  0.46259128759E+03  0.00000000000E+00 0. -1.
    9900018    1    1    2    0    0  0.67292320139E+03  0.13476770071E+03 -0.62534042586E+03  0.93292753992E+03  0.91187600000E+02 0.  0.
<mgrwt>
<rscale>  0 0.44277441E+04</rscale>
<asrwt>0</asrwt>
<pdfrwt beam="1">  1        2 0.32572900E+00 0.44277441E+04</pdfrwt>
<pdfrwt beam="2">  1       -2 0.35614095E+00 0.44277441E+04</pdfrwt>
<totfact> 0.62312329E-02</totfact>
</mgrwt>
</event>
<event>
11    1  0.6138927E-009  0.2481271E+04  0.7818608E-02  0.8409688E-01
         -2   -1    0    0    0  501 -0.00000000000E+00  0.00000000000E+00  0.79742606252E+03  0.79742606252E+03  0.00000000000E+00 0.  1.
          2   -1    0    0  501    0  0.00000000000E+00 -0.00000000000E+00 -0.19301804669E+04  0.19301804669E+04  0.00000000000E+00 0. -1.
    9900016    2    1    2    0    0 -0.18729098381E+03 -0.16890624927E+03 -0.11735511877E+04  0.23469223423E+04  0.20167337100E+04 0.  0.
        -24    2    3    3    0    0 -0.40428048051E+03 -0.13796490210E+03 -0.12977734876E+03  0.45378948928E+03  0.81275575655E+02 0.  0.
        -15    1    3    3    0    0  0.59001174004E+03 -0.84354189340E+02  0.10954777978E+03  0.60599521343E+03  0.00000000000E+00 0.  1.
        -15    1    3    3    0    0 -0.16472606381E+03  0.23503797430E+03 -0.69514869995E+03  0.75206997049E+03  0.00000000000E+00 0.  1.
         15    1    4    4    0    0 -0.31568132459E+02 -0.37097328852E+02 -0.13829845089E+02  0.50636186764E+02  0.00000000000E+00 0. -1.
         15    1    3    3    0    0 -0.20829617954E+03 -0.18162513212E+03 -0.45817291878E+03  0.53506766912E+03  0.00000000000E+00 0. -1.
        -16    1    4    4    0    0 -0.37271234805E+03 -0.10086757325E+03 -0.11594750367E+03  0.40315330251E+03  0.00000000000E+00 0.  1.
         16    1    1    2    0    0  0.58549802350E+02  0.13146822419E+03 -0.92246338823E+02  0.17094256449E+03  0.00000000000E+00 0. -1.
    9900018    1    1    2    0    0  0.12874118146E+03  0.37438025075E+02  0.13304312213E+03  0.20974162264E+03  0.91187600000E+02 0.  0.
<mgrwt>
<rscale>  0 0.24812708E+04</rscale>
<asrwt>0</asrwt>
<pdfrwt beam="1">  1        2 0.29695083E+00 0.24812708E+04</pdfrwt>
<pdfrwt beam="2">  1       -2 0.12268094E+00 0.24812708E+04</pdfrwt>
<totfact> 0.32796490E+00</totfact>
</mgrwt>
</event>
<event>
11    1  0.6138927E-009  0.4113620E+04  0.7818608E-02  0.7982010E-01
          2   -1    0    0  501    0  0.00000000000E+00  0.00000000000E+00  0.16454143954E+04  0.16454143954E+04  0.00000000000E+00 0. -1.
         -2   -1    0    0    0  501 -0.00000000000E+00 -0.00000000000E+00 -0.25710655955E+04  0.25710655955E+04  0.00000000000E+00 0.  1.
    9900016    2    1    2    0    0  0.35652574127E+03 -0.71722036800E+03 -0.10850822993E+04  0.24338130490E+04  0.20259631539E+04 0.  0.
        -24    2    3    3    0    0  0.33359306818E+03  0.14760534638E+03 -0.11119268084E+03  0.38960582585E+03  0.79732138127E+02 0.  0.
        -15    1    3    3    0    0 -0.14375084898E+03 -0.24369567417E+03 -0.11162054283E+03  0.30415626539E+03  0.00000000000E+00 0.  1.
        -15    1    3    3    0    0  0.26876279319E+03 -0.44250480975E+03 -0.12211575510E+04  0.13263746492E+04  0.00000000000E+00 0.  1.
         15    1    3    3    0    0 -0.10207927112E+03 -0.17862523046E+03  0.35888847533E+03  0.41367630858E+03  0.00000000000E+00 0. -1.
         15    1    4    4    0    0  0.13242469812E+03  0.86977692119E+02 -0.79034509418E+02  0.17705330632E+03  0.00000000000E+00 0. -1.
        -16    1    4    4    0    0  0.20116837005E+03  0.60627654265E+02 -0.32158171423E+02  0.21255251954E+03  0.00000000000E+00 0.  1.
         16    1    1    2    0    0  0.12136848161E+03  0.55106720138E+03  0.78890063275E+03  0.96993276938E+03  0.00000000000E+00 0. -1.
    9900018    1    1    2    0    0 -0.47789422287E+03  0.16615316662E+03 -0.62946953354E+03  0.81273417246E+03  0.91187600000E+02 0.  0.
<mgrwt>
<rscale>  0 0.41136205E+04</rscale>
<asrwt>0</asrwt>
<pdfrwt beam="1">  1        2 0.25314068E+00 0.41136205E+04</pdfrwt>
<pdfrwt beam="2">  1       -2 0.39554855E+00 0.41136205E+04</pdfrwt>
<totfact> 0.65233243E-02</totfact>
</mgrwt>
</event>
<event>
11    1  0.6138927E-009  0.3106905E+04  0.7818608E-02  0.8213845E-01
         -1   -1    0    0    0  501 -0.00000000000E+00  0.00000000000E+00  0.20463961643E+04  0.20463961643E+04  0.00000000000E+00 0.  1.
          1   -1    0    0  501    0  0.00000000000E+00 -0.00000000000E+00 -0.11792513086E+04  0.11792513086E+04  0.00000000000E+00 0. -1.
    9900016    2    1    2    0    0  0.29379826907E+03  0.17574994758E+03  0.16815889625E+03  0.20559069878E+04  0.20202154987E+04 0.  0.
         24    2    3    3    0    0  0.10172847703E+03 -0.22816078513E+03 -0.46095278507E+03  0.53029186329E+03  0.79535924599E+02 0.  0.
        -15    1    4    4    0    0  0.77180016317E+02 -0.20259013945E+03 -0.33167205396E+03  0.39623966346E+03  0.00000000000E+00 0.  1.
        -15    1    3    3    0    0  0.15694944787E+03  0.17513018859E+03  0.12294100136E+03  0.26536428161E+03  0.00000000000E+00 0.  1.
         15    1    3    3    0    0 -0.28128579489E+01  0.51651508448E+03  0.72963806440E+03  0.89396166008E+03  0.00000000000E+00 0. -1.
         15    1    3    3    0    0  0.37933202122E+02 -0.28773454035E+03 -0.22346738444E+03  0.36628918281E+03  0.00000000000E+00 0. -1.
        -16    1    1    2    0    0  0.33051802303E+02  0.19868538119E+02  0.77060311882E+03  0.77156746120E+03  0.00000000000E+00 0.  1.
         16    1    4    4    0    0  0.24548460716E+02 -0.25570645679E+02 -0.12928073111E+03  0.13405219983E+03  0.00000000000E+00 0. -1.
    9900018    1    1    2    0    0 -0.32685007138E+03 -0.19561848570E+03 -0.71617159406E+02  0.39817302398E+03  0.91187600000E+02 0.  0.
<mgrwt>
<rscale>  0 0.31069054E+04</rscale>
<asrwt>0</asrwt>
<pdfrwt beam="1">  1        1 0.18142328E+00 0.31069054E+04</pdfrwt>
<pdfrwt beam="2">  1       -1 0.31483018E+00 0.31069054E+04</pdfrwt>
<totfact> 0.24682375E-01</totfact>
</mgrwt>
</event>
<event>
11    1  0.6138927E-009  0.3072338E+04  0.7818608E-02  0.8223371E-01
         -2   -1    0    0    0  501 -0.00000000000E+00  0.00000000000E+00  0.13166350490E+04  0.13166350490E+04  0.00000000000E+00 0.  1.
          2   -1    0    0  501    0  0.00000000000E+00 -0.00000000000E+00 -0.17923075137E+04  0.17923075137E+04  0.00000000000E+00 0. -1.
    9900016    2    1    2    0    0 -0.76621998202E+03 -0.66746468105E+02 -0.62313904368E+02  0.21662406316E+04  0.20241460667E+04 0.  0.
         24    2    3    3    0    0 -0.42507983076E+03 -0.75730154274E+03 -0.36071767054E+03  0.94325233333E+03  0.73547517459E+02 0.  0.
        -15    1    3    3    0    0 -0.18364543223E+03  0.35291776897E+02 -0.12085081055E+02  0.18739584702E+03  0.00000000000E+00 0.  1.
        -15    1    4    4    0    0 -0.28176169799E+03 -0.47088333595E+03 -0.26219553307E+03  0.60816713828E+03  0.00000000000E+00 0.  1.
         15    1    3    3    0    0  0.41795319067E+01  0.69311278231E+03  0.11069383007E+02  0.69321376842E+03  0.00000000000E+00 0. -1.
         15    1    3    3    0    0 -0.16167425093E+03 -0.37849484567E+02  0.29941946422E+03  0.34237868282E+03  0.00000000000E+00 0. -1.
        -16    1    1    2    0    0  0.10139385385E+03  0.85397515042E+02  0.32914552080E+02  0.13658995904E+03  0.00000000000E+00 0.  1.
         16    1    4    4    0    0 -0.14331813278E+03 -0.28641820680E+03 -0.98522137477E+02  0.33508519505E+03  0.00000000000E+00 0. -1.
    9900018    1    1    2    0    0  0.66482612817E+03 -0.18651046937E+02 -0.44627311243E+03  0.80611197207E+03  0.91187600000E+02 0.  0.
<mgrwt>
<rscale>  0 0.30723378E+04</rscale>
<asrwt>0</asrwt>
<pdfrwt beam="1">  1        2 0.27573962E+00 0.30723378E+04</pdfrwt>
<pdfrwt beam="2">  1       -2 0.20255924E+00 0.30723378E+04</pdfrwt>
<totfact> 0.94896697E-01</totfact>
</mgrwt>
</event>
<event>
11    1  0.6138927E-009  0.3740712E+04  0.7818608E-02  0.8058999E-01
         -1   -1    0    0    0  501 -0.00000000000E+00  0.00000000000E+00  0.20395854473E+04  0.20395854473E+04  0.00000000000E+00 0.  1.
          1   -1    0    0  501    0  0.00000000000E+00 -0.00000000000E+00 -0.17151682350E+04  0.17151682350E+04  0.00000000000E+00 0. -1.
    9900016    2    1    2    0    0 -0.47336313964E+03 -0.15910355095E+03  0.12909230810E+03  0.20915604088E+04  0.20269616469E+04 0.  0.
         24    2    3    3    0    0 -0.60180099655E+03 -0.14237809056E+03  0.43377931311E+03  0.75974622731E+03  0.81325748134E+02 0.  0.
        -15    1    3    3    0    0  0.45464491572E+02  0.40054250343E+03 -0.89545176170E+02  0.41294025672E+03  0.00000000000E+00 0.  1.
        -15    1    4    4    0    0 -0.43549876178E+03 -0.89594852121E+02  0.26843316251E+03  0.51936766531E+03  0.00000000000E+00 0.  1.
         15    1    3    3    0    0  0.40948538033E+03 -0.24641699592E+03  0.25764681077E+02  0.47860571599E+03  0.00000000000E+00 0. -1.
         15    1    3    3    0    0 -0.32651201499E+03 -0.17085096789E+03 -0.24090650991E+03  0.44026820880E+03  0.00000000000E+00 0. -1.
        -16    1    1    2    0    0  0.79711065142E+03  0.36222627073E+03  0.62894132357E+03  0.10780354587E+04  0.00000000000E+00 0.  1.
         16    1    4    4    0    0 -0.16630223478E+03 -0.52783238444E+02  0.16534615060E+03  0.24037856200E+03  0.00000000000E+00 0. -1.
    9900018    1    1    2    0    0 -0.32374751178E+03 -0.20312271977E+03 -0.43361641931E+03  0.58515781474E+03  0.91187600000E+02 0.  0.
<mgrwt>
<rscale>  0 0.37407123E+04</rscale>
<asrwt>0</asrwt>
<pdfrwt beam="1">  1        1 0.26387204E+00 0.37407123E+04</pdfrwt>
<pdfrwt beam="2">  1       -1 0.31378238E+00 0.37407123E+04</pdfrwt>
<totfact> 0.99969472E-02</totfact>
</mgrwt>
</event>
<event>
11    1  0.6138927E-009  0.3656689E+04  0.7818608E-02  0.8077629E-01
         -2   -1    0    0    0  501 -0.00000000000E+00  0.00000000000E+00  0.19502338273E+04  0.19502338273E+04  0.00000000000E+00 0.  1.
          2   -1    0    0  501    0  0.00000000000E+00 -0.00000000000E+00 -0.17140728056E+04  0.17140728056E+04  0.00000000000E+00 0. -1.
    9900016    2    1    2    0    0  0.26390068379E+03  0.28991115796E+03  0.46954083529E+03  0.21118220184E+04  0.20212945334E+04 0.  0.
        -24    2    3    3    0    0  0.20152967773E+03 -0.17308366830E+03  0.21865000502E+03  0.35335595318E+03  0.80501165922E+02 0.  0.
        -15    1    3    3    0    0 -0.27571248813E+03  0.11096053848E+02  0.10589550098E+03  0.29555770274E+03  0.00000000000E+00 0.  1.
        -15    1    3    3    0    0  0.46276784795E+03 -0.14342164815E+03 -0.41365370774E+03  0.63705042201E+03  0.00000000000E+00 0.  1.
         15    1    3    3    0    0 -0.12468435375E+03  0.59532042057E+03  0.55864903703E+03  0.82585794044E+03  0.00000000000E+00 0. -1.
         15    1    4    4    0    0  0.94062358495E+02 -0.11894132413E+03  0.15651377762E+03  0.21792505238E+03  0.00000000000E+00 0. -1.
        -16    1    4    4    0    0  0.10746731923E+03 -0.54142344174E+02  0.62136227402E+02  0.13543090080E+03  0.00000000000E+00 0.  1.
         16    1    1    2    0    0 -0.40179027868E+03  0.25865827670E+03 -0.67645584304E+03  0.82821014226E+03  0.00000000000E+00 0. -1.
    9900018    1    1    2    0    0  0.13788959489E+03 -0.54856943466E+03  0.44307602944E+03  0.72427447234E+03  0.91187600000E+02 0.  0.
<mgrwt>
<rscale>  0 0.36566885E+04</rscale>
<asrwt>0</asrwt>
<pdfrwt beam="1">  1        2 0.26370351E+00 0.36566885E+04</pdfrwt>
<pdfrwt beam="2">  1       -2 0.30003598E+00 0.36566885E+04</pdfrwt>
<totfact> 0.24821079E-01</totfact>
</mgrwt>
</event>
<event>
11    1  0.6138927E-009  0.2831082E+04  0.7818608E-02  0.8293683E-01
          2   -1    0    0  501    0  0.00000000000E+00  0.00000000000E+00  0.27663317808E+04  0.27663317808E+04  0.00000000000E+00 0. -1.
         -2   -1    0    0    0  501 -0.00000000000E+00 -0.00000000000E+00 -0.72433673647E+03  0.72433673647E+03  0.00000000000E+00 0.  1.
    9900016    2    1    2    0    0 -0.93656416410E+02 -0.56503964165E+03  0.18338561061E+04  0.27893935221E+04  0.20222874875E+04 0.  0.
         24    2    3    3    0    0  0.68712427544E+02 -0.54279531930E+03  0.60327726866E+03  0.81821732343E+03  0.78663645499E+02 0.  0.
        -15    1    4    4    0    0  0.18917635121E+02 -0.39112458252E+03  0.40019787660E+03  0.55990593531E+03  0.00000000000E+00 0.  1.
        -15    1    3    3    0    0 -0.29758791878E+03  0.12760259911E+03 -0.48197915365E+02  0.32735917850E+03  0.00000000000E+00 0.  1.
         15    1    3    3    0    0  0.51093903948E+03  0.13823487158E+03  0.86974100971E+03  0.10181439023E+04  0.00000000000E+00 0. -1.
         15    1    3    3    0    0 -0.37571996465E+03 -0.28808179303E+03  0.40903574306E+03  0.62567311786E+03  0.00000000000E+00 0. -1.
        -16    1    1    2    0    0 -0.10918327747E+03  0.31524690229E+03  0.12822587156E+03  0.35741218728E+03  0.00000000000E+00 0.  1.
         16    1    4    4    0    0  0.49794792423E+02 -0.15167073679E+03  0.20307939206E+03  0.25831138811E+03  0.00000000000E+00 0. -1.
    9900018    1    1    2    0    0  0.20283969388E+03  0.24979273936E+03  0.79913066733E+02  0.34386280794E+03  0.91187600000E+02 0.  0.
<mgrwt>
<rscale>  0 0.28310816E+04</rscale>
<asrwt>0</asrwt>
<pdfrwt beam="1">  1        2 0.42558950E+00 0.28310816E+04</pdfrwt>
<pdfrwt beam="2">  1       -2 0.11143642E+00 0.28310816E+04</pdfrwt>
<totfact> 0.13385433E+00</totfact>
</mgrwt>
</event>
<event>
11    1  0.6138927E-009  0.3982899E+04  0.7818608E-02  0.8008005E-01
         -2   -1    0    0    0  501 -0.00000000000E+00  0.00000000000E+00  0.21974946671E+04  0.21974946671E+04  0.00000000000E+00 0. -1.
          2   -1    0    0  501    0  0.00000000000E+00 -0.00000000000E+00 -0.18047241483E+04  0.18047241483E+04  0.00000000000E+00 0.  1.
    9900016    2    1    2    0    0 -0.74333450217E+03 -0.22924603630E+03  0.76491741633E+03  0.22980740507E+04  0.20226086526E+04 0.  0.
         24    2    3    3    0    0 -0.18905445314E+03 -0.23696346421E+03 -0.38617958545E+02  0.31612603493E+03  0.80938579304E+02 0.  0.
        -15    1    4    4    0    0 -0.11416969630E+03 -0.78751749807E+02 -0.15155019168E+02  0.13952144013E+03  0.00000000000E+00 0.  1.
        -15    1    3    3    0    0 -0.15620440993E+03 -0.22184493833E+03  0.10937256455E+03  0.29253606995E+03  0.00000000000E+00 0.  1.
         15    1    3    3    0    0  0.33482445220E+03  0.11103872472E+02  0.84582493859E+03  0.90975300853E+03  0.00000000000E+00 0. -1.
         15    1    3    3    0    0 -0.73290009131E+03  0.21845849376E+03 -0.15166212827E+03  0.77965893728E+03  0.00000000000E+00 0. -1.
        -16    1    1    2    0    0  0.10931318512E+04  0.42082850649E+03 -0.31478674182E+02  0.11717614019E+04  0.00000000000E+00 0.  1.
         16    1    4    4    0    0 -0.74884756839E+02 -0.15821171440E+03 -0.23462939377E+02  0.17660459480E+03  0.00000000000E+00 0. -1.
    9900018    1    1    2    0    0 -0.34979734904E+03 -0.19158247019E+03 -0.34066822331E+03  0.53238336286E+03  0.91187600000E+02 0.  0.
<mgrwt>
<rscale>  0 0.39828993E+04</rscale>
<asrwt>0</asrwt>
<pdfrwt beam="1">  1        2 0.27764987E+00 0.39828993E+04</pdfrwt>
<pdfrwt beam="2">  1       -2 0.33807610E+00 0.39828993E+04</pdfrwt>
<totfact> 0.12523025E-01</totfact>
</mgrwt>
</event>
<event>
11    1  0.6138927E-009  0.2393473E+04  0.7818608E-02  0.8441951E-01
          2   -1    0    0  501    0  0.00000000000E+00  0.00000000000E+00  0.43992779734E+04  0.43992779734E+04  0.00000000000E+00 0.  1.
         -2   -1    0    0    0  501 -0.00000000000E+00 -0.00000000000E+00 -0.32554840359E+03  0.32554840359E+03  0.00000000000E+00 0. -1.
    9900016    2    1    2    0    0 -0.10443865862E+03  0.43771392691E+02  0.37860241701E+04  0.42890438113E+04  0.20122361766E+04 0.  0.
        -24    2    3    3    0    0 -0.58661268700E+03 -0.54146196138E+03  0.16161896157E+04  0.18043798019E+04  0.80137977019E+02 0.  0.
        -15    1    3    3    0    0  0.14418002094E+03  0.84004176170E+02  0.65976177486E+03  0.68053668499E+03  0.00000000000E+00 0.  1.
        -15    1    3    3    0    0  0.22821370254E+03 -0.15172943364E+03  0.21036050588E+03  0.34547772358E+03  0.00000000000E+00 0.  1.
         15    1    3    3    0    0  0.10978030490E+03  0.65295861154E+03  0.12997122737E+04  0.14586496009E+04  0.00000000000E+00 0. -1.
         15    1    4    4    0    0 -0.43436300673E+03 -0.36664903652E+03  0.12051874588E+04  0.13325087424E+04  0.00000000000E+00 0. -1.
        -16    1    4    4    0    0 -0.15224968027E+03 -0.17481292486E+03  0.41100215684E+03  0.47187105948E+03  0.00000000000E+00 0.  1.
         16    1    1    2    0    0  0.11324545438E+03 -0.26171451463E+02 -0.16681565526E+02  0.11742126059E+03  0.00000000000E+00 0. -1.
    9900018    1    1    2    0    0 -0.88067957649E+01 -0.17599941229E+02  0.30438696518E+03  0.31836130504E+03  0.91187600000E+02 0.  0.
<mgrwt>
<rscale>  0 0.23934727E+04</rscale>
<asrwt>0</asrwt>
<pdfrwt beam="1">  1        2 0.67681195E+00 0.23934727E+04</pdfrwt>
<pdfrwt beam="2">  1       -2 0.50084373E-01 0.23934727E+04</pdfrwt>
<totfact> 0.52528585E-01</totfact>
</mgrwt>
</event>
<event>
11    1  0.6138927E-009  0.3504373E+04  0.7818608E-02  0.8112754E-01
         -2   -1    0    0    0  501 -0.00000000000E+00  0.00000000000E+00  0.29940067133E+04  0.29940067133E+04  0.00000000000E+00 0.  1.
          2   -1    0    0  501    0  0.00000000000E+00 -0.00000000000E+00 -0.10254343136E+04  0.10254343136E+04  0.00000000000E+00 0. -1.
    9900016    2    1    2    0    0  0.68375308697E+03  0.64694693934E+03  0.14650799602E+04  0.26706241572E+04  0.20247754130E+04 0.  0.
         24    2    3    3    0    0 -0.33958890526E+02 -0.44999872047E+02  0.15107825866E+03  0.17856845195E+03  0.76706303923E+02 0.  0.
        -15    1    4    4    0    0 -0.35693091057E+02 -0.10160441562E+01  0.11861833309E+03  0.12387630136E+03  0.00000000000E+00 0.  1.
        -15    1    3    3    0    0  0.48038193641E+03  0.51176382134E+03  0.13436012028E+04  0.15158935338E+04  0.00000000000E+00 0.  1.
         15    1    3    3    0    0 -0.16794519713E+03  0.22795010802E+03 -0.35510286233E+03  0.45416393936E+03  0.00000000000E+00 0. -1.
         15    1    3    3    0    0  0.40527523821E+03 -0.47767117973E+02  0.32550336106E+03  0.52199823211E+03  0.00000000000E+00 0. -1.
        -16    1    1    2    0    0 -0.74505005392E+03 -0.77616688927E+03  0.47800349213E+03  0.11772943393E+04  0.00000000000E+00 0.  1.
         16    1    4    4    0    0  0.17342005314E+01 -0.43983827891E+02  0.32459925569E+02  0.54692150583E+02  0.00000000000E+00 0. -1.
    9900018    1    1    2    0    0  0.61296966949E+02  0.12921994993E+03  0.25488947357E+02  0.17152253044E+03  0.91187600000E+02 0.  0.
<mgrwt>
<rscale>  0 0.35043728E+04</rscale>
<asrwt>0</asrwt>
<pdfrwt beam="1">  1        2 0.15775913E+00 0.35043728E+04</pdfrwt>
<pdfrwt beam="2">  1       -2 0.46061641E+00 0.35043728E+04</pdfrwt>
<totfact> 0.58804896E-02</totfact>
</mgrwt>
</event>
<event>
11    1  0.6138927E-009  0.4180950E+04  0.7818608E-02  0.7969006E-01
         -2   -1    0    0    0  501 -0.00000000000E+00  0.00000000000E+00  0.36462513663E+04  0.36462513663E+04  0.00000000000E+00 0.  1.
          2   -1    0    0  501    0  0.00000000000E+00 -0.00000000000E+00 -0.11985148047E+04  0.11985148047E+04  0.00000000000E+00 0. -1.
    9900016    2    1    2    0    0  0.44644552444E+03 -0.12962965779E+04  0.12248200839E+04  0.27344819881E+04  0.20242304911E+04 0.  0.
         24    2    3    3    0    0 -0.90348743230E+02  0.73671121624E+02 -0.51466249767E+02  0.15224891360E+03  0.83310427090E+02 0.  0.
        -15    1    4    4    0    0 -0.80703576475E+02  0.12934251561E+02 -0.27280802025E+02  0.86166143458E+02  0.00000000000E+00 0.  1.
        -15    1    3    3    0    0 -0.65753880706E+02 -0.12924661900E+04  0.11712843587E+04  0.17454797260E+04  0.00000000000E+00 0.  1.
         15    1    3    3    0    0  0.54574368299E+03 -0.12593979910E+03  0.29470599115E+03  0.63288910699E+03  0.00000000000E+00 0. -1.
         15    1    3    3    0    0  0.56804465385E+02  0.48438289582E+02 -0.18970401620E+03  0.20386424146E+03  0.00000000000E+00 0. -1.
        -16    1    1    2    0    0 -0.51643204156E+03  0.14163143061E+04  0.12274493763E+04  0.19440370980E+04  0.00000000000E+00 0.  1.
         16    1    4    4    0    0 -0.96451667546E+01  0.60736870063E+02 -0.24185447742E+02  0.66082770139E+02  0.00000000000E+00 0. -1.
    9900018    1    1    2    0    0  0.69986517114E+02 -0.12001772825E+03 -0.45328985977E+01  0.16624708489E+03  0.91187600000E+02 0.  0.
<mgrwt>
<rscale>  0 0.41809502E+04</rscale>
<asrwt>0</asrwt>
<pdfrwt beam="1">  1        2 0.18438689E+00 0.41809502E+04</pdfrwt>
<pdfrwt beam="2">  1       -2 0.56096174E+00 0.41809502E+04</pdfrwt>
<totfact> 0.11127626E-02</totfact>
</mgrwt>
</event>
<event>
11    1  0.6138927E-009  0.3351480E+04  0.7818608E-02  0.8149918E-01
          2   -1    0    0  501    0  0.00000000000E+00  0.00000000000E+00  0.28605174011E+04  0.28605174011E+04  0.00000000000E+00 0. -1.
         -2   -1    0    0    0  501 -0.00000000000E+00 -0.00000000000E+00 -0.98167728039E+03  0.98167728039E+03  0.00000000000E+00 0.  1.
    9900016    2    1    2    0    0 -0.53411408193E+03 -0.28111983844E+03  0.78462506751E+03  0.22578603032E+04  0.20292832321E+04 0.  0.
        -24    2    3    3    0    0  0.10831364742E+03 -0.41265712950E+03  0.19930064419E+01  0.43424383916E+03  0.80907274272E+02 0.  0.
        -15    1    3    3    0    0 -0.24368184620E+03 -0.41759049645E+03  0.60129625914E+03  0.77156973512E+03  0.00000000000E+00 0.  1.
        -15    1    3    3    0    0 -0.60582510902E+03  0.30986188634E+03 -0.13201286711E+02  0.68059732977E+03  0.00000000000E+00 0.  1.
         15    1    3    3    0    0  0.20707922587E+03  0.23926590117E+03  0.19453708864E+03  0.37144939912E+03  0.00000000000E+00 0. -1.
         15    1    4    4    0    0  0.16735044543E+01 -0.15045211061E+03 -0.11181366548E+02  0.15087631081E+03  0.00000000000E+00 0. -1.
        -16    1    4    4    0    0  0.10664014297E+03 -0.26220501889E+03  0.13174372990E+02  0.28336752836E+03  0.00000000000E+00 0.  1.
         16    1    1    2    0    0  0.73996756185E+03  0.19983712241E+03  0.11048994778E+04  0.13447266355E+04  0.00000000000E+00 0. -1.
    9900018    1    1    2    0    0 -0.20585347992E+03  0.81282716024E+02 -0.10684424586E+02  0.23960774287E+03  0.91187600000E+02 0.  0.
<mgrwt>
<rscale>  0 0.33514802E+04</rscale>
<asrwt>0</asrwt>
<pdfrwt beam="1">  1        2 0.44007960E+00 0.33514802E+04</pdfrwt>
<pdfrwt beam="2">  1       -2 0.15102727E+00 0.33514802E+04</pdfrwt>
<totfact> 0.51959503E-01</totfact>
</mgrwt>
</event>
<event>
11    1  0.6138927E-009  0.3348443E+04  0.7818608E-02  0.8150677E-01
          1   -1    0    0  501    0  0.00000000000E+00  0.00000000000E+00  0.41895621753E+04  0.41895621753E+04  0.00000000000E+00 0. -1.
         -1   -1    0    0    0  501 -0.00000000000E+00 -0.00000000000E+00 -0.66904783591E+03  0.66904783591E+03  0.00000000000E+00 0.  1.
    9900016    2    1    2    0    0 -0.17438926240E+03  0.22099384230E+03  0.30577012325E+04  0.36734362611E+04  0.20162706276E+04 0.  0.
         24    2    3    3    0    0 -0.23449436690E+03 -0.45884717891E+03  0.12183118203E+04  0.13251982691E+04  0.79614190824E+02 0.  0.
        -15    1    3    3    0    0  0.22332864222E+03  0.36088217025E+03  0.10460463788E+04  0.11288598894E+04  0.00000000000E+00 0.  1.
        -15    1    4    4    0    0 -0.25542735839E+01 -0.36805233331E+02  0.55886016391E+02  0.66965635531E+02  0.00000000000E+00 0.  1.
         15    1    3    3    0    0 -0.43783144095E+03  0.44401980326E+03  0.51245416964E+03  0.80713024498E+03  0.00000000000E+00 0. -1.
         15    1    3    3    0    0  0.27460790322E+03 -0.12506095230E+03  0.28088886384E+03  0.41224785764E+03  0.00000000000E+00 0. -1.
        -16    1    1    2    0    0  0.14033353926E+03 -0.10144289787E+03 -0.33259047279E+03  0.37496744707E+03  0.00000000000E+00 0.  1.
         16    1    4    4    0    0 -0.23194009331E+03 -0.42204194557E+03  0.11624258039E+04  0.12582326336E+04  0.00000000000E+00 0. -1.
    9900018    1    1    2    0    0  0.34055723142E+02 -0.11955094443E+03  0.79540357968E+03  0.81020630308E+03  0.91187600000E+02 0.  0.
<mgrwt>
<rscale>  0 0.33484429E+04</rscale>
<asrwt>0</asrwt>
<pdfrwt beam="1">  1        1 0.64454801E+00 0.33484429E+04</pdfrwt>
<pdfrwt beam="2">  1       -1 0.10293044E+00 0.33484429E+04</pdfrwt>
<totfact> 0.47535504E-02</totfact>
</mgrwt>
</event>
<event>
11    1  0.6138927E-009  0.3290702E+04  0.7818608E-02  0.8165265E-01
         -2   -1    0    0    0  501 -0.00000000000E+00  0.00000000000E+00  0.23699783196E+04  0.23699783196E+04  0.00000000000E+00 0. -1.
          2   -1    0    0  501    0  0.00000000000E+00 -0.00000000000E+00 -0.11422804199E+04  0.11422804199E+04  0.00000000000E+00 0.  1.
    9900016    2    1    2    0    0 -0.73900992040E+03 -0.19368668066E+02  0.10581506793E+04  0.23974614566E+04  0.20203038801E+04 0.  0.
        -24    2    3    3    0    0 -0.30691702269E+03  0.20297678587E+03 -0.19134951583E+03  0.42215933293E+03  0.78779634163E+02 0.  0.
        -15    1    3    3    0    0  0.24811675218E+03 -0.17834133214E+03  0.82913296824E+03  0.88364530920E+03  0.00000000000E+00 0.  1.
        -15    1    3    3    0    0 -0.59174733016E+03 -0.25755890082E+03  0.40059128933E+02  0.64661133918E+03  0.00000000000E+00 0.  1.
         15    1    3    3    0    0 -0.88462319726E+02  0.21355477903E+03  0.38030809799E+03  0.44504547527E+03  0.00000000000E+00 0. -1.
         15    1    4    4    0    0 -0.22298335802E+03  0.18056473784E+03 -0.12560503154E+03  0.31321211096E+03  0.00000000000E+00 0. -1.
        -16    1    4    4    0    0 -0.83933664666E+02  0.22412048033E+02 -0.65744484291E+02  0.10894722198E+03  0.00000000000E+00 0.  1.
         16    1    1    2    0    0  0.66788091561E+03  0.32522084338E+03  0.23931273216E+03  0.78045121448E+03  0.00000000000E+00 0. -1.
    9900018    1    1    2    0    0  0.71129004790E+02 -0.30585217531E+03 -0.69765511835E+02  0.33434606847E+03  0.91187600000E+02 0.  0.
<mgrwt>
<rscale>  0 0.32907019E+04</rscale>
<asrwt>0</asrwt>
<pdfrwt beam="1">  1        2 0.17573545E+00 0.32907019E+04</pdfrwt>
<pdfrwt beam="2">  1       -2 0.36461205E+00 0.32907019E+04</pdfrwt>
<totfact> 0.21547488E-01</totfact>
</mgrwt>
</event>
<event>
11    1  0.6138927E-009  0.2769420E+04  0.7818608E-02  0.8312826E-01
          1   -1    0    0  501    0  0.00000000000E+00  0.00000000000E+00  0.16069550412E+04  0.16069550412E+04  0.00000000000E+00 0. -1.
         -1   -1    0    0    0  501 -0.00000000000E+00 -0.00000000000E+00 -0.11932019076E+04  0.11932019076E+04  0.00000000000E+00 0.  1.
    9900016    2    1    2    0    0 -0.37865388341E+03  0.42659949183E+02  0.59382017600E+03  0.21485181452E+04  0.20293617676E+04 0.  0.
         24    2    3    3    0    0 -0.60345732461E+03  0.18867141482E+03  0.73103626852E+03  0.97066370593E+03  0.89534120342E+02 0.  0.
        -15    1    3    3    0    0 -0.58837443149E+02 -0.22249612719E+03 -0.14513239517E+03  0.27208414775E+03  0.00000000000E+00 0.  1.
        -15    1    4    4    0    0 -0.45820095935E+03  0.15571342598E+03  0.61057739419E+03  0.77910175489E+03  0.00000000000E+00 0.  1.
         15    1    3    3    0    0  0.28651863871E+02  0.13807027791E+03  0.40557143342E+03  0.42938621141E+03  0.00000000000E+00 0. -1.
         15    1    3    3    0    0  0.25498902048E+03 -0.61585616360E+02 -0.39765513077E+03  0.47638408006E+03  0.00000000000E+00 0. -1.
        -16    1    1    2    0    0  0.64776460704E+02 -0.99284898759E+02 -0.28093142601E+03  0.30491957481E+03  0.00000000000E+00 0.  1.
         16    1    4    4    0    0 -0.14525636527E+03  0.32957988832E+02  0.12045887433E+03  0.19156195103E+03  0.00000000000E+00 0. -1.
    9900018    1    1    2    0    0  0.31387742270E+03  0.56624949576E+02  0.10086438358E+03  0.34671922887E+03  0.91187600000E+02 0.  0.
<mgrwt>
<rscale>  0 0.27694200E+04</rscale>
<asrwt>0</asrwt>
<pdfrwt beam="1">  1        1 0.24722385E+00 0.27694200E+04</pdfrwt>
<pdfrwt beam="2">  1       -1 0.18356952E+00 0.27694200E+04</pdfrwt>
<totfact> 0.94002626E-01</totfact>
</mgrwt>
</event>
<event>
11    1  0.6138927E-009  0.3842620E+04  0.7818608E-02  0.8037070E-01
          1   -1    0    0  501    0  0.00000000000E+00  0.00000000000E+00  0.21717321646E+04  0.21717321646E+04  0.00000000000E+00 0. -1.
         -1   -1    0    0    0  501 -0.00000000000E+00 -0.00000000000E+00 -0.16997642947E+04  0.16997642947E+04  0.00000000000E+00 0.  1.
    9900016    2    1    2    0    0 -0.29025576302E+03 -0.20216512407E+03 -0.24231644658E+03  0.20564674047E+04  0.20112736714E+04 0.  0.
         24    2    3    3    0    0  0.28567553747E+03 -0.47611311116E+03 -0.11599425591E+03  0.57404898975E+03  0.88223397720E+02 0.  0.
        -15    1    3    3    0    0 -0.10861807470E+03 -0.11508065277E+03 -0.13775430210E+03  0.20980393357E+03  0.00000000000E+00 0.  1.
        -15    1    4    4    0    0  0.97405254522E+02 -0.23812225716E+03 -0.32517578879E+02  0.25932100937E+03  0.00000000000E+00 0.  1.
         15    1    3    3    0    0 -0.54163658122E+03  0.42978601765E+03  0.45062427214E+03  0.82531717644E+03  0.00000000000E+00 0. -1.
         15    1    3    3    0    0  0.74323355434E+02 -0.40757377794E+02 -0.43919216072E+03  0.44729730498E+03  0.00000000000E+00 0. -1.
        -16    1    1    2    0    0 -0.42632175515E+03  0.37667245052E+03 -0.22980417515E+03  0.61354896529E+03  0.00000000000E+00 0.  1.
         16    1    4    4    0    0  0.18827028295E+03 -0.23799085399E+03 -0.83476677032E+02  0.31472798038E+03  0.00000000000E+00 0. -1.
    9900018    1    1    2    0    0  0.71657751817E+03 -0.17450732645E+03  0.94408849157E+03  0.12014800892E+04  0.91187600000E+02 0.  0.
<mgrwt>
<rscale>  0 0.38426204E+04</rscale>
<asrwt>0</asrwt>
<pdfrwt beam="1">  1        1 0.33411264E+00 0.38426204E+04</pdfrwt>
<pdfrwt beam="2">  1       -1 0.26150220E+00 0.38426204E+04</pdfrwt>
<totfact> 0.10594100E-01</totfact>
</mgrwt>
</event>
<event>
11    1  0.6138927E-009  0.3426872E+04  0.7818608E-02  0.8131342E-01
          1   -1    0    0  501    0  0.00000000000E+00  0.00000000000E+00  0.17580382616E+04  0.17580382616E+04  0.00000000000E+00 0. -1.
         -1   -1    0    0    0  501 -0.00000000000E+00 -0.00000000000E+00 -0.16699657546E+04  0.16699657546E+04  0.00000000000E+00 0.  1.
    9900016    2    1    2    0    0 -0.86069704692E+03  0.41265733980E+03  0.37825840080E+03  0.22708515675E+04  0.20254880739E+04 0.  0.
         24    2    3    3    0    0  0.15323305519E+03 -0.28263054233E+03  0.53595969852E+03  0.62978357316E+03  0.77551002021E+02 0.  0.
        -15    1    4    4    0    0  0.16181935806E+03 -0.27045741798E+03  0.50253834757E+03  0.59319264187E+03  0.00000000000E+00 0.  1.
        -15    1    3    3    0    0 -0.18678015805E+03 -0.83558710172E+02 -0.14154463538E+03  0.24880468101E+03  0.00000000000E+00 0.  1.
         15    1    3    3    0    0 -0.78702108779E+03  0.91545048873E+03  0.95938154209E+02  0.12110557045E+04  0.00000000000E+00 0. -1.
         15    1    3    3    0    0 -0.40128856274E+02 -0.13660389642E+03 -0.11209481655E+03  0.18120760889E+03  0.00000000000E+00 0. -1.
        -16    1    1    2    0    0  0.53569552194E+03  0.76620902091E+01 -0.30762623369E+03  0.61778823193E+03  0.00000000000E+00 0.  1.
         16    1    4    4    0    0 -0.85863028650E+01 -0.12173124351E+02  0.33421350951E+02  0.36590931291E+02  0.00000000000E+00 0. -1.
    9900018    1    1    2    0    0  0.32500152497E+03 -0.42031943001E+03  0.17440339937E+02  0.53936421677E+03  0.91187600000E+02 0.  0.
<mgrwt>
<rscale>  0 0.34268724E+04</rscale>
<asrwt>0</asrwt>
<pdfrwt beam="1">  1        1 0.27046743E+00 0.34268724E+04</pdfrwt>
<pdfrwt beam="2">  1       -1 0.25691781E+00 0.34268724E+04</pdfrwt>
<totfact> 0.22442552E-01</totfact>
</mgrwt>
</event>
<event>
11    1  0.6138927E-009  0.2836025E+04  0.7818608E-02  0.8292170E-01
          2   -1    0    0  501    0  0.00000000000E+00  0.00000000000E+00  0.44296633227E+04  0.44296633227E+04  0.00000000000E+00 0. -1.
         -2   -1    0    0    0  501 -0.00000000000E+00 -0.00000000000E+00 -0.45393066578E+03  0.45393066578E+03  0.00000000000E+00 0.  1.
    9900016    2    1    2    0    0 -0.98385162421E+01 -0.22283365550E+03  0.26045047250E+04  0.33056402673E+04  0.20233786298E+04 0.  0.
        -24    2    3    3    0    0  0.20829319317E+03 -0.28869746063E+03  0.95883129301E+03  0.10253585082E+04  0.72597133668E+02 0.  0.
        -15    1    3    3    0    0 -0.36791174612E+03  0.58258524356E+03  0.95346003553E+03  0.11763718198E+04  0.00000000000E+00 0.  1.
        -15    1    3    3    0    0  0.14818043265E+03 -0.55008245822E+03  0.80505112605E+03  0.98623296792E+03  0.00000000000E+00 0.  1.
         15    1    4    4    0    0  0.13902878147E+03 -0.13743532670E+03  0.56349784181E+03  0.59644554557E+03  0.00000000000E+00 0. -1.
         15    1    3    3    0    0  0.15996040559E+01  0.33361019797E+02 -0.11283772959E+03  0.11767697139E+03  0.00000000000E+00 0. -1.
        -16    1    4    4    0    0  0.69264411706E+02 -0.15126213393E+03  0.39533345120E+03  0.42891296265E+03  0.00000000000E+00 0.  1.
         16    1    1    2    0    0  0.36329184429E+03  0.11296961612E+03  0.85869043378E+03  0.93919772112E+03  0.00000000000E+00 0. -1.
    9900018    1    1    2    0    0 -0.35345332805E+03  0.10986403938E+03  0.51253749813E+03  0.63875600009E+03  0.91187600000E+02 0.  0.
<mgrwt>
<rscale>  0 0.28360254E+04</rscale>
<asrwt>0</asrwt>
<pdfrwt beam="1">  1        2 0.68148664E+00 0.28360254E+04</pdfrwt>
<pdfrwt beam="2">  1       -2 0.69835490E-01 0.28360254E+04</pdfrwt>
<totfact> 0.23348587E-01</totfact>
</mgrwt>
</event>
<event>
11    1  0.6138927E-009  0.3088849E+04  0.7818608E-02  0.8218805E-01
          2   -1    0    0  501    0  0.00000000000E+00  0.00000000000E+00  0.19637372520E+04  0.19637372520E+04  0.00000000000E+00 0. -1.
         -2   -1    0    0    0  501 -0.00000000000E+00 -0.00000000000E+00 -0.12146468695E+04  0.12146468695E+04  0.00000000000E+00 0.  1.
    9900016    2    1    2    0    0 -0.35047404312E+02  0.59835855244E+03  0.87190759184E+03  0.22839127719E+04  0.20240487699E+04 0.  0.
        -24    2    3    3    0    0  0.50439990948E+03  0.15805692304E+03  0.11618963424E+02  0.53488961350E+03  0.81059476412E+02 0.  0.
        -15    1    3    3    0    0 -0.63385704882E+02  0.55652073890E+03 -0.73072364857E+02  0.56486516171E+03  0.00000000000E+00 0.  1.
        -15    1    3    3    0    0  0.42240164829E+02 -0.17901915601E+03  0.12694788280E+03  0.22349016688E+03  0.00000000000E+00 0.  1.
         15    1    4    4    0    0  0.26474768418E+02  0.20640820832E+02 -0.15259262899E+02  0.36875492561E+02  0.00000000000E+00 0. -1.
         15    1    3    3    0    0 -0.51830177374E+03  0.62800046509E+02  0.80641311047E+03  0.96066782981E+03  0.00000000000E+00 0. -1.
        -16    1    4    4    0    0  0.47792514106E+03  0.13741610220E+03  0.26878226323E+02  0.49801412094E+03  0.00000000000E+00 0.  1.
         16    1    1    2    0    0 -0.24338180275E+03 -0.50146975774E+03  0.12427472380E+02  0.55754915649E+03  0.00000000000E+00 0. -1.
    9900018    1    1    2    0    0  0.27842920706E+03 -0.96888794701E+02 -0.13524468178E+03  0.33692219314E+03  0.91187600000E+02 0.  0.
<mgrwt>
<rscale>  0 0.30888492E+04</rscale>
<asrwt>0</asrwt>
<pdfrwt beam="1">  1        2 0.30211342E+00 0.30888492E+04</pdfrwt>
<pdfrwt beam="2">  1       -2 0.18686875E+00 0.30888492E+04</pdfrwt>
<totfact> 0.96791327E-01</totfact>
</mgrwt>
</event>
<event>
11    1  0.6138927E-009  0.3020843E+04  0.7818608E-02  0.8237804E-01
         -2   -1    0    0    0  501 -0.00000000000E+00  0.00000000000E+00  0.71055001917E+03  0.71055001917E+03  0.00000000000E+00 0.  1.
          2   -1    0    0  501    0  0.00000000000E+00 -0.00000000000E+00 -0.32107153313E+04  0.32107153313E+04  0.00000000000E+00 0. -1.
    9900016    2    1    2    0    0 -0.31956869318E+03  0.10816972569E+03 -0.24455226641E+04  0.31816176392E+04  0.20070587590E+04 0.  0.
         24    2    3    3    0    0  0.59859194766E+02  0.37603347970E+03 -0.13560150768E+04  0.14108454789E+04  0.81998632104E+02 0.  0.
        -15    1    3    3    0    0  0.76050332429E+02  0.17978918769E+02  0.21872843976E+03  0.23226929402E+03  0.00000000000E+00 0.  1.
        -15    1    4    4    0    0  0.51592832137E+02  0.15901730867E+03 -0.70547399920E+03  0.72501164703E+03  0.00000000000E+00 0.  1.
         15    1    3    3    0    0 -0.21989374554E+03 -0.42353822037E+03 -0.10872424946E+04  0.11873643609E+04  0.00000000000E+00 0. -1.
         15    1    3    3    0    0 -0.23558447483E+03  0.13769554760E+03 -0.22099353246E+03  0.35113850543E+03  0.00000000000E+00 0. -1.
        -16    1    1    2    0    0  0.32418461481E+03  0.83110203534E+02  0.21416573831E+03  0.39732849618E+03  0.00000000000E+00 0.  1.
         16    1    4    4    0    0  0.82663626287E+01  0.21701617103E+03 -0.65054107760E+03  0.68583383183E+03  0.00000000000E+00 0. -1.
    9900018    1    1    2    0    0 -0.46159216281E+01 -0.19127992923E+03 -0.26880838637E+03  0.34231921511E+03  0.91187600000E+02 0.  0.
<mgrwt>
<rscale>  0 0.30208435E+04</rscale>
<asrwt>0</asrwt>
<pdfrwt beam="1">  1        2 0.49395621E+00 0.30208435E+04</pdfrwt>
<pdfrwt beam="2">  1       -2 0.10931539E+00 0.30208435E+04</pdfrwt>
<totfact> 0.72679329E-01</totfact>
</mgrwt>
</event>
<event>
11    1  0.6138927E-009  0.4410954E+04  0.7818608E-02  0.7926414E-01
         -2   -1    0    0    0  501 -0.00000000000E+00  0.00000000000E+00  0.13478311563E+04  0.13478311563E+04  0.00000000000E+00 0.  1.
          2   -1    0    0  501    0  0.00000000000E+00 -0.00000000000E+00 -0.36088564146E+04  0.36088564146E+04  0.00000000000E+00 0. -1.
    9900016    2    1    2    0    0 -0.99408451871E+03 -0.24413142309E+03 -0.17061629600E+04  0.28413183429E+04  0.20283721793E+04 0.  0.
         24    2    3    3    0    0  0.22101556399E+02 -0.52963441497E+02  0.41728892034E+02  0.10778848830E+03  0.81138479465E+02 0.  0.
        -15    1    4    4    0    0  0.46020877496E+02 -0.58174116013E+02  0.25587864934E+02  0.78465838244E+02  0.00000000000E+00 0.  1.
        -15    1    3    3    0    0 -0.23919495024E+03  0.41500979856E+03 -0.69340019088E+03  0.84276401314E+03  0.00000000000E+00 0.  1.
         15    1    3    3    0    0 -0.35653599176E+03 -0.57504540346E+03  0.79192169638E+02  0.68122428700E+03  0.00000000000E+00 0. -1.
         15    1    3    3    0    0 -0.42045513311E+03 -0.31132376694E+02 -0.11336838308E+04  0.12095415545E+04  0.00000000000E+00 0. -1.
        -16    1    1    2    0    0  0.10282245182E+04  0.87790012731E+03 -0.15784041041E+03  0.13612008994E+04  0.00000000000E+00 0.  1.
         16    1    4    4    0    0 -0.23919321097E+02  0.52106745163E+01  0.16141027100E+02  0.29322650060E+02  0.00000000000E+00 0. -1.
    9900018    1    1    2    0    0 -0.34139999512E+02 -0.63376870422E+03 -0.39702188790E+03  0.75416832861E+03  0.91187600000E+02 0.  0.
<mgrwt>
<rscale>  0 0.44109541E+04</rscale>
<asrwt>0</asrwt>
<pdfrwt beam="1">  1        2 0.55520867E+00 0.44109541E+04</pdfrwt>
<pdfrwt beam="2">  1       -2 0.20735864E+00 0.44109541E+04</pdfrwt>
<totfact> 0.61692016E-02</totfact>
</mgrwt>
</event>
<event>
11    1  0.6138927E-009  0.4575735E+04  0.7818608E-02  0.7897510E-01
          2   -1    0    0  501    0  0.00000000000E+00  0.00000000000E+00  0.20966332832E+04  0.20966332832E+04  0.00000000000E+00 0. -1.
         -2   -1    0    0    0  501 -0.00000000000E+00 -0.00000000000E+00 -0.24965444014E+04  0.24965444014E+04  0.00000000000E+00 0.  1.
    9900016    2    1    2    0    0  0.12648945875E+03  0.11675632484E+03 -0.10600804613E+03  0.20300960489E+04  0.20200051087E+04 0.  0.
        -24    2    3    3    0    0 -0.16772438615E+03 -0.37395939891E+03 -0.58817172018E+03  0.72135342709E+03  0.80172892025E+02 0.  0.
        -15    1    3    3    0    0  0.51824255100E+03  0.22960279625E+03  0.67398528060E+03  0.88065256723E+03  0.00000000000E+00 0.  1.
        -15    1    3    3    0    0 -0.65603532805E+02  0.19747888356E+03 -0.13547521256E+03  0.24830478487E+03  0.00000000000E+00 0.  1.
         15    1    3    3    0    0 -0.15842517329E+03  0.63634043930E+02 -0.56346393986E+02  0.17978526968E+03  0.00000000000E+00 0. -1.
         15    1    4    4    0    0 -0.30519302402E+02 -0.14658007323E+03 -0.17644032823E+03  0.23140513200E+03  0.00000000000E+00 0. -1.
        -16    1    4    4    0    0 -0.13720508375E+03 -0.22737932568E+03 -0.41173139195E+03  0.48994829510E+03  0.00000000000E+00 0.  1.
         16    1    1    2    0    0 -0.11489961810E+04  0.11217549243E+03  0.48712660788E+03  0.12530235022E+04  0.00000000000E+00 0. -1.
    9900018    1    1    2    0    0  0.10225067222E+04 -0.22893181726E+03 -0.78102967987E+03  0.13100581335E+04  0.91187600000E+02 0.  0.
<mgrwt>
<rscale>  0 0.45757352E+04</rscale>
<asrwt>0</asrwt>
<pdfrwt beam="1">  1        2 0.32255897E+00 0.45757352E+04</pdfrwt>
<pdfrwt beam="2">  1       -2 0.38408375E+00 0.45757352E+04</pdfrwt>
<totfact> 0.41876574E-02</totfact>
</mgrwt>
</event>
<event>
11    1  0.6138927E-009  0.3069811E+04  0.7818608E-02  0.8224072E-01
         -2   -1    0    0    0  501 -0.00000000000E+00  0.00000000000E+00  0.10953372930E+04  0.10953372930E+04  0.00000000000E+00 0. -1.
          2   -1    0    0  501    0  0.00000000000E+00 -0.00000000000E+00 -0.21508760329E+04  0.21508760329E+04  0.00000000000E+00 0.  1.
    9900016    2    1    2    0    0 -0.10628730044E+03  0.87258243083E+02 -0.18217899914E+03  0.20460092125E+04  0.20332372017E+04 0.  0.
         24    2    3    3    0    0 -0.67918189783E+02  0.51425451291E+03 -0.36222852605E+03  0.63759587445E+03  0.79046881563E+02 0.  0.
        -15    1    3    3    0    0 -0.83664515471E+02 -0.33769424206E+02  0.25301887666E+03  0.26862367190E+03  0.00000000000E+00 0.  1.
        -15    1    4    4    0    0 -0.24343783245E+02  0.18922989634E+03 -0.18066706760E+03  0.26275685104E+03  0.00000000000E+00 0.  1.
         15    1    3    3    0    0 -0.39850861384E+03 -0.80943486311E+02  0.27884040215E+03  0.49306483667E+03  0.00000000000E+00 0. -1.
         15    1    3    3    0    0  0.44380401865E+03 -0.31228335931E+03 -0.35180975190E+03  0.64672482943E+03  0.00000000000E+00 0. -1.
        -16    1    1    2    0    0  0.44261442024E+03 -0.19911772924E+02 -0.62868175357E+03  0.76911946469E+03  0.00000000000E+00 0.  1.
         16    1    4    4    0    0 -0.43574406538E+02  0.32502461657E+03 -0.18156145845E+03  0.37483902341E+03  0.00000000000E+00 0. -1.
    9900018    1    1    2    0    0 -0.33632711979E+03 -0.67346470159E+02 -0.24467798722E+03  0.43108464874E+03  0.91187600000E+02 0.  0.
<mgrwt>
<rscale>  0 0.30698109E+04</rscale>
<asrwt>0</asrwt>
<pdfrwt beam="1">  1        2 0.33090400E+00 0.30698109E+04</pdfrwt>
<pdfrwt beam="2">  1       -2 0.16851343E+00 0.30698109E+04</pdfrwt>
<totfact> 0.10229236E+00</totfact>
</mgrwt>
</event>
<event>
11    1  0.6138927E-009  0.3230701E+04  0.7818608E-02  0.8180756E-01
          1   -1    0    0  501    0  0.00000000000E+00  0.00000000000E+00  0.13536781817E+04  0.13536781817E+04  0.00000000000E+00 0. -1.
         -1   -1    0    0    0  501 -0.00000000000E+00 -0.00000000000E+00 -0.19276053508E+04  0.19276053508E+04  0.00000000000E+00 0.  1.
    9900016    2    1    2    0    0  0.43748701678E+03  0.95501391534E+02  0.20749020885E+03  0.20764888283E+04  0.20169874223E+04 0.  0.
         24    2    3    3    0    0 -0.72731285528E+02 -0.72698135836E+03  0.13639334550E+03  0.74750369267E+03  0.79792797685E+02 0.  0.
        -15    1    4    4    0    0 -0.63762151899E+02 -0.32464416166E+03  0.86638979576E+02  0.34200256796E+03  0.00000000000E+00 0.  1.
        -15    1    3    3    0    0  0.50670423225E+03  0.39258732527E+03 -0.96212945403E+02  0.64817506725E+03  0.00000000000E+00 0.  1.
         15    1    3    3    0    0  0.95039126614E+02 -0.85611451946E+02  0.77600522181E+02  0.14961148798E+03  0.00000000000E+00 0. -1.
         15    1    3    3    0    0 -0.91525056550E+02  0.51550687657E+03  0.89709286581E+02  0.53119858044E+03  0.00000000000E+00 0. -1.
        -16    1    1    2    0    0 -0.53947894953E+03 -0.60561655659E+02 -0.87902045979E+03  0.10331419166E+04  0.00000000000E+00 0.  1.
         16    1    4    4    0    0 -0.89691336290E+01 -0.40233719670E+03  0.49754365919E+02  0.40550112471E+03  0.00000000000E+00 0. -1.
    9900018    1    1    2    0    0  0.10199193275E+03 -0.34939735876E+02  0.97603081829E+02  0.17165278753E+03  0.91187600000E+02 0.  0.
<mgrwt>
<rscale>  0 0.32307010E+04</rscale>
<asrwt>0</asrwt>
<pdfrwt beam="1">  1        1 0.20825818E+00 0.32307010E+04</pdfrwt>
<pdfrwt beam="2">  1       -1 0.29655467E+00 0.32307010E+04</pdfrwt>
<totfact> 0.24029568E-01</totfact>
</mgrwt>
</event>
<event>
11    1  0.6138927E-009  0.5291636E+04  0.7818608E-02  0.7785029E-01
          2   -1    0    0  501    0  0.00000000000E+00  0.00000000000E+00  0.19821562719E+04  0.19821562719E+04  0.00000000000E+00 0. -1.
         -2   -1    0    0    0  501 -0.00000000000E+00 -0.00000000000E+00 -0.35316854757E+04  0.35316854757E+04  0.00000000000E+00 0.  1.
    9900016    2    1    2    0    0 -0.36303928678E+03  0.74857223335E+03  0.17954849720E+03  0.21402980707E+04  0.19637923150E+04 0.  0.
         24    2    3    3    0    0 -0.34593629468E+03 -0.15274817507E+03 -0.88715733646E+02  0.39662636952E+03  0.80237588700E+02 0.  0.
        -15    1    3    3    0    0  0.37430393333E+03  0.40432851891E+03  0.21300126592E+03  0.59072372984E+03  0.00000000000E+00 0.  1.
        -15    1    4    4    0    0 -0.21411179398E+03 -0.69264039915E+02 -0.84974586762E+02  0.24054531370E+03  0.00000000000E+00 0.  1.
         15    1    3    3    0    0 -0.11297577521E+03  0.74426530547E+03  0.15249538012E+03  0.76808151369E+03  0.00000000000E+00 0. -1.
         15    1    3    3    0    0 -0.27843115022E+03 -0.24727341596E+03 -0.97232415200E+02  0.38486645764E+03  0.00000000000E+00 0. -1.
        -16    1    1    2    0    0  0.11873491668E+04 -0.43069001972E+03 -0.20677507546E+04  0.24229909452E+04  0.00000000000E+00 0.  1.
         16    1    4    4    0    0 -0.13182450070E+03 -0.83484135154E+02 -0.37411468836E+01  0.15608105582E+03  0.00000000000E+00 0. -1.
    9900018    1    1    2    0    0 -0.82430988007E+03 -0.31788221363E+03  0.33867305360E+03  0.95055273170E+03  0.91187600000E+02 0.  0.
<mgrwt>
<rscale>  0 0.52916359E+04</rscale>
<asrwt>0</asrwt>
<pdfrwt beam="1">  1        2 0.30494712E+00 0.52916359E+04</pdfrwt>
<pdfrwt beam="2">  1       -2 0.54333623E+00 0.52916359E+04</pdfrwt>
<totfact> 0.45540285E-03</totfact>
</mgrwt>
</event>
<event>
11    1  0.6138927E-009  0.2750158E+04  0.7818608E-02  0.8318912E-01
         -2   -1    0    0    0  501 -0.00000000000E+00  0.00000000000E+00  0.25332502318E+04  0.25332502318E+04  0.00000000000E+00 0.  1.
          2   -1    0    0  501    0  0.00000000000E+00 -0.00000000000E+00 -0.74640941246E+03  0.74640941246E+03  0.00000000000E+00 0. -1.
    9900016    2    1    2    0    0 -0.81564856290E+02  0.34508804948E+03  0.17174252401E+04  0.26773084313E+04  0.20230403836E+04 0.  0.
        -24    2    3    3    0    0 -0.65417496339E+03 -0.15571543437E+03  0.13778820464E+03  0.69097195953E+03  0.79148469933E+02 0.  0.
        -15    1    3    3    0    0 -0.68794347594E+02  0.38824471165E+03  0.40015964980E+03  0.56177785976E+03  0.00000000000E+00 0.  1.
        -15    1    3    3    0    0  0.60994490588E+03  0.24656047659E+03  0.92284928521E+03  0.11333471048E+04  0.00000000000E+00 0.  1.
         15    1    3    3    0    0  0.31459548807E+02 -0.13400170440E+03  0.25662810044E+03  0.29121150721E+03  0.00000000000E+00 0. -1.
         15    1    4    4    0    0 -0.27448677015E+03 -0.94247773288E+02  0.87162870831E+02  0.30302309451E+03  0.00000000000E+00 0. -1.
        -16    1    4    4    0    0 -0.37968819324E+03 -0.61467661079E+02  0.50625333812E+02  0.38794886502E+03  0.00000000000E+00 0.  1.
         16    1    1    2    0    0  0.58903910650E+02 -0.44780973926E+03  0.12181226149E+02  0.45183140168E+03  0.00000000000E+00 0. -1.
    9900018    1    1    2    0    0  0.22660945640E+02  0.10272168979E+03  0.57234353071E+02  0.15051981124E+03  0.91187600000E+02 0.  0.
<mgrwt>
<rscale>  0 0.27501577E+04</rscale>
<asrwt>0</asrwt>
<pdfrwt beam="1">  1        2 0.11483222E+00 0.27501577E+04</pdfrwt>
<pdfrwt beam="2">  1       -2 0.38973080E+00 0.27501577E+04</pdfrwt>
<totfact> 0.28543894E-01</totfact>
</mgrwt>
</event>
<event>
11    1  0.6138927E-009  0.4310482E+04  0.7818608E-02  0.7944683E-01
          2   -1    0    0  501    0  0.00000000000E+00  0.00000000000E+00  0.18537204338E+04  0.18537204338E+04  0.00000000000E+00 0.  1.
         -2   -1    0    0    0  501 -0.00000000000E+00 -0.00000000000E+00 -0.25058058392E+04  0.25058058392E+04  0.00000000000E+00 0. -1.
    9900016    2    1    2    0    0  0.58128605182E+03 -0.96574620904E+02 -0.36087576976E+03  0.21308593436E+04  0.20157157760E+04 0.  0.
         24    2    3    3    0    0  0.45013842788E+03  0.11049838567E+03 -0.52089000987E+03  0.70191586097E+03  0.80777323660E+02 0.  0.
        -15    1    3    3    0    0 -0.15246392687E+03 -0.11231440279E+02 -0.20547491237E+03  0.25610805114E+03  0.00000000000E+00 0.  1.
        -15    1    4    4    0    0  0.32649343983E+03  0.88588942771E+02 -0.42886921224E+03  0.54623691585E+03  0.00000000000E+00 0.  1.
         15    1    3    3    0    0  0.40568397273E+03  0.26618625984E+03 -0.11126006840E+03  0.49780861130E+03  0.00000000000E+00 0. -1.
         15    1    3    3    0    0 -0.12207242193E+03 -0.46202782614E+03  0.47674922088E+03  0.67502682016E+03  0.00000000000E+00 0. -1.
        -16    1    1    2    0    0 -0.11243792405E+04 -0.11674567275E+02  0.52271863320E+03  0.12399998957E+04  0.00000000000E+00 0.  1.
         16    1    4    4    0    0  0.12364498805E+03  0.21909442903E+02 -0.92020797627E+02  0.15567894512E+03  0.00000000000E+00 0. -1.
    9900018    1    1    2    0    0  0.54309318865E+03  0.10824918818E+03 -0.81392826885E+03  0.98866703370E+03  0.91187600000E+02 0.  0.
<mgrwt>
<rscale>  0 0.43104819E+04</rscale>
<asrwt>0</asrwt>
<pdfrwt beam="1">  1        2 0.28518776E+00 0.43104819E+04</pdfrwt>
<pdfrwt beam="2">  1       -2 0.38550859E+00 0.43104819E+04</pdfrwt>
<totfact> 0.57161509E-02</totfact>
</mgrwt>
</event>
<event>
11    1  0.6138927E-009  0.3838107E+04  0.7818608E-02  0.8038026E-01
         -2   -1    0    0    0  501 -0.00000000000E+00  0.00000000000E+00  0.10313699642E+04  0.10313699642E+04  0.00000000000E+00 0.  1.
          2   -1    0    0  501    0  0.00000000000E+00 -0.00000000000E+00 -0.35707515151E+04  0.35707515151E+04  0.00000000000E+00 0. -1.
    9900016    2    1    2    0    0 -0.13248681081E+03 -0.11883129470E+04 -0.12461862811E+04  0.26615449623E+04  0.20251421985E+04 0.  0.
        -24    2    3    3    0    0 -0.26772512013E+03 -0.16729662031E+03  0.19859447343E+02  0.32590230555E+03  0.78441162655E+02 0.  0.
        -15    1    3    3    0    0  0.33739455061E+02 -0.25536020634E+03 -0.67722535908E+03  0.72455598320E+03  0.00000000000E+00 0.  1.
        -15    1    3    3    0    0 -0.40337311344E+03 -0.45834690098E+03  0.18443459943E+03  0.63781491967E+03  0.00000000000E+00 0.  1.
         15    1    3    3    0    0  0.50487196770E+03 -0.30730921934E+03 -0.77325496884E+03  0.97327175388E+03  0.00000000000E+00 0. -1.
         15    1    4    4    0    0 -0.17956671083E+02 -0.22667674411E+02  0.23493822812E+02  0.37258894373E+02  0.00000000000E+00 0. -1.
        -16    1    4    4    0    0 -0.24976844904E+03 -0.14462894590E+03 -0.36343754687E+01  0.28864341118E+03  0.00000000000E+00 0.  1.
         16    1    1    2    0    0  0.19891267724E+03  0.11912472403E+04 -0.13523626112E+04  0.18131521925E+04  0.00000000000E+00 0. -1.
    9900018    1    1    2    0    0 -0.66425866432E+02 -0.29342933534E+01  0.59167341410E+02  0.12742432457E+03  0.91187600000E+02 0.  0.
<mgrwt>
<rscale>  0 0.38381068E+04</rscale>
<asrwt>0</asrwt>
<pdfrwt beam="1">  1        2 0.54934638E+00 0.38381068E+04</pdfrwt>
<pdfrwt beam="2">  1       -2 0.15867230E+00 0.38381068E+04</pdfrwt>
<totfact> 0.14892554E-01</totfact>
</mgrwt>
</event>
<event>
11    1  0.6138927E-009  0.3274387E+04  0.7818608E-02  0.8169443E-01
         -1   -1    0    0    0  501 -0.00000000000E+00  0.00000000000E+00  0.15064669911E+04  0.15064669911E+04  0.00000000000E+00 0.  1.
          1   -1    0    0  501    0  0.00000000000E+00 -0.00000000000E+00 -0.17792641343E+04  0.17792641343E+04  0.00000000000E+00 0. -1.
    9900016    2    1    2    0    0 -0.29809491907E+03  0.20826078381E+03 -0.70288654802E+03  0.21655266615E+04  0.20157438051E+04 0.  0.
        -24    2    3    3    0    0  0.24202080974E+03  0.22360360346E+03  0.19280615023E+02  0.34020605834E+03  0.82436497913E+02 0.  0.
        -15    1    3    3    0    0  0.18890528657E+03 -0.19012568635E+02 -0.26874163595E+03  0.32904217351E+03  0.00000000000E+00 0.  1.
        -15    1    3    3    0    0 -0.10129199413E+04  0.12948781645E+03 -0.56410475578E+03  0.11666139368E+04  0.00000000000E+00 0.  1.
         15    1    3    3    0    0  0.28389892588E+03 -0.12581806746E+03  0.11067922869E+03  0.32966449290E+03  0.00000000000E+00 0. -1.
         15    1    4    4    0    0  0.10077067245E+03  0.48088294857E+02  0.26645895100E+02  0.11479205658E+03  0.00000000000E+00 0. -1.
        -16    1    4    4    0    0  0.14125013729E+03  0.17551530860E+03 -0.73652800764E+01  0.22541400176E+03  0.00000000000E+00 0.  1.
         16    1    1    2    0    0  0.53731754777E+03 -0.27703166173E+03  0.56084355826E+03  0.82462245032E+03  0.00000000000E+00 0. -1.
    9900018    1    1    2    0    0 -0.23922262870E+03  0.68770877922E+02 -0.13075415345E+03  0.29558201361E+03  0.91187600000E+02 0.  0.
<mgrwt>
<rscale>  0 0.32743871E+04</rscale>
<asrwt>0</asrwt>
<pdfrwt beam="1">  1        1 0.27373294E+00 0.32743871E+04</pdfrwt>
<pdfrwt beam="2">  1       -1 0.23176415E+00 0.32743871E+04</pdfrwt>
<totfact> 0.32151830E-01</totfact>
</mgrwt>
</event>
<event>
11    1  0.6138927E-009  0.3671328E+04  0.7818608E-02  0.8074346E-01
          1   -1    0    0  501    0  0.00000000000E+00  0.00000000000E+00  0.17291322679E+04  0.17291322679E+04  0.00000000000E+00 0. -1.
         -1   -1    0    0    0  501 -0.00000000000E+00 -0.00000000000E+00 -0.19487589492E+04  0.19487589492E+04  0.00000000000E+00 0.  1.
    9900016    2    1    2    0    0  0.41964973031E+03  0.11391926811E+03  0.98956599973E+03  0.22943937348E+04  0.20238375050E+04 0.  0.
         24    2    3    3    0    0  0.40802442321E+03 -0.56017010194E+03  0.82470409373E+02  0.70244834747E+03  0.79736060787E+02 0.  0.
        -15    1    4    4    0    0  0.35614185907E+02 -0.96617787757E+02  0.12059455173E+02  0.10367640815E+03  0.00000000000E+00 0.  1.
        -15    1    3    3    0    0  0.35104807100E+03  0.39634586161E+03  0.41254217358E+03  0.67120476395E+03  0.00000000000E+00 0.  1.
         15    1    3    3    0    0 -0.25946384547E+03 -0.16501024621E+03  0.30316642857E+03  0.43180985616E+03  0.00000000000E+00 0. -1.
         15    1    3    3    0    0 -0.79958918433E+02  0.44275375466E+03  0.19138698821E+03  0.48893076724E+03  0.00000000000E+00 0. -1.
        -16    1    1    2    0    0 -0.49614194480E+03 -0.14927661472E+02 -0.10501649562E+04  0.11615619224E+04  0.00000000000E+00 0.  1.
         16    1    4    4    0    0  0.37241023731E+03 -0.46355231419E+03  0.70410954200E+02  0.59877193931E+03  0.00000000000E+00 0. -1.
    9900018    1    1    2    0    0  0.76492214494E+02 -0.98991606640E+02 -0.15902772491E+03  0.22193555990E+03  0.91187600000E+02 0.  0.
<mgrwt>
<rscale>  0 0.36713278E+04</rscale>
<asrwt>0</asrwt>
<pdfrwt beam="1">  1        1 0.26602035E+00 0.36713278E+04</pdfrwt>
<pdfrwt beam="2">  1       -1 0.29980907E+00 0.36713278E+04</pdfrwt>
<totfact> 0.12125724E-01</totfact>
</mgrwt>
</event>
<event>
11    1  0.6138927E-009  0.4267793E+04  0.7818608E-02  0.7952600E-01
         -2   -1    0    0    0  501 -0.00000000000E+00  0.00000000000E+00  0.21124090809E+04  0.21124090809E+04  0.00000000000E+00 0. -1.
          2   -1    0    0  501    0  0.00000000000E+00 -0.00000000000E+00 -0.21556028537E+04  0.21556028537E+04  0.00000000000E+00 0.  1.
    9900016    2    1    2    0    0 -0.92809804503E+03  0.98284663334E+03 -0.28444693205E+03  0.24482215583E+04  0.20212682295E+04 0.  0.
         24    2    3    3    0    0 -0.14226590636E+03 -0.29657929625E+03  0.36316323483E+03  0.49628057436E+03  0.78790902279E+02 0.  0.
        -15    1    3    3    0    0 -0.37494776678E+03  0.69080953161E+03 -0.36008660127E+03  0.86456115873E+03  0.00000000000E+00 0.  1.
        -15    1    4    4    0    0 -0.13529433898E+02 -0.13175958428E+01  0.29648734509E+02  0.32616393093E+02  0.00000000000E+00 0.  1.
         15    1    3    3    0    0 -0.43149153494E+03  0.37668646682E+03 -0.51894480041E+03  0.77290448626E+03  0.00000000000E+00 0. -1.
         15    1    3    3    0    0  0.20607163052E+02  0.21192993116E+03  0.23142123480E+03  0.31447533895E+03  0.00000000000E+00 0. -1.
        -16    1    1    2    0    0  0.10627047244E+04 -0.93616597389E+03 -0.11957208673E+03  0.14212830632E+04  0.00000000000E+00 0.  1.
         16    1    4    4    0    0 -0.12873647247E+03 -0.29526170040E+03  0.33351450032E+03  0.46366418127E+03  0.00000000000E+00 0. -1.
    9900018    1    1    2    0    0 -0.13460667936E+03 -0.46680659457E+02  0.36082524597E+03  0.39850731313E+03  0.91187600000E+02 0.  0.
<mgrwt>
<rscale>  0 0.42677934E+04</rscale>
<asrwt>0</asrwt>
<pdfrwt beam="1">  1        2 0.33163121E+00 0.42677934E+04</pdfrwt>
<pdfrwt beam="2">  1       -2 0.32498601E+00 0.42677934E+04</pdfrwt>
<totfact> 0.94163600E-02</totfact>
</mgrwt>
</event>
<event>
11    1  0.6138927E-009  0.3763137E+04  0.7818608E-02  0.8054112E-01
          2   -1    0    0  501    0  0.00000000000E+00  0.00000000000E+00  0.32210123336E+04  0.32210123336E+04  0.00000000000E+00 0. -1.
         -2   -1    0    0    0  501 -0.00000000000E+00 -0.00000000000E+00 -0.10991263639E+04  0.10991263639E+04  0.00000000000E+00 0.  1.
    9900016    2    1    2    0    0 -0.12187951274E+02 -0.74093061448E+03  0.16567079908E+04  0.27207334951E+04  0.20269639027E+04 0.  0.
         24    2    3    3    0    0 -0.38823915464E+03  0.32835932206E+03  0.14811244503E+02  0.51489708566E+03  0.79687830217E+02 0.  0.
        -15    1    4    4    0    0 -0.76850892816E+02  0.39044686403E+02 -0.19790393444E+02  0.88443241323E+02  0.00000000000E+00 0.  1.
        -15    1    3    3    0    0  0.17063801795E+03 -0.83974645663E+03  0.69667097820E+03  0.11043739840E+04  0.00000000000E+00 0.  1.
         15    1    3    3    0    0  0.31815664058E+03 -0.22682871282E+03  0.89775781872E+03  0.97910367887E+03  0.00000000000E+00 0. -1.
         15    1    3    3    0    0 -0.11274345517E+03 -0.27147670760E+01  0.47467949406E+02  0.12235874658E+03  0.00000000000E+00 0. -1.
        -16    1    1    2    0    0  0.47386078839E+03  0.71717593920E+03 -0.97950392587E+02  0.86514718629E+03  0.00000000000E+00 0.  1.
         16    1    4    4    0    0 -0.31138826182E+03  0.28931463565E+03  0.34601637947E+02  0.42645384434E+03  0.00000000000E+00 0. -1.
    9900018    1    1    2    0    0 -0.46167283711E+03  0.23754675280E+02  0.56312837150E+03  0.73425801617E+03  0.91187600000E+02 0.  0.
<mgrwt>
<rscale>  0 0.37631368E+04</rscale>
<asrwt>0</asrwt>
<pdfrwt beam="1">  1        2 0.49554035E+00 0.37631368E+04</pdfrwt>
<pdfrwt beam="2">  1       -2 0.16909637E+00 0.37631368E+04</pdfrwt>
<totfact> 0.21832992E-01</totfact>
</mgrwt>
</event>
<event>
11    1  0.6138927E-009  0.3714467E+04  0.7818608E-02  0.8064763E-01
         -2   -1    0    0    0  501 -0.00000000000E+00  0.00000000000E+00  0.18393998649E+04  0.18393998649E+04  0.00000000000E+00 0.  1.
          2   -1    0    0  501    0  0.00000000000E+00 -0.00000000000E+00 -0.18752401031E+04  0.18752401031E+04  0.00000000000E+00 0. -1.
    9900016    2    1    2    0    0  0.21727526036E+03 -0.63528803855E+03 -0.39085014038E+03  0.21708082551E+04  0.20270286672E+04 0.  0.
         24    2    3    3    0    0 -0.40391860355E+03  0.34988196050E+03 -0.25666126193E+03  0.59809211456E+03  0.79193115550E+02 0.  0.
        -15    1    4    4    0    0 -0.23644244897E+03  0.15394194085E+03 -0.12383649713E+03  0.30812113016E+03  0.00000000000E+00 0.  1.
        -15    1    3    3    0    0 -0.10364808354E+03 -0.27319897170E+03  0.66508026246E+02  0.29967302333E+03  0.00000000000E+00 0.  1.
         15    1    3    3    0    0  0.37638284146E+03 -0.80690127168E+03 -0.19682987273E+03  0.91186386286E+03  0.00000000000E+00 0. -1.
         15    1    3    3    0    0  0.34845910598E+03  0.94930244327E+02 -0.38670319604E+01  0.36117925434E+03  0.00000000000E+00 0. -1.
        -16    1    1    2    0    0 -0.53976431959E+03  0.73894328419E+03  0.61901463340E+03  0.11047903938E+04  0.00000000000E+00 0.  1.
         16    1    4    4    0    0 -0.16747615457E+03  0.19594001965E+03 -0.13282476480E+03  0.28997098440E+03  0.00000000000E+00 0. -1.
    9900018    1    1    2    0    0  0.32248905923E+03 -0.10365524564E+03 -0.26400473124E+03  0.43904131899E+03  0.91187600000E+02 0.  0.
<mgrwt>
<rscale>  0 0.37144671E+04</rscale>
<asrwt>0</asrwt>
<pdfrwt beam="1">  1        2 0.28849848E+00 0.37144671E+04</pdfrwt>
<pdfrwt beam="2">  1       -2 0.28298460E+00 0.37144671E+04</pdfrwt>
<totfact> 0.25557139E-01</totfact>
</mgrwt>
</event>
<event>
11    1  0.6138927E-009  0.3711445E+04  0.7818608E-02  0.8065430E-01
         -2   -1    0    0    0  501 -0.00000000000E+00  0.00000000000E+00  0.12428179699E+04  0.12428179699E+04  0.00000000000E+00 0.  1.
          2   -1    0    0  501    0  0.00000000000E+00 -0.00000000000E+00 -0.27708849596E+04  0.27708849596E+04  0.00000000000E+00 0. -1.
    9900016    2    1    2    0    0  0.70171650023E+02 -0.14832867041E+03 -0.20540760586E+04  0.28759759292E+04  0.20062611086E+04 0.  0.
         24    2    3    3    0    0 -0.24751909520E+03 -0.53512219174E+03 -0.11709070230E+04  0.13133967690E+04  0.79789433853E+02 0.  0.
        -15    1    4    4    0    0 -0.24599884370E+02 -0.87921486070E+02 -0.13108497241E+03  0.15974546008E+03  0.00000000000E+00 0.  1.
        -15    1    3    3    0    0  0.32912103638E+03 -0.29587583770E+03 -0.63230272874E+02  0.44705842496E+03  0.00000000000E+00 0.  1.
         15    1    3    3    0    0 -0.37758933242E+02  0.40048844185E+03 -0.70089410532E+03  0.80812701723E+03  0.00000000000E+00 0. -1.
         15    1    3    3    0    0  0.26328642083E+02  0.28218091718E+03 -0.11904465737E+03  0.30739371799E+03  0.00000000000E+00 0. -1.
        -16    1    1    2    0    0 -0.31594039968E+02  0.14249020084E+03  0.81718791375E+03  0.83011910415E+03  0.00000000000E+00 0.  1.
         16    1    4    4    0    0 -0.22291921083E+03 -0.44720070567E+03 -0.10398220506E+04  0.11536513089E+04  0.00000000000E+00 0. -1.
    9900018    1    1    2    0    0 -0.38577610054E+02  0.58384695701E+01 -0.29117884485E+03  0.30760789620E+03  0.91187600000E+02 0.  0.
<mgrwt>
<rscale>  0 0.37114448E+04</rscale>
<asrwt>0</asrwt>
<pdfrwt beam="1">  1        2 0.42628999E+00 0.37114448E+04</pdfrwt>
<pdfrwt beam="2">  1       -2 0.19120277E+00 0.37114448E+04</pdfrwt>
<totfact> 0.29580449E-01</totfact>
</mgrwt>
</event>
<event>
11    1  0.6138927E-009  0.3173184E+04  0.7818608E-02  0.8195935E-01
         -1   -1    0    0    0  501 -0.00000000000E+00  0.00000000000E+00  0.10378181955E+04  0.10378181955E+04  0.00000000000E+00 0.  1.
          1   -1    0    0  501    0  0.00000000000E+00 -0.00000000000E+00 -0.24255445716E+04  0.24255445716E+04  0.00000000000E+00 0. -1.
    9900016    2    1    2    0    0 -0.31901043759E+03 -0.56872547715E+03 -0.11773777172E+04  0.24245311476E+04  0.20166597802E+04 0.  0.
         24    2    3    3    0    0 -0.43911716536E+03 -0.98934827148E+02  0.81829146492E+02  0.46491802374E+03  0.82708975633E+02 0.  0.
        -15    1    4    4    0    0 -0.17788092185E+03 -0.68605466012E+02  0.41599412923E+01  0.19069776463E+03  0.00000000000E+00 0.  1.
        -15    1    3    3    0    0  0.10985189965E+03 -0.65013273320E+03 -0.16272331614E+03  0.67913098019E+03  0.00000000000E+00 0.  1.
         15    1    3    3    0    0  0.37495802961E+02 -0.60698353508E+02  0.63435990834E+02  0.95469106476E+02  0.00000000000E+00 0. -1.
         15    1    3    3    0    0 -0.27240974834E+02  0.24104043671E+03 -0.11599195384E+04  0.11850130372E+04  0.00000000000E+00 0. -1.
        -16    1    1    2    0    0  0.15204776003E+03  0.46291923784E+03  0.23662471432E+03  0.54166779258E+03  0.00000000000E+00 0.  1.
         16    1    4    4    0    0 -0.26123624351E+03 -0.30329361136E+02  0.77669205200E+02  0.27422025911E+03  0.00000000000E+00 0. -1.
    9900018    1    1    2    0    0  0.16696267756E+03  0.10580623931E+03 -0.44697337327E+03  0.49716382691E+03  0.91187600000E+02 0.  0.
<mgrwt>
<rscale>  0 0.31731841E+04</rscale>
<asrwt>0</asrwt>
<pdfrwt beam="1">  1        1 0.37316070E+00 0.31731841E+04</pdfrwt>
<pdfrwt beam="2">  1       -1 0.15966434E+00 0.31731841E+04</pdfrwt>
<totfact> 0.37594485E-01</totfact>
</mgrwt>
</event>
<event>
11    1  0.6138927E-009  0.2452950E+04  0.7818608E-02  0.8419942E-01
          1   -1    0    0  501    0  0.00000000000E+00  0.00000000000E+00  0.27510857563E+04  0.27510857563E+04  0.00000000000E+00 0. -1.
         -1   -1    0    0    0  501 -0.00000000000E+00 -0.00000000000E+00 -0.54678101673E+03  0.54678101673E+03  0.00000000000E+00 0.  1.
    9900016    2    1    2    0    0  0.35170034781E+03  0.13061511268E+03  0.18402851220E+04  0.27569353841E+04  0.20182393167E+04 0.  0.
        -24    2    3    3    0    0 -0.84904264187E+02  0.56940985896E+03  0.23646292888E+03  0.62753686853E+03  0.80321124657E+02 0.  0.
        -15    1    3    3    0    0  0.47750543034E+01  0.30473475060E+03  0.48615050464E+03  0.57378426480E+03  0.00000000000E+00 0.  1.
        -15    1    3    3    0    0  0.62766426880E+02 -0.57981533624E+03  0.32899254100E+03  0.66959804399E+03  0.00000000000E+00 0.  1.
         15    1    4    4    0    0 -0.52294518017E+02  0.36711951388E+03  0.19312772153E+03  0.41810258419E+03  0.00000000000E+00 0. -1.
         15    1    3    3    0    0  0.36906313082E+03 -0.16371416065E+03  0.78867914748E+03  0.88601620674E+03  0.00000000000E+00 0. -1.
        -16    1    4    4    0    0 -0.32609746170E+02  0.20229034509E+03  0.43335207357E+02  0.20943428434E+03  0.00000000000E+00 0.  1.
         16    1    1    2    0    0 -0.10151748673E+03 -0.68239610766E+02  0.15063527182E+03  0.19404491672E+03  0.00000000000E+00 0. -1.
    9900018    1    1    2    0    0 -0.25018286109E+03 -0.62375501910E+02  0.21338434570E+03  0.34688647221E+03  0.91187600000E+02 0.  0.
<mgrwt>
<rscale>  0 0.24529504E+04</rscale>
<asrwt>0</asrwt>
<pdfrwt beam="1">  1        1 0.42324395E+00 0.24529504E+04</pdfrwt>
<pdfrwt beam="2">  1       -1 0.84120158E-01 0.24529504E+04</pdfrwt>
<totfact> 0.11277264E+00</totfact>
</mgrwt>
</event>
<event>
11    1  0.7680455E-009  0.3297927E+04  0.7818608E-02  0.8163423E-01
          2   -1    0    0  501    0  0.00000000000E+00  0.00000000000E+00  0.19095596321E+04  0.19095596321E+04  0.00000000000E+00 0.  1.
         -2   -1    0    0    0  501 -0.00000000000E+00 -0.00000000000E+00 -0.14239307964E+04  0.14239307964E+04  0.00000000000E+00 0. -1.
    9900016    2    1    2    0    0  0.16560937557E+03  0.67549980114E+03  0.53637403335E+03  0.22165628019E+04  0.20351233634E+04 0.  0.
        -24    2    3    3    0    0 -0.27311961858E+03 -0.60317093757E+02 -0.30579570616E+03  0.42202874760E+03  0.79779521428E+02 0.  0.
        -15    1    3    3    0    0 -0.90721549859E+02  0.69070089181E+03  0.70965858557E+03  0.99444126505E+03  0.00000000000E+00 0.  1.
        -15    1    3    3    0    0  0.31478783620E+03 -0.11713526513E+03 -0.18535553436E+03  0.38362576331E+03  0.00000000000E+00 0.  1.
         15    1    4    4    0    0 -0.12990166548E+03 -0.26373231580E+00 -0.18105672048E+03  0.22283637109E+03  0.00000000000E+00 0. -1.
         15    1    3    3    0    0  0.21466270781E+03  0.16225126822E+03  0.31786668830E+03  0.41646702594E+03  0.00000000000E+00 0. -1.
        -16    1    4    4    0    0 -0.14321795310E+03 -0.60053361442E+02 -0.12473898568E+03  0.19919237651E+03  0.00000000000E+00 0.  1.
         16    1    1    2    0    0 -0.14499242593E+03 -0.87949875135E+03 -0.39489336681E+02  0.89224450960E+03  0.00000000000E+00 0. -1.
    9900018    1    1    2    0    0 -0.20616949636E+02  0.20399895020E+03 -0.11255860956E+02  0.22468311707E+03  0.91187600000E+02 0.  0.
<mgrwt>
<rscale>  0 0.32979271E+04</rscale>
<asrwt>0</asrwt>
<pdfrwt beam="1">  1        2 0.29377840E+00 0.32979271E+04</pdfrwt>
<pdfrwt beam="2">  1       -2 0.21906628E+00 0.32979271E+04</pdfrwt>
<totfact> 0.62786898E-01</totfact>
</mgrwt>
</event>
<event>
11    1  0.6138927E-009  0.3756873E+04  0.7818608E-02  0.8055474E-01
         -1   -1    0    0    0  501 -0.00000000000E+00  0.00000000000E+00  0.19742615687E+04  0.19742615687E+04  0.00000000000E+00 0.  1.
          1   -1    0    0  501    0  0.00000000000E+00 -0.00000000000E+00 -0.17872622052E+04  0.17872622052E+04  0.00000000000E+00 0. -1.
    9900016    2    1    2    0    0 -0.96760518448E+02  0.65932142639E+03  0.95634804890E+02  0.21268033831E+04  0.20174437473E+04 0.  0.
        -24    2    3    3    0    0  0.17679327712E+03 -0.35093888489E+03  0.25768769689E+03  0.47682525281E+03  0.80903700966E+02 0.  0.
        -15    1    3    3    0    0  0.27255163706E+03  0.50646022858E+03  0.21852849431E+03  0.61525690636E+03  0.00000000000E+00 0.  1.
        -15    1    3    3    0    0 -0.60126012514E+03  0.38321622064E+03 -0.94282189862E+02  0.71920618822E+03  0.00000000000E+00 0.  1.
         15    1    4    4    0    0  0.10404188569E+03 -0.15028565811E+03  0.15645055310E+03  0.24059773187E+03  0.00000000000E+00 0. -1.
         15    1    3    3    0    0  0.55154692517E+02  0.12058386206E+03 -0.28629919645E+03  0.31551503574E+03  0.00000000000E+00 0. -1.
        -16    1    4    4    0    0  0.72751391427E+02 -0.20065322678E+03  0.10123714378E+03  0.23622752095E+03  0.00000000000E+00 0.  1.
         16    1    1    2    0    0 -0.22215008475E+03 -0.20863708132E+03 -0.64293095724E+03  0.71150566240E+03  0.00000000000E+00 0. -1.
    9900018    1    1    2    0    0  0.31891060320E+03 -0.45068434507E+03  0.73429551584E+03  0.92321472838E+03  0.91187600000E+02 0.  0.
<mgrwt>
<rscale>  0 0.37568727E+04</rscale>
<asrwt>0</asrwt>
<pdfrwt beam="1">  1        1 0.27496342E+00 0.37568727E+04</pdfrwt>
<pdfrwt beam="2">  1       -1 0.30373255E+00 0.37568727E+04</pdfrwt>
<totfact> 0.10364773E-01</totfact>
</mgrwt>
</event>
<event>
11    1  0.6138927E-009  0.3365378E+04  0.7818608E-02  0.8146456E-01
          1   -1    0    0  501    0  0.00000000000E+00  0.00000000000E+00  0.25920994305E+04  0.25920994305E+04  0.00000000000E+00 0. -1.
         -1   -1    0    0    0  501 -0.00000000000E+00 -0.00000000000E+00 -0.10923354689E+04  0.10923354689E+04  0.00000000000E+00 0.  1.
    9900016    2    1    2    0    0  0.59002940266E+03 -0.51656937325E+03  0.14054321828E+04  0.25836978818E+04  0.20212066967E+04 0.  0.
        -24    2    3    3    0    0 -0.28276142565E+03 -0.95774122504E+02 -0.29619078890E+03  0.42671843146E+03  0.72338993256E+02 0.  0.
        -15    1    3    3    0    0  0.22157791132E+03 -0.19125108158E+03  0.37784506739E+03  0.47795464424E+03  0.00000000000E+00 0.  1.
        -15    1    3    3    0    0  0.76044796130E+03 -0.39122686530E+02  0.76816056307E+03  0.10816109916E+04  0.00000000000E+00 0.  1.
         15    1    4    4    0    0 -0.18641483737E+03 -0.49857046201E+02 -0.14373044576E+03  0.24061308710E+03  0.00000000000E+00 0. -1.
         15    1    3    3    0    0 -0.10923504430E+03 -0.19042148263E+03  0.55561734122E+03  0.59741381455E+03  0.00000000000E+00 0. -1.
        -16    1    4    4    0    0 -0.96346588282E+02 -0.45917076303E+02 -0.15246034314E+03  0.18610534436E+03  0.00000000000E+00 0.  1.
         16    1    1    2    0    0 -0.50921439122E+03  0.42509069370E+03  0.38902394547E+03  0.76898701176E+03  0.00000000000E+00 0. -1.
    9900018    1    1    2    0    0 -0.80815011440E+02  0.91478679546E+02 -0.29469216666E+03  0.33175000583E+03  0.91187600000E+02 0.  0.
<mgrwt>
<rscale>  0 0.33653779E+04</rscale>
<asrwt>0</asrwt>
<pdfrwt beam="1">  1        1 0.39878453E+00 0.33653779E+04</pdfrwt>
<pdfrwt beam="2">  1       -1 0.16805161E+00 0.33653779E+04</pdfrwt>
<totfact> 0.24516474E-01</totfact>
</mgrwt>
</event>
<event>
11    1  0.6138927E-009  0.3368063E+04  0.7818608E-02  0.8145790E-01
          2   -1    0    0  501    0  0.00000000000E+00  0.00000000000E+00  0.30468397540E+04  0.30468397540E+04  0.00000000000E+00 0. -1.
         -2   -1    0    0    0  501 -0.00000000000E+00 -0.00000000000E+00 -0.93078780313E+03  0.93078780313E+03  0.00000000000E+00 0.  1.
    9900016    2    1    2    0    0 -0.63864414914E+03 -0.70489596012E+02  0.11375839517E+04  0.24073736740E+04  0.20220078206E+04 0.  0.
        -24    2    3    3    0    0 -0.26339149123E+03  0.65293032322E+03  0.11260707027E+04  0.13301200165E+04  0.74100919803E+02 0.  0.
        -15    1    3    3    0    0 -0.12960932745E+03 -0.29238018559E+03 -0.29982735819E+03  0.43838475727E+03  0.00000000000E+00 0.  1.
        -15    1    3    3    0    0 -0.15244111957E+03 -0.12682353888E+03  0.24263960665E+03  0.31336318173E+03  0.00000000000E+00 0.  1.
         15    1    4    4    0    0 -0.68525255616E+02  0.99555034814E+02  0.17590934957E+03  0.21342683730E+03  0.00000000000E+00 0. -1.
         15    1    3    3    0    0 -0.93202210895E+02 -0.30421619476E+03  0.68701000616E+02  0.32550571847E+03  0.00000000000E+00 0. -1.
        -16    1    4    4    0    0 -0.19486623561E+03  0.55337528840E+03  0.95016135309E+03  0.11166931792E+04  0.00000000000E+00 0.  1.
         16    1    1    2    0    0  0.90602373723E+03 -0.34209685810E+01  0.87742737512E+03  0.12612571166E+04  0.00000000000E+00 0. -1.
    9900018    1    1    2    0    0 -0.26737958809E+03  0.73910564593E+02  0.10104062405E+03  0.30899676663E+03  0.91187600000E+02 0.  0.
<mgrwt>
<rscale>  0 0.33680625E+04</rscale>
<asrwt>0</asrwt>
<pdfrwt beam="1">  1        2 0.46874457E+00 0.33680625E+04</pdfrwt>
<pdfrwt beam="2">  1       -2 0.14319813E+00 0.33680625E+04</pdfrwt>
<totfact> 0.45714615E-01</totfact>
</mgrwt>
</event>
<event>
11    1  0.6138927E-009  0.2506428E+04  0.7818608E-02  0.8400699E-01
         -2   -1    0    0    0  501 -0.00000000000E+00  0.00000000000E+00  0.97581900238E+03  0.97581900238E+03  0.00000000000E+00 0.  1.
          2   -1    0    0  501    0  0.00000000000E+00 -0.00000000000E+00 -0.16094642776E+04  0.16094642776E+04  0.00000000000E+00 0. -1.
    9900016    2    1    2    0    0  0.78017181015E+02  0.20522385127E+03 -0.51276893175E+03  0.21033850087E+04  0.20280761839E+04 0.  0.
        -24    2    3    3    0    0 -0.29403330621E+03 -0.13249545393E+03 -0.59635471103E+03  0.68262269321E+03  0.79524646795E+02 0.  0.
        -15    1    3    3    0    0  0.28479283905E+03 -0.26623826159E+03  0.30039400577E+02  0.39101424360E+03  0.00000000000E+00 0.  1.
        -15    1    3    3    0    0  0.56182777409E+02  0.34581836733E+03  0.44094517300E+03  0.56318690792E+03  0.00000000000E+00 0.  1.
         15    1    3    3    0    0  0.31074870757E+02  0.25813919946E+03 -0.38739879431E+03  0.46656116396E+03  0.00000000000E+00 0. -1.
         15    1    4    4    0    0 -0.19432052092E+03 -0.82629940305E+02 -0.46248126034E+03  0.50840642015E+03  0.00000000000E+00 0. -1.
        -16    1    4    4    0    0 -0.99712785287E+02 -0.49865513629E+02 -0.13387345069E+03  0.17421627306E+03  0.00000000000E+00 0.  1.
         16    1    1    2    0    0 -0.17317090081E+03 -0.52614877495E+02 -0.19594136427E+03  0.26673864447E+03  0.00000000000E+00 0. -1.
    9900018    1    1    2    0    0  0.95153719790E+02 -0.15260897377E+03  0.75065020814E+02  0.21515962681E+03  0.91187600000E+02 0.  0.
<mgrwt>
<rscale>  0 0.25064284E+04</rscale>
<asrwt>0</asrwt>
<pdfrwt beam="1">  1        2 0.24760988E+00 0.25064284E+04</pdfrwt>
<pdfrwt beam="2">  1       -2 0.15012600E+00 0.25064284E+04</pdfrwt>
<totfact> 0.29363017E+00</totfact>
</mgrwt>
</event>
<event>
11    1  0.6138927E-009  0.4497986E+04  0.7818608E-02  0.7910990E-01
          2   -1    0    0  501    0  0.00000000000E+00  0.00000000000E+00  0.21993761432E+04  0.21993761432E+04  0.00000000000E+00 0. -1.
         -2   -1    0    0    0  501 -0.00000000000E+00 -0.00000000000E+00 -0.22997289211E+04  0.22997289211E+04  0.00000000000E+00 0.  1.
    9900016    2    1    2    0    0  0.26601186619E+03 -0.10652934978E+04  0.32016292158E+03  0.22941108261E+04  0.19886748444E+04 0.  0.
        -24    2    3    3    0    0  0.41748224067E+03 -0.32775320004E+03 -0.27720125460E+03  0.60400228821E+03  0.79149524252E+02 0.  0.
        -15    1    3    3    0    0  0.37650419293E+03  0.15697271079E+02  0.67871342224E+02  0.38289467313E+03  0.00000000000E+00 0.  1.
        -15    1    3    3    0    0 -0.12424691689E+03 -0.32276498178E+03 -0.17547448652E+03  0.38782189886E+03  0.00000000000E+00 0.  1.
         15    1    3    3    0    0 -0.40372765053E+03 -0.43047258704E+03  0.70496732048E+03  0.91939196589E+03  0.00000000000E+00 0. -1.
         15    1    4    4    0    0  0.31831809153E+03 -0.28767443050E+03 -0.23339240289E+03  0.48842092408E+03  0.00000000000E+00 0. -1.
        -16    1    4    4    0    0  0.99164149146E+02 -0.40078769544E+02 -0.43808851716E+02  0.11558136412E+03  0.00000000000E+00 0.  1.
         16    1    1    2    0    0 -0.90683877756E+03  0.11652295198E+04 -0.46641131926E+03  0.15484366055E+04  0.00000000000E+00 0. -1.
    9900018    1    1    2    0    0  0.64082691137E+03 -0.99936022048E+02  0.45895619831E+02  0.65655763277E+03  0.91187600000E+02 0.  0.
<mgrwt>
<rscale>  0 0.44979857E+04</rscale>
<asrwt>0</asrwt>
<pdfrwt beam="1">  1        2 0.33836556E+00 0.44979857E+04</pdfrwt>
<pdfrwt beam="2">  1       -2 0.35380445E+00 0.44979857E+04</pdfrwt>
<totfact> 0.57651933E-02</totfact>
</mgrwt>
</event>
<event>
11    1  0.6138927E-009  0.4588735E+04  0.7818608E-02  0.7895283E-01
          1   -1    0    0  501    0  0.00000000000E+00  0.00000000000E+00  0.25763534407E+04  0.25763534407E+04  0.00000000000E+00 0. -1.
         -1   -1    0    0    0  501 -0.00000000000E+00 -0.00000000000E+00 -0.20432456779E+04  0.20432456779E+04  0.00000000000E+00 0.  1.
    9900016    2    1    2    0    0 -0.13886513973E+04 -0.54462746608E+02  0.33038250967E+02  0.24618675519E+04  0.20318418794E+04 0.  0.
        -24    2    3    3    0    0  0.29558381512E+03  0.30918415910E+02  0.46882781510E+03  0.56073460073E+03  0.79360141358E+02 0.  0.
        -15    1    3    3    0    0 -0.61588885981E+03  0.12589703139E+02 -0.63411023601E+02  0.61927259440E+03  0.00000000000E+00 0.  1.
        -15    1    3    3    0    0 -0.86284720278E+03 -0.32119663583E+03 -0.31487385209E+03  0.97304579386E+03  0.00000000000E+00 0.  1.
         15    1    3    3    0    0 -0.20549914986E+03  0.22322577018E+03 -0.57504688446E+02  0.30881456290E+03  0.00000000000E+00 0. -1.
         15    1    4    4    0    0  0.21259213936E+03  0.11802952048E+01  0.38095765938E+03  0.43626316491E+03  0.00000000000E+00 0. -1.
        -16    1    4    4    0    0  0.82991675762E+02  0.29738120705E+02  0.87870155722E+02  0.12447143582E+03  0.00000000000E+00 0.  1.
         16    1    1    2    0    0  0.12770718439E+04  0.22459783272E+03  0.98211249144E+03  0.16266227672E+04  0.00000000000E+00 0. -1.
    9900018    1    1    2    0    0  0.11157955345E+03 -0.17013508611E+03 -0.48204297964E+03  0.53110879949E+03  0.91187600000E+02 0.  0.
<mgrwt>
<rscale>  0 0.45887354E+04</rscale>
<asrwt>0</asrwt>
<pdfrwt beam="1">  1        1 0.39636207E+00 0.45887354E+04</pdfrwt>
<pdfrwt beam="2">  1       -1 0.31434549E+00 0.45887354E+04</pdfrwt>
<totfact> 0.23826844E-02</totfact>
</mgrwt>
</event>
<event>
11    1  0.6138927E-009  0.5204985E+04  0.7818608E-02  0.7797641E-01
         -2   -1    0    0    0  501 -0.00000000000E+00  0.00000000000E+00  0.26778114462E+04  0.26778114462E+04  0.00000000000E+00 0.  1.
          2   -1    0    0  501    0  0.00000000000E+00 -0.00000000000E+00 -0.25292924786E+04  0.25292924786E+04  0.00000000000E+00 0. -1.
    9900016    2    1    2    0    0  0.11327346725E+04 -0.29544423230E+03 -0.55399862719E+03  0.23709637901E+04  0.19859958918E+04 0.  0.
         24    2    3    3    0    0  0.97316283440E+03  0.17882435836E+03  0.34640297207E+03  0.10511682663E+04  0.77043180405E+02 0.  0.
        -15    1    3    3    0    0  0.27254349708E+03  0.92268093146E+02 -0.29358498697E+03  0.41107846379E+03  0.00000000000E+00 0.  1.
        -15    1    4    4    0    0  0.17655136403E+03  0.45869157174E+02  0.92772491964E+02  0.20464872095E+03  0.00000000000E+00 0.  1.
         15    1    3    3    0    0  0.51265261775E+02 -0.28738897443E+03 -0.10257932620E+03  0.30942376743E+03  0.00000000000E+00 0. -1.
         15    1    3    3    0    0 -0.16423692075E+03 -0.27914770938E+03 -0.50423728609E+03  0.59929329253E+03  0.00000000000E+00 0. -1.
        -16    1    1    2    0    0  0.89959586426E+02 -0.49328081998E+03  0.11961275598E+04  0.12969733358E+04  0.00000000000E+00 0.  1.
         16    1    4    4    0    0  0.79661147037E+03  0.13295520119E+03  0.25363048011E+03  0.84651954537E+03  0.00000000000E+00 0. -1.
    9900018    1    1    2    0    0 -0.12226942589E+04  0.78872505227E+03 -0.49360996506E+03  0.15391667989E+04  0.91187600000E+02 0.  0.
<mgrwt>
<rscale>  0 0.52049854E+04</rscale>
<asrwt>0</asrwt>
<pdfrwt beam="1">  1        2 0.38912192E+00 0.52049854E+04</pdfrwt>
<pdfrwt beam="2">  1       -2 0.41197099E+00 0.52049854E+04</pdfrwt>
<totfact> 0.14870085E-02</totfact>
</mgrwt>
</event>
<event>
11    1  0.6138927E-009  0.3202135E+04  0.7818608E-02  0.8188254E-01
          1   -1    0    0  501    0  0.00000000000E+00  0.00000000000E+00  0.30382432970E+04  0.30382432970E+04  0.00000000000E+00 0. -1.
         -1   -1    0    0    0  501 -0.00000000000E+00 -0.00000000000E+00 -0.84371692724E+03  0.84371692724E+03  0.00000000000E+00 0.  1.
    9900016    2    1    2    0    0 -0.17915881333E+03 -0.41025143313E+03  0.12710548142E+04  0.24335250864E+04  0.20263415029E+04 0.  0.
        -24    2    3    3    0    0 -0.32552622247E+03 -0.59963478325E+03  0.45329051794E+03  0.82296196865E+03  0.79151205956E+02 0.  0.
        -15    1    3    3    0    0  0.28019680496E+03 -0.36493302623E+03  0.82611824710E+03  0.94559913353E+03  0.00000000000E+00 0.  1.
        -15    1    3    3    0    0  0.11858505219E+02  0.59103654441E+02 -0.12229071802E+03  0.13634106435E+03  0.00000000000E+00 0.  1.
         15    1    3    3    0    0 -0.14568790104E+03  0.49521272190E+03  0.11393676716E+03  0.52862291981E+03  0.00000000000E+00 0. -1.
         15    1    4    4    0    0 -0.88612752953E+02 -0.24360340439E+03  0.17041876737E+03  0.31022152551E+03  0.00000000000E+00 0. -1.
        -16    1    4    4    0    0 -0.23691346952E+03 -0.35603137886E+03  0.28287175057E+03  0.51274044315E+03  0.00000000000E+00 0.  1.
         16    1    1    2    0    0  0.43869074101E+03  0.48400359848E+03  0.96014087021E+03  0.11612835744E+04  0.00000000000E+00 0. -1.
    9900018    1    1    2    0    0 -0.25953192767E+03 -0.73752165352E+02 -0.36669314606E+02  0.28715156347E+03  0.91187600000E+02 0.  0.
<mgrwt>
<rscale>  0 0.32021351E+04</rscale>
<asrwt>0</asrwt>
<pdfrwt beam="1">  1        1 0.46742204E+00 0.32021351E+04</pdfrwt>
<pdfrwt beam="2">  1       -1 0.12980261E+00 0.32021351E+04</pdfrwt>
<totfact> 0.23845226E-01</totfact>
</mgrwt>
</event>
<event>
11    1  0.6138927E-009  0.3187141E+04  0.7818608E-02  0.8192221E-01
         -1   -1    0    0    0  501 -0.00000000000E+00  0.00000000000E+00  0.14384487194E+04  0.14384487194E+04  0.00000000000E+00 0.  1.
          1   -1    0    0  501    0  0.00000000000E+00 -0.00000000000E+00 -0.17654207986E+04  0.17654207986E+04  0.00000000000E+00 0. -1.
    9900016    2    1    2    0    0 -0.56151975713E+03 -0.55306891103E+03 -0.63711876158E+03  0.22687285454E+04  0.20297830520E+04 0.  0.
        -24    2    3    3    0    0 -0.28700066797E+02  0.14210828038E+03  0.56227143079E+03  0.58654461988E+03  0.82867195224E+02 0.  0.
        -15    1    3    3    0    0 -0.33647575208E+03 -0.56985069504E+03 -0.38556914615E+03  0.76590424521E+03  0.00000000000E+00 0.  1.
        -15    1    3    3    0    0  0.70148046755E+02  0.37266496597E+02 -0.57486914015E+02  0.98052463075E+02  0.00000000000E+00 0.  1.
         15    1    3    3    0    0 -0.26649198500E+03 -0.16259299296E+03 -0.75633413221E+03  0.81822721721E+03  0.00000000000E+00 0. -1.
         15    1    4    4    0    0  0.22239281340E+02  0.44625975259E+02  0.26338096155E+03  0.26805893794E+03  0.00000000000E+00 0. -1.
        -16    1    4    4    0    0 -0.50939348138E+02  0.97482305121E+02  0.29889046924E+03  0.31848568194E+03  0.00000000000E+00 0.  1.
         16    1    1    2    0    0  0.51009750295E+03  0.50498695906E+03  0.14259904531E+03  0.73180993370E+03  0.00000000000E+00 0. -1.
    9900018    1    1    2    0    0  0.51422254172E+02  0.48081951969E+02  0.16754763709E+03  0.20333103900E+03  0.91187600000E+02 0.  0.
<mgrwt>
<rscale>  0 0.31871412E+04</rscale>
<asrwt>0</asrwt>
<pdfrwt beam="1">  1        1 0.27160320E+00 0.31871412E+04</pdfrwt>
<pdfrwt beam="2">  1       -1 0.22129980E+00 0.31871412E+04</pdfrwt>
<totfact> 0.38858468E-01</totfact>
</mgrwt>
</event>
<event>
11    1  0.6138927E-009  0.4199612E+04  0.7818608E-02  0.7965446E-01
          2   -1    0    0  501    0  0.00000000000E+00  0.00000000000E+00  0.10477263430E+04  0.10477263430E+04  0.00000000000E+00 0. -1.
         -2   -1    0    0    0  501 -0.00000000000E+00 -0.00000000000E+00 -0.42083366686E+04  0.42083366686E+04  0.00000000000E+00 0.  1.
    9900016    2    1    2    0    0 -0.29115999142E+03  0.50671869356E+03 -0.21938095585E+04  0.30405689031E+04  0.20225530650E+04 0.  0.
         24    2    3    3    0    0 -0.58487598570E+03  0.77529586576E+03 -0.53540386656E+03  0.11119602557E+04  0.81453740920E+02 0.  0.
        -15    1    4    4    0    0 -0.25367898006E+03  0.40370555166E+03 -0.25860774334E+03  0.54241051085E+03  0.00000000000E+00 0.  1.
        -15    1    3    3    0    0  0.13943682147E+03 -0.55013222281E+01 -0.59952824983E+03  0.61555423325E+03  0.00000000000E+00 0.  1.
         15    1    3    3    0    0  0.38558439199E+03 -0.33888819196E+03 -0.84662507515E+03  0.99009825162E+03  0.00000000000E+00 0. -1.
         15    1    3    3    0    0 -0.23130521918E+03  0.75812341989E+02 -0.21225236697E+03  0.32295616251E+03  0.00000000000E+00 0. -1.
        -16    1    1    2    0    0  0.87327881840E+03 -0.33022074693E+03 -0.12318971952E+04  0.15457141831E+04  0.00000000000E+00 0.  1.
         16    1    4    4    0    0 -0.33119700564E+03  0.37159031411E+03 -0.27679612322E+03  0.56954974489E+03  0.00000000000E+00 0. -1.
    9900018    1    1    2    0    0 -0.58211882698E+03 -0.17649794662E+03  0.26509642806E+03  0.66977992539E+03  0.91187600000E+02 0.  0.
<mgrwt>
<rscale>  0 0.41996120E+04</rscale>
<asrwt>0</asrwt>
<pdfrwt beam="1">  1        2 0.16118867E+00 0.41996120E+04</pdfrwt>
<pdfrwt beam="2">  1       -2 0.64743642E+00 0.41996120E+04</pdfrwt>
<totfact> 0.62541168E-03</totfact>
</mgrwt>
</event>
<event>
11    1  0.6138927E-009  0.3949049E+04  0.7818608E-02  0.8014904E-01
          1   -1    0    0  501    0  0.00000000000E+00  0.00000000000E+00  0.28303862051E+04  0.28303862051E+04  0.00000000000E+00 0. -1.
         -1   -1    0    0    0  501 -0.00000000000E+00 -0.00000000000E+00 -0.13774614617E+04  0.13774614617E+04  0.00000000000E+00 0.  1.
    9900016    2    1    2    0    0  0.20017100166E+03 -0.12559512976E+04  0.90732868147E+03  0.25486042740E+04  0.20136177188E+04 0.  0.
        -24    2    3    3    0    0 -0.36380179652E+03 -0.50819058342E+03 -0.15851939220E+03  0.65007840965E+03  0.82850013670E+02 0.  0.
        -15    1    3    3    0    0  0.63324960397E+03 -0.67309143788E+03  0.98881022637E+03  0.13534410990E+04  0.00000000000E+00 0.  1.
        -15    1    3    3    0    0  0.12895430709E+03 -0.14590229329E+03 -0.14215143214E+03  0.24108861890E+03  0.00000000000E+00 0.  1.
         15    1    4    4    0    0 -0.92621471163E+02 -0.18851197564E+03 -0.72023416485E+02  0.22204250585E+03  0.00000000000E+00 0. -1.
         15    1    3    3    0    0 -0.19823111288E+03  0.71233017028E+02  0.21918927944E+03  0.30399614644E+03  0.00000000000E+00 0. -1.
        -16    1    4    4    0    0 -0.27118032535E+03 -0.31967860778E+03 -0.86495975716E+02  0.42803590380E+03  0.00000000000E+00 0.  1.
         16    1    1    2    0    0 -0.39701176426E+03  0.11690780874E+04  0.65897844613E+03  0.13995050939E+04  0.00000000000E+00 0. -1.
    9900018    1    1    2    0    0  0.19684076260E+03  0.86873210127E+02 -0.11338238427E+03  0.25973829890E+03  0.91187600000E+02 0.  0.
<mgrwt>
<rscale>  0 0.39490495E+04</rscale>
<asrwt>0</asrwt>
<pdfrwt beam="1">  1        1 0.43544403E+00 0.39490495E+04</pdfrwt>
<pdfrwt beam="2">  1       -1 0.21191715E+00 0.39490495E+04</pdfrwt>
<totfact> 0.77707805E-02</totfact>
</mgrwt>
</event>
