<event>
11    1  0.1395636E-014  0.3866459E+04  0.7818608E-02  0.8032041E-01
         -2   -1    0    0    0  501 -0.00000000000E+00  0.00000000000E+00  0.27194791887E+04  0.27194791887E+04  0.00000000000E+00 0.  1.
          2   -1    0    0  501    0  0.00000000000E+00 -0.00000000000E+00 -0.13742988491E+04  0.13742988491E+04  0.00000000000E+00 0. -1.
    9900016    2    1    2    0    0 -0.13514108081E+04  0.59586124939E+03  0.63114855185E+03  0.24532893318E+04  0.18544320559E+04 0.  0.
        -24    2    3    3    0    0 -0.72200615004E+02  0.84992006749E+02  0.54145901764E+03  0.55877117268E+03  0.81306737784E+02 0.  0.
        -15    1    3    3    0    0 -0.10950897761E+03 -0.39095920243E+03 -0.45533413396E+02  0.40855183989E+03  0.00000000000E+00 0.  1.
        -15    1    4    4    0    0 -0.56540827901E+02  0.43580792649E+02  0.29222921008E+03  0.30082230957E+03  0.00000000000E+00 0. -1.
         15    1    4    4    0    0 -0.70308101283E+01  0.18668671977E+02  0.46856292415E+02  0.50926061533E+02  0.00000000000E+00 0.  1.
         15    1    4    4    0    0  0.10748723488E+02  0.11357654855E+02  0.37578045644E+02  0.40701853703E+02  0.00000000000E+00 0. -1.
        -16    1    4    4    0    0 -0.19377700463E+02  0.11384887269E+02  0.16479546950E+03  0.16632094787E+03  0.00000000000E+00 0.  1.
         16    1    1    2    0    0  0.13514108081E+04 -0.59586124939E+03  0.71403178775E+03  0.16404887061E+04  0.00000000000E+00 0. -1.
    9900018    1    3    3    0    0 -0.11697012155E+04  0.90182844507E+03  0.13522294760E+03  0.14859663192E+04  0.91187600000E+02 0.  0.
<mgrwt>
<rscale>  0 0.38664594E+04</rscale>
<asrwt>0</asrwt>
<pdfrwt beam="1">  1        2 0.21143059E+00 0.38664594E+04</pdfrwt>
<pdfrwt beam="2">  1       -2 0.41838141E+00 0.38664594E+04</pdfrwt>
<totfact> 0.67050006E-02</totfact>
</mgrwt>
</event>
<event>
11    1  0.1395636E-014  0.2193802E+04  0.7818608E-02  0.8521012E-01
          2   -1    0    0  501    0  0.00000000000E+00  0.00000000000E+00  0.70159620687E+03  0.70159620687E+03  0.00000000000E+00 0. -1.
         -2   -1    0    0    0  501 -0.00000000000E+00 -0.00000000000E+00 -0.17149355582E+04  0.17149355582E+04  0.00000000000E+00 0.  1.
    9900016    2    1    2    0    0 -0.14429300467E+03  0.15218335373E+02 -0.11613168161E+04  0.22092893973E+04  0.18738331903E+04 0.  0.
        -24    2    3    3    0    0 -0.24095872896E+03 -0.22742685812E+02  0.35435923831E+03  0.43644325157E+03  0.79585823109E+02 0.  0.
        -15    1    4    4    0    0 -0.88472437529E+02  0.13754895057E+02  0.14049030460E+03  0.16659560326E+03  0.00000000000E+00 0. -1.
        -15    1    3    3    0    0  0.41498868763E+03 -0.22659258245E+03 -0.99380914079E+03  0.11005527782E+04  0.00000000000E+00 0.  1.
         15    1    4    4    0    0 -0.31971242415E+02 -0.15357070676E+02  0.20740172972E+02  0.41087160235E+02  0.00000000000E+00 0. -1.
         15    1    4    4    0    0 -0.12971708794E+02 -0.28301546250E+01  0.25711735005E+02  0.28937317104E+02  0.00000000000E+00 0.  1.
        -16    1    4    4    0    0 -0.10754334023E+03 -0.18310355568E+02  0.16741702573E+03  0.19982317096E+03  0.00000000000E+00 0.  1.
         16    1    1    2    0    0  0.14429300467E+03 -0.15218335373E+02  0.14797746473E+03  0.20724236776E+03  0.00000000000E+00 0. -1.
    9900018    1    3    3    0    0 -0.31832296333E+03  0.26455360364E+03 -0.52186691362E+03  0.67229336759E+03  0.91187600000E+02 0.  0.
<mgrwt>
<rscale>  0 0.21938024E+04</rscale>
<asrwt>0</asrwt>
<pdfrwt beam="1">  1        2 0.10793788E+00 0.21938024E+04</pdfrwt>
<pdfrwt beam="2">  1       -2 0.26383623E+00 0.21938024E+04</pdfrwt>
<totfact> 0.19748229E+00</totfact>
</mgrwt>
</event>
<event>
11    1  0.1395636E-014  0.2851044E+04  0.7818608E-02  0.8287594E-01
         -2   -1    0    0    0  501 -0.00000000000E+00  0.00000000000E+00  0.11336918464E+04  0.11336918464E+04  0.00000000000E+00 0.  1.
          2   -1    0    0  501    0  0.00000000000E+00 -0.00000000000E+00 -0.17924735894E+04  0.17924735894E+04  0.00000000000E+00 0. -1.
    9900016    2    1    2    0    0 -0.45165800750E+03 -0.68345583568E+03 -0.55708846121E+03  0.21006665814E+04  0.18523891863E+04 0.  0.
         24    2    3    3    0    0  0.27675301707E+02  0.10237933398E+03  0.36144514252E+03  0.38522456958E+03  0.80671727463E+02 0.  0.
        -15    1    4    4    0    0  0.17394870842E+02  0.31493436534E+02  0.80832652189E+02  0.88477882752E+02  0.00000000000E+00 0.  1.
        -15    1    4    4    0    0  0.19098525895E+02  0.12116935319E+02  0.29016876126E+02  0.36790663394E+02  0.00000000000E+00 0. -1.
         15    1    3    3    0    0 -0.77468442038E+02  0.19351931405E+03 -0.55434594808E+03  0.59224193922E+03  0.00000000000E+00 0. -1.
         15    1    4    4    0    0 -0.90953023442E+01  0.20939747506E+02  0.51759737373E+02  0.56570910928E+02  0.00000000000E+00 0.  1.
        -16    1    1    2    0    0  0.45165800750E+03  0.68345583568E+03 -0.10169328179E+03  0.82549885441E+03  0.00000000000E+00 0.  1.
         16    1    4    4    0    0  0.27720731457E+00  0.37829214617E+02  0.19983587683E+03  0.20338511251E+03  0.00000000000E+00 0. -1.
    9900018    1    3    3    0    0 -0.40186486717E+03 -0.97935448371E+03 -0.36418765565E+03  0.11232000726E+04  0.91187600000E+02 0.  0.
<mgrwt>
<rscale>  0 0.28510438E+04</rscale>
<asrwt>0</asrwt>
<pdfrwt beam="1">  1        2 0.27576517E+00 0.28510438E+04</pdfrwt>
<pdfrwt beam="2">  1       -2 0.17441413E+00 0.28510438E+04</pdfrwt>
<totfact> 0.14976482E+00</totfact>
</mgrwt>
</event>
<event>
11    1  0.1395636E-014  0.1990537E+04  0.7818608E-02  0.8611058E-01
         -1   -1    0    0    0  501 -0.00000000000E+00  0.00000000000E+00  0.91712693517E+03  0.91712693517E+03  0.00000000000E+00 0.  1.
          1   -1    0    0  501    0  0.00000000000E+00 -0.00000000000E+00 -0.10800679536E+04  0.10800679536E+04  0.00000000000E+00 0. -1.
    9900016    2    1    2    0    0 -0.12422960047E+03 -0.24493089979E+02 -0.23140676192E+03  0.18532488463E+04  0.18343798112E+04 0.  0.
         24    2    3    3    0    0  0.16464604819E+02  0.25401517543E+03  0.63531330417E+03  0.68905978315E+03  0.79909935152E+02 0.  0.
        -15    1    4    4    0    0  0.68315529434E+01  0.18418282850E+02  0.52585652843E+02  0.56135141790E+02  0.00000000000E+00 0. -1.
        -15    1    4    4    0    0  0.23617351601E+02  0.71048819093E+02  0.12118792725E+03  0.14245079046E+03  0.00000000000E+00 0.  1.
         15    1    4    4    0    0 -0.98957118050E+01  0.78004706414E+02  0.19721962705E+03  0.21231636919E+03  0.00000000000E+00 0.  1.
         15    1    3    3    0    0  0.25956833017E+03 -0.96684140472E+02 -0.54658140827E+03  0.61275996680E+03  0.00000000000E+00 0. -1.
        -16    1    1    2    0    0  0.12422960047E+03  0.24493089979E+02  0.68465743524E+02  0.14394604241E+03  0.00000000000E+00 0.  1.
         16    1    4    4    0    0 -0.40885879203E+01  0.86543367072E+02  0.26432009703E+03  0.27815748171E+03  0.00000000000E+00 0. -1.
    9900018    1    3    3    0    0 -0.40026253546E+03 -0.18182412494E+03 -0.32013865782E+03  0.55142909637E+03  0.91187600000E+02 0.  0.
<mgrwt>
<rscale>  0 0.19905370E+04</rscale>
<asrwt>0</asrwt>
<pdfrwt beam="1">  1        1 0.16616430E+00 0.19905370E+04</pdfrwt>
<pdfrwt beam="2">  1       -1 0.14109645E+00 0.19905370E+04</pdfrwt>
<totfact> 0.50052837E+00</totfact>
</mgrwt>
</event>
<event>
12    1  0.1395636E-014  0.2150879E+04  0.7818608E-02  0.8539156E-01
         -1   -1    0    0    0  501 -0.00000000000E+00  0.00000000000E+00  0.10684054526E+04  0.10684054526E+04  0.00000000000E+00 0.  1.
          1   -1    0    0  501    0  0.00000000000E+00 -0.00000000000E+00 -0.10825195746E+04  0.10825195746E+04  0.00000000000E+00 0. -1.
    9900016    2    1    2    0    0 -0.17542494770E+03 -0.69005252616E+02 -0.22843431168E+03  0.18654976618E+04  0.18418370325E+04 0.  0.
         24    2    3    3    0    0 -0.60701493288E+02  0.77848025509E+03 -0.34108953530E+03  0.85594967050E+03  0.81188598206E+02 0.  0.
         24    2    4    4    0    0 -0.50922398034E+02  0.65095030701E+03 -0.28602757969E+03  0.71470190400E+03  0.51552326942E+02 0.  0.
        -15    1    5    5    0    0 -0.44840062622E+00  0.13803931916E+02  0.14428913217E+01  0.13886379471E+02  0.00000000000E+00 0.  1.
        -15    1    4    4    0    0  0.82060922269E+00  0.91105916719E+02 -0.30606048963E+02  0.96112911171E+02  0.00000000000E+00 0.  1.
         15    1    3    3    0    0  0.40848380060E+01 -0.54593553039E+03  0.30133523244E+03  0.62359058007E+03  0.00000000000E+00 0. -1.
         15    1    4    4    0    0 -0.10599704477E+02  0.36424031359E+02 -0.24455906652E+02  0.45134855329E+02  0.00000000000E+00 0. -1.
        -16    1    1    2    0    0  0.17542494770E+03  0.69005252616E+02  0.21432018968E+03  0.28542736532E+03  0.00000000000E+00 0.  1.
         16    1    5    5    0    0 -0.50473997408E+02  0.63714637510E+03 -0.28747047101E+03  0.70081552453E+03  0.00000000000E+00 0. -1.
    9900018    1    3    3    0    0 -0.11880829242E+03 -0.30154997732E+03 -0.18868000882E+03  0.38595741124E+03  0.91187600000E+02 0.  0.
<mgrwt>
<rscale>  0 0.21508787E+04</rscale>
<asrwt>0</asrwt>
<pdfrwt beam="1">  1        1 0.16654147E+00 0.21508787E+04</pdfrwt>
<pdfrwt beam="2">  1       -1 0.16437007E+00 0.21508787E+04</pdfrwt>
<totfact> 0.32423751E+00</totfact>
</mgrwt>
</event>
<event>
11    1  0.1395636E-014  0.2388820E+04  0.7818608E-02  0.8443701E-01
         -1   -1    0    0    0  501 -0.00000000000E+00  0.00000000000E+00  0.11376341887E+04  0.11376341887E+04  0.00000000000E+00 0.  1.
          1   -1    0    0  501    0  0.00000000000E+00 -0.00000000000E+00 -0.12540197425E+04  0.12540197425E+04  0.00000000000E+00 0. -1.
    9900016    2    1    2    0    0 -0.42674847357E+03 -0.70728884459E+02 -0.31676851611E+03  0.19149253225E+04  0.18383361670E+04 0.  0.
        -24    2    3    3    0    0 -0.27319836288E+03  0.56275772021E+02 -0.37393465458E+03  0.47323403622E+03  0.79492258370E+02 0.  0.
        -15    1    3    3    0    0  0.57322307662E+03 -0.25039415691E+03 -0.19828636788E+03  0.65620074144E+03  0.00000000000E+00 0.  1.
        -15    1    4    4    0    0 -0.46095201482E+02  0.24950970530E+02 -0.81568055030E+02  0.96957032398E+02  0.00000000000E+00 0. -1.
         15    1    4    4    0    0 -0.17764039133E+03  0.28631390395E+02 -0.20399482323E+03  0.27201057526E+03  0.00000000000E+00 0. -1.
         15    1    4    4    0    0 -0.17218703836E+02 -0.45924738055E+01 -0.52705578275E+02  0.55636791414E+02  0.00000000000E+00 0.  1.
        -16    1    4    4    0    0 -0.32244066234E+02  0.72858849026E+01 -0.35666198041E+02  0.48629637145E+02  0.00000000000E+00 0.  1.
         16    1    1    2    0    0  0.42674847357E+03  0.70728884459E+02  0.20038296232E+03  0.47672860873E+03  0.00000000000E+00 0. -1.
    9900018    1    3    3    0    0 -0.72677318731E+03  0.12338950043E+03  0.25545250635E+03  0.78549054482E+03  0.91187600000E+02 0.  0.
<mgrwt>
<rscale>  0 0.23888204E+04</rscale>
<asrwt>0</asrwt>
<pdfrwt beam="1">  1        1 0.19292611E+00 0.23888204E+04</pdfrwt>
<pdfrwt beam="2">  1       -1 0.17502065E+00 0.23888204E+04</pdfrwt>
<totfact> 0.19798766E+00</totfact>
</mgrwt>
</event>
<event>
11    1  0.1395636E-014  0.2401896E+04  0.7818608E-02  0.8438794E-01
         -1   -1    0    0    0  501 -0.00000000000E+00  0.00000000000E+00  0.76457330871E+03  0.76457330871E+03  0.00000000000E+00 0.  1.
          1   -1    0    0  501    0  0.00000000000E+00 -0.00000000000E+00 -0.18863804005E+04  0.18863804005E+04  0.00000000000E+00 0. -1.
    9900016    2    1    2    0    0 -0.42635000751E+02 -0.32179746497E+03 -0.51830433807E+03  0.19656895809E+04  0.18681340396E+04 0.  0.
        -24    2    3    3    0    0  0.11982125087E+03  0.12842790942E+02  0.20611297039E+03  0.25012921381E+03  0.74565391436E+02 0.  0.
        -15    1    3    3    0    0  0.51071260160E+03  0.20122231357E+03 -0.64460279043E+03  0.84665845436E+03  0.00000000000E+00 0.  1.
        -15    1    4    4    0    0  0.14393193595E+02  0.18576886599E+02  0.38322946931E+02  0.44954565942E+02  0.00000000000E+00 0. -1.
         15    1    4    4    0    0  0.15313337227E+02 -0.67236475535E+01  0.26311212897E+02  0.31176684518E+02  0.00000000000E+00 0.  1.
         15    1    4    4    0    0  0.42877068556E+02 -0.99012558338E+01  0.10333136551E+03  0.11231139289E+03  0.00000000000E+00 0. -1.
        -16    1    4    4    0    0  0.47237651490E+02  0.10890807729E+02  0.38147445061E+02  0.61686570467E+02  0.00000000000E+00 0.  1.
         16    1    1    2    0    0  0.42635000751E+02  0.32179746497E+03 -0.60350275369E+03  0.68526412825E+03  0.00000000000E+00 0. -1.
    9900018    1    3    3    0    0 -0.67316885322E+03 -0.53586256948E+03 -0.79814518026E+02  0.86890191276E+03  0.91187600000E+02 0.  0.
<mgrwt>
<rscale>  0 0.24018960E+04</rscale>
<asrwt>0</asrwt>
<pdfrwt beam="1">  1        1 0.29021237E+00 0.24018960E+04</pdfrwt>
<pdfrwt beam="2">  1       -1 0.11762666E+00 0.24018960E+04</pdfrwt>
<totfact> 0.20725005E+00</totfact>
</mgrwt>
</event>
<event>
11    1  0.1395636E-014  0.3244271E+04  0.7818608E-02  0.8177222E-01
         -2   -1    0    0    0  501 -0.00000000000E+00  0.00000000000E+00  0.91713631787E+03  0.91713631787E+03  0.00000000000E+00 0.  1.
          2   -1    0    0  501    0  0.00000000000E+00 -0.00000000000E+00 -0.28690644133E+04  0.28690644133E+04  0.00000000000E+00 0. -1.
    9900016    2    1    2    0    0  0.10248263747E+04  0.31909041379E+03 -0.16374845571E+04  0.26677363690E+04  0.18120082421E+04 0.  0.
        -24    2    3    3    0    0 -0.74688601787E+02 -0.94013299600E+02  0.15970686224E+03  0.21576719707E+03  0.81439018581E+02 0.  0.
        -15    1    3    3    0    0  0.86754241743E+03  0.80889557240E+03 -0.14260392088E+04  0.18548664960E+04  0.00000000000E+00 0.  1.
        -15    1    4    4    0    0  0.91767038803E+01 -0.11130113717E+02  0.16399960558E+02  0.21841475036E+02  0.00000000000E+00 0. -1.
         15    1    4    4    0    0 -0.24874851353E+02 -0.20186413176E+02  0.33196906952E+02  0.46133330011E+02  0.00000000000E+00 0.  1.
         15    1    4    4    0    0 -0.26945341197E+02 -0.26116284576E+02  0.85319190150E+02  0.93206630345E+02  0.00000000000E+00 0. -1.
        -16    1    4    4    0    0 -0.32045113117E+02 -0.36580488131E+02  0.24790804581E+02  0.54585761682E+02  0.00000000000E+00 0.  1.
         16    1    1    2    0    0 -0.10248263747E+04 -0.31909041379E+03 -0.31444353834E+03  0.11184643621E+04  0.00000000000E+00 0. -1.
    9900018    1    3    3    0    0  0.23197255910E+03 -0.39579185901E+03 -0.37115221050E+03  0.59710267592E+03  0.91187600000E+02 0.  0.
<mgrwt>
<rscale>  0 0.32442707E+04</rscale>
<asrwt>0</asrwt>
<pdfrwt beam="1">  1        2 0.44139452E+00 0.32442707E+04</pdfrwt>
<pdfrwt beam="2">  1       -2 0.14109790E+00 0.32442707E+04</pdfrwt>
<totfact> 0.61939820E-01</totfact>
</mgrwt>
</event>
<event>
12    1  0.1395636E-014  0.2718142E+04  0.7818608E-02  0.8329143E-01
          2   -1    0    0  501    0  0.00000000000E+00  0.00000000000E+00  0.21037592999E+04  0.21037592999E+04  0.00000000000E+00 0. -1.
         -2   -1    0    0    0  501 -0.00000000000E+00 -0.00000000000E+00 -0.87798712484E+03  0.87798712484E+03  0.00000000000E+00 0.  1.
    9900016    2    1    2    0    0 -0.46623323959E+03  0.55442948467E+03  0.85602399930E+03  0.21684327087E+04  0.18559520031E+04 0.  0.
        -24    2    3    3    0    0 -0.69757655236E+02  0.11082496780E+02 -0.33381833695E+03  0.35039638943E+03  0.79711952922E+02 0.  0.
        -24    2    4    4    0    0 -0.50077453914E+02  0.20259625751E+02 -0.23283970533E+03  0.24649007891E+03  0.60206534483E+02 0.  0.
        -15    1    3    3    0    0 -0.29637355050E+03  0.89467310088E+03  0.10631797883E+04  0.14207844668E+04  0.00000000000E+00 0.  1.
        -15    1    4    4    0    0 -0.12999200383E+02 -0.14713929599E+00 -0.61605714389E+02  0.62962408673E+02  0.00000000000E+00 0. -1.
         15    1    4    4    0    0 -0.66810009397E+01 -0.90299896749E+01 -0.39372917234E+02  0.40943901848E+02  0.00000000000E+00 0.  1.
         15    1    5    5    0    0 -0.34056066582E+02 -0.16029912431E+02 -0.14987790055E+03  0.15453206411E+03  0.00000000000E+00 0. -1.
        -16    1    5    5    0    0 -0.16021387332E+02  0.36289538182E+02 -0.82961804782E+02  0.91958014801E+02  0.00000000000E+00 0.  1.
         16    1    1    2    0    0  0.46623323959E+03 -0.55442948467E+03  0.36974817574E+03  0.81331371600E+03  0.00000000000E+00 0. -1.
    9900018    1    3    3    0    0 -0.10010203386E+03 -0.35132611300E+03  0.12666254795E+03  0.39725185249E+03  0.91187600000E+02 0.  0.
<mgrwt>
<rscale>  0 0.27181417E+04</rscale>
<asrwt>0</asrwt>
<pdfrwt beam="1">  1        2 0.32365527E+00 0.27181417E+04</pdfrwt>
<pdfrwt beam="2">  1       -2 0.13507494E+00 0.27181417E+04</pdfrwt>
<totfact> 0.20179795E+00</totfact>
</mgrwt>
</event>
<event>
11    1  0.1395636E-014  0.2815491E+04  0.7818608E-02  0.8298475E-01
          2   -1    0    0  501    0  0.00000000000E+00  0.00000000000E+00  0.22969057554E+04  0.22969057554E+04  0.00000000000E+00 0. -1.
         -2   -1    0    0    0  501 -0.00000000000E+00 -0.00000000000E+00 -0.86278989222E+03  0.86278989222E+03  0.00000000000E+00 0.  1.
    9900016    2    1    2    0    0  0.60608853750E+03 -0.61063269915E+02  0.16135200353E+04  0.25246697464E+04  0.18437565961E+04 0.  0.
         24    2    3    3    0    0 -0.10634573460E+03 -0.47268110218E+02 -0.97544843607E+02  0.17166618879E+03  0.80066187308E+02 0.  0.
        -15    1    4    4    0    0 -0.28692421139E+01 -0.12956036385E+02 -0.94888495520E+01  0.16313481999E+02  0.00000000000E+00 0.  1.
        -15    1    4    4    0    0 -0.82880117783E+01 -0.17092407904E+02 -0.28246822238E+02  0.34040042799E+02  0.00000000000E+00 0.  1.
         15    1    3    3    0    0  0.49004571994E+03  0.69014776865E+02 -0.11603427593E+03  0.50830286272E+03  0.00000000000E+00 0. -1.
         15    1    4    4    0    0 -0.72634156274E+02 -0.26300354230E+02 -0.58614673606E+02  0.96969630566E+02  0.00000000000E+00 0. -1.
        -16    1    1    2    0    0 -0.60608853750E+03  0.61063269915E+02 -0.17940417213E+03  0.63502590120E+03  0.00000000000E+00 0.  1.
         16    1    4    4    0    0 -0.22554324430E+02  0.90806883018E+01 -0.11944982112E+01  0.24343033428E+02  0.00000000000E+00 0. -1.
    9900018    1    3    3    0    0  0.22238855216E+03 -0.82809936562E+02  0.18270991548E+04  0.18447006949E+04  0.91187600000E+02 0.  0.
<mgrwt>
<rscale>  0 0.28154908E+04</rscale>
<asrwt>0</asrwt>
<pdfrwt beam="1">  1        2 0.35337011E+00 0.28154908E+04</pdfrwt>
<pdfrwt beam="2">  1       -2 0.13273691E+00 0.28154908E+04</pdfrwt>
<totfact> 0.16293057E+00</totfact>
</mgrwt>
</event>
<event>
12    1  0.1395636E-014  0.4916977E+04  0.7818608E-02  0.7841443E-01
         -1   -1    0    0    0  501 -0.00000000000E+00  0.00000000000E+00  0.21114374604E+04  0.21114374604E+04  0.00000000000E+00 0.  1.
          1   -1    0    0  501    0  0.00000000000E+00 -0.00000000000E+00 -0.28625829760E+04  0.28625829760E+04  0.00000000000E+00 0. -1.
    9900016    2    1    2    0    0  0.17299678833E+04 -0.23698627777E+03  0.77097832685E+03  0.26575981164E+04  0.18491805738E+04 0.  0.
        -24    2    3    3    0    0 -0.14372847468E+03  0.75127772191E+02  0.54751167923E+03  0.57708876899E+03  0.83428722989E+02 0.  0.
        -24    2    4    4    0    0 -0.82934280227E+02  0.32713967269E+02  0.29254581489E+03  0.31041591944E+03  0.53166631851E+02 0.  0.
        -15    1    4    4    0    0 -0.53317020478E+02  0.28967506483E+02  0.22431971157E+03  0.23238148399E+03  0.00000000000E+00 0. -1.
        -15    1    3    3    0    0  0.67706265060E+03  0.27401723773E+03  0.12772151577E+03  0.74149313214E+03  0.00000000000E+00 0.  1.
         15    1    5    5    0    0 -0.58367257005E+02  0.42862382327E+02  0.16598134725E+03  0.18109038667E+03  0.00000000000E+00 0. -1.
         15    1    4    4    0    0 -0.74771739791E+01  0.13446298438E+02  0.30646152775E+02  0.34291365565E+02  0.00000000000E+00 0.  1.
        -16    1    5    5    0    0 -0.24567023222E+02 -0.10148415058E+02  0.12656446763E+03  0.12932553277E+03  0.00000000000E+00 0.  1.
         16    1    1    2    0    0 -0.17299678833E+04  0.23698627777E+03 -0.15221238424E+04  0.23164223200E+04  0.00000000000E+00 0. -1.
    9900018    1    3    3    0    0  0.11966337073E+04 -0.58613128769E+03  0.95745131845E+02  0.13390162152E+04  0.91187600000E+02 0.  0.
<mgrwt>
<rscale>  0 0.49169767E+04</rscale>
<asrwt>0</asrwt>
<pdfrwt beam="1">  1        1 0.44039738E+00 0.49169767E+04</pdfrwt>
<pdfrwt beam="2">  1       -1 0.32483653E+00 0.49169767E+04</pdfrwt>
<totfact> 0.12431439E-02</totfact>
</mgrwt>
</event>
<event>
11    1  0.1395636E-014  0.2842896E+04  0.7818608E-02  0.8290073E-01
          1   -1    0    0  501    0  0.00000000000E+00  0.00000000000E+00  0.12461203116E+04  0.12461203116E+04  0.00000000000E+00 0. -1.
         -1   -1    0    0    0  501 -0.00000000000E+00 -0.00000000000E+00 -0.16214436989E+04  0.16214436989E+04  0.00000000000E+00 0.  1.
    9900016    2    1    2    0    0  0.63458453264E+03  0.47833729176E+03 -0.66788540638E+02  0.20150982662E+04  0.18505826702E+04 0.  0.
         24    2    3    3    0    0 -0.14136077986E+03  0.14478997180E+03  0.28352401977E+03  0.35742501156E+03  0.80123424050E+02 0.  0.
        -15    1    4    4    0    0 -0.48384341204E+02  0.40950864647E+02  0.10803072616E+03  0.12525436353E+03  0.00000000000E+00 0.  1.
        -15    1    4    4    0    0 -0.16919782431E+02  0.13883150576E+01  0.11028008720E+02  0.20244096239E+02  0.00000000000E+00 0.  1.
         15    1    3    3    0    0  0.43367001247E+03 -0.29608780029E+03 -0.68365446589E+03  0.86204471690E+03  0.00000000000E+00 0. -1.
         15    1    4    4    0    0 -0.44039700113E+02  0.31081372556E+02  0.51714791912E+02  0.74699174082E+02  0.00000000000E+00 0. -1.
        -16    1    1    2    0    0 -0.63458453264E+03 -0.47833729176E+03 -0.30853484669E+03  0.85246574440E+03  0.00000000000E+00 0.  1.
         16    1    4    4    0    0 -0.32016956114E+02  0.71369419542E+02  0.11275049298E+03  0.13722737770E+03  0.00000000000E+00 0. -1.
    9900018    1    3    3    0    0  0.34227530003E+03  0.62963512026E+03  0.33334190548E+03  0.79562853771E+03  0.91187600000E+02 0.  0.
<mgrwt>
<rscale>  0 0.28428957E+04</rscale>
<asrwt>0</asrwt>
<pdfrwt beam="1">  1        1 0.19171082E+00 0.28428957E+04</pdfrwt>
<pdfrwt beam="2">  1       -1 0.24945287E+00 0.28428957E+04</pdfrwt>
<totfact> 0.59968743E-01</totfact>
</mgrwt>
</event>
<event>
11    1  0.1395636E-014  0.2959631E+04  0.7818608E-02  0.8255353E-01
          2   -1    0    0  501    0  0.00000000000E+00  0.00000000000E+00  0.13595548658E+04  0.13595548658E+04  0.00000000000E+00 0. -1.
         -2   -1    0    0    0  501 -0.00000000000E+00 -0.00000000000E+00 -0.16107138697E+04  0.16107138697E+04  0.00000000000E+00 0.  1.
    9900016    2    1    2    0    0 -0.31015070976E+03 -0.23820247901E+03 -0.99198775683E+03  0.21325568967E+04  0.18468419868E+04 0.  0.
        -24    2    3    3    0    0 -0.21829778167E+03  0.46085093532E+02  0.52161332523E+03  0.57322310484E+03  0.82015300641E+02 0.  0.
        -15    1    3    3    0    0 -0.11172659339E+03 -0.21513646584E+03 -0.12147623645E+04  0.12387147100E+04  0.00000000000E+00 0.  1.
        -15    1    4    4    0    0 -0.13770046173E+02 -0.80065571304E+00  0.47419746515E+02  0.49385094722E+02  0.00000000000E+00 0.  1.
         15    1    4    4    0    0 -0.24542918902E+02  0.21863535005E+02  0.49679898723E+02  0.59568963129E+02  0.00000000000E+00 0. -1.
         15    1    4    4    0    0 -0.91534852537E+02  0.34344953004E+02  0.24903420330E+03  0.26753736083E+03  0.00000000000E+00 0. -1.
        -16    1    4    4    0    0 -0.88449964062E+02 -0.93227387649E+01  0.17547947669E+03  0.19673168616E+03  0.00000000000E+00 0.  1.
         16    1    1    2    0    0  0.31015070976E+03  0.23820247901E+03  0.74082875289E+03  0.83771183881E+03  0.00000000000E+00 0. -1.
    9900018    1    3    3    0    0  0.19873665299E+02 -0.69151106694E+02 -0.29883871757E+03  0.32061908185E+03  0.91187600000E+02 0.  0.
<mgrwt>
<rscale>  0 0.29596310E+04</rscale>
<asrwt>0</asrwt>
<pdfrwt beam="1">  1        2 0.20916229E+00 0.29596310E+04</pdfrwt>
<pdfrwt beam="2">  1       -2 0.24780213E+00 0.29596310E+04</pdfrwt>
<totfact> 0.86928572E-01</totfact>
</mgrwt>
</event>
<event>
11    1  0.1395636E-014  0.2074058E+04  0.7818608E-02  0.8572758E-01
         -3   -1    0    0    0  501 -0.00000000000E+00  0.00000000000E+00  0.50162663630E+03  0.50162663630E+03  0.00000000000E+00 0.  1.
          3   -1    0    0  501    0  0.00000000000E+00 -0.00000000000E+00 -0.21438843605E+04  0.21438843605E+04  0.00000000000E+00 0. -1.
    9900016    2    1    2    0    0  0.16686343097E+03 -0.14612565125E+03 -0.14604849464E+04  0.23587402638E+04  0.18388700995E+04 0.  0.
         24    2    3    3    0    0 -0.10415184125E+03 -0.70410600648E+02  0.25976322608E+03  0.30067223574E+03  0.84389578750E+02 0.  0.
        -15    1    4    4    0    0 -0.10866127973E+02 -0.30375162880E+02  0.54143143338E+02  0.63025417315E+02  0.00000000000E+00 0.  1.
        -15    1    4    4    0    0 -0.88200287360E+01 -0.12920109921E+02  0.12862024918E+02  0.20252254993E+02  0.00000000000E+00 0. -1.
         15    1    4    4    0    0 -0.82116722354E+02 -0.35042141810E+02  0.18729192375E+03  0.20748342703E+03  0.00000000000E+00 0.  1.
         15    1    3    3    0    0 -0.33666148618E+03  0.26366268801E+03 -0.63331376391E+03  0.76416313238E+03  0.00000000000E+00 0. -1.
        -16    1    1    2    0    0 -0.16686343097E+03  0.14612565125E+03 -0.18177277774E+03  0.28677073295E+03  0.00000000000E+00 0.  1.
         16    1    4    4    0    0 -0.23489621828E+01  0.79268139639E+01  0.54661340792E+01  0.99111363993E+01  0.00000000000E+00 0. -1.
    9900018    1    3    3    0    0  0.60767675839E+03 -0.33937773861E+03 -0.10869344086E+04  0.12939048957E+04  0.91187600000E+02 0.  0.
<mgrwt>
<rscale>  0 0.20740583E+04</rscale>
<asrwt>0</asrwt>
<pdfrwt beam="1">  1        3 0.32982836E+00 0.20740583E+04</pdfrwt>
<pdfrwt beam="2">  1       -3 0.77173328E-01 0.20740583E+04</pdfrwt>
<totfact> 0.10101926E-01</totfact>
</mgrwt>
</event>
<event>
11    1  0.1395636E-014  0.2307420E+04  0.7818608E-02  0.8475001E-01
         -2   -1    0    0    0  501 -0.00000000000E+00  0.00000000000E+00  0.10358019052E+04  0.10358019052E+04  0.00000000000E+00 0.  1.
          2   -1    0    0  501    0  0.00000000000E+00 -0.00000000000E+00 -0.12850396087E+04  0.12850396087E+04  0.00000000000E+00 0. -1.
    9900016    2    1    2    0    0 -0.15194805298E+03 -0.38137731401E+03 -0.30231922997E+03  0.19068916197E+04  0.18374715959E+04 0.  0.
        -24    2    3    3    0    0  0.18162045838E+03 -0.52786281696E+02  0.48781583721E+03  0.53088666198E+03  0.90022077304E+02 0.  0.
        -15    1    4    4    0    0  0.40854538120E+02  0.16310530078E+02  0.15520145648E+03  0.16131527755E+03  0.00000000000E+00 0. -1.
        -15    1    3    3    0    0 -0.14350778168E+03 -0.20039605647E+03 -0.10135920111E+04  0.10431307818E+04  0.00000000000E+00 0.  1.
         15    1    4    4    0    0  0.13084539447E+02  0.23636509153E+01  0.24169911622E+02  0.27585805154E+02  0.00000000000E+00 0.  1.
         15    1    4    4    0    0  0.26616032889E+02 -0.99878335301E+01  0.45391971190E+02  0.53559322941E+02  0.00000000000E+00 0. -1.
        -16    1    4    4    0    0  0.10106534792E+03 -0.61472629159E+02  0.26305249792E+03  0.28842625634E+03  0.00000000000E+00 0.  1.
         16    1    1    2    0    0  0.15194805298E+03  0.38137731401E+03  0.53081526506E+02  0.41394989420E+03  0.00000000000E+00 0. -1.
    9900018    1    3    3    0    0 -0.19006072968E+03 -0.12819497584E+03  0.22345694394E+03  0.33287417591E+03  0.91187600000E+02 0.  0.
<mgrwt>
<rscale>  0 0.23074197E+04</rscale>
<asrwt>0</asrwt>
<pdfrwt beam="1">  1        2 0.19769840E+00 0.23074197E+04</pdfrwt>
<pdfrwt beam="2">  1       -2 0.15935414E+00 0.23074197E+04</pdfrwt>
<totfact> 0.38928114E+00</totfact>
</mgrwt>
</event>
<event>
12    1  0.1395636E-014  0.2853739E+04  0.7818608E-02  0.8286776E-01
          2   -1    0    0  501    0  0.00000000000E+00  0.00000000000E+00  0.32936320096E+04  0.32936320096E+04  0.00000000000E+00 0. -1.
         -2   -1    0    0    0  501 -0.00000000000E+00 -0.00000000000E+00 -0.61814940361E+03  0.61814940361E+03  0.00000000000E+00 0.  1.
    9900016    2    1    2    0    0 -0.46541722899E+02  0.55654465926E+03  0.10614039253E+04  0.22038124213E+04  0.18488652753E+04 0.  0.
        -24    2    3    3    0    0  0.32183986336E+03 -0.27324863664E+02  0.11973591338E+04  0.12424296644E+04  0.75066835552E+02 0.  0.
        -24    2    4    4    0    0  0.26222995666E+03 -0.17968540254E+02  0.95209164027E+03  0.98938244485E+03  0.57547476918E+02 0.  0.
        -15    1    3    3    0    0 -0.41682544378E+03  0.47994803972E+03  0.13820736443E+03  0.65053427811E+03  0.00000000000E+00 0.  1.
        -15    1    4    4    0    0  0.11517349636E+02 -0.76606025077E+01  0.44926899874E+02  0.47008089790E+02  0.00000000000E+00 0.  1.
         15    1    4    4    0    0  0.48092557061E+02 -0.16957209020E+01  0.20034059366E+03  0.20603912973E+03  0.00000000000E+00 0. -1.
         15    1    5    5    0    0  0.35014608976E+02  0.17163112187E+02  0.12641947135E+03  0.13229693117E+03  0.00000000000E+00 0. -1.
        -16    1    5    5    0    0  0.22721534768E+03 -0.35131652441E+02  0.82567216892E+03  0.85708551368E+03  0.00000000000E+00 0.  1.
         16    1    1    2    0    0  0.46541722899E+02 -0.55654465926E+03  0.16140786807E+04  0.17079689919E+04  0.00000000000E+00 0. -1.
    9900018    1    3    3    0    0  0.48443857520E+02  0.10392148320E+03 -0.27416257295E+03  0.31084847885E+03  0.91187600000E+02 0.  0.
<mgrwt>
<rscale>  0 0.28537391E+04</rscale>
<asrwt>0</asrwt>
<pdfrwt beam="1">  1        2 0.50671261E+00 0.28537391E+04</pdfrwt>
<pdfrwt beam="2">  1       -2 0.95099910E-01 0.28537391E+04</pdfrwt>
<totfact> 0.90555949E-01</totfact>
</mgrwt>
</event>
<event>
11    1  0.1865921E-014  0.2170199E+04  0.7818608E-02  0.8530935E-01
         -2   -1    0    0    0  501 -0.00000000000E+00  0.00000000000E+00  0.94241847357E+03  0.94241847357E+03  0.00000000000E+00 0.  1.
          2   -1    0    0  501    0  0.00000000000E+00 -0.00000000000E+00 -0.12493821918E+04  0.12493821918E+04  0.00000000000E+00 0. -1.
    9900016    2    1    2    0    0  0.82027052837E+02  0.28848056264E+03 -0.23872946581E+03  0.18842207804E+04  0.18448161749E+04 0.  0.
        -24    2    3    3    0    0 -0.35665689786E+03  0.46737897302E+03 -0.42621060577E+03  0.73045284247E+03  0.79111487113E+02 0.  0.
        -15    1    3    3    0    0  0.57280850393E+03 -0.24305155006E+03 -0.25933256224E+03  0.67411943748E+03  0.00000000000E+00 0.  1.
        -15    1    4    4    0    0 -0.15778252458E+02  0.20650598926E+02 -0.87178065993E+01  0.27411687991E+02  0.00000000000E+00 0.  1.
         15    1    4    4    0    0 -0.12538901256E+02  0.55538306450E+01 -0.15331159718E+02  0.20569723816E+02  0.00000000000E+00 0. -1.
         15    1    4    4    0    0 -0.10457140166E+02  0.18101374241E+02 -0.25231410455E+02  0.32766379162E+02  0.00000000000E+00 0. -1.
        -16    1    4    4    0    0 -0.31788260398E+03  0.42307316921E+03 -0.37693022899E+03  0.64970505150E+03  0.00000000000E+00 0.  1.
         16    1    1    2    0    0 -0.82027052837E+02 -0.28848056264E+03 -0.68234252379E+02  0.30757988494E+03  0.00000000000E+00 0. -1.
    9900018    1    3    3    0    0 -0.13412455323E+03  0.64153139680E+02  0.44681370220E+03  0.47964850044E+03  0.91187600000E+02 0.  0.
<mgrwt>
<rscale>  0 0.21701989E+04</rscale>
<asrwt>0</asrwt>
<pdfrwt beam="1">  1        2 0.19221264E+00 0.21701989E+04</pdfrwt>
<pdfrwt beam="2">  1       -2 0.14498746E+00 0.21701989E+04</pdfrwt>
<totfact> 0.53169456E+00</totfact>
</mgrwt>
</event>
<event>
11    1  0.1395636E-014  0.2440954E+04  0.7818608E-02  0.8424328E-01
         -2   -1    0    0    0  501 -0.00000000000E+00  0.00000000000E+00  0.24719750049E+04  0.24719750049E+04  0.00000000000E+00 0.  1.
          2   -1    0    0  501    0  0.00000000000E+00 -0.00000000000E+00 -0.60258063687E+03  0.60258063687E+03  0.00000000000E+00 0. -1.
    9900016    2    1    2    0    0  0.31968023759E+03 -0.36860174430E+03  0.12172894976E+04  0.22601211986E+04  0.18407312164E+04 0.  0.
         24    2    3    3    0    0  0.39256075507E+02  0.73405234317E+02 -0.33107307379E+03  0.35058808523E+03  0.79832683953E+02 0.  0.
        -15    1    4    4    0    0 -0.34267851614E+01  0.10049936503E+02 -0.63098771204E+01  0.12351462647E+02  0.00000000000E+00 0.  1.
        -15    1    4    4    0    0  0.26267552333E+02  0.63606271394E+01 -0.53013916626E+02  0.59505606788E+02  0.00000000000E+00 0.  1.
         15    1    4    4    0    0  0.28206269340E+01  0.15681065487E+02 -0.42410060650E+02  0.45304138833E+02  0.00000000000E+00 0. -1.
         15    1    3    3    0    0  0.62511312567E+03 -0.12619919401E+03  0.96052542514E+03  0.11529534894E+04  0.00000000000E+00 0. -1.
        -16    1    1    2    0    0 -0.31968023759E+03  0.36860174430E+03  0.65210487041E+03  0.81443444317E+03  0.00000000000E+00 0.  1.
         16    1    4    4    0    0  0.13594681402E+02  0.41313605188E+02 -0.22933921939E+03  0.23342687696E+03  0.00000000000E+00 0. -1.
    9900018    1    3    3    0    0 -0.34468896359E+03 -0.31580778461E+03  0.58783714622E+03  0.75657962391E+03  0.91187600000E+02 0.  0.
<mgrwt>
<rscale>  0 0.24409541E+04</rscale>
<asrwt>0</asrwt>
<pdfrwt beam="1">  1        2 0.92704715E-01 0.24409541E+04</pdfrwt>
<pdfrwt beam="2">  1       -2 0.38030384E+00 0.24409541E+04</pdfrwt>
<totfact> 0.44102698E-01</totfact>
</mgrwt>
</event>
<event>
11    1  0.1395636E-014  0.2922442E+04  0.7818608E-02  0.8266231E-01
          1   -1    0    0  501    0  0.00000000000E+00  0.00000000000E+00  0.13694496527E+04  0.13694496527E+04  0.00000000000E+00 0. -1.
         -1   -1    0    0    0  501 -0.00000000000E+00 -0.00000000000E+00 -0.15591424570E+04  0.15591424570E+04  0.00000000000E+00 0.  1.
    9900016    2    1    2    0    0 -0.62002096693E+03 -0.28449446363E+02  0.49458202848E+03  0.20047591068E+04  0.18409813478E+04 0.  0.
         24    2    3    3    0    0 -0.26984870087E+03 -0.48133339716E+03  0.60013723318E+03  0.81853447751E+03  0.73033085993E+02 0.  0.
        -15    1    4    4    0    0 -0.11150152317E+02 -0.10334036822E+02  0.23322085863E+02  0.27839502559E+02  0.00000000000E+00 0. -1.
        -15    1    4    4    0    0 -0.15467671761E+02 -0.14538128970E+02  0.12687866755E+02  0.24730305830E+02  0.00000000000E+00 0.  1.
         15    1    4    4    0    0 -0.41455080390E+02 -0.96809494482E+02  0.10240285592E+03  0.14689093509E+03  0.00000000000E+00 0.  1.
         15    1    3    3    0    0  0.88689382646E+02 -0.10422231375E+03 -0.39256397849E+03  0.41573377837E+03  0.00000000000E+00 0. -1.
        -16    1    1    2    0    0  0.62002096693E+03  0.28449446363E+02 -0.68427483285E+03  0.92383300293E+03  0.00000000000E+00 0.  1.
         16    1    4    4    0    0 -0.20177579640E+03 -0.35965173688E+03  0.46172442464E+03  0.61907373403E+03  0.00000000000E+00 0. -1.
    9900018    1    3    3    0    0 -0.43886164871E+03  0.55710626454E+03  0.28700877379E+03  0.77049085091E+03  0.91187600000E+02 0.  0.
<mgrwt>
<rscale>  0 0.29224422E+04</rscale>
<asrwt>0</asrwt>
<pdfrwt beam="1">  1        1 0.21068456E+00 0.29224422E+04</pdfrwt>
<pdfrwt beam="2">  1       -1 0.23986807E+00 0.29224422E+04</pdfrwt>
<totfact> 0.56187818E-01</totfact>
</mgrwt>
</event>
<event>
12    1  0.1395636E-014  0.2884794E+04  0.7818608E-02  0.8277416E-01
          1   -1    0    0  501    0  0.00000000000E+00  0.00000000000E+00  0.15142620244E+04  0.15142620244E+04  0.00000000000E+00 0. -1.
         -1   -1    0    0    0  501 -0.00000000000E+00 -0.00000000000E+00 -0.13739430526E+04  0.13739430526E+04  0.00000000000E+00 0.  1.
    9900016    2    1    2    0    0 -0.16732966662E+03 -0.55533284734E+03 -0.50091366541E+03  0.20235819893E+04  0.18728523109E+04 0.  0.
        -24    2    3    3    0    0  0.18109240865E+02 -0.32589356868E+03  0.67219283683E+03  0.75146702026E+03  0.79529302395E+02 0.  0.
        -24    2    4    4    0    0  0.18592050592E+02 -0.21459891852E+03  0.45790193808E+03  0.50878084921E+03  0.52776959454E+02 0.  0.
        -15    1    4    4    0    0  0.80313204805E+01 -0.28131829905E+02  0.71014132391E+02  0.76804355096E+02  0.00000000000E+00 0. -1.
        -15    1    3    3    0    0  0.73742887784E+02 -0.11918296862E+03 -0.14267255996E+03  0.19999513212E+03  0.00000000000E+00 0.  1.
         15    1    4    4    0    0 -0.85141302076E+01 -0.83162820251E+02  0.14327676636E+03  0.16588181595E+03  0.00000000000E+00 0. -1.
         15    1    5    5    0    0 -0.27411398062E+01 -0.19958306607E+02  0.17018060204E+02  0.26371617757E+02  0.00000000000E+00 0.  1.
        -16    1    5    5    0    0  0.21333190398E+02 -0.19464061192E+03  0.44088387788E+03  0.48240923145E+03  0.00000000000E+00 0.  1.
         16    1    1    2    0    0  0.16732966662E+03  0.55533284734E+03  0.64123263725E+03  0.86462308767E+03  0.00000000000E+00 0. -1.
    9900018    1    3    3    0    0 -0.25918179527E+03 -0.11025631003E+03 -0.10304339423E+04  0.10721198369E+04  0.91187600000E+02 0.  0.
<mgrwt>
<rscale>  0 0.28847945E+04</rscale>
<asrwt>0</asrwt>
<pdfrwt beam="1">  1        1 0.23296339E+00 0.28847945E+04</pdfrwt>
<pdfrwt beam="2">  1       -1 0.21137585E+00 0.28847945E+04</pdfrwt>
<totfact> 0.69153449E-01</totfact>
</mgrwt>
</event>
<event>
11    1  0.1395636E-014  0.2495520E+04  0.7818608E-02  0.8404583E-01
          1   -1    0    0  501    0  0.00000000000E+00  0.00000000000E+00  0.18141956312E+04  0.18141956312E+04  0.00000000000E+00 0. -1.
         -1   -1    0    0    0  501 -0.00000000000E+00 -0.00000000000E+00 -0.85817948240E+03  0.85817948240E+03  0.00000000000E+00 0.  1.
    9900016    2    1    2    0    0 -0.14243477758E+03 -0.36735530926E+03  0.27506908556E+03  0.18856562998E+04  0.18234031617E+04 0.  0.
        -24    2    3    3    0    0  0.46848909552E+02  0.11222522253E+03  0.54700847151E+03  0.56708851948E+03  0.87073532821E+02 0.  0.
        -15    1    3    3    0    0 -0.64987224997E+03 -0.38998394805E+03  0.20541612420E+02  0.75818426444E+03  0.00000000000E+00 0.  1.
        -15    1    4    4    0    0  0.76694392613E+01  0.37439434157E+02  0.17131170411E+03  0.17552273782E+03  0.00000000000E+00 0.  1.
         15    1    4    4    0    0 -0.45144134333E+01  0.40943507000E+02  0.12256964712E+03  0.12930610615E+03  0.00000000000E+00 0. -1.
         15    1    4    4    0    0  0.41566776364E+02  0.31515907099E+02  0.14518645333E+03  0.15427299027E+03  0.00000000000E+00 0. -1.
        -16    1    4    4    0    0  0.21271073602E+01  0.23263742754E+01  0.10794066696E+03  0.10798668523E+03  0.00000000000E+00 0.  1.
         16    1    1    2    0    0  0.14243477758E+03  0.36735530926E+03  0.68094706322E+03  0.78671881381E+03  0.00000000000E+00 0. -1.
    9900018    1    3    3    0    0  0.46058856284E+03 -0.89596583742E+02 -0.29248099837E+03  0.56038351585E+03  0.91187600000E+02 0.  0.
<mgrwt>
<rscale>  0 0.24955204E+04</rscale>
<asrwt>0</asrwt>
<pdfrwt beam="1">  1        1 0.27910702E+00 0.24955204E+04</pdfrwt>
<pdfrwt beam="2">  1       -1 0.13202761E+00 0.24955204E+04</pdfrwt>
<totfact> 0.17266047E+00</totfact>
</mgrwt>
</event>
<event>
11    1  0.1395636E-014  0.2233220E+04  0.7818608E-02  0.8504727E-01
          1   -1    0    0  501    0  0.00000000000E+00  0.00000000000E+00  0.11742035423E+04  0.11742035423E+04  0.00000000000E+00 0.  1.
         -1   -1    0    0    0  501 -0.00000000000E+00 -0.00000000000E+00 -0.10618415234E+04  0.10618415234E+04  0.00000000000E+00 0. -1.
    9900016    2    1    2    0    0 -0.11505552516E+03 -0.18349810232E+03  0.35809891760E+03  0.19084844594E+04  0.18620335039E+04 0.  0.
        -24    2    3    3    0    0 -0.27109557607E+03  0.12909327585E+03 -0.27473514716E+03  0.41427232500E+03  0.77358082600E+02 0.  0.
        -15    1    4    4    0    0 -0.29196832913E+02  0.64141063294E+01 -0.15353102848E+02  0.33605261184E+02  0.00000000000E+00 0.  1.
        -15    1    3    3    0    0  0.31671754642E+03 -0.11155240796E+03 -0.34353463740E+03  0.48038525271E+03  0.00000000000E+00 0.  1.
         15    1    4    4    0    0 -0.80148435113E+02  0.50115286471E+02 -0.87443574666E+02  0.12876992017E+03  0.00000000000E+00 0. -1.
         15    1    4    4    0    0 -0.61878746052E+01  0.16452875134E+02 -0.25720684922E+02  0.31153499405E+02  0.00000000000E+00 0. -1.
        -16    1    4    4    0    0 -0.15556243344E+03  0.56111007920E+02 -0.14621778472E+03  0.22074364425E+03  0.00000000000E+00 0.  1.
         16    1    1    2    0    0  0.11505552516E+03  0.18349810232E+03 -0.24573689870E+03  0.32756060631E+03  0.00000000000E+00 0. -1.
    9900018    1    3    3    0    0 -0.16067749551E+03 -0.20103897021E+03  0.97636870216E+03  0.10138268817E+04  0.91187600000E+02 0.  0.
<mgrwt>
<rscale>  0 0.22332202E+04</rscale>
<asrwt>0</asrwt>
<pdfrwt beam="1">  1        1 0.18064670E+00 0.22332202E+04</pdfrwt>
<pdfrwt beam="2">  1       -1 0.16336023E+00 0.22332202E+04</pdfrwt>
<totfact> 0.27976109E+00</totfact>
</mgrwt>
</event>
<event>
11    1  0.1395636E-014  0.2626851E+04  0.7818608E-02  0.8359137E-01
          1   -1    0    0  501    0  0.00000000000E+00  0.00000000000E+00  0.24413259749E+04  0.24413259749E+04  0.00000000000E+00 0. -1.
         -1   -1    0    0    0  501 -0.00000000000E+00 -0.00000000000E+00 -0.70661872113E+03  0.70661872113E+03  0.00000000000E+00 0.  1.
    9900016    2    1    2    0    0 -0.58522605934E+03 -0.16487568872E+03  0.16251668490E+04  0.25301481004E+04  0.18414148337E+04 0.  0.
         24    2    3    3    0    0 -0.51895181281E+02  0.10459867068E+03 -0.21459753415E+03  0.25723656111E+03  0.80526734476E+02 0.  0.
        -15    1    4    4    0    0 -0.36439917220E+02  0.33494878764E+02 -0.51973461352E+02  0.71770573046E+02  0.00000000000E+00 0.  1.
        -15    1    4    4    0    0  0.83458684616E+01  0.57231808547E+01 -0.24991944126E+01  0.10423736959E+02  0.00000000000E+00 0. -1.
         15    1    3    3    0    0 -0.63633194425E+03 -0.66184625790E+03  0.13017116924E+04  0.15929256551E+04  0.00000000000E+00 0. -1.
         15    1    4    4    0    0 -0.12369746047E+02  0.17912861966E+02 -0.44853591512E+02  0.49857054793E+02  0.00000000000E+00 0.  1.
        -16    1    1    2    0    0  0.58522605934E+03  0.16487568872E+03  0.10954040474E+03  0.61779659559E+03  0.00000000000E+00 0.  1.
         16    1    4    4    0    0 -0.11431386474E+02  0.47467749092E+02 -0.11527128687E+03  0.12518519632E+03  0.00000000000E+00 0. -1.
    9900018    1    3    3    0    0  0.10300106619E+03  0.39237189850E+03  0.53805269073E+03  0.67998588423E+03  0.91187600000E+02 0.  0.
<mgrwt>
<rscale>  0 0.26268511E+04</rscale>
<asrwt>0</asrwt>
<pdfrwt beam="1">  1        1 0.37558861E+00 0.26268511E+04</pdfrwt>
<pdfrwt beam="2">  1       -1 0.10871057E+00 0.26268511E+04</pdfrwt>
<totfact> 0.10254277E+00</totfact>
</mgrwt>
</event>
<event>
11    1  0.1395636E-014  0.2904894E+04  0.7818608E-02  0.8271423E-01
          2   -1    0    0  501    0  0.00000000000E+00  0.00000000000E+00  0.12986557403E+04  0.12986557403E+04  0.00000000000E+00 0. -1.
         -2   -1    0    0    0  501 -0.00000000000E+00 -0.00000000000E+00 -0.16244512962E+04  0.16244512962E+04  0.00000000000E+00 0.  1.
    9900016    2    1    2    0    0 -0.34854953822E+03 -0.70123853483E+03  0.14193360484E+03  0.20109706261E+04  0.18467905803E+04 0.  0.
         24    2    3    3    0    0  0.34367639032E+03 -0.12361256824E+03 -0.68667579554E+03  0.78176619786E+03  0.79001339536E+02 0.  0.
        -15    1    4    4    0    0  0.17842118802E+02 -0.29682018774E+00 -0.19573061140E+02  0.26486487649E+02  0.00000000000E+00 0. -1.
        -15    1    4    4    0    0  0.51315381933E+02 -0.26137997551E+02 -0.84970142224E+02  0.10264691134E+03  0.00000000000E+00 0.  1.
         15    1    3    3    0    0 -0.91435029123E+01 -0.94549859619E+01  0.44193657618E+01  0.13875561206E+02  0.00000000000E+00 0. -1.
         15    1    4    4    0    0  0.97870321498E+02 -0.14902559826E+02 -0.22440408761E+03  0.24527103509E+03  0.00000000000E+00 0.  1.
        -16    1    1    2    0    0  0.34854953822E+03  0.70123853483E+03 -0.46772916079E+03  0.91213641040E+03  0.00000000000E+00 0.  1.
         16    1    4    4    0    0  0.17664856809E+03 -0.82275190674E+02 -0.35772850457E+03  0.40736176378E+03  0.00000000000E+00 0. -1.
    9900018    1    3    3    0    0 -0.68308242563E+03 -0.56817098063E+03  0.82419003461E+03  0.12153288670E+04  0.91187600000E+02 0.  0.
<mgrwt>
<rscale>  0 0.29048945E+04</rscale>
<asrwt>0</asrwt>
<pdfrwt beam="1">  1        2 0.19979319E+00 0.29048945E+04</pdfrwt>
<pdfrwt beam="2">  1       -2 0.24991558E+00 0.29048945E+04</pdfrwt>
<totfact> 0.91925673E-01</totfact>
</mgrwt>
</event>
<event>
11    1  0.1395636E-014  0.2701909E+04  0.7818608E-02  0.8334386E-01
         -2   -1    0    0    0  501 -0.00000000000E+00  0.00000000000E+00  0.60242161655E+03  0.60242161655E+03  0.00000000000E+00 0.  1.
          2   -1    0    0  501    0  0.00000000000E+00 -0.00000000000E+00 -0.30295685516E+04  0.30295685516E+04  0.00000000000E+00 0. -1.
    9900016    2    1    2    0    0 -0.10366647700E+03 -0.56095868517E+03 -0.23760726507E+04  0.30592511635E+04  0.18406181177E+04 0.  0.
         24    2    3    3    0    0 -0.24140910630E+03 -0.82473102748E+02  0.91996503764E+02  0.28233965737E+03  0.78563071078E+02 0.  0.
        -15    1    4    4    0    0 -0.16837735356E+02 -0.35814282339E+01 -0.29616008288E+01  0.17467313462E+02  0.00000000000E+00 0. -1.
        -15    1    4    4    0    0 -0.11290778359E+03 -0.16706339516E+02  0.39149877319E+02  0.12066475157E+03  0.00000000000E+00 0.  1.
         15    1    4    4    0    0 -0.13569912947E+02 -0.17973662949E+02  0.21851968150E+02  0.31379987400E+02  0.00000000000E+00 0.  1.
         15    1    3    3    0    0 -0.37347902741E+03 -0.75503640502E+02 -0.17992753678E+04  0.18391789562E+04  0.00000000000E+00 0. -1.
        -16    1    1    2    0    0  0.10366647700E+03  0.56095868517E+03 -0.51074284386E+02  0.57273900465E+03  0.00000000000E+00 0.  1.
         16    1    4    4    0    0 -0.98093674404E+02 -0.44211672049E+02  0.33956259123E+02  0.11282760494E+03  0.00000000000E+00 0. -1.
    9900018    1    3    3    0    0  0.51122165671E+03 -0.40298194192E+03 -0.66879378659E+03  0.93773254992E+03  0.91187600000E+02 0.  0.
<mgrwt>
<rscale>  0 0.27019086E+04</rscale>
<asrwt>0</asrwt>
<pdfrwt beam="1">  1        2 0.46608747E+00 0.27019086E+04</pdfrwt>
<pdfrwt beam="2">  1       -2 0.92680249E-01 0.27019086E+04</pdfrwt>
<totfact> 0.14442893E+00</totfact>
</mgrwt>
</event>
<event>
11    1  0.1395636E-014  0.2619886E+04  0.7818608E-02  0.8361477E-01
          1   -1    0    0  501    0  0.00000000000E+00  0.00000000000E+00  0.13164979471E+04  0.13164979471E+04  0.00000000000E+00 0. -1.
         -1   -1    0    0    0  501 -0.00000000000E+00 -0.00000000000E+00 -0.13034211069E+04  0.13034211069E+04  0.00000000000E+00 0.  1.
    9900016    2    1    2    0    0 -0.95233095725E+02  0.41485554468E+03 -0.49820240653E+03  0.19546514885E+04  0.18415434663E+04 0.  0.
        -24    2    3    3    0    0 -0.39115628617E+02 -0.38167765671E+03  0.50819278799E+03  0.64175591594E+03  0.79892927404E+02 0.  0.
        -15    1    4    4    0    0 -0.31113417573E+02 -0.17107544556E+03  0.23609490275E+03  0.29321605675E+03  0.00000000000E+00 0. -1.
        -15    1    3    3    0    0 -0.40644475302E+02  0.72409749502E+03 -0.87993255347E+03  0.11402852513E+04  0.00000000000E+00 0.  1.
         15    1    4    4    0    0  0.40334054531E+01 -0.19032699000E+02  0.11336156322E+02  0.22517114179E+02  0.00000000000E+00 0.  1.
         15    1    4    4    0    0  0.74818549882E+01 -0.83377440812E+01  0.18792607336E+02  0.21878259092E+02  0.00000000000E+00 0. -1.
        -16    1    4    4    0    0 -0.19517471486E+02 -0.18323176807E+03  0.24196912158E+03  0.30414448593E+03  0.00000000000E+00 0.  1.
         16    1    1    2    0    0  0.95233095725E+02 -0.41485554468E+03  0.51127924681E+03  0.66526756549E+03  0.00000000000E+00 0. -1.
    9900018    1    3    3    0    0 -0.15472991805E+02  0.72435706372E+02 -0.12646264105E+03  0.17261032127E+03  0.91187600000E+02 0.  0.
<mgrwt>
<rscale>  0 0.26198864E+04</rscale>
<asrwt>0</asrwt>
<pdfrwt beam="1">  1        1 0.20253815E+00 0.26198864E+04</pdfrwt>
<pdfrwt beam="2">  1       -1 0.20052632E+00 0.26198864E+04</pdfrwt>
<totfact> 0.11552675E+00</totfact>
</mgrwt>
</event>
<event>
11    1  0.1395636E-014  0.3719925E+04  0.7818608E-02  0.8063560E-01
         -1   -1    0    0    0  501 -0.00000000000E+00  0.00000000000E+00  0.18423924438E+04  0.18423924438E+04  0.00000000000E+00 0.  1.
          1   -1    0    0  501    0  0.00000000000E+00 -0.00000000000E+00 -0.18777003811E+04  0.18777003811E+04  0.00000000000E+00 0. -1.
    9900016    2    1    2    0    0  0.68772907232E+03  0.42022083142E+03  0.11279312506E+04  0.23049312679E+04  0.18414457417E+04 0.  0.
        -24    2    3    3    0    0  0.24355942151E+03  0.49873810964E+02 -0.40787626855E+03  0.48594598367E+03  0.89285271830E+02 0.  0.
        -15    1    4    4    0    0  0.76787915330E+02 -0.91138112966E+00 -0.88462193181E+02  0.11714424518E+03  0.00000000000E+00 0. -1.
        -15    1    3    3    0    0  0.43937067482E+03  0.90977959744E+02  0.14424142670E+04  0.15105901154E+04  0.00000000000E+00 0.  1.
         15    1    4    4    0    0  0.88049118440E+01  0.12661134783E+02 -0.45889199084E+02  0.48411252815E+02  0.00000000000E+00 0.  1.
         15    1    4    4    0    0  0.89073186117E+02  0.19211671729E+02 -0.18825039281E+03  0.20914428324E+03  0.00000000000E+00 0. -1.
        -16    1    4    4    0    0  0.68893408220E+02  0.18912385581E+02 -0.85274483474E+02  0.11124620244E+03  0.00000000000E+00 0.  1.
         16    1    1    2    0    0 -0.68772907232E+03 -0.42022083142E+03 -0.11632391879E+04  0.14151615569E+04  0.00000000000E+00 0. -1.
    9900018    1    3    3    0    0  0.47989759853E+01  0.27936906071E+03  0.93393252139E+02  0.30839516889E+03  0.91187600000E+02 0.  0.
<mgrwt>
<rscale>  0 0.37199253E+04</rscale>
<asrwt>0</asrwt>
<pdfrwt beam="1">  1        1 0.28887698E+00 0.37199253E+04</pdfrwt>
<pdfrwt beam="2">  1       -1 0.28344499E+00 0.37199253E+04</pdfrwt>
<totfact> 0.12217652E-01</totfact>
</mgrwt>
</event>
<event>
12    1  0.1395636E-014  0.2091938E+04  0.7818608E-02  0.8564803E-01
         -2   -1    0    0    0  501 -0.00000000000E+00  0.00000000000E+00  0.64064565188E+03  0.64064565188E+03  0.00000000000E+00 0.  1.
          2   -1    0    0  501    0  0.00000000000E+00 -0.00000000000E+00 -0.17077328673E+04  0.17077328673E+04  0.00000000000E+00 0. -1.
    9900016    2    1    2    0    0 -0.61802179401E+02  0.22874003497E+03 -0.94001477188E+03  0.20795125323E+04  0.18397290800E+04 0.  0.
         24    2    3    3    0    0  0.12329258184E+03 -0.12415518034E+03  0.27874989033E+03  0.33899167483E+03  0.81229826411E+02 0.  0.
         24    2    4    4    0    0  0.56436565603E+02 -0.66613944985E+02  0.15595900554E+03  0.18706112119E+03  0.55191920140E+02 0.  0.
        -15    1    4    4    0    0  0.17168676621E+02 -0.79715782558E+01  0.31927831703E+02  0.37117326871E+02  0.00000000000E+00 0. -1.
        -15    1    5    5    0    0  0.38459218694E+02 -0.11014520888E+02  0.36850149529E+02  0.54390851190E+02  0.00000000000E+00 0.  1.
         15    1    3    3    0    0 -0.24337949869E+03 -0.27825682569E+03 -0.99620540742E+03  0.10625844226E+04  0.00000000000E+00 0. -1.
         15    1    4    4    0    0  0.49687339614E+02 -0.49569657100E+02  0.90863053089E+02  0.11481322676E+03  0.00000000000E+00 0.  1.
        -16    1    1    2    0    0  0.61802179401E+02 -0.22874003497E+03 -0.12707244356E+03  0.26886598686E+03  0.00000000000E+00 0.  1.
         16    1    5    5    0    0  0.17977346909E+02 -0.55599424096E+02  0.11910885601E+03  0.13267027000E+03  0.00000000000E+00 0. -1.
    9900018    1    3    3    0    0  0.58284737454E+02  0.63115204100E+03 -0.22255925479E+03  0.67793643490E+03  0.91187600000E+02 0.  0.
<mgrwt>
<rscale>  0 0.20919385E+04</rscale>
<asrwt>0</asrwt>
<pdfrwt beam="1">  1        2 0.26272813E+00 0.20919385E+04</pdfrwt>
<pdfrwt beam="2">  1       -2 0.98560872E-01 0.20919385E+04</pdfrwt>
<totfact> 0.76545388E+00</totfact>
</mgrwt>
</event>
<event>
11    1  0.1395636E-014  0.2967146E+04  0.7818608E-02  0.8253175E-01
          2   -1    0    0  501    0  0.00000000000E+00  0.00000000000E+00  0.15214093871E+04  0.15214093871E+04  0.00000000000E+00 0. -1.
         -2   -1    0    0    0  501 -0.00000000000E+00 -0.00000000000E+00 -0.14466778472E+04  0.14466778472E+04  0.00000000000E+00 0.  1.
    9900016    2    1    2    0    0  0.13091901834E+02  0.45406431693E+03 -0.72671809565E+03  0.20468558193E+04  0.18588043880E+04 0.  0.
        -24    2    3    3    0    0 -0.99794225248E+02 -0.24335720107E+03 -0.91503164664E+03  0.95521446244E+03  0.77266682364E+02 0.  0.
        -15    1    4    4    0    0 -0.37608464594E+01 -0.27474329400E+02 -0.86183378341E+02  0.90534841052E+02  0.00000000000E+00 0.  1.
        -15    1    3    3    0    0  0.26138958312E+03 -0.76957420603E+02  0.11069810104E+03  0.29411057159E+03  0.00000000000E+00 0.  1.
         15    1    4    4    0    0 -0.22743680236E+02 -0.12119074474E+02 -0.11428666556E+03  0.11715625840E+03  0.00000000000E+00 0. -1.
         15    1    4    4    0    0 -0.25406255469E+02 -0.36790576054E+02 -0.17885393207E+03  0.18435767768E+03  0.00000000000E+00 0. -1.
        -16    1    4    4    0    0 -0.47883443083E+02 -0.16697322114E+03 -0.53570767066E+03  0.56316568531E+03  0.00000000000E+00 0.  1.
         16    1    1    2    0    0 -0.13091901834E+02 -0.45406431693E+03  0.80144963553E+03  0.92123141506E+03  0.00000000000E+00 0. -1.
    9900018    1    3    3    0    0 -0.14850345603E+03  0.77437893860E+03  0.77615449949E+02  0.79753078528E+03  0.91187600000E+02 0.  0.
<mgrwt>
<rscale>  0 0.29671463E+04</rscale>
<asrwt>0</asrwt>
<pdfrwt beam="1">  1        2 0.23406298E+00 0.29671463E+04</pdfrwt>
<pdfrwt beam="2">  1       -2 0.22256582E+00 0.29671463E+04</pdfrwt>
<totfact> 0.10089399E+00</totfact>
</mgrwt>
</event>
<event>
11    1  0.1395636E-014  0.3142483E+04  0.7818608E-02  0.8204175E-01
         -1   -1    0    0    0  501 -0.00000000000E+00  0.00000000000E+00  0.14459506683E+04  0.14459506683E+04  0.00000000000E+00 0.  1.
          1   -1    0    0  501    0  0.00000000000E+00 -0.00000000000E+00 -0.17073882357E+04  0.17073882357E+04  0.00000000000E+00 0. -1.
    9900016    2    1    2    0    0 -0.27177763672E+03 -0.56631223839E+03  0.64282740967E+03  0.20523085756E+04  0.18450395052E+04 0.  0.
        -24    2    3    3    0    0  0.53981533732E+02  0.40907474842E+03 -0.24497935650E+03  0.48653698765E+03  0.80294454752E+02 0.  0.
        -15    1    3    3    0    0  0.14667506240E+03 -0.62170431007E+03  0.68129103531E+03  0.93390968400E+03  0.00000000000E+00 0.  1.
        -15    1    4    4    0    0  0.30866673789E+02  0.27340967935E+03 -0.17209926799E+03  0.32453622657E+03  0.00000000000E+00 0.  1.
         15    1    4    4    0    0  0.23492952044E+01  0.13679470363E+02 -0.23001816173E+01  0.14069041646E+02  0.00000000000E+00 0. -1.
         15    1    4    4    0    0  0.18587153094E+02  0.17655829522E+02 -0.12891048258E+02  0.28694767841E+02  0.00000000000E+00 0. -1.
        -16    1    4    4    0    0  0.21784116451E+01  0.10432976918E+03 -0.57688858639E+02  0.11923695159E+03  0.00000000000E+00 0.  1.
         16    1    1    2    0    0  0.27177763672E+03  0.56631223839E+03 -0.90426497707E+03  0.11010303283E+04  0.00000000000E+00 0. -1.
    9900018    1    3    3    0    0 -0.47243423285E+03 -0.35368267674E+03  0.20651573086E+03  0.63186190397E+03  0.91187600000E+02 0.  0.
<mgrwt>
<rscale>  0 0.31424826E+04</rscale>
<asrwt>0</asrwt>
<pdfrwt beam="1">  1        1 0.26267511E+00 0.31424826E+04</pdfrwt>
<pdfrwt beam="2">  1       -1 0.22245395E+00 0.31424826E+04</pdfrwt>
<totfact> 0.41973550E-01</totfact>
</mgrwt>
</event>
<event>
11    1  0.1395636E-014  0.2149289E+04  0.7818608E-02  0.8539836E-01
          2   -1    0    0  501    0  0.00000000000E+00  0.00000000000E+00  0.29734686980E+04  0.29734686980E+04  0.00000000000E+00 0. -1.
         -2   -1    0    0    0  501 -0.00000000000E+00 -0.00000000000E+00 -0.38838855555E+03  0.38838855555E+03  0.00000000000E+00 0.  1.
    9900016    2    1    2    0    0  0.19142143216E+03  0.17653860329E+03  0.24075176040E+04  0.30466803220E+04  0.18488677421E+04 0.  0.
         24    2    3    3    0    0 -0.70932479390E+02 -0.81830691936E+02 -0.21575090303E+03  0.25476803369E+03  0.81428619380E+02 0.  0.
        -15    1    4    4    0    0 -0.32463413370E+02 -0.11974409077E+02 -0.22085752547E+02  0.41049240504E+02  0.00000000000E+00 0.  1.
        -15    1    4    4    0    0 -0.11483294771E+02 -0.55737910187E+01 -0.33942204082E+02  0.36263017291E+02  0.00000000000E+00 0.  1.
         15    1    4    4    0    0  0.79108199378E+01 -0.12116972015E+02 -0.26656547398E+02  0.30331066616E+02  0.00000000000E+00 0. -1.
         15    1    3    3    0    0  0.56013222072E+03  0.89875906043E+02  0.12327370353E+04  0.13570064044E+04  0.00000000000E+00 0. -1.
        -16    1    1    2    0    0 -0.19142143216E+03 -0.17653860329E+03  0.17756253850E+03  0.31517693161E+03  0.00000000000E+00 0.  1.
         16    1    4    4    0    0 -0.34896591186E+02 -0.52165519825E+02 -0.13306639901E+03  0.14712470928E+03  0.00000000000E+00 0. -1.
    9900018    1    3    3    0    0 -0.29777830917E+03  0.16849338918E+03  0.13905314717E+04  0.14349058839E+04  0.91187600000E+02 0.  0.
<mgrwt>
<rscale>  0 0.21492894E+04</rscale>
<asrwt>0</asrwt>
<pdfrwt beam="1">  1        2 0.45745671E+00 0.21492894E+04</pdfrwt>
<pdfrwt beam="2">  1       -2 0.59752087E-01 0.21492894E+04</pdfrwt>
<totfact> 0.43442766E+00</totfact>
</mgrwt>
</event>
<event>
11    1  0.1395636E-014  0.2764248E+04  0.7818608E-02  0.8314455E-01
         -2   -1    0    0    0  501 -0.00000000000E+00  0.00000000000E+00  0.19083559174E+04  0.19083559174E+04  0.00000000000E+00 0.  1.
          2   -1    0    0  501    0  0.00000000000E+00 -0.00000000000E+00 -0.10010012894E+04  0.10010012894E+04  0.00000000000E+00 0. -1.
    9900016    2    1    2    0    0  0.49490546539E+03  0.19964499301E+03  0.12290789350E+04  0.22862231341E+04  0.18524015892E+04 0.  0.
        -24    2    3    3    0    0 -0.17297817202E+03  0.89933901330E+02  0.12682840250E+03  0.24558100870E+03  0.78835484064E+02 0.  0.
        -15    1    3    3    0    0  0.28340755258E+03 -0.62704983730E+02 -0.39068217568E+03  0.48670763117E+03  0.00000000000E+00 0.  1.
        -15    1    4    4    0    0 -0.18324630654E+01  0.15240629620E+02  0.95469456575E+01  0.18077026401E+02  0.00000000000E+00 0.  1.
         15    1    4    4    0    0 -0.19447841480E+02  0.36422357795E+01  0.24877305776E+02  0.31786235423E+02  0.00000000000E+00 0. -1.
         15    1    4    4    0    0 -0.49808717540E+02  0.30009498592E+02  0.53990418514E+02  0.79350133208E+02  0.00000000000E+00 0. -1.
        -16    1    4    4    0    0 -0.10188914993E+03  0.41041537338E+02  0.38413732553E+02  0.11636761366E+03  0.00000000000E+00 0.  1.
         16    1    1    2    0    0 -0.49490546539E+03 -0.19964499301E+03 -0.32172430698E+03  0.62313407274E+03  0.00000000000E+00 0. -1.
    9900018    1    3    3    0    0  0.38447608484E+03  0.17241607541E+03  0.14929327081E+04  0.15539344942E+04  0.91187600000E+02 0.  0.
<mgrwt>
<rscale>  0 0.27642480E+04</rscale>
<asrwt>0</asrwt>
<pdfrwt beam="1">  1        2 0.15400020E+00 0.27642480E+04</pdfrwt>
<pdfrwt beam="2">  1       -2 0.29359322E+00 0.27642480E+04</pdfrwt>
<totfact> 0.76351766E-01</totfact>
</mgrwt>
</event>
<event>
11    1  0.1395636E-014  0.3162900E+04  0.7818608E-02  0.8198684E-01
          2   -1    0    0  501    0  0.00000000000E+00  0.00000000000E+00  0.12651887721E+04  0.12651887721E+04  0.00000000000E+00 0. -1.
         -2   -1    0    0    0  501 -0.00000000000E+00 -0.00000000000E+00 -0.19767674282E+04  0.19767674282E+04  0.00000000000E+00 0.  1.
    9900016    2    1    2    0    0 -0.43683363605E+03  0.57613928263E+03 -0.12457694307E+04  0.23430013171E+04  0.18479593066E+04 0.  0.
        -24    2    3    3    0    0 -0.12262661310E+03  0.52547983250E+02  0.36637853394E+03  0.39742270055E+03  0.76896007670E+02 0.  0.
        -15    1    4    4    0    0 -0.67946539363E+01  0.19784820947E+02  0.49260876999E+02  0.53518599241E+02  0.00000000000E+00 0.  1.
        -15    1    3    3    0    0  0.22889343087E+03  0.15924500580E+03 -0.10240651993E+04  0.10613485323E+04  0.00000000000E+00 0.  1.
         15    1    4    4    0    0 -0.32666905093E+02  0.83591640441E+00  0.37937527954E+02  0.50070764642E+02  0.00000000000E+00 0. -1.
         15    1    4    4    0    0 -0.25611652230E+02 -0.24948797921E+00  0.83799417676E+02  0.87626259632E+02  0.00000000000E+00 0. -1.
        -16    1    4    4    0    0 -0.57553401846E+02  0.32176733878E+02  0.19538071131E+03  0.20620707704E+03  0.00000000000E+00 0.  1.
         16    1    1    2    0    0  0.43683363605E+03 -0.57613928263E+03  0.53419077461E+03  0.89895488332E+03  0.00000000000E+00 0. -1.
    9900018    1    3    3    0    0 -0.54310045381E+03  0.36434629358E+03 -0.58808276535E+03  0.88423008424E+03  0.91187600000E+02 0.  0.
<mgrwt>
<rscale>  0 0.31628999E+04</rscale>
<asrwt>0</asrwt>
<pdfrwt beam="1">  1        2 0.19464443E+00 0.31628999E+04</pdfrwt>
<pdfrwt beam="2">  1       -2 0.30411806E+00 0.31628999E+04</pdfrwt>
<totfact> 0.43883179E-01</totfact>
</mgrwt>
</event>
<event>
12    1  0.1395636E-014  0.1897236E+04  0.7818608E-02  0.8656233E-01
          2   -1    0    0  501    0  0.00000000000E+00  0.00000000000E+00  0.12638237821E+04  0.12638237821E+04  0.00000000000E+00 0. -1.
         -2   -1    0    0    0  501 -0.00000000000E+00 -0.00000000000E+00 -0.71202646501E+03  0.71202646501E+03  0.00000000000E+00 0.  1.
    9900016    2    1    2    0    0  0.47341900120E+02  0.27814210864E+02  0.52814643300E+03  0.19160652143E+04  0.18410193820E+04 0.  0.
         24    2    3    3    0    0 -0.13038303274E+03 -0.30399900957E+03 -0.42281425106E+03  0.54259941189E+03  0.78911962575E+02 0.  0.
         24    2    4    4    0    0 -0.87779654831E+02 -0.24560428597E+03 -0.31161210314E+03  0.40939439006E+03  0.49748675330E+02 0.  0.
        -15    1    5    5    0    0 -0.92575365623E+01 -0.18585169532E+02 -0.80114649050E+01  0.22255203429E+02  0.00000000000E+00 0. -1.
        -15    1    4    4    0    0 -0.31734266729E+02 -0.47138240831E+02 -0.94871355760E+02  0.11058775510E+03  0.00000000000E+00 0.  1.
         15    1    4    4    0    0 -0.10869111176E+02 -0.11256482778E+02 -0.16330792162E+02  0.22617266743E+02  0.00000000000E+00 0.  1.
         15    1    3    3    0    0  0.42183536306E+03  0.36531772750E+03  0.96019232473E+03  0.11105725623E+04  0.00000000000E+00 0. -1.
        -16    1    1    2    0    0 -0.47341900120E+02 -0.27814210864E+02  0.23650884113E+02  0.59785032845E+02  0.00000000000E+00 0.  1.
         16    1    5    5    0    0 -0.78522118269E+02 -0.22701911643E+03 -0.30360063824E+03  0.38713918663E+03  0.00000000000E+00 0. -1.
    9900018    1    3    3    0    0 -0.24411043021E+03 -0.33504507059E+02 -0.92316406691E+01  0.26289324014E+03  0.91187600000E+02 0.  0.
<mgrwt>
<rscale>  0 0.18972359E+04</rscale>
<asrwt>0</asrwt>
<pdfrwt beam="1">  1        2 0.19443443E+00 0.18972359E+04</pdfrwt>
<pdfrwt beam="2">  1       -2 0.10954253E+00 0.18972359E+04</pdfrwt>
<totfact> 0.10794264E+01</totfact>
</mgrwt>
</event>
<event>
11    1  0.1395636E-014  0.2659181E+04  0.7818608E-02  0.8348372E-01
          1   -1    0    0  501    0  0.00000000000E+00  0.00000000000E+00  0.22034590971E+04  0.22034590971E+04  0.00000000000E+00 0. -1.
         -1   -1    0    0    0  501 -0.00000000000E+00 -0.00000000000E+00 -0.80228887063E+03  0.80228887063E+03  0.00000000000E+00 0.  1.
    9900016    2    1    2    0    0 -0.48527090175E+03 -0.46805192608E+03  0.10043681274E+04  0.22234357798E+04  0.18655698534E+04 0.  0.
         24    2    3    3    0    0  0.13130999775E+03  0.87438905709E+02 -0.32895024877E+03  0.37436223177E+03  0.83969855698E+02 0.  0.
        -15    1    4    4    0    0  0.10241823528E+02 -0.94329317725E+01 -0.23927120628E+02  0.27683609818E+02  0.00000000000E+00 0.  1.
        -15    1    4    4    0    0  0.23028266354E+02  0.28052999474E+02 -0.37171952182E+02  0.51952149713E+02  0.00000000000E+00 0. -1.
         15    1    3    3    0    0 -0.75471561438E+03 -0.27391231573E+03  0.48011058286E+03  0.93548371823E+03  0.00000000000E+00 0. -1.
         15    1    4    4    0    0  0.68755082899E+02  0.32810863073E+02 -0.15524088476E+03  0.17292641921E+03  0.00000000000E+00 0.  1.
        -16    1    1    2    0    0  0.48527090175E+03  0.46805192608E+03  0.39680209911E+03  0.78231218797E+03  0.00000000000E+00 0.  1.
         16    1    4    4    0    0  0.29284824965E+02  0.36007974935E+02 -0.11261029120E+03  0.12180005302E+03  0.00000000000E+00 0. -1.
    9900018    1    3    3    0    0  0.13813471489E+03 -0.28157851606E+03  0.85320779330E+03  0.91358982980E+03  0.91187600000E+02 0.  0.
<mgrwt>
<rscale>  0 0.26591809E+04</rscale>
<asrwt>0</asrwt>
<pdfrwt beam="1">  1        1 0.33899370E+00 0.26591809E+04</pdfrwt>
<pdfrwt beam="2">  1       -1 0.12342906E+00 0.26591809E+04</pdfrwt>
<totfact> 0.10961331E+00</totfact>
</mgrwt>
</event>
<event>
12    1  0.1395636E-014  0.2458957E+04  0.7818608E-02  0.8417755E-01
         -1   -1    0    0    0  501 -0.00000000000E+00  0.00000000000E+00  0.13948753016E+04  0.13948753016E+04  0.00000000000E+00 0.  1.
          1   -1    0    0  501    0  0.00000000000E+00 -0.00000000000E+00 -0.10836937178E+04  0.10836937178E+04  0.00000000000E+00 0. -1.
    9900016    2    1    2    0    0  0.45038013471E+03 -0.12495293201E+03  0.51800218888E+03  0.19674621189E+04  0.18395992555E+04 0.  0.
         24    2    3    3    0    0 -0.17228861269E+03  0.15005622016E+03  0.79828195413E+03  0.83411413607E+03  0.79322622427E+02 0.  0.
         24    2    4    4    0    0 -0.10930945326E+03  0.89687119136E+02  0.50556071550E+03  0.52761708079E+03  0.52875428910E+02 0.  0.
        -15    1    5    5    0    0  0.54954555113E+01  0.90146281685E+01  0.31096777680E+02  0.32840114713E+02  0.00000000000E+00 0. -1.
        -15    1    4    4    0    0 -0.41177041961E+02  0.46584110111E+02  0.23822028833E+03  0.24620019064E+03  0.00000000000E+00 0.  1.
         15    1    3    3    0    0  0.15319380530E+03 -0.28033679526E+03 -0.51075474507E+03  0.60243461917E+03  0.00000000000E+00 0. -1.
         15    1    4    4    0    0 -0.21802117468E+02  0.13784990913E+02  0.54500950305E+02  0.60296864634E+02  0.00000000000E+00 0.  1.
        -16    1    1    2    0    0 -0.45038013471E+03  0.12495293201E+03 -0.20682060508E+03  0.51110690041E+03  0.00000000000E+00 0.  1.
         16    1    5    5    0    0 -0.11480490877E+03  0.80672490968E+02  0.47446393782E+03  0.49477696608E+03  0.00000000000E+00 0. -1.
    9900018    1    3    3    0    0  0.46947494209E+03  0.53276430973E+01  0.23047497982E+03  0.53091336370E+03  0.91187600000E+02 0.  0.
<mgrwt>
<rscale>  0 0.24589572E+04</rscale>
<asrwt>0</asrwt>
<pdfrwt beam="1">  1        1 0.16672211E+00 0.24589572E+04</pdfrwt>
<pdfrwt beam="2">  1       -1 0.21459620E+00 0.24589572E+04</pdfrwt>
<totfact> 0.13915841E+00</totfact>
</mgrwt>
</event>
<event>
12    1  0.1395636E-014  0.2571387E+04  0.7818608E-02  0.8377986E-01
          1   -1    0    0  501    0  0.00000000000E+00  0.00000000000E+00  0.27242739535E+04  0.27242739535E+04  0.00000000000E+00 0. -1.
         -1   -1    0    0    0  501 -0.00000000000E+00 -0.00000000000E+00 -0.60677018405E+03  0.60677018405E+03  0.00000000000E+00 0.  1.
    9900016    2    1    2    0    0  0.24438026710E+03  0.52482305184E+03  0.12946149796E+04  0.23249094989E+04  0.18422853421E+04 0.  0.
        -24    2    3    3    0    0  0.24364404216E+03  0.47782251223E+03  0.13756374318E+04  0.14786220631E+04  0.79171265158E+02 0.  0.
        -24    2    4    4    0    0  0.23142746031E+03  0.45897857142E+03  0.13263641929E+04  0.14236673546E+04  0.58023839391E+02 0.  0.
        -15    1    4    4    0    0  0.10554429940E+02  0.85471410722E+01  0.32210237782E+02  0.34956387540E+02  0.00000000000E+00 0. -1.
        -15    1    3    3    0    0 -0.18261172504E+03  0.31150969971E+03  0.19699245670E+03  0.41132877742E+03  0.00000000000E+00 0.  1.
         15    1    4    4    0    0  0.16621519047E+01  0.10296799734E+02  0.17063001099E+02  0.19998320935E+02  0.00000000000E+00 0.  1.
         15    1    5    5    0    0  0.14137419399E+03  0.31578350354E+03  0.82809143039E+03  0.89746381594E+03  0.00000000000E+00 0. -1.
        -16    1    5    5    0    0  0.90053266323E+02  0.14319506788E+03  0.49827276249E+03  0.52620353864E+03  0.00000000000E+00 0.  1.
         16    1    1    2    0    0 -0.24438026710E+03 -0.52482305184E+03  0.82288878982E+03  0.10061346387E+04  0.00000000000E+00 0. -1.
    9900018    1    3    3    0    0  0.18334794999E+03 -0.26450916010E+03 -0.27801490888E+03  0.43495865837E+03  0.91187600000E+02 0.  0.
<mgrwt>
<rscale>  0 0.25713873E+04</rscale>
<asrwt>0</asrwt>
<pdfrwt beam="1">  1        1 0.41911906E+00 0.25713873E+04</pdfrwt>
<pdfrwt beam="2">  1       -1 0.93349261E-01 0.25713873E+04</pdfrwt>
<totfact> 0.92727851E-01</totfact>
</mgrwt>
</event>
<event>
11    1  0.1395636E-014  0.2473482E+04  0.7818608E-02  0.8412494E-01
         -2   -1    0    0    0  501 -0.00000000000E+00  0.00000000000E+00  0.63145921122E+03  0.63145921122E+03  0.00000000000E+00 0. -1.
          2   -1    0    0  501    0  0.00000000000E+00 -0.00000000000E+00 -0.24222114334E+04  0.24222114334E+04  0.00000000000E+00 0.  1.
    9900016    2    1    2    0    0 -0.16106842744E+03  0.72532013652E+02 -0.20360911475E+04  0.27513543870E+04  0.18420314522E+04 0.  0.
        -24    2    3    3    0    0  0.13414873488E+03 -0.84384549068E+02 -0.20456182521E+02  0.17877545621E+03  0.80159672830E+02 0.  0.
        -15    1    4    4    0    0  0.38830413706E+02 -0.25882105829E+02 -0.12239402806E+02  0.48244040169E+02  0.00000000000E+00 0.  1.
        -15    1    3    3    0    0 -0.61247394822E+03 -0.49224288986E+03 -0.14546018959E+04  0.16532676962E+04  0.00000000000E+00 0.  1.
         15    1    4    4    0    0  0.47450915022E+01 -0.10290710165E+02 -0.84590415241E+01  0.14141074661E+02  0.00000000000E+00 0. -1.
         15    1    4    4    0    0  0.56425884282E+02 -0.54137225231E+02  0.13366707133E+02  0.79330879438E+02  0.00000000000E+00 0. -1.
        -16    1    4    4    0    0  0.34147345386E+02  0.59254921567E+01 -0.13124445324E+02  0.37059461940E+02  0.00000000000E+00 0.  1.
         16    1    1    2    0    0  0.16106842744E+03 -0.72532013652E+02  0.24533892531E+03  0.30231625758E+03  0.00000000000E+00 0. -1.
    9900018    1    3    3    0    0  0.31725678590E+03  0.64915945258E+03 -0.56103306907E+03  0.91931123460E+03  0.91187600000E+02 0.  0.
<mgrwt>
<rscale>  0 0.24734815E+04</rscale>
<asrwt>0</asrwt>
<pdfrwt beam="1">  1        2 0.37264792E+00 0.24734815E+04</pdfrwt>
<pdfrwt beam="2">  1       -2 0.97147570E-01 0.24734815E+04</pdfrwt>
<totfact> 0.30511844E+00</totfact>
</mgrwt>
</event>
<event>
11    1  0.1395636E-014  0.3038989E+04  0.7818608E-02  0.8232684E-01
          2   -1    0    0  501    0  0.00000000000E+00  0.00000000000E+00  0.23989375734E+04  0.23989375734E+04  0.00000000000E+00 0.  1.
         -2   -1    0    0    0  501 -0.00000000000E+00 -0.00000000000E+00 -0.96245268305E+03  0.96245268305E+03  0.00000000000E+00 0. -1.
    9900016    2    1    2    0    0 -0.41476229879E+03  0.30328618810E+03  0.18765535950E+04  0.26848765898E+04  0.18501617850E+04 0.  0.
        -24    2    3    3    0    0  0.14734556167E+03  0.15584386060E+03 -0.32521079735E+03  0.39775009988E+03  0.80281104968E+02 0.  0.
        -15    1    4    4    0    0  0.65592032200E+02  0.60570921319E+02 -0.14132344565E+03  0.16716299677E+03  0.00000000000E+00 0.  1.
        -15    1    3    3    0    0 -0.80942861651E+02  0.97153163616E+02  0.47714342632E+03  0.49361557242E+03  0.00000000000E+00 0.  1.
         15    1    4    4    0    0  0.43924363745E+02  0.68526300305E+02 -0.85262266552E+02  0.11787645084E+03  0.00000000000E+00 0. -1.
         15    1    4    4    0    0  0.11008704411E+02  0.51907729707E+01 -0.53572389152E+01  0.13297958702E+02  0.00000000000E+00 0. -1.
        -16    1    4    4    0    0  0.26820461315E+02  0.21555866005E+02 -0.93267846228E+02  0.99412693577E+02  0.00000000000E+00 0.  1.
         16    1    1    2    0    0  0.41476229879E+03 -0.30328618810E+03 -0.44006870468E+03  0.67651366670E+03  0.00000000000E+00 0. -1.
    9900018    1    3    3    0    0 -0.48116499881E+03  0.50289163880E+02  0.17246209660E+04  0.17935109175E+04  0.91187600000E+02 0.  0.
<mgrwt>
<rscale>  0 0.30389892E+04</rscale>
<asrwt>0</asrwt>
<pdfrwt beam="1">  1        2 0.36906732E+00 0.30389892E+04</pdfrwt>
<pdfrwt beam="2">  1       -2 0.14806964E+00 0.30389892E+04</pdfrwt>
<totfact> 0.10531752E+00</totfact>
</mgrwt>
</event>
<event>
12    1  0.1395636E-014  0.3307060E+04  0.7818608E-02  0.8161101E-01
         -2   -1    0    0    0  501 -0.00000000000E+00  0.00000000000E+00  0.20346561411E+04  0.20346561411E+04  0.00000000000E+00 0.  1.
          2   -1    0    0  501    0  0.00000000000E+00 -0.00000000000E+00 -0.13437954032E+04  0.13437954032E+04  0.00000000000E+00 0. -1.
    9900016    2    1    2    0    0  0.32084715297E+03  0.10229604184E+04  0.65942371372E+02  0.21375188798E+04  0.18480388664E+04 0.  0.
         24    2    3    3    0    0 -0.64513567216E+02 -0.13893826216E+03 -0.40561828009E+02  0.17822994784E+03  0.81577027215E+02 0.  0.
         24    2    4    4    0    0 -0.23455906393E+02 -0.68056199294E+02 -0.24672079169E+02  0.92799473167E+02  0.53115015980E+02 0.  0.
        -15    1    5    5    0    0 -0.22490914404E+02 -0.90940026398E+01 -0.23562223982E+02  0.33818937205E+02  0.00000000000E+00 0.  1.
        -15    1    4    4    0    0 -0.21838412016E+02 -0.52213777690E+02 -0.15309440577E+02  0.58630826285E+02  0.00000000000E+00 0.  1.
         15    1    4    4    0    0 -0.19219248807E+02 -0.18668285173E+02 -0.58030826392E+00  0.26799648387E+02  0.00000000000E+00 0. -1.
         15    1    3    3    0    0 -0.19872818750E+03  0.11577148243E+04  0.47012604674E+03  0.12652331827E+04  0.00000000000E+00 0. -1.
        -16    1    1    2    0    0 -0.32084715297E+03 -0.10229604184E+04  0.62491836653E+03  0.12409326646E+04  0.00000000000E+00 0.  1.
         16    1    5    5    0    0 -0.96499198949E+00 -0.58962196654E+02 -0.11098551868E+01  0.58980535962E+02  0.00000000000E+00 0. -1.
    9900018    1    3    3    0    0  0.58408890769E+03  0.41838563061E+01 -0.36362184736E+03  0.69405574921E+03  0.91187600000E+02 0.  0.
<mgrwt>
<rscale>  0 0.33070601E+04</rscale>
<asrwt>0</asrwt>
<pdfrwt beam="1">  1        2 0.20673775E+00 0.33070601E+04</pdfrwt>
<pdfrwt beam="2">  1       -2 0.31302402E+00 0.33070601E+04</pdfrwt>
<totfact> 0.34398987E-01</totfact>
</mgrwt>
</event>
<event>
11    1  0.1395636E-014  0.2587872E+04  0.7818608E-02  0.8372332E-01
         -2   -1    0    0    0  501 -0.00000000000E+00  0.00000000000E+00  0.50420372168E+03  0.50420372168E+03  0.00000000000E+00 0.  1.
          2   -1    0    0  501    0  0.00000000000E+00 -0.00000000000E+00 -0.33206237706E+04  0.33206237706E+04  0.00000000000E+00 0. -1.
    9900016    2    1    2    0    0  0.41757818357E+03  0.40558650858E+03 -0.25069029486E+04  0.31655302978E+04  0.18431352954E+04 0.  0.
         24    2    3    3    0    0  0.22747366817E+03 -0.25672752201E+02  0.21569277449E+03  0.32242955048E+03  0.70951265957E+02 0.  0.
        -15    1    4    4    0    0  0.58415917466E+02  0.59691320101E+01  0.45349475621E+02  0.74193159317E+02  0.00000000000E+00 0.  1.
        -15    1    4    4    0    0  0.18301937066E+02 -0.17544382799E+02  0.26114728606E+02  0.36397050956E+02  0.00000000000E+00 0. -1.
         15    1    4    4    0    0  0.82323256456E+02 -0.24607994073E+02  0.80160499307E+02  0.11750905316E+03  0.00000000000E+00 0.  1.
         15    1    3    3    0    0  0.24423560739E+03  0.35365823496E+02 -0.31145154239E+03  0.39737115729E+03  0.00000000000E+00 0. -1.
        -16    1    1    2    0    0 -0.41757818357E+03 -0.40558650858E+03 -0.30951710033E+03  0.65929719454E+03  0.00000000000E+00 0.  1.
         16    1    4    4    0    0  0.68432557183E+02  0.10510492660E+02  0.64068070957E+02  0.94330287048E+02  0.00000000000E+00 0. -1.
    9900018    1    3    3    0    0 -0.54131091992E+02  0.39589343728E+03 -0.24111441807E+04  0.24457295900E+04  0.91187600000E+02 0.  0.
<mgrwt>
<rscale>  0 0.25878724E+04</rscale>
<asrwt>0</asrwt>
<pdfrwt beam="1">  1        2 0.51086520E+00 0.25878724E+04</pdfrwt>
<pdfrwt beam="2">  1       -2 0.77569803E-01 0.25878724E+04</pdfrwt>
<totfact> 0.14158427E+00</totfact>
</mgrwt>
</event>
<event>
11    1  0.1395636E-014  0.1980763E+04  0.7818608E-02  0.8615668E-01
         -2   -1    0    0    0  501 -0.00000000000E+00  0.00000000000E+00  0.32486731482E+03  0.32486731482E+03  0.00000000000E+00 0.  1.
          2   -1    0    0  501    0  0.00000000000E+00 -0.00000000000E+00 -0.30192508167E+04  0.30192508167E+04  0.00000000000E+00 0. -1.
    9900016    2    1    2    0    0 -0.99851593183E+00  0.16740734148E+03 -0.24470234737E+04  0.30454323459E+04  0.18051892082E+04 0.  0.
         24    2    3    3    0    0  0.28748959521E+03  0.46548668778E+02  0.95707188986E+02  0.31641052995E+03  0.78349929964E+02 0.  0.
        -15    1    4    4    0    0  0.27146474871E+02 -0.42234361420E+01  0.21538580160E+02  0.34909582439E+02  0.00000000000E+00 0.  1.
        -15    1    4    4    0    0  0.11141428320E+02 -0.79901466089E+01  0.61361512757E+01  0.15020859507E+02  0.00000000000E+00 0. -1.
         15    1    4    4    0    0  0.11066679603E+03  0.20011655284E+02  0.43340437459E+02  0.12052385495E+03  0.00000000000E+00 0.  1.
         15    1    3    3    0    0 -0.23861592739E+03  0.86721894101E+02 -0.83362725026E+02  0.26722198945E+03  0.00000000000E+00 0. -1.
        -16    1    1    2    0    0  0.99851593183E+00 -0.16740734148E+03 -0.24736002816E+03  0.29868578565E+03  0.00000000000E+00 0.  1.
         16    1    4    4    0    0  0.13853489598E+03  0.38750596245E+02  0.24692020091E+02  0.14595623306E+03  0.00000000000E+00 0. -1.
    9900018    1    3    3    0    0 -0.49872183747E+02  0.34136778603E+02 -0.24593679377E+04  0.24617998265E+04  0.91187600000E+02 0.  0.
<mgrwt>
<rscale>  0 0.19807634E+04</rscale>
<asrwt>0</asrwt>
<pdfrwt beam="1">  1        2 0.46450014E+00 0.19807634E+04</pdfrwt>
<pdfrwt beam="2">  1       -2 0.49979586E-01 0.19807634E+04</pdfrwt>
<totfact> 0.59832544E+00</totfact>
</mgrwt>
</event>
<event>
11    1  0.1395636E-014  0.3085815E+04  0.7818608E-02  0.8219642E-01
         -2   -1    0    0    0  501 -0.00000000000E+00  0.00000000000E+00  0.12334055247E+04  0.12334055247E+04  0.00000000000E+00 0.  1.
          2   -1    0    0  501    0  0.00000000000E+00 -0.00000000000E+00 -0.19300731935E+04  0.19300731935E+04  0.00000000000E+00 0. -1.
    9900016    2    1    2    0    0  0.83029685215E+03 -0.42620604525E+03 -0.14005222733E+03  0.20768024990E+04  0.18499863615E+04 0.  0.
         24    2    3    3    0    0 -0.33432415699E+03 -0.28774394250E+03  0.40406853746E+03  0.60290752119E+03  0.75212218106E+02 0.  0.
        -15    1    4    4    0    0 -0.21110034594E+03 -0.16359391712E+03  0.24179470383E+03  0.36026518646E+03  0.00000000000E+00 0.  1.
        -15    1    4    4    0    0 -0.13845565963E+02 -0.40988284067E+01  0.98647138209E+01  0.17487500390E+02  0.00000000000E+00 0. -1.
         15    1    3    3    0    0  0.10400500256E+04 -0.35839265226E+03 -0.41460213075E+03  0.11756037920E+04  0.00000000000E+00 0. -1.
         15    1    4    4    0    0 -0.12938333458E+02 -0.29336230512E+01  0.18705616343E+02  0.22932655748E+02  0.00000000000E+00 0.  1.
        -16    1    1    2    0    0 -0.83029685215E+03  0.42620604525E+03 -0.55661544155E+03  0.10866762192E+04  0.00000000000E+00 0.  1.
         16    1    4    4    0    0 -0.96439911628E+02 -0.11711757392E+03  0.13370350347E+03  0.20222217859E+03  0.00000000000E+00 0. -1.
    9900018    1    3    3    0    0  0.12457098355E+03  0.21993054951E+03 -0.12951863404E+03  0.29829118577E+03  0.91187600000E+02 0.  0.
<mgrwt>
<rscale>  0 0.30858146E+04</rscale>
<asrwt>0</asrwt>
<pdfrwt beam="1">  1        2 0.29693434E+00 0.30858146E+04</pdfrwt>
<pdfrwt beam="2">  1       -2 0.18975470E+00 0.30858146E+04</pdfrwt>
<totfact> 0.96646039E-01</totfact>
</mgrwt>
</event>
<event>
11    1  0.1395636E-014  0.2786392E+04  0.7818608E-02  0.8307506E-01
         -1   -1    0    0    0  501 -0.00000000000E+00  0.00000000000E+00  0.15152539695E+04  0.15152539695E+04  0.00000000000E+00 0.  1.
          1   -1    0    0  501    0  0.00000000000E+00 -0.00000000000E+00 -0.12809703576E+04  0.12809703576E+04  0.00000000000E+00 0. -1.
    9900016    2    1    2    0    0  0.41941306920E+03 -0.51603097558E+03 -0.24029491696E+03  0.19792665127E+04  0.18486641097E+04 0.  0.
        -24    2    3    3    0    0  0.11136162405E+03  0.39642955804E+02  0.41743809127E+03  0.44024979364E+03  0.74781986469E+02 0.  0.
        -15    1    4    4    0    0  0.48119268095E+02  0.24515903601E+02  0.13588868772E+03  0.14622663554E+03  0.00000000000E+00 0. -1.
        -15    1    3    3    0    0 -0.29297884142E+03 -0.28426603363E+03 -0.76267446613E+03  0.86505266931E+03  0.00000000000E+00 0.  1.
         15    1    4    4    0    0  0.44336772572E+02  0.46327613006E+01  0.21860683321E+03  0.22310571352E+03  0.00000000000E+00 0.  1.
         15    1    4    4    0    0  0.79760782732E+01 -0.77701328418E+01  0.25955692837E+02  0.28243420112E+02  0.00000000000E+00 0. -1.
        -16    1    4    4    0    0  0.10929505115E+02  0.18264423744E+02  0.36986877504E+02  0.42674024467E+02  0.00000000000E+00 0.  1.
         16    1    1    2    0    0 -0.41941306920E+03  0.51603097558E+03  0.47457852888E+03  0.81695781436E+03  0.00000000000E+00 0. -1.
    9900018    1    3    3    0    0  0.60103028656E+03 -0.27140789775E+03  0.10494145790E+03  0.67396404971E+03  0.91187600000E+02 0.  0.
<mgrwt>
<rscale>  0 0.27863922E+04</rscale>
<asrwt>0</asrwt>
<pdfrwt beam="1">  1        1 0.19707236E+00 0.27863922E+04</pdfrwt>
<pdfrwt beam="2">  1       -1 0.23311599E+00 0.27863922E+04</pdfrwt>
<totfact> 0.72820665E-01</totfact>
</mgrwt>
</event>
<event>
11    1  0.1395636E-014  0.3189076E+04  0.7818608E-02  0.8191708E-01
         -2   -1    0    0    0  501 -0.00000000000E+00  0.00000000000E+00  0.19509904059E+04  0.19509904059E+04  0.00000000000E+00 0.  1.
          2   -1    0    0  501    0  0.00000000000E+00 -0.00000000000E+00 -0.13032104637E+04  0.13032104637E+04  0.00000000000E+00 0. -1.
    9900016    2    1    2    0    0  0.19976253590E+03  0.91742325781E+03 -0.80642895740E+02  0.20658531361E+04  0.18383893491E+04 0.  0.
         24    2    3    3    0    0  0.74589835838E+01  0.27587815582E+03  0.53019612039E+03  0.60335157001E+03  0.82224069885E+02 0.  0.
        -15    1    4    4    0    0  0.27748516283E+02  0.65973810116E+02  0.14596192620E+03  0.16256508751E+03  0.00000000000E+00 0.  1.
        -15    1    4    4    0    0  0.36807299607E+01  0.15930985060E+02  0.15592110424E+02  0.22593316833E+02  0.00000000000E+00 0.  1.
         15    1    4    4    0    0 -0.78967289772E+01  0.14363716458E+03  0.28522747596E+03  0.31945063221E+03  0.00000000000E+00 0. -1.
         15    1    3    3    0    0 -0.37794127019E+03 -0.35296685290E+02  0.63971209716E+01  0.37963980674E+03  0.00000000000E+00 0. -1.
        -16    1    1    2    0    0 -0.19976253590E+03 -0.91742325781E+03  0.72842283793E+03  0.11883477334E+04  0.00000000000E+00 0.  1.
         16    1    4    4    0    0 -0.16073533683E+02  0.50336196057E+02  0.83414607815E+02  0.98742533466E+02  0.00000000000E+00 0. -1.
    9900018    1    3    3    0    0  0.57024482251E+03  0.67684178728E+03 -0.61723613710E+03  0.10828617594E+04  0.91187600000E+02 0.  0.
<mgrwt>
<rscale>  0 0.31890758E+04</rscale>
<asrwt>0</asrwt>
<pdfrwt beam="1">  1        2 0.20049392E+00 0.31890758E+04</pdfrwt>
<pdfrwt beam="2">  1       -2 0.30015237E+00 0.31890758E+04</pdfrwt>
<totfact> 0.43994081E-01</totfact>
</mgrwt>
</event>
<event>
11    1  0.1395636E-014  0.2768974E+04  0.7818608E-02  0.8312966E-01
         -2   -1    0    0    0  501 -0.00000000000E+00  0.00000000000E+00  0.10935785356E+04  0.10935785356E+04  0.00000000000E+00 0.  1.
          2   -1    0    0  501    0  0.00000000000E+00 -0.00000000000E+00 -0.17527811925E+04  0.17527811925E+04  0.00000000000E+00 0. -1.
    9900016    2    1    2    0    0 -0.22053700933E+02  0.16013833985E+03 -0.12446446307E+04  0.22390106043E+04  0.18541568369E+04 0.  0.
         24    2    3    3    0    0  0.28617284833E+03  0.13036604343E+03  0.29828056900E+03  0.44097912795E+03  0.81247086339E+02 0.  0.
        -15    1    4    4    0    0  0.20456037372E+02  0.22142721864E+02  0.32517965962E+02  0.44341489678E+02  0.00000000000E+00 0.  1.
        -15    1    4    4    0    0  0.10549798384E+03  0.62159756429E+02  0.80841224684E+02  0.14672751453E+03  0.00000000000E+00 0.  1.
         15    1    4    4    0    0  0.71174036640E+02  0.11502656997E+02  0.89061893484E+02  0.11458654145E+03  0.00000000000E+00 0. -1.
         15    1    3    3    0    0 -0.33380798582E+03 -0.35194511409E+03 -0.11198346805E+04  0.12203781571E+04  0.00000000000E+00 0. -1.
        -16    1    1    2    0    0  0.22053700933E+02 -0.16013833985E+03  0.58544197370E+03  0.60734912380E+03  0.00000000000E+00 0.  1.
         16    1    4    4    0    0  0.89044790487E+02  0.34560908137E+02  0.95859484875E+02  0.13532358229E+03  0.00000000000E+00 0. -1.
    9900018    1    3    3    0    0  0.25581436551E+02  0.38171741052E+03 -0.42309051918E+03  0.57765331922E+03  0.91187600000E+02 0.  0.
<mgrwt>
<rscale>  0 0.27689737E+04</rscale>
<asrwt>0</asrwt>
<pdfrwt beam="1">  1        2 0.26965864E+00 0.27689737E+04</pdfrwt>
<pdfrwt beam="2">  1       -2 0.16824285E+00 0.27689737E+04</pdfrwt>
<totfact> 0.17544682E+00</totfact>
</mgrwt>
</event>
<event>
12    1  0.1395636E-014  0.2342923E+04  0.7818608E-02  0.8461187E-01
         -1   -1    0    0    0  501 -0.00000000000E+00  0.00000000000E+00  0.22134072392E+04  0.22134072392E+04  0.00000000000E+00 0.  1.
          1   -1    0    0  501    0  0.00000000000E+00 -0.00000000000E+00 -0.62000444239E+03  0.62000444239E+03  0.00000000000E+00 0. -1.
    9900016    2    1    2    0    0 -0.29063440922E+03 -0.15124385810E+03  0.16609916657E+04  0.24988801889E+04  0.18379787323E+04 0.  0.
        -24    2    3    3    0    0  0.61657237954E+01 -0.14650754965E+03 -0.33271575973E+03  0.37287183208E+03  0.82650760034E+02 0.  0.
        -24    2    4    4    0    0  0.17569465330E+02 -0.92055027386E+02 -0.22204957609E+03  0.24660046609E+03  0.52182003171E+02 0.  0.
        -15    1    4    4    0    0  0.41224994710E+01 -0.13954297183E+02 -0.47266396796E+02  0.49455330126E+02  0.00000000000E+00 0. -1.
        -15    1    3    3    0    0 -0.50074935380E+03  0.56740875375E+02  0.14460888010E+04  0.15313857328E+04  0.00000000000E+00 0.  1.
         15    1    4    4    0    0 -0.15526241005E+02 -0.40498225086E+02 -0.63399786839E+02  0.76816035866E+02  0.00000000000E+00 0.  1.
         15    1    5    5    0    0 -0.75791584207E+01 -0.25051450581E+02 -0.11423158051E+03  0.11719160723E+03  0.00000000000E+00 0. -1.
        -16    1    5    5    0    0  0.25148623750E+02 -0.67003576805E+02 -0.10781799558E+03  0.12940885886E+03  0.00000000000E+00 0.  1.
         16    1    1    2    0    0  0.29063440922E+03  0.15124385810E+03 -0.67588868821E+02  0.33453149273E+03  0.00000000000E+00 0. -1.
    9900018    1    3    3    0    0  0.20394922078E+03 -0.61477183822E+02  0.54761862439E+03  0.59462262399E+03  0.91187600000E+02 0.  0.
<mgrwt>
<rscale>  0 0.23429232E+04</rscale>
<asrwt>0</asrwt>
<pdfrwt beam="1">  1        1 0.95385300E-01 0.23429232E+04</pdfrwt>
<pdfrwt beam="2">  1       -1 0.34052419E+00 0.23429232E+04</pdfrwt>
<totfact> 0.52810395E-01</totfact>
</mgrwt>
</event>
<event>
12    1  0.1395636E-014  0.2180540E+04  0.7818608E-02  0.8526572E-01
         -2   -1    0    0    0  501 -0.00000000000E+00  0.00000000000E+00  0.41260487364E+03  0.41260487364E+03  0.00000000000E+00 0.  1.
          2   -1    0    0  501    0  0.00000000000E+00 -0.00000000000E+00 -0.28809369825E+04  0.28809369825E+04  0.00000000000E+00 0. -1.
    9900016    2    1    2    0    0  0.80198778014E+02 -0.21329173081E+03 -0.24401827382E+04  0.30639387344E+04  0.18388321201E+04 0.  0.
         24    2    3    3    0    0 -0.24136159420E+03 -0.27408917867E+03 -0.41562678466E+03  0.55901788303E+03  0.79844050507E+02 0.  0.
         24    2    4    4    0    0 -0.17854295258E+03 -0.20132249128E+03 -0.30935129593E+03  0.41345803129E+03  0.53300918638E+02 0.  0.
        -15    1    5    5    0    0 -0.13658090694E+02 -0.56227946905E-01 -0.21244674819E+02  0.25256341998E+02  0.00000000000E+00 0. -1.
        -15    1    4    4    0    0 -0.19772349667E+02 -0.12080506568E+02 -0.38393780533E+02  0.44843804856E+02  0.00000000000E+00 0.  1.
         15    1    4    4    0    0 -0.43046291957E+02 -0.60686180821E+02 -0.67881708197E+02  0.10071604689E+03  0.00000000000E+00 0.  1.
         15    1    3    3    0    0 -0.24306449829E+03  0.61507261130E+03 -0.73047823427E+03  0.98538983059E+03  0.00000000000E+00 0. -1.
        -16    1    1    2    0    0 -0.80198778014E+02  0.21329173081E+03 -0.28149370605E+02  0.22960312169E+03  0.00000000000E+00 0.  1.
         16    1    5    5    0    0 -0.16488486189E+03 -0.20126626333E+03 -0.28810662111E+03  0.38820168929E+03  0.00000000000E+00 0. -1.
    9900018    1    3    3    0    0  0.56462487050E+03 -0.55427516343E+03 -0.12940777193E+04  0.15195310208E+04  0.91187600000E+02 0.  0.
<mgrwt>
<rscale>  0 0.21805400E+04</rscale>
<asrwt>0</asrwt>
<pdfrwt beam="1">  1        2 0.44322105E+00 0.21805400E+04</pdfrwt>
<pdfrwt beam="2">  1       -2 0.63477677E-01 0.21805400E+04</pdfrwt>
<totfact> 0.43448286E+00</totfact>
</mgrwt>
</event>
<event>
11    1  0.1395636E-014  0.2226777E+04  0.7818608E-02  0.8507365E-01
          2   -1    0    0  501    0  0.00000000000E+00  0.00000000000E+00  0.19185478394E+04  0.19185478394E+04  0.00000000000E+00 0. -1.
         -2   -1    0    0    0  501 -0.00000000000E+00 -0.00000000000E+00 -0.64613144625E+03  0.64613144625E+03  0.00000000000E+00 0.  1.
    9900016    2    1    2    0    0 -0.22576519642E+03 -0.22565889278E+03  0.90530823132E+03  0.20782018840E+04  0.18432168123E+04 0.  0.
        -24    2    3    3    0    0  0.74534907947E+02 -0.14324125756E+03 -0.25231216614E+03  0.30966294821E+03  0.78461467873E+02 0.  0.
        -15    1    4    4    0    0  0.33285732484E+02 -0.26095615361E+02 -0.83613650667E+02  0.93702527745E+02  0.00000000000E+00 0. -1.
        -15    1    3    3    0    0  0.34600600517E+03  0.39736485128E+03  0.44804076678E+03  0.69163538758E+03  0.00000000000E+00 0.  1.
         15    1    4    4    0    0  0.16494857058E+00 -0.19933157774E+02 -0.28709060016E+02  0.34950938670E+02  0.00000000000E+00 0. -1.
         15    1    4    4    0    0  0.41957822576E+02 -0.70165976993E+02 -0.12688673335E+03  0.15094358649E+03  0.00000000000E+00 0.  1.
        -16    1    4    4    0    0 -0.87359568355E+00 -0.27046507428E+02 -0.13102722103E+02  0.30065895297E+02  0.00000000000E+00 0.  1.
         16    1    1    2    0    0  0.22576519642E+03  0.22565889278E+03  0.36710816185E+03  0.48647740164E+03  0.00000000000E+00 0. -1.
    9900018    1    3    3    0    0 -0.64630610954E+03 -0.47978248651E+03  0.70957963068E+03  0.10769035483E+04  0.91187600000E+02 0.  0.
<mgrwt>
<rscale>  0 0.22267771E+04</rscale>
<asrwt>0</asrwt>
<pdfrwt beam="1">  1        2 0.29516120E+00 0.22267771E+04</pdfrwt>
<pdfrwt beam="2">  1       -2 0.99404839E-01 0.22267771E+04</pdfrwt>
<totfact> 0.56657561E+00</totfact>
</mgrwt>
</event>
<event>
11    1  0.1395636E-014  0.2038196E+04  0.7818608E-02  0.8588968E-01
         -2   -1    0    0    0  501 -0.00000000000E+00  0.00000000000E+00  0.85127502917E+03  0.85127502917E+03  0.00000000000E+00 0. -1.
          2   -1    0    0  501    0  0.00000000000E+00 -0.00000000000E+00 -0.12200063869E+04  0.12200063869E+04  0.00000000000E+00 0.  1.
    9900016    2    1    2    0    0 -0.39197815605E+02 -0.20380972729E+02 -0.51856153363E+03  0.19150734315E+04  0.18429998186E+04 0.  0.
        -24    2    3    3    0    0  0.16806500039E+03  0.22581943116E+03 -0.24804621724E+03  0.38350727730E+03  0.79439574621E+02 0.  0.
        -15    1    4    4    0    0  0.11616805954E+02  0.48964629356E+02 -0.31290916398E+02  0.59258809957E+02  0.00000000000E+00 0.  1.
        -15    1    3    3    0    0 -0.21377283544E+03  0.70967941437E+02  0.57841385325E+03  0.62072365793E+03  0.00000000000E+00 0.  1.
         15    1    4    4    0    0  0.27533465346E+02  0.15381835459E+02 -0.15202932386E+02  0.35011737020E+02  0.00000000000E+00 0. -1.
         15    1    4    4    0    0  0.48994745713E+02  0.76049247611E+02 -0.88514610890E+02  0.12656543569E+03  0.00000000000E+00 0. -1.
        -16    1    4    4    0    0  0.79919983381E+02  0.85423718729E+02 -0.11303775756E+03  0.16267129464E+03  0.00000000000E+00 0.  1.
         16    1    1    2    0    0  0.39197815605E+02  0.20380972729E+02  0.14983017593E+03  0.15620798448E+03  0.00000000000E+00 0. -1.
    9900018    1    3    3    0    0  0.65100194424E+01 -0.31716834532E+03 -0.84892916964E+03  0.91084249631E+03  0.91187600000E+02 0.  0.
<mgrwt>
<rscale>  0 0.20381962E+04</rscale>
<asrwt>0</asrwt>
<pdfrwt beam="1">  1        2 0.18769329E+00 0.20381962E+04</pdfrwt>
<pdfrwt beam="2">  1       -2 0.13096539E+00 0.20381962E+04</pdfrwt>
<totfact> 0.72754659E+00</totfact>
</mgrwt>
</event>
<event>
11    1  0.1395636E-014  0.2739378E+04  0.7818608E-02  0.8322340E-01
          2   -1    0    0  501    0  0.00000000000E+00  0.00000000000E+00  0.13312905529E+04  0.13312905529E+04  0.00000000000E+00 0. -1.
         -2   -1    0    0    0  501 -0.00000000000E+00 -0.00000000000E+00 -0.14091949252E+04  0.14091949252E+04  0.00000000000E+00 0.  1.
    9900016    2    1    2    0    0  0.66515995268E+03  0.31541783283E+03  0.65232981998E+02  0.19905424976E+04  0.18482634879E+04 0.  0.
        -24    2    3    3    0    0 -0.32829787172E+03 -0.15686462000E+03  0.13388234061E+03  0.39587952143E+03  0.80063179905E+02 0.  0.
        -15    1    4    4    0    0 -0.14643880138E+02 -0.38309223124E+01  0.17621206254E+02  0.23229853661E+02  0.00000000000E+00 0.  1.
        -15    1    3    3    0    0  0.11014032994E+04  0.90297472379E+01  0.23302051254E+02  0.11016867749E+04  0.00000000000E+00 0.  1.
         15    1    4    4    0    0 -0.28402154562E+02 -0.27745908879E+02  0.22749069194E+02  0.45760659878E+02  0.00000000000E+00 0. -1.
         15    1    4    4    0    0 -0.26012620644E+02 -0.21005503419E+02  0.51905160283E+01  0.33835322716E+02  0.00000000000E+00 0. -1.
        -16    1    4    4    0    0 -0.25923921638E+03 -0.10428228539E+03  0.88321549139E+02  0.29305368518E+03  0.00000000000E+00 0.  1.
         16    1    1    2    0    0 -0.66515995268E+03 -0.31541783283E+03 -0.14313735431E+03  0.74994298057E+03  0.00000000000E+00 0. -1.
    9900018    1    3    3    0    0 -0.10794547505E+03  0.46325270559E+03 -0.91951409870E+02  0.49297620124E+03  0.91187600000E+02 0.  0.
<mgrwt>
<rscale>  0 0.27393780E+04</rscale>
<asrwt>0</asrwt>
<pdfrwt beam="1">  1        2 0.20481393E+00 0.27393780E+04</pdfrwt>
<pdfrwt beam="2">  1       -2 0.21679922E+00 0.27393780E+04</pdfrwt>
<totfact> 0.14358901E+00</totfact>
</mgrwt>
</event>
<event>
12    1  0.1395636E-014  0.2653253E+04  0.7818608E-02  0.8350334E-01
          2   -1    0    0  501    0  0.00000000000E+00  0.00000000000E+00  0.21971384866E+04  0.21971384866E+04  0.00000000000E+00 0. -1.
         -2   -1    0    0    0  501 -0.00000000000E+00 -0.00000000000E+00 -0.80101342129E+03  0.80101342129E+03  0.00000000000E+00 0.  1.
    9900016    2    1    2    0    0  0.59644841941E+02 -0.48183541460E+03  0.15919282333E+04  0.24746428301E+04  0.18313652729E+04 0.  0.
         24    2    3    3    0    0 -0.13080927203E+02 -0.15604114301E+03 -0.22362797656E+03  0.28478955038E+03  0.81090487342E+02 0.  0.
         24    2    4    4    0    0 -0.22472930547E+02 -0.91444707610E+02 -0.13062016981E+03  0.17052700832E+03  0.56130781624E+02 0.  0.
        -15    1    4    4    0    0  0.29574049110E+01 -0.11411729915E+02 -0.25399126285E+02  0.28001597089E+02  0.00000000000E+00 0.  1.
        -15    1    5    5    0    0 -0.36215338357E+02 -0.87657963132E+02 -0.11875111240E+03  0.15197794553E+03  0.00000000000E+00 0.  1.
         15    1    4    4    0    0  0.64345984328E+01 -0.53184705486E+02 -0.67608680456E+02  0.86260944973E+02  0.00000000000E+00 0. -1.
         15    1    3    3    0    0  0.20878049888E+02  0.10635733867E+03 -0.14413413513E+03  0.18033974982E+03  0.00000000000E+00 0. -1.
        -16    1    1    2    0    0 -0.59644841941E+02  0.48183541460E+03 -0.19580316799E+03  0.52350907779E+03  0.00000000000E+00 0.  1.
         16    1    5    5    0    0  0.13742407811E+02 -0.37867444771E+01 -0.11869057419E+02  0.18549062784E+02  0.00000000000E+00 0. -1.
    9900018    1    3    3    0    0  0.51847719256E+02 -0.43215161026E+03  0.19596903450E+04  0.20095135299E+04  0.91187600000E+02 0.  0.
<mgrwt>
<rscale>  0 0.26532527E+04</rscale>
<asrwt>0</asrwt>
<pdfrwt beam="1">  1        2 0.33802130E+00 0.26532527E+04</pdfrwt>
<pdfrwt beam="2">  1       -2 0.12323284E+00 0.26532527E+04</pdfrwt>
<totfact> 0.22679978E+00</totfact>
</mgrwt>
</event>
<event>
11    1  0.1395636E-014  0.2873236E+04  0.7818608E-02  0.8280885E-01
          1   -1    0    0  501    0  0.00000000000E+00  0.00000000000E+00  0.10051903964E+04  0.10051903964E+04  0.00000000000E+00 0. -1.
         -1   -1    0    0    0  501 -0.00000000000E+00 -0.00000000000E+00 -0.20532139674E+04  0.20532139674E+04  0.00000000000E+00 0.  1.
    9900016    2    1    2    0    0  0.42971640818E+03  0.14109366119E+02  0.47194157183E+02  0.18818172918E+04  0.18314348925E+04 0.  0.
         24    2    3    3    0    0  0.27523231030E+03 -0.12908685749E+02 -0.86619384373E+03  0.91260757108E+03  0.81494448097E+02 0.  0.
        -15    1    4    4    0    0  0.12690689412E+02  0.69537556082E+01 -0.78596645241E+02  0.79917713668E+02  0.00000000000E+00 0.  1.
        -15    1    4    4    0    0  0.81227186344E+02  0.12367954072E+02 -0.24493538490E+03  0.25834892077E+03  0.00000000000E+00 0.  1.
         15    1    4    4    0    0  0.31671625453E+02 -0.97987673786E+01 -0.60431776177E+02  0.68928276294E+02  0.00000000000E+00 0. -1.
         15    1    3    3    0    0  0.59307109770E+02  0.13888745253E+03  0.44573552339E+03  0.47062428172E+03  0.00000000000E+00 0. -1.
        -16    1    1    2    0    0 -0.42971640818E+03 -0.14109366119E+02 -0.10952177282E+04  0.11765870719E+04  0.00000000000E+00 0.  1.
         16    1    4    4    0    0  0.14964280909E+03 -0.22431628051E+02 -0.48223003742E+03  0.50541266034E+03  0.00000000000E+00 0. -1.
    9900018    1    3    3    0    0  0.95176988114E+02 -0.11186940066E+03  0.46765247753E+03  0.49858543902E+03  0.91187600000E+02 0.  0.
<mgrwt>
<rscale>  0 0.28732358E+04</rscale>
<asrwt>0</asrwt>
<pdfrwt beam="1">  1        1 0.15464468E+00 0.28732358E+04</pdfrwt>
<pdfrwt beam="2">  1       -1 0.31587907E+00 0.28732358E+04</pdfrwt>
<totfact> 0.33575797E-01</totfact>
</mgrwt>
</event>
<event>
11    1  0.1395636E-014  0.2427415E+04  0.7818608E-02  0.8429310E-01
          2   -1    0    0  501    0  0.00000000000E+00  0.00000000000E+00  0.93908960409E+03  0.93908960409E+03  0.00000000000E+00 0. -1.
         -2   -1    0    0    0  501 -0.00000000000E+00 -0.00000000000E+00 -0.15686321719E+04  0.15686321719E+04  0.00000000000E+00 0.  1.
    9900016    2    1    2    0    0  0.49215582917E+03 -0.13914452061E+03 -0.51843936634E+03  0.19843457360E+04  0.18458792121E+04 0.  0.
         24    2    3    3    0    0  0.19960014506E+03  0.19611907971E+03 -0.10618868578E+04  0.11010805956E+04  0.80447920455E+02 0.  0.
        -15    1    4    4    0    0  0.20129857664E+02  0.42469894683E+01 -0.10595762114E+03  0.10793639593E+03  0.00000000000E+00 0.  1.
        -15    1    4    4    0    0  0.65444722333E+02  0.62141383715E+02 -0.25183062218E+03  0.26751303803E+03  0.00000000000E+00 0.  1.
         15    1    4    4    0    0  0.92668351572E+02  0.88164393690E+02 -0.54520222736E+03  0.56000522535E+03  0.00000000000E+00 0. -1.
         15    1    3    3    0    0  0.25038294109E+03 -0.99898523771E+02  0.56543747324E+03  0.62641110174E+03  0.00000000000E+00 0. -1.
        -16    1    1    2    0    0 -0.49215582917E+03  0.13914452061E+03 -0.11110320146E+03  0.52337603993E+03  0.00000000000E+00 0.  1.
         16    1    4    4    0    0  0.21357213494E+02  0.41566312836E+02 -0.15889638710E+03  0.16562593627E+03  0.00000000000E+00 0. -1.
    9900018    1    3    3    0    0  0.42172743008E+02 -0.23536507655E+03 -0.21989981794E+02  0.25685403872E+03  0.91187600000E+02 0.  0.
<mgrwt>
<rscale>  0 0.24274152E+04</rscale>
<asrwt>0</asrwt>
<pdfrwt beam="1">  1        2 0.14447533E+00 0.24274152E+04</pdfrwt>
<pdfrwt beam="2">  1       -2 0.24132802E+00 0.24274152E+04</pdfrwt>
<totfact> 0.17999281E+00</totfact>
</mgrwt>
</event>
<event>
11    1  0.1395636E-014  0.2333229E+04  0.7818608E-02  0.8464933E-01
         -1   -1    0    0    0  501 -0.00000000000E+00  0.00000000000E+00  0.11082613014E+04  0.11082613014E+04  0.00000000000E+00 0.  1.
          1   -1    0    0  501    0  0.00000000000E+00 -0.00000000000E+00 -0.12280404883E+04  0.12280404883E+04  0.00000000000E+00 0. -1.
    9900016    2    1    2    0    0  0.20682008012E+03 -0.35262735175E+03 -0.29172142905E+03  0.18928102685E+04  0.18249681437E+04 0.  0.
         24    2    3    3    0    0  0.85005418457E+02  0.23156622074E+03  0.67960634693E+03  0.72748736765E+03  0.80772814446E+02 0.  0.
        -15    1    4    4    0    0 -0.13014094658E+01  0.17120235669E+02  0.25628451770E+02  0.30848236191E+02  0.00000000000E+00 0.  1.
        -15    1    4    4    0    0  0.23772832522E+02  0.85812605925E+02  0.24288987665E+03  0.25869759002E+03  0.00000000000E+00 0. -1.
         15    1    4    4    0    0  0.68625577203E+01  0.21305272963E+02  0.13059501606E+03  0.13249931160E+03  0.00000000000E+00 0.  1.
         15    1    3    3    0    0  0.14539129272E+03 -0.42654596037E+03 -0.59319968628E+03  0.74496036949E+03  0.00000000000E+00 0. -1.
        -16    1    1    2    0    0 -0.20682008012E+03  0.35262735175E+03  0.17194224219E+03  0.44349152121E+03  0.00000000000E+00 0.  1.
         16    1    4    4    0    0  0.55671437680E+02  0.10732810618E+03  0.28049300245E+03  0.30544222985E+03  0.00000000000E+00 0. -1.
    9900018    1    3    3    0    0 -0.23576631066E+02 -0.15764761212E+03 -0.37812808970E+03  0.42036253134E+03  0.91187600000E+02 0.  0.
<mgrwt>
<rscale>  0 0.23332293E+04</rscale>
<asrwt>0</asrwt>
<pdfrwt beam="1">  1        1 0.18892931E+00 0.23332293E+04</pdfrwt>
<pdfrwt beam="2">  1       -1 0.17050174E+00 0.23332293E+04</pdfrwt>
<totfact> 0.22417896E+00</totfact>
</mgrwt>
</event>
<event>
11    1  0.1395636E-014  0.1918428E+04  0.7818608E-02  0.8645738E-01
         -2   -1    0    0    0  501 -0.00000000000E+00  0.00000000000E+00  0.36748335044E+03  0.36748335044E+03  0.00000000000E+00 0. -1.
          2   -1    0    0  501    0  0.00000000000E+00 -0.00000000000E+00 -0.25037632565E+04  0.25037632565E+04  0.00000000000E+00 0.  1.
    9900016    2    1    2    0    0 -0.48948750809E+02  0.50954037281E+02 -0.20785605832E+04  0.27800116665E+04  0.18447380502E+04 0.  0.
        -24    2    3    3    0    0 -0.99870413534E+02 -0.23673532442E+03  0.26358936975E+03  0.37640876148E+03  0.78654221410E+02 0.  0.
        -15    1    3    3    0    0  0.23428095874E+03  0.21462027777E+03 -0.12281414079E+04  0.12685742978E+04  0.00000000000E+00 0.  1.
        -15    1    4    4    0    0 -0.40558557583E+02 -0.12743424886E+03  0.11155376269E+03  0.17415144658E+03  0.00000000000E+00 0.  1.
         15    1    4    4    0    0 -0.31366589716E+01 -0.16746074060E+02  0.32944944320E+02  0.37089607469E+02  0.00000000000E+00 0. -1.
         15    1    4    4    0    0 -0.20855610657E+02 -0.74195627676E+01  0.26361132746E+02  0.34422604887E+02  0.00000000000E+00 0. -1.
        -16    1    4    4    0    0 -0.35319586323E+02 -0.85135438733E+02  0.92729529991E+02  0.13074510254E+03  0.00000000000E+00 0.  1.
         16    1    1    2    0    0  0.48948750809E+02 -0.50954037281E+02 -0.57719322889E+02  0.91234940432E+02  0.00000000000E+00 0. -1.
    9900018    1    3    3    0    0 -0.18335929602E+03  0.73069083939E+02 -0.11140085450E+04  0.11350286072E+04  0.91187600000E+02 0.  0.
<mgrwt>
<rscale>  0 0.19184278E+04</rscale>
<asrwt>0</asrwt>
<pdfrwt beam="1">  1        2 0.38519435E+00 0.19184278E+04</pdfrwt>
<pdfrwt beam="2">  1       -2 0.56535900E-01 0.19184278E+04</pdfrwt>
<totfact> 0.95153091E+00</totfact>
</mgrwt>
</event>
<event>
11    1  0.1395636E-014  0.2151713E+04  0.7818608E-02  0.8538799E-01
         -2   -1    0    0    0  501 -0.00000000000E+00  0.00000000000E+00  0.92660042579E+03  0.92660042579E+03  0.00000000000E+00 0.  1.
          2   -1    0    0  501    0  0.00000000000E+00 -0.00000000000E+00 -0.12491545162E+04  0.12491545162E+04  0.00000000000E+00 0. -1.
    9900016    2    1    2    0    0  0.28264935640E+03  0.41811792249E+02 -0.26453653585E+03  0.18841989074E+04  0.18435257143E+04 0.  0.
        -24    2    3    3    0    0 -0.27063406409E+03  0.13852870440E+03  0.18191471233E+03  0.36323316503E+03  0.80077281601E+02 0.  0.
        -15    1    3    3    0    0  0.76461879566E+03  0.37939137189E+03 -0.40921830201E+02  0.85454918637E+03  0.00000000000E+00 0.  1.
        -15    1    4    4    0    0 -0.80271340200E+01  0.12531894399E+02  0.13074553036E+02  0.19809775236E+02  0.00000000000E+00 0. -1.
         15    1    4    4    0    0 -0.35336977921E+02  0.24482717580E+01  0.13914277163E+02  0.38056578303E+02  0.00000000000E+00 0.  1.
         15    1    4    4    0    0 -0.98984559468E+02  0.56040411791E+02  0.40706523092E+02  0.12081180319E+03  0.00000000000E+00 0. -1.
        -16    1    4    4    0    0 -0.12828539269E+03  0.67508126457E+02  0.11421935903E+03  0.18455500831E+03  0.00000000000E+00 0.  1.
         16    1    1    2    0    0 -0.28264935640E+03 -0.41811792249E+02 -0.58017554557E+02  0.29155603454E+03  0.00000000000E+00 0. -1.
    9900018    1    3    3    0    0 -0.21133537517E+03 -0.47610828404E+03 -0.40552941797E+03  0.66641655604E+03  0.91187600000E+02 0.  0.
<mgrwt>
<rscale>  0 0.21517129E+04</rscale>
<asrwt>0</asrwt>
<pdfrwt beam="1">  1        2 0.19217762E+00 0.21517129E+04</pdfrwt>
<pdfrwt beam="2">  1       -2 0.14255391E+00 0.21517129E+04</pdfrwt>
<totfact> 0.55683310E+00</totfact>
</mgrwt>
</event>
