<event>
11    1  0.3205599E-016  0.2234832E+04  0.7818608E-02  0.8706516E-01
          2   -1    0    0  501    0  0.00000000000E+00  0.00000000000E+00  0.19751681566E+04  0.19751681566E+04  0.00000000000E+00 0.  1.
         -2   -1    0    0    0  501 -0.00000000000E+00 -0.00000000000E+00 -0.18994831208E+04  0.18994831208E+04  0.00000000000E+00 0. -1.
    9900016    2    1    2    0    0 -0.66198781029E+02 -0.16614889241E+03 -0.80115824293E+03  0.20720371079E+04  0.19024971782E+04 0.  0.
        -24    2    3    3    0    0 -0.48659134391E+03 -0.36181612685E+03  0.39866000575E+03  0.72876075513E+03  0.66935733492E+02 0.  0.
        -15    1    1    2    0    0  0.10501555230E+03 -0.45160050229E+03  0.10178389687E+04  0.11184665601E+04  0.00000000000E+00 0.  1.
        -15    1    3    3    0    0  0.44989184368E+03  0.21343709007E+03 -0.10764714620E+04  0.11860644464E+04  0.00000000000E+00 0.  1.
         15    1    4    4    0    0 -0.37556842840E+03 -0.24751247833E+03  0.27658471824E+03  0.52802762968E+03  0.00000000000E+00 0. -1.
         15    1    1    2    0    0 -0.54738749491E+02  0.29840246096E+03  0.56118441961E+02  0.30852818174E+03  0.00000000000E+00 0. -1.
        -16    1    4    4    0    0 -0.11102291551E+03 -0.11430364852E+03  0.12207528751E+03  0.20073312545E+03  0.00000000000E+00 0.  1.
         16    1    1    2    0    0  0.15921978222E+02  0.31934693374E+03 -0.19711413192E+03  0.37561942772E+03  0.00000000000E+00 0. -1.
    9900018    1    3    3    0    0 -0.29499280800E+02 -0.17769855632E+02 -0.12334678663E+03  0.15721190636E+03  0.91187600000E+02 0.  0.
<mgrwt>
<rscale>  0 0.17995936E+04</rscale>
<asrwt>0</asrwt>
<pdfrwt beam="1">  1        2 0.30387202E+00 0.22348322E+04</pdfrwt>
<pdfrwt beam="2">  1       -2 0.29222817E+00 0.22348322E+04</pdfrwt>
<totfact> 0.21394009E-01</totfact>
</mgrwt>
</event>
<event>
11    1  0.3205599E-016  0.3669410E+04  0.7818608E-02  0.8348226E-01
         -2   -1    0    0    0  501 -0.00000000000E+00  0.00000000000E+00  0.20271400455E+04  0.20271400455E+04  0.00000000000E+00 0.  1.
          2   -1    0    0  501    0  0.00000000000E+00 -0.00000000000E+00 -0.30347782224E+04  0.30347782224E+04  0.00000000000E+00 0. -1.
    9900016    2    1    2    0    0 -0.40519926447E+03 -0.59793363917E+03  0.19894255583E+03  0.19399707643E+04  0.17894684532E+04 0.  0.
        -24    2    3    3    0    0 -0.27019775451E+03 -0.92672312662E+03  0.78971053083E+03  0.12505255272E+04  0.91371722186E+02 0.  0.
        -15    1    1    2    0    0  0.80921216261E+02 -0.17295700985E+03  0.69541427881E+03  0.72115420659E+03  0.00000000000E+00 0.  1.
        -15    1    3    3    0    0 -0.13500150996E+03  0.32878948745E+03 -0.59076797500E+03  0.68944523716E+03  0.00000000000E+00 0.  1.
         15    1    4    4    0    0 -0.86137235538E+01 -0.14399165409E+03  0.11146156001E+03  0.18229501376E+03  0.00000000000E+00 0. -1.
         15    1    1    2    0    0 -0.30700960040E+03  0.29518896012E+02 -0.23848999796E+03  0.38987656904E+03  0.00000000000E+00 0. -1.
        -16    1    4    4    0    0 -0.26158403096E+03 -0.78273147252E+03  0.67824897082E+03  0.10682305134E+04  0.00000000000E+00 0.  1.
         16    1    1    2    0    0  0.66803172598E+03  0.72368800543E+03 -0.16320438327E+04  0.19061893369E+04  0.00000000000E+00 0. -1.
    9900018    1    1    2    0    0 -0.36744077374E+02  0.17683747566E+02 -0.31461180903E+02  0.10472739110E+03  0.91187600000E+02 0.  0.
<mgrwt>
<rscale>  0 0.26596221E+04</rscale>
<asrwt>0</asrwt>
<pdfrwt beam="1">  1        2 0.46688896E+00 0.36694099E+04</pdfrwt>
<pdfrwt beam="2">  1       -2 0.31186770E+00 0.36694099E+04</pdfrwt>
<totfact> 0.34557185E-02</totfact>
</mgrwt>
</event>
<event>
11    1  0.3205599E-016  0.3361406E+04  0.7818608E-02  0.8263202E-01
          1   -1    0    0  501    0  0.00000000000E+00  0.00000000000E+00  0.29404340913E+04  0.29404340913E+04  0.00000000000E+00 0. -1.
         -1   -1    0    0    0  501 -0.00000000000E+00 -0.00000000000E+00 -0.24142428674E+04  0.24142428674E+04  0.00000000000E+00 0.  1.
    9900016    2    1    2    0    0  0.14696031617E+04 -0.99842937018E+03  0.21402698998E+03  0.26106955149E+04  0.19008758136E+04 0.  0.
        -24    2    3    3    0    0  0.11623817564E+04  0.59454996172E+02  0.70445416024E+03  0.13639054756E+04  0.96520662755E+02 0.  0.
        -15    1    3    3    0    0  0.21962132890E+03 -0.95721985378E+03 -0.44946252657E+03  0.10800555261E+04  0.00000000000E+00 0.  1.
        -15    1    1    2    0    0  0.30606626552E+03  0.52377158323E+03  0.19694012682E+03  0.63780768563E+03  0.00000000000E+00 0.  1.
         15    1    1    2    0    0 -0.10913722211E+04  0.77053702423E+03  0.21785505194E+03  0.13536179130E+04  0.00000000000E+00 0. -1.
         15    1    4    4    0    0  0.27208684430E+03  0.41069997802E+02  0.20291472525E+03  0.34189527824E+03  0.00000000000E+00 0. -1.
        -16    1    4    4    0    0  0.89029491207E+03  0.18384998371E+02  0.50153943499E+03  0.10220101973E+04  0.00000000000E+00 0.  1.
         16    1    1    2    0    0 -0.68429720615E+03 -0.29587923728E+03 -0.10263094482E+03  0.75255584526E+03  0.00000000000E+00 0. -1.
    9900018    1    3    3    0    0  0.87600076429E+02 -0.10066451258E+03 -0.40964643686E+02  0.16673451325E+03  0.91187600000E+02 0.  0.
<mgrwt>
<rscale>  0 0.29327423E+04</rscale>
<asrwt>0</asrwt>
<pdfrwt beam="1">  1        1 0.45237448E+00 0.33614060E+04</pdfrwt>
<pdfrwt beam="2">  1       -1 0.37142198E+00 0.33614060E+04</pdfrwt>
<totfact> 0.57645372E-03</totfact>
</mgrwt>
</event>
<event>
11    1  0.3205599E-016  0.2959677E+04  0.7818608E-02  0.8486316E-01
         -1   -1    0    0    0  501 -0.00000000000E+00  0.00000000000E+00  0.15120733943E+04  0.15120733943E+04  0.00000000000E+00 0.  1.
          1   -1    0    0  501    0  0.00000000000E+00 -0.00000000000E+00 -0.26542931098E+04  0.26542931098E+04  0.00000000000E+00 0. -1.
    9900016    2    1    2    0    0 -0.39297085127E+03 -0.41939834019E+03 -0.16977489473E+03  0.19818439423E+04  0.18890634820E+04 0.  0.
        -24    2    3    3    0    0 -0.34806732217E+03  0.55072102862E+03  0.39748917892E+03  0.76608412464E+03  0.66653781116E+02 0.  0.
        -15    1    3    3    0    0 -0.28108337330E+02 -0.97603972951E+03 -0.55179413383E+03  0.11215705053E+04  0.00000000000E+00 0.  1.
        -15    1    1    2    0    0 -0.34396803776E+03 -0.81219745879E+02  0.60509370365E+02  0.35856943822E+03  0.00000000000E+00 0.  1.
         15    1    1    2    0    0 -0.16512996196E+03  0.57456554400E+03 -0.46550051317E+03  0.75768344079E+03  0.00000000000E+00 0. -1.
         15    1    4    4    0    0 -0.21707490881E+03  0.32432596769E+03  0.27392636639E+03  0.47680656828E+03  0.00000000000E+00 0. -1.
        -16    1    4    4    0    0 -0.13099241336E+03  0.22639506093E+03  0.12356281253E+03  0.28927755636E+03  0.00000000000E+00 0.  1.
         16    1    1    2    0    0  0.90206885099E+03 -0.73947457933E+02 -0.56745367795E+03  0.10682696828E+04  0.00000000000E+00 0. -1.
    9900018    1    3    3    0    0 -0.16795191766E+02  0.59203607026E+01 -0.15469939820E+02  0.94189312393E+02  0.91187600000E+02 0.  0.
<mgrwt>
<rscale>  0 0.22788291E+04</rscale>
<asrwt>0</asrwt>
<pdfrwt beam="1">  1        1 0.40835278E+00 0.29596769E+04</pdfrwt>
<pdfrwt beam="2">  1       -1 0.23262668E+00 0.29596769E+04</pdfrwt>
<totfact> 0.79339844E-02</totfact>
</mgrwt>
</event>
<event>
11    1  0.3205599E-016  0.3067222E+04  0.7818608E-02  0.8296190E-01
         -2   -1    0    0    0  501 -0.00000000000E+00  0.00000000000E+00  0.17858490824E+04  0.17858490824E+04  0.00000000000E+00 0.  1.
          2   -1    0    0  501    0  0.00000000000E+00 -0.00000000000E+00 -0.38860550100E+04  0.38860550100E+04  0.00000000000E+00 0. -1.
    9900016    2    1    2    0    0  0.14170588876E+04 -0.73668081631E+03 -0.10392995105E+04  0.26851087958E+04  0.18918010616E+04 0.  0.
        -24    2    3    3    0    0  0.13346605695E+04 -0.11543733900E+04 -0.10241869453E+04  0.20424083375E+04  0.92607552280E+02 0.  0.
        -15    1    3    3    0    0 -0.19567427073E+02  0.48456029489E+03  0.23822414162E+02  0.48553997878E+03  0.00000000000E+00 0.  1.
        -15    1    1    2    0    0 -0.12105890834E+04  0.10843810292E+04 -0.21250522838E+03  0.16390749273E+04  0.00000000000E+00 0.  1.
         15    1    4    4    0    0  0.18725049075E+03 -0.19348624786E+03 -0.12979495156E+03  0.29890868814E+03  0.00000000000E+00 0. -1.
         15    1    1    2    0    0 -0.55679949391E+02  0.21606572750E+03 -0.71510689391E+03  0.74910781940E+03  0.00000000000E+00 0. -1.
        -16    1    4    4    0    0  0.11474100788E+04 -0.96088714213E+03 -0.89439199375E+03  0.17434996494E+04  0.00000000000E+00 0.  1.
         16    1    1    2    0    0 -0.15078985481E+03 -0.56376594040E+03 -0.13329429480E+03  0.59861254990E+03  0.00000000000E+00 0. -1.
    9900018    1    3    3    0    0  0.10196574511E+03 -0.66867721204E+02 -0.38934979382E+02  0.15716047953E+03  0.91187600000E+02 0.  0.
<mgrwt>
<rscale>  0 0.28229141E+04</rscale>
<asrwt>0</asrwt>
<pdfrwt beam="1">  1        2 0.59785461E+00 0.30672218E+04</pdfrwt>
<pdfrwt beam="2">  1       -2 0.27474601E+00 0.30672218E+04</pdfrwt>
<totfact> 0.15341454E-02</totfact>
</mgrwt>
</event>
