<event>
12    1  0.2108715E-011  0.1171950E+04  0.7818608E-02  0.9137769E-01
          1   -1    0    0  501    0  0.00000000000E+00  0.00000000000E+00  0.95771460607E+03  0.95771460607E+03  0.00000000000E+00 0. -1.
         -1   -1    0    0    0  501 -0.00000000000E+00 -0.00000000000E+00 -0.35852710507E+03  0.35852710507E+03  0.00000000000E+00 0.  1.
    9900016    2    1    2    0    0 -0.23016057054E+03  0.98721205648E+02  0.48491707776E+03  0.88221187104E+03  0.69313306689E+03 0.  0.
         23    2    3    3    0    0 -0.33805933462E+02  0.27856960460E+03  0.44643582298E+03  0.53857787414E+03  0.10962352272E+03 0.  0.
         23    2    3    3    0    0 -0.53510791078E+02 -0.31464511429E+02  0.76543917891E+02  0.13418016251E+03  0.91060004419E+02 0.  0.
        -15    1    5    5    0    0  0.58472688969E+01 -0.43487052996E+02  0.53947221278E+02  0.69538600902E+02  0.00000000000E+00 0.  1.
        -15    1    4    4    0    0  0.31056924879E+02  0.14616401863E+03  0.27052011315E+03  0.30904624984E+03  0.00000000000E+00 0.  1.
         15    1    4    4    0    0 -0.64862858341E+02  0.13240558597E+03  0.17591570983E+03  0.22953162430E+03  0.00000000000E+00 0. -1.
         15    1    5    5    0    0 -0.59358059975E+02  0.12022541567E+02  0.22596696613E+02  0.64641561611E+02  0.00000000000E+00 0. -1.
        -16    1    1    2    0    0  0.16379169137E+03 -0.12995820254E+03 -0.65867146560E+02  0.21921526763E+03  0.00000000000E+00 0.  1.
         16    1    3    3    0    0 -0.14284384600E+03 -0.14838388752E+03 -0.38062663104E+02  0.20945383439E+03  0.00000000000E+00 0. -1.
    9900018    1    1    2    0    0  0.66368879173E+02  0.31236996890E+02  0.18013756980E+03  0.21481457247E+03  0.91187600000E+02 0.  0.
<mgrwt>
<rscale>  0 0.11719499E+04</rscale>
<asrwt>0</asrwt>
<pdfrwt beam="1">  1        1 0.14734071E+00 0.11719499E+04</pdfrwt>
<pdfrwt beam="2">  1       -1 0.55158017E-01 0.11719499E+04</pdfrwt>
<totfact> 0.53834241E+01</totfact>
</mgrwt>
</event>
<event>
11    1  0.2108715E-011  0.1269529E+04  0.7818608E-02  0.9054084E-01
         -2   -1    0    0    0  501 -0.00000000000E+00  0.00000000000E+00  0.24232958837E+03  0.24232958837E+03  0.00000000000E+00 0. -1.
          2   -1    0    0  501    0  0.00000000000E+00 -0.00000000000E+00 -0.16627184908E+04  0.16627184908E+04  0.00000000000E+00 0.  1.
    9900016    2    1    2    0    0 -0.79168707931E+02 -0.65866605559E+02 -0.70365056017E+03  0.10087167017E+04  0.71538743313E+03 0.  0.
         23    2    3    3    0    0  0.12394995029E+03 -0.22578673928E+03 -0.71509401761E+02  0.28262853113E+03  0.91771729067E+02 0.  0.
        -15    1    4    4    0    0  0.31296196152E+02 -0.12203404389E+03  0.51901950789E+00  0.12598424165E+03  0.00000000000E+00 0. -1.
        -15    1    3    3    0    0 -0.66364950169E+02  0.81884492491E+01 -0.18103296111E+03  0.19298779837E+03  0.00000000000E+00 0. -1.
         15    1    4    4    0    0  0.92653754141E+02 -0.10375269538E+03 -0.72028421269E+02  0.15664428948E+03  0.00000000000E+00 0.  1.
         15    1    3    3    0    0 -0.66358913959E+02 -0.25733092323E+02 -0.23106829510E+03  0.24178141885E+03  0.00000000000E+00 0.  1.
        -16    1    3    3    0    0 -0.70394794095E+02  0.17746477679E+03 -0.22003990220E+03  0.29131895338E+03  0.00000000000E+00 0.  1.
         16    1    1    2    0    0 -0.57490248093E+01  0.64635503612E+02 -0.76124930967E+03  0.76401002028E+03  0.00000000000E+00 0. -1.
    9900018    1    1    2    0    0  0.84917732740E+02  0.12311019467E+01  0.44510967422E+02  0.13232135716E+03  0.91187600000E+02 0.  0.
<mgrwt>
<rscale>  0 0.12695289E+04</rscale>
<asrwt>0</asrwt>
<pdfrwt beam="1">  1        2 0.25580284E+00 0.12695289E+04</pdfrwt>
<pdfrwt beam="2">  1       -2 0.37281476E-01 0.12695289E+04</pdfrwt>
<totfact> 0.68525893E+01</totfact>
</mgrwt>
</event>
<event>
12    1  0.2108715E-011  0.1636021E+04  0.7818608E-02  0.8798719E-01
          1   -1    0    0  501    0  0.00000000000E+00  0.00000000000E+00  0.13243061822E+04  0.13243061822E+04  0.00000000000E+00 0. -1.
         -1   -1    0    0    0  501 -0.00000000000E+00 -0.00000000000E+00 -0.50527679457E+03  0.50527679457E+03  0.00000000000E+00 0.  1.
    9900016    2    1    2    0    0  0.34512201512E+03  0.18734203262E+03  0.50451929476E+03  0.94967226276E+03  0.70223318447E+03 0.  0.
         23    2    3    3    0    0  0.13450228564E+03  0.41607900614E+02  0.98259816013E+02  0.18467057400E+03  0.68015786558E+02 0.  0.
         23    2    3    3    0    0  0.11785300582E+03  0.35999001023E+03  0.35179936033E+03  0.52525776106E+03  0.93009608056E+02 0.  0.
        -15    1    4    4    0    0  0.10826381697E+03  0.49612687298E+02  0.50003581128E+02  0.12916203363E+03  0.00000000000E+00 0. -1.
        -15    1    5    5    0    0  0.28326742955E+02  0.87237299337E+02  0.36138500786E+02  0.98583680197E+02  0.00000000000E+00 0. -1.
         15    1    4    4    0    0  0.26238468665E+02 -0.80047866838E+01  0.48256234886E+02  0.55508540362E+02  0.00000000000E+00 0.  1.
         15    1    5    5    0    0  0.89526262862E+02  0.27275271089E+03  0.31566085954E+03  0.42667408087E+03  0.00000000000E+00 0.  1.
        -16    1    1    2    0    0 -0.32937227184E+03 -0.37835892428E+03  0.14008265847E+01  0.50164083900E+03  0.00000000000E+00 0.  1.
         16    1    3    3    0    0  0.92766723660E+02 -0.21425587822E+03  0.54460118423E+02  0.23974392770E+03  0.00000000000E+00 0. -1.
    9900018    1    1    2    0    0 -0.15749743275E+02  0.19101689166E+03  0.31310926627E+03  0.37826987500E+03  0.91187600000E+02 0.  0.
<mgrwt>
<rscale>  0 0.16360210E+04</rscale>
<asrwt>0</asrwt>
<pdfrwt beam="1">  1        1 0.20373941E+00 0.16360210E+04</pdfrwt>
<pdfrwt beam="2">  1       -1 0.77734892E-01 0.16360210E+04</pdfrwt>
<totfact> 0.13786712E+01</totfact>
</mgrwt>
</event>
<event>
11    1  0.2108715E-011  0.1780233E+04  0.7818608E-02  0.8716882E-01
          1   -1    0    0  501    0  0.00000000000E+00  0.00000000000E+00  0.13489967986E+04  0.13489967986E+04  0.00000000000E+00 0. -1.
         -1   -1    0    0    0  501 -0.00000000000E+00 -0.00000000000E+00 -0.58733095961E+03  0.58733095961E+03  0.00000000000E+00 0.  1.
    9900016    2    1    2    0    0 -0.77090853222E+02 -0.17772728291E+03  0.45008863336E+03  0.82600011891E+03  0.66495596231E+03 0.  0.
         23    2    3    3    0    0  0.68174904071E+02 -0.16553569070E+03  0.14680196161E+03  0.24888907174E+03  0.91351363729E+02 0.  0.
        -15    1    4    4    0    0 -0.11318901964E+02 -0.91944218226E+02  0.69358500097E+02  0.11572578944E+03  0.00000000000E+00 0.  1.
        -15    1    3    3    0    0  0.16507643362E+02  0.46109325493E+01  0.90695024571E+02  0.92300327574E+02  0.00000000000E+00 0. -1.
         15    1    3    3    0    0 -0.10011738696E+03 -0.15788942378E+03  0.26310626413E+03  0.32276534439E+03  0.00000000000E+00 0. -1.
         15    1    4    4    0    0  0.79493806035E+02 -0.73591472475E+02  0.77443461515E+02  0.13316328229E+03  0.00000000000E+00 0.  1.
        -16    1    3    3    0    0 -0.61656013698E+02  0.14108689903E+03 -0.50514616950E+02  0.16204537521E+03  0.00000000000E+00 0.  1.
         16    1    1    2    0    0 -0.21913268120E+03  0.53010688379E+03  0.28440708018E+03  0.64024981645E+03  0.00000000000E+00 0. -1.
    9900018    1    1    2    0    0  0.29622353442E+03 -0.35237960088E+03  0.27170125488E+02  0.47007782289E+03  0.91187600000E+02 0.  0.
<mgrwt>
<rscale>  0 0.17802332E+04</rscale>
<asrwt>0</asrwt>
<pdfrwt beam="1">  1        1 0.20753797E+00 0.17802332E+04</pdfrwt>
<pdfrwt beam="2">  1       -1 0.90358610E-01 0.17802332E+04</pdfrwt>
<totfact> 0.94470223E+00</totfact>
</mgrwt>
</event>
<event>
12    1  0.2108715E-011  0.1363960E+04  0.7818608E-02  0.8980328E-01
         -2   -1    0    0    0  501 -0.00000000000E+00  0.00000000000E+00  0.38983487852E+03  0.38983487852E+03  0.00000000000E+00 0.  1.
          2   -1    0    0  501    0  0.00000000000E+00 -0.00000000000E+00 -0.11930604081E+04  0.11930604081E+04  0.00000000000E+00 0. -1.
    9900016    2    1    2    0    0 -0.19634345888E+03 -0.70095601946E+02 -0.15338704091E+03  0.75421916404E+03  0.70841711994E+03 0.  0.
         23    2    3    3    0    0 -0.16292841216E+03 -0.53916973945E+02  0.18390006417E+03  0.26310686197E+03  0.77157498949E+02 0.  0.
         23    2    3    3    0    0 -0.15084289731E+03  0.74861560937E+02 -0.26095006325E+03  0.32406452431E+03  0.92547541474E+02 0.  0.
        -15    1    5    5    0    0 -0.52536487379E+02 -0.17653574597E+02 -0.96718674607E+02  0.11147301566E+03  0.00000000000E+00 0.  1.
        -15    1    4    4    0    0 -0.12259749505E+03 -0.60489347714E+02  0.98699898654E+02  0.16861428461E+03  0.00000000000E+00 0. -1.
         15    1    5    5    0    0 -0.98306409931E+02  0.92515135534E+02 -0.16423138864E+03  0.21259150865E+03  0.00000000000E+00 0. -1.
         15    1    4    4    0    0 -0.40330917108E+02  0.65723737692E+01  0.85200165517E+02  0.94492577358E+02  0.00000000000E+00 0.  1.
        -16    1    1    2    0    0  0.16757131455E+03  0.14114335445E+03 -0.60323411810E+02  0.22724547515E+03  0.00000000000E+00 0.  1.
         16    1    3    3    0    0  0.11742785060E+03 -0.91040188938E+02 -0.76337041830E+02  0.16704777776E+03  0.00000000000E+00 0. -1.
    9900018    1    1    2    0    0  0.28772144327E+02 -0.71047752508E+02 -0.58951507685E+03  0.60143064742E+03  0.91187600000E+02 0.  0.
<mgrwt>
<rscale>  0 0.13639598E+04</rscale>
<asrwt>0</asrwt>
<pdfrwt beam="1">  1        2 0.18354775E+00 0.13639598E+04</pdfrwt>
<pdfrwt beam="2">  1       -2 0.59974597E-01 0.13639598E+04</pdfrwt>
<totfact> 0.48372560E+01</totfact>
</mgrwt>
</event>
<event>
12    1  0.2108715E-011  0.2271929E+04  0.7818608E-02  0.8489072E-01
          2   -1    0    0  501    0  0.00000000000E+00  0.00000000000E+00  0.16202580008E+04  0.16202580008E+04  0.00000000000E+00 0.  1.
         -2   -1    0    0    0  501 -0.00000000000E+00 -0.00000000000E+00 -0.79642589788E+03  0.79642589788E+03  0.00000000000E+00 0. -1.
    9900016    2    1    2    0    0  0.28274131314E+03 -0.45853481377E+02 -0.35823233629E+02  0.77764154185E+03  0.72207885416E+03 0.  0.
         23    2    3    3    0    0  0.33370813244E+03  0.12338206143E+03 -0.59886398909E+02  0.37589207398E+03  0.10547141684E+03 0.  0.
         23    2    3    3    0    0 -0.72012408832E+02 -0.78354980050E+02 -0.14932999972E+03  0.20485512261E+03  0.91328432143E+02 0.  0.
        -15    1    4    4    0    0  0.15135429508E+03  0.60199316139E+02 -0.80703118266E+02  0.18178303991E+03  0.00000000000E+00 0. -1.
        -15    1    5    5    0    0 -0.71897066487E+02 -0.95109085313E+02 -0.11047296756E+03  0.16253985001E+03  0.00000000000E+00 0. -1.
         15    1    5    5    0    0 -0.11534234500E+00  0.16754105264E+02 -0.38857032159E+02  0.42315272600E+02  0.00000000000E+00 0.  1.
         15    1    4    4    0    0  0.18235383736E+03  0.63182745291E+02  0.20816719357E+02  0.19410903407E+03  0.00000000000E+00 0.  1.
        -16    1    1    2    0    0 -0.44400831245E+03  0.24622273711E+03  0.11399162730E+04  0.12478694352E+04  0.00000000000E+00 0.  1.
         16    1    3    3    0    0  0.21045589541E+02 -0.90880562757E+02  0.17339316500E+03  0.19689434526E+03  0.00000000000E+00 0. -1.
    9900018    1    1    2    0    0  0.16126699931E+03 -0.20036925573E+03 -0.28026093648E+03  0.39117292164E+03  0.91187600000E+02 0.  0.
<mgrwt>
<rscale>  0 0.22719291E+04</rscale>
<asrwt>0</asrwt>
<pdfrwt beam="1">  1        2 0.24927046E+00 0.22719291E+04</pdfrwt>
<pdfrwt beam="2">  1       -2 0.12252706E+00 0.22719291E+04</pdfrwt>
<totfact> 0.49775262E+00</totfact>
</mgrwt>
</event>
<event>
12    1  0.2108715E-011  0.1696174E+04  0.7818608E-02  0.8763550E-01
         -2   -1    0    0    0  501 -0.00000000000E+00  0.00000000000E+00  0.70158807291E+03  0.70158807291E+03  0.00000000000E+00 0.  1.
          2   -1    0    0  501    0  0.00000000000E+00 -0.00000000000E+00 -0.10251759478E+04  0.10251759478E+04  0.00000000000E+00 0. -1.
    9900016    2    1    2    0    0  0.61981577126E+02 -0.14738731129E+03  0.32522632162E+02  0.72828142193E+03  0.70976853445E+03 0.  0.
         23    2    3    3    0    0 -0.10444213650E+03 -0.79336225549E+02 -0.20904818451E+03  0.25530981155E+03  0.65418345040E+02 0.  0.
         23    2    3    3    0    0 -0.51191781306E+02  0.78980377842E+02  0.14141923057E+03  0.19189316027E+03  0.89247339599E+02 0.  0.
        -15    1    5    5    0    0 -0.52291368316E+02  0.49678651693E+02  0.14539512221E+03  0.16230248672E+03  0.00000000000E+00 0. -1.
        -15    1    4    4    0    0 -0.80198538712E+02 -0.67858226816E+02 -0.10762042851E+03  0.15039515015E+03  0.00000000000E+00 0.  1.
         15    1    4    4    0    0 -0.24243597788E+02 -0.11477998733E+02 -0.10142775600E+03  0.10491466140E+03  0.00000000000E+00 0. -1.
         15    1    5    5    0    0  0.10995870095E+01  0.29301726149E+02 -0.39758916326E+01  0.29590673551E+02  0.00000000000E+00 0.  1.
        -16    1    3    3    0    0  0.21761549493E+03 -0.14703146358E+03  0.10015158610E+03  0.28107845011E+03  0.00000000000E+00 0.  1.
         16    1    1    2    0    0  0.17639150830E+03 -0.12539963694E+03 -0.54026002400E+03  0.58199650057E+03  0.00000000000E+00 0. -1.
    9900018    1    1    2    0    0 -0.23837308542E+03  0.27278694823E+03  0.18414951698E+03  0.41648609818E+03  0.91187600000E+02 0.  0.
<mgrwt>
<rscale>  0 0.16961736E+04</rscale>
<asrwt>0</asrwt>
<pdfrwt beam="1">  1        2 0.15771938E+00 0.16961736E+04</pdfrwt>
<pdfrwt beam="2">  1       -2 0.10793663E+00 0.16961736E+04</pdfrwt>
<totfact> 0.15892512E+01</totfact>
</mgrwt>
</event>
<event>
12    1  0.2108715E-011  0.1386466E+04  0.7818608E-02  0.8963674E-01
          2   -1    0    0  501    0  0.00000000000E+00  0.00000000000E+00  0.11407328670E+04  0.11407328670E+04  0.00000000000E+00 0. -1.
         -2   -1    0    0    0  501 -0.00000000000E+00 -0.00000000000E+00 -0.42128355835E+03  0.42128355835E+03  0.00000000000E+00 0.  1.
    9900016    2    1    2    0    0  0.15737079099E+01  0.69207235495E+02  0.61093704860E+03  0.93906169620E+03  0.70978917567E+03 0.  0.
         23    2    3    3    0    0  0.79931043064E+02 -0.20789530672E+03  0.24396334493E+03  0.33875722076E+03  0.75026067091E+02 0.  0.
         23    2    3    3    0    0  0.12951349112E+03  0.47908454587E+02  0.13934869771E+03  0.21617773391E+03  0.90806325116E+02 0.  0.
        -15    1    5    5    0    0  0.68273538338E+02  0.24440391161E+02  0.12789552779E+02  0.73635463043E+02  0.00000000000E+00 0. -1.
        -15    1    4    4    0    0  0.33906064238E+02 -0.71715548174E+02  0.14153681951E+03  0.16225107802E+03  0.00000000000E+00 0.  1.
         15    1    5    5    0    0  0.61239952786E+02  0.23468063426E+02  0.12655914493E+03  0.14254227087E+03  0.00000000000E+00 0.  1.
         15    1    4    4    0    0  0.46024978826E+02 -0.13617975854E+03  0.10242652542E+03  0.17650614273E+03  0.00000000000E+00 0. -1.
        -16    1    3    3    0    0 -0.20787082628E+03  0.22919408762E+03  0.22762500596E+03  0.38412674153E+03  0.00000000000E+00 0.  1.
         16    1    1    2    0    0 -0.23303152440E+03  0.10186586240E+03 -0.80492496071E+02  0.26675716900E+03  0.00000000000E+00 0. -1.
    9900018    1    1    2    0    0  0.23145781649E+03 -0.17107309789E+03  0.18900475612E+03  0.35619756016E+03  0.91187600000E+02 0.  0.
<mgrwt>
<rscale>  0 0.13864660E+04</rscale>
<asrwt>0</asrwt>
<pdfrwt beam="1">  1        2 0.17549736E+00 0.13864660E+04</pdfrwt>
<pdfrwt beam="2">  1       -2 0.64812856E-01 0.13864660E+04</pdfrwt>
<totfact> 0.44022337E+01</totfact>
</mgrwt>
</event>
<event>
12    1  0.2108715E-011  0.2032590E+04  0.7818608E-02  0.8591533E-01
         -1   -1    0    0    0  501 -0.00000000000E+00  0.00000000000E+00  0.13705893740E+04  0.13705893740E+04  0.00000000000E+00 0.  1.
          1   -1    0    0  501    0  0.00000000000E+00 -0.00000000000E+00 -0.75358507534E+03  0.75358507534E+03  0.00000000000E+00 0. -1.
    9900016    2    1    2    0    0 -0.77665696733E+02  0.32603456631E+03 -0.21075582670E+03  0.81338499429E+03  0.71052560233E+03 0.  0.
         23    2    3    3    0    0  0.30422542516E+02  0.19558761270E+03  0.93843966962E+02  0.23085885464E+03  0.72863401639E+02 0.  0.
         23    2    3    3    0    0 -0.96974914606E+02 -0.66285575974E+02  0.67202302824E+02  0.16173641408E+03  0.88569783168E+02 0.  0.
        -15    1    4    4    0    0  0.29548495240E+02  0.42531659776E+02  0.49173757631E+02  0.71415083097E+02  0.00000000000E+00 0.  1.
        -15    1    5    5    0    0 -0.10517094384E+03 -0.37963168453E+02  0.33002795954E+02  0.11658179158E+03  0.00000000000E+00 0. -1.
         15    1    5    5    0    0  0.81960292362E+01 -0.28322407521E+02  0.34199506870E+02  0.45154622501E+02  0.00000000000E+00 0.  1.
         15    1    4    4    0    0  0.87404727639E+00  0.15305595292E+03  0.44670209331E+02  0.15944377155E+03  0.00000000000E+00 0. -1.
        -16    1    1    2    0    0  0.38870649160E+02 -0.57552763585E+03  0.86507186424E+03  0.10397558931E+04  0.00000000000E+00 0.  1.
         16    1    3    3    0    0 -0.11113324644E+02  0.19673252959E+03 -0.37180209649E+03  0.42078972556E+03  0.00000000000E+00 0. -1.
    9900018    1    1    2    0    0  0.38795047573E+02  0.24949306954E+03 -0.37311738842E+02  0.27103356197E+03  0.91187600000E+02 0.  0.
<mgrwt>
<rscale>  0 0.20325902E+04</rscale>
<asrwt>0</asrwt>
<pdfrwt beam="1">  1        1 0.11593617E+00 0.20325902E+04</pdfrwt>
<pdfrwt beam="2">  1       -1 0.21085990E+00 0.20325902E+04</pdfrwt>
<totfact> 0.28521062E+00</totfact>
</mgrwt>
</event>
