<event>
11    1  0.8074104E-021  0.1415028E+03  0.7818608E-02  0.1221615E+00
          1   -1    0    0  501    0  0.00000000000E+00  0.00000000000E+00  0.43874326143E+03  0.43874326143E+03  0.00000000000E+00 0. -1.
         -1   -1    0    0    0  501 -0.00000000000E+00 -0.00000000000E+00 -0.37707117366E+02  0.37707117366E+02  0.00000000000E+00 0.  1.
         23    2    1    2    0    0  0.35479945235E+02 -0.56029622035E+02  0.20779833098E+03  0.23694274318E+03  0.92539570598E+02 0.  0.
         25    2    1    2    0    0 -0.35479945235E+02  0.56029622035E+02  0.19323781308E+03  0.23950763562E+03  0.12499964022E+03 0.  0.
        -15    1    4    4    0    0 -0.86249197778E+01  0.90220961055E+01  0.73311411866E+01  0.14475257870E+02  0.00000000000E+00 0.  1.
        -15    1    3    3    0    0 -0.18572097456E+02 -0.50938122010E+02  0.67978054936E+02  0.86951889172E+02  0.00000000000E+00 0.  1.
         15    1    3    3    0    0  0.54052042691E+02 -0.50915000256E+01  0.13982027605E+03  0.14999085401E+03  0.00000000000E+00 0. -1.
         15    1    4    4    0    0 -0.61859148665E+01  0.13993830457E+02  0.16208032162E+02  0.22288856861E+02  0.00000000000E+00 0. -1.
        -16    1    4    4    0    0 -0.46524512081E+01 -0.78267708054E+01  0.18286916466E+02  0.20428288164E+02  0.00000000000E+00 0.  1.
         16    1    4    4    0    0 -0.39205834047E+00 -0.38726631240E-02  0.91586620919E+00  0.99626083582E+00  0.00000000000E+00 0. -1.
    9900018    1    4    4    0    0 -0.15624601042E+02  0.40844338941E+02  0.15049585706E+03  0.18131897189E+03  0.91187600000E+02 0.  0.
<mgrwt>
<rscale>  0 0.13401601E+03</rscale>
<asrwt>0</asrwt>
<pdfrwt beam="1">  1        1 0.67498960E-01 0.14150284E+03</pdfrwt>
<pdfrwt beam="2">  1       -1 0.58010953E-02 0.14150284E+03</pdfrwt>
<totfact> 0.72382779E+03</totfact>
</mgrwt>
</event>
<event>
11    1  0.8074104E-021  0.1643773E+03  0.7818608E-02  0.1190968E+00
         -1   -1    0    0    0  501 -0.00000000000E+00  0.00000000000E+00  0.26810220375E+03  0.26810220375E+03  0.00000000000E+00 0.  1.
          1   -1    0    0  501    0  0.00000000000E+00 -0.00000000000E+00 -0.90509395539E+02  0.90509395539E+02  0.00000000000E+00 0. -1.
         23    2    1    2    0    0 -0.20947614153E+02 -0.10467315950E+03  0.11934906889E+03  0.18422055792E+03  0.91091936303E+02 0.  0.
         25    2    1    2    0    0  0.20947614153E+02  0.10467315950E+03  0.58243739327E+02  0.17439104137E+03  0.12499851712E+03 0.  0.
        -15    1    4    4    0    0 -0.16559972295E+01  0.98875131174E+01  0.10065933560E+02  0.14206627359E+02  0.00000000000E+00 0.  1.
        -15    1    3    3    0    0 -0.40844763738E+02 -0.89359162090E+02  0.49541828207E+02  0.11003520944E+03  0.00000000000E+00 0. -1.
         15    1    3    3    0    0  0.19897149585E+02 -0.15313997406E+02  0.69807240680E+02  0.74185348483E+02  0.00000000000E+00 0.  1.
         15    1    4    4    0    0  0.14120755201E+02  0.13185738620E+02  0.58070769881E+01  0.20173784314E+02  0.00000000000E+00 0. -1.
        -16    1    4    4    0    0  0.26039383009E+01  0.25510543846E+00  0.44409324657E+00  0.26538259685E+01  0.00000000000E+00 0.  1.
         16    1    4    4    0    0  0.93051372479E+01  0.37159601038E+01 -0.10555783511E+01  0.10075127014E+02  0.00000000000E+00 0. -1.
    9900018    1    4    4    0    0 -0.34262193675E+01  0.77628842216E+02  0.42982213883E+02  0.12728167671E+03  0.91187600000E+02 0.  0.
<mgrwt>
<rscale>  0 0.15800486E+03</rscale>
<asrwt>0</asrwt>
<pdfrwt beam="1">  1        1 0.13924523E-01 0.16437732E+03</pdfrwt>
<pdfrwt beam="2">  1       -1 0.41246493E-01 0.16437732E+03</pdfrwt>
<totfact> 0.23506538E+03</totfact>
</mgrwt>
</event>
<event>
11    1  0.8074104E-021  0.2334804E+03  0.7818608E-02  0.1127013E+00
          2   -1    0    0  501    0  0.00000000000E+00  0.00000000000E+00  0.99484487560E+03  0.99484487560E+03  0.00000000000E+00 0. -1.
         -2   -1    0    0    0  501 -0.00000000000E+00 -0.00000000000E+00 -0.57282972546E+02  0.57282972546E+02  0.00000000000E+00 0.  1.
         23    2    1    2    0    0 -0.16413617176E+03 -0.10930421762E+03  0.62577157480E+03  0.66260724896E+03  0.92575416188E+02 0.  0.
         25    2    1    2    0    0  0.16413617176E+03  0.10930421762E+03  0.31179032825E+03  0.38952059918E+03  0.12499997409E+03 0.  0.
        -15    1    3    3    0    0 -0.36372028663E+02 -0.42156287948E+02  0.31590616614E+03  0.32077528409E+03  0.00000000000E+00 0. -1.
        -15    1    4    4    0    0  0.14546228991E+02  0.48125483555E+01  0.28955796627E+02  0.32759602529E+02  0.00000000000E+00 0.  1.
         15    1    4    4    0    0  0.10871139042E+02  0.15638662298E+02  0.12745940203E+02  0.22917425994E+02  0.00000000000E+00 0. -1.
         15    1    3    3    0    0 -0.12776414310E+03 -0.67147929676E+02  0.30986540866E+03  0.34183196487E+03  0.00000000000E+00 0.  1.
        -16    1    4    4    0    0  0.43028509575E+01 -0.47168615253E+01  0.95637098117E+01  0.11499037106E+02  0.00000000000E+00 0.  1.
         16    1    4    4    0    0  0.10450687626E+01  0.24902147003E+01  0.11669120715E+02  0.11977550510E+02  0.00000000000E+00 0. -1.
    9900018    1    4    4    0    0  0.13337088401E+03  0.91079653796E+02  0.24885576090E+03  0.31036698304E+03  0.91187600000E+02 0.  0.
<mgrwt>
<rscale>  0 0.22947048E+03</rscale>
<asrwt>0</asrwt>
<pdfrwt beam="1">  1        2 0.15305305E+00 0.23348038E+03</pdfrwt>
<pdfrwt beam="2">  1       -2 0.88127657E-02 0.23348038E+03</pdfrwt>
<totfact> 0.21421687E+03</totfact>
</mgrwt>
</event>
<event>
11    1  0.8074104E-021  0.2460511E+03  0.7818608E-02  0.1118267E+00
          2   -1    0    0  501    0  0.00000000000E+00  0.00000000000E+00  0.50576973819E+03  0.50576973819E+03  0.00000000000E+00 0. -1.
         -2   -1    0    0    0  501 -0.00000000000E+00 -0.00000000000E+00 -0.13166586168E+03  0.13166586168E+03  0.00000000000E+00 0.  1.
         23    2    1    2    0    0  0.86734540070E+02 -0.19337162511E+03  0.61165176966E+02  0.23935049445E+03  0.92908635131E+02 0.  0.
         25    2    1    2    0    0 -0.86734540070E+02  0.19337162511E+03  0.31293869955E+03  0.39808510542E+03  0.12500262257E+03 0.  0.
        -15    1    3    3    0    0  0.51899334631E+01 -0.12190216639E+03  0.21504028168E+02  0.12389308620E+03  0.00000000000E+00 0. -1.
        -15    1    4    4    0    0 -0.13229851876E+01  0.10234910347E+02  0.20560303069E+02  0.23004993847E+02  0.00000000000E+00 0.  1.
         15    1    4    4    0    0 -0.14887173362E+02  0.29656662326E+02  0.27529264752E+02  0.43116191492E+02  0.00000000000E+00 0. -1.
         15    1    3    3    0    0  0.81544606606E+02 -0.71469458712E+02  0.39661148797E+02  0.11545740825E+03  0.00000000000E+00 0.  1.
        -16    1    4    4    0    0 -0.25623737814E+02  0.34984159567E+02  0.56778979646E+02  0.71444523162E+02  0.00000000000E+00 0.  1.
         16    1    4    4    0    0  0.29170572502E+00  0.12602155554E+01  0.33513882281E+01  0.35923583523E+01  0.00000000000E+00 0. -1.
    9900018    1    4    4    0    0 -0.45192349431E+02  0.11723567731E+03  0.20471876385E+03  0.25692703857E+03  0.91187600000E+02 0.  0.
<mgrwt>
<rscale>  0 0.24230440E+03</rscale>
<asrwt>0</asrwt>
<pdfrwt beam="1">  1        2 0.77810728E-01 0.24605105E+03</pdfrwt>
<pdfrwt beam="2">  1       -2 0.20256287E-01 0.24605105E+03</pdfrwt>
<totfact> 0.12629463E+03</totfact>
</mgrwt>
</event>
<event>
11    1  0.8074104E-021  0.1448409E+03  0.7818608E-02  0.1217095E+00
          1   -1    0    0  501    0  0.00000000000E+00  0.00000000000E+00  0.23920933259E+03  0.23920933259E+03  0.00000000000E+00 0. -1.
         -1   -1    0    0    0  501 -0.00000000000E+00 -0.00000000000E+00 -0.76529906627E+02  0.76529906627E+02  0.00000000000E+00 0.  1.
         23    2    1    2    0    0 -0.60327580028E+02 -0.41405171894E+02  0.11338513215E+03  0.16273985674E+03  0.90963001311E+02 0.  0.
         25    2    1    2    0    0  0.60327580028E+02  0.41405171894E+02  0.49294293811E+02  0.15299938248E+03  0.12500031386E+03 0.  0.
        -15    1    4    4    0    0  0.11382396227E+02 -0.19832779459E+01 -0.15200998975E+01  0.11653456096E+02  0.00000000000E+00 0.  1.
        -15    1    3    3    0    0  0.21197737980E+02 -0.26207136766E+02  0.29717208482E+02  0.44936294828E+02  0.00000000000E+00 0.  1.
         15    1    3    3    0    0 -0.81525318008E+02 -0.15198035128E+02  0.83667923672E+02  0.11780356191E+03  0.00000000000E+00 0. -1.
         15    1    4    4    0    0  0.10769552654E+02  0.29890994840E+01  0.53227831053E+01  0.12379418406E+02  0.00000000000E+00 0. -1.
        -16    1    4    4    0    0  0.14711288424E+01  0.71279857574E+01  0.38185861211E+01  0.82191241013E+01  0.00000000000E+00 0.  1.
         16    1    4    4    0    0 -0.68701057172E+01  0.12063533917E+01  0.48941546680E+01  0.85209383864E+01  0.00000000000E+00 0. -1.
    9900018    1    4    4    0    0  0.43574608022E+02  0.32065011207E+02  0.36778869814E+02  0.11222644549E+03  0.91187600000E+02 0.  0.
<mgrwt>
<rscale>  0 0.13723747E+03</rscale>
<asrwt>0</asrwt>
<pdfrwt beam="1">  1        1 0.36801435E-01 0.14484089E+03</pdfrwt>
<pdfrwt beam="2">  1       -1 0.11773832E-01 0.14484089E+03</pdfrwt>
<totfact> 0.52927110E+03</totfact>
</mgrwt>
</event>
<event>
11    1  0.8074104E-021  0.1636509E+03  0.7818608E-02  0.1191735E+00
         -1   -1    0    0    0  501 -0.00000000000E+00  0.00000000000E+00  0.90266750612E+02  0.90266750612E+02  0.00000000000E+00 0.  1.
          1   -1    0    0  501    0  0.00000000000E+00 -0.00000000000E+00 -0.30694875151E+03  0.30694875151E+03  0.00000000000E+00 0. -1.
         23    2    1    2    0    0  0.89401752660E+02 -0.56238966625E+02 -0.19833148777E+02  0.14122511351E+03  0.91627965981E+02 0.  0.
         25    2    1    2    0    0 -0.89401752660E+02  0.56238966625E+02 -0.19684885213E+03  0.25599038862E+03  0.12500445486E+03 0.  0.
        -15    1    3    3    0    0  0.10607368841E+03 -0.56878013570E+02 -0.77215028734E+01  0.12060828084E+03  0.00000000000E+00 0.  1.
        -15    1    4    4    0    0 -0.14413196998E+02  0.44901570932E+01 -0.23436602399E+02  0.27877878155E+02  0.00000000000E+00 0.  1.
         15    1    4    4    0    0 -0.14638436189E+01  0.13072927499E+02 -0.25674049019E+02  0.28847895323E+02  0.00000000000E+00 0. -1.
         15    1    3    3    0    0 -0.16671935753E+02  0.63904694579E+00 -0.12111645903E+02  0.20616832667E+02  0.00000000000E+00 0. -1.
        -16    1    4    4    0    0 -0.60369336634E+01 -0.50810571979E+01 -0.18602724916E+01  0.81069306182E+01  0.00000000000E+00 0.  1.
         16    1    4    4    0    0 -0.41833205371E+01  0.12899175583E+00 -0.38055810988E+01  0.56567885844E+01  0.00000000000E+00 0. -1.
    9900018    1    4    4    0    0 -0.63304457843E+02  0.43627947474E+02 -0.14207234712E+03  0.18550089594E+03  0.91187600000E+02 0.  0.
<mgrwt>
<rscale>  0 0.15733863E+03</rscale>
<asrwt>0</asrwt>
<pdfrwt beam="1">  1        1 0.47222885E-01 0.16365087E+03</pdfrwt>
<pdfrwt beam="2">  1       -1 0.13887192E-01 0.16365087E+03</pdfrwt>
<totfact> 0.30232277E+03</totfact>
</mgrwt>
</event>
<event>
11    1  0.8074104E-021  0.2630998E+03  0.7818608E-02  0.1107684E+00
          1   -1    0    0  501    0  0.00000000000E+00  0.00000000000E+00  0.36475811986E+03  0.36475811986E+03  0.00000000000E+00 0. -1.
         -1   -1    0    0    0  501 -0.00000000000E+00 -0.00000000000E+00 -0.21715509788E+03  0.21715509788E+03  0.00000000000E+00 0.  1.
         23    2    1    2    0    0 -0.22889032287E+03 -0.34722035576E+02  0.19438642671E+03  0.31468633530E+03  0.87435731107E+02 0.  0.
         25    2    1    2    0    0  0.22889032287E+03  0.34722035576E+02 -0.46783404740E+02  0.26722688244E+03  0.12500048031E+03 0.  0.
        -15    1    4    4    0    0  0.31815417639E+02  0.32815197052E+01 -0.19621289499E+02  0.37523115179E+02  0.00000000000E+00 0.  1.
        -15    1    3    3    0    0 -0.21806231326E+02 -0.22999621546E+02  0.59064942335E+02  0.67031050484E+02  0.00000000000E+00 0. -1.
         15    1    4    4    0    0  0.20510343613E+02  0.12605153182E+01 -0.41143001441E+00  0.20553159579E+02  0.00000000000E+00 0. -1.
         15    1    3    3    0    0 -0.20708409155E+03 -0.11722414030E+02  0.13532148438E+03  0.24765528482E+03  0.00000000000E+00 0.  1.
        -16    1    4    4    0    0  0.23244370490E+02  0.15098601694E+01  0.95863437274E+00  0.23313073952E+02  0.00000000000E+00 0.  1.
         16    1    4    4    0    0  0.81898300532E+01  0.73887939087E+01 -0.11281950123E+01  0.11087849914E+02  0.00000000000E+00 0. -1.
    9900018    1    4    4    0    0  0.14513036108E+03  0.21281346474E+02 -0.26581124587E+02  0.17474968381E+03  0.91187600000E+02 0.  0.
<mgrwt>
<rscale>  0 0.25910218E+03</rscale>
<asrwt>0</asrwt>
<pdfrwt beam="1">  1        1 0.56116634E-01 0.26309983E+03</pdfrwt>
<pdfrwt beam="2">  1       -1 0.33408476E-01 0.26309983E+03</pdfrwt>
<totfact> 0.58161970E+02</totfact>
</mgrwt>
</event>
<event>
11    1  0.8074104E-021  0.1518672E+03  0.7818608E-02  0.1207179E+00
         -2   -1    0    0    0  501 -0.00000000000E+00  0.00000000000E+00  0.25926264405E+03  0.25926264405E+03  0.00000000000E+00 0.  1.
          2   -1    0    0  501    0  0.00000000000E+00 -0.00000000000E+00 -0.10372715644E+03  0.10372715644E+03  0.00000000000E+00 0. -1.
         23    2    1    2    0    0  0.75075976850E+02  0.42416320266E+02  0.16931934967E+03  0.21049833368E+03  0.90581233077E+02 0.  0.
         25    2    1    2    0    0 -0.75075976850E+02 -0.42416320266E+02 -0.13783862062E+02  0.15249146680E+03  0.12501242366E+03 0.  0.
        -15    1    4    4    0    0 -0.68830531162E+01 -0.87487518140E+01  0.63173249531E+01  0.12799440342E+02  0.00000000000E+00 0.  1.
        -15    1    3    3    0    0  0.22331128476E+02 -0.91437707671E+01 -0.17611458304E+01  0.24194823362E+02  0.00000000000E+00 0. -1.
         15    1    3    3    0    0  0.52744848374E+02  0.51560091033E+02  0.17108049550E+03  0.18630351032E+03  0.00000000000E+00 0.  1.
         15    1    4    4    0    0 -0.97320766823E+01 -0.55368279766E+01  0.24215966184E+01  0.11455737025E+02  0.00000000000E+00 0. -1.
        -16    1    4    4    0    0  0.31707148927E+01  0.11089099819E+01 -0.16133869619E+01  0.37264100375E+01  0.00000000000E+00 0.  1.
         16    1    4    4    0    0 -0.14813119323E+02 -0.14897782874E+01 -0.96013261329E+01  0.17715343828E+02  0.00000000000E+00 0. -1.
    9900018    1    4    4    0    0 -0.46818442621E+02 -0.27749872170E+02 -0.11308070539E+02  0.10679453557E+03  0.91187600000E+02 0.  0.
<mgrwt>
<rscale>  0 0.14467030E+03</rscale>
<asrwt>0</asrwt>
<pdfrwt beam="1">  1        2 0.15958024E-01 0.15186722E+03</pdfrwt>
<pdfrwt beam="2">  1       -2 0.39886560E-01 0.15186722E+03</pdfrwt>
<totfact> 0.21113807E+03</totfact>
</mgrwt>
</event>
<event>
11    1  0.8074104E-021  0.1601895E+03  0.7818608E-02  0.1195804E+00
          2   -1    0    0  501    0  0.00000000000E+00  0.00000000000E+00  0.60247490597E+03  0.60247490597E+03  0.00000000000E+00 0. -1.
         -2   -1    0    0    0  501 -0.00000000000E+00 -0.00000000000E+00 -0.43224176314E+02  0.43224176314E+02  0.00000000000E+00 0.  1.
         23    2    1    2    0    0  0.94441243355E+02  0.33407823928E+02  0.13354721199E+03  0.19085389432E+03  0.92493891702E+02 0.  0.
         25    2    1    2    0    0 -0.94441243355E+02 -0.33407823928E+02  0.42570351766E+03  0.45484518796E+03  0.12500171563E+03 0.  0.
        -15    1    3    3    0    0 -0.15358444474E+02 -0.27811901562E+01  0.37264804303E+02  0.40401515753E+02  0.00000000000E+00 0. -1.
        -15    1    4    4    0    0 -0.11661098142E+02 -0.57742640929E+01  0.54439815102E+02  0.55973357984E+02  0.00000000000E+00 0.  1.
         15    1    3    3    0    0  0.10979968783E+03  0.36189014084E+02  0.96282407686E+02  0.15045237857E+03  0.00000000000E+00 0.  1.
         15    1    4    4    0    0 -0.11565014719E+02  0.41302536068E+00  0.58151554324E+02  0.59291849572E+02  0.00000000000E+00 0. -1.
        -16    1    4    4    0    0 -0.20543796560E+01  0.19839861014E+00  0.54939192591E+01  0.58688147530E+01  0.00000000000E+00 0.  1.
         16    1    4    4    0    0  0.34539084286E+01  0.31049531170E+01  0.18871086252E+01  0.50131224058E+01  0.00000000000E+00 0. -1.
    9900018    1    4    4    0    0 -0.72614659266E+02 -0.31349936923E+02  0.30573112035E+03  0.32869804324E+03  0.91187600000E+02 0.  0.
<mgrwt>
<rscale>  0 0.15386377E+03</rscale>
<asrwt>0</asrwt>
<pdfrwt beam="1">  1        2 0.92688441E-01 0.16018945E+03</pdfrwt>
<pdfrwt beam="2">  1       -2 0.66498737E-02 0.16018945E+03</pdfrwt>
<totfact> 0.61591808E+03</totfact>
</mgrwt>
</event>
<event>
11    1  0.8074104E-021  0.1876923E+03  0.7818608E-02  0.1166008E+00
          1   -1    0    0  501    0  0.00000000000E+00  0.00000000000E+00  0.64780957853E+03  0.64780957853E+03  0.00000000000E+00 0. -1.
         -1   -1    0    0    0  501 -0.00000000000E+00 -0.00000000000E+00 -0.58785075640E+02  0.58785075640E+02  0.00000000000E+00 0.  1.
         23    2    1    2    0    0 -0.85323008167E+02  0.11100965266E+03  0.42950601464E+03  0.46027263921E+03  0.88160802414E+02 0.  0.
         25    2    1    2    0    0  0.85323008167E+02 -0.11100965266E+03  0.15951848824E+03  0.24632201496E+03  0.12500091302E+03 0.  0.
        -15    1    3    3    0    0  0.17656808658E+02  0.27800740592E+02  0.92930131266E+02  0.98593373847E+02  0.00000000000E+00 0.  1.
        -15    1    4    4    0    0  0.83811085380E+01 -0.81178327576E+01  0.11204350012E+02  0.16176515329E+02  0.00000000000E+00 0.  1.
         15    1    4    4    0    0  0.55205204628E+01 -0.10199482009E+02 -0.40236331373E+01  0.12275797451E+02  0.00000000000E+00 0. -1.
         15    1    3    3    0    0 -0.10297981682E+03  0.83208912064E+02  0.33657588338E+03  0.36167926536E+03  0.00000000000E+00 0. -1.
        -16    1    4    4    0    0  0.45437592658E+01 -0.26751795032E+00  0.13779647104E+02  0.14511925731E+02  0.00000000000E+00 0.  1.
         16    1    4    4    0    0  0.47632237029E+01 -0.94130714097E+01  0.12902739068E+02  0.16666579999E+02  0.00000000000E+00 0. -1.
    9900018    1    4    4    0    0  0.62114396198E+02 -0.83011748529E+02  0.12565538520E+03  0.18669119645E+03  0.91187600000E+02 0.  0.
<mgrwt>
<rscale>  0 0.18186747E+03</rscale>
<asrwt>0</asrwt>
<pdfrwt beam="1">  1        1 0.99663007E-01 0.18769227E+03</pdfrwt>
<pdfrwt beam="2">  1       -1 0.90438583E-02 0.18769227E+03</pdfrwt>
<totfact> 0.22281725E+03</totfact>
</mgrwt>
</event>
<event>
11    1  0.8074104E-021  0.2006376E+03  0.7818608E-02  0.1153367E+00
          2   -1    0    0  501    0  0.00000000000E+00  0.00000000000E+00  0.10679960139E+04  0.10679960139E+04  0.00000000000E+00 0.  1.
         -2   -1    0    0    0  501 -0.00000000000E+00 -0.00000000000E+00 -0.34242217984E+02  0.34242217984E+02  0.00000000000E+00 0. -1.
         23    2    1    2    0    0 -0.14926959167E+03 -0.48455396850E+02  0.49431675329E+03  0.52669693650E+03  0.91821968242E+02 0.  0.
         25    2    1    2    0    0  0.14926959167E+03  0.48455396850E+02  0.53943704262E+03  0.57554129538E+03  0.12500449296E+03 0.  0.
        -15    1    3    3    0    0 -0.72403005427E+02 -0.24158577407E+02  0.10918560874E+03  0.13321910228E+03  0.00000000000E+00 0. -1.
        -15    1    4    4    0    0  0.17902447565E+02  0.63485928842E+01  0.32802335362E+02  0.37905084958E+02  0.00000000000E+00 0.  1.
         15    1    4    4    0    0  0.33934401967E+02  0.94286256491E+01  0.10777534376E+03  0.11338415825E+03  0.00000000000E+00 0. -1.
         15    1    3    3    0    0 -0.76866586240E+02 -0.24296819442E+02  0.38513114455E+03  0.39347783422E+03  0.00000000000E+00 0.  1.
        -16    1    4    4    0    0 -0.10067626891E+01  0.42621093891E+01  0.18805150379E+02  0.19308361617E+02  0.00000000000E+00 0.  1.
         16    1    4    4    0    0  0.29598009470E+01 -0.27531532310E+01  0.13488487206E+02  0.14081177559E+02  0.00000000000E+00 0. -1.
    9900018    1    4    4    0    0  0.95479703877E+02  0.31169222158E+02  0.36656572591E+03  0.39086251300E+03  0.91187600000E+02 0.  0.
<mgrwt>
<rscale>  0 0.19575964E+03</rscale>
<asrwt>0</asrwt>
<pdfrwt beam="1">  1        2 0.16430705E+00 0.20063763E+03</pdfrwt>
<pdfrwt beam="2">  1       -2 0.52680343E-02 0.20063763E+03</pdfrwt>
<totfact> 0.42779104E+03</totfact>
</mgrwt>
</event>
<event>
11    1  0.8074104E-021  0.2413395E+03  0.7818608E-02  0.1121640E+00
         -2   -1    0    0    0  501 -0.00000000000E+00  0.00000000000E+00  0.86621912171E+02  0.86621912171E+02  0.00000000000E+00 0.  1.
          2   -1    0    0  501    0  0.00000000000E+00 -0.00000000000E+00 -0.92375187422E+03  0.92375187422E+03  0.00000000000E+00 0. -1.
         23    2    1    2    0    0  0.12480053348E+03  0.16445183660E+03 -0.12341614203E+03  0.25696009570E+03  0.90428794922E+02 0.  0.
         25    2    1    2    0    0 -0.12480053348E+03 -0.16445183660E+03 -0.71371382002E+03  0.75341369068E+03  0.12500077083E+03 0.  0.
        -15    1    4    4    0    0 -0.66453363836E+01 -0.99258626375E+01 -0.27751232587E+02  0.30212814415E+02  0.00000000000E+00 0.  1.
        -15    1    3    3    0    0  0.37468180148E+02  0.12323372935E+03 -0.71565731095E+02  0.14735016267E+03  0.00000000000E+00 0.  1.
         15    1    3    3    0    0  0.87332353335E+02  0.41218107253E+02 -0.51850410934E+02  0.10960993303E+03  0.00000000000E+00 0. -1.
         15    1    4    4    0    0 -0.25525368613E+02 -0.20138323535E+02 -0.10183308473E+03  0.10689749138E+03  0.00000000000E+00 0. -1.
        -16    1    4    4    0    0 -0.11266178740E+01  0.25017747947E+01 -0.27044474817E+02  0.27183299342E+02  0.00000000000E+00 0.  1.
         16    1    4    4    0    0 -0.13933299177E+01  0.15284993089E+01 -0.21166859444E+01  0.29593982132E+01  0.00000000000E+00 0. -1.
    9900018    1    4    4    0    0 -0.90109880694E+02 -0.13841792453E+03 -0.55496834194E+03  0.58616068734E+03  0.91187600000E+02 0.  0.
<mgrwt>
<rscale>  0 0.23724718E+03</rscale>
<asrwt>0</asrwt>
<pdfrwt beam="1">  1        2 0.14211567E+00 0.24133954E+03</pdfrwt>
<pdfrwt beam="2">  1       -2 0.13326448E-01 0.24133954E+03</pdfrwt>
<totfact> 0.12226984E+03</totfact>
</mgrwt>
</event>
<event>
11    1  0.8074104E-021  0.2717895E+03  0.7818608E-02  0.1102175E+00
         -5   -1    0    0    0  501 -0.00000000000E+00  0.00000000000E+00  0.95525699099E+02  0.95525699099E+02  0.00000000000E+00 0.  1.
          5   -1    0    0  501    0  0.00000000000E+00 -0.00000000000E+00 -0.11277420107E+04  0.11277420107E+04  0.00000000000E+00 0. -1.
         23    2    1    2    0    0 -0.23306138828E+03  0.62664335283E+02 -0.86801330867E+03  0.90572691099E+03  0.93003782911E+02 0.  0.
         25    2    1    2    0    0  0.23306138828E+03 -0.62664335283E+02 -0.16420300294E+03  0.31754079882E+03  0.12500041247E+03 0.  0.
        -15    1    4    4    0    0  0.10911521334E+02  0.52725206280E+00 -0.52769836441E+01  0.12132017513E+02  0.00000000000E+00 0.  1.
        -15    1    3    3    0    0 -0.17740454900E+03  0.84736340643E+02 -0.61191805319E+03  0.64272569985E+03  0.00000000000E+00 0.  1.
         15    1    3    3    0    0 -0.55656839283E+02 -0.22072005359E+02 -0.25609525548E+03  0.26300121113E+03  0.00000000000E+00 0. -1.
         15    1    4    4    0    0  0.14231458099E+02  0.85062008059E+01 -0.11432432845E+02  0.20139274380E+02  0.00000000000E+00 0. -1.
        -16    1    4    4    0    0  0.15942169371E+02 -0.92053453529E+01 -0.30738022177E+01  0.18663852963E+02  0.00000000000E+00 0.  1.
         16    1    4    4    0    0  0.14524245446E+02 -0.69040036692E+01 -0.46316859982E+01  0.16735336495E+02  0.00000000000E+00 0. -1.
    9900018    1    4    4    0    0  0.17745199403E+03 -0.55588439130E+02 -0.13978809824E+03  0.24987031747E+03  0.91187600000E+02 0.  0.
<mgrwt>
<rscale>  0 0.26844048E+03</rscale>
<asrwt>0</asrwt>
<pdfrwt beam="1">  1        5 0.17349877E+00 0.27178950E+03</pdfrwt>
<pdfrwt beam="2">  1       -5 0.14696262E-01 0.27178950E+03</pdfrwt>
<totfact> 0.63235143E+00</totfact>
</mgrwt>
</event>
<event>
11    1  0.8074105E-021  0.1639723E+03  0.7818608E-02  0.1191892E+00
         -2   -1    0    0    0  501 -0.00000000000E+00  0.00000000000E+00  0.28357968212E+03  0.28357968212E+03  0.00000000000E+00 0.  1.
          2   -1    0    0  501    0  0.00000000000E+00 -0.00000000000E+00 -0.96196176195E+02  0.96196176195E+02  0.00000000000E+00 0. -1.
         23    2    1    2    0    0  0.10572226199E+03  0.93663917926E+01  0.16314694903E+03  0.21402208499E+03  0.89014605025E+02 0.  0.
         25    2    1    2    0    0 -0.10572226199E+03 -0.93663917926E+01  0.24236556896E+02  0.16575377333E+03  0.12498790624E+03 0.  0.
        -15    1    4    4    0    0 -0.17295812618E+02 -0.54128962279E+01  0.11658310230E+02  0.21549031930E+02  0.00000000000E+00 0.  1.
        -15    1    3    3    0    0  0.80003888680E+02 -0.29922341837E+02  0.72927757641E+02  0.11231396431E+03  0.00000000000E+00 0.  1.
         15    1    4    4    0    0 -0.16535190656E+02  0.65105184634E+01  0.33043110198E+01  0.18075338226E+02  0.00000000000E+00 0. -1.
         15    1    3    3    0    0  0.25718373314E+02  0.39288733630E+02  0.90219191389E+02  0.10170812067E+03  0.00000000000E+00 0. -1.
        -16    1    4    4    0    0  0.80542607474E+00  0.92102564899E+00 -0.18480216989E+00  0.12373969654E+01  0.00000000000E+00 0.  1.
         16    1    4    4    0    0  0.75506930523E+00  0.26801889935E+01 -0.53517052996E+01  0.60327682129E+01  0.00000000000E+00 0. -1.
    9900018    1    4    4    0    0 -0.73451754100E+02 -0.14065228671E+02  0.14810443116E+02  0.11885923800E+03  0.91187600000E+02 0.  0.
<mgrwt>
<rscale>  0 0.15720197E+03</rscale>
<asrwt>0</asrwt>
<pdfrwt beam="1">  1        2 0.14799412E-01 0.16397226E+03</pdfrwt>
<pdfrwt beam="2">  1       -2 0.43627643E-01 0.16397226E+03</pdfrwt>
<totfact> 0.19495271E+03</totfact>
</mgrwt>
</event>
<event>
11    1  0.8074104E-021  0.2409788E+03  0.7818608E-02  0.1121396E+00
          1   -1    0    0  501    0  0.00000000000E+00  0.00000000000E+00  0.90908119068E+03  0.90908119068E+03  0.00000000000E+00 0. -1.
         -1   -1    0    0    0  501 -0.00000000000E+00 -0.00000000000E+00 -0.60563240031E+02  0.60563240031E+02  0.00000000000E+00 0.  1.
         23    2    1    2    0    0  0.18680810355E+03 -0.86894676370E+02  0.43532557083E+03  0.49131535797E+03  0.97131230953E+02 0.  0.
         25    2    1    2    0    0 -0.18680810355E+03  0.86894676370E+02  0.41319237982E+03  0.47832907274E+03  0.12499122670E+03 0.  0.
        -15    1    3    3    0    0  0.66519356595E+02 -0.84389566678E+02  0.20743316734E+03  0.23361280504E+03  0.00000000000E+00 0. -1.
        -15    1    4    4    0    0 -0.45454369787E+02  0.23625504457E+02  0.10502122505E+03  0.11684914165E+03  0.00000000000E+00 0.  1.
         15    1    3    3    0    0  0.12028874696E+03 -0.25051096918E+01  0.22789240349E+03  0.25770255293E+03  0.00000000000E+00 0.  1.
         15    1    4    4    0    0 -0.10298424064E+02  0.99540232246E+01  0.17795098209E+02  0.22843065399E+02  0.00000000000E+00 0. -1.
        -16    1    4    4    0    0 -0.62419200743E+01  0.30000389785E+01  0.65311949722E+01  0.95193648870E+01  0.00000000000E+00 0.  1.
         16    1    4    4    0    0 -0.84865590441E+01 -0.22077433986E+01  0.24525917820E+02  0.26046428934E+02  0.00000000000E+00 0. -1.
    9900018    1    4    4    0    0 -0.11632683058E+03  0.52522853109E+02  0.25931894376E+03  0.30307107187E+03  0.91187600000E+02 0.  0.
<mgrwt>
<rscale>  0 0.23760830E+03</rscale>
<asrwt>0</asrwt>
<pdfrwt beam="1">  1        1 0.13985863E+00 0.24097875E+03</pdfrwt>
<pdfrwt beam="2">  1       -1 0.93174222E-02 0.24097875E+03</pdfrwt>
<totfact> 0.12791078E+03</totfact>
</mgrwt>
</event>
<event>
11    1  0.8074104E-021  0.1888736E+03  0.7818608E-02  0.1164592E+00
         -1   -1    0    0    0  501 -0.00000000000E+00  0.00000000000E+00  0.26540792067E+03  0.26540792067E+03  0.00000000000E+00 0.  1.
          1   -1    0    0  501    0  0.00000000000E+00 -0.00000000000E+00 -0.33170876921E+03  0.33170876921E+03  0.00000000000E+00 0. -1.
         23    2    1    2    0    0  0.14494106104E+02 -0.14084403072E+03 -0.27091798066E+03  0.31865414476E+03  0.89982173918E+02 0.  0.
         25    2    1    2    0    0 -0.14494106104E+02  0.14084403072E+03  0.20461713212E+03  0.27846254512E+03  0.12500439262E+03 0.  0.
        -15    1    3    3    0    0 -0.30692439860E+02 -0.88968319266E+02 -0.19291456390E+03  0.21464719113E+03  0.00000000000E+00 0.  1.
        -15    1    4    4    0    0 -0.51061699901E+01  0.15298379261E+02  0.28374474163E+02  0.32637772044E+02  0.00000000000E+00 0.  1.
         15    1    4    4    0    0 -0.14079499830E+02  0.28562395185E+01  0.15195926673E+02  0.20911877177E+02  0.00000000000E+00 0. -1.
         15    1    3    3    0    0  0.45186545963E+02 -0.51875711453E+02 -0.78003416765E+02  0.10400695362E+03  0.00000000000E+00 0. -1.
        -16    1    4    4    0    0  0.20157934823E+01  0.89072454439E+01  0.10384427103E+02  0.13828910695E+02  0.00000000000E+00 0.  1.
         16    1    4    4    0    0  0.16541757279E+01  0.54271566044E+01  0.98757873366E+01  0.11389534743E+02  0.00000000000E+00 0. -1.
    9900018    1    4    4    0    0  0.10215945058E+01  0.10835500989E+03  0.14078651685E+03  0.19969445046E+03  0.91187600000E+02 0.  0.
<mgrwt>
<rscale>  0 0.18335866E+03</rscale>
<asrwt>0</asrwt>
<pdfrwt beam="1">  1        1 0.51032118E-01 0.18887355E+03</pdfrwt>
<pdfrwt beam="2">  1       -1 0.40831988E-01 0.18887355E+03</pdfrwt>
<totfact> 0.46266711E+02</totfact>
</mgrwt>
</event>
