<event>
11    1  0.3622533E-016  0.3425078E+04  0.7818608E-02  0.8428429E-01
         -1   -1    0    0    0  501 -0.00000000000E+00  0.00000000000E+00  0.18990023067E+04  0.18990023067E+04  0.00000000000E+00 0.  1.
          1   -1    0    0  501    0  0.00000000000E+00 -0.00000000000E+00 -0.24729741448E+04  0.24729741448E+04  0.00000000000E+00 0. -1.
    9900016    2    1    2    0    0 -0.10362236014E+03  0.23283694268E+03  0.33557168894E+03  0.22797825278E+04  0.22405020375E+04 0.  0.
        -24    2    3    3    0    0 -0.70317137710E+02 -0.29667784555E+03 -0.85233480314E+03  0.90784365483E+03  0.68871191990E+02 0.  0.
        -15    1    3    3    0    0 -0.22639100619E+02  0.48436943204E+03  0.11720670801E+04  0.12684114142E+04  0.00000000000E+00 0.  1.
        -15    1    1    2    0    0  0.45654608149E+03 -0.24972660374E+03  0.17841206313E+03  0.55011686523E+03  0.00000000000E+00 0.  1.
         15    1    4    4    0    0 -0.41917576152E+02 -0.16730436078E+03 -0.38041365997E+03  0.41768694619E+03  0.00000000000E+00 0. -1.
         15    1    1    2    0    0  0.26443337722E+03  0.18338883764E+03 -0.53882956994E+02  0.32628185639E+03  0.00000000000E+00 0. -1.
        -16    1    4    4    0    0 -0.28399561559E+02 -0.12937348476E+03 -0.47192114317E+03  0.49015670864E+03  0.00000000000E+00 0.  1.
         16    1    1    2    0    0 -0.61735709857E+03 -0.16649917658E+03 -0.10340726331E+04  0.12157952021E+04  0.00000000000E+00 0. -1.
    9900018    1    3    3    0    0 -0.10666121810E+02  0.45145356187E+02  0.15839412001E+02  0.10352745871E+03  0.91187600000E+02 0.  0.
<mgrwt>
<rscale>  0 0.24298028E+04</rscale>
<asrwt>0</asrwt>
<pdfrwt beam="1">  1        1 0.38045756E+00 0.34250781E+04</pdfrwt>
<pdfrwt beam="2">  1       -1 0.29215420E+00 0.34250781E+04</pdfrwt>
<totfact> 0.41880935E-02</totfact>
</mgrwt>
</event>
<event>
10    1  0.3622533E-016  0.4091621E+04  0.7818608E-02  0.8231217E-01
         -2   -1    0    0    0  501 -0.00000000000E+00  0.00000000000E+00  0.20303122249E+04  0.20303122249E+04  0.00000000000E+00 0.  1.
          2   -1    0    0  501    0  0.00000000000E+00 -0.00000000000E+00 -0.35277478989E+04  0.35277478989E+04  0.00000000000E+00 0. -1.
    9900016    2    1    2    0    0  0.36662169793E+03  0.57245279462E+03  0.99953877444E+02  0.22610316732E+04  0.21541030102E+04 0.  0.
        -15    1    3    3    0    0 -0.69579786766E+03  0.86737377427E+03 -0.15447907535E+03  0.11226467484E+04  0.00000000000E+00 0.  1.
        -15    1    1    2    0    0  0.52447534973E+03  0.66462788156E+03  0.44598521769E+02  0.84781698590E+03  0.00000000000E+00 0.  1.
         15    1    3    3    0    0  0.49331204899E+03 -0.19421350690E+03  0.92459388484E+02  0.53816763416E+03  0.00000000000E+00 0. -1.
         15    1    1    2    0    0 -0.10850771554E+02 -0.32636868677E+03 -0.27504510220E+03  0.42694738223E+03  0.00000000000E+00 0. -1.
        -16    1    3    3    0    0  0.56910751660E+03 -0.10070747276E+03  0.16197356431E+03  0.60021729070E+03  0.00000000000E+00 0.  1.
         16    1    1    2    0    0 -0.88810534999E+03 -0.95361581135E+03 -0.14031181752E+04  0.19149033505E+04  0.00000000000E+00 0. -1.
    9900018    1    1    2    0    0  0.78590738762E+01  0.42903821937E+02  0.36175204188E+02  0.10736073198E+03  0.91187600000E+02 0.  0.
<mgrwt>
<rscale>  0 0.30442148E+04</rscale>
<asrwt>0</asrwt>
<pdfrwt beam="1">  1        2 0.54273044E+00 0.40916208E+04</pdfrwt>
<pdfrwt beam="2">  1       -2 0.31235573E+00 0.40916208E+04</pdfrwt>
<totfact> 0.15555000E-02</totfact>
</mgrwt>
</event>
<event>
10    1  0.3622533E-016  0.3750778E+04  0.7818608E-02  0.8210552E-01
          1   -1    0    0  501    0  0.00000000000E+00  0.00000000000E+00  0.21795212992E+04  0.21795212992E+04  0.00000000000E+00 0. -1.
         -1   -1    0    0    0  501 -0.00000000000E+00 -0.00000000000E+00 -0.43551484992E+04  0.43551484992E+04  0.00000000000E+00 0.  1.
    9900016    2    1    2    0    0 -0.19550875311E+03 -0.60435364667E+03 -0.99601229501E+03  0.24537457303E+04  0.21506651563E+04 0.  0.
        -15    1    3    3    0    0 -0.40846133166E+03 -0.10227899843E+03 -0.92809331484E+03  0.10191461397E+04  0.00000000000E+00 0.  1.
        -15    1    1    2    0    0  0.85456926799E+03  0.26106108003E+03  0.63741945640E+03  0.10976088031E+04  0.00000000000E+00 0.  1.
         15    1    1    2    0    0 -0.29013549583E+03 -0.72755199204E+03 -0.62337756762E+02  0.78574582594E+03  0.00000000000E+00 0. -1.
         15    1    3    3    0    0  0.36350905296E+03 -0.36490467145E+03  0.56806023882E+03  0.76680289890E+03  0.00000000000E+00 0. -1.
        -16    1    1    2    0    0 -0.37846135031E+03  0.11359671043E+04 -0.16782160631E+04  0.20615681920E+04  0.00000000000E+00 0.  1.
         16    1    3    3    0    0 -0.15055647440E+03 -0.13716997679E+03 -0.63597921900E+03  0.66779669175E+03  0.00000000000E+00 0. -1.
    9900018    1    1    2    0    0  0.95363312457E+01 -0.65122545659E+02 -0.76480541531E+02  0.13600124703E+03  0.91187600000E+02 0.  0.
<mgrwt>
<rscale>  0 0.31189661E+04</rscale>
<asrwt>0</asrwt>
<pdfrwt beam="1">  1        1 0.33531097E+00 0.37507777E+04</pdfrwt>
<pdfrwt beam="2">  1       -1 0.67002284E+00 0.37507777E+04</pdfrwt>
<totfact> 0.42434828E-04</totfact>
</mgrwt>
</event>
<event>
10    1  0.3622533E-016  0.3159736E+04  0.7818608E-02  0.8396227E-01
          1   -1    0    0  501    0  0.00000000000E+00  0.00000000000E+00  0.26717482275E+04  0.26717482275E+04  0.00000000000E+00 0. -1.
         -1   -1    0    0    0  501 -0.00000000000E+00 -0.00000000000E+00 -0.25338779120E+04  0.25338779120E+04  0.00000000000E+00 0.  1.
    9900016    2    1    2    0    0  0.16949929730E+03 -0.42715505698E+03  0.86864230899E+03  0.23659940582E+04  0.21522539274E+04 0.  0.
        -15    1    1    2    0    0  0.73372999102E+03  0.23404665219E+03 -0.11335528400E+04  0.13704304347E+04  0.00000000000E+00 0.  1.
        -15    1    3    3    0    0 -0.27441582743E+03  0.61956214548E+03  0.10070630032E+04  0.12138110194E+04  0.00000000000E+00 0.  1.
         15    1    1    2    0    0 -0.61342826855E+02  0.38114232618E+03 -0.87162318517E+02  0.39576468385E+03  0.00000000000E+00 0. -1.
         15    1    3    3    0    0  0.10230740485E+03 -0.37592533914E+03 -0.19546174313E+02  0.39008809085E+03  0.00000000000E+00 0. -1.
        -16    1    3    3    0    0  0.34160771987E+03 -0.67079186332E+03 -0.11887451989E+03  0.76209494792E+03  0.00000000000E+00 0.  1.
         16    1    1    2    0    0 -0.82742286444E+03 -0.17064589236E+03  0.49532168216E+03  0.97933252065E+03  0.00000000000E+00 0. -1.
    9900018    1    1    2    0    0 -0.14463597029E+02 -0.17388029023E+02 -0.53785171056E+01  0.94104442150E+02  0.91187600000E+02 0.  0.
<mgrwt>
<rscale>  0 0.25190583E+04</rscale>
<asrwt>0</asrwt>
<pdfrwt beam="1">  1        1 0.41103819E+00 0.31597359E+04</pdfrwt>
<pdfrwt beam="2">  1       -1 0.38982737E+00 0.31597359E+04</pdfrwt>
<totfact> 0.68466369E-03</totfact>
</mgrwt>
</event>
<event>
10    1  0.3622533E-016  0.4633803E+04  0.7818608E-02  0.7887622E-01
         -2   -1    0    0    0  501 -0.00000000000E+00  0.00000000000E+00  0.17247666084E+04  0.17247666084E+04  0.00000000000E+00 0.  1.
          2   -1    0    0  501    0  0.00000000000E+00 -0.00000000000E+00 -0.31123240905E+04  0.31123240905E+04  0.00000000000E+00 0. -1.
    9900016    2    1    2    0    0 -0.32483669977E+03 -0.13655937106E+03 -0.62996118785E+03  0.23561721133E+04  0.22428839885E+04 0.  0.
        -15    1    1    2    0    0  0.47473697099E+03  0.61207648707E+02  0.33128719607E+03  0.58212779882E+03  0.00000000000E+00 0.  1.
        -15    1    3    3    0    0 -0.17174408292E+03 -0.26240418174E+02 -0.14872798217E+03  0.22870199440E+03  0.00000000000E+00 0.  1.
         15    1    1    2    0    0 -0.22099016393E+03 -0.27551772762E+03 -0.13880283287E+04  0.14322602111E+04  0.00000000000E+00 0. -1.
         15    1    3    3    0    0  0.78497004236E+03 -0.24561982194E+03  0.23319118917E+03  0.85491823880E+03  0.00000000000E+00 0. -1.
        -16    1    1    2    0    0  0.71089892719E+02  0.35086944998E+03  0.29914483834E+03  0.46653057572E+03  0.00000000000E+00 0.  1.
         16    1    3    3    0    0 -0.93304447561E+03  0.17507985222E+03 -0.67761178531E+03  0.11663544400E+04  0.00000000000E+00 0. -1.
    9900018    1    3    3    0    0 -0.50181836040E+01 -0.39778983168E+02 -0.36812609533E+02  0.10619744010E+03  0.91187600000E+02 0.  0.
<mgrwt>
<rscale>  0 0.46338030E+04</rscale>
<asrwt>0</asrwt>
<pdfrwt beam="1">  1        2 0.47881909E+00 0.46338030E+04</pdfrwt>
<pdfrwt beam="2">  1       -2 0.26534871E+00 0.46338030E+04</pdfrwt>
<totfact> 0.57273984E-02</totfact>
</mgrwt>
</event>
<event>
10    1  0.3622533E-016  0.4602454E+04  0.7818608E-02  0.8361398E-01
          2   -1    0    0  501    0  0.00000000000E+00  0.00000000000E+00  0.47645843987E+04  0.47645843987E+04  0.00000000000E+00 0. -1.
         -2   -1    0    0    0  501 -0.00000000000E+00 -0.00000000000E+00 -0.18530409679E+04  0.18530409679E+04  0.00000000000E+00 0.  1.
    9900016    2    1    2    0    0 -0.51759819112E+03  0.36432269182E+03  0.22857036758E+04  0.32664413659E+04  0.22460095708E+04 0.  0.
        -15    1    1    2    0    0 -0.10505175027E+03 -0.22268429414E+03  0.68428241543E+03  0.72723214255E+03  0.00000000000E+00 0.  1.
        -15    1    3    3    0    0 -0.22504876756E+03 -0.21455560645E+03  0.33831238789E+03  0.45949573213E+03  0.00000000000E+00 0.  1.
         15    1    1    2    0    0 -0.16505157976E+03  0.13684069183E+03  0.11416887071E+04  0.11616456012E+04  0.00000000000E+00 0. -1.
         15    1    3    3    0    0  0.56247040152E+03  0.85898117491E+03  0.10473365602E+04  0.14666749748E+04  0.00000000000E+00 0. -1.
        -16    1    1    2    0    0  0.78770152115E+03 -0.27847908951E+03 -0.12001313675E+04  0.14623062569E+04  0.00000000000E+00 0.  1.
         16    1    3    3    0    0 -0.84869257324E+03 -0.28108109941E+03  0.76204869768E+03  0.11747356664E+04  0.00000000000E+00 0. -1.
    9900018    1    3    3    0    0 -0.63272518284E+01  0.97822276870E+00  0.13800603010E+03  0.16553499259E+03  0.91187600000E+02 0.  0.
<mgrwt>
<rscale>  0 0.26201238E+04</rscale>
<asrwt>0</asrwt>
<pdfrwt beam="1">  1        2 0.73301298E+00 0.46024544E+04</pdfrwt>
<pdfrwt beam="2">  1       -2 0.28508323E+00 0.46024544E+04</pdfrwt>
<totfact> 0.18194110E-03</totfact>
</mgrwt>
</event>
<event>
11    1  0.3622533E-016  0.3672832E+04  0.7818608E-02  0.8236967E-01
         -1   -1    0    0    0  501 -0.00000000000E+00  0.00000000000E+00  0.29168015943E+04  0.29168015943E+04  0.00000000000E+00 0.  1.
          1   -1    0    0  501    0  0.00000000000E+00 -0.00000000000E+00 -0.31148085741E+04  0.31148085741E+04  0.00000000000E+00 0. -1.
    9900016    2    1    2    0    0 -0.69658614866E+03 -0.33782644455E+03 -0.26803858512E+02  0.23719191028E+04  0.22418570013E+04 0.  0.
        -24    2    3    3    0    0 -0.11243580717E+04  0.30337920045E+03 -0.61446702984E+03  0.13199612510E+04  0.92238607942E+02 0.  0.
        -15    1    1    2    0    0 -0.60051069905E+03  0.71442790915E+03  0.91288097111E+03  0.13055159917E+04  0.00000000000E+00 0.  1.
        -15    1    3    3    0    0  0.43588780103E+03 -0.60391167034E+03  0.59436454758E+03  0.95287811187E+03  0.00000000000E+00 0.  1.
         15    1    4    4    0    0 -0.95606200796E+03  0.23625089447E+03 -0.48875668767E+03  0.10994326482E+04  0.00000000000E+00 0. -1.
         15    1    1    2    0    0  0.59553376785E+03 -0.39755706739E+03  0.32011114774E+03  0.78433617627E+03  0.00000000000E+00 0. -1.
        -16    1    4    4    0    0 -0.16829606374E+03  0.67128305983E+02 -0.12571034216E+03  0.22052860282E+03  0.00000000000E+00 0.  1.
         16    1    1    2    0    0  0.70156307986E+03  0.20955602790E+02 -0.14041952401E+04  0.15698388977E+04  0.00000000000E+00 0. -1.
    9900018    1    3    3    0    0 -0.81158779935E+01 -0.37293974663E+02 -0.67013762555E+01  0.99079739903E+02  0.91187600000E+02 0.  0.
<mgrwt>
<rscale>  0 0.30238018E+04</rscale>
<asrwt>0</asrwt>
<pdfrwt beam="1">  1        1 0.47920132E+00 0.36728324E+04</pdfrwt>
<pdfrwt beam="2">  1       -1 0.44873871E+00 0.36728324E+04</pdfrwt>
<totfact> 0.12237614E-03</totfact>
</mgrwt>
</event>
<event>
11    1  0.3622533E-016  0.3897052E+04  0.7818608E-02  0.8025643E-01
          2   -1    0    0  501    0  0.00000000000E+00  0.00000000000E+00  0.33920239199E+04  0.33920239199E+04  0.00000000000E+00 0. -1.
         -2   -1    0    0    0  501 -0.00000000000E+00 -0.00000000000E+00 -0.11193178075E+04  0.11193178075E+04  0.00000000000E+00 0.  1.
    9900016    2    1    2    0    0 -0.57458874123E+03  0.36791934526E+03  0.16053565812E+04  0.27820049814E+04  0.21672252069E+04 0.  0.
        -24    2    3    3    0    0 -0.43831626364E+03 -0.74334789733E+02 -0.47306454778E+03  0.65268741521E+03  0.67557291789E+02 0.  0.
        -15    1    1    2    0    0 -0.32609836438E+03 -0.32062045310E+03  0.87506838732E+02  0.46561256966E+03  0.00000000000E+00 0.  1.
        -15    1    3    3    0    0 -0.13627247759E+03  0.44225413499E+03  0.20784211290E+04  0.21293175662E+04  0.00000000000E+00 0.  1.
         15    1    1    2    0    0  0.66695857560E+03 -0.22598007442E+03  0.22675247675E+03  0.73980904381E+03  0.00000000000E+00 0. -1.
         15    1    4    4    0    0 -0.72796950045E+02 -0.19808264555E+02 -0.11891880417E+03  0.14083126523E+03  0.00000000000E+00 0. -1.
        -16    1    4    4    0    0 -0.36551931359E+03 -0.54526525178E+02 -0.35414574361E+03  0.51185614998E+03  0.00000000000E+00 0.  1.
         16    1    1    2    0    0  0.24515140571E+03  0.15922133709E+03  0.28130874316E+03  0.40569108307E+03  0.00000000000E+00 0. -1.
    9900018    1    1    2    0    0 -0.11422875698E+02  0.19459845176E+02  0.71781472553E+02  0.11822404941E+03  0.91187600000E+02 0.  0.
<mgrwt>
<rscale>  0 0.38970516E+04</rscale>
<asrwt>0</asrwt>
<pdfrwt beam="1">  1        2 0.52184983E+00 0.38970516E+04</pdfrwt>
<pdfrwt beam="2">  1       -2 0.17220274E+00 0.38970516E+04</pdfrwt>
<totfact> 0.15765859E-01</totfact>
</mgrwt>
</event>
<event>
11    1  0.3622533E-016  0.5949396E+04  0.7818608E-02  0.7696708E-01
         -2   -1    0    0    0  501 -0.00000000000E+00  0.00000000000E+00  0.23986077504E+04  0.23986077504E+04  0.00000000000E+00 0. -1.
          2   -1    0    0  501    0  0.00000000000E+00 -0.00000000000E+00 -0.36891516786E+04  0.36891516786E+04  0.00000000000E+00 0.  1.
    9900016    2    1    2    0    0  0.91457360255E+03  0.12179807195E+04  0.28128521586E+03  0.26561397525E+04  0.21577847679E+04 0.  0.
         24    2    3    3    0    0  0.12753499050E+04  0.75116334020E+03 -0.59780132490E+03  0.15974277274E+04  0.60375296281E+02 0.  0.
        -15    1    1    2    0    0 -0.36139567303E+03  0.34561099132E+02 -0.25221678504E+03  0.44205724597E+03  0.00000000000E+00 0.  1.
        -15    1    4    4    0    0  0.96204992163E+03  0.54925752218E+03 -0.47033182796E+03  0.12035098279E+04  0.00000000000E+00 0.  1.
         15    1    3    3    0    0 -0.36077630240E+03  0.46681737930E+03  0.87908654076E+03  0.10587120251E+04  0.00000000000E+00 0. -1.
         15    1    1    2    0    0  0.41854971770E+03 -0.14410596136E+04 -0.45731811104E+03  0.15687499899E+04  0.00000000000E+00 0. -1.
        -16    1    1    2    0    0 -0.98550081698E+03  0.12731809570E+03 -0.85326379027E+03  0.13097636632E+04  0.00000000000E+00 0.  1.
         16    1    4    4    0    0  0.31329998332E+03  0.20190581802E+03 -0.12746949694E+03  0.39391789950E+03  0.00000000000E+00 0. -1.
    9900018    1    1    2    0    0  0.13773169767E+02  0.61199699242E+02 -0.90304577228E+01  0.11104877736E+03  0.91187600000E+02 0.  0.
<mgrwt>
<rscale>  0 0.59493959E+04</rscale>
<asrwt>0</asrwt>
<pdfrwt beam="1">  1        2 0.56756179E+00 0.59493959E+04</pdfrwt>
<pdfrwt beam="2">  1       -2 0.36901658E+00 0.59493959E+04</pdfrwt>
<totfact> 0.47195820E-03</totfact>
</mgrwt>
</event>
<event>
11    1  0.3622533E-016  0.3295866E+04  0.7818608E-02  0.8482043E-01
          2   -1    0    0  501    0  0.00000000000E+00  0.00000000000E+00  0.22354465829E+04  0.22354465829E+04  0.00000000000E+00 0. -1.
         -2   -1    0    0    0  501 -0.00000000000E+00 -0.00000000000E+00 -0.18624275418E+04  0.18624275418E+04  0.00000000000E+00 0.  1.
    9900016    2    1    2    0    0 -0.61849455174E+03 -0.56833240935E+03  0.31710048816E+03  0.23289830078E+04  0.21489699609E+04 0.  0.
        -24    2    3    3    0    0 -0.53442270320E+03  0.77720544085E+03  0.25530846744E+03  0.97940587554E+03  0.66313893882E+02 0.  0.
        -15    1    1    2    0    0 -0.29122959577E+03  0.28499591155E+03 -0.20304405782E+03  0.45526282131E+03  0.00000000000E+00 0.  1.
        -15    1    3    3    0    0 -0.84071848540E+02 -0.13455378502E+04  0.61792020723E+02  0.13495771322E+04  0.00000000000E+00 0.  1.
         15    1    4    4    0    0 -0.34373285825E+03  0.50448065925E+03  0.19776946966E+03  0.64168978216E+03  0.00000000000E+00 0. -1.
         15    1    1    2    0    0  0.23090820649E+03 -0.17540226039E+03  0.12597290424E+03  0.31615459095E+03  0.00000000000E+00 0. -1.
        -16    1    4    4    0    0 -0.19068984495E+03  0.27272478160E+03  0.57538997781E+02  0.33771609339E+03  0.00000000000E+00 0.  1.
         16    1    1    2    0    0  0.74618038037E+03  0.45550987372E+03  0.10386521722E+03  0.88037627663E+03  0.00000000000E+00 0. -1.
    9900018    1    1    2    0    0 -0.67364439349E+02  0.32288844584E+01  0.29124489294E+02  0.11709742804E+03  0.91187600000E+02 0.  0.
<mgrwt>
<rscale>  0 0.22895753E+04</rscale>
<asrwt>0</asrwt>
<pdfrwt beam="1">  1        2 0.34391486E+00 0.32958661E+04</pdfrwt>
<pdfrwt beam="2">  1       -2 0.28652731E+00 0.32958661E+04</pdfrwt>
<totfact> 0.15413583E-01</totfact>
</mgrwt>
</event>
<event>
10    1  0.3622533E-016  0.3187199E+04  0.7818608E-02  0.8310895E-01
          2   -1    0    0  501    0  0.00000000000E+00  0.00000000000E+00  0.32956498197E+04  0.32956498197E+04  0.00000000000E+00 0. -1.
         -2   -1    0    0    0  501 -0.00000000000E+00 -0.00000000000E+00 -0.19190851673E+04  0.19190851673E+04  0.00000000000E+00 0.  1.
    9900016    2    1    2    0    0  0.39225870730E+03  0.17287413595E+03  0.56252476595E+03  0.23558982158E+04  0.22472360647E+04 0.  0.
        -15    1    3    3    0    0  0.15117141853E+03 -0.30617673907E+03  0.92323263218E+03  0.98435536594E+03  0.00000000000E+00 0.  1.
        -15    1    1    2    0    0  0.65647589948E+03  0.61253030975E+03  0.15646013348E+03  0.91139111272E+03  0.00000000000E+00 0.  1.
         15    1    3    3    0    0  0.14660142459E+03  0.57749410272E+03 -0.68984978304E+03  0.91152846336E+03  0.00000000000E+00 0. -1.
         15    1    1    2    0    0 -0.10756301702E+04 -0.10667852312E+04  0.40440539095E+03  0.15679779057E+04  0.00000000000E+00 0. -1.
        -16    1    1    2    0    0  0.26895563452E+02  0.28138078551E+03  0.25317436200E+03  0.37946775273E+03  0.00000000000E+00 0.  1.
         16    1    3    3    0    0  0.48499690883E+02 -0.11291230141E+03  0.33487246553E+03  0.35670853087E+03  0.00000000000E+00 0. -1.
    9900018    1    3    3    0    0  0.45986173303E+02  0.14469073711E+02 -0.57305487262E+01  0.10330585565E+03  0.91187600000E+02 0.  0.
<mgrwt>
<rscale>  0 0.27755659E+04</rscale>
<asrwt>0</asrwt>
<pdfrwt beam="1">  1        2 0.50702305E+00 0.31871994E+04</pdfrwt>
<pdfrwt beam="2">  1       -2 0.29524387E+00 0.31871994E+04</pdfrwt>
<totfact> 0.30443906E-02</totfact>
</mgrwt>
</event>
<event>
11    1  0.3622533E-016  0.2882614E+04  0.7818608E-02  0.8475339E-01
          2   -1    0    0  501    0  0.00000000000E+00  0.00000000000E+00  0.29830573483E+04  0.29830573483E+04  0.00000000000E+00 0. -1.
         -2   -1    0    0    0  501 -0.00000000000E+00 -0.00000000000E+00 -0.17471702619E+04  0.17471702619E+04  0.00000000000E+00 0.  1.
    9900016    2    1    2    0    0 -0.75520639227E+03 -0.64725719811E+02  0.15240327129E+04  0.28155821411E+04  0.22428332461E+04 0.  0.
        -24    2    3    3    0    0 -0.12393946313E+04 -0.96227747173E+00  0.17712145342E+04  0.21624965456E+04  0.55591415723E+02 0.  0.
        -15    1    3    3    0    0  0.48332377751E+03 -0.45366799621E+02 -0.27246255345E+03  0.55668291104E+03  0.00000000000E+00 0.  1.
        -15    1    1    2    0    0  0.65017432203E+03  0.39813179345E+03 -0.67237563440E+03  0.10165257339E+04  0.00000000000E+00 0.  1.
         15    1    4    4    0    0 -0.21714423020E+03 -0.30352320165E+01  0.34800017169E+03  0.41020110780E+03  0.00000000000E+00 0. -1.
         15    1    1    2    0    0  0.24083483834E+03  0.16290907782E+03  0.85217282240E+02  0.30298972290E+03  0.00000000000E+00 0. -1.
        -16    1    4    4    0    0 -0.10222504011E+04  0.20729545447E+01  0.14232143625E+04  0.17522954378E+04  0.00000000000E+00 0.  1.
         16    1    1    2    0    0 -0.13580276810E+03 -0.49631515146E+03  0.29901272570E+03  0.59513001228E+03  0.00000000000E+00 0. -1.
    9900018    1    3    3    0    0  0.86446156197E+00 -0.18396642719E+02  0.25280732118E+02  0.96402684440E+02  0.91187600000E+02 0.  0.
<mgrwt>
<rscale>  0 0.23065601E+04</rscale>
<asrwt>0</asrwt>
<pdfrwt beam="1">  1        2 0.45893190E+00 0.28826139E+04</pdfrwt>
<pdfrwt beam="2">  1       -2 0.26879543E+00 0.28826139E+04</pdfrwt>
<totfact> 0.72470142E-02</totfact>
</mgrwt>
</event>
<event>
11    1  0.3622533E-016  0.3066099E+04  0.7818608E-02  0.8263242E-01
          1   -1    0    0  501    0  0.00000000000E+00  0.00000000000E+00  0.27475113411E+04  0.27475113411E+04  0.00000000000E+00 0. -1.
         -1   -1    0    0    0  501 -0.00000000000E+00 -0.00000000000E+00 -0.29052663635E+04  0.29052663635E+04  0.00000000000E+00 0.  1.
    9900016    2    1    2    0    0 -0.47891697781E+03  0.74749468278E+02 -0.46864331997E+03  0.23446693475E+04  0.22456399607E+04 0.  0.
        -24    2    3    3    0    0 -0.12675745300E+04 -0.31481621760E+03 -0.30738718303E+03  0.13458853454E+04  0.10519526038E+03 0.  0.
        -15    1    3    3    0    0  0.80471568838E+03  0.36223717880E+03 -0.10952418377E+03  0.88925736413E+03  0.00000000000E+00 0.  1.
        -15    1    1    2    0    0  0.15033734487E+04 -0.76409256685E+03 -0.80199592022E+02  0.16883131083E+04  0.00000000000E+00 0.  1.
         15    1    4    4    0    0 -0.10315254994E+04 -0.29683643663E+03 -0.24288693546E+03  0.11005229618E+04  0.00000000000E+00 0. -1.
         15    1    1    2    0    0 -0.65112989735E+03  0.57373908652E+03 -0.21920121286E+03  0.89509544426E+03  0.00000000000E+00 0. -1.
        -16    1    4    4    0    0 -0.23604903057E+03 -0.17979780974E+02 -0.64500247562E+02  0.24536238361E+03  0.00000000000E+00 0.  1.
         16    1    1    2    0    0 -0.37332657354E+03  0.11560401206E+03  0.61028910251E+03  0.72469980458E+03  0.00000000000E+00 0. -1.
    9900018    1    3    3    0    0 -0.16058136192E+02  0.27328507085E+02 -0.51731953167E+02  0.10952663790E+03  0.91187600000E+02 0.  0.
<mgrwt>
<rscale>  0 0.29326067E+04</rscale>
<asrwt>0</asrwt>
<pdfrwt beam="1">  1        1 0.42269405E+00 0.30660991E+04</pdfrwt>
<pdfrwt beam="2">  1       -1 0.44696405E+00 0.30660991E+04</pdfrwt>
<totfact> 0.24447067E-03</totfact>
</mgrwt>
</event>
<event>
11    1  0.3900280E-016  0.2881098E+04  0.7818608E-02  0.8738670E-01
         -2   -1    0    0    0  501 -0.00000000000E+00  0.00000000000E+00  0.19133416455E+04  0.19133416455E+04  0.00000000000E+00 0.  1.
          2   -1    0    0  501    0  0.00000000000E+00 -0.00000000000E+00 -0.17898605332E+04  0.17898605332E+04  0.00000000000E+00 0. -1.
    9900016    2    1    2    0    0 -0.31097391706E+03  0.45365345395E+03 -0.38485160890E+03  0.23540254453E+04  0.22562842912E+04 0.  0.
        -24    2    3    3    0    0  0.68242212610E+02  0.96838351925E+03  0.58156286007E+03  0.11361611478E+04  0.10110961245E+03 0.  0.
        -15    1    1    2    0    0 -0.42274957397E+02  0.12808531704E+03  0.28150245537E+03  0.31214844681E+03  0.00000000000E+00 0.  1.
        -15    1    3    3    0    0 -0.31340025739E+03 -0.51813026002E+03 -0.90718357120E+03  0.10907156914E+04  0.00000000000E+00 0.  1.
         15    1    4    4    0    0  0.60690833632E+02  0.24653975346E+03  0.16274506308E+03  0.30158113813E+03  0.00000000000E+00 0. -1.
         15    1    1    2    0    0  0.24323753310E+03 -0.37221580183E+02  0.38724460771E+03  0.45881186748E+03  0.00000000000E+00 0. -1.
        -16    1    4    4    0    0  0.75513789783E+01  0.72184376579E+03  0.41881779699E+03  0.83458000971E+03  0.00000000000E+00 0.  1.
         16    1    1    2    0    0  0.11001134135E+03 -0.54451719081E+03 -0.16041434191E+03  0.57821641917E+03  0.00000000000E+00 0. -1.
    9900018    1    3    3    0    0 -0.65815872285E+02  0.34001947157E+01 -0.59230897767E+02  0.12714860602E+03  0.91187600000E+02 0.  0.
<mgrwt>
<rscale>  0 0.17403686E+04</rscale>
<asrwt>0</asrwt>
<pdfrwt beam="1">  1        2 0.27536316E+00 0.28810983E+04</pdfrwt>
<pdfrwt beam="2">  1       -2 0.29436025E+00 0.28810983E+04</pdfrwt>
<totfact> 0.25321630E-01</totfact>
</mgrwt>
</event>
