<event>
11    1  0.1439410E-014  0.8509317E+03  0.7818608E-02  0.9489087E-01
          1   -1    0    0  501    0  0.00000000000E+00  0.00000000000E+00  0.44105618612E+03  0.44105618612E+03  0.00000000000E+00 0. -1.
         -1   -1    0    0    0  501 -0.00000000000E+00 -0.00000000000E+00 -0.41042659281E+03  0.41042659281E+03  0.00000000000E+00 0.  1.
    9900016    2    1    2    0    0  0.42174651606E+02  0.96705075265E+02 -0.48845269943E+02  0.71939634242E+03  0.70993990187E+03 0.  0.
        -24    2    3    3    0    0  0.59835976274E+02  0.17860079763E+03  0.28114333891E+03  0.34773485154E+03  0.79996006105E+02 0.  0.
        -15    1    3    3    0    0 -0.38392383095E+02 -0.63003706350E+02 -0.17112317357E+03  0.18635069795E+03  0.00000000000E+00 0.  1.
        -15    1    4    4    0    0  0.12392864474E+02  0.86529394991E+01  0.21517803759E+02  0.26295861470E+02  0.00000000000E+00 0. -1.
         15    1    4    4    0    0  0.38727251843E+02  0.13237544157E+03  0.15199172456E+03  0.20524264153E+03  0.00000000000E+00 0. -1.
         15    1    4    4    0    0 -0.14027916922E+01  0.17322027611E+02  0.71299517603E+02  0.73386931231E+02  0.00000000000E+00 0.  1.
        -16    1    4    4    0    0  0.10118651650E+02  0.20250388952E+02  0.36334292990E+02  0.42809417317E+02  0.00000000000E+00 0.  1.
         16    1    1    2    0    0 -0.42174651606E+02 -0.96705075265E+02  0.79474863259E+02  0.13208643651E+03  0.00000000000E+00 0. -1.
    9900018    1    3    3    0    0  0.20731058427E+02 -0.18892016018E+02 -0.15886543529E+03  0.18531079293E+03  0.91187600000E+02 0.  0.
<mgrwt>
<rscale>  0 0.85093170E+03</rscale>
<asrwt>0</asrwt>
<pdfrwt beam="1">  1        1 0.67854798E-01 0.85093170E+03</pdfrwt>
<pdfrwt beam="2">  1       -1 0.63142552E-01 0.85093170E+03</pdfrwt>
<totfact> 0.13523694E+02</totfact>
</mgrwt>
</event>
<event>
11    1  0.1439410E-014  0.1372861E+04  0.7818608E-02  0.8973700E-01
          1   -1    0    0  501    0  0.00000000000E+00  0.00000000000E+00  0.31232072631E+03  0.31232072631E+03  0.00000000000E+00 0. -1.
         -1   -1    0    0    0  501 -0.00000000000E+00 -0.00000000000E+00 -0.15086643267E+04  0.15086643267E+04  0.00000000000E+00 0.  1.
    9900016    2    1    2    0    0 -0.41784600409E+03  0.22996538545E+03 -0.60389033467E+03  0.10604061724E+04  0.72958779626E+03 0.  0.
         24    2    3    3    0    0  0.98838010638E+02 -0.45996712896E+02 -0.36682015114E+03  0.39109901306E+03  0.80726481317E+02 0.  0.
        -15    1    4    4    0    0  0.62537736354E+02 -0.24717107494E+02 -0.12571167671E+03  0.14256693001E+03  0.00000000000E+00 0.  1.
        -15    1    4    4    0    0  0.36406682506E+02 -0.48505089248E+01 -0.15147873583E+03  0.15586783304E+03  0.00000000000E+00 0. -1.
         15    1    3    3    0    0 -0.28763372292E+03  0.21988711536E+03 -0.20044262598E+03  0.41383662038E+03  0.00000000000E+00 0. -1.
         15    1    4    4    0    0 -0.66171190804E+01 -0.92047363274E+01 -0.26990927180E+02  0.29274965172E+02  0.00000000000E+00 0.  1.
        -16    1    1    2    0    0  0.41784600409E+03 -0.22996538545E+03 -0.59245326573E+03  0.76057888067E+03  0.00000000000E+00 0.  1.
         16    1    4    4    0    0  0.65107108574E+01 -0.72243601499E+01 -0.62638811427E+02  0.63389284839E+02  0.00000000000E+00 0. -1.
    9900018    1    3    3    0    0 -0.22905029181E+03  0.56074982985E+02 -0.36627557550E+02  0.25547053893E+03  0.91187600000E+02 0.  0.
<mgrwt>
<rscale>  0 0.13728614E+04</rscale>
<asrwt>0</asrwt>
<pdfrwt beam="1">  1        1 0.48049342E-01 0.13728614E+04</pdfrwt>
<pdfrwt beam="2">  1       -1 0.23210220E+00 0.13728614E+04</pdfrwt>
<totfact> 0.74333877E+00</totfact>
</mgrwt>
</event>
<event>
11    1  0.1439410E-014  0.8888178E+03  0.7818608E-02  0.9439669E-01
         -1   -1    0    0    0  501 -0.00000000000E+00  0.00000000000E+00  0.14158822587E+04  0.14158822587E+04  0.00000000000E+00 0.  1.
          1   -1    0    0  501    0  0.00000000000E+00 -0.00000000000E+00 -0.13948848930E+03  0.13948848930E+03  0.00000000000E+00 0. -1.
    9900016    2    1    2    0    0 -0.62335171598E+02  0.78024103394E+02  0.12754061221E+04  0.14554987810E+04  0.69414875279E+03 0.  0.
        -24    2    3    3    0    0 -0.91540706376E+02 -0.22430255673E+03  0.48801012849E+03  0.55078214895E+03  0.80720209452E+02 0.  0.
        -15    1    4    4    0    0 -0.41172267009E+02 -0.64151525669E+02  0.14070332398E+03  0.16002499554E+03  0.00000000000E+00 0.  1.
        -15    1    3    3    0    0  0.11793407777E+03  0.94502041781E+01  0.29504698014E+03  0.31788437135E+03  0.00000000000E+00 0.  1.
         15    1    4    4    0    0 -0.17746680695E+02 -0.94084458761E+02  0.14014676701E+03  0.16972903806E+03  0.00000000000E+00 0. -1.
         15    1    4    4    0    0 -0.10669248692E+02 -0.43635365180E+02  0.10642598926E+03  0.11551783045E+03  0.00000000000E+00 0. -1.
        -16    1    4    4    0    0 -0.21952509980E+02 -0.22431207121E+02  0.10073404823E+03  0.10551028491E+03  0.00000000000E+00 0.  1.
         16    1    1    2    0    0  0.62335171598E+02 -0.78024103394E+02  0.98764726947E+00  0.99871966916E+02  0.00000000000E+00 0. -1.
    9900018    1    3    3    0    0 -0.88728542997E+02  0.29287645595E+03  0.49234901347E+03  0.58683226075E+03  0.91187600000E+02 0.  0.
<mgrwt>
<rscale>  0 0.88881782E+03</rscale>
<asrwt>0</asrwt>
<pdfrwt beam="1">  1        1 0.21459769E-01 0.88881782E+03</pdfrwt>
<pdfrwt beam="2">  1       -1 0.21782803E+00 0.88881782E+03</pdfrwt>
<totfact> 0.27586868E+01</totfact>
</mgrwt>
</event>
<event>
11    1  0.1439410E-014  0.9450159E+03  0.7818608E-02  0.9370995E-01
         -1   -1    0    0    0  501 -0.00000000000E+00  0.00000000000E+00  0.25689354105E+03  0.25689354105E+03  0.00000000000E+00 0.  1.
          1   -1    0    0  501    0  0.00000000000E+00 -0.00000000000E+00 -0.86909055896E+03  0.86909055896E+03  0.00000000000E+00 0. -1.
    9900016    2    1    2    0    0  0.14669886600E+03 -0.11562498482E+03 -0.41377662309E+03  0.85347658180E+03  0.72271812449E+03 0.  0.
        -24    2    3    3    0    0 -0.18838301474E+03  0.52281293341E+02 -0.29215937257E+03  0.36042572016E+03  0.79549399055E+02 0.  0.
        -15    1    3    3    0    0  0.34399673933E+03 -0.89026360341E+02 -0.10803583458E+03  0.37139088715E+03  0.00000000000E+00 0.  1.
        -15    1    4    4    0    0 -0.15357520920E+02  0.20782836809E+01 -0.16061860751E+02  0.22319410446E+02  0.00000000000E+00 0.  1.
         15    1    4    4    0    0 -0.20366632017E+02 -0.14350804442E+02 -0.43835161828E+02  0.50420895473E+02  0.00000000000E+00 0. -1.
         15    1    4    4    0    0 -0.77486028090E+02  0.49664920002E+02 -0.11041958147E+03  0.14374690536E+03  0.00000000000E+00 0. -1.
        -16    1    4    4    0    0 -0.75172833717E+02  0.14888894100E+02 -0.12184276853E+03  0.14393850888E+03  0.00000000000E+00 0.  1.
         16    1    1    2    0    0 -0.14669886600E+03  0.11562498482E+03 -0.19842039482E+03  0.27250751821E+03  0.00000000000E+00 0. -1.
    9900018    1    3    3    0    0 -0.89148585919E+01 -0.78879917824E+02 -0.13581415932E+02  0.12165997449E+03  0.91187600000E+02 0.  0.
<mgrwt>
<rscale>  0 0.94501588E+03</rscale>
<asrwt>0</asrwt>
<pdfrwt beam="1">  1        1 0.13370624E+00 0.94501588E+03</pdfrwt>
<pdfrwt beam="2">  1       -1 0.39522082E-01 0.94501588E+03</pdfrwt>
<totfact> 0.12072826E+02</totfact>
</mgrwt>
</event>
<event>
11    1  0.1439410E-014  0.7697564E+03  0.7818608E-02  0.9604856E-01
          1   -1    0    0  501    0  0.00000000000E+00  0.00000000000E+00  0.19324351524E+04  0.19324351524E+04  0.00000000000E+00 0. -1.
         -1   -1    0    0    0  501 -0.00000000000E+00 -0.00000000000E+00 -0.76655208520E+02  0.76655208520E+02  0.00000000000E+00 0.  1.
    9900016    2    1    2    0    0  0.45634184309E+02 -0.60516449573E+02  0.15020633101E+04  0.16473443499E+04  0.67216404268E+03 0.  0.
        -24    2    3    3    0    0 -0.14645771299E+03 -0.16667092843E+03  0.94742544386E+03  0.97625529799E+03  0.78932725138E+02 0.  0.
        -15    1    3    3    0    0  0.15271527746E+03 -0.40118171804E+02  0.42046406493E+03  0.44913411535E+03  0.00000000000E+00 0.  1.
        -15    1    4    4    0    0 -0.20393927441E+02 -0.45489868897E+02  0.25729153924E+03  0.26207666171E+03  0.00000000000E+00 0.  1.
         15    1    4    4    0    0 -0.35397655298E+02 -0.27742587086E+02  0.14596998312E+03  0.15274122269E+03  0.00000000000E+00 0. -1.
         15    1    4    4    0    0 -0.55710114720E+02 -0.32389434542E+02  0.32260550592E+03  0.32897873001E+03  0.00000000000E+00 0. -1.
        -16    1    4    4    0    0 -0.34956015527E+02 -0.61049037906E+02  0.22155841558E+03  0.23245868357E+03  0.00000000000E+00 0.  1.
         16    1    1    2    0    0 -0.45634184309E+02  0.60516449573E+02  0.35371663386E+03  0.36174601106E+03  0.00000000000E+00 0. -1.
    9900018    1    3    3    0    0  0.39376619837E+02  0.14627265066E+03  0.13417380127E+03  0.22195493656E+03  0.91187600000E+02 0.  0.
<mgrwt>
<rscale>  0 0.76975638E+03</rscale>
<asrwt>0</asrwt>
<pdfrwt beam="1">  1        1 0.29729768E+00 0.76975638E+03</pdfrwt>
<pdfrwt beam="2">  1       -1 0.11793111E-01 0.76975638E+03</pdfrwt>
<totfact> 0.16488711E+02</totfact>
</mgrwt>
</event>
<event>
11    1  0.1439410E-014  0.2395490E+04  0.7818608E-02  0.8441194E-01
          1   -1    0    0  501    0  0.00000000000E+00  0.00000000000E+00  0.10288071365E+04  0.10288071365E+04  0.00000000000E+00 0. -1.
         -1   -1    0    0    0  501 -0.00000000000E+00 -0.00000000000E+00 -0.13944234833E+04  0.13944234833E+04  0.00000000000E+00 0.  1.
    9900016    2    1    2    0    0 -0.91838043087E+03 -0.58984547913E+03 -0.20515380079E+03  0.13200132642E+04  0.71344700624E+03 0.  0.
         24    2    3    3    0    0  0.64721934433E+02 -0.15035000433E+03  0.98095553712E+01  0.18160140073E+03  0.78030691227E+02 0.  0.
        -15    1    4    4    0    0 -0.13917743679E+02 -0.29970934234E+02  0.15689069229E+01  0.33082048862E+02  0.00000000000E+00 0.  1.
        -15    1    4    4    0    0  0.42230743361E+02 -0.62722223643E+02  0.13340095893E+02  0.76781971725E+02  0.00000000000E+00 0.  1.
         15    1    4    4    0    0  0.15453341166E+02 -0.99193799481E+01 -0.67830377163E+01  0.19575736318E+02  0.00000000000E+00 0. -1.
         15    1    3    3    0    0 -0.51244588717E+03 -0.29106144294E+03 -0.23904684226E+03  0.63597243937E+03  0.00000000000E+00 0. -1.
        -16    1    1    2    0    0  0.91838043087E+03  0.58984547913E+03 -0.16046254604E+03  0.11032173556E+04  0.00000000000E+00 0.  1.
         16    1    4    4    0    0  0.20955593584E+02 -0.47737466505E+02  0.16835902718E+01  0.52161643829E+02  0.00000000000E+00 0. -1.
    9900018    1    3    3    0    0 -0.47065647813E+03 -0.14843403186E+03  0.24083486097E+02  0.50243942413E+03  0.91187600000E+02 0.  0.
<mgrwt>
<rscale>  0 0.23954898E+04</rscale>
<asrwt>0</asrwt>
<pdfrwt beam="1">  1        1 0.15827802E+00 0.23954898E+04</pdfrwt>
<pdfrwt beam="2">  1       -1 0.21452669E+00 0.23954898E+04</pdfrwt>
<totfact> 0.15431006E+00</totfact>
</mgrwt>
</event>
<event>
11    1  0.1439410E-014  0.1280010E+04  0.7818608E-02  0.9045570E-01
          2   -1    0    0  501    0  0.00000000000E+00  0.00000000000E+00  0.17770018962E+04  0.17770018962E+04  0.00000000000E+00 0. -1.
         -2   -1    0    0    0  501 -0.00000000000E+00 -0.00000000000E+00 -0.23050405405E+03  0.23050405405E+03  0.00000000000E+00 0.  1.
    9900016    2    1    2    0    0  0.13085297115E+03 -0.17527135911E+03  0.46124848197E+03  0.90043381026E+03  0.74174681338E+03 0.  0.
        -24    2    3    3    0    0  0.22337791026E+03  0.22430366816E+03  0.13670370148E+03  0.35430203986E+03  0.81438363900E+02 0.  0.
        -15    1    4    4    0    0  0.15938144994E+03  0.16826090778E+03  0.10451727438E+03  0.25424012333E+03  0.00000000000E+00 0. -1.
        -15    1    3    3    0    0 -0.81348122604E+02 -0.13188236136E+03  0.13492176342E+03  0.20546132612E+03  0.00000000000E+00 0.  1.
         15    1    4    4    0    0  0.12043284706E+02  0.15033536761E+02 -0.19988285738E+00  0.19263641587E+02  0.00000000000E+00 0. -1.
         15    1    4    4    0    0  0.32953639397E+02  0.13138904670E+02  0.22191561016E+01  0.35545714499E+02  0.00000000000E+00 0.  1.
        -16    1    4    4    0    0  0.18999536216E+02  0.27870318948E+02  0.30167153860E+02  0.45252560443E+02  0.00000000000E+00 0.  1.
         16    1    1    2    0    0 -0.13085297115E+03  0.17527135911E+03  0.10852493601E+04  0.11070721400E+04  0.00000000000E+00 0. -1.
    9900018    1    3    3    0    0 -0.11176816506E+02 -0.26769266591E+03  0.18962301707E+03  0.34067044428E+03  0.91187600000E+02 0.  0.
<mgrwt>
<rscale>  0 0.12800096E+04</rscale>
<asrwt>0</asrwt>
<pdfrwt beam="1">  1        2 0.27338490E+00 0.12800096E+04</pdfrwt>
<pdfrwt beam="2">  1       -2 0.35462163E-01 0.12800096E+04</pdfrwt>
<totfact> 0.65159824E+01</totfact>
</mgrwt>
</event>
<event>
11    1  0.1439410E-014  0.1132009E+04  0.7818608E-02  0.9174543E-01
          2   -1    0    0  501    0  0.00000000000E+00  0.00000000000E+00  0.82989355722E+03  0.82989355722E+03  0.00000000000E+00 0. -1.
         -2   -1    0    0    0  501 -0.00000000000E+00 -0.00000000000E+00 -0.38602687580E+03  0.38602687580E+03  0.00000000000E+00 0.  1.
    9900016    2    1    2    0    0  0.53671625088E+02 -0.20139165955E+03  0.60109500324E+03  0.95484575203E+03  0.71202244584E+03 0.  0.
         24    2    3    3    0    0 -0.12383075695E+03 -0.91637370399E+02  0.87280010277E+02  0.19561843392E+03  0.83170352135E+02 0.  0.
        -15    1    4    4    0    0 -0.13106319573E+02 -0.12342825646E+02 -0.62732524896E+01  0.19065011264E+02  0.00000000000E+00 0.  1.
        -15    1    4    4    0    0 -0.26502372276E+02 -0.34071445976E+02  0.10142443633E+02  0.44340820132E+02  0.00000000000E+00 0. -1.
         15    1    4    4    0    0 -0.18613275340E+01 -0.14146570744E+02  0.15214062146E+02  0.20858036605E+02  0.00000000000E+00 0.  1.
         15    1    3    3    0    0  0.15565405925E+03  0.83929460430E+01 -0.59161730377E+02  0.16672953561E+03  0.00000000000E+00 0. -1.
        -16    1    1    2    0    0 -0.53671625088E+02  0.20139165955E+03 -0.15722832182E+03  0.26107468100E+03  0.00000000000E+00 0.  1.
         16    1    4    4    0    0 -0.82360737564E+02 -0.31076528032E+02  0.68196756988E+02  0.11135456592E+03  0.00000000000E+00 0. -1.
    9900018    1    3    3    0    0  0.21848322790E+02 -0.11814723519E+03  0.57297672334E+03  0.59249778251E+03  0.91187600000E+02 0.  0.
<mgrwt>
<rscale>  0 0.11320092E+04</rscale>
<asrwt>0</asrwt>
<pdfrwt beam="1">  1        2 0.12767593E+00 0.11320092E+04</pdfrwt>
<pdfrwt beam="2">  1       -2 0.59388750E-01 0.11320092E+04</pdfrwt>
<totfact> 0.86023091E+01</totfact>
</mgrwt>
</event>
<event>
11    1  0.1439410E-014  0.1390034E+04  0.7818608E-02  0.8961064E-01
          4   -1    0    0  501    0  0.00000000000E+00  0.00000000000E+00  0.38234573233E+03  0.38234573233E+03  0.00000000000E+00 0. -1.
         -4   -1    0    0    0  501 -0.00000000000E+00 -0.00000000000E+00 -0.12633819375E+04  0.12633819375E+04  0.00000000000E+00 0.  1.
    9900016    2    1    2    0    0 -0.44298000358E+03 -0.80541099753E+02 -0.83141477894E+03  0.11927591961E+04  0.72712159424E+03 0.  0.
        -24    2    3    3    0    0 -0.22005329855E+03  0.21316831127E+03 -0.35489479626E+03  0.47508724922E+03  0.76768449439E+02 0.  0.
        -15    1    3    3    0    0  0.28199847466E+02 -0.49709278711E+02  0.51931662687E+02  0.77221379012E+02  0.00000000000E+00 0.  1.
        -15    1    4    4    0    0 -0.68586313201E+02  0.68675457701E+02 -0.12998485126E+03  0.16222349523E+03  0.00000000000E+00 0. -1.
         15    1    4    4    0    0 -0.10961388273E+02  0.47603738284E+01 -0.23986925604E+02  0.26798988634E+02  0.00000000000E+00 0.  1.
         15    1    4    4    0    0 -0.95318784344E+01  0.95773181306E+01 -0.36133174994E+02  0.38577040636E+02  0.00000000000E+00 0. -1.
        -16    1    4    4    0    0 -0.13097371864E+03  0.13015516161E+03 -0.16478984440E+03  0.24748772471E+03  0.00000000000E+00 0.  1.
         16    1    1    2    0    0  0.44298000358E+03  0.80541099753E+02 -0.49621426262E+02  0.45296847381E+03  0.00000000000E+00 0. -1.
    9900018    1    3    3    0    0 -0.25112655250E+03 -0.24400013231E+03 -0.52845164537E+03  0.64045056783E+03  0.91187600000E+02 0.  0.
<mgrwt>
<rscale>  0 0.13900341E+04</rscale>
<asrwt>0</asrwt>
<pdfrwt beam="1">  1        4 0.58822421E-01 0.13900341E+04</pdfrwt>
<pdfrwt beam="2">  1       -4 0.19436645E+00 0.13900341E+04</pdfrwt>
<totfact> 0.76426473E-01</totfact>
</mgrwt>
</event>
<event>
11    1  0.1439410E-014  0.8308430E+03  0.7818608E-02  0.9516416E-01
         -2   -1    0    0    0  501 -0.00000000000E+00  0.00000000000E+00  0.12437855279E+03  0.12437855279E+03  0.00000000000E+00 0.  1.
          2   -1    0    0  501    0  0.00000000000E+00 -0.00000000000E+00 -0.13874982927E+04  0.13874982927E+04  0.00000000000E+00 0. -1.
    9900016    2    1    2    0    0 -0.58001613423E+02 -0.92004422513E+02 -0.10988123989E+04  0.13148339485E+04  0.71384215579E+03 0.  0.
        -24    2    3    3    0    0  0.28863701661E+03 -0.11939969303E+03 -0.47361090370E+03  0.57284687104E+03  0.79237841305E+02 0.  0.
        -15    1    4    4    0    0  0.25522917463E+02 -0.67519687347E-01 -0.25509632301E+02  0.36085526390E+02  0.00000000000E+00 0. -1.
        -15    1    3    3    0    0 -0.99128970612E+02  0.66785298455E+02 -0.28975705820E+03  0.31344215046E+03  0.00000000000E+00 0.  1.
         15    1    4    4    0    0  0.25821025693E+02 -0.21624622203E+02 -0.83792984133E+02  0.90308437275E+02  0.00000000000E+00 0.  1.
         15    1    4    4    0    0  0.21759400260E+03 -0.80819979272E+02 -0.32838810746E+03  0.40214147776E+03  0.00000000000E+00 0. -1.
        -16    1    4    4    0    0  0.19699070859E+02 -0.16887571872E+02 -0.35920179809E+02  0.44311429609E+02  0.00000000000E+00 0.  1.
         16    1    1    2    0    0  0.58001613423E+02  0.92004422513E+02 -0.16430734107E+03  0.19704289698E+03  0.00000000000E+00 0. -1.
    9900018    1    3    3    0    0 -0.24750965942E+03 -0.39390027934E+02 -0.33544443695E+03  0.42854492703E+03  0.91187600000E+02 0.  0.
<mgrwt>
<rscale>  0 0.83084302E+03</rscale>
<asrwt>0</asrwt>
<pdfrwt beam="1">  1        2 0.21346127E+00 0.83084302E+03</pdfrwt>
<pdfrwt beam="2">  1       -2 0.19135163E-01 0.83084302E+03</pdfrwt>
<totfact> 0.34143738E+02</totfact>
</mgrwt>
</event>
<event>
11    1  0.1439410E-014  0.8647807E+03  0.7818608E-02  0.9470711E-01
         -2   -1    0    0    0  501 -0.00000000000E+00  0.00000000000E+00  0.29939808045E+03  0.29939808045E+03  0.00000000000E+00 0.  1.
          2   -1    0    0  501    0  0.00000000000E+00 -0.00000000000E+00 -0.62445759101E+03  0.62445759101E+03  0.00000000000E+00 0. -1.
    9900016    2    1    2    0    0 -0.76682471220E+02 -0.12566123948E+03 -0.28800154868E+03  0.77205237426E+03  0.70103425598E+03 0.  0.
         24    2    3    3    0    0  0.25963851701E+02 -0.70936653228E+02 -0.22287695868E+03  0.24842370397E+03  0.79586855827E+02 0.  0.
        -15    1    4    4    0    0  0.23547464605E+02 -0.27751830320E+02 -0.62262676025E+02  0.72119955638E+02  0.00000000000E+00 0. -1.
        -15    1    4    4    0    0  0.13560942953E+02 -0.20197232818E+02 -0.25423818647E+02  0.35188036915E+02  0.00000000000E+00 0.  1.
         15    1    3    3    0    0  0.16292491254E+03 -0.13927730449E+03  0.27509578369E+02  0.21610060522E+03  0.00000000000E+00 0. -1.
         15    1    4    4    0    0  0.28417674649E+00 -0.16005031243E+02 -0.22394191230E+02  0.27527106320E+02  0.00000000000E+00 0.  1.
        -16    1    1    2    0    0  0.76682471220E+02  0.12566123948E+03 -0.37057961885E+02  0.15180329719E+03  0.00000000000E+00 0.  1.
         16    1    4    4    0    0 -0.11428732604E+02 -0.69825588474E+01 -0.11279627277E+03  0.11358860510E+03  0.00000000000E+00 0. -1.
    9900018    1    3    3    0    0 -0.26557123546E+03  0.84552718242E+02 -0.92634168374E+02  0.30752806507E+03  0.91187600000E+02 0.  0.
<mgrwt>
<rscale>  0 0.86478068E+03</rscale>
<asrwt>0</asrwt>
<pdfrwt beam="1">  1        2 0.96070397E-01 0.86478068E+03</pdfrwt>
<pdfrwt beam="2">  1       -2 0.46061244E-01 0.86478068E+03</pdfrwt>
<totfact> 0.21205527E+02</totfact>
</mgrwt>
</event>
<event>
11    1  0.1439410E-014  0.1082785E+04  0.7818608E-02  0.9222135E-01
          3   -1    0    0  501    0  0.00000000000E+00  0.00000000000E+00  0.18118813458E+04  0.18118813458E+04  0.00000000000E+00 0. -1.
         -3   -1    0    0    0  501 -0.00000000000E+00 -0.00000000000E+00 -0.16176889383E+03  0.16176889383E+03  0.00000000000E+00 0.  1.
    9900016    2    1    2    0    0  0.14959768272E+03  0.15761277880E+02  0.71056028295E+03  0.10221324191E+04  0.71918765412E+03 0.  0.
        -24    2    3    3    0    0 -0.20106566136E+03  0.28153200640E+00  0.45567593974E+03  0.50436849428E+03  0.79495512572E+02 0.  0.
        -15    1    4    4    0    0 -0.32288917356E+02 -0.69668544236E+01  0.37864304119E+02  0.50247554876E+02  0.00000000000E+00 0. -1.
        -15    1    3    3    0    0  0.17130547120E+03 -0.11759480469E+03  0.14018644785E+03  0.25065183565E+03  0.00000000000E+00 0.  1.
         15    1    4    4    0    0 -0.79787926441E+02  0.21481340672E+02  0.17399345418E+03  0.19261693410E+03  0.00000000000E+00 0. -1.
         15    1    4    4    0    0 -0.81988687556E+02 -0.56760014712E+01  0.22658691073E+03  0.24103109756E+03  0.00000000000E+00 0.  1.
        -16    1    4    4    0    0 -0.70001300051E+01 -0.85569527712E+01  0.17231270715E+02  0.20472907739E+02  0.00000000000E+00 0.  1.
         16    1    1    2    0    0 -0.14959768272E+03 -0.15761277880E+02  0.93955216905E+03  0.95151782060E+03  0.00000000000E+00 0. -1.
    9900018    1    3    3    0    0  0.17935787287E+03  0.13307455056E+03  0.11469789535E+03  0.26711208914E+03  0.91187600000E+02 0.  0.
<mgrwt>
<rscale>  0 0.10827854E+04</rscale>
<asrwt>0</asrwt>
<pdfrwt beam="1">  1        3 0.27875096E+00 0.10827854E+04</pdfrwt>
<pdfrwt beam="2">  1       -3 0.24887523E-01 0.10827854E+04</pdfrwt>
<totfact> 0.20571957E+00</totfact>
</mgrwt>
</event>
<event>
11    1  0.1439410E-014  0.1337871E+04  0.7818608E-02  0.9000061E-01
          1   -1    0    0  501    0  0.00000000000E+00  0.00000000000E+00  0.80985043290E+03  0.80985043290E+03  0.00000000000E+00 0. -1.
         -1   -1    0    0    0  501 -0.00000000000E+00 -0.00000000000E+00 -0.55253967037E+03  0.55253967037E+03  0.00000000000E+00 0.  1.
    9900016    2    1    2    0    0  0.13619053552E+02  0.97372585854E+02  0.64096992616E+03  0.96633296984E+03  0.71644264478E+03 0.  0.
         24    2    3    3    0    0  0.89021837032E+02  0.76318974801E+02 -0.10769633585E+03  0.17796771832E+03  0.79526942760E+02 0.  0.
        -15    1    4    4    0    0  0.24960268858E+02  0.14791840786E+02 -0.17102868600E+02  0.33679692541E+02  0.00000000000E+00 0. -1.
        -15    1    4    4    0    0  0.20138182526E+02  0.38390532332E+02 -0.71050979635E+01  0.43930192184E+02  0.00000000000E+00 0.  1.
         15    1    3    3    0    0 -0.61765986060E+01 -0.81943226383E+02  0.38079213848E+03  0.38955807712E+03  0.00000000000E+00 0. -1.
         15    1    4    4    0    0  0.26899693020E+01  0.11357096791E+02 -0.10475458757E+02  0.15682946743E+02  0.00000000000E+00 0.  1.
        -16    1    1    2    0    0 -0.13619053552E+02 -0.97372585854E+02 -0.38365916363E+03  0.39605713342E+03  0.00000000000E+00 0.  1.
         16    1    4    4    0    0  0.41233416346E+02  0.11779504891E+02 -0.73012910534E+02  0.84674886854E+02  0.00000000000E+00 0. -1.
    9900018    1    3    3    0    0 -0.69226184874E+02  0.10299683744E+03  0.36787412353E+03  0.39880717440E+03  0.91187600000E+02 0.  0.
<mgrwt>
<rscale>  0 0.13378707E+04</rscale>
<asrwt>0</asrwt>
<pdfrwt beam="1">  1        1 0.12459237E+00 0.13378707E+04</pdfrwt>
<pdfrwt beam="2">  1       -1 0.85006103E-01 0.13378707E+04</pdfrwt>
<totfact> 0.29084057E+01</totfact>
</mgrwt>
</event>
<event>
11    1  0.1439410E-014  0.1098430E+04  0.7818608E-02  0.9206724E-01
          1   -1    0    0  501    0  0.00000000000E+00  0.00000000000E+00  0.36733727642E+03  0.36733727642E+03  0.00000000000E+00 0. -1.
         -1   -1    0    0    0  501 -0.00000000000E+00 -0.00000000000E+00 -0.82114460965E+03  0.82114460965E+03  0.00000000000E+00 0.  1.
    9900016    2    1    2    0    0  0.14178922651E+03 -0.28356044900E+03 -0.38795099396E+03  0.86467983170E+03  0.70473720254E+03 0.  0.
        -24    2    3    3    0    0 -0.22657669934E+03  0.59281317962E+02 -0.68180549680E+02  0.25696336992E+03  0.80810338329E+02 0.  0.
        -15    1    3    3    0    0  0.83508951139E+02 -0.10788425915E+03 -0.86006294709E+02  0.16127566780E+03  0.00000000000E+00 0.  1.
        -15    1    4    4    0    0 -0.97646029519E+02  0.86553800475E+01 -0.11801295571E+02  0.98736686504E+02  0.00000000000E+00 0. -1.
         15    1    4    4    0    0 -0.21068857697E+01  0.10198897274E+02 -0.81645930865E+01  0.13233180023E+02  0.00000000000E+00 0. -1.
         15    1    4    4    0    0 -0.17468353612E+02  0.11536443858E+01 -0.17622212120E+02  0.24839819510E+02  0.00000000000E+00 0.  1.
        -16    1    4    4    0    0 -0.10935543044E+03  0.39273396255E+02 -0.30592448902E+02  0.12015368388E+03  0.00000000000E+00 0.  1.
         16    1    1    2    0    0 -0.14178922651E+03  0.28356044900E+03 -0.65856339276E+02  0.32380205437E+03  0.00000000000E+00 0. -1.
    9900018    1    3    3    0    0  0.28485697471E+03 -0.23495750781E+03 -0.23376414957E+03  0.44644079398E+03  0.91187600000E+02 0.  0.
<mgrwt>
<rscale>  0 0.10984298E+04</rscale>
<asrwt>0</asrwt>
<pdfrwt beam="1">  1        1 0.56513427E-01 0.10984298E+04</pdfrwt>
<pdfrwt beam="2">  1       -1 0.12632994E+00 0.10984298E+04</pdfrwt>
<totfact> 0.36505641E+01</totfact>
</mgrwt>
</event>
<event>
11    1  0.1439410E-014  0.2384861E+04  0.7818608E-02  0.8445193E-01
         -1   -1    0    0    0  501 -0.00000000000E+00  0.00000000000E+00  0.14728746723E+04  0.14728746723E+04  0.00000000000E+00 0.  1.
          1   -1    0    0  501    0  0.00000000000E+00 -0.00000000000E+00 -0.96538497497E+03  0.96538497497E+03  0.00000000000E+00 0. -1.
    9900016    2    1    2    0    0  0.47725560594E+03 -0.95390950891E+03  0.50595024601E+02  0.12778851360E+04  0.70193610791E+03 0.  0.
        -24    2    3    3    0    0  0.80478682174E+02 -0.24209421738E+02 -0.19199050682E+03  0.22727683735E+03  0.87928901397E+02 0.  0.
        -15    1    4    4    0    0  0.27139365089E+02  0.36327210280E+01 -0.53332107370E+02  0.59950441834E+02  0.00000000000E+00 0. -1.
        -15    1    3    3    0    0  0.24081670442E+03 -0.50188444799E+03  0.10740442733E+03  0.56693597105E+03  0.00000000000E+00 0.  1.
         15    1    4    4    0    0  0.87635817464E+01 -0.22498566624E+02 -0.12689070348E+02  0.27276333542E+02  0.00000000000E+00 0.  1.
         15    1    4    4    0    0  0.11487503961E+02  0.14354837120E+02 -0.68109992658E+02  0.70547822049E+02  0.00000000000E+00 0. -1.
        -16    1    4    4    0    0  0.33088231378E+02 -0.19698413262E+02 -0.57859336440E+02  0.69502239921E+02  0.00000000000E+00 0.  1.
         16    1    1    2    0    0 -0.47725560594E+03  0.95390950891E+03  0.45689467274E+03  0.11603745113E+04  0.00000000000E+00 0. -1.
    9900018    1    3    3    0    0  0.15596021934E+03 -0.42781563918E+03  0.13518110409E+03  0.48367232756E+03  0.91187600000E+02 0.  0.
<mgrwt>
<rscale>  0 0.23848615E+04</rscale>
<asrwt>0</asrwt>
<pdfrwt beam="1">  1        1 0.14852077E+00 0.23848615E+04</pdfrwt>
<pdfrwt beam="2">  1       -1 0.22659610E+00 0.23848615E+04</pdfrwt>
<totfact> 0.14375791E+00</totfact>
</mgrwt>
</event>
<event>
11    1  0.1439410E-014  0.9665713E+03  0.7818608E-02  0.9345988E-01
         -2   -1    0    0    0  501 -0.00000000000E+00  0.00000000000E+00  0.10290301758E+03  0.10290301758E+03  0.00000000000E+00 0.  1.
          2   -1    0    0  501    0  0.00000000000E+00 -0.00000000000E+00 -0.22697587310E+04  0.22697587310E+04  0.00000000000E+00 0. -1.
    9900016    2    1    2    0    0  0.36937993658E+02 -0.22129882582E+03 -0.17570998532E+04  0.19055028348E+04  0.70228453913E+03 0.  0.
         24    2    3    3    0    0 -0.11997889306E+03  0.36934476699E+01 -0.56667327541E+02  0.15547007962E+03  0.80939380466E+02 0.  0.
        -15    1    4    4    0    0 -0.28220384000E+02 -0.92210516172E+01 -0.27498070411E+02  0.40466798025E+02  0.00000000000E+00 0.  1.
        -15    1    4    4    0    0 -0.67683041994E+02  0.50377272724E+01 -0.35876383069E+02  0.76769054519E+02  0.00000000000E+00 0.  1.
         15    1    4    4    0    0 -0.10181269212E+02  0.10832842649E+02 -0.87426680396E+01  0.17246534929E+02  0.00000000000E+00 0. -1.
         15    1    3    3    0    0  0.11336404568E+03 -0.11512622414E+03 -0.29207302033E+03  0.33378451663E+03  0.00000000000E+00 0. -1.
        -16    1    1    2    0    0 -0.36937993658E+02  0.22129882582E+03 -0.40975586030E+03  0.46715891379E+03  0.00000000000E+00 0.  1.
         16    1    4    4    0    0 -0.13894197854E+02 -0.29560706343E+01  0.15449793978E+02  0.20987692145E+02  0.00000000000E+00 0. -1.
    9900018    1    3    3    0    0  0.43552841035E+02 -0.10986604935E+03 -0.14083595053E+04  0.14162482386E+04  0.91187600000E+02 0.  0.
<mgrwt>
<rscale>  0 0.96657131E+03</rscale>
<asrwt>0</asrwt>
<pdfrwt beam="1">  1        2 0.34919364E+00 0.96657131E+03</pdfrwt>
<pdfrwt beam="2">  1       -2 0.15831234E-01 0.96657131E+03</pdfrwt>
<totfact> 0.15248523E+02</totfact>
</mgrwt>
</event>
<event>
11    1  0.1439410E-014  0.1286152E+04  0.7818608E-02  0.9040620E-01
         -2   -1    0    0    0  501 -0.00000000000E+00  0.00000000000E+00  0.39306924543E+03  0.39306924543E+03  0.00000000000E+00 0. -1.
          2   -1    0    0  501    0  0.00000000000E+00 -0.00000000000E+00 -0.10520956194E+04  0.10520956194E+04  0.00000000000E+00 0.  1.
    9900016    2    1    2    0    0 -0.36217566818E+02 -0.23131364530E+03 -0.10008661123E+02  0.75520710798E+03  0.71792749495E+03 0.  0.
         24    2    3    3    0    0 -0.18845142115E+03  0.18653828861E+03  0.18144937874E+02  0.27852589020E+03  0.83288423485E+02 0.  0.
        -15    1    4    4    0    0 -0.22629866408E+02  0.33569235118E+01 -0.64162505514E+01  0.23760220122E+02  0.00000000000E+00 0.  1.
        -15    1    4    4    0    0 -0.18935705051E+02  0.17459004060E+02 -0.27667198275E+01  0.25904294762E+02  0.00000000000E+00 0. -1.
         15    1    3    3    0    0  0.12552206561E+03 -0.17772761724E+03 -0.10492995922E+02  0.21783709016E+03  0.00000000000E+00 0. -1.
         15    1    4    4    0    0 -0.13853015508E+02  0.76489278375E+01  0.15137383460E+02  0.21898687490E+02  0.00000000000E+00 0.  1.
        -16    1    1    2    0    0  0.36217566818E+02  0.23131364530E+03 -0.64901771283E+03  0.68995775683E+03  0.00000000000E+00 0.  1.
         16    1    4    4    0    0 -0.13303283418E+03  0.15807343320E+03  0.12190524793E+02  0.20696268782E+03  0.00000000000E+00 0. -1.
    9900018    1    3    3    0    0  0.26711788728E+02 -0.24012431667E+03 -0.17660603075E+02  0.25884412763E+03  0.91187600000E+02 0.  0.
<mgrwt>
<rscale>  0 0.12861515E+04</rscale>
<asrwt>0</asrwt>
<pdfrwt beam="1">  1        2 0.16186086E+00 0.12861515E+04</pdfrwt>
<pdfrwt beam="2">  1       -2 0.60472192E-01 0.12861515E+04</pdfrwt>
<totfact> 0.58328565E+01</totfact>
</mgrwt>
</event>
<event>
11    1  0.1439410E-014  0.9206655E+03  0.7818608E-02  0.9400111E-01
          2   -1    0    0  501    0  0.00000000000E+00  0.00000000000E+00  0.15028054599E+04  0.15028054599E+04  0.00000000000E+00 0. -1.
         -2   -1    0    0    0  501 -0.00000000000E+00 -0.00000000000E+00 -0.14100710217E+03  0.14100710217E+03  0.00000000000E+00 0.  1.
    9900016    2    1    2    0    0  0.11786570978E+03  0.96920312294E+02  0.88553875258E+03  0.11437034900E+04  0.70752591348E+03 0.  0.
        -24    2    3    3    0    0  0.82428043457E+02  0.27766852168E+03  0.15618039380E+03  0.34080608107E+03  0.88669494228E+02 0.  0.
        -15    1    3    3    0    0  0.10316808140E+03 -0.18107108122E+02  0.43843611102E+03  0.45077460424E+03  0.00000000000E+00 0.  1.
        -15    1    4    4    0    0  0.29772007215E+02  0.13698222217E+03  0.60024823038E+02  0.15249092099E+03  0.00000000000E+00 0.  1.
         15    1    4    4    0    0 -0.18016714739E+00  0.52863075004E+02  0.58107216366E+02  0.78555622032E+02  0.00000000000E+00 0. -1.
         15    1    4    4    0    0  0.11537240434E+02  0.12292191404E+02  0.68237512436E+01  0.18187068686E+02  0.00000000000E+00 0. -1.
        -16    1    4    4    0    0  0.41298962956E+02  0.75531033099E+02  0.31224603154E+02  0.91572469358E+02  0.00000000000E+00 0.  1.
         16    1    1    2    0    0 -0.11786570978E+03 -0.96920312294E+02  0.47625960516E+03  0.50010907209E+03  0.00000000000E+00 0. -1.
    9900018    1    3    3    0    0 -0.67730415077E+02 -0.16264110126E+03  0.29092224776E+03  0.35212280468E+03  0.91187600000E+02 0.  0.
<mgrwt>
<rscale>  0 0.92066551E+03</rscale>
<asrwt>0</asrwt>
<pdfrwt beam="1">  1        2 0.23120083E+00 0.92066551E+03</pdfrwt>
<pdfrwt beam="2">  1       -2 0.21693401E-01 0.92066551E+03</pdfrwt>
<totfact> 0.23451506E+02</totfact>
</mgrwt>
</event>
<event>
11    1  0.1439410E-014  0.1037436E+04  0.7818608E-02  0.9268412E-01
          2   -1    0    0  501    0  0.00000000000E+00  0.00000000000E+00  0.48095945425E+03  0.48095945425E+03  0.00000000000E+00 0. -1.
         -2   -1    0    0    0  501 -0.00000000000E+00 -0.00000000000E+00 -0.55944100049E+03  0.55944100049E+03  0.00000000000E+00 0.  1.
    9900016    2    1    2    0    0  0.17201816865E+02 -0.26693424619E+03 -0.57291942588E+02  0.77207454544E+03  0.72198818740E+03 0.  0.
        -24    2    3    3    0    0 -0.21728043560E+03 -0.18596113898E+03 -0.23845033286E+03  0.38093718194E+03  0.80388073980E+02 0.  0.
        -15    1    4    4    0    0 -0.74443257175E+02 -0.59428392319E+02 -0.63489414573E+02  0.11447461778E+03  0.00000000000E+00 0.  1.
        -15    1    3    3    0    0  0.81868510701E+02 -0.86774757097E+02  0.17670431393E+03  0.21320583030E+03  0.00000000000E+00 0.  1.
         15    1    4    4    0    0 -0.23624668389E+02 -0.13254250468E+02 -0.44987104885E+01  0.27459761616E+02  0.00000000000E+00 0. -1.
         15    1    4    4    0    0 -0.10222828669E+01 -0.11430478036E+02 -0.12866344279E+02  0.17240757103E+02  0.00000000000E+00 0. -1.
        -16    1    4    4    0    0 -0.11819022717E+03 -0.10184801815E+03 -0.15759586352E+03  0.22176204544E+03  0.00000000000E+00 0.  1.
         16    1    1    2    0    0 -0.17201816865E+02  0.26693424619E+03 -0.21189603654E+02  0.26832590929E+03  0.00000000000E+00 0. -1.
    9900018    1    3    3    0    0  0.15261374177E+03  0.58016498794E+01  0.44540763394E+01  0.17793153320E+03  0.91187600000E+02 0.  0.
<mgrwt>
<rscale>  0 0.10374361E+04</rscale>
<asrwt>0</asrwt>
<pdfrwt beam="1">  1        2 0.73993762E-01 0.10374361E+04</pdfrwt>
<pdfrwt beam="2">  1       -2 0.86067846E-01 0.10374361E+04</pdfrwt>
<totfact> 0.75212992E+01</totfact>
</mgrwt>
</event>
<event>
11    1  0.1439410E-014  0.1236834E+04  0.7818608E-02  0.9081213E-01
          2   -1    0    0  501    0  0.00000000000E+00  0.00000000000E+00  0.14359206623E+04  0.14359206623E+04  0.00000000000E+00 0. -1.
         -2   -1    0    0    0  501 -0.00000000000E+00 -0.00000000000E+00 -0.26633765179E+03  0.26633765179E+03  0.00000000000E+00 0.  1.
    9900016    2    1    2    0    0 -0.27743454265E+03  0.56643647959E+02  0.11996510832E+04  0.14175083934E+04  0.69999206839E+03 0.  0.
         24    2    3    3    0    0  0.18121458305E+03  0.80763093438E+02  0.33726341054E+03  0.39930718805E+03  0.79612938438E+02 0.  0.
        -15    1    4    4    0    0  0.84570611726E+02  0.16589164865E+02  0.11069109546E+03  0.14028509320E+03  0.00000000000E+00 0.  1.
        -15    1    4    4    0    0  0.45698964113E+02  0.96464393764E+01  0.11105346033E+03  0.12047539236E+03  0.00000000000E+00 0.  1.
         15    1    3    3    0    0 -0.34529390505E+03  0.63810985001E+02  0.69989762945E+03  0.78304304759E+03  0.00000000000E+00 0. -1.
         15    1    4    4    0    0  0.34712775764E+02  0.34276291835E+02  0.60535430495E+02  0.77745606489E+02  0.00000000000E+00 0. -1.
        -16    1    1    2    0    0  0.27743454265E+03 -0.56643647959E+02 -0.30068072675E+02  0.28474992063E+03  0.00000000000E+00 0.  1.
         16    1    4    4    0    0  0.16232231450E+02  0.20251197362E+02  0.54983424247E+02  0.60801095997E+02  0.00000000000E+00 0. -1.
    9900018    1    3    3    0    0 -0.11335522065E+03 -0.87930430480E+02  0.16249004318E+03  0.23515815780E+03  0.91187600000E+02 0.  0.
<mgrwt>
<rscale>  0 0.12368342E+04</rscale>
<asrwt>0</asrwt>
<pdfrwt beam="1">  1        2 0.22091087E+00 0.12368342E+04</pdfrwt>
<pdfrwt beam="2">  1       -2 0.40975024E-01 0.12368342E+04</pdfrwt>
<totfact> 0.76602336E+01</totfact>
</mgrwt>
</event>
<event>
11    1  0.1439410E-014  0.9221120E+03  0.7818608E-02  0.9398355E-01
         -2   -1    0    0    0  501 -0.00000000000E+00  0.00000000000E+00  0.17826926206E+03  0.17826926206E+03  0.00000000000E+00 0. -1.
          2   -1    0    0  501    0  0.00000000000E+00 -0.00000000000E+00 -0.11924244349E+04  0.11924244349E+04  0.00000000000E+00 0.  1.
    9900016    2    1    2    0    0  0.10844762929E+03  0.15349992321E+03 -0.81341378104E+03  0.10957023860E+04  0.70964683102E+03 0.  0.
        -24    2    3    3    0    0  0.13043860101E+03 -0.12738622762E+03 -0.45999241891E+01  0.19634368073E+03  0.72720025048E+02 0.  0.
        -15    1    3    3    0    0  0.79740795258E+02  0.81664071654E+02 -0.10442884313E+03  0.15470293567E+03  0.00000000000E+00 0.  1.
        -15    1    4    4    0    0  0.29766062069E+02 -0.97236908481E+01 -0.16059229170E+02  0.35191866338E+02  0.00000000000E+00 0.  1.
         15    1    4    4    0    0  0.58338898573E+02 -0.80926255650E+02 -0.10730619222E+02  0.10033759081E+03  0.00000000000E+00 0. -1.
         15    1    4    4    0    0  0.94082910161E+01 -0.12622846616E+02  0.75151623414E+01  0.17445052638E+02  0.00000000000E+00 0. -1.
        -16    1    4    4    0    0  0.32925349349E+02 -0.24113434502E+02  0.14674761862E+02  0.43369170951E+02  0.00000000000E+00 0.  1.
         16    1    1    2    0    0 -0.10844762929E+03 -0.15349992321E+03 -0.20074139183E+03  0.27499131099E+03  0.00000000000E+00 0. -1.
    9900018    1    3    3    0    0 -0.10173176698E+03  0.19922207918E+03 -0.70438501371E+03  0.74465576959E+03  0.91187600000E+02 0.  0.
<mgrwt>
<rscale>  0 0.92211198E+03</rscale>
<asrwt>0</asrwt>
<pdfrwt beam="1">  1        2 0.18344992E+00 0.92211198E+03</pdfrwt>
<pdfrwt beam="2">  1       -2 0.27426039E-01 0.92211198E+03</pdfrwt>
<totfact> 0.23186168E+02</totfact>
</mgrwt>
</event>
<event>
11    1  0.1439410E-014  0.1247659E+04  0.7818608E-02  0.9072134E-01
          2   -1    0    0  501    0  0.00000000000E+00  0.00000000000E+00  0.30716464068E+04  0.30716464068E+04  0.00000000000E+00 0. -1.
         -2   -1    0    0    0  501 -0.00000000000E+00 -0.00000000000E+00 -0.12669527164E+03  0.12669527164E+03  0.00000000000E+00 0.  1.
    9900016    2    1    2    0    0 -0.16776697423E+03 -0.13484779209E+03  0.28790020976E+04  0.29732217987E+04  0.71067932435E+03 0.  0.
         24    2    3    3    0    0 -0.14285121966E+03  0.14578501860E+03  0.64286008525E+03  0.67830743056E+03  0.71917581545E+02 0.  0.
        -15    1    4    4    0    0 -0.12495063929E+02  0.18403569319E+02  0.12014703935E+03  0.12218890723E+03  0.00000000000E+00 0.  1.
        -15    1    4    4    0    0 -0.15297791327E+02  0.83712652609E+01  0.79249388329E+02  0.81145339066E+02  0.00000000000E+00 0.  1.
         15    1    4    4    0    0 -0.87328114981E+02  0.76193708620E+02  0.34714652859E+03  0.36598141102E+03  0.00000000000E+00 0. -1.
         15    1    3    3    0    0  0.12299996312E+02 -0.13644404923E+03  0.15665223494E+03  0.20810620171E+03  0.00000000000E+00 0. -1.
        -16    1    1    2    0    0  0.16776697423E+03  0.13484779209E+03  0.65949037597E+02  0.22511987969E+03  0.00000000000E+00 0.  1.
         16    1    4    4    0    0 -0.27730249423E+02  0.42816475399E+02  0.96317128975E+02  0.10899177323E+03  0.00000000000E+00 0. -1.
    9900018    1    3    3    0    0 -0.37215750877E+02 -0.14418876146E+03  0.20794897774E+04  0.20868081665E+04  0.91187600000E+02 0.  0.
<mgrwt>
<rscale>  0 0.12476587E+04</rscale>
<asrwt>0</asrwt>
<pdfrwt beam="1">  1        2 0.47256093E+00 0.12476587E+04</pdfrwt>
<pdfrwt beam="2">  1       -2 0.19491583E-01 0.12476587E+04</pdfrwt>
<totfact> 0.35005454E+01</totfact>
</mgrwt>
</event>
<event>
11    1  0.1439410E-014  0.1370727E+04  0.7818608E-02  0.8975285E-01
          2   -1    0    0  501    0  0.00000000000E+00  0.00000000000E+00  0.21600832979E+04  0.21600832979E+04  0.00000000000E+00 0. -1.
         -2   -1    0    0    0  501 -0.00000000000E+00 -0.00000000000E+00 -0.21745606892E+03  0.21745606892E+03  0.00000000000E+00 0.  1.
    9900016    2    1    2    0    0 -0.26967977847E+02 -0.34823393197E+03  0.18504995529E+04  0.20163169258E+04  0.72054923974E+03 0.  0.
         24    2    3    3    0    0  0.10669475261E+03  0.12737531190E+03  0.15227520357E+03  0.23917991354E+03  0.80069052096E+02 0.  0.
        -15    1    4    4    0    0  0.17068290790E+02  0.11838853962E+02  0.45911817123E+02  0.50392260965E+02  0.00000000000E+00 0.  1.
        -15    1    4    4    0    0  0.38434919784E+02  0.49694232164E+02  0.15375360800E+02  0.64677364579E+02  0.00000000000E+00 0.  1.
         15    1    4    4    0    0  0.12164528619E+02  0.11975494708E+02  0.12114759851E+02  0.20932167501E+02  0.00000000000E+00 0. -1.
         15    1    3    3    0    0 -0.60431322851E+02 -0.26587043474E+03  0.10806822165E+04  0.11145461345E+04  0.00000000000E+00 0. -1.
        -16    1    1    2    0    0  0.26967977847E+02  0.34823393197E+03  0.92127676137E+02  0.36122244105E+03  0.00000000000E+00 0.  1.
         16    1    4    4    0    0  0.39027013418E+02  0.53866731069E+02  0.78873265796E+02  0.10317812050E+03  0.00000000000E+00 0. -1.
    9900018    1    3    3    0    0 -0.73231407609E+02 -0.20973880913E+03  0.61754213278E+03  0.66259087774E+03  0.91187600000E+02 0.  0.
<mgrwt>
<rscale>  0 0.13707271E+04</rscale>
<asrwt>0</asrwt>
<pdfrwt beam="1">  1        2 0.33232049E+00 0.13707271E+04</pdfrwt>
<pdfrwt beam="2">  1       -2 0.33454781E-01 0.13707271E+04</pdfrwt>
<totfact> 0.44351085E+01</totfact>
</mgrwt>
</event>
<event>
11    1  0.1439410E-014  0.1087756E+04  0.7818608E-02  0.9217209E-01
         -1   -1    0    0    0  501 -0.00000000000E+00  0.00000000000E+00  0.23859373890E+03  0.23859373890E+03  0.00000000000E+00 0.  1.
          1   -1    0    0  501    0  0.00000000000E+00 -0.00000000000E+00 -0.12397780653E+04  0.12397780653E+04  0.00000000000E+00 0. -1.
    9900016    2    1    2    0    0 -0.18103725086E+03 -0.20425942813E+03 -0.50598729701E+03  0.91293701742E+03  0.70917871715E+03 0.  0.
        -24    2    3    3    0    0  0.61484369273E+02  0.13827858583E+03 -0.24397529811E+02  0.17263093979E+03  0.79403444172E+02 0.  0.
        -15    1    4    4    0    0 -0.37070314356E+01  0.60472512013E+02 -0.25158914416E+01  0.60638242891E+02  0.00000000000E+00 0. -1.
        -15    1    3    3    0    0 -0.22004967978E+03 -0.97796932205E+02 -0.39796747164E+03  0.46514966409E+03  0.00000000000E+00 0.  1.
         15    1    4    4    0    0  0.45651905336E+01  0.20570372483E+02 -0.17900459332E+02  0.27647922760E+02  0.00000000000E+00 0. -1.
         15    1    4    4    0    0  0.20058492085E+02  0.13458008400E+02  0.26192242846E+01  0.24296531248E+02  0.00000000000E+00 0.  1.
        -16    1    4    4    0    0  0.40567718090E+02  0.43777692939E+02 -0.66004033217E+01  0.60048242889E+02  0.00000000000E+00 0.  1.
         16    1    1    2    0    0  0.18103725086E+03  0.20425942813E+03 -0.49519702941E+03  0.56543478679E+03  0.00000000000E+00 0. -1.
    9900018    1    3    3    0    0 -0.22471940353E+02 -0.24474108176E+03 -0.83622295563E+02  0.27515641354E+03  0.91187600000E+02 0.  0.
<mgrwt>
<rscale>  0 0.10877560E+04</rscale>
<asrwt>0</asrwt>
<pdfrwt beam="1">  1        1 0.19073509E+00 0.10877560E+04</pdfrwt>
<pdfrwt beam="2">  1       -1 0.36706728E-01 0.10877560E+04</pdfrwt>
<totfact> 0.70941033E+01</totfact>
</mgrwt>
</event>
<event>
11    1  0.1439410E-014  0.8194861E+03  0.7818608E-02  0.9532232E-01
          1   -1    0    0  501    0  0.00000000000E+00  0.00000000000E+00  0.80801027584E+03  0.80801027584E+03  0.00000000000E+00 0.  1.
         -1   -1    0    0    0  501 -0.00000000000E+00 -0.00000000000E+00 -0.20778120440E+03  0.20778120440E+03  0.00000000000E+00 0. -1.
    9900016    2    1    2    0    0  0.40931269335E+02 -0.49707992891E+02  0.39962538808E+03  0.80510666555E+03  0.69595261243E+03 0.  0.
        -24    2    3    3    0    0  0.22930255385E+03  0.17934362150E+02  0.33013926577E+02  0.24569054217E+03  0.79828695432E+02 0.  0.
        -15    1    3    3    0    0 -0.26032719545E+03 -0.96651137559E+02  0.15963082430E+03  0.32030249944E+03  0.00000000000E+00 0.  1.
        -15    1    4    4    0    0  0.23345694870E+02  0.13374620507E+02 -0.27863298977E+01  0.27049317496E+02  0.00000000000E+00 0.  1.
         15    1    4    4    0    0  0.40475843968E+02 -0.20576742598E+02  0.23734835855E+00  0.45406526129E+02  0.00000000000E+00 0. -1.
         15    1    4    4    0    0  0.84026392218E+02 -0.28379147114E+00  0.21735595105E+02  0.86792575842E+02  0.00000000000E+00 0. -1.
        -16    1    4    4    0    0  0.81454622794E+02  0.25420275712E+02  0.13827313010E+02  0.86442122700E+02  0.00000000000E+00 0.  1.
         16    1    1    2    0    0 -0.40931269335E+02  0.49707992891E+02  0.20060368336E+03  0.21068481470E+03  0.00000000000E+00 0. -1.
    9900018    1    3    3    0    0  0.71955910937E+02  0.29008782519E+02  0.20698063720E+03  0.23911362394E+03  0.91187600000E+02 0.  0.
<mgrwt>
<rscale>  0 0.81948605E+03</rscale>
<asrwt>0</asrwt>
<pdfrwt beam="1">  1        1 0.12430927E+00 0.81948605E+03</pdfrwt>
<pdfrwt beam="2">  1       -1 0.31966340E-01 0.81948605E+03</pdfrwt>
<totfact> 0.20030075E+02</totfact>
</mgrwt>
</event>
<event>
11    1  0.1439410E-014  0.9650592E+03  0.7818608E-02  0.9347720E-01
         -2   -1    0    0    0  501 -0.00000000000E+00  0.00000000000E+00  0.19313520925E+03  0.19313520925E+03  0.00000000000E+00 0.  1.
          2   -1    0    0  501    0  0.00000000000E+00 -0.00000000000E+00 -0.12055534806E+04  0.12055534806E+04  0.00000000000E+00 0. -1.
    9900016    2    1    2    0    0  0.17651330213E+03  0.22036120115E+02 -0.84289089513E+03  0.11529610607E+04  0.76629733788E+03 0.  0.
         24    2    3    3    0    0 -0.12299011540E+03  0.16263525799E+03 -0.68418175385E+02  0.22861547999E+03  0.77506098752E+02 0.  0.
        -15    1    4    4    0    0 -0.39861489439E+02  0.12249873409E+02 -0.36174651278E+01  0.41857900004E+02  0.00000000000E+00 0.  1.
        -15    1    4    4    0    0 -0.49410444475E+01  0.34749488816E+02 -0.10111422915E+02  0.36526452970E+02  0.00000000000E+00 0. -1.
         15    1    3    3    0    0 -0.82363827621E+02 -0.15136923846E+02 -0.20432978116E+03  0.22082478582E+03  0.00000000000E+00 0. -1.
         15    1    4    4    0    0 -0.44743393546E+02  0.71017161073E+02 -0.28674244763E+02  0.88699609613E+02  0.00000000000E+00 0.  1.
        -16    1    1    2    0    0 -0.17651330213E+03 -0.22036120115E+02 -0.16952737618E+03  0.24572762908E+03  0.00000000000E+00 0.  1.
         16    1    4    4    0    0 -0.33444187964E+02  0.44618734688E+02 -0.26015042580E+02  0.61531517405E+02  0.00000000000E+00 0. -1.
    9900018    1    3    3    0    0  0.38186724514E+03 -0.12546221403E+03 -0.57014293858E+03  0.70352079491E+03  0.91187600000E+02 0.  0.
<mgrwt>
<rscale>  0 0.96505922E+03</rscale>
<asrwt>0</asrwt>
<pdfrwt beam="1">  1        2 0.18546976E+00 0.96505922E+03</pdfrwt>
<pdfrwt beam="2">  1       -2 0.29713110E-01 0.96505922E+03</pdfrwt>
<totfact> 0.19594469E+02</totfact>
</mgrwt>
</event>
<event>
11    1  0.1439410E-014  0.1937201E+04  0.7818608E-02  0.8636557E-01
          1   -1    0    0  501    0  0.00000000000E+00  0.00000000000E+00  0.17500867816E+04  0.17500867816E+04  0.00000000000E+00 0. -1.
         -1   -1    0    0    0  501 -0.00000000000E+00 -0.00000000000E+00 -0.53608037380E+03  0.53608037380E+03  0.00000000000E+00 0.  1.
    9900016    2    1    2    0    0 -0.74199054885E+03 -0.15278347132E+03  0.21313403984E+03  0.10309228522E+04  0.66594522645E+03 0.  0.
        -24    2    3    3    0    0  0.78019683364E+02 -0.24529177309E+02 -0.53113051651E+02  0.12653896992E+03  0.80637231605E+02 0.  0.
        -15    1    4    4    0    0  0.13969225133E+02 -0.22480723260E+02 -0.17832848279E+02  0.31914458273E+02  0.00000000000E+00 0. -1.
        -15    1    3    3    0    0 -0.36811152907E+03 -0.11113943800E+03  0.28964084939E+02  0.38561248778E+03  0.00000000000E+00 0.  1.
         15    1    4    4    0    0  0.23290417060E+02 -0.41510548407E+01 -0.17943896887E+02  0.29692730063E+02  0.00000000000E+00 0.  1.
         15    1    4    4    0    0  0.23471732355E+02 -0.22635638946E+01  0.15040918656E+02  0.27969182600E+02  0.00000000000E+00 0. -1.
        -16    1    4    4    0    0  0.17288308815E+02  0.43661646865E+01 -0.32377225141E+02  0.36962598983E+02  0.00000000000E+00 0.  1.
         16    1    1    2    0    0  0.74199054885E+03  0.15278347132E+03  0.10008723680E+04  0.12552443032E+04  0.00000000000E+00 0. -1.
    9900018    1    3    3    0    0 -0.45189870315E+03 -0.17114856012E+02  0.23728300655E+03  0.51877139454E+03  0.91187600000E+02 0.  0.
<mgrwt>
<rscale>  0 0.19372013E+04</rscale>
<asrwt>0</asrwt>
<pdfrwt beam="1">  1        1 0.26924412E+00 0.19372013E+04</pdfrwt>
<pdfrwt beam="2">  1       -1 0.82473905E-01 0.19372013E+04</pdfrwt>
<totfact> 0.60038808E+00</totfact>
</mgrwt>
</event>
<event>
11    1  0.1439410E-014  0.1553494E+04  0.7818608E-02  0.8849639E-01
          1   -1    0    0  501    0  0.00000000000E+00  0.00000000000E+00  0.76331825287E+03  0.76331825287E+03  0.00000000000E+00 0. -1.
         -1   -1    0    0    0  501 -0.00000000000E+00 -0.00000000000E+00 -0.79041169380E+03  0.79041169380E+03  0.00000000000E+00 0.  1.
    9900016    2    1    2    0    0 -0.33988376663E+03 -0.41852269471E+03 -0.31506242643E+03  0.94249483853E+03  0.70593906770E+03 0.  0.
        -24    2    3    3    0    0 -0.43533681469E+02 -0.66433030737E+01  0.11297517784E+02  0.96475700888E+02  0.85091786065E+02 0.  0.
        -15    1    4    4    0    0 -0.28589968895E+02  0.79528381222E+00  0.10061335203E+02  0.30319123731E+02  0.00000000000E+00 0. -1.
        -15    1    3    3    0    0 -0.36672590865E+03 -0.15313806338E+03  0.20830170303E+02  0.39796112187E+03  0.00000000000E+00 0.  1.
         15    1    4    4    0    0 -0.95670224983E+01 -0.10329691767E+02  0.16635109391E+02  0.21793515456E+02  0.00000000000E+00 0.  1.
         15    1    4    4    0    0  0.10220713497E+02 -0.72259074528E+01  0.77123223513E+01  0.14702266457E+02  0.00000000000E+00 0. -1.
        -16    1    4    4    0    0 -0.15597403573E+02  0.10117012334E+02 -0.23111249161E+02  0.29660795244E+02  0.00000000000E+00 0.  1.
         16    1    1    2    0    0  0.33988376663E+03  0.41852269471E+03  0.28796898550E+03  0.61123510814E+03  0.00000000000E+00 0. -1.
    9900018    1    3    3    0    0  0.70375823484E+02 -0.25874132827E+03 -0.34719011452E+03  0.44805801577E+03  0.91187600000E+02 0.  0.
<mgrwt>
<rscale>  0 0.15534937E+04</rscale>
<asrwt>0</asrwt>
<pdfrwt beam="1">  1        1 0.11743358E+00 0.15534937E+04</pdfrwt>
<pdfrwt beam="2">  1       -1 0.12160180E+00 0.15534937E+04</pdfrwt>
<totfact> 0.13754449E+01</totfact>
</mgrwt>
</event>
<event>
11    1  0.1439410E-014  0.1262043E+04  0.7818608E-02  0.9060219E-01
          1   -1    0    0  501    0  0.00000000000E+00  0.00000000000E+00  0.13438804487E+04  0.13438804487E+04  0.00000000000E+00 0. -1.
         -1   -1    0    0    0  501 -0.00000000000E+00 -0.00000000000E+00 -0.29629718538E+03  0.29629718538E+03  0.00000000000E+00 0.  1.
    9900016    2    1    2    0    0 -0.23788441640E+03  0.10567520885E+03  0.11365324834E+04  0.13650990834E+04  0.70995293950E+03 0.  0.
         24    2    3    3    0    0 -0.41954629103E+02 -0.14233704574E+03  0.26996589957E+03  0.31970510798E+03  0.85497038797E+02 0.  0.
        -15    1    4    4    0    0 -0.38953108103E+01 -0.28020625180E+02  0.23642014640E+02  0.36868329743E+02  0.00000000000E+00 0. -1.
        -15    1    4    4    0    0  0.12440940921E+02 -0.73426724026E+01  0.47431113548E+02  0.49582278905E+02  0.00000000000E+00 0.  1.
         15    1    3    3    0    0 -0.29616040164E+03  0.18529775679E+02  0.31465137357E+03  0.43250413059E+03  0.00000000000E+00 0. -1.
         15    1    4    4    0    0 -0.14386507033E+02 -0.24927654407E+02  0.74996324524E+02  0.80329373400E+02  0.00000000000E+00 0.  1.
        -16    1    1    2    0    0  0.23788441640E+03 -0.10567520885E+03 -0.88949220034E+02  0.27507855074E+03  0.00000000000E+00 0.  1.
         16    1    4    4    0    0 -0.36113752182E+02 -0.82046093748E+02  0.12389644686E+03  0.15292512593E+03  0.00000000000E+00 0. -1.
    9900018    1    3    3    0    0  0.10023061434E+03  0.22948247891E+03  0.55191521023E+03  0.61288984479E+03  0.91187600000E+02 0.  0.
<mgrwt>
<rscale>  0 0.12620428E+04</rscale>
<asrwt>0</asrwt>
<pdfrwt beam="1">  1        1 0.20675083E+00 0.12620428E+04</pdfrwt>
<pdfrwt beam="2">  1       -1 0.45584183E-01 0.12620428E+04</pdfrwt>
<totfact> 0.39635296E+01</totfact>
</mgrwt>
</event>
<event>
11    1  0.1439410E-014  0.9455170E+03  0.7818608E-02  0.9370406E-01
          3   -1    0    0  501    0  0.00000000000E+00  0.00000000000E+00  0.11746420674E+03  0.11746420674E+03  0.00000000000E+00 0. -1.
         -3   -1    0    0    0  501 -0.00000000000E+00 -0.00000000000E+00 -0.19027122439E+04  0.19027122439E+04  0.00000000000E+00 0.  1.
    9900016    2    1    2    0    0 -0.29334384819E+02  0.19936486728E+03 -0.13850801161E+04  0.15721349107E+04  0.71592904194E+03 0.  0.
        -24    2    3    3    0    0  0.19195542873E+03 -0.21249767485E+02 -0.32416976895E+03  0.38571950201E+03  0.79969093346E+02 0.  0.
        -15    1    4    4    0    0  0.54812617691E+02 -0.27022496811E+02 -0.10112890299E+03  0.11815960990E+03  0.00000000000E+00 0.  1.
        -15    1    3    3    0    0 -0.11681989540E+03  0.18295888818E+02 -0.23697355887E+02  0.12059515821E+03  0.00000000000E+00 0.  1.
         15    1    4    4    0    0  0.36639785312E+02  0.86135763405E+01 -0.61737319133E+02  0.72306044967E+02  0.00000000000E+00 0. -1.
         15    1    4    4    0    0  0.64815142982E+02 -0.33886042852E+01 -0.62108646286E+02  0.89833008088E+02  0.00000000000E+00 0. -1.
        -16    1    4    4    0    0  0.35687882748E+02  0.54775727056E+00 -0.99194900539E+02  0.10542083905E+03  0.00000000000E+00 0.  1.
         16    1    1    2    0    0  0.29334384819E+02 -0.19936486728E+03 -0.40016792111E+03  0.44804153995E+03  0.00000000000E+00 0. -1.
    9900018    1    3    3    0    0 -0.10446991815E+03  0.20231874595E+03 -0.10372129912E+04  0.10658202505E+04  0.91187600000E+02 0.  0.
<mgrwt>
<rscale>  0 0.94551697E+03</rscale>
<asrwt>0</asrwt>
<pdfrwt beam="1">  1        3 0.18071416E-01 0.94551697E+03</pdfrwt>
<pdfrwt beam="2">  1       -3 0.29272496E+00 0.94551697E+03</pdfrwt>
<totfact> 0.30660046E+00</totfact>
</mgrwt>
</event>
<event>
11    1  0.1439410E-014  0.8386028E+03  0.7818608E-02  0.9505763E-01
         -2   -1    0    0    0  501 -0.00000000000E+00  0.00000000000E+00  0.45802066629E+03  0.45802066629E+03  0.00000000000E+00 0.  1.
          2   -1    0    0  501    0  0.00000000000E+00 -0.00000000000E+00 -0.38385534335E+03  0.38385534335E+03  0.00000000000E+00 0. -1.
    9900016    2    1    2    0    0 -0.33070439335E+00  0.10942639381E+03  0.73900592650E+02  0.73244879588E+03  0.72044826044E+03 0.  0.
         24    2    3    3    0    0  0.73073497153E+02 -0.81861762685E+02 -0.15580207042E+03  0.20444767182E+03  0.74050531327E+02 0.  0.
        -15    1    4    4    0    0  0.28529890066E+02 -0.16128976148E+02 -0.64314313628E+02  0.72183304414E+02  0.00000000000E+00 0.  1.
        -15    1    4    4    0    0  0.27755679526E+02 -0.10259580612E+02 -0.34125465175E+02  0.45168397289E+02  0.00000000000E+00 0.  1.
         15    1    4    4    0    0 -0.81738012865E+01 -0.11668133171E+02 -0.18973882966E+02  0.23726874931E+02  0.00000000000E+00 0. -1.
         15    1    3    3    0    0 -0.89579042459E+02  0.14803566901E+01  0.29390919240E+03  0.30726081703E+03  0.00000000000E+00 0. -1.
        -16    1    1    2    0    0  0.33070439335E+00 -0.10942639381E+03  0.26473028994E+00  0.10942721375E+03  0.00000000000E+00 0.  1.
         16    1    4    4    0    0  0.24961728848E+02 -0.43805072754E+02 -0.38388408653E+02  0.63369095188E+02  0.00000000000E+00 0. -1.
    9900018    1    3    3    0    0  0.16174840913E+02  0.18980779980E+03 -0.64206529331E+02  0.22074030703E+03  0.91187600000E+02 0.  0.
<mgrwt>
<rscale>  0 0.83860284E+03</rscale>
<asrwt>0</asrwt>
<pdfrwt beam="1">  1        2 0.59054668E-01 0.83860284E+03</pdfrwt>
<pdfrwt beam="2">  1       -2 0.70464718E-01 0.83860284E+03</pdfrwt>
<totfact> 0.15361566E+02</totfact>
</mgrwt>
</event>
<event>
11    1  0.1439410E-014  0.1231965E+04  0.7818608E-02  0.9085329E-01
         -1   -1    0    0    0  501 -0.00000000000E+00  0.00000000000E+00  0.39989048488E+03  0.39989048488E+03  0.00000000000E+00 0.  1.
          1   -1    0    0  501    0  0.00000000000E+00 -0.00000000000E+00 -0.94884525674E+03  0.94884525674E+03  0.00000000000E+00 0. -1.
    9900016    2    1    2    0    0  0.39660573848E+03 -0.13424825278E+03 -0.31453946858E+03  0.86887196972E+03  0.69331429907E+03 0.  0.
         24    2    3    3    0    0 -0.13277465413E+03  0.87950077300E+01  0.30762587943E+02  0.15867746115E+03  0.80782045792E+02 0.  0.
        -15    1    4    4    0    0 -0.63991796091E+02  0.82142228447E+01  0.42049789761E+02  0.77010442427E+02  0.00000000000E+00 0.  1.
        -15    1    4    4    0    0 -0.31123049424E+02 -0.71361196113E+01  0.70616439030E+01  0.32702220463E+02  0.00000000000E+00 0. -1.
         15    1    3    3    0    0  0.89000107982E+02  0.42535365360E+02 -0.16325592219E+03  0.19074268704E+03  0.00000000000E+00 0. -1.
         15    1    4    4    0    0 -0.17263314311E+02  0.15832959552E+02 -0.87376067440E+01  0.25001007996E+02  0.00000000000E+00 0.  1.
        -16    1    1    2    0    0 -0.39660573848E+03  0.13424825278E+03 -0.23441530328E+03  0.47986377190E+03  0.00000000000E+00 0.  1.
         16    1    4    4    0    0 -0.20396494300E+02 -0.81160550553E+01 -0.96112389776E+01  0.23963790269E+02  0.00000000000E+00 0. -1.
    9900018    1    3    3    0    0  0.44038028463E+03 -0.18557862587E+03 -0.18204613433E+03  0.51945182153E+03  0.91187600000E+02 0.  0.
<mgrwt>
<rscale>  0 0.12319646E+04</rscale>
<asrwt>0</asrwt>
<pdfrwt beam="1">  1        1 0.14597619E+00 0.12319646E+04</pdfrwt>
<pdfrwt beam="2">  1       -1 0.61521614E-01 0.12319646E+04</pdfrwt>
<totfact> 0.43954572E+01</totfact>
</mgrwt>
</event>
<event>
11    1  0.1439410E-014  0.7571079E+03  0.7818608E-02  0.9624265E-01
         -1   -1    0    0    0  501 -0.00000000000E+00  0.00000000000E+00  0.36062598293E+03  0.36062598293E+03  0.00000000000E+00 0.  1.
          1   -1    0    0  501    0  0.00000000000E+00 -0.00000000000E+00 -0.39737314067E+03  0.39737314067E+03  0.00000000000E+00 0. -1.
    9900016    2    1    2    0    0 -0.12963689761E+02  0.75122195784E+01  0.62485887931E+01  0.71246754209E+03  0.71228257242E+03 0.  0.
        -24    2    3    3    0    0  0.14240214901E+03  0.70329530659E+02  0.23925057535E+02  0.17974319011E+03  0.80688233893E+02 0.  0.
        -15    1    3    3    0    0 -0.32937232861E+03 -0.20662224540E+02 -0.30275832385E+02  0.33140561915E+03  0.00000000000E+00 0.  1.
        -15    1    4    4    0    0  0.18104351030E+01  0.18316555237E+02  0.49997298464E+01  0.19072786098E+02  0.00000000000E+00 0. -1.
         15    1    4    4    0    0  0.62150335782E+02  0.41464923319E+02  0.25070928759E+02  0.78807078188E+02  0.00000000000E+00 0. -1.
         15    1    4    4    0    0  0.57474177177E+02  0.10622663828E+02  0.39722602280E+01  0.58582428085E+02  0.00000000000E+00 0.  1.
        -16    1    4    4    0    0  0.20967200946E+02 -0.74611724244E-01 -0.10117861298E+02  0.23280897741E+02  0.00000000000E+00 0.  1.
         16    1    1    2    0    0  0.12963689761E+02 -0.75122195784E+01 -0.42995746531E+02  0.45531581512E+02  0.00000000000E+00 0. -1.
    9900018    1    3    3    0    0  0.17400648984E+03 -0.42155086540E+02  0.12599363642E+02  0.20131873283E+03  0.91187600000E+02 0.  0.
<mgrwt>
<rscale>  0 0.75710786E+03</rscale>
<asrwt>0</asrwt>
<pdfrwt beam="1">  1        1 0.61134329E-01 0.75710786E+03</pdfrwt>
<pdfrwt beam="2">  1       -1 0.55480921E-01 0.75710786E+03</pdfrwt>
<totfact> 0.20142625E+02</totfact>
</mgrwt>
</event>
<event>
11    1  0.1500668E-014  0.1182598E+04  0.7818608E-02  0.9128227E-01
         -2   -1    0    0    0  501 -0.00000000000E+00  0.00000000000E+00  0.12897964035E+03  0.12897964035E+03  0.00000000000E+00 0.  1.
          2   -1    0    0  501    0  0.00000000000E+00 -0.00000000000E+00 -0.27107708707E+04  0.27107708707E+04  0.00000000000E+00 0. -1.
    9900016    2    1    2    0    0  0.15369004835E+03  0.25277137305E+03 -0.23365799113E+04  0.24555076335E+04  0.69454881617E+03 0.  0.
         24    2    3    3    0    0 -0.10864491356E+03  0.19695560268E+03 -0.84775601045E+03  0.88171202455E+03  0.90169919141E+02 0.  0.
        -15    1    4    4    0    0 -0.66564640916E+01  0.14380673899E+02 -0.59591147582E+02  0.61662121000E+02  0.00000000000E+00 0. -1.
        -15    1    4    4    0    0 -0.67407033303E+01  0.93143333286E+02 -0.28324556324E+03  0.29824346885E+03  0.00000000000E+00 0.  1.
         15    1    3    3    0    0  0.25309280569E+03  0.20067210843E+03 -0.11438795562E+04  0.11886066223E+04  0.00000000000E+00 0. -1.
         15    1    4    4    0    0 -0.18838075312E+02  0.16018990671E+02 -0.12295825799E+03  0.12542015130E+03  0.00000000000E+00 0.  1.
        -16    1    1    2    0    0 -0.15369004835E+03 -0.25277137305E+03 -0.24521131904E+03  0.38424287759E+03  0.00000000000E+00 0.  1.
         16    1    4    4    0    0 -0.76409670823E+02  0.73412604820E+02 -0.38196104164E+03  0.39638628340E+03  0.00000000000E+00 0. -1.
    9900018    1    3    3    0    0  0.92421562165E+01 -0.14485633805E+03 -0.34494434465E+03  0.38518898663E+03  0.91187600000E+02 0.  0.
<mgrwt>
<rscale>  0 0.11825976E+04</rscale>
<asrwt>0</asrwt>
<pdfrwt beam="1">  1        2 0.41704167E+00 0.11825976E+04</pdfrwt>
<pdfrwt beam="2">  1       -2 0.19843022E-01 0.11825976E+04</pdfrwt>
<totfact> 0.56578763E+01</totfact>
</mgrwt>
</event>
<event>
11    1  0.1439410E-014  0.1471967E+04  0.7818608E-02  0.8903311E-01
          2   -1    0    0  501    0  0.00000000000E+00  0.00000000000E+00  0.22696675097E+04  0.22696675097E+04  0.00000000000E+00 0. -1.
         -2   -1    0    0    0  501 -0.00000000000E+00 -0.00000000000E+00 -0.23865698138E+03  0.23865698138E+03  0.00000000000E+00 0.  1.
    9900016    2    1    2    0    0 -0.54264199760E+03 -0.11905463372E+03  0.11818606821E+04  0.14935881683E+04  0.72482867030E+03 0.  0.
        -24    2    3    3    0    0 -0.31205735913E+02  0.20377923847E+03  0.20254167024E+03  0.30005100747E+03  0.80670334809E+02 0.  0.
        -15    1    3    3    0    0 -0.42657392993E+03 -0.30032134120E+03  0.91072849960E+03  0.10495640169E+04  0.00000000000E+00 0.  1.
        -15    1    4    4    0    0 -0.17835896757E+02  0.10667609054E+02  0.19478327832E+02  0.28483720809E+02  0.00000000000E+00 0.  1.
         15    1    4    4    0    0 -0.13588345928E+02  0.52621180354E+02  0.26942236472E+02  0.60659013123E+02  0.00000000000E+00 0. -1.
         15    1    4    4    0    0  0.70270672488E+01  0.25636575095E+02  0.25419750695E+02  0.36780122105E+02  0.00000000000E+00 0. -1.
        -16    1    4    4    0    0 -0.68085604772E+01  0.11485387397E+03  0.13070135524E+03  0.17412815144E+03  0.00000000000E+00 0.  1.
         16    1    1    2    0    0  0.54264199760E+03  0.11905463372E+03  0.84914984619E+03  0.10147363227E+04  0.00000000000E+00 0. -1.
    9900018    1    3    3    0    0 -0.84862331757E+02 -0.22512530983E+02  0.68590512290E+02  0.14397314393E+03  0.91187600000E+02 0.  0.
<mgrwt>
<rscale>  0 0.14719674E+04</rscale>
<asrwt>0</asrwt>
<pdfrwt beam="1">  1        2 0.34917960E+00 0.14719674E+04</pdfrwt>
<pdfrwt beam="2">  1       -2 0.36716460E-01 0.14719674E+04</pdfrwt>
<totfact> 0.31957092E+01</totfact>
</mgrwt>
</event>
