<event>
12    1  0.1568991E-014  0.2856978E+04  0.7818608E-02  0.9001500E-01
          1   -1    0    0  501    0  0.00000000000E+00  0.00000000000E+00  0.10066718748E+04  0.10066718748E+04  0.00000000000E+00 0. -1.
         -1   -1    0    0    0  501 -0.00000000000E+00 -0.00000000000E+00 -0.22266133529E+04  0.22266133529E+04  0.00000000000E+00 0.  1.
         24    2    1    2    0    0 -0.79245389376E+02  0.78869983200E+02 -0.41171969616E+02  0.14268288642E+03  0.78504579540E+02 0.  0.
    9900016    2    1    2    0    0  0.45447457629E+03 -0.42062626115E+03 -0.79638160670E+03  0.24551380987E+04  0.22383042304E+04 0.  0.
         23    2    4    4    0    0 -0.75953604571E+02  0.44848893294E+03 -0.11713105852E+04  0.12602135437E+04  0.96220662147E+02 0.  0.
        -15    1    5    5    0    0 -0.38315588072E+02  0.23456519113E+03 -0.74109682857E+03  0.77827592954E+03  0.00000000000E+00 0.  1.
        -15    1    3    3    0    0 -0.57166182544E+02  0.57927973645E+01 -0.35302325015E+01  0.57567277767E+02  0.00000000000E+00 0.  1.
         15    1    1    2    0    0 -0.37522918691E+03  0.34175627795E+03 -0.38238790175E+03  0.63546424261E+03  0.00000000000E+00 0. -1.
         15    1    5    5    0    0 -0.37638016499E+02  0.21392374181E+03 -0.43021375661E+03  0.48193761419E+03  0.00000000000E+00 0. -1.
        -16    1    4    4    0    0  0.47836217733E+03 -0.85995453556E+03  0.43241345747E+03  0.10748644445E+04  0.00000000000E+00 0.  1.
         16    1    3    3    0    0 -0.22079206832E+02  0.73077185835E+02 -0.37641737115E+02  0.85115608656E+02  0.00000000000E+00 0. -1.
    9900018    1    4    4    0    0  0.52066003528E+02 -0.91606585372E+01 -0.57484478988E+02  0.12006011039E+03  0.91187600000E+02 0.  0.
<mgrwt>
<rscale>  0 0.13359917E+04</rscale>
<asrwt>0</asrwt>
<pdfrwt beam="1">  1        1 0.15487260E+00 0.28569783E+04</pdfrwt>
<pdfrwt beam="2">  1       -1 0.34255590E+00 0.28569783E+04</pdfrwt>
<totfact> 0.22315153E-01</totfact>
</mgrwt>
</event>
<event>
12    1  0.1568992E-014  0.7773802E+04  0.7818608E-02  0.8045894E-01
         -1   -1    0    0    0  501 -0.00000000000E+00  0.00000000000E+00  0.49423595996E+04  0.49423595996E+04  0.00000000000E+00 0.  1.
          1   -1    0    0  501    0  0.00000000000E+00 -0.00000000000E+00 -0.36684420649E+04  0.36684420649E+04  0.00000000000E+00 0. -1.
         24    2    1    2    0    0  0.42377723102E+03 -0.10690672412E+03  0.68262562188E+03  0.81454468656E+03  0.80555059159E+02 0.  0.
    9900016    2    1    2    0    0  0.70287423536E+03  0.34144200550E+04 -0.38854146945E+03  0.41673368331E+04  0.22502078358E+04 0.  0.
         23    2    4    4    0    0 -0.25569487512E+02  0.44324942526E+03  0.75211009639E+03  0.87806449668E+03  0.90574894680E+02 0.  0.
        -15    1    3    3    0    0  0.22128786841E+03 -0.36899434010E+02  0.28326877596E+03  0.36134621677E+03  0.00000000000E+00 0.  1.
        -15    1    5    5    0    0 -0.42681876140E+02  0.10099799203E+03  0.16056258774E+03  0.19442911697E+03  0.00000000000E+00 0.  1.
         15    1    1    2    0    0 -0.11266514664E+04 -0.33075133309E+04  0.97983338221E+03  0.36289201448E+04  0.00000000000E+00 0. -1.
         15    1    5    5    0    0  0.17112388627E+02  0.34225143323E+03  0.59154750865E+03  0.68363537971E+03  0.00000000000E+00 0. -1.
        -16    1    4    4    0    0  0.71733628384E+03  0.27540319476E+04 -0.10938790911E+04  0.30489071450E+04  0.00000000000E+00 0.  1.
         16    1    3    3    0    0  0.20248936261E+03 -0.70007290112E+02  0.39935684592E+03  0.45319846979E+03  0.00000000000E+00 0. -1.
    9900018    1    4    4    0    0  0.11107439035E+02  0.21713868212E+03 -0.46772474696E+02  0.24036519145E+03  0.91187600000E+02 0.  0.
<mgrwt>
<rscale>  0 0.38012151E+04</rscale>
<asrwt>0</asrwt>
<pdfrwt beam="1">  1        1 0.56437570E+00 0.77738019E+04</pdfrwt>
<pdfrwt beam="2">  1       -1 0.76036302E+00 0.77738019E+04</pdfrwt>
<totfact> 0.12178194E-05</totfact>
</mgrwt>
</event>
<event>
12    1  0.1568991E-014  0.6453244E+04  0.7818608E-02  0.8119229E-01
         -3   -1    0    0    0  501 -0.00000000000E+00  0.00000000000E+00  0.25948171775E+04  0.25948171775E+04  0.00000000000E+00 0.  1.
          3   -1    0    0  501    0  0.00000000000E+00 -0.00000000000E+00 -0.47533072665E+04  0.47533072665E+04  0.00000000000E+00 0. -1.
         24    2    1    2    0    0  0.71393806742E+02  0.53270472659E+03 -0.34792568234E+03  0.64569909541E+03  0.83687752999E+02 0.  0.
    9900016    2    1    2    0    0 -0.22286853962E+04  0.14600675135E+04 -0.68347883805E+03  0.35567346325E+04  0.22548574644E+04 0.  0.
         23    2    4    4    0    0  0.18562528394E+03  0.29294407899E+02 -0.67758187326E+03  0.70966941035E+03  0.95909168762E+02 0.  0.
        -15    1    3    3    0    0  0.33549359793E+02  0.43280809149E+03 -0.30515656234E+03  0.53063069186E+03  0.00000000000E+00 0.  1.
        -15    1    5    5    0    0  0.10311374827E+03  0.60627372823E+02 -0.44838075809E+03  0.46406187911E+03  0.00000000000E+00 0.  1.
         15    1    5    5    0    0  0.82511535670E+02 -0.31332964924E+02 -0.22920111517E+03  0.24560753124E+03  0.00000000000E+00 0. -1.
         15    1    1    2    0    0  0.21572915894E+04 -0.19927722400E+04 -0.11270855686E+04  0.31456907161E+04  0.00000000000E+00 0. -1.
        -16    1    4    4    0    0 -0.23359329881E+04  0.13186053266E+04 -0.13719646091E+02  0.26824412689E+04  0.00000000000E+00 0.  1.
         16    1    3    3    0    0  0.37844446949E+02  0.99896635103E+02 -0.42769119998E+02  0.11506840355E+03  0.00000000000E+00 0. -1.
    9900018    1    4    4    0    0 -0.78377691993E+02  0.11216777891E+03  0.78226812970E+01  0.16462395319E+03  0.91187600000E+02 0.  0.
<mgrwt>
<rscale>  0 0.34771400E+04</rscale>
<asrwt>0</asrwt>
<pdfrwt beam="1">  1        3 0.73127804E+00 0.64532443E+04</pdfrwt>
<pdfrwt beam="2">  1       -3 0.39920264E+00 0.64532443E+04</pdfrwt>
<totfact> 0.36125324E-06</totfact>
</mgrwt>
</event>
