<event>
12    1  0.5263089E-012  0.2561727E+04  0.7818608E-02  0.8381319E-01
          3   -1    0    0  501    0  0.00000000000E+00  0.00000000000E+00  0.13737875731E+04  0.13737875731E+04  0.00000000000E+00 0. -1.
         -3   -1    0    0    0  501 -0.00000000000E+00 -0.00000000000E+00 -0.11942245985E+04  0.11942245985E+04  0.00000000000E+00 0.  1.
    9900016    2    1    2    0    0 -0.11928429698E+03 -0.31755968086E+02 -0.77311065943E+02  0.21599074031E+04  0.21549909057E+04 0.  0.
         23    2    3    3    0    0 -0.41678685515E+03 -0.70283014086E+02  0.43405550775E+03  0.61286793330E+03  0.92476673641E+02 0.  0.
        -24    2    3    3    0    0 -0.64135154876E+02  0.35205103344E+03 -0.87337835877E+03  0.94692976417E+03  0.76373899187E+02 0.  0.
        -15    1    4    4    0    0 -0.40255006490E+03 -0.76391758209E+02  0.38806171053E+03  0.56433513682E+03  0.00000000000E+00 0.  1.
        -15    1    3    3    0    0  0.36163771305E+03 -0.31352398744E+03  0.36201178508E+03  0.60010970558E+03  0.00000000000E+00 0.  1.
         15    1    5    5    0    0  0.11276668070E+01  0.14640852325E+03 -0.28847127663E+03  0.32350023918E+03  0.00000000000E+00 0. -1.
         15    1    4    4    0    0 -0.14236790248E+02  0.61087441229E+01  0.45993797219E+02  0.48532796478E+02  0.00000000000E+00 0. -1.
        -16    1    5    5    0    0 -0.65262821683E+02  0.20564251019E+03 -0.58490708214E+03  0.62342952499E+03  0.00000000000E+00 0.  1.
         16    1    1    2    0    0  0.15426699439E+03  0.23756011990E+02  0.26732262215E+03  0.30955457997E+03  0.00000000000E+00 0. -1.
    9900018    1    1    2    0    0 -0.34982697405E+02  0.79999560958E+01 -0.10448581670E+02  0.98550188574E+02  0.91187600000E+02 0.  0.
<mgrwt>
<rscale>  0 0.25617267E+04</rscale>
<asrwt>0</asrwt>
<pdfrwt beam="1">  1        3 0.21135194E+00 0.25617267E+04</pdfrwt>
<pdfrwt beam="2">  1       -3 0.18372686E+00 0.25617267E+04</pdfrwt>
<totfact> 0.53974714E-02</totfact>
</mgrwt>
</event>
<event>
12    1  0.5263089E-012  0.3356100E+04  0.7818608E-02  0.8148766E-01
          3   -1    0    0  501    0  0.00000000000E+00  0.00000000000E+00  0.20162027287E+04  0.20162027287E+04  0.00000000000E+00 0. -1.
         -3   -1    0    0    0  501 -0.00000000000E+00 -0.00000000000E+00 -0.13966111326E+04  0.13966111326E+04  0.00000000000E+00 0.  1.
    9900016    2    1    2    0    0  0.65819191916E+03  0.88070399525E+02  0.10969665827E+04  0.25949753225E+04  0.22560115787E+04 0.  0.
         23    2    3    3    0    0 -0.24713795491E+03 -0.17862520470E+03 -0.74162375598E+02  0.32678674276E+03  0.91133883837E+02 0.  0.
         24    2    3    3    0    0  0.77985807389E+03 -0.57483277382E+03  0.65851671802E+03  0.11741551004E+04  0.79903683632E+02 0.  0.
        -15    1    5    5    0    0  0.61077883673E+03 -0.44891916133E+03  0.55383523972E+03  0.93878254860E+03  0.00000000000E+00 0.  1.
        -15    1    4    4    0    0 -0.96066377580E+02 -0.12137465583E+03 -0.18416423161E+02  0.15588367657E+03  0.00000000000E+00 0.  1.
         15    1    4    4    0    0 -0.15107157733E+03 -0.57250548872E+02 -0.55745952437E+02  0.17090306620E+03  0.00000000000E+00 0. -1.
         15    1    3    3    0    0  0.40679020644E+02  0.82663124876E+03  0.50246302299E+03  0.96821644977E+03  0.00000000000E+00 0. -1.
        -16    1    1    2    0    0 -0.65819191916E+03 -0.88070399525E+02 -0.47737498653E+03  0.81783853876E+03  0.00000000000E+00 0.  1.
         16    1    5    5    0    0  0.16907923716E+03 -0.12591361249E+03  0.10468147830E+03  0.23537255182E+03  0.00000000000E+00 0. -1.
    9900018    1    3    3    0    0  0.84792779528E+02  0.14897129287E+02  0.10149217245E+02  0.12581702955E+03  0.91187600000E+02 0.  0.
<mgrwt>
<rscale>  0 0.33560996E+04</rscale>
<asrwt>0</asrwt>
<pdfrwt beam="1">  1        3 0.31018503E+00 0.33560996E+04</pdfrwt>
<pdfrwt beam="2">  1       -3 0.21486325E+00 0.33560996E+04</pdfrwt>
<totfact> 0.86494827E-03</totfact>
</mgrwt>
</event>
<event>
12    1  0.5263089E-012  0.2432030E+04  0.7818608E-02  0.8427608E-01
         -2   -1    0    0    0  501 -0.00000000000E+00  0.00000000000E+00  0.53213999907E+03  0.53213999907E+03  0.00000000000E+00 0.  1.
          2   -1    0    0  501    0  0.00000000000E+00 -0.00000000000E+00 -0.27787662517E+04  0.27787662517E+04  0.00000000000E+00 0. -1.
    9900016    2    1    2    0    0  0.62961022181E+02  0.13994487755E+03 -0.18908288881E+04  0.28707652906E+04  0.21546486512E+04 0.  0.
         23    2    3    3    0    0 -0.90792679206E+02 -0.29628141769E+03 -0.12636582365E+04  0.13043949745E+04  0.92672119638E+02 0.  0.
        -24    2    3    3    0    0 -0.11495063847E+03 -0.46760505539E+03 -0.27184350153E+03  0.55871436477E+03  0.79966961707E+02 0.  0.
        -15    1    3    3    0    0  0.26870433986E+03  0.90383135063E+03 -0.35532715012E+03  0.10076559513E+04  0.00000000000E+00 0.  1.
        -15    1    4    4    0    0 -0.10683839777E+02 -0.10867901103E+03 -0.29681236501E+03  0.31626389597E+03  0.00000000000E+00 0.  1.
         15    1    5    5    0    0 -0.70987616983E+02 -0.20934454707E+03 -0.84536557940E+02  0.23666603217E+03  0.00000000000E+00 0. -1.
         15    1    4    4    0    0 -0.80108839429E+02 -0.18760240666E+03 -0.96684587145E+03  0.98813107849E+03  0.00000000000E+00 0. -1.
        -16    1    5    5    0    0 -0.43963021491E+02 -0.25826050832E+03 -0.18730694359E+03  0.32204833260E+03  0.00000000000E+00 0.  1.
         16    1    1    2    0    0 -0.53448090151E+02 -0.15158780472E+03 -0.26894458634E+03  0.31331573756E+03  0.00000000000E+00 0. -1.
    9900018    1    1    2    0    0 -0.95129320303E+01  0.11642927170E+02 -0.86852778183E+02  0.12682522265E+03  0.91187600000E+02 0.  0.
<mgrwt>
<rscale>  0 0.24320302E+04</rscale>
<asrwt>0</asrwt>
<pdfrwt beam="1">  1        2 0.42750250E+00 0.24320302E+04</pdfrwt>
<pdfrwt beam="2">  1       -2 0.81867693E-01 0.24320302E+04</pdfrwt>
<totfact> 0.28030978E+00</totfact>
</mgrwt>
</event>
<event>
12    1  0.5263089E-012  0.3427349E+04  0.7818608E-02  0.8131226E-01
          2   -1    0    0  501    0  0.00000000000E+00  0.00000000000E+00  0.30402245015E+04  0.30402245015E+04  0.00000000000E+00 0. -1.
         -2   -1    0    0    0  501 -0.00000000000E+00 -0.00000000000E+00 -0.96594184790E+03  0.96594184790E+03  0.00000000000E+00 0.  1.
    9900016    2    1    2    0    0  0.79546663816E+03  0.39750601118E+03  0.12427065853E+04  0.26342863757E+04  0.21457788447E+04 0.  0.
         23    2    3    3    0    0  0.11869279850E+03 -0.39517092418E+03  0.32771210757E+01  0.42298154913E+03  0.93030165227E+02 0.  0.
         24    2    3    3    0    0  0.10037234733E+04  0.12019591213E+03  0.40795630880E+03  0.10930587008E+04  0.80256497277E+02 0.  0.
        -15    1    5    5    0    0  0.66921290622E+03  0.11755521230E+03  0.26632067181E+03  0.72978890237E+03  0.00000000000E+00 0.  1.
        -15    1    4    4    0    0  0.21653468804E+02 -0.13916872933E+03  0.40827962591E+02  0.14664150321E+03  0.00000000000E+00 0.  1.
         15    1    4    4    0    0  0.97039329695E+02 -0.25600219485E+03 -0.37550841515E+02  0.27634004592E+03  0.00000000000E+00 0. -1.
         15    1    3    3    0    0 -0.32694963364E+03  0.67248102323E+03  0.83147315545E+03  0.11182461258E+04  0.00000000000E+00 0. -1.
        -16    1    1    2    0    0 -0.88256017416E+03 -0.37417013293E+03  0.77033569228E+03  0.12297694207E+04  0.00000000000E+00 0.  1.
         16    1    5    5    0    0  0.33451056708E+03  0.26406998272E+01  0.14163563699E+03  0.36326979843E+03  0.00000000000E+00 0. -1.
    9900018    1    1    2    0    0  0.87093535995E+02 -0.23335878243E+02  0.61240376039E+02  0.14211055301E+03  0.91187600000E+02 0.  0.
<mgrwt>
<rscale>  0 0.34273489E+04</rscale>
<asrwt>0</asrwt>
<pdfrwt beam="1">  1        2 0.46772684E+00 0.34273489E+04</pdfrwt>
<pdfrwt beam="2">  1       -2 0.14860644E+00 0.34273489E+04</pdfrwt>
<totfact> 0.41664642E-01</totfact>
</mgrwt>
</event>
<event>
12    1  0.5263089E-012  0.2780706E+04  0.7818608E-02  0.8309283E-01
          2   -1    0    0  501    0  0.00000000000E+00  0.00000000000E+00  0.14993929971E+04  0.14993929971E+04  0.00000000000E+00 0. -1.
         -2   -1    0    0    0  501 -0.00000000000E+00 -0.00000000000E+00 -0.12892429092E+04  0.12892429092E+04  0.00000000000E+00 0.  1.
    9900016    2    1    2    0    0  0.18231133175E+02 -0.27827288776E+03  0.49254625126E+03  0.22221529278E+04  0.21488586856E+04 0.  0.
         23    2    3    3    0    0  0.11518049610E+03  0.73460279525E+02  0.10356521129E+03  0.19453582420E+03  0.91953654405E+02 0.  0.
         24    2    3    3    0    0  0.11044153246E+03 -0.88764135264E+03  0.89059977517E+03  0.12648393364E+04  0.80907876533E+02 0.  0.
        -15    1    4    4    0    0  0.82771568313E+02  0.16212310159E+01  0.34296191360E+02  0.89610209534E+02  0.00000000000E+00 0. -1.
        -15    1    5    5    0    0  0.39394978738E+02 -0.61920890882E+03  0.61432684412E+03  0.87313750836E+03  0.00000000000E+00 0.  1.
         15    1    3    3    0    0 -0.20739089538E+03  0.53590818535E+03 -0.50161873520E+03  0.76277776719E+03  0.00000000000E+00 0. -1.
         15    1    4    4    0    0  0.32408927782E+02  0.71839048510E+02  0.69269019927E+02  0.10492561466E+03  0.00000000000E+00 0.  1.
        -16    1    1    2    0    0 -0.43086902133E+02  0.26471668332E+03 -0.35614439364E+03  0.44583655378E+03  0.00000000000E+00 0.  1.
         16    1    5    5    0    0  0.71046553719E+02 -0.26843244382E+03  0.27627293106E+03  0.39170182809E+03  0.00000000000E+00 0. -1.
    9900018    1    1    2    0    0  0.24855768959E+02  0.13556204435E+02  0.73748230287E+02  0.12064642470E+03  0.91187600000E+02 0.  0.
<mgrwt>
<rscale>  0 0.27807062E+04</rscale>
<asrwt>0</asrwt>
<pdfrwt beam="1">  1        2 0.23067585E+00 0.27807062E+04</pdfrwt>
<pdfrwt beam="2">  1       -2 0.19834506E+00 0.27807062E+04</pdfrwt>
<totfact> 0.15101293E+00</totfact>
</mgrwt>
</event>
<event>
12    1  0.5263089E-012  0.2647303E+04  0.7818608E-02  0.8352309E-01
         -2   -1    0    0    0  501 -0.00000000000E+00  0.00000000000E+00  0.73667146224E+03  0.73667146224E+03  0.00000000000E+00 0.  1.
          2   -1    0    0  501    0  0.00000000000E+00 -0.00000000000E+00 -0.23783376692E+04  0.23783376692E+04  0.00000000000E+00 0. -1.
    9900016    2    1    2    0    0  0.26102496516E+03 -0.14434568993E+03 -0.11572395775E+04  0.25461164614E+04  0.22482295000E+04 0.  0.
         23    2    3    3    0    0  0.23556748440E+02  0.12116473378E+03 -0.24169432205E+03  0.28570865564E+03  0.89316725688E+02 0.  0.
        -24    2    3    3    0    0 -0.37129324941E+03  0.35322999860E+03  0.37054151898E+03  0.63716868973E+03  0.77799825965E+02 0.  0.
        -15    1    3    3    0    0  0.56114511202E+03 -0.64596130669E+03 -0.12416374197E+04  0.15079168838E+04  0.00000000000E+00 0.  1.
        -15    1    4    4    0    0  0.44244886535E+02  0.12162096440E+03 -0.22293734900E+03  0.25777961623E+03  0.00000000000E+00 0.  1.
         15    1    4    4    0    0 -0.20688138095E+02 -0.45623061966E+00 -0.18756973048E+02  0.27929039406E+02  0.00000000000E+00 0. -1.
         15    1    5    5    0    0 -0.13170310055E+03  0.92416672258E+02  0.14991887624E+03  0.21991411382E+03  0.00000000000E+00 0. -1.
        -16    1    5    5    0    0 -0.23959014887E+03  0.26081332634E+03  0.22062264274E+03  0.41725457591E+03  0.00000000000E+00 0.  1.
         16    1    1    2    0    0 -0.26102496516E+03  0.14434568993E+03 -0.48442662953E+03  0.56889267005E+03  0.00000000000E+00 0. -1.
    9900018    1    3    3    0    0  0.47616354115E+02  0.27220884384E+02 -0.44449354723E+02  0.11532223227E+03  0.91187600000E+02 0.  0.
<mgrwt>
<rscale>  0 0.26473031E+04</rscale>
<asrwt>0</asrwt>
<pdfrwt beam="1">  1        2 0.36589810E+00 0.26473031E+04</pdfrwt>
<pdfrwt beam="2">  1       -2 0.11333407E+00 0.26473031E+04</pdfrwt>
<totfact> 0.22019620E+00</totfact>
</mgrwt>
</event>
<event>
12    1  0.5263089E-012  0.3709236E+04  0.7818608E-02  0.8065918E-01
          2   -1    0    0  501    0  0.00000000000E+00  0.00000000000E+00  0.15356777618E+04  0.15356777618E+04  0.00000000000E+00 0. -1.
         -2   -1    0    0    0  501 -0.00000000000E+00 -0.00000000000E+00 -0.22397982570E+04  0.22397982570E+04  0.00000000000E+00 0.  1.
    9900016    2    1    2    0    0  0.76271150984E+03  0.75275317361E+03 -0.60053151784E+02  0.24161008329E+04  0.21646179030E+04 0.  0.
         23    2    3    3    0    0  0.22630377290E+03  0.23603228130E+03  0.16986154148E+03  0.37950744408E+03  0.90820269706E+02 0.  0.
        -24    2    3    3    0    0  0.15124377826E+03 -0.59123076447E+03  0.37095233772E+03  0.71865965082E+03  0.80234403657E+02 0.  0.
        -15    1    3    3    0    0  0.38516395868E+03  0.11079516568E+04 -0.60086703099E+03  0.13179337380E+04  0.00000000000E+00 0.  1.
        -15    1    4    4    0    0  0.15439616574E+03  0.10395299874E+03  0.11823176259E+03  0.22050657956E+03  0.00000000000E+00 0.  1.
         15    1    5    5    0    0  0.12377897192E+03 -0.55448776366E+03  0.35578521800E+03  0.67034396789E+03  0.00000000000E+00 0. -1.
         15    1    4    4    0    0  0.71907607154E+02  0.13207928256E+03  0.51629778886E+02  0.15900086451E+03  0.00000000000E+00 0. -1.
        -16    1    5    5    0    0  0.27464806344E+02 -0.36743000817E+02  0.15167119721E+02  0.48315682932E+02  0.00000000000E+00 0.  1.
         16    1    1    2    0    0 -0.78048020669E+03 -0.76708512852E+03 -0.63428435374E+03  0.12648658383E+04  0.00000000000E+00 0. -1.
    9900018    1    1    2    0    0  0.17768696848E+02  0.14331954909E+02 -0.97829896783E+01  0.94509347686E+02  0.91187600000E+02 0.  0.
<mgrwt>
<rscale>  0 0.37092362E+04</rscale>
<asrwt>0</asrwt>
<pdfrwt beam="1">  1        2 0.23625812E+00 0.37092362E+04</pdfrwt>
<pdfrwt beam="2">  1       -2 0.34458435E+00 0.37092362E+04</pdfrwt>
<totfact> 0.16469000E-01</totfact>
</mgrwt>
</event>
<event>
12    1  0.7850174E-012  0.3512283E+04  0.7818608E-02  0.8110885E-01
          2   -1    0    0  501    0  0.00000000000E+00  0.00000000000E+00  0.43635644524E+04  0.43635644524E+04  0.00000000000E+00 0.  1.
         -2   -1    0    0    0  501 -0.00000000000E+00 -0.00000000000E+00 -0.70676904841E+03  0.70676904841E+03  0.00000000000E+00 0. -1.
    9900016    2    1    2    0    0 -0.11588063813E+03  0.91365360535E+03  0.30085553255E+04  0.38150888810E+04  0.21576159971E+04 0.  0.
         23    2    3    3    0    0  0.18923824440E+03 -0.14475722551E+03  0.30772722121E+03  0.39991952460E+03  0.92053332386E+02 0.  0.
        -24    2    3    3    0    0  0.72317734044E+03  0.42109516717E+03  0.14425989836E+04  0.16696880768E+04  0.80373135184E+02 0.  0.
        -15    1    4    4    0    0  0.11477861014E+02 -0.22516625816E+02  0.89726686425E+02  0.93218120494E+02  0.00000000000E+00 0.  1.
        -15    1    3    3    0    0 -0.10282962230E+04  0.63731566369E+03  0.12582291207E+04  0.17454812796E+04  0.00000000000E+00 0.  1.
         15    1    5    5    0    0  0.45504730181E+03  0.22201447603E+03  0.84331054744E+03  0.98363161492E+03  0.00000000000E+00 0. -1.
         15    1    4    4    0    0  0.17776038339E+03 -0.12224059969E+03  0.21800053478E+03  0.30670140411E+03  0.00000000000E+00 0. -1.
        -16    1    5    5    0    0  0.26813003864E+03  0.19908069113E+03  0.59928843616E+03  0.68605646190E+03  0.00000000000E+00 0.  1.
         16    1    1    2    0    0  0.94976932090E+02 -0.96276149998E+03  0.56175781828E+03  0.11187055778E+04  0.00000000000E+00 0. -1.
    9900018    1    1    2    0    0  0.20903706040E+02  0.49107894638E+02  0.86482260163E+02  0.13653904188E+03  0.91187600000E+02 0.  0.
<mgrwt>
<rscale>  0 0.35122826E+04</rscale>
<asrwt>0</asrwt>
<pdfrwt beam="1">  1        2 0.67131759E+00 0.35122826E+04</pdfrwt>
<pdfrwt beam="2">  1       -2 0.10873370E+00 0.35122826E+04</pdfrwt>
<totfact> 0.91666739E-02</totfact>
</mgrwt>
</event>
<event>
12    1  0.5263089E-012  0.2626367E+04  0.7818608E-02  0.8359300E-01
          1   -1    0    0  501    0  0.00000000000E+00  0.00000000000E+00  0.17945621454E+04  0.17945621454E+04  0.00000000000E+00 0. -1.
         -1   -1    0    0    0  501 -0.00000000000E+00 -0.00000000000E+00 -0.96093136704E+03  0.96093136704E+03  0.00000000000E+00 0.  1.
    9900016    2    1    2    0    0 -0.15771988588E+03  0.25540394538E+03  0.94413915682E+03  0.23668597531E+04  0.21495393938E+04 0.  0.
         23    2    3    3    0    0 -0.24610586121E+03 -0.19096688105E+03  0.42685737708E+03  0.53628547063E+03  0.91424510203E+02 0.  0.
         24    2    3    3    0    0  0.56355385148E+03 -0.89577393125E+02 -0.37484652762E+03  0.68649477411E+03  0.71750280440E+02 0.  0.
        -15    1    5    5    0    0  0.46656669036E+03 -0.53223933284E+02 -0.32809670015E+03  0.57285662105E+03  0.00000000000E+00 0.  1.
        -15    1    4    4    0    0 -0.23611974837E+03 -0.14727706549E+03  0.38433237845E+03  0.47450442223E+03  0.00000000000E+00 0.  1.
         15    1    4    4    0    0 -0.99861128310E+01 -0.43689815558E+02  0.42524998630E+02  0.61781048400E+02  0.00000000000E+00 0. -1.
         15    1    3    3    0    0 -0.47516787615E+03  0.53594821955E+03  0.89212830736E+03  0.11440795083E+04  0.00000000000E+00 0. -1.
        -16    1    1    2    0    0  0.12851889149E+03 -0.22707947863E+03 -0.12215862488E+03  0.28810575266E+03  0.00000000000E+00 0.  1.
         16    1    5    5    0    0  0.96987161115E+02 -0.36353459841E+02 -0.46749827466E+02  0.11363815306E+03  0.00000000000E+00 0. -1.
    9900018    1    1    2    0    0  0.29200994395E+02 -0.28324466750E+02  0.11650246372E+02  0.10052800667E+03  0.91187600000E+02 0.  0.
<mgrwt>
<rscale>  0 0.26263671E+04</rscale>
<asrwt>0</asrwt>
<pdfrwt beam="1">  1        1 0.27608648E+00 0.26263671E+04</pdfrwt>
<pdfrwt beam="2">  1       -1 0.14783560E+00 0.26263671E+04</pdfrwt>
<totfact> 0.13099351E+00</totfact>
</mgrwt>
</event>
<event>
12    1  0.5263089E-012  0.3143001E+04  0.7818608E-02  0.8204035E-01
         -1   -1    0    0    0  501 -0.00000000000E+00  0.00000000000E+00  0.47199317170E+03  0.47199317170E+03  0.00000000000E+00 0.  1.
          1   -1    0    0  501    0  0.00000000000E+00 -0.00000000000E+00 -0.52323097679E+04  0.52323097679E+04  0.00000000000E+00 0. -1.
    9900016    2    1    2    0    0  0.20834826917E+03  0.28892746265E+03 -0.48333962903E+04  0.53406702655E+04  0.22436914017E+04 0.  0.
         23    2    3    3    0    0  0.11378656627E+03 -0.34313278765E+03 -0.82177517682E+03  0.90237703270E+03  0.91007556235E+02 0.  0.
         24    2    3    3    0    0 -0.66971647124E+03  0.65119405444E+03 -0.14486549912E+04  0.17255201221E+04  0.79022528842E+02 0.  0.
        -15    1    4    4    0    0  0.45149618159E+02 -0.44180142780E+02 -0.18693599895E+03  0.19732065461E+03  0.00000000000E+00 0.  1.
        -15    1    5    5    0    0 -0.35128624955E+02  0.38952384873E+02 -0.52445037840E+02  0.74174055927E+02  0.00000000000E+00 0.  1.
         15    1    3    3    0    0  0.78853809858E+03 -0.45650418686E+01 -0.23647439874E+04  0.24927549616E+04  0.00000000000E+00 0. -1.
         15    1    4    4    0    0  0.68636948107E+02 -0.29895264487E+03 -0.63483917788E+03  0.70505637809E+03  0.00000000000E+00 0. -1.
        -16    1    1    2    0    0 -0.20834826917E+03 -0.28892746265E+03  0.73079694147E+02  0.36363267405E+03  0.00000000000E+00 0.  1.
         16    1    5    5    0    0 -0.63458784629E+03  0.61224166957E+03 -0.13962099533E+04  0.16513460662E+04  0.00000000000E+00 0. -1.
    9900018    1    3    3    0    0 -0.24259924431E+02 -0.14568762278E+02 -0.19822213491E+03  0.22001814909E+03  0.91187600000E+02 0.  0.
<mgrwt>
<rscale>  0 0.31430014E+04</rscale>
<asrwt>0</asrwt>
<pdfrwt beam="1">  1        1 0.80497073E+00 0.31430014E+04</pdfrwt>
<pdfrwt beam="2">  1       -1 0.72614334E-01 0.31430014E+04</pdfrwt>
<totfact> 0.66553999E-03</totfact>
</mgrwt>
</event>
<event>
12    1  0.5263089E-012  0.2726891E+04  0.7818608E-02  0.8326332E-01
         -1   -1    0    0    0  501 -0.00000000000E+00  0.00000000000E+00  0.26907124338E+04  0.26907124338E+04  0.00000000000E+00 0.  1.
          1   -1    0    0  501    0  0.00000000000E+00 -0.00000000000E+00 -0.69088915278E+03  0.69088915278E+03  0.00000000000E+00 0. -1.
    9900016    2    1    2    0    0 -0.92872082120E+01  0.13232542565E+03  0.11236595996E+04  0.24335391888E+04  0.21545082541E+04 0.  0.
         23    2    3    3    0    0  0.32187293315E+03 -0.46138212978E+02  0.50387829283E+03  0.60665183484E+03  0.91663487503E+02 0.  0.
         24    2    3    3    0    0  0.68174341575E+03  0.77202922987E+02  0.15523755721E+03  0.70794667465E+03  0.79720880164E+02 0.  0.
        -15    1    4    4    0    0  0.10779558687E+03 -0.49699921046E+02  0.23186352925E+03  0.26048160568E+03  0.00000000000E+00 0.  1.
        -15    1    5    5    0    0  0.12665410173E+03  0.39404762091E+02  0.49718464758E+02  0.14165423573E+03  0.00000000000E+00 0.  1.
         15    1    3    3    0    0 -0.10129035571E+04  0.10126071564E+03  0.46454374954E+03  0.11189406793E+04  0.00000000000E+00 0. -1.
         15    1    4    4    0    0  0.21407734627E+03  0.35617080675E+01  0.27201476358E+03  0.34617022916E+03  0.00000000000E+00 0. -1.
        -16    1    1    2    0    0  0.14740269553E+02 -0.18632918011E+03  0.78869744378E+03  0.81054271741E+03  0.00000000000E+00 0.  1.
         16    1    5    5    0    0  0.55508931402E+03  0.37798160896E+02  0.10551909245E+03  0.56629243892E+03  0.00000000000E+00 0. -1.
    9900018    1    1    2    0    0 -0.54530613412E+01  0.54003754463E+02  0.87466237701E+02  0.13751968043E+03  0.91187600000E+02 0.  0.
<mgrwt>
<rscale>  0 0.27268913E+04</rscale>
<asrwt>0</asrwt>
<pdfrwt beam="1">  1        1 0.10629064E+00 0.27268913E+04</pdfrwt>
<pdfrwt beam="2">  1       -1 0.41395575E+00 0.27268913E+04</pdfrwt>
<totfact> 0.13885904E-01</totfact>
</mgrwt>
</event>
<event>
12    1  0.5263089E-012  0.2378472E+04  0.7818608E-02  0.8447607E-01
         -1   -1    0    0    0  501 -0.00000000000E+00  0.00000000000E+00  0.64067024243E+03  0.64067024243E+03  0.00000000000E+00 0.  1.
          1   -1    0    0  501    0  0.00000000000E+00 -0.00000000000E+00 -0.22075047891E+04  0.22075047891E+04  0.00000000000E+00 0. -1.
    9900016    2    1    2    0    0 -0.27583382560E+02 -0.94426712677E+02 -0.13997364350E+04  0.26542703488E+04  0.22530449951E+04 0.  0.
         23    2    3    3    0    0 -0.10289558233E+03  0.37856992021E+03 -0.31330622148E+03  0.51031746863E+03  0.91435469185E+02 0.  0.
         24    2    3    3    0    0 -0.72758529896E+03 -0.57198426604E+03 -0.59517569997E+03  0.11032983589E+04  0.80540593091E+02 0.  0.
        -15    1    4    4    0    0 -0.18853859049E+02  0.23335943407E+03 -0.19941465560E+03  0.30753584886E+03  0.00000000000E+00 0.  1.
        -15    1    5    5    0    0 -0.52123079437E+03 -0.37466569259E+03 -0.38197238859E+03  0.74696641681E+03  0.00000000000E+00 0.  1.
         15    1    4    4    0    0 -0.84041723281E+02  0.14521048614E+03 -0.11389156589E+03  0.20278161977E+03  0.00000000000E+00 0. -1.
         15    1    3    3    0    0  0.78457302426E+03  0.16272213673E+03 -0.39979144225E+03  0.89547000032E+03  0.00000000000E+00 0. -1.
        -16    1    1    2    0    0  0.27583382560E+02  0.94426712677E+02 -0.16709811169E+03  0.19390468274E+03  0.00000000000E+00 0.  1.
         16    1    5    5    0    0 -0.20635450459E+03 -0.19731857346E+03 -0.21320331137E+03  0.35633194212E+03  0.00000000000E+00 0. -1.
    9900018    1    3    3    0    0  0.18324474475E+02 -0.63734503570E+02 -0.91463071311E+02  0.14518452093E+03  0.91187600000E+02 0.  0.
<mgrwt>
<rscale>  0 0.23784723E+04</rscale>
<asrwt>0</asrwt>
<pdfrwt beam="1">  1        1 0.33961613E+00 0.23784723E+04</pdfrwt>
<pdfrwt beam="2">  1       -1 0.98564651E-01 0.23784723E+04</pdfrwt>
<totfact> 0.19037081E+00</totfact>
</mgrwt>
</event>
<event>
12    1  0.5263089E-012  0.2470478E+04  0.7818608E-02  0.8413579E-01
         -1   -1    0    0    0  501 -0.00000000000E+00  0.00000000000E+00  0.15378857843E+04  0.15378857843E+04  0.00000000000E+00 0.  1.
          1   -1    0    0  501    0  0.00000000000E+00 -0.00000000000E+00 -0.99215166727E+03  0.99215166727E+03  0.00000000000E+00 0. -1.
    9900016    2    1    2    0    0 -0.15226166883E+03 -0.44158743059E+02  0.52587249480E+03  0.22171466978E+04  0.21480372409E+04 0.  0.
         23    2    3    3    0    0 -0.37523139775E+03 -0.11683877684E+03  0.95209753579E+02  0.41544453066E+03  0.95285671771E+02 0.  0.
        -24    2    3    3    0    0  0.52666856173E+03  0.75650962329E+03 -0.25211526265E+02  0.92553024548E+03  0.79271875160E+02 0.  0.
        -15    1    3    3    0    0 -0.30369883281E+03 -0.68382958951E+03  0.45587426749E+03  0.87617192166E+03  0.00000000000E+00 0.  1.
        -15    1    4    4    0    0 -0.94636526071E+01  0.71940375571E+01  0.18009353435E+02  0.21578964484E+02  0.00000000000E+00 0.  1.
         15    1    4    4    0    0 -0.36576774514E+03 -0.12403281439E+03  0.77200400143E+02  0.39386556617E+03  0.00000000000E+00 0. -1.
         15    1    5    5    0    0  0.92514262593E+02  0.14699186680E+03  0.25203057040E+02  0.17550125861E+03  0.00000000000E+00 0. -1.
        -16    1    5    5    0    0  0.43415429914E+03  0.60951775649E+03 -0.50414583306E+02  0.75002898687E+03  0.00000000000E+00 0.  1.
         16    1    1    2    0    0  0.15838255530E+03  0.35831023139E+02 -0.76776620790E+02  0.17962055991E+03  0.00000000000E+00 0. -1.
    9900018    1    1    2    0    0 -0.61208864687E+01  0.83277199200E+01  0.96638243055E+02  0.13327019391E+03  0.91187600000E+02 0.  0.
<mgrwt>
<rscale>  0 0.24704785E+04</rscale>
<asrwt>0</asrwt>
<pdfrwt beam="1">  1        1 0.15263872E+00 0.24704785E+04</pdfrwt>
<pdfrwt beam="2">  1       -1 0.23659781E+00 0.24704785E+04</pdfrwt>
<totfact> 0.11668259E+00</totfact>
</mgrwt>
</event>
<event>
12    1  0.5263089E-012  0.3423932E+04  0.7818608E-02  0.8132057E-01
         -3   -1    0    0    0  501 -0.00000000000E+00  0.00000000000E+00  0.14647582786E+04  0.14647582786E+04  0.00000000000E+00 0.  1.
          3   -1    0    0  501    0  0.00000000000E+00 -0.00000000000E+00 -0.20008954295E+04  0.20008954295E+04  0.00000000000E+00 0. -1.
    9900016    2    1    2    0    0  0.89015985956E+03  0.19211286495E+03 -0.35644538838E+02  0.24265267749E+04  0.22488818839E+04 0.  0.
         23    2    3    3    0    0  0.43232170227E+03 -0.30980671550E+02 -0.63199154752E+03  0.77178655746E+03  0.91538614113E+02 0.  0.
        -24    2    3    3    0    0  0.53957898159E+02  0.34828583659E+03 -0.36202168215E+03  0.51197800331E+03  0.82748406538E+02 0.  0.
        -15    1    4    4    0    0  0.40211208030E+03 -0.13623914198E+02 -0.53993090676E+03  0.67335363683E+03  0.00000000000E+00 0.  1.
        -15    1    3    3    0    0  0.38551708869E+03 -0.17857923981E+03  0.94315994132E+03  0.10344392904E+04  0.00000000000E+00 0.  1.
         15    1    4    4    0    0  0.30209621965E+02 -0.17356757353E+02 -0.92060640767E+02  0.98432920629E+02  0.00000000000E+00 0. -1.
         15    1    5    5    0    0  0.74801632722E+02  0.26871072581E+03 -0.26451048106E+03  0.38440412720E+03  0.00000000000E+00 0. -1.
        -16    1    5    5    0    0 -0.20843734563E+02  0.79575110785E+02 -0.97511201090E+02  0.12757387611E+03  0.00000000000E+00 0.  1.
         16    1    1    2    0    0 -0.89015985956E+03 -0.19211286495E+03 -0.50049261206E+03  0.10391269331E+04  0.00000000000E+00 0. -1.
    9900018    1    3    3    0    0  0.18363170446E+02  0.53386939722E+02  0.15208749509E+02  0.10832292378E+03  0.91187600000E+02 0.  0.
<mgrwt>
<rscale>  0 0.34239323E+04</rscale>
<asrwt>0</asrwt>
<pdfrwt beam="1">  1        3 0.30783007E+00 0.34239323E+04</pdfrwt>
<pdfrwt beam="2">  1       -3 0.22534743E+00 0.34239323E+04</pdfrwt>
<totfact> 0.76501193E-03</totfact>
</mgrwt>
</event>
<event>
12    1  0.5263089E-012  0.2551714E+04  0.7818608E-02  0.8384790E-01
          1   -1    0    0  501    0  0.00000000000E+00  0.00000000000E+00  0.54025953575E+03  0.54025953575E+03  0.00000000000E+00 0. -1.
         -1   -1    0    0    0  501 -0.00000000000E+00 -0.00000000000E+00 -0.30130179754E+04  0.30130179754E+04  0.00000000000E+00 0.  1.
    9900016    2    1    2    0    0 -0.95786430198E+02 -0.14791808213E+02 -0.17915539018E+04  0.27998844101E+04  0.21494867966E+04 0.  0.
         23    2    3    3    0    0  0.28512311034E+03 -0.46232722371E+01 -0.11879471206E+04  0.12248386274E+04  0.87719662275E+02 0.  0.
         24    2    3    3    0    0 -0.20642784508E+03 -0.70378878643E+03 -0.27738876128E+03  0.78893439716E+03  0.86843808159E+02 0.  0.
        -15    1    4    4    0    0  0.16926805052E+03 -0.45023300130E+02 -0.66344851375E+03  0.68617978757E+03  0.00000000000E+00 0. -1.
        -15    1    5    5    0    0 -0.16599110693E+03 -0.47427429135E+03 -0.15585419377E+03  0.52609854659E+03  0.00000000000E+00 0.  1.
         15    1    4    4    0    0  0.11585505982E+03  0.40400027893E+02 -0.52449860686E+03  0.53865883984E+03  0.00000000000E+00 0.  1.
         15    1    3    3    0    0 -0.17448169545E+03  0.69362025045E+03 -0.32621801994E+03  0.78611138550E+03  0.00000000000E+00 0. -1.
        -16    1    1    2    0    0  0.10660416958E+03  0.59548381757E+02 -0.62496361092E+03  0.63678094642E+03  0.00000000000E+00 0.  1.
         16    1    5    5    0    0 -0.40436738148E+02 -0.22951449508E+03 -0.12153456750E+03  0.26283585057E+03  0.00000000000E+00 0. -1.
    9900018    1    1    2    0    0 -0.10817739379E+02 -0.44756573544E+02 -0.56240926926E+02  0.11661215467E+03  0.91187600000E+02 0.  0.
<mgrwt>
<rscale>  0 0.25517145E+04</rscale>
<asrwt>0</asrwt>
<pdfrwt beam="1">  1        1 0.83116850E-01 0.25517145E+04</pdfrwt>
<pdfrwt beam="2">  1       -1 0.46354124E+00 0.25517145E+04</pdfrwt>
<totfact> 0.91761974E-02</totfact>
</mgrwt>
</event>
<event>
12    1  0.5263089E-012  0.3348549E+04  0.7818608E-02  0.8150651E-01
         -1   -1    0    0    0  501 -0.00000000000E+00  0.00000000000E+00  0.73611663935E+03  0.73611663935E+03  0.00000000000E+00 0.  1.
          1   -1    0    0  501    0  0.00000000000E+00 -0.00000000000E+00 -0.38080860141E+04  0.38080860141E+04  0.00000000000E+00 0. -1.
    9900016    2    1    2    0    0 -0.54336380104E+03 -0.53695677590E+03 -0.16825173022E+04  0.28380902013E+04  0.21541412950E+04 0.  0.
         23    2    3    3    0    0  0.52766807305E+02 -0.46375799033E+03 -0.30979185124E+03  0.56762914171E+03  0.91520718249E+02 0.  0.
        -24    2    3    3    0    0 -0.68458441931E+01 -0.57175898205E+03  0.12029248382E+03  0.58971082338E+03  0.79582500590E+02 0.  0.
        -15    1    3    3    0    0 -0.58928476416E+03  0.49856019648E+03 -0.14930179348E+04  0.16807502362E+04  0.00000000000E+00 0.  1.
        -15    1    4    4    0    0  0.29496959397E+02 -0.92353908810E+02 -0.10481817064E+03  0.14278012460E+03  0.00000000000E+00 0. -1.
         15    1    5    5    0    0  0.17817040523E+02 -0.41212865433E+03  0.11438412016E+03  0.42807849934E+03  0.00000000000E+00 0. -1.
         15    1    4    4    0    0  0.23269847907E+02 -0.37140408152E+03 -0.20497368061E+03  0.42484901710E+03  0.00000000000E+00 0.  1.
        -16    1    5    5    0    0 -0.24662884716E+02 -0.15963032772E+03  0.59083636619E+01  0.16163232403E+03  0.00000000000E+00 0.  1.
         16    1    1    2    0    0  0.56677417620E+03  0.61324953045E+03 -0.13317495676E+04  0.15718984904E+04  0.00000000000E+00 0. -1.
    9900018    1    1    2    0    0 -0.23410375160E+02 -0.76292754551E+02 -0.57702504910E+02  0.13421396175E+03  0.91187600000E+02 0.  0.
<mgrwt>
<rscale>  0 0.33485492E+04</rscale>
<asrwt>0</asrwt>
<pdfrwt beam="1">  1        1 0.58585938E+00 0.33485492E+04</pdfrwt>
<pdfrwt beam="2">  1       -1 0.11324871E+00 0.33485492E+04</pdfrwt>
<totfact> 0.82406417E-02</totfact>
</mgrwt>
</event>
<event>
12    1  0.5263089E-012  0.3196434E+04  0.7818608E-02  0.8189759E-01
         -2   -1    0    0    0  501 -0.00000000000E+00  0.00000000000E+00  0.17251868492E+04  0.17251868492E+04  0.00000000000E+00 0.  1.
          2   -1    0    0  501    0  0.00000000000E+00 -0.00000000000E+00 -0.14805922894E+04  0.14805922894E+04  0.00000000000E+00 0. -1.
    9900016    2    1    2    0    0  0.14568270892E+03 -0.21336252038E+03  0.91392276423E+03  0.23499420424E+04  0.21494710435E+04 0.  0.
         23    2    3    3    0    0 -0.20344172647E+03 -0.66602838001E+02 -0.21225478920E+03  0.31305610342E+03  0.84424843810E+02 0.  0.
        -24    2    3    3    0    0  0.11580036773E+03  0.73475349604E+03  0.29767529559E+03  0.80484633108E+03  0.76776363209E+02 0.  0.
        -15    1    3    3    0    0  0.23332406766E+03 -0.88151317842E+03  0.82850225783E+03  0.12320396079E+04  0.00000000000E+00 0.  1.
        -15    1    4    4    0    0 -0.12800904327E+03 -0.83218502668E+02 -0.13487379943E+03  0.20372181061E+03  0.00000000000E+00 0.  1.
         15    1    5    5    0    0  0.28060591358E+02  0.28773707447E+03  0.15168793360E+03  0.32648009130E+03  0.00000000000E+00 0. -1.
         15    1    4    4    0    0 -0.75432683198E+02  0.16615664666E+02 -0.77380989768E+02  0.10933429281E+03  0.00000000000E+00 0. -1.
        -16    1    5    5    0    0  0.87739776370E+02  0.44701642157E+03  0.14598736199E+03  0.47836623979E+03  0.00000000000E+00 0.  1.
         16    1    1    2    0    0 -0.15447570012E+03  0.15849332814E+03 -0.70836923451E+03  0.74213869956E+03  0.00000000000E+00 0. -1.
    9900018    1    1    2    0    0  0.87929911959E+01  0.54869192244E+02  0.39041030116E+02  0.11369839655E+03  0.91187600000E+02 0.  0.
<mgrwt>
<rscale>  0 0.31964345E+04</rscale>
<asrwt>0</asrwt>
<pdfrwt beam="1">  1        2 0.22778343E+00 0.31964345E+04</pdfrwt>
<pdfrwt beam="2">  1       -2 0.26541336E+00 0.31964345E+04</pdfrwt>
<totfact> 0.56692208E-01</totfact>
</mgrwt>
</event>
<event>
12    1  0.5263089E-012  0.2749146E+04  0.7818608E-02  0.8319233E-01
          1   -1    0    0  501    0  0.00000000000E+00  0.00000000000E+00  0.14106821289E+04  0.14106821289E+04  0.00000000000E+00 0. -1.
         -1   -1    0    0    0  501 -0.00000000000E+00 -0.00000000000E+00 -0.13393884520E+04  0.13393884520E+04  0.00000000000E+00 0.  1.
    9900016    2    1    2    0    0  0.16221146685E+03 -0.14922727090E+03  0.45841423059E+03  0.23046004232E+04  0.22477673735E+04 0.  0.
         23    2    3    3    0    0  0.33832436136E+03  0.42120148526E+03  0.36114451391E+03  0.65604819840E+03  0.89998966809E+02 0.  0.
         24    2    3    3    0    0  0.31962293895E+03  0.30488196153E+03  0.33260387086E+03  0.55842452309E+03  0.78107486865E+02 0.  0.
        -15    1    4    4    0    0  0.30569569295E+03  0.38058067402E+03  0.28976401974E+03  0.56767481295E+03  0.00000000000E+00 0.  1.
        -15    1    5    5    0    0  0.13730608753E+03  0.91626847752E+02  0.15455226465E+03  0.22613014706E+03  0.00000000000E+00 0.  1.
         15    1    3    3    0    0 -0.47354283025E+03 -0.83349694351E+03 -0.23654740080E+03  0.98737765811E+03  0.00000000000E+00 0. -1.
         15    1    4    4    0    0  0.32628668411E+02  0.40620811240E+02  0.71380494171E+02  0.88373385452E+02  0.00000000000E+00 0. -1.
        -16    1    1    2    0    0 -0.16221146685E+03  0.14922727090E+03 -0.38712055365E+03  0.44547015772E+03  0.00000000000E+00 0.  1.
         16    1    5    5    0    0  0.18231685142E+03  0.21325511378E+03  0.17805160621E+03  0.33229437603E+03  0.00000000000E+00 0. -1.
    9900018    1    3    3    0    0 -0.22193003214E+02 -0.41813774180E+02  0.12132466154E+01  0.10275004362E+03  0.91187600000E+02 0.  0.
<mgrwt>
<rscale>  0 0.27491463E+04</rscale>
<asrwt>0</asrwt>
<pdfrwt beam="1">  1        1 0.21702802E+00 0.27491463E+04</pdfrwt>
<pdfrwt beam="2">  1       -1 0.20605976E+00 0.27491463E+04</pdfrwt>
<totfact> 0.89791890E-01</totfact>
</mgrwt>
</event>
<event>
12    1  0.5263089E-012  0.3905016E+04  0.7818608E-02  0.8023987E-01
          2   -1    0    0  501    0  0.00000000000E+00  0.00000000000E+00  0.27106185437E+04  0.27106185437E+04  0.00000000000E+00 0. -1.
         -2   -1    0    0    0  501 -0.00000000000E+00 -0.00000000000E+00 -0.14064271626E+04  0.14064271626E+04  0.00000000000E+00 0.  1.
    9900016    2    1    2    0    0  0.12589630459E+03 -0.57384114658E+03  0.20309275195E+04  0.30188582544E+04  0.21549234394E+04 0.  0.
         23    2    3    3    0    0 -0.43010857388E+03  0.84625170449E+02  0.18385338214E+02  0.44918954514E+03  0.96324565926E+02 0.  0.
         24    2    3    3    0    0  0.21231392007E+03 -0.96340006532E+03  0.18195440557E+04  0.20713150776E+04  0.79929303880E+02 0.  0.
        -15    1    5    5    0    0  0.18809788608E+02 -0.24240525965E+03  0.46018352310E+03  0.52046420913E+03  0.00000000000E+00 0.  1.
        -15    1    4    4    0    0 -0.27732161086E+03  0.42621180828E+02  0.56510350230E+02  0.28621191553E+03  0.00000000000E+00 0. -1.
         15    1    4    4    0    0 -0.15278696301E+03  0.42003989621E+02 -0.38125012016E+02  0.16297762961E+03  0.00000000000E+00 0.  1.
         15    1    3    3    0    0  0.34369095841E+03  0.30493374829E+03  0.19299812561E+03  0.49835363169E+03  0.00000000000E+00 0. -1.
        -16    1    1    2    0    0 -0.12901098691E+03  0.61557671803E+03 -0.76539837125E+03  0.99066300891E+03  0.00000000000E+00 0.  1.
         16    1    5    5    0    0  0.19350413146E+03 -0.72099480567E+03  0.13593605326E+04  0.15508508685E+04  0.00000000000E+00 0. -1.
    9900018    1    1    2    0    0  0.31146823118E+01 -0.41735571446E+02  0.38662232849E+02  0.10752444286E+03  0.91187600000E+02 0.  0.
<mgrwt>
<rscale>  0 0.39050160E+04</rscale>
<asrwt>0</asrwt>
<pdfrwt beam="1">  1        2 0.41701824E+00 0.39050160E+04</pdfrwt>
<pdfrwt beam="2">  1       -2 0.21637341E+00 0.39050160E+04</pdfrwt>
<totfact> 0.21678969E-01</totfact>
</mgrwt>
</event>
<event>
12    1  0.5263089E-012  0.2393643E+04  0.7818608E-02  0.8441887E-01
         -1   -1    0    0    0  501 -0.00000000000E+00  0.00000000000E+00  0.17575229288E+04  0.17575229288E+04  0.00000000000E+00 0.  1.
          1   -1    0    0  501    0  0.00000000000E+00 -0.00000000000E+00 -0.81500045636E+03  0.81500045636E+03  0.00000000000E+00 0. -1.
    9900016    2    1    2    0    0 -0.73280480269E+02  0.73295648251E+02  0.85776226354E+03  0.23309131232E+04  0.21648689583E+04 0.  0.
         23    2    3    3    0    0  0.25238708628E+03 -0.16218823444E+03  0.18255468388E+03  0.36273750443E+03  0.90818609349E+02 0.  0.
         24    2    3    3    0    0 -0.35865807926E+03  0.58912800851E+03 -0.42333550249E+03  0.81364132090E+03  0.84212963217E+02 0.  0.
        -15    1    4    4    0    0  0.11826888721E+03 -0.11587561367E+03  0.62858340679E+02  0.17710408950E+03  0.00000000000E+00 0.  1.
        -15    1    5    5    0    0 -0.20770049016E+03  0.33645270128E+03 -0.29092548537E+03  0.49089464434E+03  0.00000000000E+00 0.  1.
         15    1    4    4    0    0  0.13411819907E+03 -0.46312620778E+02  0.11969634320E+03  0.18563341494E+03  0.00000000000E+00 0. -1.
         15    1    3    3    0    0  0.32990512709E+02 -0.35364412582E+03  0.10985430822E+04  0.11545342979E+04  0.00000000000E+00 0. -1.
        -16    1    1    2    0    0  0.73394869316E+02 -0.10542827580E+03  0.60143934652E+02  0.14184224003E+03  0.00000000000E+00 0.  1.
         16    1    5    5    0    0 -0.15095758910E+03  0.25267530723E+03 -0.13241001713E+03  0.32274667656E+03  0.00000000000E+00 0. -1.
    9900018    1    1    2    0    0 -0.11438904690E+00  0.32132627553E+02  0.24616274211E+02  0.99768021871E+02  0.91187600000E+02 0.  0.
<mgrwt>
<rscale>  0 0.23936432E+04</rscale>
<asrwt>0</asrwt>
<pdfrwt beam="1">  1        1 0.12538469E+00 0.23936432E+04</pdfrwt>
<pdfrwt beam="2">  1       -1 0.27038814E+00 0.23936432E+04</pdfrwt>
<totfact> 0.98824641E-01</totfact>
</mgrwt>
</event>
<event>
12    1  0.5263089E-012  0.3191836E+04  0.7818608E-02  0.8190976E-01
          1   -1    0    0  501    0  0.00000000000E+00  0.00000000000E+00  0.13436568750E+04  0.13436568750E+04  0.00000000000E+00 0. -1.
         -1   -1    0    0    0  501 -0.00000000000E+00 -0.00000000000E+00 -0.18955396386E+04  0.18955396386E+04  0.00000000000E+00 0.  1.
    9900016    2    1    2    0    0 -0.12017766059E+03  0.33650560442E+03 -0.10517256848E+04  0.24203994199E+04  0.21504715166E+04 0.  0.
         23    2    3    3    0    0 -0.20412277085E+02  0.55671289721E+01 -0.27918903893E+02  0.97619080020E+02  0.91117317831E+02 0.  0.
        -24    2    3    3    0    0  0.55778653998E+03  0.41380420471E+02  0.42390821977E+03  0.70658198495E+03  0.81986335979E+02 0.  0.
        -15    1    4    4    0    0 -0.25377617444E+02  0.45281707318E+02 -0.24645160893E+02  0.57461643209E+02  0.00000000000E+00 0.  1.
        -15    1    3    3    0    0 -0.65755192348E+03  0.28955805498E+03 -0.14477150007E+04  0.16161983549E+04  0.00000000000E+00 0.  1.
         15    1    5    5    0    0  0.47456444030E+03  0.11535764110E+02  0.33360269768E+03  0.58020275917E+03  0.00000000000E+00 0. -1.
         15    1    4    4    0    0  0.49653403589E+01 -0.39714578346E+02 -0.32737430005E+01  0.40157436812E+02  0.00000000000E+00 0. -1.
        -16    1    5    5    0    0  0.83222099675E+02  0.29844656361E+02  0.90305522089E+02  0.12637922577E+03  0.00000000000E+00 0.  1.
         16    1    1    2    0    0  0.91719616203E+02 -0.32375943580E+03  0.59487321810E+03  0.68345212406E+03  0.00000000000E+00 0. -1.
    9900018    1    1    2    0    0  0.28458044386E+02 -0.12746168618E+02 -0.95030296915E+02  0.13534496973E+03  0.91187600000E+02 0.  0.
<mgrwt>
<rscale>  0 0.31918364E+04</rscale>
<asrwt>0</asrwt>
<pdfrwt beam="1">  1        1 0.20671644E+00 0.31918364E+04</pdfrwt>
<pdfrwt beam="2">  1       -1 0.29162148E+00 0.31918364E+04</pdfrwt>
<totfact> 0.26379794E-01</totfact>
</mgrwt>
</event>
<event>
12    1  0.5263089E-012  0.2743942E+04  0.7818608E-02  0.8320886E-01
         -2   -1    0    0    0  501 -0.00000000000E+00  0.00000000000E+00  0.89861608197E+03  0.89861608197E+03  0.00000000000E+00 0.  1.
          2   -1    0    0  501    0  0.00000000000E+00 -0.00000000000E+00 -0.20946709757E+04  0.20946709757E+04  0.00000000000E+00 0. -1.
    9900016    2    1    2    0    0  0.36374533967E+03  0.19593183511E+03 -0.94436473957E+03  0.23867504864E+04  0.21526851063E+04 0.  0.
         23    2    3    3    0    0  0.15734857834E+03 -0.12671697251E+03  0.11288865735E+03  0.24938461614E+03  0.92914323876E+02 0.  0.
         24    2    3    3    0    0  0.48094624297E+03  0.83945540213E+02 -0.14910705144E+04  0.15711910217E+04  0.83628974946E+02 0.  0.
        -15    1    4    4    0    0  0.93079961625E+02 -0.12054100344E+03  0.52812108158E+02  0.16119283959E+03  0.00000000000E+00 0.  1.
        -15    1    5    5    0    0  0.16285683629E+03  0.61301576979E+02 -0.45434083063E+03  0.48652422637E+03  0.00000000000E+00 0.  1.
         15    1    3    3    0    0 -0.27454948163E+03  0.23870326740E+03  0.43381711746E+03  0.56617484855E+03  0.00000000000E+00 0. -1.
         15    1    4    4    0    0  0.64268616711E+02 -0.61759690663E+01  0.60076549190E+02  0.88191776547E+02  0.00000000000E+00 0. -1.
        -16    1    1    2    0    0 -0.40975090735E+03 -0.16466006898E+03 -0.17485071257E+03  0.47495422525E+03  0.00000000000E+00 0.  1.
         16    1    5    5    0    0  0.31808940668E+03  0.22643963234E+02 -0.10367296837E+04  0.10846667953E+04  0.00000000000E+00 0. -1.
    9900018    1    1    2    0    0  0.46005567682E+02 -0.31271766132E+02 -0.76839441607E+02  0.13158234606E+03  0.91187600000E+02 0.  0.
<mgrwt>
<rscale>  0 0.27439424E+04</rscale>
<asrwt>0</asrwt>
<pdfrwt beam="1">  1        2 0.32225707E+00 0.27439424E+04</pdfrwt>
<pdfrwt beam="2">  1       -2 0.13824863E+00 0.27439424E+04</pdfrwt>
<totfact> 0.19192266E+00</totfact>
</mgrwt>
</event>
<event>
12    1  0.5263089E-012  0.2475284E+04  0.7818608E-02  0.8411844E-01
         -2   -1    0    0    0  501 -0.00000000000E+00  0.00000000000E+00  0.20184350209E+04  0.20184350209E+04  0.00000000000E+00 0.  1.
          2   -1    0    0  501    0  0.00000000000E+00 -0.00000000000E+00 -0.75888368180E+03  0.75888368180E+03  0.00000000000E+00 0. -1.
    9900016    2    1    2    0    0 -0.60441886183E+02  0.20799661574E+03  0.11464377721E+04  0.25329613971E+04  0.22482566713E+04 0.  0.
         23    2    3    3    0    0 -0.47006797412E+02 -0.33039579355E+03  0.39047678195E+03  0.52150987583E+03  0.90163262774E+02 0.  0.
         24    2    3    3    0    0 -0.51908983817E+03 -0.39505298340E+03  0.34951696532E+03  0.74441535432E+03  0.80442469598E+02 0.  0.
        -15    1    5    5    0    0 -0.10078062576E+03 -0.11618908383E+03  0.96777778711E+02  0.18172114952E+03  0.00000000000E+00 0.  1.
        -15    1    4    4    0    0  0.49122091604E+01 -0.10631210133E+03  0.18323712347E+03  0.21190147735E+03  0.00000000000E+00 0. -1.
         15    1    4    4    0    0 -0.51919006572E+02 -0.22408369222E+03  0.20723965848E+03  0.30960839848E+03  0.00000000000E+00 0.  1.
         15    1    3    3    0    0  0.55499894460E+03  0.93943575576E+03  0.33655562404E+03  0.11418550940E+04  0.00000000000E+00 0. -1.
        -16    1    1    2    0    0  0.60441886183E+02 -0.20799661574E+03  0.11311356694E+03  0.24435730558E+03  0.00000000000E+00 0.  1.
         16    1    5    5    0    0 -0.41830921241E+03 -0.27886389958E+03  0.25273918661E+03  0.56269420481E+03  0.00000000000E+00 0. -1.
    9900018    1    3    3    0    0 -0.49344195197E+02 -0.59903630705E+01  0.69888400820E+02  0.12518107290E+03  0.91187600000E+02 0.  0.
<mgrwt>
<rscale>  0 0.24752837E+04</rscale>
<asrwt>0</asrwt>
<pdfrwt beam="1">  1        2 0.11675134E+00 0.24752837E+04</pdfrwt>
<pdfrwt beam="2">  1       -2 0.31052846E+00 0.24752837E+04</pdfrwt>
<totfact> 0.90420755E-01</totfact>
</mgrwt>
</event>
<event>
12    1  0.5263089E-012  0.2606745E+04  0.7818608E-02  0.8365914E-01
         -1   -1    0    0    0  501 -0.00000000000E+00  0.00000000000E+00  0.14946086566E+04  0.14946086566E+04  0.00000000000E+00 0. -1.
          1   -1    0    0  501    0  0.00000000000E+00 -0.00000000000E+00 -0.11366049997E+04  0.11366049997E+04  0.00000000000E+00 0.  1.
    9900016    2    1    2    0    0  0.67872172949E+02  0.40708346074E+02  0.55934169843E+03  0.22215038372E+04  0.21484767538E+04 0.  0.
         23    2    3    3    0    0  0.46361374277E+03 -0.28405323199E+03  0.26646082745E+02  0.55190901437E+03  0.90937370361E+02 0.  0.
         24    2    3    3    0    0  0.11960970550E+03  0.16459562710E+03  0.95790342541E+03  0.98254187705E+03  0.80071003755E+02 0.  0.
        -15    1    5    5    0    0  0.62010532857E+02  0.13606802069E+03  0.56685237833E+03  0.58624349144E+03  0.00000000000E+00 0.  1.
        -15    1    4    4    0    0  0.36944123640E+02  0.23951377360E+01 -0.30384032726E+01  0.37146155262E+02  0.00000000000E+00 0.  1.
         15    1    3    3    0    0 -0.51535127532E+03  0.16016595097E+03 -0.42520780973E+03  0.68705294576E+03  0.00000000000E+00 0. -1.
         15    1    4    4    0    0  0.42666961913E+03 -0.28644836972E+03  0.29684486018E+02  0.51476285911E+03  0.00000000000E+00 0. -1.
        -16    1    1    2    0    0 -0.25246832572E+02 -0.40146563721E+02 -0.27873113408E+03  0.28273697007E+03  0.00000000000E+00 0.  1.
         16    1    5    5    0    0  0.57599172641E+02  0.28527606410E+02  0.39105104708E+03  0.39629838561E+03  0.00000000000E+00 0. -1.
    9900018    1    1    2    0    0 -0.42625340377E+02 -0.56178235328E+00  0.77393092481E+02  0.12697284906E+03  0.91187600000E+02 0.  0.
<mgrwt>
<rscale>  0 0.26067448E+04</rscale>
<asrwt>0</asrwt>
<pdfrwt beam="1">  1        1 0.17486231E+00 0.26067448E+04</pdfrwt>
<pdfrwt beam="2">  1       -1 0.22993979E+00 0.26067448E+04</pdfrwt>
<totfact> 0.98981359E-01</totfact>
</mgrwt>
</event>
<event>
12    1  0.5263089E-012  0.3068403E+04  0.7818608E-02  0.8224463E-01
          2   -1    0    0  501    0  0.00000000000E+00  0.00000000000E+00  0.96321951816E+03  0.96321951816E+03  0.00000000000E+00 0. -1.
         -2   -1    0    0    0  501 -0.00000000000E+00 -0.00000000000E+00 -0.24436534024E+04  0.24436534024E+04  0.00000000000E+00 0.  1.
    9900016    2    1    2    0    0 -0.45862773343E+03 -0.55247918924E+03 -0.10883620850E+04  0.25887696580E+04  0.22364310098E+04 0.  0.
         23    2    3    3    0    0  0.12870464620E+03 -0.66586755739E+02 -0.10486501574E+03  0.20204036922E+03  0.93941243749E+02 0.  0.
         24    2    3    3    0    0  0.13773347995E+03  0.69864397717E+03 -0.22927926525E+03  0.75213535663E+03  0.77876150911E+02 0.  0.
        -15    1    4    4    0    0  0.12359525266E+03 -0.85062019684E+02 -0.78181439485E+02  0.16918531601E+03  0.00000000000E+00 0.  1.
        -15    1    5    5    0    0  0.46703601292E+02  0.37641914298E+03 -0.92371509232E+02  0.39039094929E+03  0.00000000000E+00 0.  1.
         15    1    3    3    0    0 -0.68529456448E+03 -0.11580608770E+04 -0.71974321981E+03  0.15260288128E+04  0.00000000000E+00 0. -1.
         15    1    4    4    0    0  0.51093935399E+01  0.18475263945E+02 -0.26683576252E+02  0.32855053215E+02  0.00000000000E+00 0. -1.
        -16    1    1    2    0    0  0.45862773343E+03  0.55247918924E+03 -0.39207179923E+03  0.81810326253E+03  0.00000000000E+00 0.  1.
         16    1    5    5    0    0  0.91029878653E+02  0.32222483420E+03 -0.13690775602E+03  0.36174440734E+03  0.00000000000E+00 0. -1.
    9900018    1    3    3    0    0 -0.39771295098E+02 -0.26475533676E+02 -0.34474584206E+02  0.10856511939E+03  0.91187600000E+02 0.  0.
<mgrwt>
<rscale>  0 0.30684033E+04</rscale>
<asrwt>0</asrwt>
<pdfrwt beam="1">  1        2 0.14818762E+00 0.30684033E+04</pdfrwt>
<pdfrwt beam="2">  1       -2 0.37594667E+00 0.30684033E+04</pdfrwt>
<totfact> 0.24074245E-01</totfact>
</mgrwt>
</event>
<event>
12    1  0.5263089E-012  0.3026081E+04  0.7818608E-02  0.8236322E-01
         -2   -1    0    0    0  501 -0.00000000000E+00  0.00000000000E+00  0.94140399874E+03  0.94140399874E+03  0.00000000000E+00 0.  1.
          2   -1    0    0  501    0  0.00000000000E+00 -0.00000000000E+00 -0.24317838802E+04  0.24317838802E+04  0.00000000000E+00 0. -1.
    9900016    2    1    2    0    0 -0.14006473165E+03  0.16352811750E+03 -0.42792605294E+03  0.22020694446E+04  0.21493323516E+04 0.  0.
         23    2    3    3    0    0  0.12147374473E+03  0.29904651303E+03 -0.66718220821E+03  0.74659156902E+03  0.89900969746E+02 0.  0.
        -24    2    3    3    0    0  0.37973532733E+03  0.44597735428E+02  0.58630699405E+03  0.70439985254E+03  0.78964448742E+02 0.  0.
        -15    1    4    4    0    0  0.76886809744E+02  0.80889162190E+02 -0.24752241499E+03  0.27151792573E+03  0.00000000000E+00 0. -1.
        -15    1    3    3    0    0 -0.64127380372E+03 -0.18011613096E+03 -0.34705083877E+03  0.75107802302E+03  0.00000000000E+00 0.  1.
         15    1    5    5    0    0  0.64571353781E+02 -0.89963519159E+01  0.59969217858E+02  0.88581607388E+02  0.00000000000E+00 0. -1.
         15    1    4    4    0    0  0.44586934987E+02  0.21815735084E+03 -0.41965979323E+03  0.47507364329E+03  0.00000000000E+00 0.  1.
        -16    1    5    5    0    0  0.31516397355E+03  0.53594087344E+02  0.52633777619E+03  0.61581824515E+03  0.00000000000E+00 0.  1.
         16    1    1    2    0    0  0.10014448722E+03 -0.13177894633E+03 -0.10533108532E+04  0.10662356036E+04  0.00000000000E+00 0. -1.
    9900018    1    1    2    0    0  0.39920244435E+02 -0.31749171168E+02 -0.91429753165E+01  0.10488283071E+03  0.91187600000E+02 0.  0.
<mgrwt>
<rscale>  0 0.30260807E+04</rscale>
<asrwt>0</asrwt>
<pdfrwt beam="1">  1        2 0.37412059E+00 0.30260807E+04</pdfrwt>
<pdfrwt beam="2">  1       -2 0.14483139E+00 0.30260807E+04</pdfrwt>
<totfact> 0.10700098E+00</totfact>
</mgrwt>
</event>
<event>
12    1  0.5263089E-012  0.2578879E+04  0.7818608E-02  0.8375411E-01
         -2   -1    0    0    0  501 -0.00000000000E+00  0.00000000000E+00  0.94529355176E+03  0.94529355176E+03  0.00000000000E+00 0.  1.
          2   -1    0    0  501    0  0.00000000000E+00 -0.00000000000E+00 -0.17588764901E+04  0.17588764901E+04  0.00000000000E+00 0. -1.
    9900016    2    1    2    0    0  0.29681178069E+03  0.49768672085E+02 -0.63286198643E+03  0.23531227283E+04  0.22463521823E+04 0.  0.
         23    2    3    3    0    0  0.34485923116E+03  0.40956865103E+02 -0.22862135203E+03  0.42552663739E+03  0.90552981224E+02 0.  0.
         24    2    3    3    0    0  0.30179657817E+03 -0.54677943546E+03  0.46688005976E+03  0.78393995361E+03  0.80845129919E+02 0.  0.
        -15    1    5    5    0    0  0.11400056417E+03 -0.13656830355E+03  0.11562398591E+03  0.21216959321E+03  0.00000000000E+00 0.  1.
        -15    1    4    4    0    0  0.24655265736E+03  0.69346768191E+02 -0.17286949372E+03  0.30900007924E+03  0.00000000000E+00 0.  1.
         15    1    4    4    0    0  0.98306573801E+02 -0.28389903087E+02 -0.55751858305E+02  0.11652655815E+03  0.00000000000E+00 0. -1.
         15    1    3    3    0    0 -0.31445302361E+03  0.54555012454E+03 -0.81672823604E+03  0.10312859225E+04  0.00000000000E+00 0. -1.
        -16    1    1    2    0    0 -0.29681178069E+03 -0.49768672085E+02 -0.18072095194E+03  0.35104731355E+03  0.00000000000E+00 0.  1.
         16    1    5    5    0    0  0.18779601400E+03 -0.41021113191E+03  0.35125607386E+03  0.57177036040E+03  0.00000000000E+00 0. -1.
    9900018    1    3    3    0    0 -0.35391005025E+02  0.10041117902E+02 -0.54392458127E+02  0.11237021483E+03  0.91187600000E+02 0.  0.
<mgrwt>
<rscale>  0 0.25788793E+04</rscale>
<asrwt>0</asrwt>
<pdfrwt beam="1">  1        2 0.27059638E+00 0.25788793E+04</pdfrwt>
<pdfrwt beam="2">  1       -2 0.14542978E+00 0.25788793E+04</pdfrwt>
<totfact> 0.26206218E+00</totfact>
</mgrwt>
</event>
<event>
12    1  0.5263089E-012  0.2900853E+04  0.7818608E-02  0.8272624E-01
          2   -1    0    0  501    0  0.00000000000E+00  0.00000000000E+00  0.24423733303E+04  0.24423733303E+04  0.00000000000E+00 0. -1.
         -2   -1    0    0    0  501 -0.00000000000E+00 -0.00000000000E+00 -0.86134927217E+03  0.86134927217E+03  0.00000000000E+00 0.  1.
    9900016    2    1    2    0    0  0.56489690227E+03  0.16151027768E+02  0.98718046367E+03  0.24306023933E+04  0.21480068344E+04 0.  0.
         23    2    3    3    0    0 -0.43959402330E+03  0.19840098636E+03  0.13948964217E+03  0.51033341754E+03  0.91525843792E+02 0.  0.
         24    2    3    3    0    0  0.24072060326E+02 -0.40374779914E+03  0.81648050910E+03  0.91465646177E+03  0.79776386964E+02 0.  0.
        -15    1    4    4    0    0 -0.87624238595E+02  0.77097711633E+01  0.52563524336E+01  0.88119674317E+02  0.00000000000E+00 0. -1.
        -15    1    5    5    0    0  0.28167896285E+02 -0.94763537583E+02  0.25958078301E+03  0.27776922318E+03  0.00000000000E+00 0.  1.
         15    1    3    3    0    0  0.98041886524E+03  0.22149784054E+03  0.31210312400E+02  0.10056125140E+04  0.00000000000E+00 0. -1.
         15    1    4    4    0    0 -0.35196978470E+03  0.19069121520E+03  0.13423328973E+03  0.42221374323E+03  0.00000000000E+00 0.  1.
        -16    1    1    2    0    0 -0.54607286635E+03 -0.22230567808E+02  0.49872442753E+03  0.73987554907E+03  0.00000000000E+00 0.  1.
         16    1    5    5    0    0 -0.40958359592E+01 -0.30898426155E+03  0.55689972609E+03  0.63688723859E+03  0.00000000000E+00 0. -1.
    9900018    1    1    2    0    0 -0.18824035920E+02  0.60795400402E+01  0.95119166957E+02  0.13324466012E+03  0.91187600000E+02 0.  0.
<mgrwt>
<rscale>  0 0.29008526E+04</rscale>
<asrwt>0</asrwt>
<pdfrwt beam="1">  1        2 0.37574974E+00 0.29008526E+04</pdfrwt>
<pdfrwt beam="2">  1       -2 0.13251527E+00 0.29008526E+04</pdfrwt>
<totfact> 0.13415782E+00</totfact>
</mgrwt>
</event>
<event>
12    1  0.5263089E-012  0.3055506E+04  0.7818608E-02  0.8228056E-01
          2   -1    0    0  501    0  0.00000000000E+00  0.00000000000E+00  0.16055960599E+04  0.16055960599E+04  0.00000000000E+00 0. -1.
         -2   -1    0    0    0  501 -0.00000000000E+00 -0.00000000000E+00 -0.14536841022E+04  0.14536841022E+04  0.00000000000E+00 0.  1.
    9900016    2    1    2    0    0 -0.21997733342E+03 -0.61780591012E+03  0.36846166821E+03  0.23686515014E+04  0.22460346757E+04 0.  0.
         23    2    3    3    0    0 -0.21178896454E+03 -0.32572335839E+03 -0.12601481959E+03  0.41847929420E+03  0.91076414186E+02 0.  0.
         24    2    3    3    0    0  0.34753489380E+03 -0.10927327244E+03 -0.59259400276E+03  0.70013190914E+03  0.79346629463E+02 0.  0.
        -15    1    5    5    0    0  0.12817850570E+03 -0.25217011486E+02 -0.28125716839E+03  0.31011485254E+03  0.00000000000E+00 0.  1.
        -15    1    4    4    0    0 -0.10697751463E+03 -0.11186000621E+03 -0.14374781926E+02  0.15544608062E+03  0.00000000000E+00 0.  1.
         15    1    4    4    0    0 -0.10481144991E+03 -0.21386335218E+03 -0.11164003767E+03  0.26303321358E+03  0.00000000000E+00 0. -1.
         15    1    3    3    0    0 -0.38490513433E+03 -0.12284457648E+03  0.10592552904E+04  0.11336950748E+04  0.00000000000E+00 0. -1.
        -16    1    1    2    0    0  0.21997733342E+03  0.61780591012E+03 -0.21654971059E+03  0.69062866068E+03  0.00000000000E+00 0.  1.
         16    1    5    5    0    0  0.21935638810E+03 -0.84056260956E+02 -0.31133683437E+03  0.39001705661E+03  0.00000000000E+00 0. -1.
    9900018    1    3    3    0    0  0.29181871642E+02 -0.59964702806E+02  0.27815200150E+02  0.11634522323E+03  0.91187600000E+02 0.  0.
<mgrwt>
<rscale>  0 0.30555062E+04</rscale>
<asrwt>0</asrwt>
<pdfrwt beam="1">  1        2 0.24701478E+00 0.30555062E+04</pdfrwt>
<pdfrwt beam="2">  1       -2 0.22364371E+00 0.30555062E+04</pdfrwt>
<totfact> 0.88436001E-01</totfact>
</mgrwt>
</event>
<event>
12    1  0.5263089E-012  0.3184916E+04  0.7818608E-02  0.8192812E-01
          2   -1    0    0  501    0  0.00000000000E+00  0.00000000000E+00  0.84180089264E+03  0.84180089264E+03  0.00000000000E+00 0. -1.
         -2   -1    0    0    0  501 -0.00000000000E+00 -0.00000000000E+00 -0.30124970096E+04  0.30124970096E+04  0.00000000000E+00 0.  1.
    9900016    2    1    2    0    0  0.57456212205E+03 -0.30428811063E+03 -0.19256297937E+04  0.29622551955E+04  0.21550389450E+04 0.  0.
         23    2    3    3    0    0  0.97930938775E+02 -0.79117150602E+01 -0.22622505618E+02  0.13502994062E+03  0.89823399511E+02 0.  0.
        -24    2    3    3    0    0 -0.40486062538E+03 -0.91725484296E+03 -0.10364119004E+04  0.14439301233E+04  0.74269783660E+02 0.  0.
        -15    1    4    4    0    0  0.46550808629E+01 -0.34962389270E+02 -0.12343176411E+02  0.37368334793E+02  0.00000000000E+00 0.  1.
        -15    1    3    3    0    0  0.88149180865E+03  0.62087844739E+03 -0.86659538767E+03  0.13832951316E+04  0.00000000000E+00 0.  1.
         15    1    5    5    0    0 -0.10879658219E+03 -0.20381069667E+03 -0.20218735230E+03  0.30701013306E+03  0.00000000000E+00 0. -1.
         15    1    4    4    0    0  0.93275857912E+02  0.27050674209E+02 -0.10279329208E+02  0.97661605830E+02  0.00000000000E+00 0. -1.
        -16    1    5    5    0    0 -0.29606404319E+03 -0.71344414629E+03 -0.83422454812E+03  0.11369199903E+04  0.00000000000E+00 0.  1.
         16    1    1    2    0    0 -0.62769486382E+03  0.33175781314E+03 -0.10999912187E+03  0.71844547146E+03  0.00000000000E+00 0. -1.
    9900018    1    1    2    0    0  0.53132741775E+02 -0.27469702509E+02 -0.13506720143E+03  0.17359723529E+03  0.91187600000E+02 0.  0.
<mgrwt>
<rscale>  0 0.31849161E+04</rscale>
<asrwt>0</asrwt>
<pdfrwt beam="1">  1        2 0.12950783E+00 0.31849161E+04</pdfrwt>
<pdfrwt beam="2">  1       -2 0.46346108E+00 0.31849161E+04</pdfrwt>
<totfact> 0.76595397E-02</totfact>
</mgrwt>
</event>
<event>
12    1  0.5263089E-012  0.2910451E+04  0.7818608E-02  0.8269775E-01
          2   -1    0    0  501    0  0.00000000000E+00  0.00000000000E+00  0.31380337368E+04  0.31380337368E+04  0.00000000000E+00 0.  1.
         -2   -1    0    0    0  501 -0.00000000000E+00 -0.00000000000E+00 -0.67484324796E+03  0.67484324796E+03  0.00000000000E+00 0. -1.
    9900016    2    1    2    0    0  0.34136066544E+03  0.47741077119E+03  0.18033224948E+04  0.28660139194E+04  0.21488637969E+04 0.  0.
         23    2    3    3    0    0 -0.12256908284E+03 -0.36975048817E+03  0.53146204957E+03  0.66455347912E+03  0.86260146627E+02 0.  0.
         24    2    3    3    0    0 -0.25202667464E+03  0.30026292761E+03 -0.22095821390E+03  0.45784381560E+03  0.84398796023E+02 0.  0.
        -15    1    5    5    0    0 -0.72224945862E+02  0.14797363564E+03 -0.77565460172E+02  0.18201384634E+03  0.00000000000E+00 0.  1.
        -15    1    4    4    0    0 -0.89155000872E+02 -0.15594162029E+03  0.20132285510E+03  0.26980973871E+03  0.00000000000E+00 0.  1.
         15    1    4    4    0    0 -0.33414081972E+02 -0.21380886788E+03  0.33013919448E+03  0.39474374040E+03  0.00000000000E+00 0. -1.
         15    1    3    3    0    0  0.71595642292E+03  0.54689833176E+03  0.14928186591E+04  0.17436166247E+04  0.00000000000E+00 0. -1.
        -16    1    1    2    0    0 -0.32611243529E+03 -0.47432335222E+03  0.62036293484E+03  0.84627544797E+03  0.00000000000E+00 0.  1.
         16    1    5    5    0    0 -0.17980172878E+03  0.15228929197E+03 -0.14339275373E+03  0.27582996926E+03  0.00000000000E+00 0. -1.
    9900018    1    1    2    0    0 -0.15248230147E+02 -0.30874189715E+01  0.39505059204E+02  0.10058761740E+03  0.91187600000E+02 0.  0.
<mgrwt>
<rscale>  0 0.29104507E+04</rscale>
<asrwt>0</asrwt>
<pdfrwt beam="1">  1        2 0.48277441E+00 0.29104507E+04</pdfrwt>
<pdfrwt beam="2">  1       -2 0.10382204E+00 0.29104507E+04</pdfrwt>
<totfact> 0.92594937E-01</totfact>
</mgrwt>
</event>
<event>
12    1  0.5263089E-012  0.2943038E+04  0.7818608E-02  0.8260186E-01
         -2   -1    0    0    0  501 -0.00000000000E+00  0.00000000000E+00  0.11266036685E+04  0.11266036685E+04  0.00000000000E+00 0.  1.
          2   -1    0    0  501    0  0.00000000000E+00 -0.00000000000E+00 -0.19220314875E+04  0.19220314875E+04  0.00000000000E+00 0. -1.
    9900016    2    1    2    0    0  0.13011446539E+03 -0.29160027639E+02 -0.44301560114E+01  0.21557025757E+04  0.21515700982E+04 0.  0.
         23    2    3    3    0    0  0.64768062256E+02  0.29186265519E+03 -0.12889280883E+02  0.31207410486E+03  0.88574273794E+02 0.  0.
        -24    2    3    3    0    0  0.70329932172E+03 -0.45204393602E+03 -0.53458997565E+03  0.99565864790E+03  0.81092817564E+02 0.  0.
        -15    1    3    3    0    0 -0.63795291858E+03  0.13102125319E+03  0.54304910052E+03  0.84796982298E+03  0.00000000000E+00 0.  1.
        -15    1    4    4    0    0  0.69906977351E+02  0.13597504341E+03  0.15004336586E+02  0.15362723726E+03  0.00000000000E+00 0.  1.
         15    1    4    4    0    0 -0.51389150951E+01  0.15588761179E+03 -0.27893617469E+02  0.15844686760E+03  0.00000000000E+00 0. -1.
         15    1    5    5    0    0  0.55397152248E+03 -0.32204889637E+03 -0.43065817617E+03  0.77205336867E+03  0.00000000000E+00 0. -1.
        -16    1    5    5    0    0  0.14932779924E+03 -0.12999503964E+03 -0.10393179948E+03  0.22360527923E+03  0.00000000000E+00 0.  1.
         16    1    1    2    0    0 -0.17019659858E+03  0.59577950949E+02 -0.76448220749E+03  0.78546130394E+03  0.00000000000E+00 0. -1.
    9900018    1    1    2    0    0  0.40082133185E+02 -0.30417923309E+02 -0.26515455534E+02  0.10747127633E+03  0.91187600000E+02 0.  0.
<mgrwt>
<rscale>  0 0.29430377E+04</rscale>
<asrwt>0</asrwt>
<pdfrwt beam="1">  1        2 0.29569715E+00 0.29430377E+04</pdfrwt>
<pdfrwt beam="2">  1       -2 0.17332364E+00 0.29430377E+04</pdfrwt>
<totfact> 0.12819914E+00</totfact>
</mgrwt>
</event>
<event>
12    1  0.5263089E-012  0.2499633E+04  0.7818608E-02  0.8403116E-01
         -2   -1    0    0    0  501 -0.00000000000E+00  0.00000000000E+00  0.68775131072E+03  0.68775131072E+03  0.00000000000E+00 0.  1.
          2   -1    0    0  501    0  0.00000000000E+00 -0.00000000000E+00 -0.22712290144E+04  0.22712290144E+04  0.00000000000E+00 0. -1.
    9900016    2    1    2    0    0 -0.22032732762E+03 -0.91439980700E+02 -0.14056732138E+04  0.26614574890E+04  0.22473391779E+04 0.  0.
         23    2    3    3    0    0 -0.11130624739E+03  0.48159702066E+02 -0.19608508137E+03  0.24768016067E+03  0.90485718452E+02 0.  0.
        -24    2    3    3    0    0 -0.88750008990E+02  0.78964209995E+03 -0.11375706102E+04  0.13899124153E+04  0.79865005064E+02 0.  0.
        -15    1    4    4    0    0 -0.25441635932E+02  0.59490573592E+02 -0.83059396788E+02  0.10528660209E+03  0.00000000000E+00 0. -1.
        -15    1    3    3    0    0 -0.18245155749E+02 -0.92990508978E+03 -0.67909022254E+02  0.93255991604E+03  0.00000000000E+00 0.  1.
         15    1    5    5    0    0 -0.31480146469E+00  0.34683858659E+03 -0.51078088534E+03  0.61740927842E+03  0.00000000000E+00 0. -1.
         15    1    4    4    0    0 -0.85864611456E+02 -0.11330871525E+02 -0.11302568459E+03  0.14239355858E+03  0.00000000000E+00 0.  1.
        -16    1    5    5    0    0 -0.88435207525E+02  0.44280351336E+03 -0.62678972483E+03  0.77250313690E+03  0.00000000000E+00 0.  1.
         16    1    1    2    0    0  0.22032732762E+03  0.91439980700E+02 -0.17780448985E+03  0.29752283606E+03  0.00000000000E+00 0. -1.
    9900018    1    3    3    0    0 -0.20259154915E+01  0.66330706034E+00 -0.41085000044E+01  0.91304996993E+02  0.91187600000E+02 0.  0.
<mgrwt>
<rscale>  0 0.24996326E+04</rscale>
<asrwt>0</asrwt>
<pdfrwt beam="1">  1        2 0.34941984E+00 0.24996326E+04</pdfrwt>
<pdfrwt beam="2">  1       -2 0.10580790E+00 0.24996326E+04</pdfrwt>
<totfact> 0.30293153E+00</totfact>
</mgrwt>
</event>
<event>
12    1  0.5263089E-012  0.2940403E+04  0.7818608E-02  0.8260957E-01
          1   -1    0    0  501    0  0.00000000000E+00  0.00000000000E+00  0.13769836535E+04  0.13769836535E+04  0.00000000000E+00 0. -1.
         -1   -1    0    0    0  501 -0.00000000000E+00 -0.00000000000E+00 -0.15697296965E+04  0.15697296965E+04  0.00000000000E+00 0.  1.
    9900016    2    1    2    0    0 -0.98032869510E+02  0.20828248607E+02 -0.72814176578E+03  0.22741374247E+04  0.21520841842E+04 0.  0.
         23    2    3    3    0    0  0.47680844005E+03 -0.55530376527E+01  0.54233270781E+01  0.48574919666E+03  0.92443197968E+02 0.  0.
        -24    2    3    3    0    0 -0.29377839332E+03 -0.74545838722E+03 -0.29655044341E+03  0.85795034818E+03  0.78247575032E+02 0.  0.
        -15    1    4    4    0    0  0.16495977625E+03 -0.22201773880E+02  0.41039944718E+02  0.17143197953E+03  0.00000000000E+00 0. -1.
        -15    1    3    3    0    0 -0.28106291625E+03  0.77183967348E+03 -0.43701464945E+03  0.93043787986E+03  0.00000000000E+00 0.  1.
         15    1    5    5    0    0 -0.16551953874E+03 -0.44117563448E+03 -0.13391833908E+03  0.48986404206E+03  0.00000000000E+00 0. -1.
         15    1    4    4    0    0  0.31184866380E+03  0.16648736228E+02 -0.35616617640E+02  0.31431721713E+03  0.00000000000E+00 0.  1.
        -16    1    5    5    0    0 -0.12825885457E+03 -0.30428275275E+03 -0.16263210433E+03  0.36808630613E+03  0.00000000000E+00 0.  1.
         16    1    1    2    0    0  0.78986483711E+02  0.31726074130E+02  0.55699319851E+03  0.56345969827E+03  0.00000000000E+00 0. -1.
    9900018    1    1    2    0    0  0.19046385799E+02 -0.52554322736E+02 -0.21597475746E+02  0.10911622704E+03  0.91187600000E+02 0.  0.
<mgrwt>
<rscale>  0 0.29404028E+04</rscale>
<asrwt>0</asrwt>
<pdfrwt beam="1">  1        1 0.21184364E+00 0.29404028E+04</pdfrwt>
<pdfrwt beam="2">  1       -1 0.24149688E+00 0.29404028E+04</pdfrwt>
<totfact> 0.54069309E-01</totfact>
</mgrwt>
</event>
<event>
12    1  0.5642232E-012  0.3193549E+04  0.7818608E-02  0.8190523E-01
         -2   -1    0    0    0  501 -0.00000000000E+00  0.00000000000E+00  0.15734327996E+04  0.15734327996E+04  0.00000000000E+00 0.  1.
          2   -1    0    0  501    0  0.00000000000E+00 -0.00000000000E+00 -0.16204625969E+04  0.16204625969E+04  0.00000000000E+00 0. -1.
    9900016    2    1    2    0    0 -0.67654793772E+03  0.31111058060E+02 -0.29458357737E+03  0.22776810883E+04  0.21546151967E+04 0.  0.
         23    2    3    3    0    0  0.40772740563E+02 -0.34014425532E+02 -0.86974657554E+01  0.10576565916E+03  0.91056747310E+02 0.  0.
         24    2    3    3    0    0  0.37486522545E+03  0.55092580382E+02  0.63476366581E+03  0.74343136549E+03  0.78779147536E+02 0.  0.
        -15    1    5    5    0    0  0.54541945953E+02  0.22541537005E+02  0.15293398750E+03  0.16392604824E+03  0.00000000000E+00 0.  1.
        -15    1    4    4    0    0  0.50201088863E+02 -0.53739670858E+02 -0.25878019059E+02  0.77960075792E+02  0.00000000000E+00 0.  1.
         15    1    4    4    0    0 -0.94283483007E+01  0.19725245327E+02  0.17180553303E+02  0.27805583373E+02  0.00000000000E+00 0. -1.
         15    1    3    3    0    0 -0.10921859037E+04  0.10032903209E+02 -0.92064977743E+03  0.14284840637E+04  0.00000000000E+00 0. -1.
        -16    1    1    2    0    0  0.74706775397E+03 -0.36162191174E+02  0.27622664436E+03  0.79731994340E+03  0.00000000000E+00 0.  1.
         16    1    5    5    0    0  0.32032327949E+03  0.32551043377E+02  0.48182967831E+03  0.57950531724E+03  0.00000000000E+00 0. -1.
    9900018    1    1    2    0    0 -0.70519816246E+02  0.50511331140E+01 -0.28672864312E+02  0.11889436476E+03  0.91187600000E+02 0.  0.
<mgrwt>
<rscale>  0 0.31935491E+04</rscale>
<asrwt>0</asrwt>
<pdfrwt beam="1">  1        2 0.24930194E+00 0.31935491E+04</pdfrwt>
<pdfrwt beam="2">  1       -2 0.24206659E+00 0.31935491E+04</pdfrwt>
<totfact> 0.65823000E-01</totfact>
</mgrwt>
</event>
<event>
12    1  0.5263089E-012  0.4094807E+04  0.7818608E-02  0.7985689E-01
         -1   -1    0    0    0  501 -0.00000000000E+00  0.00000000000E+00  0.23845866893E+04  0.23845866893E+04  0.00000000000E+00 0.  1.
          1   -1    0    0  501    0  0.00000000000E+00 -0.00000000000E+00 -0.17578984506E+04  0.17578984506E+04  0.00000000000E+00 0. -1.
    9900016    2    1    2    0    0  0.10902244566E+04 -0.10665949126E+03 -0.52640218637E+03  0.25520188118E+04  0.22440443714E+04 0.  0.
         23    2    3    3    0    0 -0.48228550585E+02  0.18337606197E+03  0.18557986999E+03  0.27855011067E+03  0.84838097636E+02 0.  0.
         24    2    3    3    0    0  0.23052519195E+03  0.14667674635E+03 -0.10723513657E+04  0.11094534855E+04  0.79332546182E+02 0.  0.
        -15    1    5    5    0    0  0.19279958425E+02  0.46161542805E+02 -0.21657458997E+03  0.22227720947E+03  0.00000000000E+00 0.  1.
        -15    1    4    4    0    0 -0.32145085331E+02  0.44316709391E+02  0.12882325045E+02  0.56242613211E+02  0.00000000000E+00 0.  1.
         15    1    3    3    0    0  0.86614787719E+03 -0.42429441834E+03  0.41401269634E+03  0.10495924977E+04  0.00000000000E+00 0. -1.
         15    1    4    4    0    0 -0.16083465254E+02  0.13905935258E+03  0.17269754495E+03  0.22230749746E+03  0.00000000000E+00 0. -1.
        -16    1    1    2    0    0 -0.10902244566E+04  0.10665949126E+03  0.11530904250E+04  0.15904663282E+04  0.00000000000E+00 0.  1.
         16    1    5    5    0    0  0.21124523352E+03  0.10051520355E+03 -0.85577677577E+03  0.88717627605E+03  0.00000000000E+00 0. -1.
    9900018    1    3    3    0    0  0.41779938043E+02 -0.12417881246E+02 -0.53643386959E+02  0.11442271783E+03  0.91187600000E+02 0.  0.
<mgrwt>
<rscale>  0 0.40948071E+04</rscale>
<asrwt>0</asrwt>
<pdfrwt beam="1">  1        1 0.27044591E+00 0.40948071E+04</pdfrwt>
<pdfrwt beam="2">  1       -1 0.36685949E+00 0.40948071E+04</pdfrwt>
<totfact> 0.40518800E-02</totfact>
</mgrwt>
</event>
<event>
12    1  0.5263089E-012  0.2986022E+04  0.7818608E-02  0.8247734E-01
         -1   -1    0    0    0  501 -0.00000000000E+00  0.00000000000E+00  0.10418547597E+04  0.10418547597E+04  0.00000000000E+00 0.  1.
          1   -1    0    0  501    0  0.00000000000E+00 -0.00000000000E+00 -0.21395325359E+04  0.21395325359E+04  0.00000000000E+00 0. -1.
    9900016    2    1    2    0    0 -0.52052507340E+03 -0.30137724476E+03 -0.11122776187E+04  0.25797331167E+04  0.22485744054E+04 0.  0.
         23    2    3    3    0    0  0.26287454826E+03  0.23063678769E+03 -0.72200979034E+01  0.35999161828E+03  0.85120382138E+02 0.  0.
         24    2    3    3    0    0 -0.27979946788E+03 -0.56946170788E+03  0.28299371403E+03  0.69914042308E+03  0.78342262130E+02 0.  0.
        -15    1    4    4    0    0  0.18341787145E+03  0.16234131338E+03  0.34217223691E+02  0.24732091702E+03  0.00000000000E+00 0. -1.
        -15    1    5    5    0    0 -0.18826063744E+03 -0.31643091486E+03  0.13588762932E+03  0.39247425303E+03  0.00000000000E+00 0.  1.
         15    1    4    4    0    0  0.79456676809E+02  0.68295474313E+02 -0.41437321594E+02  0.11267070126E+03  0.00000000000E+00 0.  1.
         15    1    3    3    0    0 -0.43609055196E+03  0.56583043523E+02 -0.13092917230E+04  0.13811666903E+04  0.00000000000E+00 0. -1.
        -16    1    1    2    0    0  0.52052507340E+03  0.30137724476E+03  0.14599842481E+02  0.60165417899E+03  0.00000000000E+00 0.  1.
         16    1    5    5    0    0 -0.91538830442E+02 -0.25303079302E+03  0.14710608471E+03  0.30666617005E+03  0.00000000000E+00 0. -1.
    9900018    1    3    3    0    0 -0.67509601817E+02 -0.19135368092E+02 -0.78759511805E+02  0.13943438508E+03  0.91187600000E+02 0.  0.
<mgrwt>
<rscale>  0 0.29860222E+04</rscale>
<asrwt>0</asrwt>
<pdfrwt beam="1">  1        1 0.32915885E+00 0.29860222E+04</pdfrwt>
<pdfrwt beam="2">  1       -1 0.16028535E+00 0.29860222E+04</pdfrwt>
<totfact> 0.59344780E-01</totfact>
</mgrwt>
</event>
<event>
12    1  0.5263089E-012  0.2633994E+04  0.7818608E-02  0.8356745E-01
         -2   -1    0    0    0  501 -0.00000000000E+00  0.00000000000E+00  0.96612496178E+03  0.96612496178E+03  0.00000000000E+00 0.  1.
          2   -1    0    0  501    0  0.00000000000E+00 -0.00000000000E+00 -0.17952965769E+04  0.17952965769E+04  0.00000000000E+00 0. -1.
    9900016    2    1    2    0    0  0.28871566939E+03 -0.27044643883E+03 -0.64404734694E+03  0.22745575414E+04  0.21453011467E+04 0.  0.
         23    2    3    3    0    0  0.90355870708E+02 -0.40150464580E+03 -0.79423160193E+02  0.42896186795E+03  0.91269281839E+02 0.  0.
         24    2    3    3    0    0 -0.75694777932E+03  0.12865595872E+03 -0.85079072481E+02  0.77667946717E+03  0.80437863107E+02 0.  0.
        -15    1    5    5    0    0 -0.32375745561E+03  0.14770060774E+02 -0.35164723574E+02  0.32599632290E+03  0.00000000000E+00 0.  1.
        -15    1    4    4    0    0  0.83572940193E+02 -0.35742639045E+03 -0.99111809140E+02  0.38021206140E+03  0.00000000000E+00 0. -1.
         15    1    4    4    0    0  0.67829305145E+01 -0.44078255357E+02  0.19688648948E+02  0.48749806554E+02  0.00000000000E+00 0.  1.
         15    1    3    3    0    0  0.95530757800E+03  0.24022482561E+01 -0.47954511427E+03  0.10689162063E+04  0.00000000000E+00 0. -1.
        -16    1    1    2    0    0 -0.24908501146E+03  0.24100946083E+03 -0.14350425563E+03  0.37512981024E+03  0.00000000000E+00 0.  1.
         16    1    5    5    0    0 -0.43319032371E+03  0.11388589795E+03 -0.49914348907E+02  0.45068314427E+03  0.00000000000E+00 0. -1.
    9900018    1    1    2    0    0 -0.39630657923E+02  0.29436977995E+02 -0.41620012565E+02  0.11173418707E+03  0.91187600000E+02 0.  0.
<mgrwt>
<rscale>  0 0.26339938E+04</rscale>
<asrwt>0</asrwt>
<pdfrwt beam="1">  1        2 0.27619947E+00 0.26339938E+04</pdfrwt>
<pdfrwt beam="2">  1       -2 0.14863461E+00 0.26339938E+04</pdfrwt>
<totfact> 0.23508442E+00</totfact>
</mgrwt>
</event>
<event>
12    1  0.5263089E-012  0.2423943E+04  0.7818608E-02  0.8430594E-01
         -2   -1    0    0    0  501 -0.00000000000E+00  0.00000000000E+00  0.67879907692E+03  0.67879907692E+03  0.00000000000E+00 0.  1.
          2   -1    0    0  501    0  0.00000000000E+00 -0.00000000000E+00 -0.21639312910E+04  0.21639312910E+04  0.00000000000E+00 0. -1.
    9900016    2    1    2    0    0  0.21157279745E+02 -0.10520233447E+03 -0.12961829004E+04  0.25130685638E+04  0.21503274944E+04 0.  0.
         23    2    3    3    0    0  0.38564069493E+02  0.38160893335E+02  0.10686818410E+03  0.15035290917E+03  0.90784069568E+02 0.  0.
         24    2    3    3    0    0  0.74238369770E+01 -0.95540107008E+03 -0.11790987445E+04  0.15199958507E+04  0.85247984174E+02 0.  0.
        -15    1    5    5    0    0  0.28606651200E+02 -0.71458734932E+03 -0.83384546793E+03  0.10985225008E+04  0.00000000000E+00 0.  1.
        -15    1    4    4    0    0 -0.24803996812E+01  0.58546798802E+02  0.47996676590E+02  0.75746689671E+02  0.00000000000E+00 0.  1.
         15    1    4    4    0    0  0.41044469174E+02 -0.20385905467E+02  0.58871507507E+02  0.74606219497E+02  0.00000000000E+00 0. -1.
         15    1    3    3    0    0 -0.24830626725E+02  0.81203784227E+03 -0.22395233999E+03  0.84271980390E+03  0.00000000000E+00 0. -1.
        -16    1    1    2    0    0 -0.23976238882E+02  0.15943989846E+03 -0.13659695115E+03  0.21131651217E+03  0.00000000000E+00 0.  1.
         16    1    5    5    0    0 -0.21182814223E+02 -0.24081372076E+03 -0.34525327657E+03  0.42147334994E+03  0.00000000000E+00 0. -1.
    9900018    1    1    2    0    0  0.28189591369E+01 -0.54237563986E+02 -0.52352362538E+02  0.11834529198E+03  0.91187600000E+02 0.  0.
<mgrwt>
<rscale>  0 0.24239427E+04</rscale>
<asrwt>0</asrwt>
<pdfrwt beam="1">  1        2 0.33291250E+00 0.24239427E+04</pdfrwt>
<pdfrwt beam="2">  1       -2 0.10443063E+00 0.24239427E+04</pdfrwt>
<totfact> 0.36159876E+00</totfact>
</mgrwt>
</event>
<event>
12    1  0.5263089E-012  0.3547376E+04  0.7818608E-02  0.8102653E-01
         -1   -1    0    0    0  501 -0.00000000000E+00  0.00000000000E+00  0.24063293590E+04  0.24063293590E+04  0.00000000000E+00 0.  1.
          1   -1    0    0  501    0  0.00000000000E+00 -0.00000000000E+00 -0.13073728664E+04  0.13073728664E+04  0.00000000000E+00 0. -1.
    9900016    2    1    2    0    0  0.33082964659E+03  0.64872074130E+03  0.14007786274E+04  0.26670189848E+04  0.21495401013E+04 0.  0.
         23    2    3    3    0    0 -0.75449187232E+02  0.15570781607E+03 -0.15232547738E+03  0.24750589060E+03  0.90103335042E+02 0.  0.
        -24    2    3    3    0    0  0.76111730232E+03  0.94357856113E+03  0.73350413458E+03  0.14191812282E+04  0.80043701110E+02 0.  0.
        -15    1    4    4    0    0 -0.39586856777E+02  0.16711227632E+02 -0.75492253733E+01  0.43627688022E+02  0.00000000000E+00 0. -1.
        -15    1    3    3    0    0 -0.35483846849E+03 -0.45056563590E+03  0.81959997017E+03  0.10003318660E+04  0.00000000000E+00 0.  1.
         15    1    4    4    0    0 -0.35862330455E+02  0.13899658843E+03 -0.14477625201E+03  0.20387820258E+03  0.00000000000E+00 0.  1.
         15    1    5    5    0    0  0.47130681883E+03  0.61293299231E+03  0.42751441516E+03  0.88350752442E+03  0.00000000000E+00 0. -1.
        -16    1    5    5    0    0  0.28981048349E+03  0.33064556882E+03  0.30598971941E+03  0.53567370377E+03  0.00000000000E+00 0.  1.
         16    1    1    2    0    0 -0.39378549934E+03 -0.72235619876E+03 -0.36421883617E+03  0.89973377062E+03  0.00000000000E+00 0. -1.
    9900018    1    1    2    0    0  0.62955852744E+02  0.73635457458E+02  0.62396701388E+02  0.14694946998E+03  0.91187600000E+02 0.  0.
<mgrwt>
<rscale>  0 0.35473763E+04</rscale>
<asrwt>0</asrwt>
<pdfrwt beam="1">  1        1 0.20113429E+00 0.35473763E+04</pdfrwt>
<pdfrwt beam="2">  1       -1 0.37020452E+00 0.35473763E+04</pdfrwt>
<totfact> 0.82661669E-02</totfact>
</mgrwt>
</event>
<event>
12    1  0.5263089E-012  0.3002075E+04  0.7818608E-02  0.8243139E-01
         -2   -1    0    0    0  501 -0.00000000000E+00  0.00000000000E+00  0.12558050493E+04  0.12558050493E+04  0.00000000000E+00 0.  1.
          2   -1    0    0  501    0  0.00000000000E+00 -0.00000000000E+00 -0.17941587325E+04  0.17941587325E+04  0.00000000000E+00 0. -1.
    9900016    2    1    2    0    0  0.46603065966E+03 -0.10736982817E-01 -0.89343708613E+03  0.24640723252E+04  0.22486080185E+04 0.  0.
         23    2    3    3    0    0 -0.78025906121E+02  0.35611995910E+03 -0.29387772304E+03  0.47737351508E+03  0.92800266726E+02 0.  0.
         24    2    3    3    0    0  0.52095335860E+03 -0.72873922630E+03 -0.92912024884E+03  0.12930419577E+04  0.78992441055E+02 0.  0.
        -15    1    5    5    0    0  0.18419070138E+03 -0.31075428321E+03 -0.40763044238E+03  0.54466229589E+03  0.00000000000E+00 0.  1.
        -15    1    4    4    0    0  0.21292513508E+02  0.71885064887E+02 -0.53567083061E+02  0.92142639820E+02  0.00000000000E+00 0.  1.
         15    1    3    3    0    0  0.39429786701E+02  0.40121958062E+03  0.40451436998E+03  0.57110746403E+03  0.00000000000E+00 0. -1.
         15    1    4    4    0    0 -0.99318419629E+02  0.28423489421E+03 -0.24031063998E+03  0.38523087526E+03  0.00000000000E+00 0. -1.
        -16    1    1    2    0    0 -0.46603065966E+03  0.10736982817E-01  0.35508340289E+03  0.58589145656E+03  0.00000000000E+00 0.  1.
         16    1    5    5    0    0  0.33676265722E+03 -0.41798494309E+03 -0.52148980647E+03  0.74837966180E+03  0.00000000000E+00 0. -1.
    9900018    1    3    3    0    0 -0.16326579521E+02 -0.28611050402E+02 -0.74953484219E+02  0.12254938839E+03  0.91187600000E+02 0.  0.
<mgrwt>
<rscale>  0 0.30020750E+04</rscale>
<asrwt>0</asrwt>
<pdfrwt beam="1">  1        2 0.27602442E+00 0.30020750E+04</pdfrwt>
<pdfrwt beam="2">  1       -2 0.19320078E+00 0.30020750E+04</pdfrwt>
<totfact> 0.10978763E+00</totfact>
</mgrwt>
</event>
<event>
12    1  0.5263089E-012  0.2783119E+04  0.7818608E-02  0.8308528E-01
          2   -1    0    0  501    0  0.00000000000E+00  0.00000000000E+00  0.21532946633E+04  0.21532946633E+04  0.00000000000E+00 0. -1.
         -2   -1    0    0    0  501 -0.00000000000E+00 -0.00000000000E+00 -0.89929072503E+03  0.89929072503E+03  0.00000000000E+00 0.  1.
    9900016    2    1    2    0    0 -0.17716161042E+03 -0.33394477127E+03  0.74478510647E+03  0.23111835548E+04  0.21549847384E+04 0.  0.
         23    2    3    3    0    0  0.46103669232E+03  0.34848074589E+02  0.59056481434E+03  0.75574151374E+03  0.92785859286E+02 0.  0.
        -24    2    3    3    0    0  0.14022605005E+03  0.19635916978E+03 -0.37798932225E+03  0.45608388855E+03  0.83164397341E+02 0.  0.
        -15    1    3    3    0    0 -0.77842435279E+03 -0.56515201564E+03  0.53220961439E+03  0.10993581525E+04  0.00000000000E+00 0.  1.
        -15    1    4    4    0    0  0.72785562141E+02  0.21096446072E+02  0.52945253405E+02  0.92444566910E+02  0.00000000000E+00 0.  1.
         15    1    4    4    0    0  0.38825113018E+03  0.13751628517E+02  0.53761956093E+03  0.66329694683E+03  0.00000000000E+00 0. -1.
         15    1    5    5    0    0  0.73211287560E+02  0.36576482126E+02 -0.11501540974E+03  0.14116046241E+03  0.00000000000E+00 0. -1.
        -16    1    5    5    0    0  0.67014762493E+02  0.15978268766E+03 -0.26297391251E+03  0.31492342613E+03  0.00000000000E+00 0.  1.
         16    1    1    2    0    0  0.22071843244E+03  0.35525804652E+03  0.47433298539E+03  0.63238966395E+03  0.00000000000E+00 0. -1.
    9900018    1    1    2    0    0 -0.43556822025E+02 -0.21313275255E+02  0.34885846393E+02  0.10901216959E+03  0.91187600000E+02 0.  0.
<mgrwt>
<rscale>  0 0.27831191E+04</rscale>
<asrwt>0</asrwt>
<pdfrwt beam="1">  1        2 0.33127610E+00 0.27831191E+04</pdfrwt>
<pdfrwt beam="2">  1       -2 0.13835242E+00 0.27831191E+04</pdfrwt>
<totfact> 0.17702991E+00</totfact>
</mgrwt>
</event>
<event>
12    1  0.5263089E-012  0.2936772E+04  0.7818608E-02  0.8262020E-01
         -1   -1    0    0    0  501 -0.00000000000E+00  0.00000000000E+00  0.74589415332E+03  0.74589415332E+03  0.00000000000E+00 0.  1.
          1   -1    0    0  501    0  0.00000000000E+00 -0.00000000000E+00 -0.28907022135E+04  0.28907022135E+04  0.00000000000E+00 0. -1.
    9900016    2    1    2    0    0 -0.27149003223E+03 -0.51322314325E+03 -0.19420892249E+04  0.30216168887E+04  0.22408376184E+04 0.  0.
         23    2    3    3    0    0  0.70178590112E+02  0.17411838664E+03 -0.20002906269E+01  0.20900452204E+03  0.91851194837E+02 0.  0.
         24    2    3    3    0    0 -0.58925559608E+03 -0.20419608910E+03  0.11811034929E+03  0.63935839038E+03  0.76882354436E+02 0.  0.
        -15    1    5    5    0    0 -0.10115136307E+03 -0.15797400542E+02  0.41966601363E+02  0.11064516141E+03  0.00000000000E+00 0.  1.
        -15    1    4    4    0    0  0.71937447959E+02  0.99574151161E+02 -0.34605205493E+02  0.12762260084E+03  0.00000000000E+00 0. -1.
         15    1    3    3    0    0  0.27262078382E+03 -0.45946419371E+03 -0.19721252970E+04  0.20432101273E+04  0.00000000000E+00 0. -1.
         15    1    4    4    0    0 -0.17588578468E+01  0.74544235478E+02  0.32604914866E+02  0.81381921195E+02  0.00000000000E+00 0.  1.
        -16    1    1    2    0    0  0.27149003223E+03  0.51322314325E+03 -0.20271883531E+03  0.61497947816E+03  0.00000000000E+00 0.  1.
         16    1    5    5    0    0 -0.48810423301E+03 -0.18839868855E+03  0.76143747926E+02  0.52871322896E+03  0.00000000000E+00 0. -1.
    9900018    1    3    3    0    0 -0.25033810089E+02 -0.23681247079E+02 -0.86073986544E+02  0.13004384901E+03  0.91187600000E+02 0.  0.
<mgrwt>
<rscale>  0 0.29367723E+04</rscale>
<asrwt>0</asrwt>
<pdfrwt beam="1">  1        1 0.44472341E+00 0.29367723E+04</pdfrwt>
<pdfrwt beam="2">  1       -1 0.11475295E+00 0.29367723E+04</pdfrwt>
<totfact> 0.42329684E-01</totfact>
</mgrwt>
</event>
<event>
12    1  0.5263089E-012  0.3543811E+04  0.7818608E-02  0.8103485E-01
          1   -1    0    0  501    0  0.00000000000E+00  0.00000000000E+00  0.16739638787E+04  0.16739638787E+04  0.00000000000E+00 0. -1.
         -1   -1    0    0    0  501 -0.00000000000E+00 -0.00000000000E+00 -0.18755778483E+04  0.18755778483E+04  0.00000000000E+00 0.  1.
    9900016    2    1    2    0    0  0.26778012389E+02  0.25820165906E+03  0.83008346569E+03  0.23219644969E+04  0.21529271715E+04 0.  0.
         23    2    3    3    0    0 -0.23437551865E+03  0.26764625660E+03  0.16095784475E+03  0.40126587053E+03  0.92414656056E+02 0.  0.
         24    2    3    3    0    0  0.76818390104E+03  0.48984685086E+03  0.77811452471E+03  0.12008025729E+04  0.80050999329E+02 0.  0.
        -15    1    5    5    0    0  0.38936644476E+03  0.20948131091E+03  0.34645419513E+03  0.56171091964E+03  0.00000000000E+00 0.  1.
        -15    1    4    4    0    0 -0.19768369608E+03  0.17905523324E+03  0.14646295974E+03  0.30428772374E+03  0.00000000000E+00 0.  1.
         15    1    3    3    0    0 -0.50703037000E+03 -0.49929144839E+03 -0.10898890378E+03  0.71989605339E+03  0.00000000000E+00 0. -1.
         15    1    4    4    0    0 -0.36691822572E+02  0.88591023359E+02  0.14494885019E+02  0.96978146792E+02  0.00000000000E+00 0. -1.
        -16    1    1    2    0    0 -0.83598352066E+02 -0.26101192912E+03 -0.10767165577E+04  0.11110510597E+04  0.00000000000E+00 0.  1.
         16    1    5    5    0    0  0.37881745628E+03  0.28036553995E+03  0.43166032959E+03  0.63909165330E+03  0.00000000000E+00 0. -1.
    9900018    1    1    2    0    0  0.56820339677E+02  0.28102700642E+01  0.45019122432E+02  0.11652617044E+03  0.91187600000E+02 0.  0.
<mgrwt>
<rscale>  0 0.35438113E+04</rscale>
<asrwt>0</asrwt>
<pdfrwt beam="1">  1        1 0.25753290E+00 0.35438113E+04</pdfrwt>
<pdfrwt beam="2">  1       -1 0.28855044E+00 0.35438113E+04</pdfrwt>
<totfact> 0.15811745E-01</totfact>
</mgrwt>
</event>
<event>
12    1  0.5263089E-012  0.4199722E+04  0.7818608E-02  0.7965425E-01
          2   -1    0    0  501    0  0.00000000000E+00  0.00000000000E+00  0.22690282637E+04  0.22690282637E+04  0.00000000000E+00 0. -1.
         -2   -1    0    0    0  501 -0.00000000000E+00 -0.00000000000E+00 -0.19433058355E+04  0.19433058355E+04  0.00000000000E+00 0.  1.
    9900016    2    1    2    0    0 -0.48875034893E+03  0.13171460912E+04 -0.29831317351E+03  0.26750731710E+04  0.22568285251E+04 0.  0.
         23    2    3    3    0    0  0.59549221011E+02  0.10369773647E+03  0.33684235407E+03  0.36882482872E+03  0.90937629812E+02 0.  0.
        -24    2    3    3    0    0  0.11516561283E+03 -0.71942121697E+02  0.44302017446E+03  0.47045355962E+03  0.81368848617E+02 0.  0.
        -15    1    3    3    0    0 -0.64110606536E+03  0.11847330899E+04 -0.99811397182E+03  0.16765562866E+04  0.00000000000E+00 0.  1.
        -15    1    4    4    0    0  0.42503863500E+02  0.11943121679E+03  0.29224705892E+03  0.31855727492E+03  0.00000000000E+00 0.  1.
         15    1    5    5    0    0  0.11508809651E+03 -0.34394709977E+02  0.31859415508E+03  0.34048568499E+03  0.00000000000E+00 0. -1.
         15    1    4    4    0    0  0.17045357511E+02 -0.15733480326E+02  0.44595295146E+02  0.50267553799E+02  0.00000000000E+00 0. -1.
        -16    1    5    5    0    0  0.77516314129E-01 -0.37547411720E+02  0.12442601939E+03  0.12996787463E+03  0.00000000000E+00 0.  1.
         16    1    1    2    0    0  0.48875034893E+03 -0.13171460912E+04  0.62403560165E+03  0.15372609282E+04  0.00000000000E+00 0. -1.
    9900018    1    3    3    0    0 -0.22359117407E+02  0.10065738651E+03 -0.80061730212E+02  0.15923849606E+03  0.91187600000E+02 0.  0.
<mgrwt>
<rscale>  0 0.41997218E+04</rscale>
<asrwt>0</asrwt>
<pdfrwt beam="1">  1        2 0.34908127E+00 0.41997218E+04</pdfrwt>
<pdfrwt beam="2">  1       -2 0.29897013E+00 0.41997218E+04</pdfrwt>
<totfact> 0.11818118E-01</totfact>
</mgrwt>
</event>
<event>
12    1  0.5263089E-012  0.2405717E+04  0.7818608E-02  0.8437366E-01
          1   -1    0    0  501    0  0.00000000000E+00  0.00000000000E+00  0.10995683996E+04  0.10995683996E+04  0.00000000000E+00 0. -1.
         -1   -1    0    0    0  501 -0.00000000000E+00 -0.00000000000E+00 -0.13158508613E+04  0.13158508613E+04  0.00000000000E+00 0.  1.
    9900016    2    1    2    0    0  0.12846958012E+03  0.82300475419E+01 -0.11158996874E+03  0.22494895023E+04  0.22430288748E+04 0.  0.
         23    2    3    3    0    0  0.27297377412E+03  0.32918295346E+03  0.57083783259E+01  0.43785332437E+03  0.93844818039E+02 0.  0.
         24    2    3    3    0    0  0.33604783470E+03 -0.16838577702E+03  0.65213192625E+03  0.75701032500E+03  0.80663906570E+02 0.  0.
        -15    1    4    4    0    0  0.68235568638E+02  0.14434718619E+03 -0.19617476118E+02  0.16086344631E+03  0.00000000000E+00 0.  1.
        -15    1    5    5    0    0  0.22394396649E+03 -0.15087983244E+03  0.43435877010E+03  0.51145201645E+03  0.00000000000E+00 0.  1.
         15    1    3    3    0    0 -0.51224605265E+03 -0.18184169424E+03 -0.78264119695E+03  0.95288491612E+03  0.00000000000E+00 0. -1.
         15    1    4    4    0    0  0.20473820548E+03  0.18483576727E+03  0.25325854444E+02  0.27698987806E+03  0.00000000000E+00 0. -1.
        -16    1    1    2    0    0 -0.12846958012E+03 -0.82300475419E+01 -0.10469249302E+03  0.16592975861E+03  0.00000000000E+00 0.  1.
         16    1    5    5    0    0  0.11210386821E+03 -0.17505944576E+02  0.21777315614E+03  0.24555830855E+03  0.00000000000E+00 0. -1.
    9900018    1    3    3    0    0  0.31694023947E+02  0.29274565336E+02  0.13210923643E+02  0.10174093683E+03  0.91187600000E+02 0.  0.
<mgrwt>
<rscale>  0 0.24057165E+04</rscale>
<asrwt>0</asrwt>
<pdfrwt beam="1">  1        1 0.16916437E+00 0.24057165E+04</pdfrwt>
<pdfrwt beam="2">  1       -1 0.20243859E+00 0.24057165E+04</pdfrwt>
<totfact> 0.16455111E+00</totfact>
</mgrwt>
</event>
<event>
12    1  0.5263089E-012  0.2578259E+04  0.7818608E-02  0.8375624E-01
          2   -1    0    0  501    0  0.00000000000E+00  0.00000000000E+00  0.28160762104E+04  0.28160762104E+04  0.00000000000E+00 0.  1.
         -2   -1    0    0    0  501 -0.00000000000E+00 -0.00000000000E+00 -0.59013146247E+03  0.59013146247E+03  0.00000000000E+00 0. -1.
    9900016    2    1    2    0    0  0.50492504177E+02 -0.26872912072E+03  0.18603485970E+04  0.28623526390E+04  0.21581012243E+04 0.  0.
         23    2    3    3    0    0 -0.50256294047E+02 -0.48892885642E+02  0.14136411144E+03  0.18184979517E+03  0.90384327411E+02 0.  0.
        -24    2    3    3    0    0  0.40707003284E+03 -0.82315485486E+03  0.10176066712E+03  0.92743726183E+03  0.80589791878E+02 0.  0.
        -15    1    4    4    0    0 -0.22700398974E+02 -0.58134909746E+02  0.34932407286E+02  0.71520968419E+02  0.00000000000E+00 0.  1.
        -15    1    3    3    0    0 -0.30632123461E+03  0.60331861978E+03  0.16172238184E+04  0.17530655820E+04  0.00000000000E+00 0.  1.
         15    1    5    5    0    0  0.26370302715E+03 -0.46100594112E+03  0.34883423100E+02  0.53224300604E+03  0.00000000000E+00 0. -1.
         15    1    4    4    0    0 -0.27555895073E+02  0.92420241040E+01  0.10643170415E+03  0.11032882675E+03  0.00000000000E+00 0. -1.
        -16    1    5    5    0    0  0.14336700569E+03 -0.36214891374E+03  0.66877244021E+02  0.39519425579E+03  0.00000000000E+00 0.  1.
         16    1    1    2    0    0 -0.61455300006E+02  0.29939587583E+03  0.27076946668E+03  0.40832676675E+03  0.00000000000E+00 0. -1.
    9900018    1    1    2    0    0  0.10962795829E+02 -0.30666755101E+02  0.94826684279E+02  0.13552826718E+03  0.91187600000E+02 0.  0.
<mgrwt>
<rscale>  0 0.25782592E+04</rscale>
<asrwt>0</asrwt>
<pdfrwt beam="1">  1        2 0.43324249E+00 0.25782592E+04</pdfrwt>
<pdfrwt beam="2">  1       -2 0.90789458E-01 0.25782592E+04</pdfrwt>
<totfact> 0.20748202E+00</totfact>
</mgrwt>
</event>
<event>
12    1  0.5263089E-012  0.2915737E+04  0.7818608E-02  0.8268211E-01
         -2   -1    0    0    0  501 -0.00000000000E+00  0.00000000000E+00  0.12183811920E+04  0.12183811920E+04  0.00000000000E+00 0.  1.
          2   -1    0    0  501    0  0.00000000000E+00 -0.00000000000E+00 -0.17444299413E+04  0.17444299413E+04  0.00000000000E+00 0. -1.
    9900016    2    1    2    0    0 -0.14765090346E+02 -0.79296435941E+02  0.17479849265E+03  0.22573376829E+04  0.22491138185E+04 0.  0.
         23    2    3    3    0    0  0.17845726492E+03  0.19213655642E+03  0.14563602674E+03  0.31319636870E+03  0.90103614589E+02 0.  0.
        -24    2    3    3    0    0  0.76418917436E+03  0.14058061270E+02 -0.21051659128E+03  0.79681597244E+03  0.80098286098E+02 0.  0.
        -15    1    3    3    0    0 -0.98535248283E+03 -0.25194050655E+03  0.24478749890E+03  0.10460948589E+04  0.00000000000E+00 0.  1.
        -15    1    4    4    0    0  0.70216795781E+02  0.47080151758E+02  0.90842792919E+02  0.12409412607E+03  0.00000000000E+00 0.  1.
         15    1    5    5    0    0  0.13497663916E+03 -0.24271567040E+02 -0.53241057642E+02  0.14711360339E+03  0.00000000000E+00 0. -1.
         15    1    4    4    0    0  0.10824046914E+03  0.14505640467E+03  0.54793233822E+02  0.18910224263E+03  0.00000000000E+00 0. -1.
        -16    1    5    5    0    0  0.62921253520E+03  0.38329628310E+02 -0.15727553363E+03  0.64970236904E+03  0.00000000000E+00 0.  1.
         16    1    1    2    0    0  0.14765090346E+02  0.79296435941E+02 -0.70084724194E+03  0.70547345037E+03  0.00000000000E+00 0. -1.
    9900018    1    3    3    0    0  0.27940953205E+02 -0.33550547085E+02 -0.51084417228E+01  0.10123048279E+03  0.91187600000E+02 0.  0.
<mgrwt>
<rscale>  0 0.29157370E+04</rscale>
<asrwt>0</asrwt>
<pdfrwt beam="1">  1        2 0.26837384E+00 0.29157370E+04</pdfrwt>
<pdfrwt beam="2">  1       -2 0.18744326E+00 0.29157370E+04</pdfrwt>
<totfact> 0.12880249E+00</totfact>
</mgrwt>
</event>
<event>
12    1  0.5263089E-012  0.2541755E+04  0.7818608E-02  0.8388259E-01
          1   -1    0    0  501    0  0.00000000000E+00  0.00000000000E+00  0.17032541437E+04  0.17032541437E+04  0.00000000000E+00 0. -1.
         -1   -1    0    0    0  501 -0.00000000000E+00 -0.00000000000E+00 -0.94826116006E+03  0.94826116006E+03  0.00000000000E+00 0.  1.
    9900016    2    1    2    0    0  0.62308729794E+02 -0.20049276875E+03  0.47524048042E+03  0.22175108625E+04  0.21557878334E+04 0.  0.
         23    2    3    3    0    0 -0.36680113799E+03  0.15061919809E+03 -0.31593136059E+02  0.40874066566E+03  0.94029717917E+02 0.  0.
        -24    2    3    3    0    0  0.54660556784E+03 -0.63864978872E+03  0.94782731954E+03  0.12693643341E+04  0.79107431444E+02 0.  0.
        -15    1    4    4    0    0 -0.12159603957E+03  0.15819748283E+02 -0.39464391513E+02  0.12881498155E+03  0.00000000000E+00 0.  1.
        -15    1    3    3    0    0 -0.11749570005E+03  0.28753782188E+03 -0.44099370306E+03  0.53940586267E+03  0.00000000000E+00 0.  1.
         15    1    4    4    0    0 -0.24520509842E+03  0.13479944980E+03  0.78712554540E+01  0.27992568411E+03  0.00000000000E+00 0. -1.
         15    1    5    5    0    0  0.23749065087E+03 -0.29632307293E+03  0.37210948310E+03  0.53167155295E+03  0.00000000000E+00 0. -1.
        -16    1    5    5    0    0  0.30911491697E+03 -0.34232671579E+03  0.57571783644E+03  0.73769278120E+03  0.00000000000E+00 0.  1.
         16    1    1    2    0    0 -0.51776548601E+02  0.17731431755E+03  0.28450391260E+03  0.33921033958E+03  0.00000000000E+00 0. -1.
    9900018    1    1    2    0    0 -0.10532181192E+02  0.23178451195E+02 -0.47514093371E+01  0.94794101741E+02  0.91187600000E+02 0.  0.
<mgrwt>
<rscale>  0 0.25417551E+04</rscale>
<asrwt>0</asrwt>
<pdfrwt beam="1">  1        1 0.26203910E+00 0.25417551E+04</pdfrwt>
<pdfrwt beam="2">  1       -1 0.14588633E+00 0.25417551E+04</pdfrwt>
<totfact> 0.15778703E+00</totfact>
</mgrwt>
</event>
<event>
12    1  0.5263089E-012  0.2950995E+04  0.7818608E-02  0.8257865E-01
         -2   -1    0    0    0  501 -0.00000000000E+00  0.00000000000E+00  0.87087997025E+03  0.87087997025E+03  0.00000000000E+00 0.  1.
          2   -1    0    0  501    0  0.00000000000E+00 -0.00000000000E+00 -0.24998764158E+04  0.24998764158E+04  0.00000000000E+00 0. -1.
    9900016    2    1    2    0    0 -0.56650135067E+03  0.30205413018E+01 -0.98866544024E+03  0.25157963283E+04  0.22429531669E+04 0.  0.
         23    2    3    3    0    0  0.20718301581E+02 -0.17608424997E+03 -0.22281260149E+03  0.29630721581E+03  0.81960964203E+02 0.  0.
        -24    2    3    3    0    0  0.33952940101E+03  0.72414812461E+03  0.52112998307E+02  0.80537184784E+03  0.78976757198E+02 0.  0.
        -15    1    4    4    0    0  0.50651358457E+02 -0.88821717104E+02 -0.13065967339E+03  0.16591204837E+03  0.00000000000E+00 0. -1.
        -15    1    3    3    0    0 -0.91820561180E+03 -0.53115769966E+03 -0.75817773672E+03  0.13038648427E+04  0.00000000000E+00 0.  1.
         15    1    4    4    0    0 -0.29933056877E+02 -0.87262532869E+02 -0.92152928094E+02  0.13039516744E+03  0.00000000000E+00 0.  1.
         15    1    5    5    0    0  0.29157090774E+03  0.61377414804E+03  0.15886612846E+02  0.67969455163E+03  0.00000000000E+00 0. -1.
        -16    1    5    5    0    0  0.47958493276E+02  0.11037397657E+03  0.36226385461E+02  0.12567729622E+03  0.00000000000E+00 0.  1.
         16    1    1    2    0    0  0.56650135067E+03 -0.30205413018E+01 -0.64033100527E+03  0.85496005772E+03  0.00000000000E+00 0. -1.
    9900018    1    3    3    0    0 -0.85434414576E+01 -0.13885633680E+02 -0.59788100338E+02  0.11025242197E+03  0.91187600000E+02 0.  0.
<mgrwt>
<rscale>  0 0.29509946E+04</rscale>
<asrwt>0</asrwt>
<pdfrwt beam="1">  1        2 0.38459637E+00 0.29509946E+04</pdfrwt>
<pdfrwt beam="2">  1       -2 0.13398153E+00 0.29509946E+04</pdfrwt>
<totfact> 0.12033463E+00</totfact>
</mgrwt>
</event>
<event>
12    1  0.5263089E-012  0.2593888E+04  0.7818608E-02  0.8370280E-01
          1   -1    0    0  501    0  0.00000000000E+00  0.00000000000E+00  0.17737091029E+04  0.17737091029E+04  0.00000000000E+00 0. -1.
         -1   -1    0    0    0  501 -0.00000000000E+00 -0.00000000000E+00 -0.94833102270E+03  0.94833102270E+03  0.00000000000E+00 0.  1.
    9900016    2    1    2    0    0 -0.49721756857E+02 -0.38253207548E+02  0.10536438077E+04  0.24853107372E+04  0.22500374721E+04 0.  0.
         23    2    3    3    0    0 -0.16280018355E+03  0.15372261885E+03  0.67610085123E+03  0.71797008878E+03  0.90742184383E+02 0.  0.
         24    2    3    3    0    0 -0.20113774637E+03 -0.57623786262E+03 -0.42639964328E+03  0.74863561132E+03  0.78308080139E+02 0.  0.
        -15    1    5    5    0    0 -0.15594488896E+03 -0.34754146626E+03 -0.24076754694E+03  0.45063609578E+03  0.00000000000E+00 0.  1.
        -15    1    4    4    0    0 -0.17084867673E+02 -0.11206934405E+02  0.79087100501E+02  0.81683887933E+02  0.00000000000E+00 0.  1.
         15    1    3    3    0    0  0.33931636508E+03  0.40504524952E+03  0.69259341001E+03  0.87113884161E+03  0.00000000000E+00 0. -1.
         15    1    4    4    0    0 -0.14571531588E+03  0.16492955326E+03  0.59701375073E+03  0.63628620084E+03  0.00000000000E+00 0. -1.
        -16    1    1    2    0    0  0.49721756857E+02  0.38253207548E+02 -0.22826572751E+03  0.23672938843E+03  0.00000000000E+00 0.  1.
         16    1    5    5    0    0 -0.45192857416E+02 -0.22869639636E+03 -0.18563209635E+03  0.29799951554E+03  0.00000000000E+00 0. -1.
    9900018    1    3    3    0    0 -0.25100192014E+02 -0.20783213296E+02  0.11134918975E+03  0.14756619547E+03  0.91187600000E+02 0.  0.
<mgrwt>
<rscale>  0 0.25938877E+04</rscale>
<asrwt>0</asrwt>
<pdfrwt beam="1">  1        1 0.27287832E+00 0.25938877E+04</pdfrwt>
<pdfrwt beam="2">  1       -1 0.14589708E+00 0.25938877E+04</pdfrwt>
<totfact> 0.14060281E+00</totfact>
</mgrwt>
</event>
<event>
12    1  0.5263089E-012  0.2355981E+04  0.7818608E-02  0.8456170E-01
          2   -1    0    0  501    0  0.00000000000E+00  0.00000000000E+00  0.11830973451E+04  0.11830973451E+04  0.00000000000E+00 0. -1.
         -2   -1    0    0    0  501 -0.00000000000E+00 -0.00000000000E+00 -0.11729056748E+04  0.11729056748E+04  0.00000000000E+00 0.  1.
    9900016    2    1    2    0    0  0.93815456325E+02  0.83536126424E+02 -0.42976072352E+02  0.21530929081E+04  0.21489956966E+04 0.  0.
         23    2    3    3    0    0  0.15235969615E+03 -0.42085866637E+03  0.65502566971E+03  0.79940776502E+03  0.98278444887E+02 0.  0.
         24    2    3    3    0    0 -0.50748212229E+03  0.47909659764E+03 -0.34939863101E+03  0.78473053153E+03  0.81553353369E+02 0.  0.
        -15    1    5    5    0    0 -0.16430488846E+03  0.11120918241E+03 -0.11927954469E+03  0.23149770713E+03  0.00000000000E+00 0.  1.
        -15    1    4    4    0    0  0.87749531064E+02 -0.31824738027E+03  0.53592324162E+03  0.62944030388E+03  0.00000000000E+00 0.  1.
         15    1    3    3    0    0  0.44893788247E+03  0.25298195150E+02 -0.34860311106E+03  0.56895461157E+03  0.00000000000E+00 0. -1.
         15    1    4    4    0    0  0.64610165084E+02 -0.10261128610E+03  0.11910242809E+03  0.16996746114E+03  0.00000000000E+00 0. -1.
        -16    1    1    2    0    0 -0.78980445092E+02 -0.42985558857E+02  0.47890406543E+02  0.10187816261E+03  0.00000000000E+00 0.  1.
         16    1    5    5    0    0 -0.34317723383E+03  0.36788741523E+03 -0.23011908632E+03  0.55323282440E+03  0.00000000000E+00 0. -1.
    9900018    1    1    2    0    0 -0.14835011233E+02 -0.40550567567E+02  0.52773360934E+01  0.10103194920E+03  0.91187600000E+02 0.  0.
<mgrwt>
<rscale>  0 0.23559810E+04</rscale>
<asrwt>0</asrwt>
<pdfrwt beam="1">  1        2 0.18201498E+00 0.23559810E+04</pdfrwt>
<pdfrwt beam="2">  1       -2 0.18044703E+00 0.23559810E+04</pdfrwt>
<totfact> 0.31502576E+00</totfact>
</mgrwt>
</event>
<event>
12    1  0.5263089E-012  0.3339858E+04  0.7818608E-02  0.8152827E-01
          2   -1    0    0  501    0  0.00000000000E+00  0.00000000000E+00  0.91248737231E+03  0.91248737231E+03  0.00000000000E+00 0. -1.
         -2   -1    0    0    0  501 -0.00000000000E+00 -0.00000000000E+00 -0.30561110598E+04  0.30561110598E+04  0.00000000000E+00 0.  1.
    9900016    2    1    2    0    0  0.53890098354E+03 -0.48723300669E+03 -0.89568663989E+03  0.25245911095E+04  0.22457727936E+04 0.  0.
         23    2    3    3    0    0 -0.22472613483E+03 -0.12352066461E+03 -0.48662034966E+02  0.27605360684E+03  0.89879975191E+02 0.  0.
         24    2    3    3    0    0  0.12736450624E+03 -0.31323265632E+03  0.54548719641E+03  0.64644227750E+03  0.77426883322E+02 0.  0.
        -15    1    5    5    0    0  0.81448247022E+02 -0.13855957002E+03  0.19984036956E+03  0.25645417659E+03  0.00000000000E+00 0.  1.
        -15    1    4    4    0    0 -0.31529876836E+02 -0.38347813064E+00 -0.34167273335E+02  0.46493900202E+02  0.00000000000E+00 0.  1.
         15    1    4    4    0    0 -0.19319625800E+03 -0.12313718648E+03 -0.14494761631E+02  0.22955970664E+03  0.00000000000E+00 0. -1.
         15    1    3    3    0    0  0.61456651798E+03 -0.46722064021E+02 -0.13747918323E+04  0.15066278700E+04  0.00000000000E+00 0. -1.
        -16    1    1    2    0    0 -0.53890098354E+03  0.48723300669E+03 -0.12479370476E+04  0.14440073226E+04  0.00000000000E+00 0.  1.
         16    1    5    5    0    0  0.45916259213E+02 -0.17467308630E+03  0.34564682685E+03  0.38998810090E+03  0.00000000000E+00 0. -1.
    9900018    1    3    3    0    0  0.21696094158E+02 -0.37576217511E+01 -0.17719969003E+02  0.95467355249E+02  0.91187600000E+02 0.  0.
<mgrwt>
<rscale>  0 0.33398579E+04</rscale>
<asrwt>0</asrwt>
<pdfrwt beam="1">  1        2 0.14038267E+00 0.33398579E+04</pdfrwt>
<pdfrwt beam="2">  1       -2 0.47017093E+00 0.33398579E+04</pdfrwt>
<totfact> 0.61135137E-02</totfact>
</mgrwt>
</event>
<event>
12    1  0.5263089E-012  0.2730387E+04  0.7818608E-02  0.8325212E-01
          1   -1    0    0  501    0  0.00000000000E+00  0.00000000000E+00  0.92201049321E+03  0.92201049321E+03  0.00000000000E+00 0. -1.
         -1   -1    0    0    0  501 -0.00000000000E+00 -0.00000000000E+00 -0.20214017034E+04  0.20214017034E+04  0.00000000000E+00 0.  1.
    9900016    2    1    2    0    0 -0.24007607697E+03  0.35624717525E+03 -0.82239450759E+03  0.24322608043E+04  0.22483352333E+04 0.  0.
         23    2    3    3    0    0  0.40149923152E+03  0.64635226312E+02 -0.94976680903E+02  0.42741835377E+03  0.91030400570E+02 0.  0.
        -24    2    3    3    0    0  0.80009620194E+02  0.61074615137E+03 -0.85827140097E+03  0.10593572815E+04  0.78712460370E+02 0.  0.
        -15    1    3    3    0    0 -0.71646366822E+03 -0.33752516747E+03  0.21424109604E+03  0.82045272489E+03  0.00000000000E+00 0.  1.
        -15    1    4    4    0    0  0.18488434162E+03 -0.15703667726E+02 -0.47989349383E+02  0.19165542677E+03  0.00000000000E+00 0.  1.
         15    1    4    4    0    0  0.21661488991E+03  0.80338894038E+02 -0.46987331520E+02  0.23576292700E+03  0.00000000000E+00 0. -1.
         15    1    5    5    0    0  0.25357261715E+02  0.44954785335E+03 -0.60354591553E+03  0.75299663699E+03  0.00000000000E+00 0. -1.
        -16    1    5    5    0    0  0.54652358479E+02  0.16119829802E+03 -0.25472548544E+03  0.30636064451E+03  0.00000000000E+00 0.  1.
         16    1    1    2    0    0  0.24007607697E+03 -0.35624717525E+03 -0.27699670256E+03  0.51115139228E+03  0.00000000000E+00 0. -1.
    9900018    1    3    3    0    0 -0.51212604701E+01  0.18390965030E+02 -0.83387521759E+02  0.12503244412E+03  0.91187600000E+02 0.  0.
<mgrwt>
<rscale>  0 0.27303872E+04</rscale>
<asrwt>0</asrwt>
<pdfrwt beam="1">  1        1 0.14184777E+00 0.27303872E+04</pdfrwt>
<pdfrwt beam="2">  1       -1 0.31098488E+00 0.27303872E+04</pdfrwt>
<totfact> 0.42602332E-01</totfact>
</mgrwt>
</event>
<event>
12    1  0.5263089E-012  0.2713012E+04  0.7818608E-02  0.8330795E-01
          1   -1    0    0  501    0  0.00000000000E+00  0.00000000000E+00  0.10925228595E+04  0.10925228595E+04  0.00000000000E+00 0. -1.
         -1   -1    0    0    0  501 -0.00000000000E+00 -0.00000000000E+00 -0.16842745342E+04  0.16842745342E+04  0.00000000000E+00 0.  1.
    9900016    2    1    2    0    0 -0.19355447883E+03  0.33058512205E+02 -0.11744929106E+03  0.21711305174E+04  0.21590408023E+04 0.  0.
         23    2    3    3    0    0  0.22295101324E+02  0.24638596289E+03  0.10787646072E+03  0.28837951868E+03  0.10159872913E+03 0.  0.
         24    2    3    3    0    0 -0.27187346348E+03 -0.16415655908E+02  0.79396804151E+03  0.84310068856E+03  0.79049770412E+02 0.  0.
        -15    1    4    4    0    0  0.55944646460E+02  0.10602945350E+03  0.26834962465E+02  0.12285016764E+03  0.00000000000E+00 0. -1.
        -15    1    5    5    0    0 -0.14999072274E+03 -0.18633658069E+02  0.54975097452E+03  0.57014959800E+03  0.00000000000E+00 0.  1.
         15    1    4    4    0    0 -0.33649545136E+02  0.14035650939E+03  0.81041498256E+02  0.16552935104E+03  0.00000000000E+00 0.  1.
         15    1    3    3    0    0  0.56023883326E+02 -0.19691179478E+03 -0.10192937933E+04  0.10396503102E+04  0.00000000000E+00 0. -1.
        -16    1    1    2    0    0  0.18615330417E+03 -0.47017908110E+02 -0.47583190697E+03  0.51310792240E+03  0.00000000000E+00 0.  1.
         16    1    5    5    0    0 -0.12188274074E+03  0.22180021613E+01  0.24421706700E+03  0.27295109056E+03  0.00000000000E+00 0. -1.
    9900018    1    1    2    0    0  0.74011746592E+01  0.13959395904E+02  0.15295233230E+01  0.92558953947E+02  0.91187600000E+02 0.  0.
<mgrwt>
<rscale>  0 0.27130119E+04</rscale>
<asrwt>0</asrwt>
<pdfrwt beam="1">  1        1 0.16808044E+00 0.27130119E+04</pdfrwt>
<pdfrwt beam="2">  1       -1 0.25911916E+00 0.27130119E+04</pdfrwt>
<totfact> 0.68108024E-01</totfact>
</mgrwt>
</event>
<event>
12    1  0.5263089E-012  0.3113764E+04  0.7818608E-02  0.8211971E-01
          1   -1    0    0  501    0  0.00000000000E+00  0.00000000000E+00  0.18425018617E+04  0.18425018617E+04  0.00000000000E+00 0. -1.
         -1   -1    0    0    0  501 -0.00000000000E+00 -0.00000000000E+00 -0.13155381069E+04  0.13155381069E+04  0.00000000000E+00 0.  1.
    9900016    2    1    2    0    0  0.16038530643E+03 -0.35909820805E+03 -0.23511696161E+03  0.23004608247E+04  0.22543657758E+04 0.  0.
         23    2    3    3    0    0 -0.78324734108E+02  0.16809573417E+03  0.80045333926E+01  0.20512212119E+03  0.87293025082E+02 0.  0.
        -24    2    3    3    0    0  0.95765692828E+03 -0.13602728744E+03 -0.52769067371E+03  0.11047454032E+04  0.79967140175E+02 0.  0.
        -15    1    4    4    0    0 -0.98432736416E+01  0.88289713322E+02 -0.29295633441E+02  0.93542491164E+02  0.00000000000E+00 0.  1.
        -15    1    3    3    0    0 -0.72901743007E+03 -0.31301356325E+03  0.33337115715E+03  0.86056971394E+03  0.00000000000E+00 0.  1.
         15    1    5    5    0    0  0.44656998524E+03 -0.52426023053E+02 -0.20168083517E+03  0.49279650860E+03  0.00000000000E+00 0. -1.
         15    1    4    4    0    0 -0.68481460466E+02  0.79806020844E+02  0.37300166833E+02  0.11157963002E+03  0.00000000000E+00 0. -1.
        -16    1    5    5    0    0  0.51108694304E+03 -0.83601264390E+02 -0.32600983854E+03  0.61194889458E+03  0.00000000000E+00 0.  1.
         16    1    1    2    0    0 -0.16038530643E+03  0.35909820805E+03  0.76208071640E+03  0.85757914378E+03  0.00000000000E+00 0. -1.
    9900018    1    3    3    0    0  0.10070542326E+02 -0.78153091520E+02 -0.48801978438E+02  0.13002358644E+03  0.91187600000E+02 0.  0.
<mgrwt>
<rscale>  0 0.31137639E+04</rscale>
<asrwt>0</asrwt>
<pdfrwt beam="1">  1        1 0.28346182E+00 0.31137639E+04</pdfrwt>
<pdfrwt beam="2">  1       -1 0.20239048E+00 0.31137639E+04</pdfrwt>
<totfact> 0.46556467E-01</totfact>
</mgrwt>
</event>
<event>
12    1  0.5263089E-012  0.3108240E+04  0.7818608E-02  0.8213480E-01
         -2   -1    0    0    0  501 -0.00000000000E+00  0.00000000000E+00  0.82101783770E+03  0.82101783770E+03  0.00000000000E+00 0. -1.
          2   -1    0    0  501    0  0.00000000000E+00 -0.00000000000E+00 -0.29418218861E+04  0.29418218861E+04  0.00000000000E+00 0.  1.
    9900016    2    1    2    0    0  0.31827298955E+03 -0.18926606386E+03 -0.21862279860E+04  0.30885215842E+04  0.21499426576E+04 0.  0.
         23    2    3    3    0    0 -0.10192233776E+03  0.10173426806E+02 -0.12390032839E+03  0.18572699881E+03  0.93013790188E+02 0.  0.
        -24    2    3    3    0    0  0.22596114809E+03 -0.10880921804E+04 -0.93594121198E+03  0.14549765913E+04  0.77252154954E+02 0.  0.
        -15    1    4    4    0    0 -0.98444819295E+02  0.32749083772E+02 -0.12549704384E+03  0.16282933687E+03  0.00000000000E+00 0.  1.
        -15    1    3    3    0    0  0.19423417922E+03  0.88865268971E+03 -0.11263864456E+04  0.14478179941E+04  0.00000000000E+00 0.  1.
         15    1    5    5    0    0  0.14265506620E+03 -0.50828677011E+03 -0.46063089472E+03  0.70063309210E+03  0.00000000000E+00 0. -1.
         15    1    4    4    0    0 -0.34775184680E+01 -0.22575656967E+02  0.15967154489E+01  0.22897661942E+02  0.00000000000E+00 0. -1.
        -16    1    5    5    0    0  0.83306081894E+02 -0.57980541027E+03 -0.47531031727E+03  0.75434349918E+03  0.00000000000E+00 0.  1.
         16    1    1    2    0    0 -0.38274811787E+03  0.18411786467E+03  0.22409041249E+03  0.48022080629E+03  0.00000000000E+00 0. -1.
    9900018    1    1    2    0    0  0.64475128316E+02  0.51481991980E+01 -0.15866647488E+03  0.19409733324E+03  0.91187600000E+02 0.  0.
<mgrwt>
<rscale>  0 0.31082395E+04</rscale>
<asrwt>0</asrwt>
<pdfrwt beam="1">  1        2 0.45258798E+00 0.31082395E+04</pdfrwt>
<pdfrwt beam="2">  1       -2 0.12631044E+00 0.31082395E+04</pdfrwt>
<totfact> 0.74967368E-01</totfact>
</mgrwt>
</event>
<event>
12    1  0.5263089E-012  0.3263571E+04  0.7818608E-02  0.8172227E-01
         -2   -1    0    0    0  501 -0.00000000000E+00  0.00000000000E+00  0.10105687562E+04  0.10105687562E+04  0.00000000000E+00 0.  1.
          2   -1    0    0  501    0  0.00000000000E+00 -0.00000000000E+00 -0.26348773288E+04  0.26348773288E+04  0.00000000000E+00 0. -1.
    9900016    2    1    2    0    0  0.71928758053E+03  0.18303513426E+03 -0.80010190075E+03  0.24077036708E+04  0.21461587618E+04 0.  0.
         23    2    3    3    0    0 -0.15478285097E+03  0.16394739330E+03 -0.15833147520E+03  0.29018387407E+03  0.91111722686E+02 0.  0.
        -24    2    3    3    0    0 -0.40470563967E+03 -0.49068288510E+03 -0.22435663118E+03  0.67898978062E+03  0.78325447498E+02 0.  0.
        -15    1    4    4    0    0 -0.35473040143E+02  0.23113963722E+02 -0.78276364403E+02  0.88993152097E+02  0.00000000000E+00 0. -1.
        -15    1    3    3    0    0  0.12787760712E+04  0.50977062605E+03 -0.41741379437E+03  0.14385300161E+04  0.00000000000E+00 0.  1.
         15    1    4    4    0    0 -0.11930981082E+03  0.14083342958E+03 -0.80055110797E+02  0.20119072198E+03  0.00000000000E+00 0.  1.
         15    1    5    5    0    0 -0.87241773362E+02 -0.81526315841E+02 -0.14777133060E+02  0.12031637817E+03  0.00000000000E+00 0. -1.
        -16    1    5    5    0    0 -0.31746386630E+03 -0.40915656926E+03 -0.20957949812E+03  0.55867340245E+03  0.00000000000E+00 0.  1.
         16    1    1    2    0    0 -0.74871677625E+03 -0.15584873463E+03 -0.84101030750E+03  0.11367339075E+04  0.00000000000E+00 0. -1.
    9900018    1    1    2    0    0  0.29429195717E+02 -0.27186399631E+02  0.16803635659E+02  0.10100850682E+03  0.91187600000E+02 0.  0.
<mgrwt>
<rscale>  0 0.32635715E+04</rscale>
<asrwt>0</asrwt>
<pdfrwt beam="1">  1        2 0.40536574E+00 0.32635715E+04</pdfrwt>
<pdfrwt beam="2">  1       -2 0.15547212E+00 0.32635715E+04</pdfrwt>
<totfact> 0.66185416E-01</totfact>
</mgrwt>
</event>
<event>
12    1  0.5263089E-012  0.3041356E+04  0.7818608E-02  0.8232019E-01
         -2   -1    0    0    0  501 -0.00000000000E+00  0.00000000000E+00  0.11743226508E+04  0.11743226508E+04  0.00000000000E+00 0.  1.
          2   -1    0    0  501    0  0.00000000000E+00 -0.00000000000E+00 -0.19691874320E+04  0.19691874320E+04  0.00000000000E+00 0. -1.
    9900016    2    1    2    0    0 -0.66790007507E+02 -0.11259721224E+02  0.98857861301E+02  0.22472244987E+04  0.22440270463E+04 0.  0.
         23    2    3    3    0    0 -0.15194216812E+03  0.66253828953E+02 -0.71020080279E+02  0.20274925393E+03  0.92668311001E+02 0.  0.
        -24    2    3    3    0    0 -0.64285771406E+03 -0.67476965389E+03  0.29204078919E+03  0.98002160256E+03  0.81082628111E+02 0.  0.
        -15    1    4    4    0    0 -0.51252540091E+02  0.46026807338E+02 -0.72540163604E+02  0.10003681920E+03  0.00000000000E+00 0. -1.
        -15    1    3    3    0    0  0.74044645369E+03  0.59457904705E+03 -0.16338413861E+03  0.96357644778E+03  0.00000000000E+00 0.  1.
         15    1    4    4    0    0 -0.10068962803E+03  0.20227021615E+02  0.15200833256E+01  0.10271243473E+03  0.00000000000E+00 0.  1.
         15    1    5    5    0    0 -0.53907690002E+03 -0.52215801361E+03  0.22235712333E+03  0.78274873721E+03  0.00000000000E+00 0. -1.
        -16    1    5    5    0    0 -0.10378081404E+03 -0.15261164029E+03  0.69683665859E+02  0.19727286535E+03  0.00000000000E+00 0.  1.
         16    1    1    2    0    0  0.66790007507E+02  0.11259721224E+02 -0.89372264249E+03  0.89628558402E+03  0.00000000000E+00 0. -1.
    9900018    1    3    3    0    0 -0.12436579016E+02  0.26770566685E+01  0.41221291002E+02  0.10087719443E+03  0.91187600000E+02 0.  0.
<mgrwt>
<rscale>  0 0.30413559E+04</rscale>
<asrwt>0</asrwt>
<pdfrwt beam="1">  1        2 0.30295191E+00 0.30413559E+04</pdfrwt>
<pdfrwt beam="2">  1       -2 0.18066502E+00 0.30413559E+04</pdfrwt>
<totfact> 0.10639361E+00</totfact>
</mgrwt>
</event>
<event>
12    1  0.5263089E-012  0.2754274E+04  0.7818608E-02  0.8317607E-01
          1   -1    0    0  501    0  0.00000000000E+00  0.00000000000E+00  0.28320309503E+04  0.28320309503E+04  0.00000000000E+00 0. -1.
         -1   -1    0    0    0  501 -0.00000000000E+00 -0.00000000000E+00 -0.66966317482E+03  0.66966317482E+03  0.00000000000E+00 0.  1.
    9900016    2    1    2    0    0  0.12681325722E+03 -0.39457923964E+03  0.15562465336E+04  0.26849967331E+04  0.21483784128E+04 0.  0.
         23    2    3    3    0    0  0.10993840052E+03 -0.28778276724E+03 -0.10844483604E+03  0.34088594100E+03  0.97660479625E+02 0.  0.
        -24    2    3    3    0    0  0.64849531510E+03  0.37259486343E+03  0.40151106728E+03  0.85267358837E+03  0.80423909290E+02 0.  0.
        -15    1    3    3    0    0 -0.63162045840E+03 -0.47939133584E+03  0.12631803024E+04  0.14914372037E+04  0.00000000000E+00 0.  1.
        -15    1    4    4    0    0  0.28312992265E+02 -0.14097386191E+03 -0.95076779799E+02  0.17237995629E+03  0.00000000000E+00 0. -1.
         15    1    5    5    0    0  0.56285289800E+03  0.29743462630E+03  0.31951984397E+03  0.71229465279E+03  0.00000000000E+00 0. -1.
         15    1    4    4    0    0  0.81625408255E+02 -0.14680890533E+03 -0.13368056237E+02  0.16850598471E+03  0.00000000000E+00 0.  1.
        -16    1    5    5    0    0  0.85642417104E+02  0.75160237127E+02  0.81991223311E+02  0.14037893557E+03  0.00000000000E+00 0.  1.
         16    1    1    2    0    0 -0.13629704811E+03  0.38419628255E+03  0.59846328668E+03  0.72411461410E+03  0.00000000000E+00 0. -1.
    9900018    1    1    2    0    0  0.94837908933E+01  0.10382957094E+02  0.76579551276E+01  0.92582777870E+02  0.91187600000E+02 0.  0.
<mgrwt>
<rscale>  0 0.27542744E+04</rscale>
<asrwt>0</asrwt>
<pdfrwt beam="1">  1        1 0.43569706E+00 0.27542744E+04</pdfrwt>
<pdfrwt beam="2">  1       -1 0.10302511E+00 0.27542744E+04</pdfrwt>
<totfact> 0.61106399E-01</totfact>
</mgrwt>
</event>
<event>
12    1  0.5263089E-012  0.2699766E+04  0.7818608E-02  0.8335081E-01
          2   -1    0    0  501    0  0.00000000000E+00  0.00000000000E+00  0.12517399615E+04  0.12517399615E+04  0.00000000000E+00 0. -1.
         -2   -1    0    0    0  501 -0.00000000000E+00 -0.00000000000E+00 -0.14557213541E+04  0.14557213541E+04  0.00000000000E+00 0.  1.
    9900016    2    1    2    0    0  0.22753014125E+03  0.30959047062E+03 -0.16189334693E+03  0.22065806242E+04  0.21668346432E+04 0.  0.
         23    2    3    3    0    0 -0.27390606022E+03 -0.30289876169E+01  0.18436904061E+03  0.34254777548E+03  0.91177468459E+02 0.  0.
        -24    2    3    3    0    0 -0.56950352695E+03  0.26957055470E+03 -0.46218483594E+03  0.78597759782E+03  0.84518699294E+02 0.  0.
        -15    1    4    4    0    0 -0.13200980069E+03  0.40606362135E+02  0.68149270611E+02  0.15401229564E+03  0.00000000000E+00 0.  1.
        -15    1    3    3    0    0  0.10709397284E+04  0.43048903529E+02  0.11592244839E+03  0.10780552509E+04  0.00000000000E+00 0.  1.
         15    1    5    5    0    0 -0.42313806510E+03  0.16933849592E+03 -0.30017262525E+03  0.54573340863E+03  0.00000000000E+00 0. -1.
         15    1    4    4    0    0 -0.14189625954E+03 -0.43635349752E+02  0.11621977000E+03  0.18853547984E+03  0.00000000000E+00 0. -1.
        -16    1    5    5    0    0 -0.14636546185E+03  0.10023205879E+03 -0.16201221069E+03  0.24024418920E+03  0.00000000000E+00 0.  1.
         16    1    1    2    0    0 -0.24801050651E+03 -0.32012845521E+03 -0.30243022248E+02  0.40608629572E+03  0.00000000000E+00 0. -1.
    9900018    1    1    2    0    0  0.20480365265E+02  0.10537984594E+02 -0.11845023394E+02  0.94794395687E+02  0.91187600000E+02 0.  0.
<mgrwt>
<rscale>  0 0.26997664E+04</rscale>
<asrwt>0</asrwt>
<pdfrwt beam="1">  1        2 0.19257538E+00 0.26997664E+04</pdfrwt>
<pdfrwt beam="2">  1       -2 0.22395713E+00 0.26997664E+04</pdfrwt>
<totfact> 0.14444408E+00</totfact>
</mgrwt>
</event>
<event>
12    1  0.5263089E-012  0.4129236E+04  0.7818608E-02  0.7978971E-01
          2   -1    0    0  501    0  0.00000000000E+00  0.00000000000E+00  0.21210462314E+04  0.21210462314E+04  0.00000000000E+00 0.  1.
         -2   -1    0    0    0  501 -0.00000000000E+00 -0.00000000000E+00 -0.20096908510E+04  0.20096908510E+04  0.00000000000E+00 0. -1.
    9900016    2    1    2    0    0 -0.12992937120E+04 -0.49244311618E+02 -0.55225788244E+03  0.25685262298E+04  0.21451687748E+04 0.  0.
         23    2    3    3    0    0  0.21805483165E+03 -0.40560091513E+02  0.99894311271E+02  0.26051885085E+03  0.93263967283E+02 0.  0.
         24    2    3    3    0    0 -0.70389631863E+03  0.55889991336E+02 -0.11501947403E+04  0.13520153658E+04  0.80024311195E+02 0.  0.
        -15    1    4    4    0    0  0.83723462755E+02 -0.26878732869E+02  0.88907210630E+02  0.12504629782E+03  0.00000000000E+00 0.  1.
        -15    1    5    5    0    0 -0.12068194831E+03 -0.15349933158E+02 -0.23116557468E+03  0.26122265601E+03  0.00000000000E+00 0.  1.
         15    1    3    3    0    0 -0.81345222498E+03 -0.64574211440E+02  0.49804254654E+03  0.95599201318E+03  0.00000000000E+00 0. -1.
         15    1    4    4    0    0  0.13433136889E+03 -0.13681358643E+02  0.10987100640E+02  0.13547255303E+03  0.00000000000E+00 0. -1.
        -16    1    1    2    0    0  0.13006342543E+04  0.13392739981E+02  0.67167067316E+03  0.14638887670E+04  0.00000000000E+00 0.  1.
         16    1    5    5    0    0 -0.58321437032E+03  0.71239924494E+02 -0.91902916557E+03  0.10907927098E+04  0.00000000000E+00 0. -1.
    9900018    1    1    2    0    0 -0.13405423701E+01  0.35851571636E+02 -0.80574103557E+01  0.98322085505E+02  0.91187600000E+02 0.  0.
<mgrwt>
<rscale>  0 0.41292359E+04</rscale>
<asrwt>0</asrwt>
<pdfrwt beam="1">  1        2 0.32631480E+00 0.41292359E+04</pdfrwt>
<pdfrwt beam="2">  1       -2 0.30918321E+00 0.41292359E+04</pdfrwt>
<totfact> 0.12463576E-01</totfact>
</mgrwt>
</event>
<event>
12    1  0.5263089E-012  0.3353198E+04  0.7818608E-02  0.8149490E-01
          2   -1    0    0  501    0  0.00000000000E+00  0.00000000000E+00  0.17073677005E+04  0.17073677005E+04  0.00000000000E+00 0. -1.
         -2   -1    0    0    0  501 -0.00000000000E+00 -0.00000000000E+00 -0.16463848445E+04  0.16463848445E+04  0.00000000000E+00 0.  1.
    9900016    2    1    2    0    0 -0.14548201127E+03  0.77115694006E+03 -0.21856590863E+03  0.23015779978E+04  0.21525896454E+04 0.  0.
         23    2    3    3    0    0 -0.93873471664E+01  0.73839744399E+02 -0.23472668669E+03  0.26272698080E+03  0.91588311789E+02 0.  0.
        -24    2    3    3    0    0  0.34206522832E+03 -0.36418758650E+03  0.55912291783E+03  0.75423544394E+03  0.81310817733E+02 0.  0.
        -15    1    3    3    0    0 -0.47815989242E+03  0.10615047822E+04 -0.54296213977E+03  0.12846155730E+04  0.00000000000E+00 0.  1.
        -15    1    4    4    0    0  0.26407789395E+02  0.62838132202E+02 -0.88075277655E+02  0.11136990946E+03  0.00000000000E+00 0.  1.
         15    1    5    5    0    0  0.60762519441E+02 -0.84568377944E+02  0.74734859562E+02  0.12817641574E+03  0.00000000000E+00 0. -1.
         15    1    4    4    0    0 -0.35795136562E+02  0.11001612197E+02 -0.14665140904E+03  0.15135707134E+03  0.00000000000E+00 0. -1.
        -16    1    5    5    0    0  0.28130270888E+03 -0.27961920855E+03  0.48438805826E+03  0.62605902821E+03  0.00000000000E+00 0.  1.
         16    1    1    2    0    0  0.12974463948E+03 -0.85019094859E+03  0.32900426833E+03  0.92081601263E+03  0.00000000000E+00 0. -1.
    9900018    1    1    2    0    0  0.15737371783E+02  0.79034008528E+02 -0.49455503652E+02  0.13135853459E+03  0.91187600000E+02 0.  0.
<mgrwt>
<rscale>  0 0.33531981E+04</rscale>
<asrwt>0</asrwt>
<pdfrwt beam="1">  1        2 0.26267196E+00 0.33531981E+04</pdfrwt>
<pdfrwt beam="2">  1       -2 0.25328997E+00 0.33531981E+04</pdfrwt>
<totfact> 0.49554528E-01</totfact>
</mgrwt>
</event>
<event>
12    1  0.5263089E-012  0.2810889E+04  0.7818608E-02  0.8299896E-01
          2   -1    0    0  501    0  0.00000000000E+00  0.00000000000E+00  0.18675542947E+04  0.18675542947E+04  0.00000000000E+00 0. -1.
         -2   -1    0    0    0  501 -0.00000000000E+00 -0.00000000000E+00 -0.10576796902E+04  0.10576796902E+04  0.00000000000E+00 0.  1.
    9900016    2    1    2    0    0  0.14096662834E+03 -0.45270279908E+03  0.85883289666E+03  0.24485702365E+04  0.22434551131E+04 0.  0.
         23    2    3    3    0    0  0.62929734499E+02 -0.14819953508E+03 -0.23554900370E+03  0.29974801374E+03  0.91881907439E+02 0.  0.
        -24    2    3    3    0    0 -0.19483948377E+03 -0.85539672445E+03  0.10576508515E+04  0.13765230167E+04  0.80773208153E+02 0.  0.
        -15    1    4    4    0    0  0.30080675714E+02 -0.13689990719E+03 -0.14011579749E+03  0.19818897131E+03  0.00000000000E+00 0.  1.
        -15    1    3    3    0    0  0.28534446854E+03  0.59415122883E+03 -0.12670027600E+02  0.65924022787E+03  0.00000000000E+00 0.  1.
         15    1    5    5    0    0 -0.14998821378E+03 -0.75892096851E+03  0.95051772325E+03  0.12255372059E+04  0.00000000000E+00 0. -1.
         15    1    4    4    0    0  0.32849058784E+02 -0.11299627893E+02 -0.95433206203E+02  0.10155904243E+03  0.00000000000E+00 0. -1.
        -16    1    5    5    0    0 -0.44851269991E+02 -0.96475755933E+02  0.10713312821E+03  0.15098581080E+03  0.00000000000E+00 0.  1.
         16    1    1    2    0    0 -0.14096662834E+03  0.45270279908E+03 -0.48958292219E+02  0.47666374834E+03  0.00000000000E+00 0. -1.
    9900018    1    3    3    0    0 -0.12468090928E+02 -0.43257768382E+02  0.49401076499E+02  0.11305897828E+03  0.91187600000E+02 0.  0.
<mgrwt>
<rscale>  0 0.28108890E+04</rscale>
<asrwt>0</asrwt>
<pdfrwt beam="1">  1        2 0.28731605E+00 0.28108890E+04</pdfrwt>
<pdfrwt beam="2">  1       -2 0.16271995E+00 0.28108890E+04</pdfrwt>
<totfact> 0.16554468E+00</totfact>
</mgrwt>
</event>
<event>
12    1  0.5263089E-012  0.2355179E+04  0.7818608E-02  0.8456477E-01
          2   -1    0    0  501    0  0.00000000000E+00  0.00000000000E+00  0.16707563336E+04  0.16707563336E+04  0.00000000000E+00 0. -1.
         -2   -1    0    0    0  501 -0.00000000000E+00 -0.00000000000E+00 -0.82999325153E+03  0.82999325153E+03  0.00000000000E+00 0.  1.
    9900016    2    1    2    0    0  0.98282235224E+02 -0.25109537129E+02  0.76519350398E+03  0.23742559183E+04  0.22452795328E+04 0.  0.
         23    2    3    3    0    0 -0.65824184128E+02  0.50318869177E+03  0.43240352526E+03  0.67291731180E+03  0.91176845350E+02 0.  0.
        -24    2    3    3    0    0 -0.59866533900E+03 -0.40035225166E+03 -0.57332474986E+02  0.72689471195E+03  0.80042463944E+02 0.  0.
        -15    1    3    3    0    0  0.78320809012E+03 -0.10626453135E+03  0.38287965195E+03  0.87823908529E+03  0.00000000000E+00 0.  1.
        -15    1    4    4    0    0 -0.88889800284E+02  0.38048659008E+03  0.33011799283E+03  0.51151669671E+03  0.00000000000E+00 0. -1.
         15    1    5    5    0    0 -0.32427542242E+03 -0.23605804435E+03  0.46731095761E+01  0.40112315795E+03  0.00000000000E+00 0. -1.
         15    1    4    4    0    0  0.23065616156E+02  0.12270210169E+03  0.10228553243E+03  0.16140061509E+03  0.00000000000E+00 0.  1.
        -16    1    5    5    0    0 -0.27438991659E+03 -0.16429420731E+03 -0.62005584562E+02  0.32577155400E+03  0.00000000000E+00 0.  1.
         16    1    1    2    0    0 -0.98282235224E+02  0.25109537129E+02  0.75569578065E+02  0.12649366682E+03  0.00000000000E+00 0. -1.
    9900018    1    3    3    0    0 -0.20436331764E+02 -0.21681445885E+02  0.72428017578E+01  0.96204809249E+02  0.91187600000E+02 0.  0.
<mgrwt>
<rscale>  0 0.23551785E+04</rscale>
<asrwt>0</asrwt>
<pdfrwt beam="1">  1        2 0.25703943E+00 0.23551785E+04</pdfrwt>
<pdfrwt beam="2">  1       -2 0.12769127E+00 0.23551785E+04</pdfrwt>
<totfact> 0.41766099E+00</totfact>
</mgrwt>
</event>
<event>
12    1  0.5263089E-012  0.2521729E+04  0.7818608E-02  0.8395285E-01
          1   -1    0    0  501    0  0.00000000000E+00  0.00000000000E+00  0.17972773500E+04  0.17972773500E+04  0.00000000000E+00 0. -1.
         -1   -1    0    0    0  501 -0.00000000000E+00 -0.00000000000E+00 -0.88454863100E+03  0.88454863100E+03  0.00000000000E+00 0.  1.
    9900016    2    1    2    0    0  0.20787500132E+03  0.70562801319E+02  0.90724261384E+03  0.23422504814E+04  0.21482218303E+04 0.  0.
         23    2    3    3    0    0 -0.12480640066E+03  0.29509533044E+02  0.30909889534E+03  0.34681552508E+03  0.91057296004E+02 0.  0.
        -24    2    3    3    0    0 -0.73797808629E+03  0.28606244569E+03  0.15154762719E+03  0.80977509551E+03  0.79533913125E+02 0.  0.
        -15    1    4    4    0    0 -0.58259978385E+02 -0.26431909092E+02  0.18124606322E+03  0.19220563553E+03  0.00000000000E+00 0.  1.
        -15    1    3    3    0    0  0.10706594883E+04 -0.24500917741E+03  0.44659609131E+03  0.11856598608E+04  0.00000000000E+00 0.  1.
         15    1    5    5    0    0 -0.26477469142E+03  0.12514072602E+03  0.88857951905E+02  0.30604178496E+03  0.00000000000E+00 0. -1.
         15    1    4    4    0    0 -0.66546422272E+02  0.55941442136E+02  0.12785283212E+03  0.15460988955E+03  0.00000000000E+00 0. -1.
        -16    1    5    5    0    0 -0.47320339486E+03  0.16092171966E+03  0.62689675288E+02  0.50373331055E+03  0.00000000000E+00 0.  1.
         16    1    1    2    0    0 -0.21469176162E+03 -0.17456535745E+02 -0.48580294027E+02  0.22081061594E+03  0.00000000000E+00 0. -1.
    9900018    1    1    2    0    0  0.68167602918E+01 -0.53106265575E+02  0.54066399162E+02  0.11876488360E+03  0.91187600000E+02 0.  0.
<mgrwt>
<rscale>  0 0.25217289E+04</rscale>
<asrwt>0</asrwt>
<pdfrwt beam="1">  1        1 0.27650421E+00 0.25217289E+04</pdfrwt>
<pdfrwt beam="2">  1       -1 0.13608441E+00 0.25217289E+04</pdfrwt>
<totfact> 0.16370756E+00</totfact>
</mgrwt>
</event>
<event>
12    1  0.5263089E-012  0.2325441E+04  0.7818608E-02  0.8467957E-01
          2   -1    0    0  501    0  0.00000000000E+00  0.00000000000E+00  0.22688226640E+04  0.22688226640E+04  0.00000000000E+00 0. -1.
         -2   -1    0    0    0  501 -0.00000000000E+00 -0.00000000000E+00 -0.59586780853E+03  0.59586780853E+03  0.00000000000E+00 0.  1.
    9900016    2    1    2    0    0 -0.25322049239E+02  0.25782932693E+02  0.15444043406E+04  0.26515279437E+04  0.21550196526E+04 0.  0.
         23    2    3    3    0    0 -0.16046558928E+03  0.25265980357E+03 -0.21762631679E+03  0.38123624199E+03  0.91617011318E+02 0.  0.
        -24    2    3    3    0    0 -0.46751221574E+03 -0.11473086748E+03  0.99319176825E+02  0.49817992368E+03  0.81167072473E+02 0.  0.
        -15    1    3    3    0    0  0.60265575578E+03 -0.11214600340E+03  0.16627114806E+04  0.17721117780E+04  0.00000000000E+00 0.  1.
        -15    1    4    4    0    0 -0.86111643898E+02  0.18277436264E+03 -0.99742472511E+02  0.22532253255E+03  0.00000000000E+00 0. -1.
         15    1    5    5    0    0 -0.26303973738E+03 -0.60549954710E+02  0.14591536403E+02  0.27031299153E+03  0.00000000000E+00 0. -1.
         15    1    4    4    0    0 -0.74353945380E+02  0.69885440932E+02 -0.11788384428E+03  0.15591370944E+03  0.00000000000E+00 0.  1.
        -16    1    5    5    0    0 -0.20447247837E+03 -0.54180912774E+02  0.84727640422E+02  0.22786693215E+03  0.00000000000E+00 0.  1.
         16    1    1    2    0    0  0.61198081875E+02 -0.13239550569E+02  0.84057324167E+02  0.10481471591E+03  0.00000000000E+00 0. -1.
    9900018    1    1    2    0    0 -0.35876032636E+02 -0.12543382125E+02  0.44493190646E+02  0.10834781290E+03  0.91187600000E+02 0.  0.
<mgrwt>
<rscale>  0 0.23254405E+04</rscale>
<asrwt>0</asrwt>
<pdfrwt beam="1">  1        2 0.34904964E+00 0.23254405E+04</pdfrwt>
<pdfrwt beam="2">  1       -2 0.91671972E-01 0.23254405E+04</pdfrwt>
<totfact> 0.43258860E+00</totfact>
</mgrwt>
</event>
<event>
12    1  0.5263089E-012  0.2556824E+04  0.7818608E-02  0.8383017E-01
          1   -1    0    0  501    0  0.00000000000E+00  0.00000000000E+00  0.57702514627E+03  0.57702514627E+03  0.00000000000E+00 0. -1.
         -1   -1    0    0    0  501 -0.00000000000E+00 -0.00000000000E+00 -0.28323495403E+04  0.28323495403E+04  0.00000000000E+00 0.  1.
    9900016    2    1    2    0    0 -0.18227684172E+02  0.14986675122E+03 -0.22260071007E+04  0.31000679919E+04  0.21523293545E+04 0.  0.
         23    2    3    3    0    0  0.51026382142E+02  0.24149973413E+03 -0.31452637652E+03  0.41127653292E+03  0.96414375207E+02 0.  0.
        -24    2    3    3    0    0  0.46389609686E+03 -0.60739885272E+03 -0.17759036837E+04  0.19347061436E+04  0.71561256799E+02 0.  0.
        -15    1    4    4    0    0  0.47926544170E+01  0.39997396453E+02 -0.12309927871E+03  0.12952294653E+03  0.00000000000E+00 0.  1.
        -15    1    3    3    0    0 -0.53315016317E+03  0.51576586981E+03 -0.13557704052E+03  0.75408531538E+03  0.00000000000E+00 0.  1.
         15    1    4    4    0    0  0.46233727725E+02  0.20150233768E+03 -0.19142709781E+03  0.28175358639E+03  0.00000000000E+00 0. -1.
         15    1    5    5    0    0  0.31231012256E+02 -0.56746087848E+02 -0.11100402385E+03  0.12851999036E+03  0.00000000000E+00 0. -1.
        -16    1    5    5    0    0  0.43266508460E+03 -0.55065276487E+03 -0.16648996598E+04  0.18061861532E+04  0.00000000000E+00 0.  1.
         16    1    1    2    0    0 -0.14879656596E+02 -0.11018081304E+03  0.95324636304E+02  0.14645136404E+03  0.00000000000E+00 0. -1.
    9900018    1    1    2    0    0  0.33107340769E+02 -0.39685938185E+02 -0.12464192964E+03  0.16285533065E+03  0.91187600000E+02 0.  0.
<mgrwt>
<rscale>  0 0.25568237E+04</rscale>
<asrwt>0</asrwt>
<pdfrwt beam="1">  1        1 0.88773099E-01 0.25568237E+04</pdfrwt>
<pdfrwt beam="2">  1       -1 0.43574608E+00 0.25568237E+04</pdfrwt>
<totfact> 0.12992872E-01</totfact>
</mgrwt>
</event>
<event>
12    1  0.5263089E-012  0.3283145E+04  0.7818608E-02  0.8167197E-01
         -1   -1    0    0    0  501 -0.00000000000E+00  0.00000000000E+00  0.23451159753E+04  0.23451159753E+04  0.00000000000E+00 0. -1.
          1   -1    0    0  501    0  0.00000000000E+00 -0.00000000000E+00 -0.11490948764E+04  0.11490948764E+04  0.00000000000E+00 0.  1.
    9900016    2    1    2    0    0  0.83114147754E+03  0.26737103061E+03  0.89192251111E+03  0.25696788756E+04  0.22462057640E+04 0.  0.
         23    2    3    3    0    0  0.67698623785E+01  0.40501362700E+03 -0.22493771253E+03  0.47230059691E+03  0.91591540147E+02 0.  0.
        -24    2    3    3    0    0  0.88289669742E+03  0.49915011856E+03  0.77237745248E+03  0.12773771468E+04  0.80424044799E+02 0.  0.
        -15    1    4    4    0    0 -0.37488277100E+02  0.25964508462E+03 -0.15809532090E+03  0.30629246053E+03  0.00000000000E+00 0.  1.
        -15    1    3    3    0    0 -0.93972987586E+02 -0.63850782993E+03  0.28520071400E+03  0.70559380563E+03  0.00000000000E+00 0.  1.
         15    1    4    4    0    0  0.44258139478E+02  0.14536854238E+03 -0.66842391626E+02  0.16600813638E+03  0.00000000000E+00 0. -1.
         15    1    5    5    0    0  0.54503528965E+03  0.33478340085E+03  0.44706452131E+03  0.78039097808E+03  0.00000000000E+00 0. -1.
        -16    1    5    5    0    0  0.33786140777E+03  0.16436671771E+03  0.32531293116E+03  0.49698616875E+03  0.00000000000E+00 0.  1.
         16    1    1    2    0    0 -0.83114147754E+03 -0.26737103061E+03  0.30409858778E+03  0.92453197607E+03  0.00000000000E+00 0. -1.
    9900018    1    3    3    0    0  0.35447905328E+02  0.17151149691E+01  0.59282057159E+02  0.11440732628E+03  0.91187600000E+02 0.  0.
<mgrwt>
<rscale>  0 0.32831453E+04</rscale>
<asrwt>0</asrwt>
<pdfrwt beam="1">  1        1 0.17678383E+00 0.32831453E+04</pdfrwt>
<pdfrwt beam="2">  1       -1 0.36078707E+00 0.32831453E+04</pdfrwt>
<totfact> 0.12741217E-01</totfact>
</mgrwt>
</event>
<event>
12    1  0.5263089E-012  0.2773765E+04  0.7818608E-02  0.8311460E-01
          2   -1    0    0  501    0  0.00000000000E+00  0.00000000000E+00  0.25738882992E+04  0.25738882992E+04  0.00000000000E+00 0. -1.
         -2   -1    0    0    0  501 -0.00000000000E+00 -0.00000000000E+00 -0.74729107226E+03  0.74729107226E+03  0.00000000000E+00 0.  1.
    9900016    2    1    2    0    0  0.10423531812E+03  0.68815828882E+02  0.95101175664E+03  0.23626432026E+04  0.21591801503E+04 0.  0.
         23    2    3    3    0    0 -0.70796719697E+02  0.59215136123E+02  0.34864186455E+03  0.37220356749E+03  0.92009445563E+02 0.  0.
        -24    2    3    3    0    0 -0.65060771759E+03 -0.57252656077E+03  0.14827435610E+03  0.88284950292E+03  0.79755220248E+02 0.  0.
        -15    1    3    3    0    0  0.82563975541E+03  0.58212725353E+03  0.45409553598E+03  0.11075901321E+04  0.00000000000E+00 0.  1.
        -15    1    4    4    0    0 -0.84633164388E+02  0.65928483614E+02  0.33460122200E+03  0.35137916164E+03  0.00000000000E+00 0. -1.
         15    1    5    5    0    0 -0.23443900199E+03 -0.19687560722E+03  0.90557687940E+02  0.31925279203E+03  0.00000000000E+00 0. -1.
         15    1    4    4    0    0  0.13836444691E+02 -0.67133474908E+01  0.14040642545E+02  0.20824405857E+02  0.00000000000E+00 0.  1.
        -16    1    5    5    0    0 -0.41616871560E+03 -0.37565095355E+03  0.57716668163E+02  0.56359671089E+03  0.00000000000E+00 0.  1.
         16    1    1    2    0    0 -0.10857961897E+03 -0.43202941205E+02  0.85313141762E+03  0.86109769684E+03  0.00000000000E+00 0. -1.
    9900018    1    1    2    0    0  0.43443008492E+01 -0.25612887677E+02  0.22454052706E+02  0.97438472082E+02  0.91187600000E+02 0.  0.
<mgrwt>
<rscale>  0 0.27737655E+04</rscale>
<asrwt>0</asrwt>
<pdfrwt beam="1">  1        2 0.39598281E+00 0.27737655E+04</pdfrwt>
<pdfrwt beam="2">  1       -2 0.11496786E+00 0.27737655E+04</pdfrwt>
<totfact> 0.16216408E+00</totfact>
</mgrwt>
</event>
<event>
12    1  0.5263089E-012  0.3176306E+04  0.7818608E-02  0.8195103E-01
          2   -1    0    0  501    0  0.00000000000E+00  0.00000000000E+00  0.18177116865E+04  0.18177116865E+04  0.00000000000E+00 0. -1.
         -2   -1    0    0    0  501 -0.00000000000E+00 -0.00000000000E+00 -0.13875851082E+04  0.13875851082E+04  0.00000000000E+00 0.  1.
    9900016    2    1    2    0    0  0.22583021490E+03 -0.72773461670E+03  0.54780611538E+03  0.24342939207E+04  0.22461296477E+04 0.  0.
         23    2    3    3    0    0 -0.19666957343E+03 -0.32669803858E+03  0.45420524780E+03  0.60020688471E+03  0.92387054305E+02 0.  0.
        -24    2    3    3    0    0  0.26865411934E+03  0.62874115544E+03 -0.14230522769E+03  0.70304319928E+03  0.80799046053E+02 0.  0.
        -15    1    3    3    0    0  0.15375717867E+03 -0.97486698013E+03  0.15881266508E+03  0.99961410631E+03  0.00000000000E+00 0.  1.
        -15    1    4    4    0    0 -0.85585273513E+02 -0.22615464710E+03  0.26253730929E+03  0.35692660621E+03  0.00000000000E+00 0. -1.
         15    1    4    4    0    0 -0.11108429991E+03 -0.10054339147E+03  0.19166793851E+03  0.24328027851E+03  0.00000000000E+00 0.  1.
         15    1    5    5    0    0  0.19510530920E+03  0.47685964200E+03 -0.14143156033E+03  0.53428839226E+03  0.00000000000E+00 0. -1.
        -16    1    5    5    0    0  0.73548810140E+02  0.15188151344E+03 -0.87366736389E+00  0.16875480702E+03  0.00000000000E+00 0.  1.
         16    1    1    2    0    0 -0.22583021490E+03  0.72773461670E+03 -0.11767953708E+03  0.77100287402E+03  0.00000000000E+00 0. -1.
    9900018    1    3    3    0    0  0.88490316704E-01 -0.54910753425E+02  0.77093430193E+02  0.13142973045E+03  0.91187600000E+02 0.  0.
<mgrwt>
<rscale>  0 0.31763058E+04</rscale>
<asrwt>0</asrwt>
<pdfrwt beam="1">  1        2 0.27964795E+00 0.31763058E+04</pdfrwt>
<pdfrwt beam="2">  1       -2 0.21347463E+00 0.31763058E+04</pdfrwt>
<totfact> 0.77419911E-01</totfact>
</mgrwt>
</event>
<event>
12    1  0.5263089E-012  0.3160422E+04  0.7818608E-02  0.8199348E-01
         -1   -1    0    0    0  501 -0.00000000000E+00  0.00000000000E+00  0.14678751998E+04  0.14678751998E+04  0.00000000000E+00 0.  1.
          1   -1    0    0  501    0  0.00000000000E+00 -0.00000000000E+00 -0.17011442698E+04  0.17011442698E+04  0.00000000000E+00 0. -1.
    9900016    2    1    2    0    0 -0.38429636327E+03  0.68699895510E+03 -0.18380626467E+03  0.23802876848E+04  0.22388241245E+04 0.  0.
         23    2    3    3    0    0 -0.49046890190E+02 -0.89388468137E+02  0.38876641330E+03  0.41314291075E+03  0.95665275416E+02 0.  0.
         24    2    3    3    0    0 -0.63482257936E+03  0.33866063968E+03 -0.95216404405E+03  0.11960726601E+04  0.79263518667E+02 0.  0.
        -15    1    4    4    0    0 -0.71660046395E+02 -0.65110333288E+02  0.34434903070E+03  0.35770207253E+03  0.00000000000E+00 0.  1.
        -15    1    5    5    0    0 -0.24239915172E+03  0.14246668249E+03 -0.31204670160E+03  0.42003243726E+03  0.00000000000E+00 0.  1.
         15    1    3    3    0    0  0.32759396920E+03  0.41777933591E+03  0.40798767605E+03  0.66956054691E+03  0.00000000000E+00 0. -1.
         15    1    4    4    0    0  0.22613156205E+02 -0.24278134850E+02  0.44417382601E+02  0.55440838219E+02  0.00000000000E+00 0. -1.
        -16    1    1    2    0    0  0.38429636327E+03 -0.68699895510E+03 -0.49462805292E+02  0.78873178473E+03  0.00000000000E+00 0.  1.
         16    1    5    5    0    0 -0.39242342764E+03  0.19619395719E+03 -0.64011734245E+03  0.77604022287E+03  0.00000000000E+00 0. -1.
    9900018    1    3    3    0    0 -0.28020862915E+02  0.19947447642E+02 -0.28396309977E+02  0.10151156703E+03  0.91187600000E+02 0.  0.
<mgrwt>
<rscale>  0 0.31604224E+04</rscale>
<asrwt>0</asrwt>
<pdfrwt beam="1">  1        1 0.26171450E+00 0.31604224E+04</pdfrwt>
<pdfrwt beam="2">  1       -1 0.22582695E+00 0.31604224E+04</pdfrwt>
<totfact> 0.40185984E-01</totfact>
</mgrwt>
</event>
<event>
12    1  0.5263089E-012  0.2392801E+04  0.7818608E-02  0.8442204E-01
         -2   -1    0    0    0  501 -0.00000000000E+00  0.00000000000E+00  0.73672349341E+03  0.73672349341E+03  0.00000000000E+00 0.  1.
          2   -1    0    0  501    0  0.00000000000E+00 -0.00000000000E+00 -0.19428924430E+04  0.19428924430E+04  0.00000000000E+00 0. -1.
    9900016    2    1    2    0    0 -0.11124599250E+03 -0.38449415883E+02 -0.10109961968E+04  0.23809609748E+04  0.21524422931E+04 0.  0.
         23    2    3    3    0    0 -0.14092836918E+02  0.55248031410E+02 -0.70365609715E+02  0.12829359839E+03  0.90867900435E+02 0.  0.
        -24    2    3    3    0    0 -0.95128898480E+02 -0.64234552730E+03 -0.13947091127E+04  0.15404833266E+04  0.78854844720E+02 0.  0.
        -15    1    4    4    0    0  0.43055223272E+01 -0.22208646103E+02 -0.90638635852E+00  0.22640296387E+02  0.00000000000E+00 0.  1.
        -15    1    3    3    0    0 -0.20242570997E+01  0.54864808000E+03  0.45407852568E+03  0.71218404981E+03  0.00000000000E+00 0.  1.
         15    1    4    4    0    0 -0.18398359245E+02  0.77456677513E+02 -0.69459223356E+02  0.10565330200E+03  0.00000000000E+00 0. -1.
         15    1    5    5    0    0 -0.39577745291E+02 -0.94085283283E+02 -0.25011020305E+03  0.27013617329E+03  0.00000000000E+00 0. -1.
        -16    1    5    5    0    0 -0.55551153189E+02 -0.54826024401E+03 -0.11445989097E+04  0.12703471533E+04  0.00000000000E+00 0.  1.
         16    1    1    2    0    0  0.93917079976E+02  0.72502418950E+02 -0.14630872688E+03  0.18837001413E+03  0.00000000000E+00 0. -1.
    9900018    1    1    2    0    0  0.17328912521E+02 -0.34053003066E+02 -0.48864025985E+02  0.11028494755E+03  0.91187600000E+02 0.  0.
<mgrwt>
<rscale>  0 0.23928013E+04</rscale>
<asrwt>0</asrwt>
<pdfrwt beam="1">  1        2 0.29890652E+00 0.23928013E+04</pdfrwt>
<pdfrwt beam="2">  1       -2 0.11334208E+00 0.23928013E+04</pdfrwt>
<totfact> 0.39511820E+00</totfact>
</mgrwt>
</event>
