<event>
12    1  0.3997441E-011  0.1261743E+04  0.7818608E-02  0.9060466E-01
          2   -1    0    0  501    0  0.00000000000E+00  0.00000000000E+00  0.33967031402E+03  0.33967031402E+03  0.00000000000E+00 0. -1.
         -2   -1    0    0    0  501 -0.00000000000E+00 -0.00000000000E+00 -0.11717202329E+04  0.11717202329E+04  0.00000000000E+00 0.  1.
    9900016    2    1    2    0    0 -0.11422522514E+03  0.12518154257E+03 -0.25230783118E+03  0.79510025743E+03  0.73471583420E+03 0.  0.
         23    2    3    3    0    0  0.18320472516E+03  0.15901199473E+03 -0.24025764962E+03  0.34981372715E+03  0.76138818717E+02 0.  0.
         23    2    3    3    0    0 -0.20291795813E+02  0.54265722722E+02 -0.93814185427E+02  0.14320732703E+03  0.91382227421E+02 0.  0.
        -15    1    4    4    0    0  0.66168319529E+02  0.82070562123E+02 -0.59207345743E+02  0.12091043572E+03  0.00000000000E+00 0.  1.
        -15    1    5    5    0    0 -0.26938122552E+02 -0.15884772735E+02 -0.53651678460E+02  0.62100652598E+02  0.00000000000E+00 0. -1.
         15    1    4    4    0    0  0.11703640563E+03  0.76941432604E+02 -0.18105030388E+03  0.22890329143E+03  0.00000000000E+00 0. -1.
         15    1    5    5    0    0  0.66463267384E+01  0.70150495457E+02 -0.40162506967E+02  0.81106674434E+02  0.00000000000E+00 0.  1.
        -16    1    3    3    0    0 -0.27713815449E+03 -0.88096174880E+02  0.81764003867E+02  0.30207920324E+03  0.00000000000E+00 0.  1.
         16    1    1    2    0    0  0.20980379227E+03 -0.11686113451E+02 -0.45768837094E+03  0.50361973888E+03  0.00000000000E+00 0. -1.
    9900018    1    1    2    0    0 -0.95578567137E+02 -0.11349542912E+03 -0.12205371677E+03  0.21267055061E+03  0.91187600000E+02 0.  0.
<mgrwt>
<rscale>  0 0.12617426E+04</rscale>
<asrwt>0</asrwt>
<pdfrwt beam="1">  1        2 0.52256971E-01 0.12617426E+04</pdfrwt>
<pdfrwt beam="2">  1       -2 0.18026465E+00 0.12617426E+04</pdfrwt>
<totfact> 0.16937752E+01</totfact>
</mgrwt>
</event>
<event>
12    1  0.3997441E-011  0.1229277E+04  0.7818608E-02  0.9087609E-01
         -1   -1    0    0    0  501 -0.00000000000E+00  0.00000000000E+00  0.10782315105E+04  0.10782315105E+04  0.00000000000E+00 0.  1.
          1   -1    0    0  501    0  0.00000000000E+00 -0.00000000000E+00 -0.35037050658E+03  0.35037050658E+03  0.00000000000E+00 0. -1.
    9900016    2    1    2    0    0  0.16659048158E+03  0.13031216968E+03  0.48499054277E+03  0.88155779794E+03  0.70512032620E+03 0.  0.
         23    2    3    3    0    0  0.10946873713E+03  0.76689281770E+02  0.62160912857E+02  0.17463313617E+03  0.93638148281E+02 0.  0.
         23    2    3    3    0    0  0.20500492549E+03 -0.50443781044E+02 -0.35533569155E-01  0.24701787415E+03  0.12824287258E+03 0.  0.
        -15    1    5    5    0    0  0.26892986646E+02 -0.34423559507E+02  0.44883481322E+02  0.62631789655E+02  0.00000000000E+00 0.  1.
        -15    1    4    4    0    0  0.26867867980E+02  0.22918774300E+02 -0.24832666201E+02  0.43171910496E+02  0.00000000000E+00 0.  1.
         15    1    4    4    0    0  0.82600869146E+02  0.53770507470E+02  0.86993579058E+02  0.13146122567E+03  0.00000000000E+00 0. -1.
         15    1    5    5    0    0  0.17811193884E+03 -0.16020221537E+02 -0.44919014891E+02  0.18438608449E+03  0.00000000000E+00 0. -1.
        -16    1    3    3    0    0 -0.14788318103E+03  0.10406666896E+03  0.42286516348E+03  0.45990678763E+03  0.00000000000E+00 0.  1.
         16    1    1    2    0    0  0.98057302723E+01  0.46444472805E+02 -0.10146893372E+03  0.11202314899E+03  0.00000000000E+00 0. -1.
    9900018    1    1    2    0    0 -0.17639621185E+03 -0.17675664249E+03  0.34433939492E+03  0.43502107019E+03  0.91187600000E+02 0.  0.
<mgrwt>
<rscale>  0 0.12292771E+04</rscale>
<asrwt>0</asrwt>
<pdfrwt beam="1">  1        1 0.53903156E-01 0.12292771E+04</pdfrwt>
<pdfrwt beam="2">  1       -1 0.16588177E+00 0.12292771E+04</pdfrwt>
<totfact> 0.18644595E+01</totfact>
</mgrwt>
</event>
<event>
11    1  0.3997441E-011  0.1576596E+04  0.7818608E-02  0.8835056E-01
          2   -1    0    0  501    0  0.00000000000E+00  0.00000000000E+00  0.25288228759E+04  0.25288228759E+04  0.00000000000E+00 0. -1.
         -2   -1    0    0    0  501 -0.00000000000E+00 -0.00000000000E+00 -0.24573237803E+03  0.24573237803E+03  0.00000000000E+00 0.  1.
    9900016    2    1    2    0    0  0.91039725446E+02 -0.15521519734E+03  0.18730413722E+04  0.20105139092E+04  0.70816820590E+03 0.  0.
         23    2    3    3    0    0 -0.60747166719E+02  0.49341608043E+02  0.42042936680E+03  0.43728065526E+03  0.91261746934E+02 0.  0.
        -15    1    3    3    0    0  0.16914893090E+03  0.22293649666E+02  0.23318853490E+03  0.28893816025E+03  0.00000000000E+00 0.  1.
        -15    1    4    4    0    0 -0.16306275689E+02  0.61760052947E+02  0.15140891392E+03  0.16433154895E+03  0.00000000000E+00 0. -1.
         15    1    3    3    0    0  0.20671575785E+02 -0.20096337656E+03  0.28831076226E+03  0.35204642932E+03  0.00000000000E+00 0. -1.
         15    1    4    4    0    0 -0.44440891030E+02 -0.12418444904E+02  0.26902045288E+03  0.27294910631E+03  0.00000000000E+00 0.  1.
        -16    1    3    3    0    0 -0.38033614524E+02 -0.25887078489E+02  0.93111270827E+03  0.93224866434E+03  0.00000000000E+00 0.  1.
         16    1    1    2    0    0  0.51806452999E+01 -0.94953694821E+02  0.46586363180E+03  0.47547025846E+03  0.00000000000E+00 0. -1.
    9900018    1    1    2    0    0 -0.96220370746E+02  0.25016889216E+03 -0.55814506159E+02  0.28857108629E+03  0.91187600000E+02 0.  0.
<mgrwt>
<rscale>  0 0.15765959E+04</rscale>
<asrwt>0</asrwt>
<pdfrwt beam="1">  1        2 0.38904965E+00 0.15765959E+04</pdfrwt>
<pdfrwt beam="2">  1       -2 0.37804983E-01 0.15765959E+04</pdfrwt>
<totfact> 0.21296699E+01</totfact>
</mgrwt>
</event>
<event>
12    1  0.3997441E-011  0.1566078E+04  0.7818608E-02  0.8841663E-01
         -2   -1    0    0    0  501 -0.00000000000E+00  0.00000000000E+00  0.38523108542E+03  0.38523108542E+03  0.00000000000E+00 0.  1.
          2   -1    0    0  501    0  0.00000000000E+00 -0.00000000000E+00 -0.15916424155E+04  0.15916424155E+04  0.00000000000E+00 0. -1.
    9900016    2    1    2    0    0 -0.18482907757E+03 -0.27638619134E+02 -0.85485527554E+03  0.11222472763E+04  0.70266330899E+03 0.  0.
         23    2    3    3    0    0  0.14997889079E+03 -0.24773190806E+02 -0.27344033565E+02  0.17938284418E+03  0.91231189570E+02 0.  0.
         23    2    3    3    0    0  0.40268351773E+01 -0.39809438393E+02 -0.42396994717E+02  0.86956571852E+02  0.64520798511E+02 0.  0.
        -15    1    5    5    0    0  0.70909712726E+01 -0.52238853599E+02 -0.12132538747E+02  0.54096009052E+02  0.00000000000E+00 0.  1.
        -15    1    4    4    0    0  0.34625735206E+02 -0.33388800797E+01  0.32560136201E+02  0.47647162855E+02  0.00000000000E+00 0.  1.
         15    1    4    4    0    0  0.11535315559E+03 -0.21434310726E+02 -0.59904169766E+02  0.13173568133E+03  0.00000000000E+00 0. -1.
         15    1    5    5    0    0 -0.30641360953E+01  0.12429415206E+02 -0.30264455970E+02  0.32860562800E+02  0.00000000000E+00 0. -1.
        -16    1    3    3    0    0 -0.33883480354E+03  0.36944010064E+02 -0.78511424726E+03  0.85590786024E+03  0.00000000000E+00 0.  1.
         16    1    1    2    0    0  0.15316286414E+03 -0.34064802912E+03 -0.67352023535E+02  0.37952106367E+03  0.00000000000E+00 0. -1.
    9900018    1    1    2    0    0  0.31666213432E+02  0.36828664825E+03 -0.28420403101E+03  0.47510516098E+03  0.91187600000E+02 0.  0.
<mgrwt>
<rscale>  0 0.15660781E+04</rscale>
<asrwt>0</asrwt>
<pdfrwt beam="1">  1        2 0.24486806E+00 0.15660781E+04</pdfrwt>
<pdfrwt beam="2">  1       -2 0.59266322E-01 0.15660781E+04</pdfrwt>
<totfact> 0.28804926E+01</totfact>
</mgrwt>
</event>
<event>
12    1  0.3997441E-011  0.1983173E+04  0.7818608E-02  0.8614528E-01
         -1   -1    0    0    0  501 -0.00000000000E+00  0.00000000000E+00  0.12304661896E+04  0.12304661896E+04  0.00000000000E+00 0.  1.
          1   -1    0    0  501    0  0.00000000000E+00 -0.00000000000E+00 -0.79908259705E+03  0.79908259705E+03  0.00000000000E+00 0. -1.
    9900016    2    1    2    0    0  0.52694155753E+03  0.86315087305E+02  0.24463388073E+03  0.92135648270E+03  0.70988332370E+03 0.  0.
         23    2    3    3    0    0  0.38093311867E+03 -0.71326699194E+02 -0.83015170996E+02  0.40662840624E+03  0.90871355394E+02 0.  0.
         23    2    3    3    0    0  0.14625130027E+03 -0.59736456183E+02  0.11007715326E+03  0.20717175580E+03  0.76454363533E+02 0.  0.
        -15    1    5    5    0    0  0.62925110612E+00 -0.19948435240E+02  0.30693908841E+02  0.36612184658E+02  0.00000000000E+00 0.  1.
        -15    1    4    4    0    0  0.27438039875E+03 -0.86975827279E+02 -0.39752075465E+02  0.29056776362E+03  0.00000000000E+00 0.  1.
         15    1    4    4    0    0  0.10655271991E+03  0.15649128085E+02 -0.43263095531E+02  0.11606064262E+03  0.00000000000E+00 0. -1.
         15    1    5    5    0    0  0.14562204917E+03 -0.39788020943E+02  0.79383244415E+02  0.17055957114E+03  0.00000000000E+00 0. -1.
        -16    1    3    3    0    0 -0.24286141160E+00  0.21737824268E+03  0.21757189847E+03  0.30755632066E+03  0.00000000000E+00 0.  1.
         16    1    1    2    0    0 -0.71293660541E+03 -0.26287857758E+03 -0.29697015699E+02  0.76043780983E+03  0.00000000000E+00 0. -1.
    9900018    1    1    2    0    0  0.18599504788E+03  0.17656349027E+03  0.21644672753E+03  0.34775449413E+03  0.91187600000E+02 0.  0.
<mgrwt>
<rscale>  0 0.19831733E+04</rscale>
<asrwt>0</asrwt>
<pdfrwt beam="1">  1        1 0.12293578E+00 0.19831733E+04</pdfrwt>
<pdfrwt beam="2">  1       -1 0.18930249E+00 0.19831733E+04</pdfrwt>
<totfact> 0.36769859E+00</totfact>
</mgrwt>
</event>
<event>
11    1  0.3997441E-011  0.1539550E+04  0.7818608E-02  0.8858570E-01
         -1   -1    0    0    0  501 -0.00000000000E+00  0.00000000000E+00  0.16288935595E+03  0.16288935595E+03  0.00000000000E+00 0.  1.
          1   -1    0    0  501    0  0.00000000000E+00 -0.00000000000E+00 -0.36377681730E+04  0.36377681730E+04  0.00000000000E+00 0. -1.
    9900016    2    1    2    0    0 -0.34499547873E+02  0.30356477284E+02 -0.10920931369E+04  0.13015263119E+04  0.70653491529E+03 0.  0.
         23    2    3    3    0    0 -0.16615925861E+03  0.18976771016E+03 -0.14516207394E+03  0.30352571425E+03  0.86227306903E+02 0.  0.
        -15    1    3    3    0    0 -0.10418739189E+02  0.19042598233E+01  0.11607632733E+01  0.10654750262E+02  0.00000000000E+00 0.  1.
        -15    1    4    4    0    0 -0.72068333462E+02  0.73353659189E+02 -0.10835332493E+03  0.14938221791E+03  0.00000000000E+00 0.  1.
         15    1    3    3    0    0 -0.24382096997E+02  0.57559597523E+00 -0.22881178970E+02  0.33441984328E+02  0.00000000000E+00 0. -1.
         15    1    4    4    0    0 -0.94090925149E+02  0.11641405097E+03 -0.36808749013E+02  0.15414349634E+03  0.00000000000E+00 0. -1.
        -16    1    3    3    0    0  0.16646054692E+03 -0.16189108867E+03 -0.92521064722E+03  0.95390386308E+03  0.00000000000E+00 0.  1.
         16    1    1    2    0    0  0.14231218865E+03 -0.25375315299E+03 -0.37798644501E+03  0.47698760393E+03  0.00000000000E+00 0. -1.
    9900018    1    1    2    0    0 -0.10781264077E+03  0.22339667571E+03 -0.20047992352E+04  0.20221436131E+04  0.91187600000E+02 0.  0.
<mgrwt>
<rscale>  0 0.15395502E+04</rscale>
<asrwt>0</asrwt>
<pdfrwt beam="1">  1        1 0.55965666E+00 0.15395502E+04</pdfrwt>
<pdfrwt beam="2">  1       -1 0.25059900E-01 0.15395502E+04</pdfrwt>
<totfact> 0.26415268E+00</totfact>
</mgrwt>
</event>
<event>
12    1  0.3997441E-011  0.1621097E+04  0.7818608E-02  0.8807691E-01
         -1   -1    0    0    0  501 -0.00000000000E+00  0.00000000000E+00  0.71569285085E+03  0.71569285085E+03  0.00000000000E+00 0.  1.
          1   -1    0    0  501    0  0.00000000000E+00 -0.00000000000E+00 -0.91797584338E+03  0.91797584338E+03  0.00000000000E+00 0. -1.
    9900016    2    1    2    0    0 -0.41097486924E+02  0.42418579239E+02  0.31410804594E+03  0.77684163282E+03  0.70804711613E+03 0.  0.
         25    2    3    3    0    0  0.52525135195E+02 -0.11751128502E+03  0.48969973069E+03  0.52154729954E+03  0.12505185922E+03 0.  0.
         23    2    4    4    0    0  0.26864744178E+02 -0.84526409739E+02  0.38918697015E+03  0.40921142531E+03  0.90116948727E+02 0.  0.
        -15    1    4    4    0    0  0.10428294764E+02 -0.33167702947E+02  0.73935759266E+02  0.81702768305E+02  0.00000000000E+00 0. -1.
        -15    1    5    5    0    0 -0.16089089741E+02  0.10413420610E+02  0.33723135379E+02  0.38788503416E+02  0.00000000000E+00 0. -1.
         15    1    4    4    0    0  0.15232096253E+02  0.18282766963E+00  0.26577001272E+02  0.30633105928E+02  0.00000000000E+00 0.  1.
         15    1    5    5    0    0  0.42953833920E+02 -0.94939830349E+02  0.35546383477E+03  0.37042292189E+03  0.00000000000E+00 0.  1.
        -16    1    3    3    0    0 -0.93622622119E+02  0.15992986426E+03 -0.17559168474E+03  0.25529433328E+03  0.00000000000E+00 0.  1.
         16    1    1    2    0    0 -0.13022732255E+03 -0.14383505252E+03 -0.59369872812E+03  0.62460055847E+03  0.00000000000E+00 0. -1.
    9900018    1    1    2    0    0  0.17132480948E+03  0.10141647328E+03  0.77307689642E+02  0.23222650293E+03  0.91187600000E+02 0.  0.
<mgrwt>
<rscale>  0 0.16210968E+04</rscale>
<asrwt>0</asrwt>
<pdfrwt beam="1">  1        1 0.14122705E+00 0.16210968E+04</pdfrwt>
<pdfrwt beam="2">  1       -1 0.11010659E+00 0.16210968E+04</pdfrwt>
<totfact> 0.12833492E+01</totfact>
</mgrwt>
</event>
