<event>
12    1  0.1520939E-012  0.3118725E+04  0.7818608E-02  0.8210618E-01
         -2   -1    0    0    0  501 -0.00000000000E+00  0.00000000000E+00  0.99401507092E+03  0.99401507092E+03  0.00000000000E+00 0.  1.
          2   -1    0    0  501    0  0.00000000000E+00 -0.00000000000E+00 -0.24462519659E+04  0.24462519659E+04  0.00000000000E+00 0. -1.
    9900016    2    1    2    0    0 -0.34904888488E+03 -0.36949359133E+03 -0.56934881289E+03  0.22825000470E+04  0.21511131434E+04 0.  0.
         23    2    3    3    0    0  0.20899564325E+03  0.14954542762E+03 -0.16723782192E+03  0.32139886573E+03  0.96362482282E+02 0.  0.
        -24    2    3    3    0    0  0.24884136394E+03  0.24891465575E+03 -0.71575716065E+03  0.80386671533E+03  0.10006424307E+03 0.  0.
        -15    1    3    3    0    0 -0.80688589207E+03 -0.76795367471E+03  0.31364616968E+03  0.11572344659E+04  0.00000000000E+00 0.  1.
        -15    1    4    4    0    0  0.16152073798E+03  0.58677176324E+02 -0.10870289886E+03  0.20334276490E+03  0.00000000000E+00 0. -1.
         15    1    4    4    0    0  0.47474905272E+02  0.90868251297E+02 -0.58534923057E+02  0.11805610082E+03  0.00000000000E+00 0.  1.
         15    1    5    5    0    0  0.23299175846E+03  0.18233329599E+03 -0.54974648548E+03  0.62430104007E+03  0.00000000000E+00 0. -1.
        -16    1    5    5    0    0  0.15849605482E+02  0.66581359760E+02 -0.16601067516E+03  0.17956567526E+03  0.00000000000E+00 0.  1.
         16    1    1    2    0    0  0.41449426268E+03  0.37245142558E+03 -0.88458386064E+03  0.10454731774E+04  0.00000000000E+00 0. -1.
    9900018    1    1    2    0    0 -0.65445377804E+02 -0.29578342530E+01  0.16957785274E+01  0.11229381247E+03  0.91187600000E+02 0.  0.
<mgrwt>
<rscale>  0 0.31187249E+04</rscale>
<asrwt>0</asrwt>
<pdfrwt beam="1">  1        2 0.37634646E+00 0.31187249E+04</pdfrwt>
<pdfrwt beam="2">  1       -2 0.15292539E+00 0.31187249E+04</pdfrwt>
<totfact> 0.90202116E-01</totfact>
</mgrwt>
</event>
<event>
12    1  0.1520939E-012  0.2955312E+04  0.7818608E-02  0.8256608E-01
          2   -1    0    0  501    0  0.00000000000E+00  0.00000000000E+00  0.11806447023E+04  0.11806447023E+04  0.00000000000E+00 0. -1.
         -2   -1    0    0    0  501 -0.00000000000E+00 -0.00000000000E+00 -0.18493855886E+04  0.18493855886E+04  0.00000000000E+00 0.  1.
    9900016    2    1    2    0    0  0.80972586044E+02 -0.21476875706E+03  0.63239149858E+02  0.22629077766E+04  0.22503489144E+04 0.  0.
         23    2    3    3    0    0  0.68011482638E+02 -0.18991273874E+03  0.12012726344E+03  0.25175326421E+03  0.90866586345E+02 0.  0.
         24    2    3    3    0    0  0.80099986253E+03  0.39453951431E+02  0.44623132610E+03  0.92021207008E+03  0.67159984041E+02 0.  0.
        -15    1    5    5    0    0  0.24712481821E+03  0.77881725842E+00  0.10496132245E+03  0.26849238638E+03  0.00000000000E+00 0.  1.
        -15    1    4    4    0    0  0.13916813849E+02 -0.59769610228E+02  0.87857699461E+02  0.10716836926E+03  0.00000000000E+00 0.  1.
         15    1    3    3    0    0 -0.84073235803E+03 -0.49396846223E+02 -0.50963070415E+03  0.98437513219E+03  0.00000000000E+00 0. -1.
         15    1    4    4    0    0  0.54094668788E+02 -0.13014312851E+03  0.32269563979E+02  0.14458489496E+03  0.00000000000E+00 0. -1.
        -16    1    1    2    0    0 -0.80972586044E+02  0.21476875706E+03 -0.73198003617E+03  0.76712251437E+03  0.00000000000E+00 0.  1.
         16    1    5    5    0    0  0.55387504432E+03  0.38675134172E+02  0.34127000366E+03  0.65171968370E+03  0.00000000000E+00 0. -1.
    9900018    1    3    3    0    0  0.52693598907E+02 -0.14913123522E+02  0.65112644592E+01  0.10656731008E+03  0.91187600000E+02 0.  0.
<mgrwt>
<rscale>  0 0.29553120E+04</rscale>
<asrwt>0</asrwt>
<pdfrwt beam="1">  1        2 0.18163765E+00 0.29553120E+04</pdfrwt>
<pdfrwt beam="2">  1       -2 0.28452086E+00 0.29553120E+04</pdfrwt>
<totfact> 0.66054399E-01</totfact>
</mgrwt>
</event>
<event>
12    1  0.1520939E-012  0.4308373E+04  0.7818608E-02  0.7945072E-01
          1   -1    0    0  501    0  0.00000000000E+00  0.00000000000E+00  0.26129691614E+04  0.26129691614E+04  0.00000000000E+00 0. -1.
         -1   -1    0    0    0  501 -0.00000000000E+00 -0.00000000000E+00 -0.17759562422E+04  0.17759562422E+04  0.00000000000E+00 0.  1.
    9900016    2    1    2    0    0 -0.69579755917E+03  0.78940366223E+03 -0.47569195658E+03  0.24342355395E+04  0.21428783070E+04 0.  0.
         23    2    3    3    0    0 -0.34961377917E+03  0.17176044639E+03  0.21510178557E+03  0.45422226696E+03  0.91201119071E+02 0.  0.
        -24    2    3    3    0    0  0.43536371412E+03  0.91131371855E+03 -0.27811244484E+03  0.10486891061E+04  0.48662636002E+02 0.  0.
        -15    1    4    4    0    0 -0.14468565750E+03  0.12020686835E+03  0.88475241301E+02  0.20787375738E+03  0.00000000000E+00 0.  1.
        -15    1    3    3    0    0 -0.78154749412E+03 -0.29367050271E+03 -0.41268129731E+03  0.93132416638E+03  0.00000000000E+00 0.  1.
         15    1    5    5    0    0  0.36268270913E+02  0.79867241387E+02 -0.10278416451E+02  0.88316530539E+02  0.00000000000E+00 0. -1.
         15    1    4    4    0    0 -0.20492812167E+03  0.51553578043E+02  0.12662654427E+03  0.24634850958E+03  0.00000000000E+00 0. -1.
        -16    1    5    5    0    0  0.39909544320E+03  0.83144647717E+03 -0.26783402839E+03  0.96037257559E+03  0.00000000000E+00 0.  1.
         16    1    1    2    0    0  0.76238456625E+03 -0.90535409463E+03  0.13429040430E+04  0.17900523825E+04  0.00000000000E+00 0. -1.
    9900018    1    1    2    0    0 -0.66587007083E+02  0.11595043240E+03 -0.30199167147E+02  0.16463748169E+03  0.91187600000E+02 0.  0.
<mgrwt>
<rscale>  0 0.43083727E+04</rscale>
<asrwt>0</asrwt>
<pdfrwt beam="1">  1        1 0.40199525E+00 0.43083727E+04</pdfrwt>
<pdfrwt beam="2">  1       -1 0.27322404E+00 0.43083727E+04</pdfrwt>
<totfact> 0.42466567E-02</totfact>
</mgrwt>
</event>
<event>
12    1  0.1520939E-012  0.3045055E+04  0.7818608E-02  0.8230981E-01
          2   -1    0    0  501    0  0.00000000000E+00  0.00000000000E+00  0.29105551794E+04  0.29105551794E+04  0.00000000000E+00 0. -1.
         -2   -1    0    0    0  501 -0.00000000000E+00 -0.00000000000E+00 -0.79644234266E+03  0.79644234266E+03  0.00000000000E+00 0.  1.
    9900016    2    1    2    0    0 -0.85955298380E+02  0.27134316761E+03  0.22461302365E+04  0.31176870567E+04  0.21433282800E+04 0.  0.
         23    2    3    3    0    0 -0.49125144671E+03 -0.47390732496E+02  0.72285397700E+03  0.87990825770E+03  0.90259650308E+02 0.  0.
         24    2    3    3    0    0 -0.18067570001E+03  0.24787978462E+03  0.16089320587E+04  0.16413559384E+04  0.10629605183E+03 0.  0.
        -15    1    5    5    0    0 -0.89241145553E+02  0.41675677569E+02  0.53500602334E+03  0.54399658930E+03  0.00000000000E+00 0.  1.
        -15    1    4    4    0    0 -0.91342522221E+02 -0.40446032017E+02  0.11579242326E+03  0.15292881729E+03  0.00000000000E+00 0.  1.
         15    1    4    4    0    0 -0.39990892449E+03 -0.69447004791E+01  0.60706155374E+03  0.72697944041E+03  0.00000000000E+00 0. -1.
         15    1    3    3    0    0  0.58597184834E+03  0.70854115478E+02 -0.85655799187E+02  0.59642286062E+03  0.00000000000E+00 0. -1.
        -16    1    1    2    0    0  0.51705089780E+02 -0.34955829604E+03 -0.23754234970E+03  0.42578255782E+03  0.00000000000E+00 0.  1.
         16    1    5    5    0    0 -0.91434554455E+02  0.20620410706E+03  0.10739260354E+04  0.10973593491E+04  0.00000000000E+00 0. -1.
    9900018    1    1    2    0    0  0.34250208600E+02  0.78215128434E+02  0.10552494991E+03  0.16352790757E+03  0.91187600000E+02 0.  0.
<mgrwt>
<rscale>  0 0.30450546E+04</rscale>
<asrwt>0</asrwt>
<pdfrwt beam="1">  1        2 0.44777771E+00 0.30450546E+04</pdfrwt>
<pdfrwt beam="2">  1       -2 0.12252959E+00 0.30450546E+04</pdfrwt>
<totfact> 0.85039409E-01</totfact>
</mgrwt>
</event>
<event>
12    1  0.1520939E-012  0.2609848E+04  0.7818608E-02  0.8364864E-01
         -1   -1    0    0    0  501 -0.00000000000E+00  0.00000000000E+00  0.10311298192E+04  0.10311298192E+04  0.00000000000E+00 0.  1.
          1   -1    0    0  501    0  0.00000000000E+00 -0.00000000000E+00 -0.16514185432E+04  0.16514185432E+04  0.00000000000E+00 0. -1.
    9900016    2    1    2    0    0  0.64985773182E+01 -0.12738583950E+03 -0.85872930093E+03  0.24121351742E+04  0.22504912137E+04 0.  0.
         23    2    3    3    0    0  0.25100505891E+03 -0.42794166895E+02  0.28246340276E+03  0.39100665480E+03  0.90916169526E+02 0.  0.
         24    2    3    3    0    0  0.38719579261E+03  0.48355397179E+03 -0.10532590724E+03  0.63794024018E+03  0.11013254679E+03 0.  0.
        -15    1    4    4    0    0  0.14701303475E+03 -0.28189732994E+01  0.10211222777E+03  0.17901867516E+03  0.00000000000E+00 0. -1.
        -15    1    5    5    0    0  0.93425694452E+02  0.88464806221E+02  0.19225938235E+02  0.13009234806E+03  0.00000000000E+00 0.  1.
         15    1    4    4    0    0  0.10399202417E+03 -0.39975193596E+02  0.18035117499E+03  0.21198797964E+03  0.00000000000E+00 0.  1.
         15    1    3    3    0    0 -0.61306489240E+03 -0.54461613205E+03 -0.94192401136E+03  0.12488699439E+04  0.00000000000E+00 0. -1.
        -16    1    1    2    0    0 -0.64985773182E+01  0.12738583950E+03  0.23844057697E+03  0.27041318821E+03  0.00000000000E+00 0.  1.
         16    1    5    5    0    0  0.29377009816E+03  0.39508916557E+03 -0.12455184548E+03  0.50784789212E+03  0.00000000000E+00 0. -1.
    9900018    1    3    3    0    0 -0.18637381811E+02 -0.23529512347E+02 -0.93942785081E+02  0.13431833536E+03  0.91187600000E+02 0.  0.
<mgrwt>
<rscale>  0 0.26098482E+04</rscale>
<asrwt>0</asrwt>
<pdfrwt beam="1">  1        1 0.25406439E+00 0.26098482E+04</pdfrwt>
<pdfrwt beam="2">  1       -1 0.15863536E+00 0.26098482E+04</pdfrwt>
<totfact> 0.13550932E+00</totfact>
</mgrwt>
</event>
<event>
11    1  0.1520939E-012  0.4017312E+04  0.7818608E-02  0.8001063E-01
          2   -1    0    0  501    0  0.00000000000E+00  0.00000000000E+00  0.25619762533E+04  0.25619762533E+04  0.00000000000E+00 0. -1.
         -2   -1    0    0    0  501 -0.00000000000E+00 -0.00000000000E+00 -0.15748383867E+04  0.15748383867E+04  0.00000000000E+00 0.  1.
    9900016    2    1    2    0    0 -0.70252328123E+03 -0.60294795087E+03 -0.34227159640E+03  0.23609232259E+04  0.21446965848E+04 0.  0.
         23    2    3    3    0    0  0.27088561808E+03  0.35926393231E+03  0.12574322715E+03  0.47619443003E+03  0.92196447192E+02 0.  0.
        -15    1    3    3    0    0 -0.32835882302E+03  0.15014222466E+03 -0.47035050255E+03  0.59295176830E+03  0.00000000000E+00 0.  1.
        -15    1    4    4    0    0  0.17478284014E+03  0.28983974142E+03  0.11360698429E+03  0.35701913646E+03  0.00000000000E+00 0. -1.
         15    1    4    4    0    0  0.96102777937E+02  0.69424190890E+02  0.12136242861E+02  0.11917529358E+03  0.00000000000E+00 0.  1.
         15    1    3    3    0    0 -0.25678806548E+03 -0.56492670604E+03 -0.64308444142E+01  0.62058331393E+03  0.00000000000E+00 0. -1.
        -16    1    3    3    0    0 -0.38826201081E+03 -0.54742740181E+03  0.87665234155E+01  0.67119371364E+03  0.00000000000E+00 0.  1.
         16    1    1    2    0    0  0.67884777747E+03  0.67560964682E+03  0.13499161383E+04  0.16551604999E+04  0.00000000000E+00 0. -1.
    9900018    1    1    2    0    0  0.23675503762E+02 -0.72661695944E+02 -0.20506675243E+02  0.12073091426E+03  0.91187600000E+02 0.  0.
<mgrwt>
<rscale>  0 0.40173118E+04</rscale>
<asrwt>0</asrwt>
<pdfrwt beam="1">  1        2 0.39415019E+00 0.40173118E+04</pdfrwt>
<pdfrwt beam="2">  1       -2 0.24228283E+00 0.40173118E+04</pdfrwt>
<totfact> 0.18095048E-01</totfact>
</mgrwt>
</event>
<event>
11    1  0.1520939E-012  0.2537266E+04  0.7818608E-02  0.8389828E-01
          1   -1    0    0  501    0  0.00000000000E+00  0.00000000000E+00  0.16969187233E+04  0.16969187233E+04  0.00000000000E+00 0. -1.
         -1   -1    0    0    0  501 -0.00000000000E+00 -0.00000000000E+00 -0.94844277370E+03  0.94844277370E+03  0.00000000000E+00 0.  1.
    9900016    2    1    2    0    0 -0.65777017067E+02  0.20568288451E+03  0.59800391056E+03  0.22420373835E+04  0.21499978808E+04 0.  0.
         23    2    3    3    0    0 -0.79908096374E+02  0.66302229392E+03  0.11827774598E+01  0.67392213945E+03  0.90475328017E+02 0.  0.
        -15    1    4    4    0    0 -0.18682152842E+02  0.40688622771E+02 -0.18085020976E+02  0.48287211988E+02  0.00000000000E+00 0.  1.
        -15    1    3    3    0    0  0.65358857884E+03 -0.15893492345E+03  0.73637692819E+02  0.67665415841E+03  0.00000000000E+00 0.  1.
         15    1    4    4    0    0 -0.61225943533E+02  0.62233367115E+03  0.19267798436E+02  0.62563492746E+03  0.00000000000E+00 0. -1.
         15    1    3    3    0    0 -0.12694064365E+03 -0.34330103236E+02  0.17151434584E+03  0.21612416299E+03  0.00000000000E+00 0. -1.
        -16    1    3    3    0    0 -0.51251685588E+03 -0.26407438273E+03  0.35166909444E+03  0.67533692270E+03  0.00000000000E+00 0.  1.
         16    1    1    2    0    0  0.47980136240E+02 -0.24512704526E+03  0.16780575204E+03  0.30091216694E+03  0.00000000000E+00 0. -1.
    9900018    1    1    2    0    0  0.17796880828E+02  0.39444160751E+02 -0.17333713015E+02  0.10241194650E+03  0.91187600000E+02 0.  0.
<mgrwt>
<rscale>  0 0.25372665E+04</rscale>
<asrwt>0</asrwt>
<pdfrwt beam="1">  1        1 0.26106442E+00 0.25372665E+04</pdfrwt>
<pdfrwt beam="2">  1       -1 0.14591427E+00 0.25372665E+04</pdfrwt>
<totfact> 0.15934742E+00</totfact>
</mgrwt>
</event>
<event>
12    1  0.1520939E-012  0.2738071E+04  0.7818608E-02  0.8322757E-01
         -2   -1    0    0    0  501 -0.00000000000E+00  0.00000000000E+00  0.83971873920E+03  0.83971873920E+03  0.00000000000E+00 0. -1.
          2   -1    0    0  501    0  0.00000000000E+00 -0.00000000000E+00 -0.22320065795E+04  0.22320065795E+04  0.00000000000E+00 0.  1.
    9900016    2    1    2    0    0 -0.47065470126E+02  0.37272737084E+03 -0.87967835762E+03  0.24361867021E+04  0.22405425198E+04 0.  0.
         23    2    3    3    0    0  0.73492489889E+02 -0.29154658818E+02 -0.20851180388E+03  0.24096482310E+03  0.91300237763E+02 0.  0.
        -24    2    3    3    0    0 -0.10310592484E+03 -0.55597046426E+03 -0.91398308098E+03  0.10761786648E+04  0.55330438698E+02 0.  0.
        -15    1    3    3    0    0 -0.35678766721E+02  0.96893280741E+03  0.29287173442E+03  0.10128561657E+04  0.00000000000E+00 0.  1.
        -15    1    4    4    0    0 -0.10587630107E+02  0.13486989681E+02 -0.70561867236E+01  0.18541482492E+02  0.00000000000E+00 0. -1.
         15    1    4    4    0    0  0.84080119996E+02 -0.42641648498E+02 -0.20145561715E+03  0.22242334061E+03  0.00000000000E+00 0.  1.
         15    1    5    5    0    0 -0.14021888646E+02 -0.18430735075E+03 -0.33024225139E+03  0.37845179020E+03  0.00000000000E+00 0. -1.
        -16    1    5    5    0    0 -0.89084036196E+02 -0.37166311352E+03 -0.58374082959E+03  0.69772687463E+03  0.00000000000E+00 0.  1.
         16    1    1    2    0    0  0.47065470126E+02 -0.37272737084E+03 -0.51260948264E+03  0.63553861656E+03  0.00000000000E+00 0. -1.
    9900018    1    3    3    0    0  0.18226731548E+02 -0.11080313485E+02 -0.50055207180E+02  0.10618704841E+03  0.91187600000E+02 0.  0.
<mgrwt>
<rscale>  0 0.27380707E+04</rscale>
<asrwt>0</asrwt>
<pdfrwt beam="1">  1        2 0.34338563E+00 0.27380707E+04</pdfrwt>
<pdfrwt beam="2">  1       -2 0.12918750E+00 0.27380707E+04</pdfrwt>
<totfact> 0.19115095E+00</totfact>
</mgrwt>
</event>
