<event>
12    1  0.3137226E-009  0.4629549E+04  0.7818608E-02  0.7888341E-01
          2   -1    0    0  501    0  0.00000000000E+00  0.00000000000E+00  0.41003900663E+04  0.41003900663E+04  0.00000000000E+00 0. -1.
         -2   -1    0    0    0  501 -0.00000000000E+00 -0.00000000000E+00 -0.13067490438E+04  0.13067490438E+04  0.00000000000E+00 0.  1.
    9900016    2    1    2    0    0 -0.10921693159E+02 -0.77859067735E+03  0.27722607677E+04  0.34273979469E+04  0.18588448552E+04 0.  0.
    9900016    2    1    2    0    0  0.10921693159E+02  0.77859067735E+03  0.21380254773E+02  0.19797411632E+04  0.18200536344E+04 0.  0.
         23    2    4    4    0    0 -0.14811227786E+03 -0.68281020327E+01 -0.75828888508E+03  0.77957926924E+03  0.10372046065E+03 0.  0.
        -15    1    5    5    0    0  0.24898345591E+01  0.26341978823E+02 -0.96631410304E+02  0.10018846531E+03  0.00000000000E+00 0. -1.
        -15    1    3    3    0    0  0.80268376787E+03 -0.84643413030E+03  0.14172770414E+04  0.18355996787E+04  0.00000000000E+00 0.  1.
         15    1    3    3    0    0 -0.35583310481E+03  0.10440961515E+03  0.51722051264E+03  0.63642409203E+03  0.00000000000E+00 0. -1.
         15    1    5    5    0    0 -0.15060211242E+03 -0.33170080856E+02 -0.66165747478E+03  0.67939080393E+03  0.00000000000E+00 0.  1.
        -16    1    3    3    0    0 -0.45777235622E+03 -0.36566162200E+02  0.83776321364E+03  0.95537417616E+03  0.00000000000E+00 0.  1.
         16    1    4    4    0    0  0.28481177955E+03  0.45806785143E+03  0.37478837160E+03  0.65681826236E+03  0.00000000000E+00 0. -1.
    9900018    1    4    4    0    0 -0.12577780853E+03  0.32735092795E+03  0.40488076826E+03  0.54334363165E+03  0.91187600000E+02 0.  0.
<mgrwt>
<rscale>  0 0.46295489E+04</rscale>
<asrwt>0</asrwt>
<pdfrwt beam="1">  1        2 0.63082923E+00 0.46295489E+04</pdfrwt>
<pdfrwt beam="2">  1       -2 0.20103832E+00 0.46295489E+04</pdfrwt>
<totfact> 0.27621899E-02</totfact>
</mgrwt>
</event>
<event>
13    1  0.3137226E-009  0.3867593E+04  0.7818608E-02  0.8031803E-01
         -1   -1    0    0    0  501 -0.00000000000E+00  0.00000000000E+00  0.27671888872E+04  0.27671888872E+04  0.00000000000E+00 0.  1.
          1   -1    0    0  501    0  0.00000000000E+00 -0.00000000000E+00 -0.13513964365E+04  0.13513964365E+04  0.00000000000E+00 0. -1.
    9900016    2    1    2    0    0 -0.21159983685E+03 -0.75324581815E+02  0.12661976377E+04  0.22475361116E+04  0.18432888628E+04 0.  0.
         24    2    3    3    0    0 -0.81733482986E+03 -0.60927816374E+03  0.52035032754E+03  0.11483047804E+04  0.92646103169E+02 0.  0.
    9900016    2    1    2    0    0  0.21159983685E+03  0.75324581815E+02  0.14959481300E+03  0.18710492120E+04  0.18514854204E+04 0.  0.
         23    2    5    5    0    0  0.29064992325E+03 -0.15177303185E+03 -0.18511633234E+03  0.38389057121E+03  0.74776220083E+02 0.  0.
        -15    1    6    6    0    0  0.11819022303E+02 -0.29621801974E+02 -0.17074260412E+02  0.36175555407E+02  0.00000000000E+00 0.  1.
        -15    1    4    4    0    0 -0.40186956519E+03 -0.32866592681E+03  0.30957192955E+03  0.60444620806E+03  0.00000000000E+00 0.  1.
         15    1    6    6    0    0  0.27883090095E+03 -0.12215122987E+03 -0.16804207192E+03  0.34771501581E+03  0.00000000000E+00 0. -1.
         15    1    3    3    0    0  0.60573499301E+03  0.53395358193E+03  0.74584731015E+03  0.10992313312E+04  0.00000000000E+00 0. -1.
        -16    1    5    5    0    0  0.34055481850E+03  0.68985666199E+03  0.37242791186E+03  0.85474110000E+03  0.00000000000E+00 0.  1.
         16    1    4    4    0    0 -0.41546526467E+03 -0.28061223693E+03  0.21077839799E+03  0.54385857235E+03  0.00000000000E+00 0. -1.
    9900018    1    5    5    0    0 -0.41960490490E+03 -0.46275904833E+03 -0.37716766522E+02  0.63241754079E+03  0.91187600000E+02 0.  0.
<mgrwt>
<rscale>  0 0.38675932E+04</rscale>
<asrwt>0</asrwt>
<pdfrwt beam="1">  1        1 0.20790714E+00 0.38675932E+04</pdfrwt>
<pdfrwt beam="2">  1       -1 0.42572137E+00 0.38675932E+04</pdfrwt>
<totfact> 0.31297510E-02</totfact>
</mgrwt>
</event>
<event>
12    1  0.3137226E-009  0.5113303E+04  0.7818608E-02  0.7811263E-01
          1   -1    0    0  501    0  0.00000000000E+00  0.00000000000E+00  0.32043049347E+04  0.32043049347E+04  0.00000000000E+00 0. -1.
         -1   -1    0    0    0  501 -0.00000000000E+00 -0.00000000000E+00 -0.20399019194E+04  0.20399019194E+04  0.00000000000E+00 0.  1.
    9900016    2    1    2    0    0  0.29467253039E+02 -0.89588505996E+03  0.21447235516E+04  0.29725092985E+04  0.18526991275E+04 0.  0.
    9900016    2    1    2    0    0 -0.29467253039E+02  0.89588505996E+03 -0.98032053631E+03  0.22716975556E+04  0.18428518851E+04 0.  0.
         23    2    4    4    0    0 -0.11143962700E+03 -0.17076383103E+03 -0.20489459435E+03  0.30974536079E+03  0.11127136777E+03 0.  0.
        -15    1    3    3    0    0  0.26104278929E+03 -0.10579542768E+03  0.74805295348E+03  0.79932423432E+03  0.00000000000E+00 0.  1.
        -15    1    5    5    0    0 -0.65171393949E+02 -0.37978419325E+02 -0.13032765868E+03  0.15058210233E+03  0.00000000000E+00 0.  1.
         15    1    5    5    0    0 -0.46268233049E+02 -0.13278541170E+03 -0.74566935671E+02  0.15916325847E+03  0.00000000000E+00 0. -1.
         15    1    3    3    0    0 -0.61338035617E+03 -0.58440892735E+03  0.15935726213E+03  0.86206959852E+03  0.00000000000E+00 0. -1.
        -16    1    4    4    0    0  0.26477856349E+03  0.14636906898E+03  0.37035475438E+03  0.47821986171E+03  0.00000000000E+00 0.  1.
         16    1    3    3    0    0  0.38180481992E+03 -0.20568070493E+03  0.12373133360E+04  0.13111154656E+04  0.00000000000E+00 0. -1.
    9900018    1    4    4    0    0 -0.18280618954E+03  0.92027982200E+03 -0.11457806963E+04  0.14837323331E+04  0.91187600000E+02 0.  0.
<mgrwt>
<rscale>  0 0.51133033E+04</rscale>
<asrwt>0</asrwt>
<pdfrwt beam="1">  1        1 0.49296999E+00 0.51133033E+04</pdfrwt>
<pdfrwt beam="2">  1       -1 0.31383107E+00 0.51133033E+04</pdfrwt>
<totfact> 0.81030040E-03</totfact>
</mgrwt>
</event>
<event>
12    1  0.3137226E-009  0.3946159E+04  0.7818608E-02  0.8015497E-01
         -2   -1    0    0    0  501 -0.00000000000E+00  0.00000000000E+00  0.27629949994E+04  0.27629949994E+04  0.00000000000E+00 0.  1.
          2   -1    0    0  501    0  0.00000000000E+00 -0.00000000000E+00 -0.14089934685E+04  0.14089934685E+04  0.00000000000E+00 0. -1.
    9900016    2    1    2    0    0  0.18620925744E+03 -0.15675221413E+02  0.13803986466E+04  0.23130945989E+04  0.18466149030E+04 0.  0.
         24    2    3    3    0    0 -0.66383577521E+03  0.37786136511E+02  0.12949919700E+04  0.14570987025E+04  0.63456267929E+02 0.  0.
    9900016    2    1    2    0    0 -0.18620925744E+03  0.15675221413E+02 -0.26397115621E+02  0.18588938690E+04  0.18492890548E+04 0.  0.
        -15    1    5    5    0    0 -0.10101828423E+02 -0.12710023362E+03 -0.37836517681E+02  0.13299668565E+03  0.00000000000E+00 0.  1.
        -15    1    4    4    0    0 -0.11027604835E+03  0.22264166587E+02  0.25923308304E+03  0.28259209348E+03  0.00000000000E+00 0.  1.
         15    1    3    3    0    0  0.85004503265E+03 -0.53461357924E+02  0.85406676627E+02  0.85599589645E+03  0.00000000000E+00 0. -1.
         15    1    5    5    0    0 -0.21773094416E+03 -0.58200318296E+03 -0.47641704015E+03  0.78301191892E+03  0.00000000000E+00 0. -1.
        -16    1    5    5    0    0  0.13267984663E+03  0.21379370861E+03  0.47340615790E+02  0.25603286010E+03  0.00000000000E+00 0.  1.
         16    1    4    4    0    0 -0.55355972686E+03  0.15521969924E+02  0.10357588869E+04  0.11745066090E+04  0.00000000000E+00 0. -1.
    9900018    1    5    5    0    0 -0.91056331491E+02  0.51098492938E+03  0.44051582642E+03  0.68685240429E+03  0.91187600000E+02 0.  0.
<mgrwt>
<rscale>  0 0.39461586E+04</rscale>
<asrwt>0</asrwt>
<pdfrwt beam="1">  1        2 0.21676823E+00 0.39461586E+04</pdfrwt>
<pdfrwt beam="2">  1       -2 0.42507615E+00 0.39461586E+04</pdfrwt>
<totfact> 0.57477604E-02</totfact>
</mgrwt>
</event>
<event>
12    1  0.3137226E-009  0.4693764E+04  0.7818608E-02  0.7877566E-01
         -2   -1    0    0    0  501 -0.00000000000E+00  0.00000000000E+00  0.22481292527E+04  0.22481292527E+04  0.00000000000E+00 0.  1.
          2   -1    0    0  501    0  0.00000000000E+00 -0.00000000000E+00 -0.24499723629E+04  0.24499723629E+04  0.00000000000E+00 0. -1.
    9900016    2    1    2    0    0  0.72436580140E+03 -0.74026838447E+03 -0.11250742069E+04  0.23947298588E+04  0.18428879592E+04 0.  0.
         24    2    3    3    0    0  0.34834728876E+03  0.44801216160E+03  0.17142362877E+03  0.59631188290E+03  0.64351151229E+02 0.  0.
    9900016    2    1    2    0    0 -0.72436580140E+03  0.74026838447E+03  0.92323109667E+03  0.23033717568E+04  0.18386034637E+04 0.  0.
        -15    1    5    5    0    0  0.29217358525E+03 -0.27089411245E+03  0.32206146030E+03  0.51232080603E+03  0.00000000000E+00 0. -1.
        -15    1    4    4    0    0  0.24974311978E+03  0.28386105180E+03  0.13448648689E+03  0.40129208535E+03  0.00000000000E+00 0.  1.
         15    1    3    3    0    0  0.37601851264E+03 -0.11882805461E+04 -0.12964978357E+04  0.17984179759E+04  0.00000000000E+00 0. -1.
         15    1    5    5    0    0  0.40623972956E+02 -0.49793854280E+02  0.14735327046E+03  0.16075671500E+03  0.00000000000E+00 0.  1.
        -16    1    5    5    0    0 -0.13724768229E+03  0.68614105555E+02 -0.79714101523E+02  0.17291373501E+03  0.00000000000E+00 0.  1.
         16    1    4    4    0    0  0.98604168981E+02  0.16415110980E+03  0.36937141875E+02  0.19501979756E+03  0.00000000000E+00 0. -1.
    9900018    1    5    5    0    0 -0.91991567732E+03  0.99234224565E+03  0.53353046743E+03  0.14573805007E+04  0.91187600000E+02 0.  0.
<mgrwt>
<rscale>  0 0.46937638E+04</rscale>
<asrwt>0</asrwt>
<pdfrwt beam="1">  1        2 0.37691882E+00 0.46937638E+04</pdfrwt>
<pdfrwt beam="2">  1       -2 0.34586604E+00 0.46937638E+04</pdfrwt>
<totfact> 0.45853693E-02</totfact>
</mgrwt>
</event>
<event>
12    1  0.3137226E-009  0.5174194E+04  0.7818608E-02  0.7802184E-01
          2   -1    0    0  501    0  0.00000000000E+00  0.00000000000E+00  0.44314396357E+04  0.44314396357E+04  0.00000000000E+00 0. -1.
         -2   -1    0    0    0  501 -0.00000000000E+00 -0.00000000000E+00 -0.15103602735E+04  0.15103602735E+04  0.00000000000E+00 0.  1.
    9900016    2    1    2    0    0 -0.12189607030E+02 -0.14821400637E+04  0.26737398681E+04  0.35717586166E+04  0.18470752498E+04 0.  0.
         24    2    3    3    0    0  0.79554291232E+03 -0.58382261663E+03  0.55773263557E+03  0.11351846558E+04  0.61976906763E+02 0.  0.
    9900016    2    1    2    0    0  0.12189607030E+02  0.14821400637E+04  0.24733949415E+03  0.23700412926E+04  0.18327659830E+04 0.  0.
        -15    1    4    4    0    0  0.32725648589E+03 -0.23643323786E+03  0.19356445842E+03  0.44773282556E+03  0.00000000000E+00 0.  1.
        -15    1    5    5    0    0 -0.14514612843E+03 -0.85152052435E+02  0.40084136478E+03  0.43473218233E+03  0.00000000000E+00 0. -1.
         15    1    3    3    0    0 -0.80773251935E+03 -0.89831744705E+03  0.21160072325E+04  0.24365739608E+04  0.00000000000E+00 0. -1.
         15    1    5    5    0    0 -0.49130146829E+02  0.30761564882E+01  0.11894326289E+03  0.12872736249E+03  0.00000000000E+00 0.  1.
        -16    1    5    5    0    0  0.44347536996E+03  0.60004661560E+03  0.76915976426E+02  0.75009493538E+03  0.00000000000E+00 0.  1.
         16    1    4    4    0    0  0.46828642643E+03 -0.34738937877E+03  0.36416817715E+03  0.68745183025E+03  0.00000000000E+00 0. -1.
    9900018    1    5    5    0    0 -0.23700948767E+03  0.96416934403E+03 -0.34936110995E+03  0.10564868124E+04  0.91187600000E+02 0.  0.
<mgrwt>
<rscale>  0 0.51741938E+04</rscale>
<asrwt>0</asrwt>
<pdfrwt beam="1">  1        2 0.68175994E+00 0.51741938E+04</pdfrwt>
<pdfrwt beam="2">  1       -2 0.23236312E+00 0.51741938E+04</pdfrwt>
<totfact> 0.84268941E-03</totfact>
</mgrwt>
</event>
<event>
13    1  0.3137226E-009  0.3982544E+04  0.7818608E-02  0.8008077E-01
         -1   -1    0    0    0  501 -0.00000000000E+00  0.00000000000E+00  0.15010287776E+04  0.15010287776E+04  0.00000000000E+00 0.  1.
          1   -1    0    0  501    0  0.00000000000E+00 -0.00000000000E+00 -0.26416311272E+04  0.26416311272E+04  0.00000000000E+00 0. -1.
    9900016    2    1    2    0    0 -0.32699127978E+03 -0.50714605795E+03 -0.11474812760E+03  0.19432179084E+04  0.18435857142E+04 0.  0.
        -24    2    3    3    0    0  0.47668756750E+03 -0.26532797265E+03 -0.72208118685E+03  0.90725018647E+03  0.63809798310E+02 0.  0.
    9900016    2    1    2    0    0  0.32699127978E+03  0.50714605795E+03 -0.10258542220E+04  0.21994419964E+04  0.18496074690E+04 0.  0.
         23    2    5    5    0    0 -0.34457533734E+03  0.40726659183E+03 -0.10135048843E+04  0.11514015238E+04  0.11804693389E+03 0.  0.
        -15    1    6    6    0    0 -0.18524724787E+03  0.24992080153E+03 -0.70122793329E+03  0.76713594904E+03  0.00000000000E+00 0. -1.
        -15    1    3    3    0    0 -0.80367884728E+03 -0.24181808530E+03  0.60733305926E+03  0.10359677219E+04  0.00000000000E+00 0.  1.
         15    1    6    6    0    0 -0.15932808947E+03  0.15734579030E+03 -0.31227695099E+03  0.38426557475E+03  0.00000000000E+00 0.  1.
         15    1    4    4    0    0  0.30193524527E+03 -0.14015392656E+03 -0.47037931916E+03  0.57625056994E+03  0.00000000000E+00 0. -1.
        -16    1    4    4    0    0  0.17475232223E+03 -0.12517404609E+03 -0.25170186769E+03  0.33099961652E+03  0.00000000000E+00 0.  1.
         16    1    5    5    0    0  0.24645367680E+03 -0.20510528974E+03  0.29392409640E+03  0.43497007843E+03  0.00000000000E+00 0. -1.
    9900018    1    5    5    0    0  0.42511294032E+03  0.30498475587E+03 -0.30627343410E+03  0.61307039414E+03  0.91187600000E+02 0.  0.
<mgrwt>
<rscale>  0 0.39825441E+04</rscale>
<asrwt>0</asrwt>
<pdfrwt beam="1">  1        1 0.40640479E+00 0.39825441E+04</pdfrwt>
<pdfrwt beam="2">  1       -1 0.23092750E+00 0.39825441E+04</pdfrwt>
<totfact> 0.78683724E-02</totfact>
</mgrwt>
</event>
<event>
13    1  0.3137226E-009  0.4654076E+04  0.7818608E-02  0.7884204E-01
         -2   -1    0    0    0  501 -0.00000000000E+00  0.00000000000E+00  0.38154480913E+04  0.38154480913E+04  0.00000000000E+00 0.  1.
          2   -1    0    0  501    0  0.00000000000E+00 -0.00000000000E+00 -0.14192584521E+04  0.14192584521E+04  0.00000000000E+00 0. -1.
    9900016    2    1    2    0    0  0.12337229700E+04  0.30545424492E+03  0.19313147879E+04  0.29577436197E+04  0.18446939712E+04 0.  0.
        -24    2    3    3    0    0 -0.40504490491E+03  0.39978185544E+03  0.69040727711E+03  0.89999988046E+03  0.97214554470E+02 0.  0.
    9900016    2    1    2    0    0 -0.12337229700E+04 -0.30545424492E+03  0.46487485126E+03  0.22769629238E+04  0.18311408647E+04 0.  0.
         23    2    5    5    0    0 -0.33138596019E+03  0.29209118187E+02  0.49624010072E+03  0.60732241258E+03  0.10916248467E+03 0.  0.
        -15    1    6    6    0    0 -0.10919489987E+03  0.27806512196E+02  0.25808021540E+03  0.28160633136E+03  0.00000000000E+00 0.  1.
        -15    1    3    3    0    0  0.16387678749E+04 -0.94327610522E+02  0.12409075108E+04  0.20577437392E+04  0.00000000000E+00 0.  1.
         15    1    4    4    0    0 -0.29930701896E+03  0.23288667096E+03  0.47227830788E+03  0.60569604028E+03  0.00000000000E+00 0. -1.
         15    1    6    6    0    0 -0.22219106032E+03  0.14026059915E+01  0.23815988532E+03  0.32571608122E+03  0.00000000000E+00 0. -1.
        -16    1    4    4    0    0 -0.10573788594E+03  0.16689518448E+03  0.21812896923E+03  0.29430384018E+03  0.00000000000E+00 0.  1.
         16    1    5    5    0    0  0.12663923056E+01 -0.57386157108E+03  0.33159673553E+03  0.66277832005E+03  0.00000000000E+00 0. -1.
    9900018    1    5    5    0    0 -0.90360340212E+03  0.23919820797E+03 -0.36296198499E+03  0.10068621911E+04  0.91187600000E+02 0.  0.
<mgrwt>
<rscale>  0 0.46540765E+04</rscale>
<asrwt>0</asrwt>
<pdfrwt beam="1">  1        2 0.21834746E+00 0.46540765E+04</pdfrwt>
<pdfrwt beam="2">  1       -2 0.58699201E+00 0.46540765E+04</pdfrwt>
<totfact> 0.60956929E-03</totfact>
</mgrwt>
</event>
<event>
13    1  0.3137226E-009  0.4606715E+04  0.7818608E-02  0.7892216E-01
         -2   -1    0    0    0  501 -0.00000000000E+00  0.00000000000E+00  0.11970420605E+04  0.11970420605E+04  0.00000000000E+00 0.  1.
          2   -1    0    0  501    0  0.00000000000E+00 -0.00000000000E+00 -0.44321390161E+04  0.44321390161E+04  0.00000000000E+00 0. -1.
    9900016    2    1    2    0    0  0.19538655639E+03 -0.73569886726E+02 -0.32876139971E+04  0.37663671338E+04  0.18257949387E+04 0.  0.
         24    2    3    3    0    0 -0.17538366028E+03  0.77181947028E+03 -0.88002617667E+03  0.11878728384E+04  0.10065329371E+03 0.  0.
    9900016    2    1    2    0    0 -0.19538655639E+03  0.73569886726E+02  0.52517041456E+02  0.18628139427E+04  0.18503322164E+04 0.  0.
         23    2    5    5    0    0  0.18816207380E+03 -0.92838054159E+02  0.50884975373E+03  0.55594722628E+03  0.78264782820E+02 0.  0.
        -15    1    6    6    0    0  0.13832656105E+03 -0.51004487633E+02  0.26164465522E+03  0.30032252805E+03  0.00000000000E+00 0. -1.
        -15    1    4    4    0    0 -0.10962553774E+03  0.64462163825E+03 -0.70090215918E+03  0.95855028651E+03  0.00000000000E+00 0.  1.
         15    1    6    6    0    0  0.49835512750E+02 -0.41833566525E+02  0.24720509851E+03  0.25562469823E+03  0.00000000000E+00 0.  1.
         15    1    3    3    0    0  0.37077021667E+03 -0.84538935701E+03 -0.24075878204E+04  0.25784942954E+04  0.00000000000E+00 0. -1.
        -16    1    5    5    0    0 -0.40645177631E+03  0.29411917210E+03 -0.79090570477E+03  0.93661142834E+03  0.00000000000E+00 0.  1.
         16    1    4    4    0    0 -0.65758122543E+02  0.12719783203E+03 -0.17912401750E+03  0.22932255187E+03  0.00000000000E+00 0. -1.
    9900018    1    5    5    0    0  0.22903146123E+02 -0.12771123121E+03  0.33457299250E+03  0.37025528812E+03  0.91187600000E+02 0.  0.
<mgrwt>
<rscale>  0 0.46067155E+04</rscale>
<asrwt>0</asrwt>
<pdfrwt beam="1">  1        2 0.68186754E+00 0.46067155E+04</pdfrwt>
<pdfrwt beam="2">  1       -2 0.18416032E+00 0.46067155E+04</pdfrwt>
<totfact> 0.18103947E-02</totfact>
</mgrwt>
</event>
<event>
13    1  0.3137227E-009  0.4463551E+04  0.7818608E-02  0.7917049E-01
         -1   -1    0    0    0  501 -0.00000000000E+00  0.00000000000E+00  0.11878128058E+04  0.11878128058E+04  0.00000000000E+00 0.  1.
          1   -1    0    0  501    0  0.00000000000E+00 -0.00000000000E+00 -0.41932709275E+04  0.41932709275E+04  0.00000000000E+00 0. -1.
    9900016    2    1    2    0    0 -0.32950449195E+03 -0.10024578768E+04 -0.22931063837E+04  0.31254684200E+04  0.18430195204E+04 0.  0.
         24    2    3    3    0    0 -0.17908874534E+03  0.14840272128E+03  0.23867592340E+03  0.34032449847E+03  0.68981312357E+02 0.  0.
    9900016    2    1    2    0    0  0.32950449195E+03  0.10024578768E+04 -0.71235173801E+03  0.22556153132E+04  0.18619507076E+04 0.  0.
         23    2    5    5    0    0 -0.23222285857E+03  0.48295210914E+03 -0.10760256995E+04  0.12089376949E+04  0.12856456819E+03 0.  0.
        -15    1    4    4    0    0 -0.78429159181E+02  0.25216856057E+02  0.97376776251E+02  0.12755100702E+03  0.00000000000E+00 0.  1.
        -15    1    6    6    0    0 -0.18535863061E+03  0.39016025153E+03 -0.96263701888E+03  0.10551079916E+04  0.00000000000E+00 0.  1.
         15    1    3    3    0    0 -0.15041574661E+03 -0.11508605981E+04 -0.25317823071E+04  0.27851439215E+04  0.00000000000E+00 0. -1.
         15    1    6    6    0    0 -0.46864227959E+02  0.92791857612E+02 -0.11338868067E+03  0.15382970326E+03  0.00000000000E+00 0. -1.
        -16    1    5    5    0    0  0.52914765903E+03  0.84748682360E+02  0.20812924347E+03  0.57488900338E+03  0.00000000000E+00 0.  1.
         16    1    4    4    0    0 -0.10065958616E+03  0.12318586522E+03  0.14129914715E+03  0.21277349144E+03  0.00000000000E+00 0. -1.
    9900018    1    5    5    0    0  0.32579691493E+02  0.43475708534E+03  0.15554471806E+03  0.47178861502E+03  0.91187600000E+02 0.  0.
<mgrwt>
<rscale>  0 0.44635506E+04</rscale>
<asrwt>0</asrwt>
<pdfrwt beam="1">  1        1 0.64511861E+00 0.44635506E+04</pdfrwt>
<pdfrwt beam="2">  1       -1 0.18274043E+00 0.44635506E+04</pdfrwt>
<totfact> 0.95747062E-03</totfact>
</mgrwt>
</event>
<event>
12    1  0.3137226E-009  0.4921887E+04  0.7818608E-02  0.7840671E-01
          2   -1    0    0  501    0  0.00000000000E+00  0.00000000000E+00  0.24640232592E+04  0.24640232592E+04  0.00000000000E+00 0. -1.
         -2   -1    0    0    0  501 -0.00000000000E+00 -0.00000000000E+00 -0.24578675382E+04  0.24578675382E+04  0.00000000000E+00 0.  1.
    9900016    2    1    2    0    0 -0.83064286206E+03 -0.46440421094E+03  0.13307810107E+04  0.24615840773E+04  0.18392333283E+04 0.  0.
    9900016    2    1    2    0    0  0.83064286206E+03  0.46440421094E+03 -0.13246252897E+04  0.24603067201E+04  0.18419658421E+04 0.  0.
         23    2    4    4    0    0 -0.27436585323E+03 -0.90557863731E+02  0.24421187615E+03  0.38300708700E+03  0.59813377586E+02 0.  0.
        -15    1    5    5    0    0 -0.15632846795E+03 -0.28702197694E+02  0.10619390183E+03  0.19115321297E+03  0.00000000000E+00 0.  1.
        -15    1    3    3    0    0 -0.43536717122E+03 -0.51356499934E+03 -0.32980764558E+03  0.74971105461E+03  0.00000000000E+00 0.  1.
         15    1    3    3    0    0 -0.77467087968E+02 -0.36271771304E+02  0.39922624588E+03  0.40828713733E+03  0.00000000000E+00 0. -1.
         15    1    5    5    0    0 -0.11803738529E+03 -0.61855666037E+02  0.13801797432E+03  0.19185387403E+03  0.00000000000E+00 0. -1.
        -16    1    3    3    0    0 -0.31780860288E+03  0.85432559702E+02  0.12613624104E+04  0.13035858854E+04  0.00000000000E+00 0.  1.
         16    1    4    4    0    0  0.82433991048E+03  0.50126100945E+03 -0.14759314991E+04  0.17632846275E+04  0.00000000000E+00 0. -1.
    9900018    1    4    4    0    0  0.28066880481E+03  0.53701065220E+02 -0.92905666742E+02  0.31401500555E+03  0.91187600000E+02 0.  0.
<mgrwt>
<rscale>  0 0.49218869E+04</rscale>
<asrwt>0</asrwt>
<pdfrwt beam="1">  1        2 0.37908050E+00 0.49218869E+04</pdfrwt>
<pdfrwt beam="2">  1       -2 0.37813347E+00 0.49218869E+04</pdfrwt>
<totfact> 0.27547273E-02</totfact>
</mgrwt>
</event>
