<event>
12    1  0.1006976E-009  0.1153833E+04  0.7818608E-02  0.9154255E-01
          1   -1    0    0  501    0  0.00000000000E+00  0.00000000000E+00  0.52281068663E+03  0.52281068663E+03  0.00000000000E+00 0. -1.
         -1   -1    0    0    0  501 -0.00000000000E+00 -0.00000000000E+00 -0.63662151042E+03  0.63662151042E+03  0.00000000000E+00 0.  1.
    9900016    2    1    2    0    0 -0.17021775823E+03  0.19293492023E+03  0.15969529133E+03  0.78392778474E+03  0.72307829241E+03 0.  0.
         25    2    3    3    0    0 -0.12361376679E+03 -0.14243965676E+03  0.23292861159E+03  0.32473384941E+03  0.12500766255E+03 0.  0.
         23    2    4    4    0    0 -0.11535927785E+03 -0.13396442641E+03  0.20318743792E+03  0.27553034202E+03  0.58117156778E+02 0.  0.
        -15    1    4    4    0    0  0.75214678238E+01 -0.70786867409E+01 -0.46604048953E+01  0.11331357288E+02  0.00000000000E+00 0.  1.
        -15    1    5    5    0    0 -0.82809894818E+02 -0.12242465637E+03  0.18404204185E+03  0.23604395424E+03  0.00000000000E+00 0.  1.
         15    1    4    4    0    0 -0.15775956764E+02 -0.13965436042E+01  0.34401578563E+02  0.37872150103E+02  0.00000000000E+00 0. -1.
         15    1    5    5    0    0 -0.32549383037E+02 -0.11539770043E+02  0.19145396075E+02  0.39486387776E+02  0.00000000000E+00 0. -1.
        -16    1    1    2    0    0  0.17021775823E+03 -0.19293492023E+03 -0.27350611512E+03  0.37550441231E+03  0.00000000000E+00 0.  1.
         16    1    3    3    0    0 -0.14386758379E+03  0.12802297130E+03 -0.89044861357E+02  0.21217151124E+03  0.00000000000E+00 0. -1.
    9900018    1    3    3    0    0  0.97263592359E+02  0.20735160569E+03  0.15811541098E+02  0.24702242409E+03  0.91187600000E+02 0.  0.
<mgrwt>
<rscale>  0 0.11538328E+04</rscale>
<asrwt>0</asrwt>
<pdfrwt beam="1">  1        1 0.80432414E-01 0.11538328E+04</pdfrwt>
<pdfrwt beam="2">  1       -1 0.97941770E-01 0.11538328E+04</pdfrwt>
<totfact> 0.41361183E+01</totfact>
</mgrwt>
</event>
<event>
13    1  0.1006976E-009  0.1328025E+04  0.7818608E-02  0.9007632E-01
         -1   -1    0    0    0  501 -0.00000000000E+00  0.00000000000E+00  0.31234338750E+03  0.31234338750E+03  0.00000000000E+00 0.  1.
          1   -1    0    0  501    0  0.00000000000E+00 -0.00000000000E+00 -0.14116279560E+04  0.14116279560E+04  0.00000000000E+00 0. -1.
    9900016    2    1    2    0    0 -0.26262747525E+03 -0.33270534818E+03 -0.42376228445E+03  0.92647752176E+03  0.70648431344E+03 0.  0.
         25    2    3    3    0    0  0.65055557304E+02 -0.15415160520E+02  0.75813821133E+01  0.14195874830E+03  0.12499982461E+03 0.  0.
         23    2    4    4    0    0  0.38034347496E+02 -0.70167024327E+00  0.15321273782E+02  0.73211008507E+02  0.60646569613E+02 0.  0.
         23    2    4    4    0    0  0.27021209808E+02 -0.14713490277E+02 -0.77398916686E+01  0.68747739790E+02  0.60989451773E+02 0.  0.
        -15    1    6    6    0    0  0.10764459163E+02 -0.32662983212E+02  0.13096767113E+02  0.36800398941E+02  0.00000000000E+00 0.  1.
        -15    1    5    5    0    0 -0.52256653318E+01  0.16806821969E+02 -0.98681729083E+01  0.20178148562E+02  0.00000000000E+00 0.  1.
         15    1    5    5    0    0  0.43260012828E+02 -0.17508492212E+02  0.25189446690E+02  0.53032859945E+02  0.00000000000E+00 0. -1.
         15    1    6    6    0    0  0.16256750645E+02  0.17949492935E+02 -0.20836658782E+02  0.31947340849E+02  0.00000000000E+00 0. -1.
        -16    1    3    3    0    0 -0.28993453366E+03 -0.59770056040E+02 -0.29989252688E+02  0.29754638073E+03  0.00000000000E+00 0.  1.
         16    1    1    2    0    0  0.26262747525E+03  0.33270534818E+03 -0.67552228403E+03  0.79749382172E+03  0.00000000000E+00 0. -1.
    9900018    1    3    3    0    0 -0.37748498891E+02 -0.25752013162E+03 -0.40135441387E+03  0.48697239273E+03  0.91187600000E+02 0.  0.
<mgrwt>
<rscale>  0 0.13280251E+04</rscale>
<asrwt>0</asrwt>
<pdfrwt beam="1">  1        1 0.21717353E+00 0.13280251E+04</pdfrwt>
<pdfrwt beam="2">  1       -1 0.48052830E-01 0.13280251E+04</pdfrwt>
<totfact> 0.31992379E+01</totfact>
</mgrwt>
</event>
<event>
12    1  0.1006976E-009  0.8838119E+03  0.7818608E-02  0.9446047E-01
         -5   -1    0    0    0  501 -0.00000000000E+00  0.00000000000E+00  0.31617910960E+03  0.31617910960E+03  0.00000000000E+00 0.  1.
          5   -1    0    0  501    0  0.00000000000E+00 -0.00000000000E+00 -0.61762742667E+03  0.61762742667E+03  0.00000000000E+00 0. -1.
    9900016    2    1    2    0    0  0.61035275046E+02  0.26464718537E+02 -0.39656742018E+03  0.81773186243E+03  0.71203510725E+03 0.  0.
         25    2    3    3    0    0  0.79550371369E+02 -0.15915637319E+03 -0.79719994742E+02  0.23160078090E+03  0.12499852576E+03 0.  0.
         23    2    4    4    0    0  0.65289658271E+02 -0.12543813434E+03 -0.90989882628E+02  0.18084448359E+03  0.66543996583E+02 0.  0.
        -15    1    4    4    0    0 -0.76839141772E+01 -0.21145429769E+02 -0.12559267986E+01  0.22533288471E+02  0.00000000000E+00 0.  1.
        -15    1    5    5    0    0 -0.55465954079E+01 -0.12630488960E+02  0.70105594589E+01  0.15473910815E+02  0.00000000000E+00 0. -1.
         15    1    5    5    0    0  0.70836253679E+02 -0.11280764538E+03 -0.98000442087E+02  0.16537057278E+03  0.00000000000E+00 0.  1.
         15    1    4    4    0    0  0.21944627275E+02 -0.12572809082E+02  0.12525814684E+02  0.28223008840E+02  0.00000000000E+00 0. -1.
        -16    1    1    2    0    0 -0.61035275046E+02 -0.26464718537E+02  0.95119103118E+02  0.11607467383E+03  0.00000000000E+00 0.  1.
         16    1    3    3    0    0 -0.18252299002E+03  0.10708871040E+03 -0.31886491731E+03  0.38269762120E+03  0.00000000000E+00 0. -1.
    9900018    1    3    3    0    0  0.16400789370E+03  0.78532381328E+02  0.20174918688E+01  0.20343346033E+03  0.91187600000E+02 0.  0.
<mgrwt>
<rscale>  0 0.88381195E+03</rscale>
<asrwt>0</asrwt>
<pdfrwt beam="1">  1        5 0.95019604E-01 0.88381195E+03</pdfrwt>
<pdfrwt beam="2">  1       -5 0.48642940E-01 0.88381195E+03</pdfrwt>
<totfact> 0.35040113E+00</totfact>
</mgrwt>
</event>
<event>
12    1  0.1006976E-009  0.7910065E+03  0.7818608E-02  0.9573127E-01
         -2   -1    0    0    0  501 -0.00000000000E+00  0.00000000000E+00  0.19880459684E+03  0.19880459684E+03  0.00000000000E+00 0.  1.
          2   -1    0    0  501    0  0.00000000000E+00 -0.00000000000E+00 -0.78681695291E+03  0.78681695291E+03  0.00000000000E+00 0. -1.
    9900016    2    1    2    0    0 -0.23400413061E+02 -0.36540543219E+02 -0.60209164238E+03  0.94000338525E+03  0.72056174463E+03 0.  0.
         25    2    3    3    0    0  0.16744454936E+02 -0.24880936677E+03 -0.16233298581E+03  0.32274054190E+03  0.12499192510E+03 0.  0.
         23    2    4    4    0    0  0.29629596875E+02 -0.19987836777E+03 -0.87456587658E+02  0.22866777485E+03  0.61733472410E+02 0.  0.
        -15    1    5    5    0    0  0.18668561182E+02 -0.11177812171E+02 -0.43680818423E+01  0.22193215191E+02  0.00000000000E+00 0.  1.
        -15    1    4    4    0    0 -0.20280810749E+02 -0.34799272076E+02 -0.46480721715E+02  0.61504130860E+02  0.00000000000E+00 0.  1.
         15    1    5    5    0    0  0.10961035693E+02 -0.18870055560E+03 -0.83088505815E+02  0.20647455966E+03  0.00000000000E+00 0. -1.
         15    1    4    4    0    0  0.73956688103E+01 -0.14131726918E+02 -0.28395676435E+02  0.32568636187E+02  0.00000000000E+00 0. -1.
        -16    1    1    2    0    0  0.23400413061E+02  0.36540543219E+02  0.14079286310E+02  0.45618164509E+02  0.00000000000E+00 0.  1.
         16    1    3    3    0    0  0.51806720473E+02  0.23831349786E+03 -0.12105905901E+03  0.27227294268E+03  0.00000000000E+00 0. -1.
    9900018    1    3    3    0    0 -0.91951588470E+02 -0.26044674315E+02 -0.31869959756E+03  0.34498990067E+03  0.91187600000E+02 0.  0.
<mgrwt>
<rscale>  0 0.79100652E+03</rscale>
<asrwt>0</asrwt>
<pdfrwt beam="1">  1        2 0.12104876E+00 0.79100652E+03</pdfrwt>
<pdfrwt beam="2">  1       -2 0.30585322E-01 0.79100652E+03</pdfrwt>
<totfact> 0.34989568E+02</totfact>
</mgrwt>
</event>
<event>
12    1  0.1006976E-009  0.8607653E+03  0.7818608E-02  0.9476001E-01
          2   -1    0    0  501    0  0.00000000000E+00  0.00000000000E+00  0.15529181794E+03  0.15529181794E+03  0.00000000000E+00 0. -1.
         -2   -1    0    0    0  501 -0.00000000000E+00 -0.00000000000E+00 -0.11927817142E+04  0.11927817142E+04  0.00000000000E+00 0.  1.
    9900016    2    1    2    0    0 -0.81581917122E+02  0.11941087779E+02 -0.71049000916E+03  0.10108390070E+04  0.71428372947E+03 0.  0.
         25    2    3    3    0    0 -0.12997587319E+03 -0.94707638811E+02 -0.16468613160E+03  0.26193451969E+03  0.12499962481E+03 0.  0.
         23    2    4    4    0    0 -0.71372858946E+02 -0.60716534243E+02 -0.11851316446E+03  0.17023049606E+03  0.78437676617E+02 0.  0.
        -15    1    4    4    0    0 -0.57247232384E+02 -0.14525622791E+02 -0.39623862585E+02  0.71121655066E+02  0.00000000000E+00 0.  1.
        -15    1    5    5    0    0  0.13687362937E+02 -0.15522258192E+02 -0.48726417570E+01  0.21260927572E+02  0.00000000000E+00 0.  1.
         15    1    4    4    0    0 -0.13557818623E+01 -0.19465481778E+02 -0.65491045572E+01  0.20582368566E+02  0.00000000000E+00 0. -1.
         15    1    5    5    0    0 -0.85060221883E+02 -0.45194276051E+02 -0.11364052270E+03  0.14896956849E+03  0.00000000000E+00 0. -1.
        -16    1    1    2    0    0  0.81581917122E+02 -0.11941087779E+02 -0.32699988712E+03  0.33723452515E+03  0.00000000000E+00 0.  1.
         16    1    3    3    0    0  0.76358834597E+02  0.23256386353E+03 -0.80747199673E+02  0.25775323955E+03  0.00000000000E+00 0. -1.
    9900018    1    3    3    0    0 -0.27964878526E+02 -0.12591513694E+03 -0.46505667788E+03  0.49115124776E+03  0.91187600000E+02 0.  0.
<mgrwt>
<rscale>  0 0.86076534E+03</rscale>
<asrwt>0</asrwt>
<pdfrwt beam="1">  1        2 0.23891050E-01 0.86076534E+03</pdfrwt>
<pdfrwt beam="2">  1       -2 0.18350487E+00 0.86076534E+03</pdfrwt>
<totfact> 0.39921076E+01</totfact>
</mgrwt>
</event>
<event>
12    1  0.1006976E-009  0.1133054E+04  0.7818608E-02  0.9173561E-01
          1   -1    0    0  501    0  0.00000000000E+00  0.00000000000E+00  0.73288601078E+03  0.73288601078E+03  0.00000000000E+00 0. -1.
         -1   -1    0    0    0  501 -0.00000000000E+00 -0.00000000000E+00 -0.43793036624E+03  0.43793036624E+03  0.00000000000E+00 0.  1.
    9900016    2    1    2    0    0 -0.25133970956E+02  0.22329720523E+03 -0.79528754576E+02  0.73408771579E+03  0.69431015642E+03 0.  0.
         25    2    3    3    0    0  0.18306557391E+02  0.18984098180E+03 -0.25542298772E+03  0.34240174512E+03  0.12499329578E+03 0.  0.
         23    2    4    4    0    0 -0.20065856436E+02  0.13880206878E+03 -0.18442302211E+03  0.24453352108E+03  0.78205747592E+02 0.  0.
        -15    1    4    4    0    0  0.15338307594E+02  0.54820809390E+01 -0.18237534859E+02  0.24452496171E+02  0.00000000000E+00 0.  1.
        -15    1    5    5    0    0 -0.12119630696E+02  0.99377623924E+02 -0.67130136460E+02  0.12053735025E+03  0.00000000000E+00 0.  1.
         15    1    4    4    0    0  0.23034106232E+02  0.45556832084E+02 -0.52762430753E+02  0.73415727868E+02  0.00000000000E+00 0. -1.
         15    1    5    5    0    0 -0.79462257397E+01  0.39424444852E+02 -0.11729288565E+03  0.12399617083E+03  0.00000000000E+00 0. -1.
        -16    1    3    3    0    0 -0.67596318327E+02  0.21986263488E+02 -0.86882198605E+02  0.11225495298E+03  0.00000000000E+00 0.  1.
         16    1    1    2    0    0  0.25133970956E+02 -0.22329720523E+03  0.37448439912E+03  0.43672866123E+03  0.00000000000E+00 0. -1.
    9900018    1    3    3    0    0  0.24155789980E+02  0.11469959944E+02  0.26277643175E+03  0.27943101769E+03  0.91187600000E+02 0.  0.
<mgrwt>
<rscale>  0 0.11330543E+04</rscale>
<asrwt>0</asrwt>
<pdfrwt beam="1">  1        1 0.11275169E+00 0.11330543E+04</pdfrwt>
<pdfrwt beam="2">  1       -1 0.67373902E-01 0.11330543E+04</pdfrwt>
<totfact> 0.56343123E+01</totfact>
</mgrwt>
</event>
<event>
12    1  0.1006976E-009  0.8818089E+03  0.7818608E-02  0.9448611E-01
         -3   -1    0    0    0  501 -0.00000000000E+00  0.00000000000E+00  0.51824360668E+03  0.51824360668E+03  0.00000000000E+00 0.  1.
          3   -1    0    0  501    0  0.00000000000E+00 -0.00000000000E+00 -0.37510687136E+03  0.37510687136E+03  0.00000000000E+00 0. -1.
    9900016    2    1    2    0    0 -0.10756945838E+03  0.78433429138E+02  0.41827886624E+02  0.72605889426E+03  0.71252295026E+03 0.  0.
         25    2    3    3    0    0 -0.42108450602E+02 -0.35018990033E+02  0.12624673000E+03  0.18590906166E+03  0.12499796437E+03 0.  0.
         23    2    4    4    0    0 -0.30064931704E+02  0.11238051264E+02  0.68865266078E+02  0.97500846186E+02  0.61104797032E+02 0.  0.
        -15    1    4    4    0    0 -0.28940253476E+01 -0.33727917604E+02  0.63316218371E+02  0.71797571808E+02  0.00000000000E+00 0. -1.
        -15    1    5    5    0    0 -0.23437803547E+02  0.26434856407E+02  0.10543834348E+02  0.36868749791E+02  0.00000000000E+00 0. -1.
         15    1    5    5    0    0 -0.66271281576E+01 -0.15196805143E+02  0.58321431730E+02  0.60632096395E+02  0.00000000000E+00 0.  1.
         15    1    4    4    0    0 -0.91494935496E+01 -0.12529123693E+02 -0.59347544446E+01  0.16610643667E+02  0.00000000000E+00 0.  1.
        -16    1    3    3    0    0 -0.18594094662E+03 -0.14094408028E+03 -0.32973296452E+01  0.23334554159E+03  0.00000000000E+00 0.  1.
         16    1    1    2    0    0  0.10756945838E+03 -0.78433429138E+02  0.10130884869E+03  0.16729158379E+03  0.00000000000E+00 0. -1.
    9900018    1    3    3    0    0  0.12047993884E+03  0.25439649945E+03 -0.81121513736E+02  0.30680429101E+03  0.91187600000E+02 0.  0.
<mgrwt>
<rscale>  0 0.88180891E+03</rscale>
<asrwt>0</asrwt>
<pdfrwt beam="1">  1        3 0.57708749E-01 0.88180891E+03</pdfrwt>
<pdfrwt beam="2">  1       -3 0.79729786E-01 0.88180891E+03</pdfrwt>
<totfact> 0.11354593E+01</totfact>
</mgrwt>
</event>
<event>
11    1  0.1006976E-009  0.1252604E+04  0.7818608E-02  0.9068019E-01
          1   -1    0    0  501    0  0.00000000000E+00  0.00000000000E+00  0.54903625591E+03  0.54903625591E+03  0.00000000000E+00 0. -1.
         -1   -1    0    0    0  501 -0.00000000000E+00 -0.00000000000E+00 -0.71444120913E+03  0.71444120913E+03  0.00000000000E+00 0.  1.
    9900016    2    1    2    0    0  0.25203252857E+03 -0.35665033256E+03 -0.13385553119E+03  0.82562449748E+03  0.68776351490E+03 0.  0.
         25    2    3    3    0    0 -0.17617097556E+01  0.39391107821E+02 -0.35461793187E+02  0.13578340624E+03  0.12499932655E+03 0.  0.
        -15    1    4    4    0    0 -0.86878684600E+01  0.26011990882E+02 -0.14306135671E+01  0.27461780409E+02  0.00000000000E+00 0.  1.
        -15    1    4    4    0    0 -0.98951113702E+01 -0.12126793357E+02 -0.16561886833E+02  0.22787462378E+02  0.00000000000E+00 0.  1.
         15    1    4    4    0    0 -0.15813782052E+02  0.60078816412E+01  0.23944520065E+02  0.29317407555E+02  0.00000000000E+00 0. -1.
         15    1    4    4    0    0  0.32635052126E+02  0.19498028655E+02 -0.41413812852E+02  0.56216755898E+02  0.00000000000E+00 0. -1.
        -16    1    3    3    0    0 -0.13293650984E+03 -0.17390768892E+03 -0.83813209970E+02  0.23439422792E+03  0.00000000000E+00 0.  1.
         16    1    1    2    0    0 -0.25203252857E+03  0.35665033256E+03 -0.31549422024E+02  0.43785296756E+03  0.00000000000E+00 0. -1.
    9900018    1    3    3    0    0  0.38673074817E+03 -0.22213375146E+03 -0.14580528036E+02  0.45544686332E+03  0.91187600000E+02 0.  0.
<mgrwt>
<rscale>  0 0.12526039E+04</rscale>
<asrwt>0</asrwt>
<pdfrwt beam="1">  1        1 0.84467116E-01 0.12526039E+04</pdfrwt>
<pdfrwt beam="2">  1       -1 0.10991403E+00 0.12526039E+04</pdfrwt>
<totfact> 0.29330252E+01</totfact>
</mgrwt>
</event>
<event>
12    1  0.1006976E-009  0.8689790E+03  0.7818608E-02  0.9465212E-01
          2   -1    0    0  501    0  0.00000000000E+00  0.00000000000E+00  0.27748731192E+04  0.27748731192E+04  0.00000000000E+00 0. -1.
         -2   -1    0    0    0  501 -0.00000000000E+00 -0.00000000000E+00 -0.68032338210E+02  0.68032338210E+02  0.00000000000E+00 0.  1.
    9900016    2    1    2    0    0  0.90877645618E+02  0.90110160245E+02  0.21663365510E+04  0.22874566208E+04  0.72323243318E+03 0.  0.
         25    2    3    3    0    0  0.92661279216E+02  0.42994047568E+02  0.60115866502E+03  0.62245619037E+03  0.12500147042E+03 0.  0.
         23    2    4    4    0    0  0.12910177440E+02  0.47159965039E+02  0.33767945354E+03  0.34650182129E+03  0.60376848434E+02 0.  0.
        -15    1    5    5    0    0 -0.22946389456E+02  0.83496083242E+01  0.12446683892E+03  0.12683945261E+03  0.00000000000E+00 0.  1.
        -15    1    4    4    0    0  0.29215433876E+02  0.30776991326E+01  0.71422161590E+02  0.77227838081E+02  0.00000000000E+00 0.  1.
         15    1    5    5    0    0  0.35856566896E+02  0.38810356715E+02  0.21321261462E+03  0.21966236868E+03  0.00000000000E+00 0. -1.
         15    1    4    4    0    0  0.50535667900E+02 -0.72436166037E+01  0.19205704989E+03  0.19872653100E+03  0.00000000000E+00 0. -1.
        -16    1    1    2    0    0 -0.90877645618E+02 -0.90110160245E+02  0.54050422997E+03  0.55544883659E+03  0.00000000000E+00 0.  1.
         16    1    3    3    0    0  0.27440963010E+03  0.26374939054E+02  0.79801302786E+03  0.84428731788E+03  0.00000000000E+00 0. -1.
    9900018    1    3    3    0    0 -0.27619326369E+03  0.20741173623E+02  0.76716485816E+03  0.82071311259E+03  0.91187600000E+02 0.  0.
<mgrwt>
<rscale>  0 0.86897896E+03</rscale>
<asrwt>0</asrwt>
<pdfrwt beam="1">  1        2 0.42690347E+00 0.86897896E+03</pdfrwt>
<pdfrwt beam="2">  1       -2 0.10466516E-01 0.86897896E+03</pdfrwt>
<totfact> 0.15776962E+02</totfact>
</mgrwt>
</event>
<event>
12    1  0.1006976E-009  0.9793857E+03  0.7818608E-02  0.9331448E-01
          1   -1    0    0  501    0  0.00000000000E+00  0.00000000000E+00  0.12475537119E+04  0.12475537119E+04  0.00000000000E+00 0. -1.
         -1   -1    0    0    0  501 -0.00000000000E+00 -0.00000000000E+00 -0.19221544130E+03  0.19221544130E+03  0.00000000000E+00 0.  1.
    9900016    2    1    2    0    0 -0.72496808591E+02  0.65675054762E+02  0.48980586745E+03  0.86583893175E+03  0.70724696385E+03 0.  0.
         25    2    3    3    0    0 -0.13023474652E+03 -0.94567878575E+02  0.38381192920E+03  0.43455252644E+03  0.12498051203E+03 0.  0.
         23    2    4    4    0    0 -0.86883988167E+02 -0.37081979151E+02  0.16042020961E+03  0.19814765380E+03  0.67852402130E+02 0.  0.
        -15    1    4    4    0    0 -0.25713653550E+02 -0.15735686754E+02  0.64894176253E+02  0.71554580064E+02  0.00000000000E+00 0. -1.
        -15    1    5    5    0    0  0.11448761081E+02 -0.20701438312E+01  0.12157140371E+02  0.16827230544E+02  0.00000000000E+00 0.  1.
         15    1    5    5    0    0 -0.98332749248E+02 -0.35011835319E+02  0.14826306924E+03  0.18132042325E+03  0.00000000000E+00 0.  1.
         15    1    4    4    0    0 -0.17637104805E+02 -0.41750212670E+02  0.15849754333E+03  0.16485029258E+03  0.00000000000E+00 0. -1.
        -16    1    3    3    0    0 -0.36890573425E+02 -0.95442847757E+02  0.10098201362E+03  0.14376236875E+03  0.00000000000E+00 0.  1.
         16    1    1    2    0    0  0.72496808591E+02 -0.65675054762E+02  0.56553240314E+03  0.57393022143E+03  0.00000000000E+00 0. -1.
    9900018    1    3    3    0    0  0.94628511356E+02  0.25568578109E+03  0.50119246356E+01  0.28752403656E+03  0.91187600000E+02 0.  0.
<mgrwt>
<rscale>  0 0.97938570E+03</rscale>
<asrwt>0</asrwt>
<pdfrwt beam="1">  1        1 0.19193134E+00 0.97938570E+03</pdfrwt>
<pdfrwt beam="2">  1       -1 0.29571607E-01 0.97938570E+03</pdfrwt>
<totfact> 0.10353998E+02</totfact>
</mgrwt>
</event>
<event>
12    1  0.1006976E-009  0.1785381E+04  0.7818608E-02  0.8714113E-01
         -2   -1    0    0    0  501 -0.00000000000E+00  0.00000000000E+00  0.60634631371E+03  0.60634631371E+03  0.00000000000E+00 0.  1.
          2   -1    0    0  501    0  0.00000000000E+00 -0.00000000000E+00 -0.13142593500E+04  0.13142593500E+04  0.00000000000E+00 0. -1.
    9900016    2    1    2    0    0  0.65530121595E+03  0.34834687423E+03 -0.51756795377E+03  0.11544487092E+04  0.71701464911E+03 0.  0.
         25    2    3    3    0    0  0.19069643611E+03 -0.11911109258E+03 -0.15814464442E+03  0.30197238056E+03  0.12500002775E+03 0.  0.
         23    2    4    4    0    0  0.96321603914E+02 -0.72580507321E+02 -0.98975999571E+02  0.17473390558E+03  0.78675967396E+02 0.  0.
        -15    1    5    5    0    0  0.37684967036E+02  0.61565654208E+01 -0.44355892781E+01  0.38441312289E+02  0.00000000000E+00 0.  1.
        -15    1    4    4    0    0  0.20020247049E+02 -0.30131201680E+02 -0.14592397789E+02  0.39008174526E+02  0.00000000000E+00 0.  1.
         15    1    5    5    0    0  0.58636636878E+02 -0.78737072742E+02 -0.94540410292E+02  0.13629259329E+03  0.00000000000E+00 0. -1.
         15    1    4    4    0    0  0.74354585151E+02 -0.16399383580E+02 -0.44576247065E+02  0.88230300448E+02  0.00000000000E+00 0. -1.
        -16    1    1    2    0    0 -0.65530121595E+03 -0.34834687423E+03 -0.19034508247E+03  0.76615695444E+03  0.00000000000E+00 0.  1.
         16    1    3    3    0    0  0.36896807575E+03  0.50110369235E+03 -0.35417212383E+03  0.71601693046E+03  0.00000000000E+00 0. -1.
    9900018    1    3    3    0    0  0.95636704087E+02 -0.33645725533E+02 -0.52511855145E+01  0.13645939820E+03  0.91187600000E+02 0.  0.
<mgrwt>
<rscale>  0 0.17853810E+04</rscale>
<asrwt>0</asrwt>
<pdfrwt beam="1">  1        2 0.20219374E+00 0.17853810E+04</pdfrwt>
<pdfrwt beam="2">  1       -2 0.93284050E-01 0.17853810E+04</pdfrwt>
<totfact> 0.14909360E+01</totfact>
</mgrwt>
</event>
<event>
11    1  0.1006976E-009  0.1201913E+04  0.7818608E-02  0.9111184E-01
          2   -1    0    0  501    0  0.00000000000E+00  0.00000000000E+00  0.10500250050E+04  0.10500250050E+04  0.00000000000E+00 0. -1.
         -2   -1    0    0    0  501 -0.00000000000E+00 -0.00000000000E+00 -0.34394293760E+03  0.34394293760E+03  0.00000000000E+00 0.  1.
    9900016    2    1    2    0    0  0.21424687412E+03  0.73711458848E+01  0.99638720592E+02  0.75074979161E+03  0.71255969441E+03 0.  0.
         25    2    3    3    0    0  0.97006885518E+02  0.96140660473E+02  0.74793626413E+02  0.19968118591E+03  0.12500050808E+03 0.  0.
        -15    1    4    4    0    0  0.20966625984E+01  0.17164028959E+02  0.29051005357E+02  0.33807703211E+02  0.00000000000E+00 0.  1.
        -15    1    4    4    0    0  0.37887445800E+02  0.20367739839E+02 -0.66530416325E+01  0.43526616436E+02  0.00000000000E+00 0.  1.
         15    1    4    4    0    0  0.24624753781E+02  0.71394004959E+02  0.39316343010E+02  0.85142570260E+02  0.00000000000E+00 0. -1.
         15    1    4    4    0    0  0.32398023339E+02 -0.12785113285E+02  0.13079319679E+02  0.37204296005E+02  0.00000000000E+00 0. -1.
        -16    1    3    3    0    0  0.14107865315E+03  0.18473285777E+03  0.98658250843E+02  0.25251309980E+03  0.00000000000E+00 0.  1.
         16    1    1    2    0    0 -0.21424687412E+03 -0.73711458848E+01  0.60644334682E+03  0.64321815100E+03  0.00000000000E+00 0. -1.
    9900018    1    3    3    0    0 -0.23838664546E+02 -0.27350237235E+03 -0.73813156664E+02  0.29855550590E+03  0.91187600000E+02 0.  0.
<mgrwt>
<rscale>  0 0.12019129E+04</rscale>
<asrwt>0</asrwt>
<pdfrwt beam="1">  1        2 0.16154231E+00 0.12019129E+04</pdfrwt>
<pdfrwt beam="2">  1       -2 0.52914298E-01 0.12019129E+04</pdfrwt>
<totfact> 0.77784692E+01</totfact>
</mgrwt>
</event>
<event>
12    1  0.1006976E-009  0.1028413E+04  0.7818608E-02  0.9277920E-01
         -2   -1    0    0    0  501 -0.00000000000E+00  0.00000000000E+00  0.17688301880E+03  0.17688301880E+03  0.00000000000E+00 0.  1.
          2   -1    0    0  501    0  0.00000000000E+00 -0.00000000000E+00 -0.14948199518E+04  0.14948199518E+04  0.00000000000E+00 0. -1.
    9900016    2    1    2    0    0  0.36054614820E+02  0.23301593306E+03 -0.75788363488E+03  0.10640385426E+04  0.70865651469E+03 0.  0.
         25    2    3    3    0    0 -0.29840189229E+02  0.23058088455E+03 -0.19303439904E+03  0.32702507190E+03  0.12500054891E+03 0.  0.
         23    2    4    4    0    0  0.14069492258E+02  0.18376877055E+03 -0.15712508446E+03  0.25016723854E+03  0.62661339201E+02 0.  0.
        -15    1    4    4    0    0 -0.15429043657E+02  0.30478524913E+01 -0.88874474178E+01  0.18064648200E+02  0.00000000000E+00 0.  1.
        -15    1    5    5    0    0 -0.19929998443E+01  0.48718973579E+02 -0.80361229062E+02  0.93997008310E+02  0.00000000000E+00 0. -1.
         15    1    4    4    0    0 -0.28480637831E+02  0.43764261509E+02 -0.27021867163E+02  0.58793185164E+02  0.00000000000E+00 0.  1.
         15    1    5    5    0    0  0.16062492103E+02  0.13504979697E+03 -0.76763855396E+02  0.15617023023E+03  0.00000000000E+00 0. -1.
        -16    1    3    3    0    0  0.64282505194E+00 -0.40423662773E+02  0.75428524267E+02  0.85580067826E+02  0.00000000000E+00 0.  1.
         16    1    1    2    0    0 -0.36054614820E+02 -0.23301593306E+03 -0.56005329813E+03  0.60766442800E+03  0.00000000000E+00 0. -1.
    9900018    1    3    3    0    0  0.65251978997E+02  0.42858711286E+02 -0.64027776011E+03  0.65143340287E+03  0.91187600000E+02 0.  0.
<mgrwt>
<rscale>  0 0.10284129E+04</rscale>
<asrwt>0</asrwt>
<pdfrwt beam="1">  1        2 0.22997229E+00 0.10284129E+04</pdfrwt>
<pdfrwt beam="2">  1       -2 0.27212774E-01 0.10284129E+04</pdfrwt>
<totfact> 0.15639293E+02</totfact>
</mgrwt>
</event>
<event>
12    1  0.1006976E-009  0.1183716E+04  0.7818608E-02  0.9127230E-01
          2   -1    0    0  501    0  0.00000000000E+00  0.00000000000E+00  0.11727676043E+04  0.11727676043E+04  0.00000000000E+00 0. -1.
         -2   -1    0    0    0  501 -0.00000000000E+00 -0.00000000000E+00 -0.29869177786E+03  0.29869177786E+03  0.00000000000E+00 0.  1.
    9900016    2    1    2    0    0  0.21852214831E+03 -0.30915250890E+03  0.60924257856E+03  0.10094378975E+04  0.71025428291E+03 0.  0.
         25    2    3    3    0    0  0.73088646881E+01 -0.23828981209E+03  0.73779806597E+02  0.27911321359E+03  0.12500108834E+03 0.  0.
         23    2    4    4    0    0 -0.84549577558E+00 -0.70389413745E+02  0.19990977418E+01  0.93722947992E+02  0.61843432618E+02 0.  0.
        -15    1    4    4    0    0 -0.52255037168E+01 -0.12363004251E+02  0.12684197666E+02  0.18467231347E+02  0.00000000000E+00 0.  1.
        -15    1    5    5    0    0  0.12988004305E+01 -0.18345580624E+02  0.29543614621E+02  0.34800465167E+02  0.00000000000E+00 0. -1.
         15    1    4    4    0    0  0.13379864180E+02 -0.15553739410E+03  0.59096511188E+02  0.16692303425E+03  0.00000000000E+00 0. -1.
         15    1    5    5    0    0 -0.21442962061E+01 -0.52043833121E+02 -0.27544516879E+02  0.58922482824E+02  0.00000000000E+00 0.  1.
        -16    1    3    3    0    0  0.77424118462E+02  0.18013262176E+03  0.24375738739E+03  0.31282570139E+03  0.00000000000E+00 0.  1.
         16    1    1    2    0    0 -0.21852214831E+03  0.30915250890E+03  0.26483324786E+03  0.46202148460E+03  0.00000000000E+00 0. -1.
    9900018    1    3    3    0    0  0.13378916516E+03 -0.25099531857E+03  0.29170538457E+03  0.41749898256E+03  0.91187600000E+02 0.  0.
<mgrwt>
<rscale>  0 0.11837163E+04</rscale>
<asrwt>0</asrwt>
<pdfrwt beam="1">  1        2 0.18042578E+00 0.11837163E+04</pdfrwt>
<pdfrwt beam="2">  1       -2 0.45952582E-01 0.11837163E+04</pdfrwt>
<totfact> 0.87200299E+01</totfact>
</mgrwt>
</event>
<event>
12    1  0.1006976E-009  0.8728661E+03  0.7818608E-02  0.9460150E-01
          3   -1    0    0  501    0  0.00000000000E+00  0.00000000000E+00  0.26156946791E+03  0.26156946791E+03  0.00000000000E+00 0. -1.
         -3   -1    0    0    0  501 -0.00000000000E+00 -0.00000000000E+00 -0.72819595668E+03  0.72819595668E+03  0.00000000000E+00 0.  1.
    9900016    2    1    2    0    0 -0.81014480148E+02 -0.48236634973E+02 -0.51841631374E+03  0.88219077647E+03  0.70754149899E+03 0.  0.
         25    2    3    3    0    0 -0.29173024182E+02  0.58526742144E+02 -0.10770094380E+02  0.14148897048E+03  0.12500675561E+03 0.  0.
         23    2    4    4    0    0 -0.16409270364E+02  0.15791960293E+02 -0.20786510410E+01  0.79337232814E+02  0.75969899017E+02 0.  0.
        -15    1    4    4    0    0  0.11185193260E+02  0.91482482545E+01  0.92621608289E+01  0.17163525792E+02  0.00000000000E+00 0.  1.
        -15    1    5    5    0    0 -0.10422996022E+02 -0.26857887409E+02  0.15623544937E+02  0.32773161558E+02  0.00000000000E+00 0. -1.
         15    1    4    4    0    0 -0.23948947079E+02  0.33586533596E+02 -0.17953604168E+02  0.44988211876E+02  0.00000000000E+00 0. -1.
         15    1    5    5    0    0 -0.59862743415E+01  0.42649847701E+02 -0.17702195978E+02  0.46564071255E+02  0.00000000000E+00 0.  1.
        -16    1    3    3    0    0 -0.85581182103E+02 -0.21437765180E+03 -0.54420270910E+03  0.59113323786E+03  0.00000000000E+00 0.  1.
         16    1    1    2    0    0  0.81014480148E+02  0.48236634973E+02  0.51789824972E+02  0.10757464812E+03  0.00000000000E+00 0. -1.
    9900018    1    3    3    0    0  0.33739726137E+02  0.10761427468E+03  0.36556489737E+02  0.14956856813E+03  0.91187600000E+02 0.  0.
<mgrwt>
<rscale>  0 0.87286615E+03</rscale>
<asrwt>0</asrwt>
<pdfrwt beam="1">  1        3 0.40241457E-01 0.87286615E+03</pdfrwt>
<pdfrwt beam="2">  1       -3 0.11203015E+00 0.87286615E+03</pdfrwt>
<totfact> 0.10777250E+01</totfact>
</mgrwt>
</event>
<event>
12    1  0.1011668E-009  0.9688033E+03  0.7818608E-02  0.9343438E-01
          2   -1    0    0  501    0  0.00000000000E+00  0.00000000000E+00  0.11950491451E+04  0.11950491451E+04  0.00000000000E+00 0. -1.
         -2   -1    0    0    0  501 -0.00000000000E+00 -0.00000000000E+00 -0.19634755007E+03  0.19634755007E+03  0.00000000000E+00 0.  1.
    9900016    2    1    2    0    0  0.22843213107E+02 -0.86117074062E+02  0.55642691556E+03  0.94023723896E+03  0.75266007623E+03 0.  0.
         25    2    3    3    0    0 -0.26634022672E+02  0.49014194096E+02  0.14295124484E+03  0.19791655816E+03  0.12499657279E+03 0.  0.
         23    2    4    4    0    0 -0.69388894170E+01  0.65872491842E+01  0.27787182311E+02  0.72708737987E+02  0.66504834717E+02 0.  0.
        -15    1    5    5    0    0 -0.10389259042E+02  0.34680767213E+02  0.25559066904E+02  0.44316568221E+02  0.00000000000E+00 0. -1.
        -15    1    4    4    0    0 -0.17784534055E+02  0.21685243246E+02  0.72356428348E+02  0.77601495794E+02  0.00000000000E+00 0. -1.
         15    1    5    5    0    0  0.34503696255E+01 -0.28093518028E+02  0.22281154071E+01  0.28392169766E+02  0.00000000000E+00 0.  1.
         15    1    4    4    0    0 -0.19105992008E+01  0.20741701666E+02  0.42807634176E+02  0.47606324381E+02  0.00000000000E+00 0.  1.
        -16    1    3    3    0    0  0.31728803109E+03 -0.51652667792E+02  0.22125090757E+03  0.39024563658E+03  0.00000000000E+00 0.  1.
         16    1    1    2    0    0 -0.22843213107E+02  0.86117074062E+02  0.44227467951E+03  0.45115945625E+03  0.00000000000E+00 0. -1.
    9900018    1    3    3    0    0 -0.26781079531E+03 -0.83478600366E+02  0.19222476315E+03  0.35207504423E+03  0.91187600000E+02 0.  0.
<mgrwt>
<rscale>  0 0.96880333E+03</rscale>
<asrwt>0</asrwt>
<pdfrwt beam="1">  1        2 0.18385371E+00 0.96880333E+03</pdfrwt>
<pdfrwt beam="2">  1       -2 0.30207316E-01 0.96880333E+03</pdfrwt>
<totfact> 0.19273936E+02</totfact>
</mgrwt>
</event>
<event>
11    1  0.1006976E-009  0.8300465E+03  0.7818608E-02  0.9517516E-01
         -2   -1    0    0    0  501 -0.00000000000E+00  0.00000000000E+00  0.97526025772E+02  0.97526025772E+02  0.00000000000E+00 0. -1.
          2   -1    0    0  501    0  0.00000000000E+00 -0.00000000000E+00 -0.17661366641E+04  0.17661366641E+04  0.00000000000E+00 0.  1.
    9900016    2    1    2    0    0 -0.31762786565E+02  0.29647154391E+02 -0.16713031924E+04  0.18201301937E+04  0.71953577592E+03 0.  0.
         25    2    3    3    0    0  0.50386709558E+02 -0.11671528256E+03 -0.27461404694E+03  0.32740984632E+03  0.12499221978E+03 0.  0.
        -15    1    4    4    0    0 -0.12982385168E+02 -0.21866623389E+02 -0.33960965084E+02  0.42426862865E+02  0.00000000000E+00 0.  1.
        -15    1    4    4    0    0  0.43855665001E+02 -0.12386720361E+02 -0.14575854880E+03  0.15271641936E+03  0.00000000000E+00 0.  1.
         15    1    4    4    0    0  0.72516187482E+01 -0.11736042297E+02 -0.38761834161E+02  0.41143656265E+02  0.00000000000E+00 0. -1.
         15    1    4    4    0    0  0.12261810978E+02 -0.70725896512E+02 -0.56132698892E+02  0.91122907826E+02  0.00000000000E+00 0. -1.
        -16    1    3    3    0    0  0.51302121017E+01  0.12593644667E+03 -0.13511036082E+04  0.13569698846E+04  0.00000000000E+00 0.  1.
         16    1    1    2    0    0  0.31762786565E+02 -0.29647154391E+02  0.26925540581E+01  0.43532496152E+02  0.00000000000E+00 0. -1.
    9900018    1    3    3    0    0 -0.87279708225E+02  0.20425990276E+02 -0.45585537254E+02  0.13575046279E+03  0.91187600000E+02 0.  0.
<mgrwt>
<rscale>  0 0.83004648E+03</rscale>
<asrwt>0</asrwt>
<pdfrwt beam="1">  1        2 0.27171330E+00 0.83004648E+03</pdfrwt>
<pdfrwt beam="2">  1       -2 0.15004006E-01 0.83004648E+03</pdfrwt>
<totfact> 0.31949831E+02</totfact>
</mgrwt>
</event>
<event>
11    1  0.1006976E-009  0.1022433E+04  0.7818608E-02  0.9284278E-01
          1   -1    0    0  501    0  0.00000000000E+00  0.00000000000E+00  0.21192521345E+03  0.21192521345E+03  0.00000000000E+00 0.  1.
         -1   -1    0    0    0  501 -0.00000000000E+00 -0.00000000000E+00 -0.12331811164E+04  0.12331811164E+04  0.00000000000E+00 0. -1.
    9900016    2    1    2    0    0  0.15780322713E+03 -0.19789820703E+03 -0.87780019860E+03  0.11541680237E+04  0.70534039976E+03 0.  0.
         25    2    3    3    0    0 -0.13684548242E+02 -0.56741978249E+02 -0.25773807366E+03  0.29233907793E+03  0.12500521156E+03 0.  0.
        -15    1    4    4    0    0 -0.61664492255E+01 -0.16401447099E+02 -0.62066127125E+02  0.64492144478E+02  0.00000000000E+00 0. -1.
        -15    1    4    4    0    0  0.17721284787E+02  0.26022135781E+01 -0.47910827865E+02  0.51149417169E+02  0.00000000000E+00 0.  1.
         15    1    4    4    0    0  0.10394043257E+02 -0.28982108534E+02 -0.80289443616E+01  0.31819219002E+02  0.00000000000E+00 0. -1.
         15    1    4    4    0    0 -0.35633427061E+02 -0.13960636194E+02 -0.13973217430E+03  0.14487829728E+03  0.00000000000E+00 0.  1.
        -16    1    1    2    0    0 -0.15780322713E+03  0.19789820703E+03 -0.14345570433E+03  0.29093830608E+03  0.00000000000E+00 0.  1.
         16    1    3    3    0    0  0.16021370273E+02  0.20539143523E+03 -0.24759503230E+03  0.32209567832E+03  0.00000000000E+00 0. -1.
    9900018    1    3    3    0    0  0.15546640510E+03 -0.34654766401E+03 -0.37246709265E+03  0.53973326750E+03  0.91187600000E+02 0.  0.
<mgrwt>
<rscale>  0 0.10224327E+04</rscale>
<asrwt>0</asrwt>
<pdfrwt beam="1">  1        1 0.32603880E-01 0.10224327E+04</pdfrwt>
<pdfrwt beam="2">  1       -1 0.18972017E+00 0.10224327E+04</pdfrwt>
<totfact> 0.24544740E+01</totfact>
</mgrwt>
</event>
<event>
12    1  0.1006976E-009  0.1729512E+04  0.7818608E-02  0.8744709E-01
         -2   -1    0    0    0  501 -0.00000000000E+00  0.00000000000E+00  0.41375989397E+03  0.41375989397E+03  0.00000000000E+00 0.  1.
          2   -1    0    0  501    0  0.00000000000E+00 -0.00000000000E+00 -0.18073352980E+04  0.18073352980E+04  0.00000000000E+00 0. -1.
    9900016    2    1    2    0    0  0.33702724264E+03  0.42021480456E+03 -0.22307512010E+03  0.93259266619E+03  0.72787274133E+03 0.  0.
         25    2    3    3    0    0 -0.86393658635E+01  0.20634756951E+03  0.17911607124E+03  0.30060172961E+03  0.12499949913E+03 0.  0.
         23    2    4    4    0    0 -0.19053006721E+02  0.14448192066E+03  0.12444895488E+03  0.20680719807E+03  0.77740802293E+02 0.  0.
        -15    1    5    5    0    0 -0.22213041241E+02  0.36371841024E+02  0.78443085559E+02  0.89272883299E+02  0.00000000000E+00 0.  1.
        -15    1    4    4    0    0  0.25216974349E+02  0.53498360033E+02  0.40779525667E+02  0.71839682872E+02  0.00000000000E+00 0.  1.
         15    1    4    4    0    0 -0.14803333492E+02  0.83672888181E+01  0.13887590700E+02  0.21954848669E+02  0.00000000000E+00 0. -1.
         15    1    5    5    0    0  0.31600345196E+01  0.10811007963E+03  0.46005869318E+02  0.11753431477E+03  0.00000000000E+00 0. -1.
        -16    1    3    3    0    0  0.67110019390E+01 -0.32727510382E+02 -0.10485480568E+03  0.11004843368E+03  0.00000000000E+00 0.  1.
         16    1    1    2    0    0 -0.33702724264E+03 -0.42021480456E+03 -0.11705002840E+04  0.12885025258E+04  0.00000000000E+00 0. -1.
    9900018    1    3    3    0    0  0.33895560656E+03  0.24659474543E+03 -0.29733638567E+03  0.52194250290E+03  0.91187600000E+02 0.  0.
<mgrwt>
<rscale>  0 0.17295119E+04</rscale>
<asrwt>0</asrwt>
<pdfrwt beam="1">  1        2 0.27805159E+00 0.17295119E+04</pdfrwt>
<pdfrwt beam="2">  1       -2 0.63655367E-01 0.17295119E+04</pdfrwt>
<totfact> 0.18528776E+01</totfact>
</mgrwt>
</event>
<event>
12    1  0.1006976E-009  0.9404169E+03  0.7818608E-02  0.9376422E-01
         -2   -1    0    0    0  501 -0.00000000000E+00  0.00000000000E+00  0.88908486934E+02  0.88908486934E+02  0.00000000000E+00 0.  1.
          2   -1    0    0  501    0  0.00000000000E+00 -0.00000000000E+00 -0.24867818169E+04  0.24867818169E+04  0.00000000000E+00 0. -1.
    9900016    2    1    2    0    0 -0.98118919438E+02 -0.17606537311E+03 -0.18880687289E+04  0.20274868113E+04  0.71082551092E+03 0.  0.
         25    2    3    3    0    0  0.49546164237E+02  0.91020410378E+02 -0.24448387366E+03  0.29349593751E+03  0.12501185286E+03 0.  0.
         23    2    4    4    0    0  0.19682072095E+02  0.78154157294E+02 -0.22473701663E+03  0.24500404367E+03  0.54998168201E+02 0.  0.
        -15    1    5    5    0    0  0.39955237752E+01  0.24117783035E+02 -0.14712114993E+03  0.14913840694E+03  0.00000000000E+00 0. -1.
        -15    1    4    4    0    0  0.94155451288E+01 -0.98080378666E+01 -0.80145060921E+01  0.15782344717E+02  0.00000000000E+00 0. -1.
         15    1    5    5    0    0  0.15686548320E+02  0.54036374259E+02 -0.77615866707E+02  0.95865636732E+02  0.00000000000E+00 0.  1.
         15    1    4    4    0    0  0.20448547013E+02  0.22674290951E+02 -0.11732350937E+02  0.32709549119E+02  0.00000000000E+00 0.  1.
        -16    1    3    3    0    0  0.92996723675E+02 -0.60327733071E+02 -0.10411449923E+04  0.10470294748E+04  0.00000000000E+00 0.  1.
         16    1    1    2    0    0  0.98118919438E+02  0.17606537311E+03 -0.50980460106E+03  0.54820349253E+03  0.00000000000E+00 0. -1.
    9900018    1    3    3    0    0 -0.24066180735E+03 -0.20675805042E+03 -0.60243986295E+03  0.68696139906E+03  0.91187600000E+02 0.  0.
<mgrwt>
<rscale>  0 0.94041695E+03</rscale>
<asrwt>0</asrwt>
<pdfrwt beam="1">  1        2 0.38258176E+00 0.94041695E+03</pdfrwt>
<pdfrwt beam="2">  1       -2 0.13678231E-01 0.94041695E+03</pdfrwt>
<totfact> 0.14771443E+02</totfact>
</mgrwt>
</event>
<event>
12    1  0.1006976E-009  0.8932495E+03  0.7818608E-02  0.9434059E-01
          2   -1    0    0  501    0  0.00000000000E+00  0.00000000000E+00  0.15329281140E+04  0.15329281140E+04  0.00000000000E+00 0. -1.
         -2   -1    0    0    0  501 -0.00000000000E+00 -0.00000000000E+00 -0.13012592472E+03  0.13012592472E+03  0.00000000000E+00 0.  1.
    9900016    2    1    2    0    0  0.12075495452E+03 -0.48012849041E+02  0.13077574169E+04  0.15020555869E+04  0.72736134914E+03 0.  0.
         25    2    3    3    0    0 -0.58316598491E+02 -0.79273521017E+02  0.45522170477E+03  0.48222092086E+03  0.12500039689E+03 0.  0.
         23    2    4    4    0    0 -0.24463986138E+02 -0.43226738079E+02  0.18197955365E+03  0.19991035377E+03  0.66185754454E+02 0.  0.
        -15    1    4    4    0    0  0.78390603525E+01 -0.18623300152E+02  0.40942885150E+02  0.45657398307E+02  0.00000000000E+00 0.  1.
        -15    1    5    5    0    0 -0.37039297394E+02 -0.52993529760E+02  0.16155830059E+03  0.17401525289E+03  0.00000000000E+00 0.  1.
         15    1    5    5    0    0  0.12575311256E+02  0.97667916802E+01  0.20421253065E+02  0.25895100882E+02  0.00000000000E+00 0. -1.
         15    1    4    4    0    0 -0.41691672706E+02 -0.17423482785E+02  0.23229926597E+03  0.23665316878E+03  0.00000000000E+00 0. -1.
        -16    1    1    2    0    0 -0.12075495452E+03  0.48012849041E+02  0.95044772461E+02  0.16099845181E+03  0.00000000000E+00 0.  1.
         16    1    3    3    0    0  0.94966064751E+02  0.12404794267E+03  0.85068320803E+03  0.86490945535E+03  0.00000000000E+00 0. -1.
    9900018    1    3    3    0    0  0.84105488257E+02 -0.92787270690E+02  0.18525040547E+01  0.15492521074E+03  0.91187600000E+02 0.  0.
<mgrwt>
<rscale>  0 0.89324955E+03</rscale>
<asrwt>0</asrwt>
<pdfrwt beam="1">  1        2 0.23583508E+00 0.89324955E+03</pdfrwt>
<pdfrwt beam="2">  1       -2 0.20019374E-01 0.89324955E+03</pdfrwt>
<totfact> 0.26036993E+02</totfact>
</mgrwt>
</event>
<event>
11    1  0.1006976E-009  0.1173158E+04  0.7818608E-02  0.9136681E-01
         -2   -1    0    0    0  501 -0.00000000000E+00  0.00000000000E+00  0.14064840612E+03  0.14064840612E+03  0.00000000000E+00 0. -1.
          2   -1    0    0  501    0  0.00000000000E+00 -0.00000000000E+00 -0.24463498566E+04  0.24463498566E+04  0.00000000000E+00 0.  1.
    9900016    2    1    2    0    0  0.25206310679E+03  0.29985231535E+02 -0.21820067359E+04  0.23046238546E+04  0.69692380643E+03 0.  0.
         25    2    3    3    0    0  0.27414597243E+03 -0.64817799958E+02 -0.65463124570E+03  0.72355128068E+03  0.12500810585E+03 0.  0.
        -15    1    4    4    0    0  0.59990170664E+02  0.93895185853E+01 -0.18312088159E+03  0.19292548020E+03  0.00000000000E+00 0. -1.
        -15    1    4    4    0    0  0.65281426503E+01  0.11422041354E+02 -0.26495245303E+02  0.29581712236E+02  0.00000000000E+00 0.  1.
         15    1    4    4    0    0  0.11333486889E+03 -0.38055013024E+02 -0.28784102148E+03  0.31168161667E+03  0.00000000000E+00 0.  1.
         15    1    4    4    0    0  0.94292790230E+02 -0.47574346873E+02 -0.15717409733E+03  0.18936247157E+03  0.00000000000E+00 0. -1.
        -16    1    3    3    0    0  0.13203618735E+03  0.13485889460E+03 -0.10984110575E+04  0.11145076615E+04  0.00000000000E+00 0.  1.
         16    1    1    2    0    0 -0.25206310679E+03 -0.29985231535E+02 -0.12369471457E+03  0.28237440806E+03  0.00000000000E+00 0. -1.
    9900018    1    3    3    0    0 -0.15411905300E+03 -0.40055863110E+02 -0.42896443268E+03  0.46656491249E+03  0.91187600000E+02 0.  0.
<mgrwt>
<rscale>  0 0.11731585E+04</rscale>
<asrwt>0</asrwt>
<pdfrwt beam="1">  1        2 0.37636151E+00 0.11731585E+04</pdfrwt>
<pdfrwt beam="2">  1       -2 0.21638217E-01 0.11731585E+04</pdfrwt>
<totfact> 0.69155585E+01</totfact>
</mgrwt>
</event>
<event>
12    1  0.1006976E-009  0.8594190E+03  0.7818608E-02  0.9477782E-01
          2   -1    0    0  501    0  0.00000000000E+00  0.00000000000E+00  0.53494512658E+03  0.53494512658E+03  0.00000000000E+00 0. -1.
         -2   -1    0    0    0  501 -0.00000000000E+00 -0.00000000000E+00 -0.34517603960E+03  0.34517603960E+03  0.00000000000E+00 0.  1.
    9900016    2    1    2    0    0  0.41636198890E+02 -0.72073620532E+02  0.18590879783E+03  0.79679600991E+03  0.77032046608E+03 0.  0.
         25    2    3    3    0    0  0.12907357753E+03  0.84053748085E+02  0.41374959693E+02  0.20263685503E+03  0.12499914697E+03 0.  0.
         23    2    4    4    0    0  0.82978534056E+02  0.11127264054E+01  0.70542407076E+01  0.99385328861E+02  0.54231042834E+02 0.  0.
        -15    1    5    5    0    0  0.35962816238E+02  0.38490103831E+01 -0.23605117109E+02  0.43189588866E+02  0.00000000000E+00 0.  1.
        -15    1    4    4    0    0  0.20116023491E+02  0.32879858348E+02  0.28153223888E+01  0.38647969238E+02  0.00000000000E+00 0.  1.
         15    1    5    5    0    0  0.47015717817E+02 -0.27362839776E+01  0.30659357816E+02  0.56195739995E+02  0.00000000000E+00 0. -1.
         15    1    4    4    0    0  0.25979019987E+02  0.50061163332E+02  0.31505396596E+02  0.64603556932E+02  0.00000000000E+00 0. -1.
        -16    1    3    3    0    0  0.51377956051E+02 -0.24397470298E+03 -0.11433524697E+03  0.27429163086E+03  0.00000000000E+00 0.  1.
         16    1    1    2    0    0 -0.41636198890E+02  0.72073620532E+02  0.38602891435E+01  0.83325156266E+02  0.00000000000E+00 0. -1.
    9900018    1    3    3    0    0 -0.13881533469E+03  0.87847334363E+02  0.25886908511E+03  0.31986752402E+03  0.91187600000E+02 0.  0.
<mgrwt>
<rscale>  0 0.85941897E+03</rscale>
<asrwt>0</asrwt>
<pdfrwt beam="1">  1        2 0.82299250E-01 0.85941897E+03</pdfrwt>
<pdfrwt beam="2">  1       -2 0.53104006E-01 0.85941897E+03</pdfrwt>
<totfact> 0.19121804E+02</totfact>
</mgrwt>
</event>
<event>
12    1  0.1006976E-009  0.8695395E+03  0.7818608E-02  0.9464481E-01
          2   -1    0    0  501    0  0.00000000000E+00  0.00000000000E+00  0.21832444936E+03  0.21832444936E+03  0.00000000000E+00 0. -1.
         -2   -1    0    0    0  501 -0.00000000000E+00 -0.00000000000E+00 -0.86579731983E+03  0.86579731983E+03  0.00000000000E+00 0.  1.
    9900016    2    1    2    0    0  0.15794631237E+03 -0.35650613549E+02 -0.46241816448E+03  0.83822901199E+03  0.68013183565E+03 0.  0.
         25    2    3    3    0    0  0.27095644443E+02  0.11001728403E+03 -0.10837930383E+03  0.20052058659E+03  0.12499782163E+03 0.  0.
         23    2    4    4    0    0  0.98224088026E+01  0.60819558129E+02 -0.46907766728E+02  0.10601222097E+03  0.72406864665E+02 0.  0.
        -15    1    5    5    0    0  0.30215561504E+01  0.30133813007E+02 -0.63586810329E+02  0.70430525595E+02  0.00000000000E+00 0. -1.
        -15    1    4    4    0    0  0.19306664924E+02  0.39316174279E+02 -0.69132860518E+02  0.81840462327E+02  0.00000000000E+00 0.  1.
         15    1    4    4    0    0 -0.20334292839E+01  0.98815516249E+01  0.76613234159E+01  0.12667903286E+02  0.00000000000E+00 0. -1.
         15    1    5    5    0    0  0.68008526522E+01  0.30685745122E+02  0.16679043601E+02  0.35581695378E+02  0.00000000000E+00 0.  1.
        -16    1    1    2    0    0 -0.15794631237E+03  0.35650613549E+02 -0.18505470599E+03  0.24589275721E+03  0.00000000000E+00 0.  1.
         16    1    3    3    0    0 -0.14701325888E+03 -0.37808581675E+02  0.17424287687E+02  0.15279395582E+03  0.00000000000E+00 0. -1.
    9900018    1    3    3    0    0  0.27786392680E+03 -0.10785931591E+03 -0.37146314834E+03  0.48491446958E+03  0.91187600000E+02 0.  0.
<mgrwt>
<rscale>  0 0.86953947E+03</rscale>
<asrwt>0</asrwt>
<pdfrwt beam="1">  1        2 0.33588377E-01 0.86953947E+03</pdfrwt>
<pdfrwt beam="2">  1       -2 0.13319959E+00 0.86953947E+03</pdfrwt>
<totfact> 0.64235921E+01</totfact>
</mgrwt>
</event>
<event>
12    1  0.1006976E-009  0.9036427E+03  0.7818608E-02  0.9421039E-01
         -2   -1    0    0    0  501 -0.00000000000E+00  0.00000000000E+00  0.84039971730E+02  0.84039971730E+02  0.00000000000E+00 0.  1.
          2   -1    0    0  501    0  0.00000000000E+00 -0.00000000000E+00 -0.24291120988E+04  0.24291120988E+04  0.00000000000E+00 0. -1.
    9900016    2    1    2    0    0  0.10860997254E+03 -0.11404204565E+03 -0.18978199789E+04  0.20389831150E+04  0.72864926871E+03 0.  0.
         25    2    3    3    0    0 -0.72567538155E+02 -0.68652725894E+02 -0.17469222281E+03  0.23690528034E+03  0.12500997870E+03 0.  0.
         23    2    4    4    0    0 -0.63587621695E+02 -0.63362724462E+02 -0.13176144903E+03  0.17767082161E+03  0.78406765755E+02 0.  0.
        -15    1    4    4    0    0  0.15000258221E+02 -0.27591361902E+01 -0.24600940213E+02  0.28945238617E+02  0.00000000000E+00 0. -1.
        -15    1    5    5    0    0 -0.54794523753E+02 -0.81961649643E+02 -0.11036216776E+03  0.14798635045E+03  0.00000000000E+00 0. -1.
         15    1    4    4    0    0 -0.23980174680E+02 -0.25308652411E+01 -0.18329833573E+02  0.30289220119E+02  0.00000000000E+00 0.  1.
         15    1    5    5    0    0 -0.87930979425E+01  0.18598925181E+02 -0.21399281266E+02  0.29684471160E+02  0.00000000000E+00 0.  1.
        -16    1    1    2    0    0 -0.10860997254E+03  0.11404204565E+03 -0.44725214819E+03  0.47416895551E+03  0.00000000000E+00 0.  1.
         16    1    3    3    0    0  0.10528632858E+03 -0.17382796499E+03 -0.15222842385E+04  0.15357899190E+04  0.00000000000E+00 0. -1.
    9900018    1    3    3    0    0  0.75891182116E+02  0.12843864524E+03 -0.20084351757E+03  0.26628791571E+03  0.91187600000E+02 0.  0.
<mgrwt>
<rscale>  0 0.90364266E+03</rscale>
<asrwt>0</asrwt>
<pdfrwt beam="1">  1        2 0.37370951E+00 0.90364266E+03</pdfrwt>
<pdfrwt beam="2">  1       -2 0.12929228E-01 0.90364266E+03</pdfrwt>
<totfact> 0.17560554E+02</totfact>
</mgrwt>
</event>
<event>
12    1  0.1341290E-009  0.8893365E+03  0.7818608E-02  0.9439010E-01
         -1   -1    0    0    0  501 -0.00000000000E+00  0.00000000000E+00  0.64336961652E+03  0.64336961652E+03  0.00000000000E+00 0.  1.
          1   -1    0    0  501    0  0.00000000000E+00 -0.00000000000E+00 -0.30733474020E+03  0.30733474020E+03  0.00000000000E+00 0. -1.
    9900016    2    1    2    0    0 -0.54795542928E+02 -0.54488666367E+02  0.41775261644E+03  0.83823500384E+03  0.72259885610E+03 0.  0.
         25    2    3    3    0    0 -0.23299202807E+02  0.57193132646E+02  0.10464798557E+03  0.17432727668E+03  0.12499956496E+03 0.  0.
         23    2    4    4    0    0 -0.41155724288E+01 -0.10986557054E+02  0.51612323623E+02  0.81718746811E+02  0.62261378544E+02 0.  0.
        -15    1    4    4    0    0 -0.33206962040E+01  0.49109499419E+02  0.25108820016E+02  0.55255975234E+02  0.00000000000E+00 0. -1.
        -15    1    5    5    0    0 -0.32656361270E+02  0.43388534692E-01  0.28967806279E+02  0.43652876361E+02  0.00000000000E+00 0. -1.
         15    1    4    4    0    0 -0.15862934174E+02  0.19070190280E+02  0.27926841930E+02  0.37352554640E+02  0.00000000000E+00 0.  1.
         15    1    5    5    0    0  0.28540788841E+02 -0.11029945588E+02  0.22644517343E+02  0.38065870450E+02  0.00000000000E+00 0.  1.
        -16    1    3    3    0    0 -0.20420515495E+03 -0.25128980041E+03  0.26647398228E+03  0.41935032172E+03  0.00000000000E+00 0.  1.
         16    1    1    2    0    0  0.54795542928E+02  0.54488666367E+02 -0.81717740117E+02  0.11246935288E+03  0.00000000000E+00 0. -1.
    9900018    1    3    3    0    0  0.17270881483E+03  0.13960800140E+03  0.46630648594E+02  0.24455740544E+03  0.91187600000E+02 0.  0.
<mgrwt>
<rscale>  0 0.88933646E+03</rscale>
<asrwt>0</asrwt>
<pdfrwt beam="1">  1        1 0.47282268E-01 0.88933646E+03</pdfrwt>
<pdfrwt beam="2">  1       -1 0.98979941E-01 0.88933646E+03</pdfrwt>
<totfact> 0.83631808E+01</totfact>
</mgrwt>
</event>
<event>
12    1  0.1006976E-009  0.1292973E+04  0.7818608E-02  0.9035156E-01
          1   -1    0    0  501    0  0.00000000000E+00  0.00000000000E+00  0.38965478135E+03  0.38965478135E+03  0.00000000000E+00 0. -1.
         -1   -1    0    0    0  501 -0.00000000000E+00 -0.00000000000E+00 -0.10726030298E+04  0.10726030298E+04  0.00000000000E+00 0.  1.
    9900016    2    1    2    0    0  0.14864240777E+03 -0.17252912667E+03 -0.14846936235E+02  0.75641064049E+03  0.72116278370E+03 0.  0.
         25    2    3    3    0    0 -0.32440877086E+02  0.33085374889E+02  0.15706018806E+03  0.20600711490E+03  0.12499590465E+03 0.  0.
         23    2    4    4    0    0 -0.39644827333E+02  0.14351451375E+02  0.80948371835E+02  0.11916200559E+03  0.76611149209E+02 0.  0.
        -15    1    5    5    0    0 -0.19358200633E+02 -0.31599642546E+02  0.37939819775E+02  0.53034962669E+02  0.00000000000E+00 0. -1.
        -15    1    4    4    0    0 -0.88303830474E+01  0.69564906575E+01  0.60556047220E+02  0.61590610339E+02  0.00000000000E+00 0.  1.
         15    1    4    4    0    0  0.16034333294E+02  0.11777432856E+02  0.15555769010E+02  0.25254498973E+02  0.00000000000E+00 0. -1.
         15    1    5    5    0    0 -0.20286626700E+02  0.45951093921E+02  0.43008552059E+02  0.66127042922E+02  0.00000000000E+00 0.  1.
        -16    1    1    2    0    0 -0.14864240777E+03  0.17252912667E+03 -0.66810131219E+03  0.70584717064E+03  0.00000000000E+00 0.  1.
         16    1    3    3    0    0  0.29065644883E+03 -0.15921882403E+03 -0.12596381030E+02  0.33164811772E+03  0.00000000000E+00 0. -1.
    9900018    1    3    3    0    0 -0.10957316397E+03 -0.46395677536E+02 -0.15931074327E+03  0.21875540787E+03  0.91187600000E+02 0.  0.
<mgrwt>
<rscale>  0 0.12929732E+04</rscale>
<asrwt>0</asrwt>
<pdfrwt beam="1">  1        1 0.59946890E-01 0.12929732E+04</pdfrwt>
<pdfrwt beam="2">  1       -1 0.16501585E+00 0.12929732E+04</pdfrwt>
<totfact> 0.16362278E+01</totfact>
</mgrwt>
</event>
<event>
12    1  0.1006976E-009  0.8543157E+03  0.7818608E-02  0.9484563E-01
         -2   -1    0    0    0  501 -0.00000000000E+00  0.00000000000E+00  0.17564675474E+03  0.17564675474E+03  0.00000000000E+00 0.  1.
          2   -1    0    0  501    0  0.00000000000E+00 -0.00000000000E+00 -0.10388112271E+04  0.10388112271E+04  0.00000000000E+00 0. -1.
    9900016    2    1    2    0    0  0.13334008280E+03 -0.53909722116E+02 -0.72341701341E+03  0.10139207332E+04  0.69571347696E+03 0.  0.
         25    2    3    3    0    0 -0.93831507137E+01 -0.40937061834E+02 -0.10517008087E+03  0.16866766001E+03  0.12499658824E+03 0.  0.
         23    2    4    4    0    0 -0.17814788737E+02  0.36365142743E+01 -0.32589731587E+02  0.78971860689E+02  0.69597939926E+02 0.  0.
        -15    1    4    4    0    0  0.13809445931E+02 -0.34579997028E+02 -0.37586261147E+02  0.52907504367E+02  0.00000000000E+00 0. -1.
        -15    1    5    5    0    0 -0.15692394569E+02 -0.15571386016E+02 -0.48912264233E+02  0.53676148354E+02  0.00000000000E+00 0.  1.
         15    1    5    5    0    0 -0.21223941681E+01  0.19207900290E+02  0.16322532645E+02  0.25295712335E+02  0.00000000000E+00 0.  1.
         15    1    4    4    0    0 -0.53778079073E+01 -0.99935790803E+01 -0.34994088139E+02  0.36788294951E+02  0.00000000000E+00 0. -1.
        -16    1    3    3    0    0  0.88257144837E+01  0.20602814479E+03 -0.45719988062E+02  0.21122454164E+03  0.00000000000E+00 0.  1.
         16    1    1    2    0    0 -0.13334008280E+03  0.53909722116E+02 -0.13974745891E+03  0.20053724864E+03  0.00000000000E+00 0. -1.
    9900018    1    3    3    0    0  0.13389751903E+03 -0.21900080508E+03 -0.57252694448E+03  0.63402853151E+03  0.91187600000E+02 0.  0.
<mgrwt>
<rscale>  0 0.85431568E+03</rscale>
<asrwt>0</asrwt>
<pdfrwt beam="1">  1        2 0.15981712E+00 0.85431568E+03</pdfrwt>
<pdfrwt beam="2">  1       -2 0.27022577E-01 0.85431568E+03</pdfrwt>
<totfact> 0.29685082E+02</totfact>
</mgrwt>
</event>
<event>
12    1  0.1218063E-009  0.1052898E+04  0.7818608E-02  0.9252357E-01
          1   -1    0    0  501    0  0.00000000000E+00  0.00000000000E+00  0.71469591679E+03  0.71469591679E+03  0.00000000000E+00 0. -1.
         -1   -1    0    0    0  501 -0.00000000000E+00 -0.00000000000E+00 -0.38778556655E+03  0.38778556655E+03  0.00000000000E+00 0.  1.
    9900016    2    1    2    0    0  0.73417831958E+01  0.32342852317E+02  0.53155224683E+03  0.89516947761E+03  0.71950027148E+03 0.  0.
         25    2    3    3    0    0 -0.79628821639E+02 -0.45525431189E+02  0.11567797868E+03  0.19344207718E+03  0.12500051341E+03 0.  0.
         23    2    4    4    0    0 -0.19858774632E+02 -0.40924578194E+02  0.90251535661E+02  0.11513670364E+03  0.55153683526E+02 0.  0.
        -15    1    5    5    0    0  0.14772612380E+02 -0.24418118534E+02  0.59422952077E+02  0.65920875471E+02  0.00000000000E+00 0. -1.
        -15    1    4    4    0    0 -0.81801691558E+01 -0.74234088527E+01 -0.10606826563E+02  0.15314272302E+02  0.00000000000E+00 0.  1.
         15    1    4    4    0    0 -0.51589877851E+02  0.28225558575E+01  0.36033269578E+02  0.62991101234E+02  0.00000000000E+00 0.  1.
         15    1    5    5    0    0 -0.34631387013E+02 -0.16506459660E+02  0.30828583584E+02  0.49215828173E+02  0.00000000000E+00 0. -1.
        -16    1    1    2    0    0 -0.73417831958E+01 -0.32342852317E+02 -0.20464189659E+03  0.20731200573E+03  0.00000000000E+00 0.  1.
         16    1    3    3    0    0  0.26836923477E+03  0.28880804520E+02  0.41235645682E+03  0.49284276856E+03  0.00000000000E+00 0. -1.
    9900018    1    3    3    0    0 -0.18139862994E+03  0.48987478986E+02  0.35178113394E+01  0.20888463187E+03  0.91187600000E+02 0.  0.
<mgrwt>
<rscale>  0 0.10528984E+04</rscale>
<asrwt>0</asrwt>
<pdfrwt beam="1">  1        1 0.10995322E+00 0.10528984E+04</pdfrwt>
<pdfrwt beam="2">  1       -1 0.59659318E-01 0.10528984E+04</pdfrwt>
<totfact> 0.75144636E+01</totfact>
</mgrwt>
</event>
<event>
12    1  0.1006976E-009  0.7615785E+03  0.7818608E-02  0.9617359E-01
          2   -1    0    0  501    0  0.00000000000E+00  0.00000000000E+00  0.43189111146E+03  0.43189111146E+03  0.00000000000E+00 0. -1.
         -2   -1    0    0    0  501 -0.00000000000E+00 -0.00000000000E+00 -0.33573382336E+03  0.33573382336E+03  0.00000000000E+00 0.  1.
    9900016    2    1    2    0    0 -0.76682137923E+01  0.43248978585E+02  0.10496595659E+03  0.72282685124E+03  0.71381477232E+03 0.  0.
         25    2    3    3    0    0 -0.62314974680E+02  0.28406713632E+03 -0.74934421818E+02  0.32529626951E+03  0.12500080551E+03 0.  0.
         23    2    4    4    0    0 -0.18815057961E+02  0.16115460370E+03 -0.48456301997E+02  0.18662587587E+03  0.78462676727E+02 0.  0.
        -15    1    5    5    0    0 -0.26812250127E+02  0.13968852059E+02  0.32732382343E+01  0.30409532606E+02  0.00000000000E+00 0.  1.
        -15    1    4    4    0    0 -0.31463380938E+02  0.88362857553E+02 -0.49900195999E+00  0.93798656376E+02  0.00000000000E+00 0.  1.
         15    1    5    5    0    0  0.79971921663E+01  0.14718575164E+03 -0.51729540231E+02  0.15621634326E+03  0.00000000000E+00 0. -1.
         15    1    4    4    0    0 -0.12036535781E+02  0.34549675061E+02 -0.25979117861E+02  0.44871737266E+02  0.00000000000E+00 0. -1.
        -16    1    3    3    0    0 -0.35577846759E+02 -0.44528001412E+02 -0.45002159626E+02  0.72620385986E+02  0.00000000000E+00 0.  1.
         16    1    1    2    0    0  0.76682137923E+01 -0.43248978585E+02 -0.88086684880E+01  0.44798083574E+02  0.00000000000E+00 0. -1.
    9900018    1    3    3    0    0  0.90224607646E+02 -0.19629015632E+03  0.22490253804E+03  0.32491019575E+03  0.91187600000E+02 0.  0.
<mgrwt>
<rscale>  0 0.76157850E+03</rscale>
<asrwt>0</asrwt>
<pdfrwt beam="1">  1        2 0.66444786E-01 0.76157850E+03</pdfrwt>
<pdfrwt beam="2">  1       -2 0.51651357E-01 0.76157850E+03</pdfrwt>
<totfact> 0.26019270E+02</totfact>
</mgrwt>
</event>
<event>
12    1  0.1006976E-009  0.7840459E+03  0.7818608E-02  0.9583401E-01
          2   -1    0    0  501    0  0.00000000000E+00  0.00000000000E+00  0.60017848870E+03  0.60017848870E+03  0.00000000000E+00 0. -1.
         -2   -1    0    0    0  501 -0.00000000000E+00 -0.00000000000E+00 -0.25606048787E+03  0.25606048787E+03  0.00000000000E+00 0.  1.
    9900016    2    1    2    0    0 -0.62512255719E+01 -0.64760715890E+02  0.28456246501E+03  0.76803529189E+03  0.71040086216E+03 0.  0.
         25    2    3    3    0    0 -0.11414127933E+02 -0.17352342752E+02  0.77329960629E+02  0.14844571847E+03  0.12499928962E+03 0.  0.
         23    2    4    4    0    0 -0.91610810795E+01  0.22589282630E+02  0.37116909462E+02  0.89182048936E+02  0.77340621849E+02 0.  0.
        -15    1    4    4    0    0 -0.37764802624E+01 -0.24573247392E+02  0.13202743868E+02  0.28149933148E+02  0.00000000000E+00 0. -1.
        -15    1    5    5    0    0  0.80632046742E+01  0.23193532203E+02 -0.18635862580E+02  0.30826134688E+02  0.00000000000E+00 0. -1.
         15    1    5    5    0    0 -0.17224285754E+02 -0.60424957368E+00  0.55752772042E+02  0.58355914248E+02  0.00000000000E+00 0.  1.
         15    1    4    4    0    0  0.15234334088E+01 -0.15368377989E+02  0.27010307299E+02  0.31113736384E+02  0.00000000000E+00 0.  1.
        -16    1    3    3    0    0 -0.59348260912E+02 -0.54250142388E+02 -0.19030833282E+03  0.20659756911E+03  0.00000000000E+00 0.  1.
         16    1    1    2    0    0  0.62512255719E+01  0.64760715890E+02  0.59555535820E+02  0.88203684676E+02  0.00000000000E+00 0. -1.
    9900018    1    3    3    0    0  0.64511163273E+02  0.68417692497E+01  0.39754083720E+03  0.41299200431E+03  0.91187600000E+02 0.  0.
<mgrwt>
<rscale>  0 0.78404591E+03</rscale>
<asrwt>0</asrwt>
<pdfrwt beam="1">  1        2 0.92335152E-01 0.78404591E+03</pdfrwt>
<pdfrwt beam="2">  1       -2 0.39393921E-01 0.78404591E+03</pdfrwt>
<totfact> 0.30401540E+02</totfact>
</mgrwt>
</event>
<event>
12    1  0.1006976E-009  0.8878871E+03  0.7818608E-02  0.9440851E-01
         -1   -1    0    0    0  501 -0.00000000000E+00  0.00000000000E+00  0.53238218935E+02  0.53238218935E+02  0.00000000000E+00 0.  1.
          1   -1    0    0  501    0  0.00000000000E+00 -0.00000000000E+00 -0.37019621738E+04  0.37019621738E+04  0.00000000000E+00 0. -1.
    9900016    2    1    2    0    0  0.10920020969E+03 -0.10769651266E+03 -0.32294376839E+04  0.33087430021E+04  0.70355474209E+03 0.  0.
         25    2    3    3    0    0 -0.20909076650E+03  0.22700747320E+00 -0.75285189848E+03  0.79128364821E+03  0.12499932287E+03 0.  0.
         23    2    4    4    0    0 -0.13647353290E+03  0.32211412834E+02 -0.44269421586E+03  0.46837274493E+03  0.61092218297E+02 0.  0.
        -15    1    5    5    0    0 -0.32213033300E+02 -0.99657703340E+01 -0.17147685740E+03  0.17476071846E+03  0.00000000000E+00 0.  1.
        -15    1    4    4    0    0 -0.42565898579E+02 -0.23376844330E+01 -0.10260013364E+03  0.11110404094E+03  0.00000000000E+00 0.  1.
         15    1    5    5    0    0 -0.10426049960E+03  0.42177183168E+02 -0.27121735846E+03  0.29361202647E+03  0.00000000000E+00 0. -1.
         15    1    4    4    0    0 -0.30051335019E+02 -0.29646720928E+02 -0.20755754898E+03  0.21180686234E+03  0.00000000000E+00 0. -1.
        -16    1    1    2    0    0 -0.10920020969E+03  0.10769651266E+03 -0.41928627098E+03  0.44645739065E+03  0.00000000000E+00 0.  1.
         16    1    3    3    0    0  0.21391573519E+03 -0.11289817714E+03 -0.21369994647E+04  0.21506447062E+04  0.00000000000E+00 0. -1.
    9900018    1    3    3    0    0  0.10437524099E+03  0.49746570101E+01 -0.33958632072E+03  0.36681464769E+03  0.91187600000E+02 0.  0.
<mgrwt>
<rscale>  0 0.88788709E+03</rscale>
<asrwt>0</asrwt>
<pdfrwt beam="1">  1        1 0.56953265E+00 0.88788709E+03</pdfrwt>
<pdfrwt beam="2">  1       -1 0.81904952E-02 0.88788709E+03</pdfrwt>
<totfact> 0.15770299E+01</totfact>
</mgrwt>
</event>
<event>
12    1  0.1006976E-009  0.8368968E+03  0.7818608E-02  0.9508094E-01
         -2   -1    0    0    0  501 -0.00000000000E+00  0.00000000000E+00  0.15106570160E+03  0.15106570160E+03  0.00000000000E+00 0.  1.
          2   -1    0    0  501    0  0.00000000000E+00 -0.00000000000E+00 -0.11590920303E+04  0.11590920303E+04  0.00000000000E+00 0. -1.
    9900016    2    1    2    0    0 -0.10790868862E+03  0.49816495868E+02 -0.84038539134E+03  0.11046596730E+04  0.70703565597E+03 0.  0.
         25    2    3    3    0    0  0.11255126422E+03 -0.15003951877E+03 -0.23587899456E+03  0.32625508283E+03  0.12499533884E+03 0.  0.
         23    2    4    4    0    0  0.69800093129E+02 -0.11949644480E+03 -0.15571453462E+03  0.22220173826E+03  0.77299048318E+02 0.  0.
        -15    1    5    5    0    0 -0.15856527440E+01  0.10262877116E+02 -0.91627723132E+01  0.13849091587E+02  0.00000000000E+00 0.  1.
        -15    1    4    4    0    0  0.27379488343E+01 -0.20591588658E+02 -0.46121441204E+02  0.50583566759E+02  0.00000000000E+00 0.  1.
         15    1    4    4    0    0  0.40013222261E+02 -0.99514853042E+01 -0.34043018729E+02  0.53469777816E+02  0.00000000000E+00 0. -1.
         15    1    5    5    0    0  0.71385745873E+02 -0.12975932192E+03 -0.14655176231E+03  0.20835264667E+03  0.00000000000E+00 0. -1.
        -16    1    3    3    0    0 -0.31035053420E+03  0.99935028218E+02 -0.43523798042E+03  0.54381666354E+03  0.00000000000E+00 0.  1.
         16    1    1    2    0    0  0.10790868862E+03 -0.49816495868E+02 -0.16764093741E+03  0.20549805896E+03  0.00000000000E+00 0. -1.
    9900018    1    3    3    0    0  0.89890581354E+02  0.99920986416E+02 -0.16926841636E+03  0.23458792661E+03  0.91187600000E+02 0.  0.
<mgrwt>
<rscale>  0 0.83689677E+03</rscale>
<asrwt>0</asrwt>
<pdfrwt beam="1">  1        2 0.17832185E+00 0.83689677E+03</pdfrwt>
<pdfrwt beam="2">  1       -2 0.23240877E-01 0.83689677E+03</pdfrwt>
<totfact> 0.32911221E+02</totfact>
</mgrwt>
</event>
<event>
12    1  0.1006976E-009  0.1086405E+04  0.7818608E-02  0.9218545E-01
         -1   -1    0    0    0  501 -0.00000000000E+00  0.00000000000E+00  0.52725088189E+03  0.52725088189E+03  0.00000000000E+00 0. -1.
          1   -1    0    0  501    0  0.00000000000E+00 -0.00000000000E+00 -0.55963628333E+03  0.55963628333E+03  0.00000000000E+00 0.  1.
    9900016    2    1    2    0    0  0.13541926639E+03  0.22924242438E+03 -0.19738993387E+03  0.77365089248E+03  0.69905825980E+03 0.  0.
         25    2    3    3    0    0  0.18266567813E+02 -0.16182736135E+02  0.25804458867E+02  0.12994372706E+03  0.12499581455E+03 0.  0.
         23    2    4    4    0    0  0.34665850463E+02  0.47161771709E+01  0.25308974576E+02  0.88627089121E+02  0.77396726136E+02 0.  0.
        -15    1    4    4    0    0 -0.22625092798E+02 -0.44346388752E+01  0.39145811887E+01  0.23385568028E+02  0.00000000000E+00 0.  1.
        -15    1    5    5    0    0  0.16154691309E+02  0.20800913758E+02  0.48298758175E+02  0.55012926715E+02  0.00000000000E+00 0. -1.
         15    1    5    5    0    0  0.18511159154E+02 -0.16084736587E+02 -0.22989783600E+02  0.33614162406E+02  0.00000000000E+00 0.  1.
         15    1    4    4    0    0  0.62258101479E+01 -0.16464274431E+02 -0.34190968969E+01  0.17931069910E+02  0.00000000000E+00 0. -1.
        -16    1    3    3    0    0  0.33805713639E+02  0.25936282733E+02 -0.35629480547E+03  0.35883353444E+03  0.00000000000E+00 0.  1.
         16    1    1    2    0    0 -0.13541926639E+03 -0.22924242438E+03  0.16500453242E+03  0.31323627274E+03  0.00000000000E+00 0. -1.
    9900018    1    3    3    0    0  0.83346984933E+02  0.21948887778E+03  0.13310041273E+03  0.28487363098E+03  0.91187600000E+02 0.  0.
<mgrwt>
<rscale>  0 0.10864046E+04</rscale>
<asrwt>0</asrwt>
<pdfrwt beam="1">  1        1 0.86097889E-01 0.10864046E+04</pdfrwt>
<pdfrwt beam="2">  1       -1 0.81115521E-01 0.10864046E+04</pdfrwt>
<totfact> 0.57196793E+01</totfact>
</mgrwt>
</event>
<event>
12    1  0.1006976E-009  0.9012204E+03  0.7818608E-02  0.9424057E-01
          2   -1    0    0  501    0  0.00000000000E+00  0.00000000000E+00  0.18679692341E+04  0.18679692341E+04  0.00000000000E+00 0.  1.
         -2   -1    0    0    0  501 -0.00000000000E+00 -0.00000000000E+00 -0.10870068357E+03  0.10870068357E+03  0.00000000000E+00 0. -1.
    9900016    2    1    2    0    0  0.93526477026E+02 -0.87998674524E+02  0.12096068470E+04  0.14122064938E+04  0.71741723429E+03 0.  0.
         25    2    3    3    0    0  0.20735723167E+03 -0.10040344685E+03  0.24828726215E+03  0.36104001782E+03  0.12500182500E+03 0.  0.
         23    2    4    4    0    0  0.11252800007E+03 -0.62655739003E+02  0.17647414141E+03  0.23152769601E+03  0.76639800381E+02 0.  0.
        -15    1    5    5    0    0  0.10307670747E+03 -0.79358714170E+02  0.14633735074E+03  0.19579896159E+03  0.00000000000E+00 0. -1.
        -15    1    4    4    0    0  0.14650895551E+02 -0.19690771140E+02  0.92735465941E+01  0.26236880054E+02  0.00000000000E+00 0. -1.
         15    1    4    4    0    0  0.80178336053E+02 -0.18056936705E+02  0.62539574143E+02  0.10327544175E+03  0.00000000000E+00 0.  1.
         15    1    5    5    0    0  0.94512925950E+01  0.16702975167E+02  0.30136790669E+02  0.35728734416E+02  0.00000000000E+00 0.  1.
        -16    1    1    2    0    0 -0.93526477026E+02  0.87998674524E+02  0.54966170346E+03  0.56446342386E+03  0.00000000000E+00 0.  1.
         16    1    3    3    0    0 -0.18071674593E+03  0.50873721326E+02  0.17772839017E+03  0.25852283933E+03  0.00000000000E+00 0. -1.
    9900018    1    3    3    0    0  0.66885991284E+02 -0.38468949002E+02  0.78359119472E+03  0.79264363664E+03  0.91187600000E+02 0.  0.
<mgrwt>
<rscale>  0 0.90122036E+03</rscale>
<asrwt>0</asrwt>
<pdfrwt beam="1">  1        2 0.28737986E+00 0.90122036E+03</pdfrwt>
<pdfrwt beam="2">  1       -2 0.16723184E-01 0.90122036E+03</pdfrwt>
<totfact> 0.23240271E+02</totfact>
</mgrwt>
</event>
<event>
12    1  0.1006976E-009  0.9741724E+03  0.7818608E-02  0.9337335E-01
         -1   -1    0    0    0  501 -0.00000000000E+00  0.00000000000E+00  0.15328386280E+03  0.15328386280E+03  0.00000000000E+00 0.  1.
          1   -1    0    0  501    0  0.00000000000E+00 -0.00000000000E+00 -0.15478013169E+04  0.15478013169E+04  0.00000000000E+00 0. -1.
    9900016    2    1    2    0    0  0.16872340166E+03  0.49391757815E+02 -0.13253639683E+04  0.15121689638E+04  0.70651128420E+03 0.  0.
         25    2    3    3    0    0 -0.10479549751E+03 -0.36768148000E+02 -0.50562357439E+03  0.53255448652E+03  0.12500035650E+03 0.  0.
         23    2    4    4    0    0 -0.66333281311E+02 -0.44570652573E+02 -0.33715351399E+03  0.35311406062E+03  0.68047046449E+02 0.  0.
        -15    1    4    4    0    0 -0.11444409262E+02 -0.16060751057E+02 -0.26909327645E+02  0.33362166329E+02  0.00000000000E+00 0.  1.
        -15    1    5    5    0    0 -0.77949713324E+02 -0.24821992735E+02 -0.25298876240E+03  0.26588644762E+03  0.00000000000E+00 0. -1.
         15    1    5    5    0    0  0.11616432013E+02 -0.19748659838E+02 -0.84164751595E+02  0.87227612997E+02  0.00000000000E+00 0.  1.
         15    1    4    4    0    0 -0.27017806937E+02  0.23863255629E+02 -0.14156073276E+03  0.14607825957E+03  0.00000000000E+00 0. -1.
        -16    1    1    2    0    0 -0.16872340166E+03 -0.49391757815E+02 -0.69153485757E+02  0.18891621582E+03  0.00000000000E+00 0.  1.
         16    1    3    3    0    0  0.27192193100E+02 -0.10429268742E+03 -0.54174087104E+03  0.55235817308E+03  0.00000000000E+00 0. -1.
    9900018    1    3    3    0    0  0.24632670607E+03  0.19045259324E+03 -0.27799952286E+03  0.42725630422E+03  0.91187600000E+02 0.  0.
<mgrwt>
<rscale>  0 0.97417240E+03</rscale>
<asrwt>0</asrwt>
<pdfrwt beam="1">  1        1 0.23812328E+00 0.97417240E+03</pdfrwt>
<pdfrwt beam="2">  1       -1 0.23582132E-01 0.97417240E+03</pdfrwt>
<totfact> 0.94264777E+01</totfact>
</mgrwt>
</event>
<event>
12    1  0.1006976E-009  0.1677313E+04  0.7818608E-02  0.8774410E-01
         -2   -1    0    0    0  501 -0.00000000000E+00  0.00000000000E+00  0.19240689007E+03  0.19240689007E+03  0.00000000000E+00 0.  1.
          2   -1    0    0  501    0  0.00000000000E+00 -0.00000000000E+00 -0.36555070625E+04  0.36555070625E+04  0.00000000000E+00 0. -1.
    9900016    2    1    2    0    0 -0.25183869076E+03 -0.17611552001E+03 -0.63420842131E+03  0.10023792151E+04  0.71281439846E+03 0.  0.
         25    2    3    3    0    0 -0.67610925603E+02 -0.27782219177E+03 -0.50903973559E+03  0.59707885190E+03  0.12500118193E+03 0.  0.
         23    2    4    4    0    0 -0.18869951390E+02 -0.18911028680E+03 -0.39795522636E+03  0.44433058329E+03  0.54245086606E+02 0.  0.
        -15    1    4    4    0    0 -0.33508945472E+02 -0.78667072839E+02 -0.99235489623E+02  0.13099251954E+03  0.00000000000E+00 0.  1.
        -15    1    5    5    0    0 -0.31360926553E+02 -0.58397436726E+02 -0.13803157324E+03  0.15312244624E+03  0.00000000000E+00 0.  1.
         15    1    5    5    0    0  0.12490975163E+02 -0.13071285008E+03 -0.25992365311E+03  0.29120813705E+03  0.00000000000E+00 0. -1.
         15    1    4    4    0    0 -0.15232028741E+02 -0.10044832126E+02 -0.11849019608E+02  0.21755749072E+02  0.00000000000E+00 0. -1.
        -16    1    3    3    0    0 -0.16140170720E+03  0.12194409457E+03  0.47384458311E+02  0.20776467500E+03  0.00000000000E+00 0.  1.
         16    1    1    2    0    0  0.25183869076E+03  0.17611552001E+03 -0.28288917511E+04  0.28455347374E+04  0.00000000000E+00 0. -1.
    9900018    1    3    3    0    0 -0.22826057953E+02 -0.20237422806E+02 -0.17255314403E+03  0.19753568820E+03  0.91187600000E+02 0.  0.
<mgrwt>
<rscale>  0 0.16773130E+04</rscale>
<asrwt>0</asrwt>
<pdfrwt beam="1">  1        2 0.56238566E+00 0.16773130E+04</pdfrwt>
<pdfrwt beam="2">  1       -2 0.29601062E-01 0.16773130E+04</pdfrwt>
<totfact> 0.63863130E+00</totfact>
</mgrwt>
</event>
<event>
12    1  0.1006976E-009  0.8894450E+03  0.7818608E-02  0.9438873E-01
          2   -1    0    0  501    0  0.00000000000E+00  0.00000000000E+00  0.36772945164E+04  0.36772945164E+04  0.00000000000E+00 0. -1.
         -2   -1    0    0    0  501 -0.00000000000E+00 -0.00000000000E+00 -0.53783594934E+02  0.53783594934E+02  0.00000000000E+00 0.  1.
    9900016    2    1    2    0    0 -0.87537069415E+02  0.25893497691E+02  0.24668782042E+04  0.25708486279E+04  0.71794246366E+03 0.  0.
         25    2    3    3    0    0  0.21969069132E+02  0.16634626802E+03  0.34458125174E+03  0.40313202225E+03  0.12500186973E+03 0.  0.
         23    2    4    4    0    0  0.33992711311E+02  0.46805881515E+02  0.16423262389E+03  0.18264706902E+03  0.55148001836E+02 0.  0.
        -15    1    4    4    0    0  0.42798649851E+01  0.12508673909E+02  0.46434519654E+02  0.48279900401E+02  0.00000000000E+00 0. -1.
        -15    1    5    5    0    0  0.37877589740E+02  0.57268419346E+02  0.14430208849E+03  0.15980449431E+03  0.00000000000E+00 0.  1.
         15    1    4    4    0    0 -0.16303507164E+02  0.10703171259E+03  0.13391410819E+03  0.17220505283E+03  0.00000000000E+00 0. -1.
         15    1    5    5    0    0 -0.38848784291E+01 -0.10462537830E+02  0.19930535405E+02  0.22842574719E+02  0.00000000000E+00 0.  1.
        -16    1    3    3    0    0 -0.95051731193E+02 -0.88837951565E+02  0.20071458822E+04  0.20113581495E+04  0.00000000000E+00 0.  1.
         16    1    1    2    0    0  0.87537069415E+02 -0.25893497691E+02  0.11566327173E+04  0.11602294835E+04  0.00000000000E+00 0. -1.
    9900018    1    3    3    0    0 -0.14454407354E+02 -0.51614818761E+02  0.11515107034E+03  0.15635845613E+03  0.91187600000E+02 0.  0.
<mgrwt>
<rscale>  0 0.88944504E+03</rscale>
<asrwt>0</asrwt>
<pdfrwt beam="1">  1        2 0.56573742E+00 0.88944504E+03</pdfrwt>
<pdfrwt beam="2">  1       -2 0.82744021E-02 0.88944504E+03</pdfrwt>
<totfact> 0.60129475E+01</totfact>
</mgrwt>
</event>
<event>
12    1  0.1006976E-009  0.1184886E+04  0.7818608E-02  0.9126189E-01
         -2   -1    0    0    0  501 -0.00000000000E+00  0.00000000000E+00  0.14626282572E+04  0.14626282572E+04  0.00000000000E+00 0. -1.
          2   -1    0    0  501    0  0.00000000000E+00 -0.00000000000E+00 -0.23997130125E+03  0.23997130125E+03  0.00000000000E+00 0.  1.
    9900016    2    1    2    0    0 -0.20978623765E+03  0.94104794882E+01  0.36657475674E+03  0.82113738998E+03  0.70412409298E+03 0.  0.
         25    2    3    3    0    0 -0.17445452101E+03  0.94825704747E+02  0.13871764134E+03  0.27256703174E+03  0.12499563429E+03 0.  0.
         23    2    4    4    0    0 -0.12564366069E+03  0.10635064416E+03  0.85680180861E+02  0.19862775572E+03  0.70817391712E+02 0.  0.
        -15    1    5    5    0    0 -0.55910723741E+02  0.84941972556E+02  0.71513746440E+02  0.12431960288E+03  0.00000000000E+00 0.  1.
        -15    1    4    4    0    0 -0.26422765029E+02 -0.65951912709E+01  0.20270585299E+02  0.33949310568E+02  0.00000000000E+00 0.  1.
         15    1    4    4    0    0 -0.22388095299E+02 -0.49297481376E+01  0.32766875179E+02  0.39989965451E+02  0.00000000000E+00 0. -1.
         15    1    5    5    0    0 -0.69732936945E+02  0.21408671600E+02  0.14166434421E+02  0.74308152842E+02  0.00000000000E+00 0. -1.
        -16    1    3    3    0    0 -0.19994124145E+03 -0.13910740265E+03  0.25309386228E+03  0.35126040572E+03  0.00000000000E+00 0.  1.
         16    1    1    2    0    0  0.20978623765E+03 -0.94104794882E+01  0.85608219923E+03  0.88146216848E+03  0.00000000000E+00 0. -1.
    9900018    1    3    3    0    0  0.16460952481E+03  0.53692177394E+02 -0.25236746886E+02  0.19730995251E+03  0.91187600000E+02 0.  0.
<mgrwt>
<rscale>  0 0.11848862E+04</rscale>
<asrwt>0</asrwt>
<pdfrwt beam="1">  1        2 0.36918663E-01 0.11848862E+04</pdfrwt>
<pdfrwt beam="2">  1       -2 0.22501973E+00 0.11848862E+04</pdfrwt>
<totfact> 0.12799420E+01</totfact>
</mgrwt>
</event>
<event>
11    1  0.1006976E-009  0.1728825E+04  0.7818608E-02  0.8745093E-01
          2   -1    0    0  501    0  0.00000000000E+00  0.00000000000E+00  0.23336796011E+04  0.23336796011E+04  0.00000000000E+00 0. -1.
         -2   -1    0    0    0  501 -0.00000000000E+00 -0.00000000000E+00 -0.32018478791E+03  0.32018478791E+03  0.00000000000E+00 0.  1.
    9900016    2    1    2    0    0 -0.63869528034E+03 -0.10686038241E+03  0.16518380594E+04  0.19121458373E+04  0.71300906437E+03 0.  0.
         25    2    3    3    0    0 -0.12091607137E+03 -0.59073524190E+02  0.49486406660E+03  0.52784987629E+03  0.12499867963E+03 0.  0.
        -15    1    4    4    0    0  0.10752761688E+02  0.16415494171E+02  0.94389781735E+02  0.96408097320E+02  0.00000000000E+00 0.  1.
        -15    1    4    4    0    0 -0.60936277794E+02 -0.25731486914E+02  0.12734726946E+03  0.14350145089E+03  0.00000000000E+00 0.  1.
         15    1    4    4    0    0 -0.27093791870E+02 -0.50116246863E+01  0.10553978192E+03  0.10907719976E+03  0.00000000000E+00 0. -1.
         15    1    4    4    0    0 -0.43638763391E+02 -0.44745906760E+02  0.16758723348E+03  0.17886312831E+03  0.00000000000E+00 0. -1.
        -16    1    1    2    0    0  0.63869528034E+03  0.10686038241E+03  0.36165675371E+03  0.74171855171E+03  0.00000000000E+00 0.  1.
         16    1    3    3    0    0 -0.36599082241E+03 -0.13465295788E+03  0.11169125904E+04  0.11830361092E+04  0.00000000000E+00 0. -1.
    9900018    1    3    3    0    0 -0.15178838656E+03  0.86866099658E+02  0.40061402443E+02  0.20125985174E+03  0.91187600000E+02 0.  0.
<mgrwt>
<rscale>  0 0.17288247E+04</rscale>
<asrwt>0</asrwt>
<pdfrwt beam="1">  1        2 0.35902762E+00 0.17288247E+04</pdfrwt>
<pdfrwt beam="2">  1       -2 0.49259200E-01 0.17288247E+04</pdfrwt>
<totfact> 0.16081074E+01</totfact>
</mgrwt>
</event>
<event>
12    1  0.1006976E-009  0.9141468E+03  0.7818608E-02  0.9408068E-01
          1   -1    0    0  501    0  0.00000000000E+00  0.00000000000E+00  0.66406461501E+03  0.66406461501E+03  0.00000000000E+00 0. -1.
         -1   -1    0    0    0  501 -0.00000000000E+00 -0.00000000000E+00 -0.31460204655E+03  0.31460204655E+03  0.00000000000E+00 0.  1.
    9900016    2    1    2    0    0 -0.16293313322E+02 -0.76882310949E+01  0.79096741595E+02  0.70770123703E+03  0.70303638982E+03 0.  0.
         25    2    3    3    0    0 -0.91474633953E+02 -0.16935962154E+03 -0.21073694907E+03  0.31158333316E+03  0.12499528686E+03 0.  0.
         23    2    4    4    0    0 -0.41114949450E+02 -0.62674729708E+02 -0.97983805992E+02  0.14144549531E+03  0.69191336841E+02 0.  0.
        -15    1    5    5    0    0 -0.11024937996E+02 -0.49432839974E+02 -0.15997690012E+02  0.53113849526E+02  0.00000000000E+00 0. -1.
        -15    1    4    4    0    0 -0.16364642757E+02 -0.82185754706E+02 -0.87779940368E+02  0.12135739673E+03  0.00000000000E+00 0.  1.
         15    1    4    4    0    0 -0.33995041745E+02 -0.24499137128E+02 -0.24973202709E+02  0.48780441129E+02  0.00000000000E+00 0.  1.
         15    1    5    5    0    0 -0.30090011455E+02 -0.13241889734E+02 -0.81986115979E+02  0.88331645781E+02  0.00000000000E+00 0. -1.
        -16    1    3    3    0    0  0.78026269925E+02 -0.74159023149E+00  0.12512253236E+03  0.14745947531E+03  0.00000000000E+00 0.  1.
         16    1    1    2    0    0  0.16293313322E+02  0.76882310949E+01  0.27036582687E+03  0.27096542453E+03  0.00000000000E+00 0. -1.
    9900018    1    3    3    0    0 -0.28449492941E+01  0.16241298068E+03  0.16471115830E+03  0.24865842855E+03  0.91187600000E+02 0.  0.
<mgrwt>
<rscale>  0 0.91414679E+03</rscale>
<asrwt>0</asrwt>
<pdfrwt beam="1">  1        1 0.10216379E+00 0.91414679E+03</pdfrwt>
<pdfrwt beam="2">  1       -1 0.48400315E-01 0.91414679E+03</pdfrwt>
<totfact> 0.12680956E+02</totfact>
</mgrwt>
</event>
<event>
12    1  0.1067218E-009  0.1296048E+04  0.7818608E-02  0.9032705E-01
          1   -1    0    0  501    0  0.00000000000E+00  0.00000000000E+00  0.11231909026E+04  0.11231909026E+04  0.00000000000E+00 0.  1.
         -1   -1    0    0    0  501 -0.00000000000E+00 -0.00000000000E+00 -0.37387666368E+03  0.37387666368E+03  0.00000000000E+00 0. -1.
    9900016    2    1    2    0    0 -0.33273878341E+03 -0.30792860352E+03  0.51593563911E+03  0.98716493467E+03  0.70906269235E+03 0.  0.
         25    2    3    3    0    0 -0.46643062503E+02 -0.85354870807E+01  0.70508243663E+02  0.15114388009E+03  0.12499852097E+03 0.  0.
         23    2    4    4    0    0 -0.92479474018E+01  0.50457152374E+01 -0.21341142063E+01  0.56364804388E+02  0.55330398127E+02 0.  0.
        -15    1    5    5    0    0 -0.32523122537E+02  0.48970124063E+00 -0.27231126651E+01  0.32640598178E+02  0.00000000000E+00 0. -1.
        -15    1    4    4    0    0 -0.32675572783E+02  0.11584322624E+02  0.48269173389E+02  0.59428971781E+02  0.00000000000E+00 0.  1.
         15    1    4    4    0    0 -0.47195423185E+01 -0.25165524942E+02  0.24373184481E+02  0.35350103918E+02  0.00000000000E+00 0.  1.
         15    1    5    5    0    0  0.23275175135E+02  0.45560139968E+01  0.58899845878E+00  0.23724206210E+02  0.00000000000E+00 0. -1.
        -16    1    3    3    0    0 -0.40628091363E+03 -0.34051609447E+03  0.25103729903E+03  0.58654506807E+03  0.00000000000E+00 0.  1.
         16    1    1    2    0    0  0.33273878341E+03  0.30792860352E+03  0.23337859979E+03  0.50990263158E+03  0.00000000000E+00 0. -1.
    9900018    1    3    3    0    0  0.12018519272E+03  0.41122978028E+02  0.19439009641E+03  0.24947598652E+03  0.91187600000E+02 0.  0.
<mgrwt>
<rscale>  0 0.12960476E+04</rscale>
<asrwt>0</asrwt>
<pdfrwt beam="1">  1        1 0.17279860E+00 0.12960476E+04</pdfrwt>
<pdfrwt beam="2">  1       -1 0.57519487E-01 0.12960476E+04</pdfrwt>
<totfact> 0.36642710E+01</totfact>
</mgrwt>
</event>
<event>
11    1  0.1006976E-009  0.1101526E+04  0.7818608E-02  0.9203705E-01
         -1   -1    0    0    0  501 -0.00000000000E+00  0.00000000000E+00  0.59301176642E+03  0.59301176642E+03  0.00000000000E+00 0.  1.
          1   -1    0    0  501    0  0.00000000000E+00 -0.00000000000E+00 -0.51152456994E+03  0.51152456994E+03  0.00000000000E+00 0. -1.
    9900016    2    1    2    0    0  0.14203964627E+03 -0.18727761535E+03 -0.16025682112E+03  0.76735932592E+03  0.71267799183E+03 0.  0.
         25    2    3    3    0    0  0.65661134371E+02  0.77361392036E+01 -0.32039688687E+03  0.35021394699E+03  0.12499764452E+03 0.  0.
        -15    1    4    4    0    0  0.51713790839E+02  0.13301949447E+02 -0.23474068265E+03  0.24073729689E+03  0.00000000000E+00 0.  1.
        -15    1    4    4    0    0 -0.16776351041E+02  0.28714787717E+00 -0.63205857762E+00  0.16790708925E+02  0.00000000000E+00 0.  1.
         15    1    4    4    0    0  0.16035320452E+02 -0.56096502332E+00 -0.19132783562E+02  0.24970174019E+02  0.00000000000E+00 0. -1.
         15    1    4    4    0    0  0.14688374121E+02 -0.52919930971E+01 -0.65891362077E+02  0.67715767157E+02  0.00000000000E+00 0. -1.
        -16    1    1    2    0    0 -0.14203964627E+03  0.18727761535E+03  0.24174401760E+03  0.33717701044E+03  0.00000000000E+00 0.  1.
         16    1    3    3    0    0  0.30808524332E+02 -0.22311472328E+03  0.20284070380E+03  0.30310674033E+03  0.00000000000E+00 0. -1.
    9900018    1    3    3    0    0  0.45569987572E+02  0.28100968726E+02 -0.42700638050E+02  0.11403863860E+03  0.91187600000E+02 0.  0.
<mgrwt>
<rscale>  0 0.11015264E+04</rscale>
<asrwt>0</asrwt>
<pdfrwt beam="1">  1        1 0.78696088E-01 0.11015264E+04</pdfrwt>
<pdfrwt beam="2">  1       -1 0.91232579E-01 0.11015264E+04</pdfrwt>
<totfact> 0.50181523E+01</totfact>
</mgrwt>
</event>
<event>
12    1  0.1006976E-009  0.1262251E+04  0.7818608E-02  0.9060048E-01
         -1   -1    0    0    0  501 -0.00000000000E+00  0.00000000000E+00  0.37201455718E+03  0.37201455718E+03  0.00000000000E+00 0. -1.
          1   -1    0    0  501    0  0.00000000000E+00 -0.00000000000E+00 -0.10707092846E+04  0.10707092846E+04  0.00000000000E+00 0.  1.
    9900016    2    1    2    0    0 -0.41529186449E+03  0.26707296924E+01 -0.33741293659E+03  0.89227039426E+03  0.71401995853E+03 0.  0.
         25    2    3    3    0    0 -0.25104560157E+03 -0.78089909826E+02 -0.30306214966E+03  0.42023108399E+03  0.12500227722E+03 0.  0.
         23    2    4    4    0    0 -0.13613949174E+03 -0.16097690602E+02 -0.18770795214E+03  0.24180406742E+03  0.66647091975E+02 0.  0.
        -15    1    4    4    0    0 -0.20834772479E+02 -0.24740598548E+02 -0.44040176670E+02  0.54641761702E+02  0.00000000000E+00 0.  1.
        -15    1    5    5    0    0 -0.73011867347E+02  0.27814784764E+01 -0.48235474770E+02  0.87550730564E+02  0.00000000000E+00 0.  1.
         15    1    4    4    0    0 -0.94071337354E+02 -0.37251620677E+02 -0.71314020854E+02  0.12378525488E+03  0.00000000000E+00 0. -1.
         15    1    5    5    0    0 -0.63127624394E+02 -0.18879169078E+02 -0.13947247737E+03  0.15425333685E+03  0.00000000000E+00 0. -1.
        -16    1    3    3    0    0  0.47903364279E+02  0.27108394460E+02 -0.18375402149E+03  0.19182058746E+03  0.00000000000E+00 0.  1.
         16    1    1    2    0    0  0.41529186449E+03 -0.26707296924E+01 -0.36128179084E+03  0.55045344754E+03  0.00000000000E+00 0. -1.
    9900018    1    3    3    0    0 -0.21214962720E+03  0.53652245058E+02  0.14940323456E+03  0.28021872280E+03  0.91187600000E+02 0.  0.
<mgrwt>
<rscale>  0 0.12622511E+04</rscale>
<asrwt>0</asrwt>
<pdfrwt beam="1">  1        1 0.16472450E+00 0.12622511E+04</pdfrwt>
<pdfrwt beam="2">  1       -1 0.57233009E-01 0.12622511E+04</pdfrwt>
<totfact> 0.40639644E+01</totfact>
</mgrwt>
</event>
<event>
11    1  0.1006976E-009  0.9542284E+03  0.7818608E-02  0.9360222E-01
          2   -1    0    0  501    0  0.00000000000E+00  0.00000000000E+00  0.10923625158E+04  0.10923625158E+04  0.00000000000E+00 0. -1.
         -2   -1    0    0    0  501 -0.00000000000E+00 -0.00000000000E+00 -0.20839047490E+03  0.20839047490E+03  0.00000000000E+00 0.  1.
    9900016    2    1    2    0    0 -0.31839847939E+02 -0.13148458558E+03  0.87422422489E+03  0.11651174789E+04  0.75824057659E+03 0.  0.
         25    2    3    3    0    0 -0.17330799524E+03  0.73342384790E+02  0.10135878598E+03  0.24761870289E+03  0.12500660745E+03 0.  0.
        -15    1    4    4    0    0 -0.12826580527E+02  0.61477483265E+01  0.22515028511E+02  0.26631606905E+02  0.00000000000E+00 0. -1.
        -15    1    4    4    0    0 -0.11588858537E+02 -0.22785652914E+02 -0.14736033664E+01  0.25605841673E+02  0.00000000000E+00 0.  1.
         15    1    4    4    0    0 -0.10836036208E+03  0.62134368319E+02  0.75535667923E+02  0.14597357612E+03  0.00000000000E+00 0. -1.
         15    1    4    4    0    0 -0.40532194090E+02  0.27845921057E+02  0.47816929175E+01  0.49407678193E+02  0.00000000000E+00 0.  1.
        -16    1    1    2    0    0  0.31839847939E+02  0.13148458558E+03  0.97478160318E+01  0.13563551187E+03  0.00000000000E+00 0.  1.
         16    1    3    3    0    0 -0.78255264741E+02 -0.23899114703E+02  0.51883967547E+03  0.52525199951E+03  0.00000000000E+00 0. -1.
    9900018    1    3    3    0    0  0.21972341204E+03 -0.18092785567E+03  0.25402576343E+03  0.39224677645E+03  0.91187600000E+02 0.  0.
<mgrwt>
<rscale>  0 0.95422837E+03</rscale>
<asrwt>0</asrwt>
<pdfrwt beam="1">  1        2 0.16805577E+00 0.95422837E+03</pdfrwt>
<pdfrwt beam="2">  1       -2 0.32060074E-01 0.95422837E+03</pdfrwt>
<totfact> 0.19917497E+02</totfact>
</mgrwt>
</event>
<event>
12    1  0.1006976E-009  0.7953243E+03  0.7818608E-02  0.9566810E-01
         -2   -1    0    0    0  501 -0.00000000000E+00  0.00000000000E+00  0.12650278912E+04  0.12650278912E+04  0.00000000000E+00 0.  1.
          2   -1    0    0  501    0  0.00000000000E+00 -0.00000000000E+00 -0.12500528114E+03  0.12500528114E+03  0.00000000000E+00 0. -1.
    9900016    2    1    2    0    0  0.12186983090E+02  0.12387775913E+02  0.88993850114E+03  0.11393460345E+04  0.71120803633E+03 0.  0.
         25    2    3    3    0    0 -0.77869631034E+02  0.11878072728E+03  0.39781385511E+03  0.44051424509E+03  0.12499758479E+03 0.  0.
         23    2    4    4    0    0 -0.14841697869E+02  0.32400198644E+02  0.10146569646E+03  0.12423130889E+03  0.62193903893E+02 0.  0.
        -15    1    5    5    0    0 -0.34485755932E+02  0.36636763445E+02  0.61181843320E+02  0.79213242264E+02  0.00000000000E+00 0.  1.
        -15    1    4    4    0    0 -0.52266408061E+02  0.49918376729E+02  0.20348110128E+03  0.21593559300E+03  0.00000000000E+00 0.  1.
         15    1    4    4    0    0 -0.10761525104E+02  0.36462151909E+02  0.92867057368E+02  0.10034734321E+03  0.00000000000E+00 0. -1.
         15    1    5    5    0    0  0.19644058063E+02 -0.42365648009E+01  0.40283853144E+02  0.45018066625E+02  0.00000000000E+00 0. -1.
        -16    1    1    2    0    0 -0.12186983090E+02 -0.12387775913E+02  0.25008410888E+03  0.25068713781E+03  0.00000000000E+00 0.  1.
         16    1    3    3    0    0  0.26448710785E+03 -0.13543670035E+03  0.28950996682E+03  0.41486449704E+03  0.00000000000E+00 0. -1.
    9900018    1    3    3    0    0 -0.17443049373E+03  0.29043748978E+02  0.20261467921E+03  0.28396729235E+03  0.91187600000E+02 0.  0.
<mgrwt>
<rscale>  0 0.79532425E+03</rscale>
<asrwt>0</asrwt>
<pdfrwt beam="1">  1        2 0.19231583E-01 0.79532425E+03</pdfrwt>
<pdfrwt beam="2">  1       -2 0.19461967E+00 0.79532425E+03</pdfrwt>
<totfact> 0.43535690E+01</totfact>
</mgrwt>
</event>
<event>
12    1  0.1006976E-009  0.1330656E+04  0.7818608E-02  0.9005601E-01
          2   -1    0    0  501    0  0.00000000000E+00  0.00000000000E+00  0.39285191869E+03  0.39285191869E+03  0.00000000000E+00 0.  1.
         -2   -1    0    0    0  501 -0.00000000000E+00 -0.00000000000E+00 -0.11267900740E+04  0.11267900740E+04  0.00000000000E+00 0. -1.
    9900016    2    1    2    0    0 -0.23986617910E+03 -0.70826565984E+02 -0.40182693320E+02  0.78218092431E+03  0.74002713679E+03 0.  0.
         25    2    3    3    0    0 -0.19100702227E+03  0.82284286030E+02 -0.18497207861E+02  0.24335509325E+03  0.12500067371E+03 0.  0.
         23    2    4    4    0    0 -0.87915948407E+02  0.66283091508E+02  0.88124351145E+01  0.12758957162E+03  0.63865308034E+02 0.  0.
        -15    1    4    4    0    0 -0.86128470048E+02 -0.70954536834E+00 -0.31260239523E+02  0.91628703922E+02  0.00000000000E+00 0.  1.
        -15    1    5    5    0    0 -0.79333372060E+02  0.23876142439E+02 -0.24373656764E+01  0.82884225590E+02  0.00000000000E+00 0. -1.
         15    1    4    4    0    0 -0.16962603817E+02  0.16710739890E+02  0.39505965477E+01  0.24136817707E+02  0.00000000000E+00 0.  1.
         15    1    5    5    0    0 -0.85825763461E+01  0.42406949070E+02  0.11249800791E+02  0.44705346034E+02  0.00000000000E+00 0. -1.
        -16    1    3    3    0    0 -0.15063563142E+03  0.13411097703E+03 -0.77181032014E+02  0.21594851080E+03  0.00000000000E+00 0.  1.
         16    1    1    2    0    0  0.23986617910E+03  0.70826565984E+02 -0.69375546199E+03  0.73746106837E+03  0.00000000000E+00 0. -1.
    9900018    1    3    3    0    0  0.10177647459E+03 -0.28722182904E+03  0.55495546555E+02  0.32287732026E+03  0.91187600000E+02 0.  0.
<mgrwt>
<rscale>  0 0.13306564E+04</rscale>
<asrwt>0</asrwt>
<pdfrwt beam="1">  1        2 0.60438758E-01 0.13306564E+04</pdfrwt>
<pdfrwt beam="2">  1       -2 0.17335232E+00 0.13306564E+04</pdfrwt>
<totfact> 0.15999156E+01</totfact>
</mgrwt>
</event>
<event>
11    1  0.1006976E-009  0.1114039E+04  0.7818608E-02  0.9191615E-01
         -2   -1    0    0    0  501 -0.00000000000E+00  0.00000000000E+00  0.20116811210E+03  0.20116811210E+03  0.00000000000E+00 0.  1.
          2   -1    0    0  501    0  0.00000000000E+00 -0.00000000000E+00 -0.15423466067E+04  0.15423466067E+04  0.00000000000E+00 0. -1.
    9900016    2    1    2    0    0  0.23816342599E+03  0.60502993379E+02 -0.59710390882E+03  0.95991442600E+03  0.71029585218E+03 0.  0.
         25    2    3    3    0    0  0.21491902514E+03  0.79767974553E+02 -0.21292905921E+03  0.33692290286E+03  0.12500056432E+03 0.  0.
        -15    1    4    4    0    0  0.98138404931E+01  0.32890579435E+02 -0.28996594967E+02  0.44932217845E+02  0.00000000000E+00 0.  1.
        -15    1    4    4    0    0  0.24572003574E+02 -0.12498850676E+01 -0.37425467821E+02  0.44788516542E+02  0.00000000000E+00 0. -1.
         15    1    4    4    0    0  0.16158680767E+03  0.63113983486E+02 -0.11783972400E+03  0.20971378562E+03  0.00000000000E+00 0. -1.
         15    1    4    4    0    0  0.18946373407E+02 -0.14986703300E+02 -0.28667272418E+02  0.37488382853E+02  0.00000000000E+00 0.  1.
        -16    1    3    3    0    0  0.11557314222E+03  0.16242657628E+03 -0.34186797864E+03  0.39574393073E+03  0.00000000000E+00 0.  1.
         16    1    1    2    0    0 -0.23816342599E+03 -0.60502993379E+02 -0.74407458576E+03  0.78360029279E+03  0.00000000000E+00 0. -1.
    9900018    1    3    3    0    0 -0.92328741372E+02 -0.18169155746E+03 -0.42306870969E+02  0.22724759242E+03  0.91187600000E+02 0.  0.
<mgrwt>
<rscale>  0 0.11140394E+04</rscale>
<asrwt>0</asrwt>
<pdfrwt beam="1">  1        2 0.23728408E+00 0.11140394E+04</pdfrwt>
<pdfrwt beam="2">  1       -2 0.30948941E-01 0.11140394E+04</pdfrwt>
<totfact> 0.11522425E+02</totfact>
</mgrwt>
</event>
<event>
12    1  0.1006976E-009  0.7989019E+03  0.7818608E-02  0.9561608E-01
         -1   -1    0    0    0  501 -0.00000000000E+00  0.00000000000E+00  0.11193742199E+03  0.11193742199E+03  0.00000000000E+00 0.  1.
          1   -1    0    0  501    0  0.00000000000E+00 -0.00000000000E+00 -0.14254488823E+04  0.14254488823E+04  0.00000000000E+00 0. -1.
    9900016    2    1    2    0    0 -0.83397709370E+02  0.13403348193E+02 -0.10942859197E+04  0.13024508550E+04  0.70127150806E+03 0.  0.
         25    2    3    3    0    0  0.12300839938E+03  0.14410600825E+03 -0.37718895137E+03  0.44021807334E+03  0.12499135622E+03 0.  0.
         23    2    4    4    0    0  0.82994901886E+02  0.11492614991E+03 -0.25773539205E+03  0.30428164910E+03  0.77869223661E+02 0.  0.
        -15    1    4    4    0    0  0.17792383504E+02  0.23730906052E+02 -0.25120867809E+02  0.38868789695E+02  0.00000000000E+00 0.  1.
        -15    1    5    5    0    0 -0.67314711418E+00  0.62128820534E+02 -0.11317492163E+03  0.12910850613E+03  0.00000000000E+00 0. -1.
         15    1    4    4    0    0  0.22221113988E+02  0.54489522851E+01 -0.94332691511E+02  0.97067634542E+02  0.00000000000E+00 0. -1.
         15    1    5    5    0    0  0.83668049000E+02  0.52797329378E+02 -0.14456047042E+03  0.17517314298E+03  0.00000000000E+00 0.  1.
        -16    1    3    3    0    0 -0.34002522913E+02  0.84713440180E+02 -0.30644705535E+01  0.91334163878E+02  0.00000000000E+00 0.  1.
         16    1    1    2    0    0  0.83397709370E+02 -0.13403348193E+02 -0.21922554059E+03  0.23493544925E+03  0.00000000000E+00 0. -1.
    9900018    1    3    3    0    0 -0.17240358583E+03 -0.21541610024E+03 -0.71403249778E+03  0.77089861780E+03  0.91187600000E+02 0.  0.
<mgrwt>
<rscale>  0 0.79890193E+03</rscale>
<asrwt>0</asrwt>
<pdfrwt beam="1">  1        1 0.21929982E+00 0.79890193E+03</pdfrwt>
<pdfrwt beam="2">  1       -1 0.17221143E-01 0.79890193E+03</pdfrwt>
<totfact> 0.19611535E+02</totfact>
</mgrwt>
</event>
<event>
12    1  0.1006976E-009  0.1998703E+04  0.7818608E-02  0.8607227E-01
          1   -1    0    0  501    0  0.00000000000E+00  0.00000000000E+00  0.22129618418E+04  0.22129618418E+04  0.00000000000E+00 0. -1.
         -1   -1    0    0    0  501 -0.00000000000E+00 -0.00000000000E+00 -0.45129735752E+03  0.45129735752E+03  0.00000000000E+00 0.  1.
    9900016    2    1    2    0    0  0.42507749596E+03  0.70685797386E+02 -0.30532088522E+02  0.82098604672E+03  0.69813932776E+03 0.  0.
         25    2    3    3    0    0  0.17993412476E+03 -0.18724483841E+03 -0.31966871372E+02  0.28997315713E+03  0.12500252889E+03 0.  0.
         23    2    4    4    0    0  0.13500424964E+03 -0.16328974306E+03 -0.57858513548E+02  0.23054274446E+03  0.70090383241E+02 0.  0.
        -15    1    4    4    0    0  0.20856708700E+02 -0.22100793981E+01  0.85855374435E+01  0.22662705089E+02  0.00000000000E+00 0. -1.
        -15    1    5    5    0    0 -0.16708301950E+00 -0.32249014601E+02  0.37235288258E+01  0.32463695514E+02  0.00000000000E+00 0.  1.
         15    1    5    5    0    0  0.13517133266E+03 -0.13104072846E+03 -0.61582042374E+02  0.19807904894E+03  0.00000000000E+00 0.  1.
         15    1    4    4    0    0  0.24073166419E+02 -0.21745015948E+02  0.17306104733E+02  0.36767707584E+02  0.00000000000E+00 0. -1.
        -16    1    3    3    0    0  0.30292985885E+03  0.11993880648E+03 -0.83453919118E+02  0.33632777658E+03  0.00000000000E+00 0.  1.
         16    1    1    2    0    0 -0.42507749596E+03 -0.70685797386E+02  0.17921965728E+04  0.18432731526E+04  0.00000000000E+00 0. -1.
    9900018    1    3    3    0    0 -0.57786487650E+02  0.13799182932E+03  0.84888701968E+02  0.19468511301E+03  0.91187600000E+02 0.  0.
<mgrwt>
<rscale>  0 0.19987034E+04</rscale>
<asrwt>0</asrwt>
<pdfrwt beam="1">  1        1 0.34045566E+00 0.19987034E+04</pdfrwt>
<pdfrwt beam="2">  1       -1 0.69430364E-01 0.19987034E+04</pdfrwt>
<totfact> 0.41555306E+00</totfact>
</mgrwt>
</event>
<event>
12    1  0.1006976E-009  0.1304107E+04  0.7818608E-02  0.9026315E-01
          2   -1    0    0  501    0  0.00000000000E+00  0.00000000000E+00  0.73736422344E+03  0.73736422344E+03  0.00000000000E+00 0. -1.
         -2   -1    0    0    0  501 -0.00000000000E+00 -0.00000000000E+00 -0.57661256303E+03  0.57661256303E+03  0.00000000000E+00 0.  1.
    9900016    2    1    2    0    0  0.23625467048E+03 -0.38969380320E+03  0.38881776970E+01  0.83201861216E+03  0.69610510950E+03 0.  0.
         25    2    3    3    0    0 -0.12259147232E+03 -0.53193845987E+01 -0.13688018622E+03  0.22230041143E+03  0.12499729039E+03 0.  0.
         23    2    4    4    0    0 -0.12860229655E+03 -0.23833098919E+01 -0.13254919424E+03  0.19746032886E+03  0.69835963068E+02 0.  0.
        -15    1    5    5    0    0 -0.91317593711E+02 -0.30416027113E+02 -0.10829005136E+03  0.14488192727E+03  0.00000000000E+00 0.  1.
        -15    1    4    4    0    0  0.90240347957E+01  0.86362621061E+01 -0.18456626089E+01  0.12626349339E+02  0.00000000000E+00 0.  1.
         15    1    5    5    0    0 -0.37284702842E+02  0.28032717222E+02 -0.24259142876E+02  0.52578401592E+02  0.00000000000E+00 0. -1.
         15    1    4    4    0    0 -0.30132105611E+01 -0.11572336813E+02 -0.24853293721E+01  0.12213733225E+02  0.00000000000E+00 0. -1.
        -16    1    1    2    0    0 -0.23625467048E+03  0.38969380320E+03  0.15686348271E+03  0.48195817431E+03  0.00000000000E+00 0.  1.
         16    1    3    3    0    0  0.15417906109E+03 -0.31344935398E+03  0.13539349826E+03  0.37463726424E+03  0.00000000000E+00 0. -1.
    9900018    1    3    3    0    0  0.20466708171E+03 -0.70925064629E+02  0.53748656578E+01  0.23508093649E+03  0.91187600000E+02 0.  0.
<mgrwt>
<rscale>  0 0.13041066E+04</rscale>
<asrwt>0</asrwt>
<pdfrwt beam="1">  1        2 0.11344065E+00 0.13041066E+04</pdfrwt>
<pdfrwt beam="2">  1       -2 0.88709625E-01 0.13041066E+04</pdfrwt>
<totfact> 0.41058235E+01</totfact>
</mgrwt>
</event>
<event>
11    1  0.1006976E-009  0.1466463E+04  0.7818608E-02  0.8907066E-01
         -2   -1    0    0    0  501 -0.00000000000E+00  0.00000000000E+00  0.51486911311E+03  0.51486911311E+03  0.00000000000E+00 0.  1.
          2   -1    0    0  501    0  0.00000000000E+00 -0.00000000000E+00 -0.10442036339E+04  0.10442036339E+04  0.00000000000E+00 0. -1.
    9900016    2    1    2    0    0  0.36027493035E+03 -0.89469187615E+02 -0.78014759123E+03  0.11110660983E+04  0.69859491099E+03 0.  0.
         25    2    3    3    0    0 -0.22020607450E+02  0.75978423906E+02 -0.36391107878E+03  0.39282817143E+03  0.12500028386E+03 0.  0.
        -15    1    4    4    0    0  0.87221016403E+01 -0.57533660068E+01 -0.56124397424E+01  0.11860681148E+02  0.00000000000E+00 0. -1.
        -15    1    4    4    0    0 -0.82247823654E+01  0.36055756601E+02 -0.18416004738E+03  0.18783659835E+03  0.00000000000E+00 0. -1.
         15    1    4    4    0    0 -0.27907374860E+02 -0.37021214019E+01 -0.10002877570E+03  0.10391478837E+03  0.00000000000E+00 0.  1.
         15    1    4    4    0    0  0.53894481354E+01  0.49378154714E+02 -0.74109815956E+02  0.89216103564E+02  0.00000000000E+00 0.  1.
        -16    1    1    2    0    0 -0.36027493035E+03  0.89469187615E+02  0.25081307046E+03  0.44800664871E+03  0.00000000000E+00 0.  1.
         16    1    3    3    0    0  0.37731659227E+03 -0.96653367205E+02 -0.45366585980E+03  0.59793176579E+03  0.00000000000E+00 0. -1.
    9900018    1    3    3    0    0  0.49789455265E+01 -0.68794244316E+02  0.37429347346E+02  0.12030616105E+03  0.91187600000E+02 0.  0.
<mgrwt>
<rscale>  0 0.14664627E+04</rscale>
<asrwt>0</asrwt>
<pdfrwt beam="1">  1        2 0.16064671E+00 0.14664627E+04</pdfrwt>
<pdfrwt beam="2">  1       -2 0.79210633E-01 0.14664627E+04</pdfrwt>
<totfact> 0.32326305E+01</totfact>
</mgrwt>
</event>
<event>
13    1  0.1006976E-009  0.1176446E+04  0.7818608E-02  0.9133727E-01
         -2   -1    0    0    0  501 -0.00000000000E+00  0.00000000000E+00  0.26115323309E+03  0.26115323309E+03  0.00000000000E+00 0.  1.
          2   -1    0    0  501    0  0.00000000000E+00 -0.00000000000E+00 -0.13249174360E+04  0.13249174360E+04  0.00000000000E+00 0. -1.
    9900016    2    1    2    0    0 -0.16659278027E+03 -0.29987207717E+03 -0.52845233298E+03  0.95027572164E+03  0.71139697905E+03 0.  0.
         25    2    3    3    0    0  0.48720930846E+01 -0.43477481226E+02 -0.35732589395E+02  0.13716921622E+03  0.12499818906E+03 0.  0.
         23    2    4    4    0    0 -0.12051058310E+02 -0.19882506533E+02 -0.72542665410E+01  0.66063058115E+02  0.61409780915E+02 0.  0.
         23    2    4    4    0    0  0.16923151395E+02 -0.23594974693E+02 -0.28478322854E+02  0.71106158101E+02  0.58326280212E+02 0.  0.
        -15    1    5    5    0    0 -0.16802691483E+02  0.17368795000E+02  0.81067316711E+01  0.25489695550E+02  0.00000000000E+00 0. -1.
        -15    1    6    6    0    0  0.17239260114E+02  0.69776692913E+01  0.10663904963E+02  0.21438256158E+02  0.00000000000E+00 0.  1.
         15    1    5    5    0    0  0.47516331728E+01 -0.37251301533E+02 -0.15360998212E+02  0.40573362565E+02  0.00000000000E+00 0.  1.
         15    1    6    6    0    0 -0.31610871889E+00 -0.30572643985E+02 -0.39142227817E+02  0.49667901943E+02  0.00000000000E+00 0. -1.
        -16    1    3    3    0    0  0.78734524247E+02  0.13268600975E+03 -0.39838445307E+02  0.15934805997E+03  0.00000000000E+00 0.  1.
         16    1    1    2    0    0  0.16659278027E+03  0.29987207717E+03 -0.53531186994E+03  0.63579494745E+03  0.00000000000E+00 0. -1.
    9900018    1    3    3    0    0 -0.25019939760E+03 -0.38908060569E+03 -0.45288129828E+03  0.65375844546E+03  0.91187600000E+02 0.  0.
<mgrwt>
<rscale>  0 0.11764463E+04</rscale>
<asrwt>0</asrwt>
<pdfrwt beam="1">  1        2 0.20383345E+00 0.11764463E+04</pdfrwt>
<pdfrwt beam="2">  1       -2 0.40177421E-01 0.11764463E+04</pdfrwt>
<totfact> 0.92576725E+01</totfact>
</mgrwt>
</event>
<event>
12    1  0.1006976E-009  0.1464352E+04  0.7818608E-02  0.8908511E-01
          1   -1    0    0  501    0  0.00000000000E+00  0.00000000000E+00  0.13765779932E+04  0.13765779932E+04  0.00000000000E+00 0. -1.
         -1   -1    0    0    0  501 -0.00000000000E+00 -0.00000000000E+00 -0.38943059809E+03  0.38943059809E+03  0.00000000000E+00 0.  1.
    9900016    2    1    2    0    0 -0.52058933876E+03 -0.23774840545E+03  0.72811595096E+03  0.11378088993E+04  0.66099825221E+03 0.  0.
         25    2    3    3    0    0 -0.21603245558E+02 -0.82429627971E+01  0.11539766271E+03  0.17169726844E+03  0.12501473824E+03 0.  0.
         23    2    4    4    0    0  0.44800526890E+01  0.66003046619E+01  0.21649380051E+02  0.71241548489E+02  0.67401985733E+02 0.  0.
        -15    1    4    4    0    0 -0.18371159335E+02 -0.35058146583E+01  0.74571531096E+02  0.76881099640E+02  0.00000000000E+00 0. -1.
        -15    1    5    5    0    0  0.24047572638E+02 -0.21093858184E+02  0.19053839182E+02  0.37232853643E+02  0.00000000000E+00 0. -1.
         15    1    4    4    0    0 -0.77121389115E+01 -0.11337452801E+02  0.19176751560E+02  0.23574620315E+02  0.00000000000E+00 0.  1.
         15    1    5    5    0    0 -0.19567519949E+02  0.27694162846E+02  0.25955408686E+01  0.34008694845E+02  0.00000000000E+00 0.  1.
        -16    1    1    2    0    0  0.52058933876E+03  0.23774840545E+03  0.25903144416E+03  0.62819969197E+03  0.00000000000E+00 0.  1.
         16    1    3    3    0    0 -0.49431349622E+03 -0.12828630182E+03  0.23047250156E+03  0.56028633908E+03  0.00000000000E+00 0. -1.
    9900018    1    3    3    0    0 -0.46725969855E+01 -0.10121914083E+03  0.38224578670E+03  0.40582529181E+03  0.91187600000E+02 0.  0.
<mgrwt>
<rscale>  0 0.14643519E+04</rscale>
<asrwt>0</asrwt>
<pdfrwt beam="1">  1        1 0.21178123E+00 0.14643519E+04</pdfrwt>
<pdfrwt beam="2">  1       -1 0.59912401E-01 0.14643519E+04</pdfrwt>
<totfact> 0.21867316E+01</totfact>
</mgrwt>
</event>
<event>
11    1  0.1006976E-009  0.1846222E+04  0.7818608E-02  0.8682098E-01
         -2   -1    0    0    0  501 -0.00000000000E+00  0.00000000000E+00  0.48750068104E+03  0.48750068104E+03  0.00000000000E+00 0.  1.
          2   -1    0    0  501    0  0.00000000000E+00 -0.00000000000E+00 -0.17479640979E+04  0.17479640979E+04  0.00000000000E+00 0. -1.
    9900016    2    1    2    0    0  0.35392053961E+03 -0.27431857664E+03  0.58622519674E+02  0.84244714164E+03  0.71117519417E+03 0.  0.
         25    2    3    3    0    0 -0.25608606577E+02 -0.12796145761E+03  0.20351691721E+03  0.27216499893E+03  0.12499886275E+03 0.  0.
        -15    1    4    4    0    0  0.21698310761E+02 -0.54864130663E+02  0.11137151865E+03  0.12603374425E+03  0.00000000000E+00 0.  1.
        -15    1    4    4    0    0 -0.20020383097E+02 -0.47527422403E+01  0.20414445239E+02  0.28985407925E+02  0.00000000000E+00 0.  1.
         15    1    4    4    0    0 -0.39789211221E+02 -0.63027015243E+02  0.71893991061E+02  0.10355835037E+03  0.00000000000E+00 0. -1.
         15    1    4    4    0    0  0.12502676981E+02 -0.53175694611E+01 -0.16303774447E+00  0.13587496383E+02  0.00000000000E+00 0. -1.
        -16    1    3    3    0    0  0.19423708303E+03 -0.41458867758E+02  0.10903926733E+03  0.22657547078E+03  0.00000000000E+00 0.  1.
         16    1    1    2    0    0 -0.35392053961E+03  0.27431857664E+03 -0.13190859365E+04  0.13930176373E+04  0.00000000000E+00 0. -1.
    9900018    1    3    3    0    0  0.18529206315E+03 -0.10489825127E+03 -0.25393366486E+03  0.34370667193E+03  0.91187600000E+02 0.  0.
<mgrwt>
<rscale>  0 0.18462218E+04</rscale>
<asrwt>0</asrwt>
<pdfrwt beam="1">  1        2 0.26891755E+00 0.18462218E+04</pdfrwt>
<pdfrwt beam="2">  1       -2 0.75000105E-01 0.18462218E+04</pdfrwt>
<totfact> 0.13850392E+01</totfact>
</mgrwt>
</event>
<event>
12    1  0.1006976E-009  0.2378813E+04  0.7818608E-02  0.8447479E-01
          2   -1    0    0  501    0  0.00000000000E+00  0.00000000000E+00  0.25622809544E+04  0.25622809544E+04  0.00000000000E+00 0. -1.
         -2   -1    0    0    0  501 -0.00000000000E+00 -0.00000000000E+00 -0.55212033992E+03  0.55212033992E+03  0.00000000000E+00 0.  1.
    9900016    2    1    2    0    0  0.54591052570E+03 -0.76471696006E+03  0.18011741331E+04  0.21518600326E+04  0.70955127445E+03 0.  0.
         25    2    3    3    0    0  0.77028132256E+01 -0.92681325039E+02  0.14665444874E+03  0.21396774574E+03  0.12500203015E+03 0.  0.
         23    2    4    4    0    0 -0.35068346779E+02 -0.73366869216E+02  0.95693544503E+02  0.13823368588E+03  0.57782445491E+02 0.  0.
        -15    1    5    5    0    0 -0.17705884508E+02 -0.59520143859E+02  0.97882098723E+02  0.11591829503E+03  0.00000000000E+00 0.  1.
        -15    1    4    4    0    0  0.19610387182E+02 -0.12958634352E+02  0.52298774865E+01  0.24079973177E+02  0.00000000000E+00 0.  1.
         15    1    5    5    0    0 -0.17362462271E+02 -0.13846725358E+02 -0.21885542198E+01  0.22315390851E+02  0.00000000000E+00 0. -1.
         15    1    4    4    0    0  0.23160772823E+02 -0.63558214716E+01  0.45731026747E+02  0.51654086689E+02  0.00000000000E+00 0. -1.
        -16    1    1    2    0    0 -0.54591052570E+03  0.76471696006E+03  0.20898648132E+03  0.96254126168E+03  0.00000000000E+00 0.  1.
         16    1    3    3    0    0  0.24110253739E+03 -0.63720264554E+03  0.97035877061E+03  0.11856448831E+04  0.00000000000E+00 0. -1.
    9900018    1    3    3    0    0  0.29710517508E+03 -0.34832989474E+02  0.68416091379E+03  0.75224740382E+03  0.91187600000E+02 0.  0.
<mgrwt>
<rscale>  0 0.23788127E+04</rscale>
<asrwt>0</asrwt>
<pdfrwt beam="1">  1        2 0.39419706E+00 0.23788127E+04</pdfrwt>
<pdfrwt beam="2">  1       -2 0.84941592E-01 0.23788127E+04</pdfrwt>
<totfact> 0.34808062E+00</totfact>
</mgrwt>
</event>
<event>
12    1  0.1006976E-009  0.8152961E+03  0.7818608E-02  0.9538137E-01
          1   -1    0    0  501    0  0.00000000000E+00  0.00000000000E+00  0.30203668618E+03  0.30203668618E+03  0.00000000000E+00 0. -1.
         -1   -1    0    0    0  501 -0.00000000000E+00 -0.00000000000E+00 -0.55018786581E+03  0.55018786581E+03  0.00000000000E+00 0.  1.
    9900016    2    1    2    0    0 -0.37441911210E+02  0.59032742637E+02 -0.26979467708E+03  0.77904530356E+03  0.72748584578E+03 0.  0.
         25    2    3    3    0    0  0.55527845747E+02  0.17122413412E+01 -0.62647019757E+02  0.15045314947E+03  0.12500091071E+03 0.  0.
         23    2    4    4    0    0  0.46881010931E+02  0.28843177089E+02 -0.48977123679E+02  0.98652194898E+02  0.65602887619E+02 0.  0.
        -15    1    5    5    0    0  0.44431465894E+02  0.42616673534E+02 -0.17186459960E+02  0.63919562190E+02  0.00000000000E+00 0.  1.
        -15    1    4    4    0    0  0.24814605773E+02 -0.12830836483E+02 -0.42761183374E+01  0.28260930851E+02  0.00000000000E+00 0. -1.
         15    1    4    4    0    0 -0.16167770958E+02 -0.14300099264E+02 -0.93937777406E+01  0.23540023725E+02  0.00000000000E+00 0. -1.
         15    1    5    5    0    0  0.24495450374E+01 -0.13773496445E+02 -0.31790663719E+02  0.34732632709E+02  0.00000000000E+00 0.  1.
        -16    1    3    3    0    0 -0.33291657245E+03  0.46234969670E+02 -0.12935698329E+03  0.36014489551E+03  0.00000000000E+00 0.  1.
         16    1    1    2    0    0  0.37441911210E+02 -0.59032742637E+02  0.21643497454E+02  0.73179248427E+02  0.00000000000E+00 0. -1.
    9900018    1    3    3    0    0  0.23994681550E+03  0.11085531626E+02 -0.77790674032E+02  0.26844725858E+03  0.91187600000E+02 0.  0.
<mgrwt>
<rscale>  0 0.81529607E+03</rscale>
<asrwt>0</asrwt>
<pdfrwt beam="1">  1        1 0.46467183E-01 0.81529607E+03</pdfrwt>
<pdfrwt beam="2">  1       -1 0.84644287E-01 0.81529607E+03</pdfrwt>
<totfact> 0.12151282E+02</totfact>
</mgrwt>
</event>
<event>
12    1  0.1006976E-009  0.1061119E+04  0.7818608E-02  0.9243939E-01
         -2   -1    0    0    0  501 -0.00000000000E+00  0.00000000000E+00  0.34818814341E+03  0.34818814341E+03  0.00000000000E+00 0.  1.
          2   -1    0    0  501    0  0.00000000000E+00 -0.00000000000E+00 -0.80845191263E+03  0.80845191263E+03  0.00000000000E+00 0. -1.
    9900016    2    1    2    0    0 -0.13917275483E+03 -0.11920726153E+03 -0.86773819979E+02  0.74061821878E+03  0.71232452104E+03 0.  0.
         25    2    3    3    0    0 -0.33511775551E+02 -0.15725863878E+03 -0.18732827078E+02  0.20452090716E+03  0.12499825631E+03 0.  0.
         23    2    4    4    0    0  0.18527989759E+01 -0.12507818363E+03 -0.10734525886E+02  0.14777125659E+03  0.77930285166E+02 0.  0.
        -15    1    4    4    0    0 -0.27916405660E+02 -0.17964926210E+02 -0.18075732962E+02  0.37799423287E+02  0.00000000000E+00 0. -1.
        -15    1    5    5    0    0 -0.43302145870E+01 -0.43002166116E+02 -0.41483342154E+02  0.59906633400E+02  0.00000000000E+00 0.  1.
         15    1    5    5    0    0  0.61830135629E+01 -0.82076017510E+02  0.30748816268E+02  0.87864623193E+02  0.00000000000E+00 0. -1.
         15    1    4    4    0    0 -0.74481688663E+01 -0.14215528948E+02  0.10077431770E+02  0.18950227276E+02  0.00000000000E+00 0.  1.
        -16    1    1    2    0    0  0.13917275483E+03  0.11920726153E+03 -0.37348994924E+03  0.41602183725E+03  0.00000000000E+00 0.  1.
         16    1    3    3    0    0 -0.12972217473E+03  0.64678147233E+02 -0.27289944912E+03  0.30900681979E+03  0.00000000000E+00 0. -1.
    9900018    1    3    3    0    0  0.24061195447E+02 -0.26626769979E+02  0.20485845622E+03  0.22709049184E+03  0.91187600000E+02 0.  0.
<mgrwt>
<rscale>  0 0.10611190E+04</rscale>
<asrwt>0</asrwt>
<pdfrwt beam="1">  1        2 0.12437722E+00 0.10611190E+04</pdfrwt>
<pdfrwt beam="2">  1       -2 0.53567407E-01 0.10611190E+04</pdfrwt>
<totfact> 0.11101557E+02</totfact>
</mgrwt>
</event>
<event>
11    1  0.1006976E-009  0.9928182E+03  0.7818608E-02  0.9316457E-01
         -1   -1    0    0    0  501 -0.00000000000E+00  0.00000000000E+00  0.17567919887E+03  0.17567919887E+03  0.00000000000E+00 0.  1.
          1   -1    0    0  501    0  0.00000000000E+00 -0.00000000000E+00 -0.14026816529E+04  0.14026816529E+04  0.00000000000E+00 0. -1.
    9900016    2    1    2    0    0  0.23603769464E+03  0.54346171027E+02 -0.95218722868E+03  0.12120403532E+04  0.70972811674E+03 0.  0.
         25    2    3    3    0    0  0.11615135045E+03  0.34421725025E+02 -0.16020455935E+03  0.23657113335E+03  0.12499763572E+03 0.  0.
        -15    1    4    4    0    0 -0.19462536458E+01  0.34738469028E+02 -0.49770752181E+02  0.60726245614E+02  0.00000000000E+00 0.  1.
        -15    1    4    4    0    0  0.40248724460E+02  0.20218859816E+02 -0.46133048287E+02  0.64474958372E+02  0.00000000000E+00 0.  1.
         15    1    4    4    0    0  0.28186896349E+02  0.72783076087E+01 -0.56784504517E+01  0.29660068897E+02  0.00000000000E+00 0. -1.
         15    1    4    4    0    0  0.49661983283E+02 -0.27813911429E+02 -0.58622308426E+02  0.81709860469E+02  0.00000000000E+00 0. -1.
        -16    1    3    3    0    0 -0.95350738834E+02  0.74458506937E+02  0.25361101271E+02  0.12360832540E+03  0.00000000000E+00 0.  1.
         16    1    1    2    0    0 -0.23603769464E+03 -0.54346171027E+02 -0.27481522534E+03  0.36632049857E+03  0.00000000000E+00 0. -1.
    9900018    1    3    3    0    0  0.21523708302E+03 -0.54534060935E+02 -0.81734377061E+03  0.85186089443E+03  0.91187600000E+02 0.  0.
<mgrwt>
<rscale>  0 0.99281819E+03</rscale>
<asrwt>0</asrwt>
<pdfrwt beam="1">  1        1 0.21579717E+00 0.99281819E+03</pdfrwt>
<pdfrwt beam="2">  1       -1 0.27027570E-01 0.99281819E+03</pdfrwt>
<totfact> 0.93892694E+01</totfact>
</mgrwt>
</event>
<event>
11    1  0.1006976E-009  0.1052962E+04  0.7818608E-02  0.9252291E-01
         -1   -1    0    0    0  501 -0.00000000000E+00  0.00000000000E+00  0.28885754156E+03  0.28885754156E+03  0.00000000000E+00 0.  1.
          1   -1    0    0  501    0  0.00000000000E+00 -0.00000000000E+00 -0.95958189784E+03  0.95958189784E+03  0.00000000000E+00 0. -1.
    9900016    2    1    2    0    0  0.56389559537E+02 -0.57099514592E+02 -0.81294595011E+03  0.10851387390E+04  0.71428623684E+03 0.  0.
         25    2    3    3    0    0  0.35144914048E+02 -0.12032320347E+03 -0.59947497840E+03  0.62506727348E+03  0.12500403342E+03 0.  0.
        -15    1    4    4    0    0 -0.96773535990E+01 -0.22101375806E+02 -0.36064571036E+02  0.43390958381E+02  0.00000000000E+00 0.  1.
        -15    1    4    4    0    0  0.28681648179E+02 -0.94856673489E+02 -0.41297328486E+03  0.42469678531E+03  0.00000000000E+00 0.  1.
         15    1    4    4    0    0 -0.13033737444E+02 -0.72393784849E+01 -0.40002200050E+02  0.42690314141E+02  0.00000000000E+00 0. -1.
         15    1    4    4    0    0  0.29174356912E+02  0.38742243117E+01 -0.11043492246E+03  0.11428921565E+03  0.00000000000E+00 0. -1.
        -16    1    1    2    0    0 -0.56389559537E+02  0.57099514592E+02  0.14222159383E+03  0.16330070037E+03  0.00000000000E+00 0.  1.
         16    1    3    3    0    0  0.36752034119E+02  0.18090396012E+03 -0.24534366070E+03  0.30703495997E+03  0.00000000000E+00 0. -1.
    9900018    1    3    3    0    0 -0.15507388630E+02 -0.11768027124E+03  0.31872688989E+02  0.15303650557E+03  0.91187600000E+02 0.  0.
<mgrwt>
<rscale>  0 0.10529624E+04</rscale>
<asrwt>0</asrwt>
<pdfrwt beam="1">  1        1 0.14762799E+00 0.10529624E+04</pdfrwt>
<pdfrwt beam="2">  1       -1 0.44439621E-01 0.10529624E+04</pdfrwt>
<totfact> 0.81547199E+01</totfact>
</mgrwt>
</event>
<event>
12    1  0.1006976E-009  0.1241367E+04  0.7818608E-02  0.9077399E-01
          2   -1    0    0  501    0  0.00000000000E+00  0.00000000000E+00  0.15022640369E+04  0.15022640369E+04  0.00000000000E+00 0. -1.
         -2   -1    0    0    0  501 -0.00000000000E+00 -0.00000000000E+00 -0.25644488635E+03  0.25644488635E+03  0.00000000000E+00 0.  1.
    9900016    2    1    2    0    0  0.13296460915E+02  0.41056091665E+03  0.86073799864E+03  0.11956595864E+04  0.72110670650E+03 0.  0.
         25    2    3    3    0    0 -0.14098202016E+03 -0.59201982561E+02  0.32489110711E+03  0.38021059124E+03  0.12500022988E+03 0.  0.
         23    2    4    4    0    0 -0.95263430249E+02 -0.20037500268E+02  0.14027557457E+03  0.18509592764E+03  0.71460779780E+02 0.  0.
        -15    1    4    4    0    0 -0.30535551894E+02 -0.18095505783E+02  0.83782886013E+02  0.90991424033E+02  0.00000000000E+00 0.  1.
        -15    1    5    5    0    0 -0.41100716861E+02  0.13037565120E+02  0.10259911916E+03  0.11129162719E+03  0.00000000000E+00 0.  1.
         15    1    4    4    0    0 -0.15183038016E+02 -0.21068976510E+02  0.10083264652E+03  0.10412323958E+03  0.00000000000E+00 0. -1.
         15    1    5    5    0    0 -0.54162713388E+02 -0.33075065388E+02  0.37676455414E+02  0.73804300447E+02  0.00000000000E+00 0. -1.
        -16    1    1    2    0    0 -0.13296460915E+02 -0.41056091665E+03  0.38508115193E+03  0.56304933685E+03  0.00000000000E+00 0.  1.
         16    1    3    3    0    0  0.25117051161E+03  0.36953635545E+03  0.36640539328E+03  0.57783791510E+03  0.00000000000E+00 0. -1.
    9900018    1    3    3    0    0 -0.96892030535E+02  0.10022654377E+03  0.16944149826E+03  0.23761108009E+03  0.91187600000E+02 0.  0.
<mgrwt>
<rscale>  0 0.12413669E+04</rscale>
<asrwt>0</asrwt>
<pdfrwt beam="1">  1        2 0.23111754E+00 0.12413669E+04</pdfrwt>
<pdfrwt beam="2">  1       -2 0.39453060E-01 0.12413669E+04</pdfrwt>
<totfact> 0.75637303E+01</totfact>
</mgrwt>
</event>
<event>
11    1  0.1006976E-009  0.9301997E+03  0.7818608E-02  0.9388598E-01
         -2   -1    0    0    0  501 -0.00000000000E+00  0.00000000000E+00  0.47285793734E+03  0.47285793734E+03  0.00000000000E+00 0.  1.
          2   -1    0    0  501    0  0.00000000000E+00 -0.00000000000E+00 -0.45746905171E+03  0.45746905171E+03  0.00000000000E+00 0. -1.
    9900016    2    1    2    0    0  0.70918318310E+02  0.67892629984E+02  0.18322445238E+03  0.73588523802E+03  0.70591576446E+03 0.  0.
         25    2    3    3    0    0  0.15430515414E+03 -0.89839874681E+02  0.22344034911E+03  0.31214385848E+03  0.12500766015E+03 0.  0.
        -15    1    4    4    0    0 -0.15267123721E+01  0.11949959241E+02  0.28130154505E+02  0.30601273977E+02  0.00000000000E+00 0.  1.
        -15    1    4    4    0    0  0.94645389294E+02 -0.82579426579E+02  0.11302076922E+03  0.16896983661E+03  0.00000000000E+00 0.  1.
         15    1    4    4    0    0  0.47170624536E+02 -0.33040569745E+01  0.29621401534E+02  0.55797957315E+02  0.00000000000E+00 0. -1.
         15    1    4    4    0    0  0.14015852680E+02 -0.15906350368E+02  0.52668023855E+02  0.56774790578E+02  0.00000000000E+00 0. -1.
        -16    1    3    3    0    0  0.13072829320E+03  0.28709329441E+02 -0.78096637732E+02  0.15496192133E+03  0.00000000000E+00 0.  1.
         16    1    1    2    0    0 -0.70918318310E+02 -0.67892629984E+02 -0.16783556675E+03  0.19444175103E+03  0.00000000000E+00 0. -1.
    9900018    1    3    3    0    0 -0.21411512902E+03  0.12902317522E+03  0.37880741000E+02  0.26877945821E+03  0.91187600000E+02 0.  0.
<mgrwt>
<rscale>  0 0.93019970E+03</rscale>
<asrwt>0</asrwt>
<pdfrwt beam="1">  1        2 0.70379854E-01 0.93019970E+03</pdfrwt>
<pdfrwt beam="2">  1       -2 0.72747375E-01 0.93019970E+03</pdfrwt>
<totfact> 0.11689460E+02</totfact>
</mgrwt>
</event>
<event>
12    1  0.1006976E-009  0.8491853E+03  0.7818608E-02  0.9491431E-01
         -2   -1    0    0    0  501 -0.00000000000E+00  0.00000000000E+00  0.82243134775E+02  0.82243134775E+02  0.00000000000E+00 0.  1.
          2   -1    0    0  501    0  0.00000000000E+00 -0.00000000000E+00 -0.21920236864E+04  0.21920236864E+04  0.00000000000E+00 0. -1.
    9900016    2    1    2    0    0 -0.72018853780E+02  0.73505877649E+02 -0.19815579657E+04  0.21098561740E+04  0.71716893014E+03 0.  0.
         25    2    3    3    0    0 -0.59989607020E+02  0.57475541978E+02 -0.52716834689E+03  0.54811851575E+03  0.12500100186E+03 0.  0.
         23    2    4    4    0    0 -0.42873152432E+02  0.64654373369E+02 -0.44119405906E+03  0.45450559849E+03  0.76842996513E+02 0.  0.
        -15    1    4    4    0    0  0.68151338790E+01 -0.10491331795E+02 -0.23357346987E+02  0.26496787558E+02  0.00000000000E+00 0. -1.
        -15    1    5    5    0    0 -0.60233884462E+02  0.33854314090E+02 -0.34879781425E+03  0.35557580155E+03  0.00000000000E+00 0.  1.
         15    1    5    5    0    0  0.17360732030E+02  0.30800059279E+02 -0.92396244816E+02  0.98929796948E+02  0.00000000000E+00 0.  1.
         15    1    4    4    0    0 -0.23931588467E+02  0.33125004037E+01 -0.62616940839E+02  0.67116129697E+02  0.00000000000E+00 0. -1.
        -16    1    1    2    0    0  0.72018853780E+02 -0.73505877649E+02 -0.12822258591E+03  0.16441064712E+03  0.00000000000E+00 0.  1.
         16    1    3    3    0    0 -0.18538703550E+03 -0.16663275336E+03 -0.37995094891E+03  0.45442001607E+03  0.00000000000E+00 0. -1.
    9900018    1    3    3    0    0  0.17335778874E+03  0.18266308903E+03 -0.10744386699E+04  0.11073176422E+04  0.91187600000E+02 0.  0.
<mgrwt>
<rscale>  0 0.84918526E+03</rscale>
<asrwt>0</asrwt>
<pdfrwt beam="1">  1        2 0.33723438E+00 0.84918526E+03</pdfrwt>
<pdfrwt beam="2">  1       -2 0.12652791E-01 0.84918526E+03</pdfrwt>
<totfact> 0.24811171E+02</totfact>
</mgrwt>
</event>
<event>
12    1  0.1006976E-009  0.8936638E+03  0.7818608E-02  0.9433537E-01
         -2   -1    0    0    0  501 -0.00000000000E+00  0.00000000000E+00  0.44891406547E+03  0.44891406547E+03  0.00000000000E+00 0. -1.
          2   -1    0    0  501    0  0.00000000000E+00 -0.00000000000E+00 -0.44475934317E+03  0.44475934317E+03  0.00000000000E+00 0.  1.
    9900016    2    1    2    0    0 -0.15319507401E+03 -0.52460331209E+02  0.11653379568E+02  0.73157144409E+03  0.71333032986E+03 0.  0.
         25    2    3    3    0    0 -0.45742818931E+02  0.87148843439E+01 -0.59145584677E+02  0.14591598003E+03  0.12499967340E+03 0.  0.
         23    2    4    4    0    0 -0.42146772839E+02  0.91530597637E+00 -0.94597850150E+01  0.82436583011E+02  0.70207652292E+02 0.  0.
        -15    1    5    5    0    0 -0.45689687727E+01  0.16452530666E+02  0.24221925079E+02  0.29635500595E+02  0.00000000000E+00 0.  1.
        -15    1    4    4    0    0 -0.20310537504E+02 -0.58870187542E-01 -0.32039986583E+02  0.37935236122E+02  0.00000000000E+00 0.  1.
         15    1    4    4    0    0  0.16714491412E+02  0.78584485550E+01 -0.17645813079E+02  0.25544160899E+02  0.00000000000E+00 0. -1.
         15    1    5    5    0    0 -0.37577804066E+02 -0.15537224690E+02 -0.33681710094E+02  0.52801082416E+02  0.00000000000E+00 0. -1.
        -16    1    3    3    0    0 -0.16936115768E+03  0.16099825872E+03 -0.12923400044E+03  0.26703008803E+03  0.00000000000E+00 0.  1.
         16    1    1    2    0    0  0.15319507401E+03  0.52460331209E+02 -0.74986572652E+01  0.16210196455E+03  0.00000000000E+00 0. -1.
    9900018    1    3    3    0    0  0.61908902601E+02 -0.22217347427E+03  0.20003296469E+03  0.31862537603E+03  0.91187600000E+02 0.  0.
<mgrwt>
<rscale>  0 0.89366375E+03</rscale>
<asrwt>0</asrwt>
<pdfrwt beam="1">  1        2 0.68424515E-01 0.89366375E+03</pdfrwt>
<pdfrwt beam="2">  1       -2 0.69063702E-01 0.89366375E+03</pdfrwt>
<totfact> 0.13552239E+02</totfact>
</mgrwt>
</event>
<event>
12    1  0.1006976E-009  0.9900770E+03  0.7818608E-02  0.9319496E-01
          1   -1    0    0  501    0  0.00000000000E+00  0.00000000000E+00  0.25416620095E+04  0.25416620095E+04  0.00000000000E+00 0. -1.
         -1   -1    0    0    0  501 -0.00000000000E+00 -0.00000000000E+00 -0.96418459518E+02  0.96418459518E+02  0.00000000000E+00 0.  1.
    9900016    2    1    2    0    0  0.19853695974E+02  0.44127975204E+02  0.10486634013E+04  0.12406622928E+04  0.66121596184E+03 0.  0.
         25    2    3    3    0    0  0.13694124374E+03  0.21946232136E+02  0.39357762781E+03  0.43561768380E+03  0.12499950395E+03 0.  0.
         23    2    4    4    0    0  0.61968232971E+02 -0.68266062149E+01  0.15988967561E+03  0.18660121237E+03  0.73271001387E+02 0.  0.
        -15    1    4    4    0    0  0.56136424655E+02  0.11566595453E+02  0.12722761657E+03  0.13954193176E+03  0.00000000000E+00 0.  1.
        -15    1    5    5    0    0  0.35628257059E+02 -0.61894083286E+01  0.14692231766E+02  0.39032590880E+02  0.00000000000E+00 0.  1.
         15    1    4    4    0    0  0.18836586118E+02  0.17206242897E+02  0.10646033564E+03  0.10947453967E+03  0.00000000000E+00 0. -1.
         15    1    5    5    0    0  0.26339975912E+02 -0.63719788630E+00  0.14519744384E+03  0.14756862149E+03  0.00000000000E+00 0. -1.
        -16    1    3    3    0    0  0.14093794975E+03  0.78359089157E+02  0.11859075870E+03  0.20016848049E+03  0.00000000000E+00 0.  1.
         16    1    1    2    0    0 -0.19853695974E+02 -0.44127975204E+02  0.13965801487E+04  0.13974181762E+04  0.00000000000E+00 0. -1.
    9900018    1    3    3    0    0 -0.25802549752E+03 -0.56177346088E+02  0.53649501479E+03  0.60487612854E+03  0.91187600000E+02 0.  0.
<mgrwt>
<rscale>  0 0.99007704E+03</rscale>
<asrwt>0</asrwt>
<pdfrwt beam="1">  1        1 0.39102487E+00 0.99007704E+03</pdfrwt>
<pdfrwt beam="2">  1       -1 0.14833611E-01 0.99007704E+03</pdfrwt>
<totfact> 0.43196082E+01</totfact>
</mgrwt>
</event>
<event>
12    1  0.1006976E-009  0.1069621E+04  0.7818608E-02  0.9235317E-01
         -2   -1    0    0    0  501 -0.00000000000E+00  0.00000000000E+00  0.18222354682E+04  0.18222354682E+04  0.00000000000E+00 0.  1.
          2   -1    0    0  501    0  0.00000000000E+00 -0.00000000000E+00 -0.15696239405E+03  0.15696239405E+03  0.00000000000E+00 0. -1.
    9900016    2    1    2    0    0 -0.58791995854E+02  0.79745284643E+02  0.17289465134E+04  0.18614264053E+04  0.68252209262E+03 0.  0.
         25    2    3    3    0    0 -0.18547179916E+03  0.10832519252E+03  0.60995120036E+03  0.65863495405E+03  0.12500160101E+03 0.  0.
         23    2    4    4    0    0 -0.11513751991E+03  0.62083971087E+02  0.42691654784E+03  0.45061625849E+03  0.60714130462E+02 0.  0.
        -15    1    5    5    0    0 -0.82344576386E+02  0.67879090997E+02  0.27252203756E+03  0.29267125109E+03  0.00000000000E+00 0.  1.
        -15    1    4    4    0    0 -0.35286394814E+02 -0.38312628332E+01  0.89545544815E+02  0.96323480160E+02  0.00000000000E+00 0.  1.
         15    1    4    4    0    0 -0.35047884431E+02  0.50072484264E+02  0.93489107704E+02  0.11169521540E+03  0.00000000000E+00 0. -1.
         15    1    5    5    0    0 -0.32792943525E+02 -0.57951199101E+01  0.15439451028E+03  0.15794500741E+03  0.00000000000E+00 0. -1.
        -16    1    3    3    0    0  0.26284467411E+02 -0.20784511657E+03  0.43530602817E+03  0.48309606071E+03  0.00000000000E+00 0.  1.
         16    1    1    2    0    0  0.58791995854E+02 -0.79745284643E+02 -0.63673439276E+02  0.11777145693E+03  0.00000000000E+00 0. -1.
    9900018    1    3    3    0    0  0.10039533589E+03  0.17926520869E+03  0.68368928490E+03  0.71969539056E+03  0.91187600000E+02 0.  0.
<mgrwt>
<rscale>  0 0.10696213E+04</rscale>
<asrwt>0</asrwt>
<pdfrwt beam="1">  1        2 0.24148062E-01 0.10696213E+04</pdfrwt>
<pdfrwt beam="2">  1       -2 0.28034390E+00 0.10696213E+04</pdfrwt>
<totfact> 0.96066639E+00</totfact>
</mgrwt>
</event>
<event>
11    1  0.1006976E-009  0.1322185E+04  0.7818608E-02  0.9012155E-01
         -1   -1    0    0    0  501 -0.00000000000E+00  0.00000000000E+00  0.35413940435E+03  0.35413940435E+03  0.00000000000E+00 0.  1.
          1   -1    0    0  501    0  0.00000000000E+00 -0.00000000000E+00 -0.12340995575E+04  0.12340995575E+04  0.00000000000E+00 0. -1.
    9900016    2    1    2    0    0  0.32922252294E+03  0.25592923227E+03 -0.29545152932E+03  0.87022951006E+03  0.70435825576E+03 0.  0.
         25    2    3    3    0    0  0.37057315250E+03  0.76585937404E+02 -0.19772033877E+03  0.44486768886E+03  0.12499624420E+03 0.  0.
        -15    1    4    4    0    0  0.15195545224E+02  0.63597717862E+01  0.38113391030E+01  0.16907915235E+02  0.00000000000E+00 0. -1.
        -15    1    4    4    0    0  0.17368273691E+03  0.71808990495E+02 -0.12271307811E+03  0.22445650749E+03  0.00000000000E+00 0. -1.
         15    1    4    4    0    0  0.12448338009E+03  0.24452475685E+00 -0.29463948596E+02  0.12792300801E+03  0.00000000000E+00 0.  1.
         15    1    4    4    0    0  0.57211490277E+02 -0.18273496338E+01 -0.49354651163E+02  0.75580258122E+02  0.00000000000E+00 0.  1.
        -16    1    3    3    0    0 -0.27528133035E+02  0.18752030919E+03  0.94656617123E+02  0.21185263660E+03  0.00000000000E+00 0.  1.
         16    1    1    2    0    0 -0.32922252294E+03 -0.25592923227E+03 -0.58450862384E+03  0.71800945181E+03  0.00000000000E+00 0. -1.
    9900018    1    3    3    0    0 -0.13822496526E+02 -0.81770143291E+01 -0.19238780767E+03  0.21350918460E+03  0.91187600000E+02 0.  0.
<mgrwt>
<rscale>  0 0.13221850E+04</rscale>
<asrwt>0</asrwt>
<pdfrwt beam="1">  1        1 0.18986147E+00 0.13221850E+04</pdfrwt>
<pdfrwt beam="2">  1       -1 0.54482985E-01 0.13221850E+04</pdfrwt>
<totfact> 0.33678443E+01</totfact>
</mgrwt>
</event>
<event>
11    1  0.1006976E-009  0.1053971E+04  0.7818608E-02  0.9251253E-01
          2   -1    0    0  501    0  0.00000000000E+00  0.00000000000E+00  0.70841558020E+03  0.70841558020E+03  0.00000000000E+00 0. -1.
         -2   -1    0    0    0  501 -0.00000000000E+00 -0.00000000000E+00 -0.39202117095E+03  0.39202117095E+03  0.00000000000E+00 0.  1.
    9900016    2    1    2    0    0 -0.59435217579E+02 -0.27332659029E+03  0.15956066115E+03  0.77975498586E+03  0.71015368994E+03 0.  0.
         25    2    3    3    0    0 -0.17611663332E+02  0.15893553966E+03 -0.33481097111E+02  0.20571546616E+03  0.12500877050E+03 0.  0.
        -15    1    4    4    0    0 -0.14212461712E+02  0.36064952470E+02  0.11338271107E+02  0.40388504011E+02  0.00000000000E+00 0.  1.
        -15    1    4    4    0    0 -0.22112657133E+02  0.95014860961E+02 -0.16437449872E+02  0.98929182586E+02  0.00000000000E+00 0. -1.
         15    1    4    4    0    0  0.67231453531E+01 -0.10254375525E+02  0.60342434813E+01  0.13666199005E+02  0.00000000000E+00 0.  1.
         15    1    4    4    0    0  0.11990310159E+02  0.38110101757E+02 -0.34416161827E+02  0.52731580562E+02  0.00000000000E+00 0. -1.
        -16    1    1    2    0    0  0.59435217579E+02  0.27332659029E+03  0.15683374810E+03  0.32068176529E+03  0.00000000000E+00 0.  1.
         16    1    3    3    0    0 -0.51558152565E+02 -0.41474533088E+03  0.22587610670E+03  0.47507046652E+03  0.00000000000E+00 0. -1.
    9900018    1    3    3    0    0  0.97345983181E+01 -0.17516799073E+02 -0.32834348447E+02  0.98969053173E+02  0.91187600000E+02 0.  0.
<mgrwt>
<rscale>  0 0.10539714E+04</rscale>
<asrwt>0</asrwt>
<pdfrwt beam="1">  1        2 0.10898701E+00 0.10539714E+04</pdfrwt>
<pdfrwt beam="2">  1       -2 0.60310949E-01 0.10539714E+04</pdfrwt>
<totfact> 0.10296313E+02</totfact>
</mgrwt>
</event>
<event>
12    1  0.1006976E-009  0.8838199E+03  0.7818608E-02  0.9446036E-01
          1   -1    0    0  501    0  0.00000000000E+00  0.00000000000E+00  0.10503728482E+04  0.10503728482E+04  0.00000000000E+00 0. -1.
         -1   -1    0    0    0  501 -0.00000000000E+00 -0.00000000000E+00 -0.18591910926E+03  0.18591910926E+03  0.00000000000E+00 0.  1.
    9900016    2    1    2    0    0  0.56182076369E+02 -0.71612520869E+02  0.89496593230E+03  0.11402931409E+04  0.70072794169E+03 0.  0.
         25    2    3    3    0    0  0.19020052643E+03 -0.20344332877E+02  0.65546052510E+02  0.23772055867E+03  0.12499858751E+03 0.  0.
         23    2    4    4    0    0  0.12179384249E+03  0.69694888873E+01  0.80005186906E+02  0.16077734856E+03  0.67573752573E+02 0.  0.
        -15    1    5    5    0    0  0.92808516585E+02  0.20843426836E+01  0.21478989960E+02  0.95284375660E+02  0.00000000000E+00 0.  1.
        -15    1    4    4    0    0  0.57091527604E+02 -0.15417791882E+02 -0.10626829396E+02  0.60083944059E+02  0.00000000000E+00 0.  1.
         15    1    5    5    0    0  0.28985325902E+02  0.48851462037E+01  0.58526196946E+02  0.65492972905E+02  0.00000000000E+00 0. -1.
         15    1    4    4    0    0  0.11315156335E+02 -0.11896029882E+02 -0.38323049996E+01  0.16859266041E+02  0.00000000000E+00 0. -1.
        -16    1    1    2    0    0 -0.56182076369E+02  0.71612520869E+02 -0.30512193335E+02  0.95998816620E+02  0.00000000000E+00 0.  1.
         16    1    3    3    0    0 -0.19405712476E+03  0.35248838751E+02  0.62356909980E+03  0.65401763778E+03  0.00000000000E+00 0. -1.
    9900018    1    3    3    0    0  0.60038674705E+02 -0.86517026744E+02  0.20585078000E+03  0.24855494442E+03  0.91187600000E+02 0.  0.
<mgrwt>
<rscale>  0 0.88381986E+03</rscale>
<asrwt>0</asrwt>
<pdfrwt beam="1">  1        1 0.16159582E+00 0.88381986E+03</pdfrwt>
<pdfrwt beam="2">  1       -1 0.28602941E-01 0.88381986E+03</pdfrwt>
<totfact> 0.15448235E+02</totfact>
</mgrwt>
</event>
<event>
12    1  0.1006976E-009  0.1019564E+04  0.7818608E-02  0.9287344E-01
         -2   -1    0    0    0  501 -0.00000000000E+00  0.00000000000E+00  0.36123083560E+03  0.36123083560E+03  0.00000000000E+00 0.  1.
          2   -1    0    0  501    0  0.00000000000E+00 -0.00000000000E+00 -0.71942299595E+03  0.71942299595E+03  0.00000000000E+00 0. -1.
    9900016    2    1    2    0    0  0.72504459302E+02 -0.12495119741E+03 -0.50242133477E+03  0.87651722752E+03  0.70355209768E+03 0.  0.
         25    2    3    3    0    0  0.23399467219E+03 -0.12980767386E+03 -0.28294522476E+03  0.40900826046E+03  0.12500487231E+03 0.  0.
         23    2    4    4    0    0  0.67861898619E+02 -0.42953371625E+02 -0.71753675573E+02  0.12315237085E+03  0.59730118607E+02 0.  0.
        -15    1    4    4    0    0  0.43536869078E+02 -0.44180614445E+02 -0.56370278340E+02  0.83815236932E+02  0.00000000000E+00 0.  1.
        -15    1    5    5    0    0  0.53048103885E+02  0.16111507530E+01 -0.40099625915E+02  0.66518246602E+02  0.00000000000E+00 0.  1.
         15    1    4    4    0    0  0.12259590449E+03 -0.42673687794E+02 -0.15482127085E+03  0.20204065268E+03  0.00000000000E+00 0. -1.
         15    1    5    5    0    0  0.14813794734E+02 -0.44564522378E+02 -0.31654049658E+02  0.56634124244E+02  0.00000000000E+00 0. -1.
        -16    1    1    2    0    0 -0.72504459302E+02  0.12495119741E+03  0.14422917442E+03  0.20413660403E+03  0.00000000000E+00 0.  1.
         16    1    3    3    0    0  0.61070659220E+02 -0.12299878787E+03 -0.10101111840E+03  0.17047455317E+03  0.00000000000E+00 0. -1.
    9900018    1    3    3    0    0 -0.22256087211E+03  0.12785526433E+03 -0.11846499161E+03  0.29703441390E+03  0.91187600000E+02 0.  0.
<mgrwt>
<rscale>  0 0.10195642E+04</rscale>
<asrwt>0</asrwt>
<pdfrwt beam="1">  1        2 0.11068046E+00 0.10195642E+04</pdfrwt>
<pdfrwt beam="2">  1       -2 0.55573975E-01 0.10195642E+04</pdfrwt>
<totfact> 0.12010811E+02</totfact>
</mgrwt>
</event>
<event>
12    1  0.1006976E-009  0.2186357E+04  0.7818608E-02  0.8524128E-01
          2   -1    0    0  501    0  0.00000000000E+00  0.00000000000E+00  0.24960112058E+04  0.24960112058E+04  0.00000000000E+00 0. -1.
         -2   -1    0    0    0  501 -0.00000000000E+00 -0.00000000000E+00 -0.47877966013E+03  0.47877966013E+03  0.00000000000E+00 0.  1.
    9900016    2    1    2    0    0 -0.21046944642E+03 -0.66097922217E+03  0.20522893540E+04  0.22802262758E+04  0.71158229057E+03 0.  0.
         25    2    3    3    0    0 -0.11325331597E+03 -0.10013676637E+03  0.23057302129E+03  0.30272606001E+03  0.12500185480E+03 0.  0.
         23    2    4    4    0    0 -0.78833860407E+02 -0.65969837278E+02  0.17957299417E+03  0.22074983929E+03  0.76923561620E+02 0.  0.
        -15    1    4    4    0    0  0.41664621959E+01 -0.22124706766E+02  0.10807203089E+02  0.24973139477E+02  0.00000000000E+00 0. -1.
        -15    1    5    5    0    0 -0.17060560636E+02 -0.35105738823E+01 -0.34316153987E+01  0.17752826323E+02  0.00000000000E+00 0.  1.
         15    1    4    4    0    0 -0.38585917761E+02 -0.12042222330E+02  0.40192824031E+02  0.57003081247E+02  0.00000000000E+00 0.  1.
         15    1    5    5    0    0 -0.61773299771E+02 -0.62459263396E+02  0.18300460957E+03  0.20299701296E+03  0.00000000000E+00 0. -1.
        -16    1    1    2    0    0  0.21046944642E+03  0.66097922217E+03 -0.35057808292E+02  0.69456459018E+03  0.00000000000E+00 0.  1.
         16    1    3    3    0    0 -0.25335367962E+03 -0.10260315801E+03  0.74081990300E+03  0.78963891981E+03  0.00000000000E+00 0. -1.
    9900018    1    3    3    0    0  0.15613754917E+03 -0.45823929778E+03  0.10808964297E+04  0.11878612960E+04  0.91187600000E+02 0.  0.
<mgrwt>
<rscale>  0 0.21863571E+04</rscale>
<asrwt>0</asrwt>
<pdfrwt beam="1">  1        2 0.38400172E+00 0.21863571E+04</pdfrwt>
<pdfrwt beam="2">  1       -2 0.73658411E-01 0.21863571E+04</pdfrwt>
<totfact> 0.53229652E+00</totfact>
</mgrwt>
</event>
