<event>
11    1  0.2000995E-013  0.3389705E+04  0.7818608E-02  0.8458890E-01
         -1   -1    0    0    0  501 -0.00000000000E+00  0.00000000000E+00  0.35160866282E+04  0.35160866282E+04  0.00000000000E+00 0.  1.
          1   -1    0    0  501    0  0.00000000000E+00 -0.00000000000E+00 -0.13763690925E+04  0.13763690925E+04  0.00000000000E+00 0. -1.
    9900016    2    1    2    0    0 -0.27416643977E+03  0.45854480226E+03  0.13710140483E+04  0.26934187345E+04  0.22559686138E+04 0.  0.
        -24    2    3    3    0    0 -0.14275419977E+03  0.12840157650E+04  0.59730720736E+03  0.14255358002E+04  0.79379918081E+02 0.  0.
        -15    1    1    2    0    0 -0.35324597346E+03  0.16708439792E+03  0.83210465005E+03  0.91929215292E+03  0.00000000000E+00 0.  1.
        -15    1    3    3    0    0 -0.14703515635E+03 -0.86167021532E+03  0.77546575731E+03  0.11685213040E+04  0.00000000000E+00 0.  1.
         15    1    1    2    0    0  0.31983382074E+03  0.10058799024E+03  0.26308021939E+03  0.42617228735E+03  0.00000000000E+00 0. -1.
         15    1    4    4    0    0 -0.13561791494E+03  0.89665682943E+03  0.41106604427E+03  0.99567112109E+03  0.00000000000E+00 0. -1.
        -16    1    4    4    0    0 -0.71362848250E+01  0.38735893553E+03  0.18624116309E+03  0.42986467908E+03  0.00000000000E+00 0.  1.
         16    1    1    2    0    0  0.30757859250E+03 -0.72621719041E+03 -0.32648138210E+03  0.85357254587E+03  0.00000000000E+00 0. -1.
    9900018    1    3    3    0    0  0.15622916344E+02  0.36199252622E+02 -0.17589163603E+01  0.99361630351E+02  0.91187600000E+02 0.  0.
<mgrwt>
<rscale>  0 0.23488904E+04</rscale>
<asrwt>0</asrwt>
<pdfrwt beam="1">  1        1 0.21174909E+00 0.33897048E+04</pdfrwt>
<pdfrwt beam="2">  1       -1 0.54093640E+00 0.33897048E+04</pdfrwt>
<totfact> 0.53571024E-03</totfact>
</mgrwt>
</event>
<event>
11    1  0.2000995E-013  0.3898882E+04  0.7818608E-02  0.8143518E-01
         -1   -1    0    0    0  501 -0.00000000000E+00  0.00000000000E+00  0.28241156006E+04  0.28241156006E+04  0.00000000000E+00 0.  1.
          1   -1    0    0  501    0  0.00000000000E+00 -0.00000000000E+00 -0.34454706865E+04  0.34454706865E+04  0.00000000000E+00 0. -1.
    9900016    2    1    2    0    0  0.30330458415E+03 -0.66367377840E+03 -0.37626809269E+03  0.24023538860E+04  0.22577134364E+04 0.  0.
        -24    2    3    3    0    0  0.94571527250E+03 -0.10100941634E+04 -0.64885202201E+03  0.15303857491E+04  0.80024989574E+02 0.  0.
        -15    1    3    3    0    0 -0.61733381098E+03  0.38313680098E+03  0.23205018532E+03  0.76272021801E+03  0.00000000000E+00 0.  1.
        -15    1    1    2    0    0 -0.34809885565E+02 -0.87527877518E+03  0.76397388995E+03  0.11623169821E+04  0.00000000000E+00 0.  1.
         15    1    4    4    0    0  0.38572830293E+03 -0.41387447521E+03 -0.22207131678E+03  0.60777798138E+03  0.00000000000E+00 0. -1.
         15    1    1    2    0    0  0.71953239828E+03  0.13069300516E+04 -0.66346722228E+03  0.16327834477E+04  0.00000000000E+00 0. -1.
        -16    1    4    4    0    0  0.55998696957E+03 -0.59621968818E+03 -0.42678070523E+03  0.92260776770E+03  0.00000000000E+00 0.  1.
         16    1    1    2    0    0 -0.98802709686E+03  0.23202250194E+03 -0.34559366089E+03  0.10721319713E+04  0.00000000000E+00 0. -1.
    9900018    1    3    3    0    0 -0.25076877367E+02 -0.36716415996E+02  0.40533743993E+02  0.10924791887E+03  0.91187600000E+02 0.  0.
<mgrwt>
<rscale>  0 0.33772273E+04</rscale>
<asrwt>0</asrwt>
<pdfrwt beam="1">  1        1 0.53007241E+00 0.38988824E+04</pdfrwt>
<pdfrwt beam="2">  1       -1 0.43447932E+00 0.38988824E+04</pdfrwt>
<totfact> 0.84330153E-04</totfact>
</mgrwt>
</event>
<event>
11    1  0.2000995E-013  0.4122272E+04  0.7818608E-02  0.8261980E-01
          1   -1    0    0  501    0  0.00000000000E+00  0.00000000000E+00  0.25578527038E+04  0.25578527038E+04  0.00000000000E+00 0. -1.
         -1   -1    0    0    0  501 -0.00000000000E+00 -0.00000000000E+00 -0.28185462060E+04  0.28185462060E+04  0.00000000000E+00 0.  1.
    9900016    2    1    2    0    0 -0.72953988449E+03  0.67404458346E+03  0.12586858428E+04  0.27608274157E+04  0.22475127196E+04 0.  0.
         24    2    3    3    0    0 -0.13181704071E+04  0.54698591560E+03  0.13148594403E+04  0.19421495183E+04  0.79514713635E+02 0.  0.
        -15    1    1    2    0    0  0.28891396125E+03 -0.34393927682E+03 -0.26306589541E+03  0.52054698969E+03  0.00000000000E+00 0.  1.
        -15    1    4    4    0    0 -0.60333528213E+03  0.26930315756E+03  0.56031971738E+03  0.86631162928E+03  0.00000000000E+00 0.  1.
         15    1    3    3    0    0  0.65424783724E+03  0.11692692382E+03 -0.13867571523E+03  0.67892789900E+03  0.00000000000E+00 0. -1.
         15    1    1    2    0    0 -0.59795924378E+03 -0.13425437531E+03 -0.37151174495E+03  0.71665924340E+03  0.00000000000E+00 0. -1.
        -16    1    1    2    0    0  0.10385851670E+04 -0.19585093132E+03 -0.88480170460E+03  0.13783652611E+04  0.00000000000E+00 0.  1.
         16    1    4    4    0    0 -0.71483512495E+03  0.27768275804E+03  0.75453972290E+03  0.10758378890E+04  0.00000000000E+00 0. -1.
    9900018    1    3    3    0    0 -0.65617314646E+02  0.10131744033E+02  0.82502117744E+02  0.13974999837E+03  0.91187600000E+02 0.  0.
<mgrwt>
<rscale>  0 0.29369102E+04</rscale>
<asrwt>0</asrwt>
<pdfrwt beam="1">  1        1 0.39351580E+00 0.41222720E+04</pdfrwt>
<pdfrwt beam="2">  1       -1 0.43362249E+00 0.41222720E+04</pdfrwt>
<totfact> 0.38629018E-03</totfact>
</mgrwt>
</event>
