<event>
11    1  0.1158475E-012  0.2734948E+04  0.7818608E-02  0.8323754E-01
         -2   -1    0    0    0  501 -0.00000000000E+00  0.00000000000E+00  0.41406218354E+03  0.41406218354E+03  0.00000000000E+00 0.  1.
          2   -1    0    0  501    0  0.00000000000E+00 -0.00000000000E+00 -0.45161931982E+04  0.45161931982E+04  0.00000000000E+00 0. -1.
    9900016    2    1    2    0    0 -0.96005807895E+02 -0.32540276422E+03 -0.38676783682E+04  0.45178573731E+04  0.23101937602E+04 0.  0.
         24    2    3    3    0    0 -0.27317225347E+03 -0.67164313573E+03 -0.28257611360E+04  0.29184690693E+04  0.82511388956E+02 0.  0.
        -15    1    4    4    0    0 -0.34244936211E+02 -0.52133405498E+02 -0.17399597167E+03  0.18483832336E+03  0.00000000000E+00 0.  1.
        -15    1    3    3    0    0  0.98407856789E+02  0.35837293196E+02 -0.36775842492E+02  0.11099946150E+03  0.00000000000E+00 0.  1.
         15    1    3    3    0    0  0.27326750210E+03  0.13542029968E+03 -0.78001344773E+03  0.83751702306E+03  0.00000000000E+00 0. -1.
         15    1    3    3    0    0  0.10757250778E+02  0.18747893171E+03  0.13147873601E+03  0.22923945189E+03  0.00000000000E+00 0. -1.
        -16    1    1    2    0    0  0.96005807895E+02  0.32540276422E+03 -0.23445264650E+03  0.41239800868E+03  0.00000000000E+00 0.  1.
         16    1    4    4    0    0 -0.23892731726E+03 -0.61950973023E+03 -0.26517651643E+04  0.27336307460E+04  0.00000000000E+00 0. -1.
    9900018    1    3    3    0    0 -0.20526616409E+03 -0.12496153081E+02 -0.35660667798E+03  0.42163236728E+03  0.91187600000E+02 0.  0.
<mgrwt>
<rscale>  0 0.27349478E+04</rscale>
<asrwt>0</asrwt>
<pdfrwt beam="1">  1        2 0.69479896E+00 0.27349478E+04</pdfrwt>
<pdfrwt beam="2">  1       -2 0.63701874E-01 0.27349478E+04</pdfrwt>
<totfact> 0.23718307E-01</totfact>
</mgrwt>
</event>
<event>
12    1  0.1158475E-012  0.2561536E+04  0.7818608E-02  0.8381385E-01
          1   -1    0    0  501    0  0.00000000000E+00  0.00000000000E+00  0.69774009638E+03  0.69774009638E+03  0.00000000000E+00 0. -1.
         -1   -1    0    0    0  501 -0.00000000000E+00 -0.00000000000E+00 -0.23509717967E+04  0.23509717967E+04  0.00000000000E+00 0.  1.
    9900016    2    1    2    0    0 -0.29382821777E+01  0.24639866308E+03 -0.10409345410E+04  0.23886901162E+04  0.21357843566E+04 0.  0.
         23    2    3    3    0    0 -0.39318518336E+03  0.72311620761E+02 -0.97680329594E+03  0.10608723336E+04  0.10715348958E+03 0.  0.
         24    2    3    3    0    0 -0.31698321185E+03  0.30993419315E+03 -0.29934454304E+03  0.54093406418E+03  0.80404885832E+02 0.  0.
        -15    1    4    4    0    0 -0.22067585123E+03 -0.89549513247E+01 -0.46761612517E+03  0.51714878226E+03  0.00000000000E+00 0. -1.
        -15    1    5    5    0    0 -0.26061516474E+03  0.28557375638E+03 -0.27692382019E+03  0.47556223211E+03  0.00000000000E+00 0.  1.
         15    1    3    3    0    0  0.51232669087E+03 -0.84598866038E+02  0.22365741327E+03  0.56538327249E+03  0.00000000000E+00 0. -1.
         15    1    4    4    0    0 -0.17250933213E+03  0.81266572086E+02 -0.50918717077E+03  0.54372355134E+03  0.00000000000E+00 0.  1.
        -16    1    1    2    0    0  0.29382821777E+01 -0.24639866308E+03 -0.61229715937E+03  0.66002177695E+03  0.00000000000E+00 0.  1.
         16    1    5    5    0    0 -0.56368047113E+02  0.24360436774E+02 -0.22420722851E+02  0.65371832071E+02  0.00000000000E+00 0. -1.
    9900018    1    3    3    0    0  0.19490342217E+03 -0.51248284797E+02  0.11555884728E+02  0.22150044590E+03  0.91187600000E+02 0.  0.
<mgrwt>
<rscale>  0 0.25615365E+04</rscale>
<asrwt>0</asrwt>
<pdfrwt beam="1">  1        1 0.10734463E+00 0.25615365E+04</pdfrwt>
<pdfrwt beam="2">  1       -1 0.36168797E+00 0.25615365E+04</pdfrwt>
<totfact> 0.31431273E-01</totfact>
</mgrwt>
</event>
<event>
11    1  0.1158475E-012  0.2745641E+04  0.7818608E-02  0.8320346E-01
         -1   -1    0    0    0  501 -0.00000000000E+00  0.00000000000E+00  0.15392075387E+04  0.15392075387E+04  0.00000000000E+00 0.  1.
          1   -1    0    0  501    0  0.00000000000E+00 -0.00000000000E+00 -0.12244193506E+04  0.12244193506E+04  0.00000000000E+00 0. -1.
    9900016    2    1    2    0    0 -0.15286609067E+03  0.33100222480E+03  0.11570368326E+03  0.23482172667E+04  0.23168527089E+04 0.  0.
         24    2    3    3    0    0  0.63793270365E+03  0.89010538150E+02 -0.28843954175E+03  0.71040895583E+03  0.81255799702E+02 0.  0.
        -15    1    4    4    0    0  0.26618680400E+03 -0.28131119776E+01 -0.11224255782E+03  0.28889742125E+03  0.00000000000E+00 0.  1.
        -15    1    3    3    0    0 -0.52577871642E+02 -0.33399084961E+03  0.20526500215E+03  0.39553513285E+03  0.00000000000E+00 0.  1.
         15    1    3    3    0    0 -0.10286478053E+03  0.19846588773E+02  0.17129493033E+03  0.20079094431E+03  0.00000000000E+00 0. -1.
         15    1    3    3    0    0 -0.47451254424E+03  0.44844233375E+03  0.28015671753E+03  0.71045792818E+03  0.00000000000E+00 0. -1.
        -16    1    1    2    0    0  0.15286609067E+03 -0.33100222480E+03  0.19908450483E+03  0.41540962262E+03  0.00000000000E+00 0.  1.
         16    1    4    4    0    0  0.37174589966E+03  0.91823650128E+02 -0.17619698393E+03  0.42151153458E+03  0.00000000000E+00 0. -1.
    9900018    1    3    3    0    0 -0.16084359791E+03  0.10769361374E+03 -0.25257342500E+03  0.33102430551E+03  0.91187600000E+02 0.  0.
<mgrwt>
<rscale>  0 0.27456405E+04</rscale>
<asrwt>0</asrwt>
<pdfrwt beam="1">  1        1 0.18837221E+00 0.27456405E+04</pdfrwt>
<pdfrwt beam="2">  1       -1 0.23680116E+00 0.27456405E+04</pdfrwt>
<totfact> 0.75911731E-01</totfact>
</mgrwt>
</event>
<event>
11    1  0.1158475E-012  0.2553840E+04  0.7818608E-02  0.8384052E-01
          1   -1    0    0  501    0  0.00000000000E+00  0.00000000000E+00  0.33460671043E+04  0.33460671043E+04  0.00000000000E+00 0. -1.
         -1   -1    0    0    0  501 -0.00000000000E+00 -0.00000000000E+00 -0.48729572468E+03  0.48729572468E+03  0.00000000000E+00 0.  1.
    9900016    2    1    2    0    0  0.52969448357E+02  0.55266431635E+02  0.22338635017E+04  0.30753051522E+04  0.21122252470E+04 0.  0.
        -24    2    3    3    0    0 -0.22502608001E+02  0.35635289441E+03 -0.74005980196E+02  0.37347019894E+03  0.80680553257E+02 0.  0.
        -15    1    3    3    0    0 -0.11324975482E+02 -0.23873910315E+03  0.87062005974E+03  0.90283104890E+03  0.00000000000E+00 0.  1.
        -15    1    3    3    0    0  0.26392581539E+03  0.43068969900E+03  0.42877104919E+03  0.66256702716E+03  0.00000000000E+00 0.  1.
         15    1    3    3    0    0 -0.17712878355E+03 -0.49303705862E+03  0.10084783730E+04  0.11364368772E+04  0.00000000000E+00 0. -1.
         15    1    4    4    0    0  0.88730793374E+01  0.30809431710E+03 -0.67650536406E+02  0.31555892452E+03  0.00000000000E+00 0. -1.
        -16    1    4    4    0    0 -0.31375687338E+02  0.48258577301E+02 -0.63554437893E+01  0.57911274419E+02  0.00000000000E+00 0.  1.
         16    1    1    2    0    0 -0.22009691523E+03 -0.50488108875E+02  0.24565883967E+03  0.33367644019E+03  0.00000000000E+00 0. -1.
    9900018    1    1    2    0    0  0.16712746687E+03 -0.47783227597E+01  0.37924903825E+03  0.42438123657E+03  0.91187600000E+02 0.  0.
<mgrwt>
<rscale>  0 0.25538396E+04</rscale>
<asrwt>0</asrwt>
<pdfrwt beam="1">  1        1 0.51477954E+00 0.25538396E+04</pdfrwt>
<pdfrwt beam="2">  1       -1 0.74968575E-01 0.25538396E+04</pdfrwt>
<totfact> 0.52122423E-01</totfact>
</mgrwt>
</event>
<event>
11    1  0.1158475E-012  0.2788297E+04  0.7818608E-02  0.8306911E-01
         -1   -1    0    0    0  501 -0.00000000000E+00  0.00000000000E+00  0.93366335943E+03  0.93366335943E+03  0.00000000000E+00 0.  1.
          1   -1    0    0  501    0  0.00000000000E+00 -0.00000000000E+00 -0.20817463725E+04  0.20817463725E+04  0.00000000000E+00 0. -1.
    9900016    2    1    2    0    0  0.37342563500E+03 -0.20934035716E+03 -0.10562788438E+04  0.23939416554E+04  0.21052224500E+04 0.  0.
         24    2    3    3    0    0 -0.31487065941E+03 -0.56644645115E+03  0.32148203909E+03  0.72793056415E+03  0.80790411506E+02 0.  0.
        -15    1    3    3    0    0  0.13979819301E+02  0.14065605333E+03 -0.35870198529E+03  0.38554724087E+03  0.00000000000E+00 0.  1.
        -15    1    4    4    0    0 -0.19796028672E+03 -0.28149689124E+03  0.18930849506E+03  0.39276771914E+03  0.00000000000E+00 0.  1.
         15    1    3    3    0    0  0.32741548606E+03  0.10530898927E+03 -0.23686262599E+03  0.41760601926E+03  0.00000000000E+00 0. -1.
         15    1    3    3    0    0  0.34690098906E+03  0.11114105140E+03 -0.78219627159E+03  0.86285783116E+03  0.00000000000E+00 0. -1.
        -16    1    1    2    0    0 -0.58681567913E+02  0.24592172345E+03 -0.13878743179E+03  0.28841458302E+03  0.00000000000E+00 0.  1.
         16    1    4    4    0    0 -0.11691037269E+03 -0.28494955991E+03  0.13217354403E+03  0.33516284501E+03  0.00000000000E+00 0. -1.
    9900018    1    1    2    0    0 -0.31474406709E+03 -0.36581366292E+02  0.46983262550E+02  0.33305349343E+03  0.91187600000E+02 0.  0.
<mgrwt>
<rscale>  0 0.27882972E+04</rscale>
<asrwt>0</asrwt>
<pdfrwt beam="1">  1        1 0.32026867E+00 0.27882972E+04</pdfrwt>
<pdfrwt beam="2">  1       -1 0.14364052E+00 0.27882972E+04</pdfrwt>
<totfact> 0.89012217E-01</totfact>
</mgrwt>
</event>
<event>
12    1  0.1158475E-012  0.2492721E+04  0.7818608E-02  0.8405583E-01
         -2   -1    0    0    0  501 -0.00000000000E+00  0.00000000000E+00  0.19858476394E+04  0.19858476394E+04  0.00000000000E+00 0.  1.
          2   -1    0    0  501    0  0.00000000000E+00 -0.00000000000E+00 -0.78224274745E+03  0.78224274745E+03  0.00000000000E+00 0. -1.
    9900016    2    1    2    0    0  0.30047811239E+03 -0.69159853427E+02  0.90672635720E+03  0.23400634651E+04  0.21351051854E+04 0.  0.
         23    2    3    3    0    0  0.23007700374E+03 -0.47431637147E+03  0.12439365824E+04  0.13557951068E+04  0.11353723093E+03 0.  0.
         24    2    3    3    0    0 -0.10353179725E+03 -0.48786904744E+02 -0.12622332561E+03  0.18869043595E+03  0.81072545138E+02 0.  0.
        -15    1    5    5    0    0 -0.70629585744E+02 -0.25496452604E+02 -0.24042955565E+02  0.78845869835E+02  0.00000000000E+00 0.  1.
        -15    1    4    4    0    0  0.13023879228E+03 -0.32839616892E+03  0.70438047993E+03  0.78800891320E+03  0.00000000000E+00 0.  1.
         15    1    4    4    0    0  0.99838211460E+02 -0.14592020255E+03  0.53955610242E+03  0.56778619360E+03  0.00000000000E+00 0. -1.
         15    1    3    3    0    0  0.13249908076E+02  0.42894109195E+03 -0.35743175964E+03  0.55850110405E+03  0.00000000000E+00 0. -1.
        -16    1    1    2    0    0 -0.30047811239E+03  0.69159853427E+02  0.29687853476E+03  0.42802692176E+03  0.00000000000E+00 0.  1.
         16    1    5    5    0    0 -0.32902211507E+02 -0.23290452140E+02 -0.10218037004E+03  0.10984456612E+03  0.00000000000E+00 0. -1.
    9900018    1    3    3    0    0  0.16068299782E+03  0.25002330845E+02  0.14644486009E+03  0.23707681830E+03  0.91187600000E+02 0.  0.
<mgrwt>
<rscale>  0 0.24927213E+04</rscale>
<asrwt>0</asrwt>
<pdfrwt beam="1">  1        2 0.12034504E+00 0.24927213E+04</pdfrwt>
<pdfrwt beam="2">  1       -2 0.30551502E+00 0.24927213E+04</pdfrwt>
<totfact> 0.93139657E-01</totfact>
</mgrwt>
</event>
