<event>
11    1  0.1488175E-010  0.1872656E+04  0.7818608E-02  0.9367589E-01
         -1   -1    0    0    0  501 -0.00000000000E+00  0.00000000000E+00  0.75584943441E+03  0.75584943441E+03  0.00000000000E+00 0.  1.
          1   -1    0    0  501    0  0.00000000000E+00 -0.00000000000E+00 -0.13297656218E+04  0.13297656218E+04  0.00000000000E+00 0. -1.
         23    2    1    2    0    0 -0.43450113735E+02 -0.72662517375E+02 -0.87241957207E+02  0.15075233439E+03  0.89147929938E+02 0.  0.
    9900016    2    1    2    0    0 -0.42062805591E+03  0.70530388049E+03 -0.34837044573E+03  0.11381622896E+04  0.70687333006E+03 0.  0.
        -15    1    3    3    0    0 -0.60592983011E+02 -0.76719066151E+02 -0.90048698562E+02  0.13291385486E+03  0.00000000000E+00 0. -1.
        -15    1    4    4    0    0  0.89552554238E+02  0.15043577551E+03 -0.41848942966E+02  0.18000532368E+03  0.00000000000E+00 0. -1.
         15    1    3    3    0    0  0.17142869276E+02  0.40565487752E+01  0.28067413544E+01  0.17838479532E+02  0.00000000000E+00 0.  1.
         15    1    4    4    0    0  0.69184742032E+02  0.58184063953E+02  0.50447813702E+00  0.90400046053E+02  0.00000000000E+00 0.  1.
        -16    1    1    2    0    0  0.46407816964E+03 -0.63264136311E+03 -0.13830378441E+03  0.79670043218E+03  0.00000000000E+00 0.  1.
         16    1    4    4    0    0 -0.40201916045E+03  0.22161175411E+03 -0.25169695646E+03  0.52352892262E+03  0.00000000000E+00 0. -1.
    9900018    1    4    4    0    0 -0.17734619173E+03  0.27507228692E+03 -0.55329024441E+02  0.34422799725E+03  0.91187600000E+02 0.  0.
<mgrwt>
<rscale>  0 0.94791627E+03</rscale>
<asrwt>0</asrwt>
<pdfrwt beam="1">  1        1 0.20457932E+00 0.18726564E+04</pdfrwt>
<pdfrwt beam="2">  1       -1 0.11628453E+00 0.18726564E+04</pdfrwt>
<totfact> 0.53789253E+00</totfact>
</mgrwt>
</event>
<event>
12    1  0.1488175E-010  0.1199754E+04  0.7818608E-02  0.9113072E-01
          2   -1    0    0  501    0  0.00000000000E+00  0.00000000000E+00  0.11061112016E+04  0.11061112016E+04  0.00000000000E+00 0. -1.
         -2   -1    0    0    0  501 -0.00000000000E+00 -0.00000000000E+00 -0.32533127778E+03  0.32533127778E+03  0.00000000000E+00 0.  1.
         23    2    1    2    0    0  0.75263306985E+02 -0.23388675920E+03 -0.18713611150E+02  0.25989165592E+03  0.82618957078E+02 0.  0.
    9900016    2    1    2    0    0 -0.73956057631E+02  0.30392888711E+03  0.78593622517E+03  0.11001967119E+04  0.70348758908E+03 0.  0.
         23    2    4    4    0    0 -0.85386704391E+02  0.13396162918E+03  0.73518528139E+03  0.75435144773E+03  0.57550858833E+02 0.  0.
        -15    1    5    5    0    0 -0.27798371698E+02  0.64125337287E+01  0.10435559695E+03  0.10818484494E+03  0.00000000000E+00 0.  1.
        -15    1    3    3    0    0  0.32369618683E+02 -0.15092556957E+03 -0.48607331350E+02  0.16183013448E+03  0.00000000000E+00 0.  1.
         15    1    5    5    0    0 -0.57588332693E+02  0.12754909545E+03  0.63082968443E+03  0.64616660280E+03  0.00000000000E+00 0. -1.
         15    1    3    3    0    0  0.42893688302E+02 -0.82961189630E+02  0.29893720200E+02  0.98061521446E+02  0.00000000000E+00 0. -1.
        -16    1    1    2    0    0 -0.13072493541E+01 -0.70042127906E+02  0.13557309769E+02  0.71354111518E+02  0.00000000000E+00 0.  1.
         16    1    4    4    0    0 -0.17701639456E+02 -0.67325197206E+02 -0.32421045182E+02  0.76792931894E+02  0.00000000000E+00 0. -1.
    9900018    1    4    4    0    0  0.29132286216E+02  0.23729245513E+03  0.83171988962E+02  0.26905233228E+03  0.91187600000E+02 0.  0.
<mgrwt>
<rscale>  0 0.11997543E+04</rscale>
<asrwt>0</asrwt>
<pdfrwt beam="1">  1        2 0.17017095E+00 0.11997543E+04</pdfrwt>
<pdfrwt beam="2">  1       -2 0.50050966E-01 0.11997543E+04</pdfrwt>
<totfact> 0.80462100E+01</totfact>
</mgrwt>
</event>
<event>
12    1  0.1488175E-010  0.9918448E+03  0.7818608E-02  0.9749062E-01
         -2   -1    0    0    0  501 -0.00000000000E+00  0.00000000000E+00  0.21001664236E+03  0.21001664236E+03  0.00000000000E+00 0. -1.
          2   -1    0    0  501    0  0.00000000000E+00 -0.00000000000E+00 -0.17817260372E+04  0.17817260372E+04  0.00000000000E+00 0.  1.
         23    2    1    2    0    0 -0.18704592541E+03 -0.77288205220E+02 -0.19510379402E+03  0.29504026758E+03  0.89574684877E+02 0.  0.
    9900016    2    1    2    0    0 -0.60403236653E+02 -0.22518173408E+02 -0.11088571929E+04  0.13187055721E+04  0.71081959207E+03 0.  0.
         23    2    4    4    0    0 -0.17744122941E+03 -0.24985691100E+03 -0.53822431285E+03  0.62426954194E+03  0.78186854212E+02 0.  0.
        -15    1    5    5    0    0 -0.69414178139E+02 -0.49122397990E+02 -0.18874105445E+03  0.20701334195E+03  0.00000000000E+00 0.  1.
        -15    1    3    3    0    0 -0.18812350647E+03 -0.90011680784E+02 -0.18425388731E+03  0.27828411984E+03  0.00000000000E+00 0.  1.
         15    1    3    3    0    0  0.10775810622E+01  0.12723475564E+02 -0.10849906717E+02  0.16756147742E+02  0.00000000000E+00 0. -1.
         15    1    5    5    0    0 -0.10802705127E+03 -0.20073451301E+03 -0.34948325840E+03  0.41725619998E+03  0.00000000000E+00 0. -1.
        -16    1    4    4    0    0  0.16694911043E+03  0.18412457289E+03 -0.24136592688E+03  0.34645544370E+03  0.00000000000E+00 0.  1.
         16    1    1    2    0    0  0.24744916206E+03  0.99806378628E+02 -0.26774840789E+03  0.37799683986E+03  0.00000000000E+00 0. -1.
    9900018    1    4    4    0    0 -0.49911117678E+02  0.43214164709E+02 -0.32926695316E+03  0.34798058644E+03  0.91187600000E+02 0.  0.
<mgrwt>
<rscale>  0 0.68169288E+03</rscale>
<asrwt>0</asrwt>
<pdfrwt beam="1">  1        2 0.27411169E+00 0.99184479E+03</pdfrwt>
<pdfrwt beam="2">  1       -2 0.32310253E-01 0.99184479E+03</pdfrwt>
<totfact> 0.78899624E+01</totfact>
</mgrwt>
</event>
<event>
12    1  0.1488175E-010  0.1550817E+04  0.7818608E-02  0.9395930E-01
         -2   -1    0    0    0  501 -0.00000000000E+00  0.00000000000E+00  0.63270942005E+03  0.63270942005E+03  0.00000000000E+00 0.  1.
          2   -1    0    0  501    0  0.00000000000E+00 -0.00000000000E+00 -0.12055954444E+04  0.12055954444E+04  0.00000000000E+00 0. -1.
         23    2    1    2    0    0  0.17284760352E+03 -0.53923005011E+00 -0.76792614087E+02  0.21007222236E+03  0.91414704614E+02 0.  0.
    9900016    2    1    2    0    0  0.23532673717E+03  0.99852366444E+02  0.23266559821E+03  0.78706732903E+03  0.70710150016E+03 0.  0.
         23    2    4    4    0    0  0.36120055454E+03 -0.59124482296E+02  0.32177335057E+03  0.49209426039E+03  0.68243145882E+02 0.  0.
        -15    1    3    3    0    0  0.50189552265E+02 -0.13359558938E+02  0.17524611908E+02  0.54814058362E+02  0.00000000000E+00 0.  1.
        -15    1    5    5    0    0  0.79852399273E+02  0.14170246336E+02  0.60125388826E+02  0.10095674288E+03  0.00000000000E+00 0.  1.
         15    1    5    5    0    0  0.28134815527E+03 -0.73294728632E+02  0.26164796174E+03  0.39113751751E+03  0.00000000000E+00 0. -1.
         15    1    3    3    0    0  0.12265805125E+03  0.12820328888E+02 -0.94317225995E+02  0.15525816400E+03  0.00000000000E+00 0. -1.
        -16    1    1    2    0    0 -0.40817434069E+03 -0.99313136394E+02 -0.72875900842E+03  0.84116531301E+03  0.00000000000E+00 0.  1.
         16    1    4    4    0    0 -0.58456476559E+02  0.11052039299E+03  0.24375961791E+02  0.12738172723E+03  0.00000000000E+00 0. -1.
    9900018    1    4    4    0    0 -0.67417340815E+02  0.48456455751E+02 -0.11348371415E+03  0.16759134142E+03  0.91187600000E+02 0.  0.
<mgrwt>
<rscale>  0 0.92411391E+03</rscale>
<asrwt>0</asrwt>
<pdfrwt beam="1">  1        2 0.18547622E+00 0.15508168E+04</pdfrwt>
<pdfrwt beam="2">  1       -2 0.97339912E-01 0.15508168E+04</pdfrwt>
<totfact> 0.15847427E+01</totfact>
</mgrwt>
</event>
<event>
11    1  0.1488175E-010  0.2701144E+04  0.7818608E-02  0.8971497E-01
          2   -1    0    0  501    0  0.00000000000E+00  0.00000000000E+00  0.30746441929E+04  0.30746441929E+04  0.00000000000E+00 0. -1.
         -2   -1    0    0    0  501 -0.00000000000E+00 -0.00000000000E+00 -0.67961189298E+03  0.67961189298E+03  0.00000000000E+00 0.  1.
         23    2    1    2    0    0 -0.13049598977E+03 -0.89004512563E+02  0.22581842625E+03  0.28991371083E+03  0.90027726245E+02 0.  0.
    9900016    2    1    2    0    0 -0.27263978078E+03 -0.10693752211E+04  0.17089684082E+04  0.21543088086E+04  0.70892708302E+03 0.  0.
        -15    1    3    3    0    0 -0.38173094888E+02 -0.12470005702E+02  0.75363943748E+01  0.40859312962E+02  0.00000000000E+00 0.  1.
        -15    1    4    4    0    0  0.11215748479E+03 -0.77107963565E+02  0.13320394161E+03  0.19044219464E+03  0.00000000000E+00 0.  1.
         15    1    4    4    0    0  0.72509305102E+02 -0.67421795763E+02  0.16447621755E+03  0.19197844673E+03  0.00000000000E+00 0. -1.
         15    1    3    3    0    0 -0.92322894877E+02 -0.76534506860E+02  0.21828203187E+03  0.24905439787E+03  0.00000000000E+00 0. -1.
        -16    1    1    2    0    0  0.40313577054E+03  0.11583797336E+04  0.46024546548E+03  0.13100335665E+04  0.00000000000E+00 0.  1.
         16    1    4    4    0    0 -0.38127474410E+03 -0.50909384377E+03  0.90410339615E+03  0.11054184381E+04  0.00000000000E+00 0. -1.
    9900018    1    4    4    0    0 -0.76031826575E+02 -0.41575161797E+03  0.50718485291E+03  0.66646972918E+03  0.91187600000E+02 0.  0.
<mgrwt>
<rscale>  0 0.13758374E+04</rscale>
<asrwt>0</asrwt>
<pdfrwt beam="1">  1        2 0.47302217E+00 0.27011441E+04</pdfrwt>
<pdfrwt beam="2">  1       -2 0.10455568E+00 0.27011441E+04</pdfrwt>
<totfact> 0.10116808E+00</totfact>
</mgrwt>
</event>
<event>
12    1  0.1488175E-010  0.2564381E+04  0.7818608E-02  0.9121094E-01
         -1   -1    0    0    0  501 -0.00000000000E+00  0.00000000000E+00  0.17503477574E+04  0.17503477574E+04  0.00000000000E+00 0.  1.
          1   -1    0    0  501    0  0.00000000000E+00 -0.00000000000E+00 -0.10287950574E+04  0.10287950574E+04  0.00000000000E+00 0. -1.
         23    2    1    2    0    0  0.33325378205E+02 -0.67593131637E+02  0.40523679403E+02  0.12587155892E+03  0.92315050106E+02 0.  0.
    9900016    2    1    2    0    0  0.42391203609E+03  0.93710560108E+02  0.14955639986E+04  0.17188113031E+04  0.72740465917E+03 0.  0.
         23    2    4    4    0    0  0.13295452097E+03  0.11483162410E+03  0.67296565335E+02  0.20213352772E+03  0.73931919943E+02 0.  0.
        -15    1    5    5    0    0  0.64096379814E+02  0.74588387591E+02  0.88700152830E+00  0.98349175087E+02  0.00000000000E+00 0.  1.
        -15    1    3    3    0    0 -0.27263216105E+02 -0.46305346635E+02  0.95670599746E+01  0.54580186111E+02  0.00000000000E+00 0.  1.
         15    1    3    3    0    0  0.60588594310E+02 -0.21287785002E+02  0.30956619428E+02  0.71291372810E+02  0.00000000000E+00 0. -1.
         15    1    5    5    0    0  0.68858141152E+02  0.40243236508E+02  0.66409563807E+02  0.10378435264E+03  0.00000000000E+00 0. -1.
        -16    1    4    4    0    0 -0.93068964501E+02 -0.61084178430E+02  0.37490241727E+03  0.39108174527E+03  0.00000000000E+00 0.  1.
         16    1    1    2    0    0 -0.45723741430E+03 -0.26117428471E+02 -0.81453497795E+03  0.93445995281E+03  0.00000000000E+00 0. -1.
    9900018    1    4    4    0    0  0.38402647963E+03  0.39963114440E+02  0.10533650160E+04  0.11255960301E+04  0.91187600000E+02 0.  0.
<mgrwt>
<rscale>  0 0.11906348E+04</rscale>
<asrwt>0</asrwt>
<pdfrwt beam="1">  1        1 0.15827616E+00 0.25643806E+04</pdfrwt>
<pdfrwt beam="2">  1       -1 0.26928427E+00 0.25643806E+04</pdfrwt>
<totfact> 0.66043160E-01</totfact>
</mgrwt>
</event>
<event>
12    1  0.1488175E-010  0.2480046E+04  0.7818608E-02  0.9041704E-01
         -2   -1    0    0    0  501 -0.00000000000E+00  0.00000000000E+00  0.96198624799E+03  0.96198624799E+03  0.00000000000E+00 0. -1.
          2   -1    0    0  501    0  0.00000000000E+00 -0.00000000000E+00 -0.18778246797E+04  0.18778246797E+04  0.00000000000E+00 0.  1.
         23    2    1    2    0    0  0.89672023891E+02 -0.12478575934E+03  0.38054039412E+02  0.18264366426E+03  0.91093581425E+02 0.  0.
    9900016    2    1    2    0    0  0.87178992210E+03 -0.19689737293E+03 -0.11549388904E+04  0.16235770284E+04  0.70945914824E+03 0.  0.
         23    2    4    4    0    0 -0.32830646991E+02 -0.12408052075E+02  0.15141848271E+02  0.76154084491E+02  0.65866211957E+02 0.  0.
        -15    1    5    5    0    0 -0.15060060245E+02  0.24638131446E+02  0.19487797432E+02  0.34837008834E+02  0.00000000000E+00 0. -1.
        -15    1    3    3    0    0  0.18676065876E+02 -0.93924805476E+02 -0.13622019612E+01  0.95773274531E+02  0.00000000000E+00 0. -1.
         15    1    5    5    0    0 -0.17770586746E+02 -0.37046183521E+02 -0.43459491608E+01  0.41317075657E+02  0.00000000000E+00 0.  1.
         15    1    3    3    0    0  0.70995958014E+02 -0.30860953860E+02  0.39416241374E+02  0.86870389728E+02  0.00000000000E+00 0.  1.
        -16    1    4    4    0    0  0.21103264637E+03 -0.22708208266E+03 -0.40193973382E+03  0.50759885710E+03  0.00000000000E+00 0.  1.
         16    1    1    2    0    0 -0.96146194599E+03  0.32168313226E+03  0.20104641926E+03  0.10335902350E+04  0.00000000000E+00 0. -1.
    9900018    1    4    4    0    0  0.69358792272E+03  0.42592761806E+02 -0.76814100484E+03  0.10398240869E+04  0.91187600000E+02 0.  0.
<mgrwt>
<rscale>  0 0.12848033E+04</rscale>
<asrwt>0</asrwt>
<pdfrwt beam="1">  1        2 0.28889610E+00 0.24800458E+04</pdfrwt>
<pdfrwt beam="2">  1       -2 0.14799788E+00 0.24800458E+04</pdfrwt>
<totfact> 0.21516444E+00</totfact>
</mgrwt>
</event>
<event>
12    1  0.1488175E-010  0.8557914E+03  0.7818608E-02  0.1009386E+00
         -5   -1    0    0    0  501 -0.00000000000E+00  0.00000000000E+00  0.13547846046E+04  0.13547846046E+04  0.00000000000E+00 0.  1.
          5   -1    0    0  501    0  0.00000000000E+00 -0.00000000000E+00 -0.19850801082E+03  0.19850801082E+03  0.00000000000E+00 0. -1.
         23    2    1    2    0    0  0.44432554250E+02  0.53227592304E+02  0.38383142172E+03  0.40044813460E+03  0.90690240602E+02 0.  0.
    9900016    2    1    2    0    0  0.10739306541E+03 -0.10765561732E+03  0.49602631197E+03  0.83281195918E+03  0.65146807654E+03 0.  0.
         23    2    4    4    0    0 -0.16670866277E+03 -0.24415808239E+03  0.25286069882E+03  0.40665275728E+03  0.11841868333E+03 0.  0.
        -15    1    3    3    0    0  0.28027842844E+02 -0.79707421296E+01  0.33353875029E+02  0.44289656626E+02  0.00000000000E+00 0. -1.
        -15    1    5    5    0    0 -0.76391236993E+02 -0.12049640231E+03  0.47266671417E+02  0.15029684723E+03  0.00000000000E+00 0. -1.
         15    1    3    3    0    0  0.16404711406E+02  0.61198334434E+02  0.35047754670E+03  0.35615847797E+03  0.00000000000E+00 0.  1.
         15    1    5    5    0    0 -0.90317425780E+02 -0.12366168008E+03  0.20559402740E+03  0.25635591006E+03  0.00000000000E+00 0.  1.
        -16    1    4    4    0    0  0.10384090337E+03  0.10170512451E+03  0.58487975994E+02  0.15667708480E+03  0.00000000000E+00 0.  1.
         16    1    1    2    0    0 -0.15182561966E+03  0.54428025020E+02  0.27641886004E+03  0.32003252160E+03  0.00000000000E+00 0. -1.
    9900018    1    4    4    0    0  0.17026082481E+03  0.34797340551E+02  0.18467763716E+03  0.26948211710E+03  0.91187600000E+02 0.  0.
<mgrwt>
<rscale>  0 0.51719334E+03</rscale>
<asrwt>0</asrwt>
<pdfrwt beam="1">  1        5 0.30539695E-01 0.85579136E+03</pdfrwt>
<pdfrwt beam="2">  1       -5 0.20842840E+00 0.85579136E+03</pdfrwt>
<totfact> 0.99589738E-01</totfact>
</mgrwt>
</event>
<event>
12    1  0.1488175E-010  0.1075553E+04  0.7818608E-02  0.9847741E-01
         -2   -1    0    0    0  501 -0.00000000000E+00  0.00000000000E+00  0.30992747834E+03  0.30992747834E+03  0.00000000000E+00 0. -1.
          2   -1    0    0  501    0  0.00000000000E+00 -0.00000000000E+00 -0.11769601902E+04  0.11769601902E+04  0.00000000000E+00 0.  1.
         23    2    1    2    0    0 -0.77199482983E+02 -0.38771459607E+02 -0.45596225737E+02  0.13353175432E+03  0.91042448108E+02 0.  0.
    9900016    2    1    2    0    0 -0.18753333623E+01 -0.22977482916E+03 -0.32336537940E+03  0.78200246569E+03  0.67391594340E+03 0.  0.
         23    2    4    4    0    0  0.10743856694E+03  0.42242109425E+02  0.11185763755E+03  0.17616603407E+03  0.72075647809E+02 0.  0.
        -15    1    3    3    0    0 -0.58501644298E+00 -0.47594648149E+02 -0.24723512133E+02  0.53636226833E+02  0.00000000000E+00 0.  1.
        -15    1    5    5    0    0 -0.47242931449E+01  0.10774583397E+02 -0.34455109021E+01  0.12258961558E+02  0.00000000000E+00 0.  1.
         15    1    5    5    0    0  0.11216286009E+03  0.31467526028E+02  0.11530314845E+03  0.16390707251E+03  0.00000000000E+00 0. -1.
         15    1    3    3    0    0 -0.76614466540E+02  0.88231885420E+01 -0.20872713605E+02  0.79895527487E+02  0.00000000000E+00 0. -1.
        -16    1    4    4    0    0  0.30135696444E+02 -0.18282977715E+03 -0.35515850774E+03  0.40059013123E+03  0.00000000000E+00 0.  1.
         16    1    1    2    0    0  0.79074816345E+02  0.26854628877E+03 -0.49807110667E+03  0.57135344848E+03  0.00000000000E+00 0. -1.
    9900018    1    4    4    0    0 -0.13944959675E+03 -0.89187161432E+02 -0.80064509206E+02  0.20524630039E+03  0.91187600000E+02 0.  0.
<mgrwt>
<rscale>  0 0.62862239E+03</rscale>
<asrwt>0</asrwt>
<pdfrwt beam="1">  1        2 0.18107080E+00 0.10755530E+04</pdfrwt>
<pdfrwt beam="2">  1       -2 0.47681149E-01 0.10755530E+04</pdfrwt>
<totfact> 0.80937003E+01</totfact>
</mgrwt>
</event>
<event>
12    1  0.1488175E-010  0.1668018E+04  0.7818608E-02  0.9341654E-01
         -2   -1    0    0    0  501 -0.00000000000E+00  0.00000000000E+00  0.49528185523E+03  0.49528185523E+03  0.00000000000E+00 0.  1.
          2   -1    0    0  501    0  0.00000000000E+00 -0.00000000000E+00 -0.18602684702E+04  0.18602684702E+04  0.00000000000E+00 0. -1.
         23    2    1    2    0    0  0.16847573331E+02 -0.16649791366E+03  0.13660117465E+02  0.19153730342E+03  0.92165849504E+02 0.  0.
    9900016    2    1    2    0    0  0.47235138682E+03 -0.18179167972E+03 -0.32653499154E+03  0.95258395732E+03  0.73798851455E+03 0.  0.
         23    2    4    4    0    0  0.92665870431E+02 -0.31565710299E+03  0.30851796674E+02  0.34671741605E+03  0.10504648031E+03 0.  0.
        -15    1    3    3    0    0  0.26121639242E+02 -0.62037220558E+02  0.46306078426E+02  0.81701956344E+02  0.00000000000E+00 0.  1.
        -15    1    5    5    0    0  0.58101762754E+02 -0.48033887782E+02  0.10356759389E+02  0.76094228924E+02  0.00000000000E+00 0.  1.
         15    1    3    3    0    0 -0.92740659107E+01 -0.10446069310E+03 -0.32645960962E+02  0.10983534708E+03  0.00000000000E+00 0. -1.
         15    1    5    5    0    0  0.34564107677E+02 -0.26762321521E+03  0.20495037285E+02  0.27062318712E+03  0.00000000000E+00 0. -1.
        -16    1    4    4    0    0  0.21532545812E+03  0.14683279966E+03 -0.32184319131E+03  0.41413519986E+03  0.00000000000E+00 0.  1.
         16    1    1    2    0    0 -0.48919896015E+03  0.34828959337E+03 -0.10521117409E+04  0.12114290647E+04  0.00000000000E+00 0. -1.
    9900018    1    4    4    0    0  0.16436005827E+03 -0.12967376395E+02 -0.35543596906E+02  0.19173134141E+03  0.91187600000E+02 0.  0.
<mgrwt>
<rscale>  0 0.97036954E+03</rscale>
<asrwt>0</asrwt>
<pdfrwt beam="1">  1        2 0.28619514E+00 0.16680184E+04</pdfrwt>
<pdfrwt beam="2">  1       -2 0.76197210E-01 0.16680184E+04</pdfrwt>
<totfact> 0.11683142E+01</totfact>
</mgrwt>
</event>
<event>
12    1  0.1488175E-010  0.1611614E+04  0.7818608E-02  0.9424326E-01
          2   -1    0    0  501    0  0.00000000000E+00  0.00000000000E+00  0.13139144976E+04  0.13139144976E+04  0.00000000000E+00 0. -1.
         -2   -1    0    0    0  501 -0.00000000000E+00 -0.00000000000E+00 -0.66300385157E+03  0.66300385157E+03  0.00000000000E+00 0.  1.
         23    2    1    2    0    0 -0.45259804905E+02 -0.11733102577E+03 -0.11262830343E+03  0.19358132204E+03  0.94728949954E+02 0.  0.
    9900016    2    1    2    0    0 -0.24651506583E+03 -0.38305838197E+03  0.16892985382E+02  0.83834902178E+03  0.70359100881E+03 0.  0.
         23    2    4    4    0    0  0.19725222723E+03 -0.26405893337E+03 -0.38460041333E+02  0.34907638710E+03  0.10834937845E+03 0.  0.
        -15    1    3    3    0    0 -0.68449267612E+02 -0.11089381360E+03 -0.10759253286E+03  0.16899376693E+03  0.00000000000E+00 0. -1.
        -15    1    5    5    0    0  0.20395157933E+03 -0.22150403862E+03 -0.48141851775E+02  0.30492281602E+03  0.00000000000E+00 0.  1.
         15    1    5    5    0    0 -0.66993520984E+01 -0.42554894750E+02  0.96818104427E+01  0.44153571080E+02  0.00000000000E+00 0.  1.
         15    1    3    3    0    0  0.23189462707E+02 -0.64372121682E+01 -0.50357705677E+01  0.24587555111E+02  0.00000000000E+00 0. -1.
        -16    1    4    4    0    0 -0.21158933615E+03 -0.81772841465E+02  0.67810742803E+02  0.23675967058E+03  0.00000000000E+00 0.  1.
         16    1    1    2    0    0  0.29177487074E+03  0.50038940774E+03  0.74664596407E+03  0.94498800533E+03  0.00000000000E+00 0. -1.
    9900018    1    4    4    0    0 -0.23217795691E+03 -0.37226607133E+02 -0.12457716089E+02  0.25251296410E+03  0.91187600000E+02 0.  0.
<mgrwt>
<rscale>  0 0.90100506E+03</rscale>
<asrwt>0</asrwt>
<pdfrwt beam="1">  1        2 0.20214069E+00 0.16116139E+04</pdfrwt>
<pdfrwt beam="2">  1       -2 0.10200059E+00 0.16116139E+04</pdfrwt>
<totfact> 0.12168492E+01</totfact>
</mgrwt>
</event>
<event>
12    1  0.1488175E-010  0.1136138E+04  0.7818608E-02  0.9663622E-01
         -2   -1    0    0    0  501 -0.00000000000E+00  0.00000000000E+00  0.51702408530E+03  0.51702408530E+03  0.00000000000E+00 0.  1.
          2   -1    0    0  501    0  0.00000000000E+00 -0.00000000000E+00 -0.12732427517E+04  0.12732427517E+04  0.00000000000E+00 0. -1.
         23    2    1    2    0    0 -0.12897403554E+03  0.11224844560E+03  0.21832554043E+03  0.29342131790E+03  0.95895843541E+02 0.  0.
    9900016    2    1    2    0    0 -0.21787514098E+03  0.73225013186E+02 -0.62811806444E+03  0.97271211308E+03  0.70626133438E+03 0.  0.
         23    2    4    4    0    0  0.79104568777E+02 -0.14465589508E+03 -0.27724255481E+02  0.20336472289E+03  0.11578305312E+03 0.  0.
        -15    1    3    3    0    0 -0.18461490188E+02  0.71153278346E+02  0.11586514978E+03  0.13721642968E+03  0.00000000000E+00 0.  1.
        -15    1    5    5    0    0 -0.52576708085E+01 -0.62587027382E+02 -0.53933028851E+02  0.82786174569E+02  0.00000000000E+00 0.  1.
         15    1    3    3    0    0 -0.11051254535E+03  0.41095167257E+02  0.10246039065E+03  0.15620488822E+03  0.00000000000E+00 0. -1.
         15    1    5    5    0    0  0.84362239585E+02 -0.82068867700E+02  0.26208773370E+02  0.12057854832E+03  0.00000000000E+00 0. -1.
        -16    1    1    2    0    0  0.34684917652E+03 -0.18547345879E+03 -0.34642614238E+03  0.52413340601E+03  0.00000000000E+00 0.  1.
         16    1    4    4    0    0 -0.28274702167E+03  0.24297718020E+03 -0.39708499238E+03  0.54466529129E+03  0.00000000000E+00 0. -1.
    9900018    1    4    4    0    0 -0.14232688085E+02 -0.25096271930E+02 -0.20330881658E+03  0.22468209890E+03  0.91187600000E+02 0.  0.
<mgrwt>
<rscale>  0 0.73224636E+03</rscale>
<asrwt>0</asrwt>
<pdfrwt beam="1">  1        2 0.19588350E+00 0.11361382E+04</pdfrwt>
<pdfrwt beam="2">  1       -2 0.79542169E-01 0.11361382E+04</pdfrwt>
<totfact> 0.23653959E+01</totfact>
</mgrwt>
</event>
<event>
12    1  0.1488175E-010  0.1382359E+04  0.7818608E-02  0.9504466E-01
          1   -1    0    0  501    0  0.00000000000E+00  0.00000000000E+00  0.13384029110E+04  0.13384029110E+04  0.00000000000E+00 0. -1.
         -1   -1    0    0    0  501 -0.00000000000E+00 -0.00000000000E+00 -0.48319187600E+03  0.48319187600E+03  0.00000000000E+00 0.  1.
         23    2    1    2    0    0 -0.11251032641E+03  0.12153901622E+03  0.24927314389E+03  0.31226468656E+03  0.89116935516E+02 0.  0.
    9900016    2    1    2    0    0  0.75657521128E+02  0.42235352696E+03  0.25156265358E+03  0.85913087191E+03  0.70051090224E+03 0.  0.
         23    2    4    4    0    0 -0.13308924540E+03  0.78451554507E+02 -0.10965837703E+03  0.19899684569E+03  0.60888351053E+02 0.  0.
        -15    1    3    3    0    0 -0.25586463152E+02  0.89611104941E+02  0.14926228039E+03  0.17596603528E+03  0.00000000000E+00 0.  1.
        -15    1    5    5    0    0 -0.66170954171E+02  0.12815043019E+02 -0.22652188308E+02  0.71105148467E+02  0.00000000000E+00 0. -1.
         15    1    5    5    0    0 -0.66918291234E+02  0.65636511488E+02 -0.87006188721E+02  0.12789169722E+03  0.00000000000E+00 0.  1.
         15    1    3    3    0    0 -0.86923863262E+02  0.31927911279E+02  0.10001086350E+03  0.13629865128E+03  0.00000000000E+00 0. -1.
        -16    1    4    4    0    0  0.74756242077E+02  0.17653050670E+03  0.38079465215E+03  0.42632860874E+03  0.00000000000E+00 0.  1.
         16    1    1    2    0    0  0.36852805287E+02 -0.54389254318E+03  0.35437523751E+03  0.65019922850E+03  0.00000000000E+00 0. -1.
    9900018    1    4    4    0    0  0.13399052446E+03  0.16737146575E+03 -0.19573621543E+02  0.23380541749E+03  0.91187600000E+02 0.  0.
<mgrwt>
<rscale>  0 0.83955337E+03</rscale>
<asrwt>0</asrwt>
<pdfrwt beam="1">  1        1 0.20590814E+00 0.13823591E+04</pdfrwt>
<pdfrwt beam="2">  1       -1 0.74337212E-01 0.13823591E+04</pdfrwt>
<totfact> 0.15053215E+01</totfact>
</mgrwt>
</event>
