<event>
11    1  0.2124109E-013  0.3738806E+04  0.7818608E-02  0.8138178E-01
         -2   -1    0    0    0  501 -0.00000000000E+00  0.00000000000E+00  0.28907758412E+04  0.28907758412E+04  0.00000000000E+00 0. -1.
          2   -1    0    0  501    0  0.00000000000E+00 -0.00000000000E+00 -0.34449436370E+04  0.34449436370E+04  0.00000000000E+00 0.  1.
    9900016    2    1    2    0    0 -0.14577830694E+04  0.35713418204E+03 -0.58216222382E+02  0.25095737518E+04  0.20104464642E+04 0.  0.
        -24    2    3    3    0    0  0.52277232357E+02 -0.50557637540E+03 -0.49919093962E+03  0.71541369142E+03  0.65458194998E+02 0.  0.
        -15    1    3    3    0    0 -0.15100603018E+04  0.86271055744E+03  0.44097471724E+03  0.17941600603E+04  0.00000000000E+00 0.  1.
        -15    1    1    2    0    0  0.18891389504E+04 -0.10410125211E+04 -0.56382772905E+03  0.22294516705E+04  0.00000000000E+00 0.  1.
         15    1    4    4    0    0  0.52972328752E+02 -0.35299568896E+03 -0.31347758315E+03  0.47505812189E+03  0.00000000000E+00 0. -1.
         15    1    1    2    0    0 -0.63363815310E+02  0.34761142112E+03  0.97102386252E+02  0.36643900802E+03  0.00000000000E+00 0. -1.
        -16    1    4    4    0    0 -0.69509639481E+00 -0.15258068644E+03 -0.18571335648E+03  0.24035556954E+03  0.00000000000E+00 0.  1.
         16    1    1    2    0    0 -0.19011870497E+03 -0.43839860809E+02  0.50700330863E+03  0.54324893957E+03  0.00000000000E+00 0. -1.
    9900018    1    1    2    0    0 -0.17787336068E+03  0.38010677877E+03 -0.53622953923E+03  0.68700610830E+03  0.91187600000E+02 0.  0.
<mgrwt>
<rscale>  0 0.33988929E+04</rscale>
<asrwt>0</asrwt>
<pdfrwt beam="1">  1        2 0.52999133E+00 0.37388064E+04</pdfrwt>
<pdfrwt beam="2">  1       -2 0.44473475E+00 0.37388064E+04</pdfrwt>
<totfact> 0.24977823E-03</totfact>
</mgrwt>
</event>
<event>
11    1  0.2124109E-013  0.4863325E+04  0.7818608E-02  0.7921064E-01
          2   -1    0    0  501    0  0.00000000000E+00  0.00000000000E+00  0.38042511670E+04  0.38042511670E+04  0.00000000000E+00 0. -1.
         -2   -1    0    0    0  501 -0.00000000000E+00 -0.00000000000E+00 -0.51988169620E+04  0.51988169620E+04  0.00000000000E+00 0.  1.
    9900016    2    1    2    0    0 -0.14753314517E+03  0.91255856274E+02  0.41739998670E+03  0.20693082089E+04  0.20193365382E+04 0.  0.
         24    2    3    3    0    0  0.14158310611E+03 -0.94162723206E+03  0.17992981682E+03  0.97075108139E+03  0.57230262400E+02 0.  0.
        -15    1    4    4    0    0  0.91925156051E+02 -0.67441867646E+03  0.15298212713E+03  0.69763480181E+03  0.00000000000E+00 0.  1.
        -15    1    1    2    0    0 -0.10126179785E+04  0.46826166612E+03 -0.69483523534E+03  0.13143287879E+04  0.00000000000E+00 0.  1.
         15    1    1    2    0    0  0.29881674854E+03 -0.22447515072E+04 -0.15600563565E+04  0.27499048372E+04  0.00000000000E+00 0. -1.
         15    1    3    3    0    0 -0.28911625128E+03  0.10328830883E+04  0.23747016988E+03  0.10985571276E+04  0.00000000000E+00 0. -1.
        -16    1    1    2    0    0  0.47152590221E+03  0.19401212222E+04  0.91843144409E+03  0.21977086592E+04  0.00000000000E+00 0.  1.
         16    1    4    4    0    0  0.49657950062E+02 -0.26720855560E+03  0.26947689698E+02  0.27311627958E+03  0.00000000000E+00 0. -1.
    9900018    1    1    2    0    0  0.38980847294E+03 -0.25488723747E+03 -0.47550563398E+03  0.67181763578E+03  0.91187600000E+02 0.  0.
<mgrwt>
<rscale>  0 0.44409118E+04</rscale>
<asrwt>0</asrwt>
<pdfrwt beam="1">  1        2 0.58526942E+00 0.48633246E+04</pdfrwt>
<pdfrwt beam="2">  1       -2 0.79981799E+00 0.48633246E+04</pdfrwt>
<totfact> 0.25264478E-05</totfact>
</mgrwt>
</event>
<event>
11    1  0.2124109E-013  0.3772801E+04  0.7818608E-02  0.8343726E-01
         -2   -1    0    0    0  501 -0.00000000000E+00  0.00000000000E+00  0.39023866251E+04  0.39023866251E+04  0.00000000000E+00 0.  1.
          2   -1    0    0  501    0  0.00000000000E+00 -0.00000000000E+00 -0.17870005558E+04  0.17870005558E+04  0.00000000000E+00 0. -1.
    9900016    2    1    2    0    0  0.62361475142E+03 -0.38993519320E+02  0.17589580123E+04  0.27419934589E+04  0.20085265712E+04 0.  0.
         24    2    3    3    0    0 -0.17610472030E+03  0.85672220079E+03  0.94781399060E+03  0.12929204764E+04  0.91138333385E+02 0.  0.
        -15    1    1    2    0    0  0.14373120154E+03  0.25468504021E+03  0.15932220603E+01  0.29244771560E+03  0.00000000000E+00 0.  1.
        -15    1    4    4    0    0 -0.37664724864E+02  0.36098344513E+03  0.35246249572E+03  0.50592241505E+03  0.00000000000E+00 0.  1.
         15    1    1    2    0    0  0.56656261961E+03 -0.18005991328E+03 -0.52481517600E+03  0.79299794658E+03  0.00000000000E+00 0. -1.
         15    1    3    3    0    0  0.79971947171E+03 -0.89571572011E+03  0.81114402167E+03  0.14490729825E+04  0.00000000000E+00 0. -1.
        -16    1    1    2    0    0 -0.16240706018E+03 -0.37920719252E+03  0.28130799413E+03  0.49930785656E+03  0.00000000000E+00 0.  1.
         16    1    4    4    0    0 -0.13843999543E+03  0.49573875565E+03  0.59535149488E+03  0.78699806140E+03  0.00000000000E+00 0. -1.
    9900018    1    1    2    0    0 -0.11715015124E+04  0.34357558492E+03  0.59834201681E+03  0.13626402033E+04  0.91187600000E+02 0.  0.
<mgrwt>
<rscale>  0 0.26732824E+04</rscale>
<asrwt>0</asrwt>
<pdfrwt beam="1">  1        2 0.27492316E+00 0.37728007E+04</pdfrwt>
<pdfrwt beam="2">  1       -2 0.60036717E+00 0.37728007E+04</pdfrwt>
<totfact> 0.33996442E-03</totfact>
</mgrwt>
</event>
<event>
11    1  0.2124109E-013  0.4028908E+04  0.7818608E-02  0.8057408E-01
         -2   -1    0    0    0  501 -0.00000000000E+00  0.00000000000E+00  0.27231075462E+04  0.27231075462E+04  0.00000000000E+00 0.  1.
          2   -1    0    0  501    0  0.00000000000E+00 -0.00000000000E+00 -0.45754861440E+04  0.45754861440E+04  0.00000000000E+00 0. -1.
    9900016    2    1    2    0    0 -0.10708077215E+04 -0.10007945251E+03 -0.58185595916E+03  0.23812367314E+04  0.20433029487E+04 0.  0.
         24    2    3    3    0    0 -0.80760457091E+03  0.90386723995E+03 -0.57539507540E+03  0.13433414559E+04  0.65464830136E+02 0.  0.
        -15    1    4    4    0    0 -0.17016565613E+03  0.20287089125E+03 -0.97591984928E+02  0.28220053962E+03  0.00000000000E+00 0.  1.
        -15    1    1    2    0    0  0.21154057043E+04  0.34282129798E+03 -0.77028262023E+03  0.22772358357E+04  0.00000000000E+00 0.  1.
         15    1    3    3    0    0 -0.26320315059E+03 -0.10039466925E+04 -0.64608837576E+01  0.10378952754E+04  0.00000000000E+00 0. -1.
         15    1    1    2    0    0  0.22254281873E+02  0.76850817764E+03  0.19810989288E+03  0.79394433169E+03  0.00000000000E+00 0. -1.
        -16    1    1    2    0    0 -0.10920034276E+04 -0.86086234713E+03 -0.83506363555E+03  0.16220008453E+04  0.00000000000E+00 0.  1.
         16    1    4    4    0    0 -0.63743891479E+03  0.70099634870E+03 -0.47780309047E+03  0.10611409163E+04  0.00000000000E+00 0. -1.
    9900018    1    1    2    0    0  0.25151162894E+02 -0.15038767599E+03  0.13671372421E+03  0.22417594622E+03  0.91187600000E+02 0.  0.
<mgrwt>
<rscale>  0 0.37479958E+04</rscale>
<asrwt>0</asrwt>
<pdfrwt beam="1">  1        2 0.70392093E+00 0.40289078E+04</pdfrwt>
<pdfrwt beam="2">  1       -2 0.41893963E+00 0.40289078E+04</pdfrwt>
<totfact> 0.41459574E-04</totfact>
</mgrwt>
</event>
<event>
11    1  0.2316804E-013  0.3340476E+04  0.7818608E-02  0.8463192E-01
         -2   -1    0    0    0  501 -0.00000000000E+00  0.00000000000E+00  0.15713715319E+04  0.15713715319E+04  0.00000000000E+00 0.  1.
          2   -1    0    0  501    0  0.00000000000E+00 -0.00000000000E+00 -0.27445087341E+04  0.27445087341E+04  0.00000000000E+00 0. -1.
    9900016    2    1    2    0    0 -0.58486360409E+00  0.72630743099E+02 -0.14574696338E+04  0.24903962711E+04  0.20180634992E+04 0.  0.
        -24    2    3    3    0    0 -0.93211197018E+02  0.66381835830E+03 -0.17108718900E+04  0.18405538768E+04  0.10589055301E+03 0.  0.
        -15    1    1    2    0    0  0.15006081634E+03 -0.51635904872E+03 -0.14952674256E+03  0.55812468368E+03  0.00000000000E+00 0.  1.
        -15    1    3    3    0    0  0.92626333414E+02 -0.59118761520E+03  0.25340225619E+03  0.64984239432E+03  0.00000000000E+00 0.  1.
         15    1    1    2    0    0  0.15433124667E+03  0.18984464802E+03  0.48557883895E+02  0.24943334214E+03  0.00000000000E+00 0. -1.
         15    1    4    4    0    0  0.75116018925E+01  0.18578972753E+03 -0.56762089389E+03  0.59730036515E+03  0.00000000000E+00 0. -1.
        -16    1    4    4    0    0 -0.10072279891E+03  0.47802863077E+03 -0.11432509961E+04  0.12432535117E+04  0.00000000000E+00 0.  1.
         16    1    1    2    0    0  0.13915900132E+03  0.29179939880E+03 -0.11436503358E+03  0.34291613799E+03  0.00000000000E+00 0. -1.
    9900018    1    1    2    0    0 -0.44296620073E+03 -0.37915741195E+02  0.49966632389E+03  0.67500983107E+03  0.91187600000E+02 0.  0.
<mgrwt>
<rscale>  0 0.23377301E+04</rscale>
<asrwt>0</asrwt>
<pdfrwt beam="1">  1        2 0.42223211E+00 0.33404760E+04</pdfrwt>
<pdfrwt beam="2">  1       -2 0.24174947E+00 0.33404760E+04</pdfrwt>
<totfact> 0.14614802E-01</totfact>
</mgrwt>
</event>
<event>
11    1  0.2124110E-013  0.3156486E+04  0.7818608E-02  0.8465674E-01
         -2   -1    0    0    0  501 -0.00000000000E+00  0.00000000000E+00  0.24549856611E+04  0.24549856611E+04  0.00000000000E+00 0.  1.
          2   -1    0    0  501    0  0.00000000000E+00 -0.00000000000E+00 -0.21452054354E+04  0.21452054354E+04  0.00000000000E+00 0. -1.
    9900016    2    1    2    0    0  0.43681835047E+03 -0.62085214491E+03 -0.14182801064E+03  0.21590644097E+04  0.20162282320E+04 0.  0.
         24    2    3    3    0    0  0.26514021873E+03 -0.25961922092E+03 -0.10778501444E+04  0.11411744151E+04  0.53071992867E+02 0.  0.
        -15    1    4    4    0    0  0.12219741003E+03 -0.85254919003E+02 -0.45462018389E+03  0.47841417185E+03  0.00000000000E+00 0.  1.
        -15    1    1    2    0    0 -0.64007150081E+03 -0.20365527683E+03  0.45506153550E+03  0.81132484186E+03  0.00000000000E+00 0.  1.
         15    1    3    3    0    0  0.17167813174E+03 -0.36123292399E+03  0.93602213374E+03  0.10178899946E+04  0.00000000000E+00 0. -1.
         15    1    1    2    0    0  0.68880194991E+02  0.11582036004E+03  0.54193468899E+03  0.55843714435E+03  0.00000000000E+00 0. -1.
        -16    1    1    2    0    0 -0.20438260624E+03  0.30534430247E+03 -0.11479256366E+03  0.38494769184E+03  0.00000000000E+00 0.  1.
         16    1    4    4    0    0  0.14294280869E+03 -0.17436430192E+03 -0.62322996049E+03  0.66276024322E+03  0.00000000000E+00 0. -1.
    9900018    1    1    2    0    0  0.33875556159E+03  0.40334275923E+03 -0.43059542443E+03  0.68641700873E+03  0.91187600000E+02 0.  0.
<mgrwt>
<rscale>  0 0.23313189E+04</rscale>
<asrwt>0</asrwt>
<pdfrwt beam="1">  1        2 0.33003161E+00 0.31564864E+04</pdfrwt>
<pdfrwt beam="2">  1       -2 0.37769010E+00 0.31564864E+04</pdfrwt>
<totfact> 0.46448219E-02</totfact>
</mgrwt>
</event>
<event>
11    1  0.2124109E-013  0.6997528E+04  0.7818608E-02  0.7577690E-01
         -2   -1    0    0    0  501 -0.00000000000E+00  0.00000000000E+00  0.44859668091E+04  0.44859668091E+04  0.00000000000E+00 0.  1.
          2   -1    0    0  501    0  0.00000000000E+00 -0.00000000000E+00 -0.27288099150E+04  0.27288099150E+04  0.00000000000E+00 0. -1.
    9900016    2    1    2    0    0 -0.79178075434E+03 -0.87548509899E+02  0.88928268946E+03  0.23455882811E+04  0.20190045017E+04 0.  0.
        -24    2    3    3    0    0 -0.67524532567E+03  0.34092735220E+03  0.14450874034E+04  0.16341875848E+04  0.10051740922E+03 0.  0.
        -15    1    1    2    0    0 -0.13661232130E+04 -0.65872106530E+03  0.21360198854E+03  0.15316108790E+04  0.00000000000E+00 0.  1.
        -15    1    3    3    0    0 -0.11653542867E+03 -0.42847586210E+03 -0.55580471397E+03  0.71140069624E+03  0.00000000000E+00 0.  1.
         15    1    4    4    0    0 -0.23070556817E+03  0.17082463498E+03  0.55202027678E+03  0.62219972764E+03  0.00000000000E+00 0. -1.
         15    1    1    2    0    0  0.10271248708E+04  0.38482121848E+03  0.27120924092E+03  0.11298793399E+04  0.00000000000E+00 0. -1.
        -16    1    4    4    0    0 -0.44453975749E+03  0.17010271722E+03  0.89306712665E+03  0.10119878572E+04  0.00000000000E+00 0.  1.
         16    1    1    2    0    0  0.14363647665E+04  0.77702452500E+03  0.40802943643E+03  0.16832702920E+04  0.00000000000E+00 0. -1.
    9900018    1    1    2    0    0 -0.30558566999E+03 -0.41557616828E+03 -0.24966461235E+02  0.52442793206E+03  0.91187600000E+02 0.  0.
<mgrwt>
<rscale>  0 0.69975283E+04</rscale>
<asrwt>0</asrwt>
<pdfrwt beam="1">  1        2 0.41981691E+00 0.69975283E+04</pdfrwt>
<pdfrwt beam="2">  1       -2 0.69014874E+00 0.69975283E+04</pdfrwt>
<totfact> 0.40278249E-04</totfact>
</mgrwt>
</event>
<event>
10    1  0.2124109E-013  0.3814748E+04  0.7818608E-02  0.8339183E-01
         -2   -1    0    0    0  501 -0.00000000000E+00  0.00000000000E+00  0.22835303108E+04  0.22835303108E+04  0.00000000000E+00 0. -1.
          2   -1    0    0  501    0  0.00000000000E+00 -0.00000000000E+00 -0.25451220388E+04  0.25451220388E+04  0.00000000000E+00 0.  1.
    9900016    2    1    2    0    0  0.22351849421E+03  0.78861244671E+03 -0.72041842160E+03  0.22949820062E+04  0.20189278338E+04 0.  0.
        -15    1    3    3    0    0 -0.38421715384E+03 -0.56714289334E+03 -0.13907702758E+03  0.69901094582E+03  0.00000000000E+00 0.  1.
        -15    1    1    2    0    0 -0.54714213067E+03  0.11474024920E+03 -0.43657263690E+03  0.70931340269E+03  0.00000000000E+00 0.  1.
         15    1    3    3    0    0  0.54242594764E+03  0.12163735172E+04 -0.53435561754E+03  0.14350353194E+04  0.00000000000E+00 0. -1.
         15    1    1    2    0    0  0.29690425540E+03  0.58502215648E+01  0.59374697655E+02  0.30283942393E+03  0.00000000000E+00 0. -1.
        -16    1    3    3    0    0  0.65309700410E+02  0.13938182285E+03 -0.46985776485E+02  0.16093574091E+03  0.00000000000E+00 0.  1.
         16    1    1    2    0    0 -0.81449518981E+02 -0.10507950592E+04  0.60271306833E+03  0.12141117425E+04  0.00000000000E+00 0. -1.
    9900018    1    1    2    0    0  0.10816890005E+03  0.14159214175E+03  0.23331156451E+03  0.30740577430E+03  0.91187600000E+02 0.  0.
<mgrwt>
<rscale>  0 0.26871614E+04</rscale>
<asrwt>0</asrwt>
<pdfrwt beam="1">  1        2 0.39155724E+00 0.38147482E+04</pdfrwt>
<pdfrwt beam="2">  1       -2 0.35131236E+00 0.38147482E+04</pdfrwt>
<totfact> 0.38701773E-02</totfact>
</mgrwt>
</event>
<event>
11    1  0.2124109E-013  0.7133928E+04  0.7818608E-02  0.7563779E-01
          2   -1    0    0  501    0  0.00000000000E+00  0.00000000000E+00  0.35533738243E+04  0.35533738243E+04  0.00000000000E+00 0.  1.
         -2   -1    0    0    0  501 -0.00000000000E+00 -0.00000000000E+00 -0.35806061383E+04  0.35806061383E+04  0.00000000000E+00 0. -1.
    9900016    2    1    2    0    0 -0.13590224491E+04  0.51654183880E+03  0.16189197899E+03  0.24941833750E+04  0.20201446005E+04 0.  0.
        -24    2    3    3    0    0 -0.14157228324E+04  0.67571510992E+03  0.85007666140E+03  0.17855584948E+04  0.68751437280E+02 0.  0.
        -15    1    1    2    0    0  0.10556295736E+04 -0.22047979391E+04  0.27946279992E+03  0.24604038704E+04  0.00000000000E+00 0.  1.
        -15    1    3    3    0    0  0.56700383334E+02 -0.15917327111E+03 -0.68818468241E+03  0.70862488018E+03  0.00000000000E+00 0.  1.
         15    1    4    4    0    0 -0.10457476018E+04  0.51577163505E+03  0.66099872232E+03  0.13403461259E+04  0.00000000000E+00 0. -1.
         15    1    1    2    0    0 -0.39801834821E+03  0.92527175825E+03 -0.23656518145E+03  0.10346542984E+04  0.00000000000E+00 0. -1.
        -16    1    4    4    0    0 -0.36997523055E+03  0.15994347486E+03  0.18907793908E+03  0.44521236890E+03  0.00000000000E+00 0.  1.
         16    1    1    2    0    0  0.32919724467E+03  0.46999860975E+03 -0.31602684035E+03  0.65508967545E+03  0.00000000000E+00 0. -1.
    9900018    1    1    2    0    0  0.37221397896E+03  0.29298573226E+03  0.84004928971E+02  0.48964874341E+03  0.91187600000E+02 0.  0.
<mgrwt>
<rscale>  0 0.71339280E+04</rscale>
<asrwt>0</asrwt>
<pdfrwt beam="1">  1        2 0.54667290E+00 0.71339280E+04</pdfrwt>
<pdfrwt beam="2">  1       -2 0.55086248E+00 0.71339280E+04</pdfrwt>
<totfact> 0.39785952E-04</totfact>
</mgrwt>
</event>
<event>
10    1  0.2124109E-013  0.3395812E+04  0.7818608E-02  0.8343415E-01
          2   -1    0    0  501    0  0.00000000000E+00  0.00000000000E+00  0.21346977708E+04  0.21346977708E+04  0.00000000000E+00 0.  1.
         -2   -1    0    0    0  501 -0.00000000000E+00 -0.00000000000E+00 -0.30396118649E+04  0.30396118649E+04  0.00000000000E+00 0. -1.
    9900016    2    1    2    0    0 -0.23092086697E+03 -0.54503290190E+03 -0.63688852162E+02  0.21195464120E+04  0.20342161664E+04 0.  0.
        -15    1    1    2    0    0  0.56883989418E+03  0.53367516988E+03  0.83803933517E+03  0.11448571699E+04  0.00000000000E+00 0.  1.
        -15    1    3    3    0    0 -0.25686401483E+02 -0.12456552471E+04 -0.39686190198E+03  0.13075993863E+04  0.00000000000E+00 0.  1.
         15    1    3    3    0    0 -0.18423375480E+02  0.60812235435E+01  0.18802572560E+02  0.27017379198E+02  0.00000000000E+00 0. -1.
         15    1    1    2    0    0 -0.21006381280E+03 -0.62009631435E+02 -0.21082671229E+03  0.30400641844E+03  0.00000000000E+00 0. -1.
        -16    1    3    3    0    0 -0.18681109001E+03  0.69454112162E+03  0.31437047726E+03  0.78492964649E+03  0.00000000000E+00 0.  1.
         16    1    1    2    0    0 -0.21666909700E+03  0.29178590952E+03 -0.60069992518E+03  0.70208611630E+03  0.00000000000E+00 0. -1.
    9900018    1    1    2    0    0  0.88813882589E+02 -0.21841854607E+03 -0.86773793961E+03  0.90381351906E+03  0.91187600000E+02 0.  0.
<mgrwt>
<rscale>  0 0.26742316E+04</rscale>
<asrwt>0</asrwt>
<pdfrwt beam="1">  1        2 0.32841504E+00 0.33958115E+04</pdfrwt>
<pdfrwt beam="2">  1       -2 0.46763259E+00 0.33958115E+04</pdfrwt>
<totfact> 0.11753436E-02</totfact>
</mgrwt>
</event>
<event>
10    1  0.2124109E-013  0.3537511E+04  0.7818608E-02  0.8456549E-01
         -2   -1    0    0    0  501 -0.00000000000E+00  0.00000000000E+00  0.13884926549E+04  0.13884926549E+04  0.00000000000E+00 0.  1.
          2   -1    0    0  501    0  0.00000000000E+00 -0.00000000000E+00 -0.47143179831E+04  0.47143179831E+04  0.00000000000E+00 0. -1.
    9900016    2    1    2    0    0 -0.63827288289E+03 -0.48189871749E+03 -0.32399209056E+04  0.39026352555E+04  0.20233279062E+04 0.  0.
        -15    1    1    2    0    0 -0.12997414601E+03  0.37471419994E+03  0.32632383914E+03  0.51360613145E+03  0.00000000000E+00 0.  1.
        -15    1    3    3    0    0  0.54676545991E+02  0.15555513822E+03  0.24191562434E+03  0.29276286480E+03  0.00000000000E+00 0.  1.
         15    1    1    2    0    0  0.71181172096E+03  0.27059577792E+03 -0.10769654394E+03  0.76908812675E+03  0.00000000000E+00 0. -1.
         15    1    3    3    0    0 -0.74470534624E+02 -0.13456462199E+03 -0.65335993243E+03  0.67121732645E+03  0.00000000000E+00 0. -1.
        -16    1    3    3    0    0 -0.61847889426E+03 -0.50288923371E+03 -0.28284765975E+04  0.29386550642E+04  0.00000000000E+00 0.  1.
         16    1    1    2    0    0 -0.14125395690E+03 -0.26128471301E+03  0.20085616252E+03  0.35856042673E+03  0.00000000000E+00 0. -1.
    9900018    1    1    2    0    0  0.19768926484E+03  0.97873452631E+02 -0.50538788039E+03  0.55892069760E+03  0.91187600000E+02 0.  0.
<mgrwt>
<rscale>  0 0.23549917E+04</rscale>
<asrwt>0</asrwt>
<pdfrwt beam="1">  1        2 0.72527970E+00 0.35375115E+04</pdfrwt>
<pdfrwt beam="2">  1       -2 0.21361425E+00 0.35375115E+04</pdfrwt>
<totfact> 0.62644214E-03</totfact>
</mgrwt>
</event>
<event>
11    1  0.2124109E-013  0.3742673E+04  0.7818608E-02  0.8250315E-01
         -2   -1    0    0    0  501 -0.00000000000E+00  0.00000000000E+00  0.21312981437E+04  0.21312981437E+04  0.00000000000E+00 0.  1.
          2   -1    0    0  501    0  0.00000000000E+00 -0.00000000000E+00 -0.34566658771E+04  0.34566658771E+04  0.00000000000E+00 0. -1.
    9900016    2    1    2    0    0 -0.67916962289E+03 -0.13832351506E+04 -0.42004893058E+03  0.25641219201E+04  0.20059085867E+04 0.  0.
        -24    2    3    3    0    0 -0.11927960950E+04 -0.34825405827E+03  0.18795431016E+03  0.12584933530E+04  0.66597924251E+02 0.  0.
        -15    1    3    3    0    0  0.51362647211E+03 -0.10349810924E+04 -0.60800324073E+03  0.13056285671E+04  0.00000000000E+00 0.  1.
        -15    1    1    2    0    0  0.19140300380E+03  0.85587134598E+03  0.60999483159E+02  0.87913128011E+03  0.00000000000E+00 0.  1.
         15    1    1    2    0    0  0.58669004535E+03 -0.16411040850E+03  0.20374489710E+03  0.64237794062E+03  0.00000000000E+00 0. -1.
         15    1    4    4    0    0 -0.63598298549E+03 -0.21551170991E+03  0.84474690472E+02  0.67679807053E+03  0.00000000000E+00 0. -1.
        -16    1    4    4    0    0 -0.55681310951E+03 -0.13274234835E+03  0.10347961968E+03  0.58169528248E+03  0.00000000000E+00 0.  1.
         16    1    1    2    0    0  0.20973548313E+03  0.44386440142E+03 -0.86438707590E+03  0.99406719929E+03  0.00000000000E+00 0. -1.
    9900018    1    1    2    0    0 -0.30865890940E+03  0.24760981172E+03 -0.30567610720E+03  0.50826568065E+03  0.91187600000E+02 0.  0.
<mgrwt>
<rscale>  0 0.29770493E+04</rscale>
<asrwt>0</asrwt>
<pdfrwt beam="1">  1        2 0.53179475E+00 0.37426726E+04</pdfrwt>
<pdfrwt beam="2">  1       -2 0.32789202E+00 0.37426726E+04</pdfrwt>
<totfact> 0.14235022E-02</totfact>
</mgrwt>
</event>
<event>
10    1  0.2124109E-013  0.3288719E+04  0.7818608E-02  0.8577323E-01
          2   -1    0    0  501    0  0.00000000000E+00  0.00000000000E+00  0.45595112288E+04  0.45595112288E+04  0.00000000000E+00 0. -1.
         -2   -1    0    0    0  501 -0.00000000000E+00 -0.00000000000E+00 -0.11178491971E+04  0.11178491971E+04  0.00000000000E+00 0.  1.
    9900016    2    1    2    0    0 -0.53631854771E+03  0.40767197252E+03  0.17587274950E+04  0.27620305424E+04  0.20203604365E+04 0.  0.
        -15    1    3    3    0    0 -0.74167707761E+03 -0.27941780655E+02  0.94495454642E+03  0.12015842565E+04  0.00000000000E+00 0.  1.
        -15    1    1    2    0    0  0.15839621386E+03 -0.12726642325E+03 -0.29197038267E+03  0.35571450267E+03  0.00000000000E+00 0.  1.
         15    1    1    2    0    0  0.66027647730E+02 -0.25773268118E+03 -0.87565738714E+02  0.28009559763E+03  0.00000000000E+00 0. -1.
         15    1    3    3    0    0  0.69452231711E+03  0.39107691251E+03  0.30544948403E+03  0.85358174053E+03  0.00000000000E+00 0. -1.
        -16    1    1    2    0    0  0.27880179008E+03  0.30109983463E+03  0.36648991216E+03  0.55018760826E+03  0.00000000000E+00 0.  1.
         16    1    3    3    0    0 -0.48916378721E+03  0.44536840659E+02  0.50832346455E+03  0.70686454537E+03  0.00000000000E+00 0. -1.
    9900018    1    1    2    0    0  0.33092896041E+02 -0.32377270272E+03  0.16959807459E+04  0.17293321750E+04  0.91187600000E+02 0.  0.
<mgrwt>
<rscale>  0 0.20638823E+04</rscale>
<asrwt>0</asrwt>
<pdfrwt beam="1">  1        2 0.70146325E+00 0.32887193E+04</pdfrwt>
<pdfrwt beam="2">  1       -2 0.17197680E+00 0.32887193E+04</pdfrwt>
<totfact> 0.17859864E-02</totfact>
</mgrwt>
</event>
<event>
11    1  0.2124109E-013  0.4387339E+04  0.7818608E-02  0.8338209E-01
          2   -1    0    0  501    0  0.00000000000E+00  0.00000000000E+00  0.50262316915E+04  0.50262316915E+04  0.00000000000E+00 0. -1.
         -2   -1    0    0    0  501 -0.00000000000E+00 -0.00000000000E+00 -0.12480525616E+04  0.12480525616E+04  0.00000000000E+00 0.  1.
    9900016    2    1    2    0    0  0.56905918821E+03  0.94573987304E+03  0.16088065183E+04  0.28106352695E+04  0.20231559350E+04 0.  0.
         24    2    3    3    0    0 -0.60430413338E+03  0.23483563093E+02  0.10527147020E+04  0.12179719988E+04  0.97532469904E+02 0.  0.
        -15    1    1    2    0    0 -0.97465025635E+02  0.35886413063E+02 -0.47729999399E+02  0.11430406251E+03  0.00000000000E+00 0.  1.
        -15    1    4    4    0    0 -0.69690218217E+02  0.34661496662E+02  0.13149358166E+03  0.15280283991E+03  0.00000000000E+00 0.  1.
         15    1    1    2    0    0  0.37615480654E+03  0.13628166933E+03  0.57044522305E+03  0.69675884234E+03  0.00000000000E+00 0. -1.
         15    1    3    3    0    0  0.11733633216E+04  0.92225630994E+03  0.55609181636E+03  0.15926632707E+04  0.00000000000E+00 0. -1.
        -16    1    1    2    0    0 -0.12370663916E+04 -0.10995593783E+04  0.14752904681E+04  0.22171707307E+04  0.00000000000E+00 0.  1.
         16    1    4    4    0    0 -0.53461391516E+03 -0.11177933568E+02  0.92122112030E+03  0.10651691589E+04  0.00000000000E+00 0. -1.
    9900018    1    1    2    0    0  0.38931742252E+03 -0.18348577097E+02  0.17136691973E+03  0.43541534807E+03  0.91187600000E+02 0.  0.
<mgrwt>
<rscale>  0 0.26901462E+04</rscale>
<asrwt>0</asrwt>
<pdfrwt beam="1">  1        2 0.77326640E+00 0.43873389E+04</pdfrwt>
<pdfrwt beam="2">  1       -2 0.19200809E+00 0.43873389E+04</pdfrwt>
<totfact> 0.35299466E-03</totfact>
</mgrwt>
</event>
