<event>
12    1  0.9358080E-011  0.4854395E+04  0.7818608E-02  0.7851369E-01
         -2   -1    0    0    0  501 -0.00000000000E+00  0.00000000000E+00  0.26086600683E+04  0.26086600683E+04  0.00000000000E+00 0.  1.
          2   -1    0    0  501    0  0.00000000000E+00 -0.00000000000E+00 -0.22583580365E+04  0.22583580365E+04  0.00000000000E+00 0. -1.
    9900016    2    1    2    0    0 -0.36705492182E+03 -0.13834473482E+04  0.71093431181E+03  0.25082672362E+04  0.19332152109E+04 0.  0.
        -24    2    3    3    0    0 -0.51872253915E+02  0.19235745412E+03 -0.46818555681E+03  0.51507267627E+03  0.80062633952E+02 0.  0.
    9900016    2    1    2    0    0  0.36705492182E+03  0.13834473482E+04 -0.36063228002E+03  0.23587508686E+04  0.18398353562E+04 0.  0.
        -15    1    3    3    0    0 -0.31518266790E+03 -0.15758048023E+04  0.11791198686E+04  0.19931945599E+04  0.00000000000E+00 0.  1.
        -15    1    5    5    0    0  0.90490440554E+02  0.40577035910E+03 -0.19538823398E+03  0.45936332694E+03  0.00000000000E+00 0. -1.
         15    1    4    4    0    0 -0.68253934543E+02  0.17789794174E+03 -0.39265378742E+03  0.43644389563E+03  0.00000000000E+00 0. -1.
         15    1    5    5    0    0  0.27024544621E+02 -0.10668778819E+03  0.59594189787E+02  0.12515621286E+03  0.00000000000E+00 0.  1.
        -16    1    4    4    0    0  0.16381680629E+02  0.14459512382E+02 -0.75531769387E+02  0.78628780643E+02  0.00000000000E+00 0.  1.
         16    1    5    5    0    0 -0.13985438379E+03 -0.26289276791E+03  0.12976036057E+03  0.32482242419E+03  0.00000000000E+00 0. -1.
    9900018    1    5    5    0    0  0.38939432043E+03  0.13472575452E+04 -0.35459859640E+03  0.14494089046E+04  0.91187600000E+02 0.  0.
<mgrwt>
<rscale>  0 0.48543953E+04</rscale>
<asrwt>0</asrwt>
<pdfrwt beam="1">  1        2 0.34743970E+00 0.48543953E+04</pdfrwt>
<pdfrwt beam="2">  1       -2 0.40133232E+00 0.48543953E+04</pdfrwt>
<totfact> 0.25661325E-02</totfact>
</mgrwt>
</event>
<event>
13    1  0.9358080E-011  0.5092990E+04  0.7818608E-02  0.7814321E-01
         -1   -1    0    0    0  501 -0.00000000000E+00  0.00000000000E+00  0.30078181170E+04  0.30078181170E+04  0.00000000000E+00 0.  1.
          1   -1    0    0  501    0  0.00000000000E+00 -0.00000000000E+00 -0.21559272222E+04  0.21559272222E+04  0.00000000000E+00 0. -1.
    9900016    2    1    2    0    0  0.58936480588E+03 -0.30907824073E+03  0.20051802270E+04  0.28747971901E+04  0.19495719808E+04 0.  0.
        -24    2    3    3    0    0 -0.52774878479E+03 -0.64524229386E+03  0.11758161944E+04  0.14434363887E+04  0.78156814964E+02 0.  0.
    9900016    2    1    2    0    0 -0.58936480588E+03  0.30907824073E+03 -0.11532893322E+04  0.22889481491E+04  0.18618074852E+04 0.  0.
         23    2    5    5    0    0  0.48188589254E+02 -0.10460277797E+03  0.21520743844E+03  0.26622506261E+03  0.10629045633E+03 0.  0.
        -15    1    3    3    0    0  0.11171135907E+04  0.33616405312E+03  0.82936403258E+03  0.14313608013E+04  0.00000000000E+00 0.  1.
        -15    1    6    6    0    0 -0.28559396217E+02 -0.44751405440E+01  0.26405636040E+02  0.39152568368E+02  0.00000000000E+00 0.  1.
         15    1    6    6    0    0  0.76747985471E+02 -0.10012763743E+03  0.18880180240E+03  0.22707249424E+03  0.00000000000E+00 0. -1.
         15    1    4    4    0    0 -0.78802766318E+02 -0.14138995589E+03  0.24804232525E+03  0.29618573687E+03  0.00000000000E+00 0. -1.
        -16    1    4    4    0    0 -0.44894601847E+03 -0.50385233797E+03  0.92777386914E+03  0.11472506519E+04  0.00000000000E+00 0.  1.
         16    1    5    5    0    0 -0.76551184726E+02  0.11547423510E+03  0.24766031006E+03  0.28377810351E+03  0.00000000000E+00 0. -1.
    9900018    1    5    5    0    0 -0.56100221041E+03  0.29820678361E+03 -0.16161570807E+04  0.17389449830E+04  0.91187600000E+02 0.  0.
<mgrwt>
<rscale>  0 0.50929901E+04</rscale>
<asrwt>0</asrwt>
<pdfrwt beam="1">  1        1 0.33168111E+00 0.50929901E+04</pdfrwt>
<pdfrwt beam="2">  1       -1 0.46274125E+00 0.50929901E+04</pdfrwt>
<totfact> 0.44399701E-03</totfact>
</mgrwt>
</event>
<event>
12    1  0.9358080E-011  0.4853659E+04  0.7818608E-02  0.8294009E-01
         -1   -1    0    0    0  501 -0.00000000000E+00  0.00000000000E+00  0.35775028232E+04  0.35775028232E+04  0.00000000000E+00 0.  1.
          1   -1    0    0  501    0  0.00000000000E+00 -0.00000000000E+00 -0.20699034748E+04  0.20699034748E+04  0.00000000000E+00 0. -1.
         24    2    1    2    0    0 -0.49136781577E+03 -0.25931869501E+03  0.33755449169E+03  0.65471022462E+03  0.77549515874E+02 0.  0.
    9900016    2    1    2    0    0 -0.49178417383E+03 -0.35451083027E+03  0.25261616038E+04  0.32087602135E+04  0.18833799556E+04 0.  0.
         23    2    4    4    0    0  0.23000550109E+03 -0.13196935108E+03 -0.19055520464E+03  0.33466929307E+03  0.73306272235E+02 0.  0.
        -15    1    5    5    0    0  0.15052181941E+03 -0.11844745402E+03 -0.15567357131E+03  0.24682155150E+03  0.00000000000E+00 0. -1.
        -15    1    3    3    0    0 -0.35368310287E+03 -0.16905201517E+03  0.19950646728E+03  0.43985583044E+03  0.00000000000E+00 0.  1.
         15    1    5    5    0    0  0.79483681687E+02 -0.13521897064E+02 -0.34881633332E+02  0.87847741568E+02  0.00000000000E+00 0.  1.
         15    1    1    2    0    0  0.98315198960E+03  0.61382952528E+03 -0.13561167470E+04  0.17839358599E+04  0.00000000000E+00 0. -1.
        -16    1    4    4    0    0 -0.94327312244E+02  0.11979396467E+03  0.17450843248E+03  0.23173568739E+03  0.00000000000E+00 0.  1.
         16    1    3    3    0    0 -0.13768471290E+03 -0.90266679842E+02  0.13804802441E+03  0.21485439419E+03  0.00000000000E+00 0. -1.
    9900018    1    4    4    0    0 -0.62746236268E+03 -0.34233544386E+03  0.25422083759E+04  0.26423552331E+04  0.91187600000E+02 0.  0.
<mgrwt>
<rscale>  0 0.28300199E+04</rscale>
<asrwt>0</asrwt>
<pdfrwt beam="1">  1        1 0.31844669E+00 0.48536594E+04</pdfrwt>
<pdfrwt beam="2">  1       -1 0.55038505E+00 0.48536594E+04</pdfrwt>
<totfact> 0.14428801E-03</totfact>
</mgrwt>
</event>
<event>
12    1  0.9358080E-011  0.5274412E+04  0.7818608E-02  0.7787517E-01
          2   -1    0    0  501    0  0.00000000000E+00  0.00000000000E+00  0.34176354727E+04  0.34176354727E+04  0.00000000000E+00 0. -1.
         -2   -1    0    0    0  501 -0.00000000000E+00 -0.00000000000E+00 -0.20349901140E+04  0.20349901140E+04  0.00000000000E+00 0.  1.
    9900016    2    1    2    0    0  0.68933407577E+02 -0.12368665196E+04 -0.82777509036E+03  0.23201801769E+04  0.17786044673E+04 0.  0.
        -24    2    3    3    0    0 -0.38033032122E+03  0.10235534344E+03 -0.81374247010E+03  0.90754079943E+03  0.79534429113E+02 0.  0.
    9900016    2    1    2    0    0 -0.68933407577E+02  0.12368665196E+04  0.22104204491E+04  0.31324454099E+04  0.18416473827E+04 0.  0.
        -15    1    5    5    0    0 -0.79886332980E+02 -0.12122053820E+03  0.25093683228E+03  0.28990608630E+03  0.00000000000E+00 0. -1.
        -15    1    3    3    0    0  0.44926372879E+03 -0.13392218630E+04 -0.14032620258E+02  0.14126393775E+04  0.00000000000E+00 0.  1.
         15    1    5    5    0    0 -0.17057235971E+03  0.49163146785E+02  0.73184518639E+03  0.75306661175E+03  0.00000000000E+00 0.  1.
         15    1    4    4    0    0 -0.10666838488E+03  0.65172322135E+02 -0.23042676278E+03  0.26214894413E+03  0.00000000000E+00 0. -1.
        -16    1    4    4    0    0 -0.27366193634E+03  0.37183021303E+02 -0.58331570732E+03  0.64539185530E+03  0.00000000000E+00 0.  1.
         16    1    5    5    0    0 -0.36346129818E+03  0.46278280278E+03  0.14013651386E+03  0.60490518294E+03  0.00000000000E+00 0. -1.
    9900018    1    5    5    0    0  0.54498658329E+03  0.84614110819E+03  0.10875019165E+04  0.14845675289E+04  0.91187600000E+02 0.  0.
<mgrwt>
<rscale>  0 0.52744116E+04</rscale>
<asrwt>0</asrwt>
<pdfrwt beam="1">  1        2 0.52579007E+00 0.52744116E+04</pdfrwt>
<pdfrwt beam="2">  1       -2 0.31307540E+00 0.52744116E+04</pdfrwt>
<totfact> 0.17421431E-02</totfact>
</mgrwt>
</event>
