<event>
11    1  0.4953229E-007  0.4568962E+04  0.7818608E-02  0.7898674E-01
         -2   -1    0    0    0  501 -0.00000000000E+00  0.00000000000E+00  0.17714372911E+04  0.17714372911E+04  0.00000000000E+00 0.  1.
          2   -1    0    0  501    0  0.00000000000E+00 -0.00000000000E+00 -0.29461124786E+04  0.29461124786E+04  0.00000000000E+00 0. -1.
         24    2    1    2    0    0 -0.12758441716E+03 -0.10860941635E+04  0.58857177355E+03  0.12443969765E+04  0.78922664349E+02 0.  0.
    9900016    2    1    2    0    0  0.33068986235E+03  0.13030051787E+04 -0.72898392517E+03  0.23970476693E+04  0.18458715245E+04 0.  0.
        -15    1    3    3    0    0 -0.20952391608E+02 -0.51596515588E+03  0.27804151779E+03  0.58648625765E+03  0.00000000000E+00 0.  1.
        -15    1    4    4    0    0  0.13875011033E+03  0.45004293407E+03 -0.11880035016E+04  0.12779446606E+04  0.00000000000E+00 0.  1.
         15    1    4    4    0    0  0.30922446684E+03  0.41426624111E+03  0.12962482450E+03  0.53295298530E+03  0.00000000000E+00 0. -1.
         15    1    1    2    0    0 -0.20310544519E+03 -0.21691101516E+03 -0.10342630358E+04  0.10761051239E+04  0.00000000000E+00 0. -1.
        -16    1    4    4    0    0  0.25200902507E+02  0.42796361684E+02  0.61615251788E+02  0.79139454847E+02  0.00000000000E+00 0.  1.
         16    1    3    3    0    0 -0.10663202555E+03 -0.57012900764E+03  0.31053025576E+03  0.65791071884E+03  0.00000000000E+00 0. -1.
    9900018    1    4    4    0    0 -0.14248561733E+03  0.39589964182E+03  0.26777950015E+03  0.50701056857E+03  0.91187600000E+02 0.  0.
<mgrwt>
<rscale>  0 0.45689620E+04</rscale>
<asrwt>0</asrwt>
<pdfrwt beam="1">  1        2 0.45324807E+00 0.45689620E+04</pdfrwt>
<pdfrwt beam="2">  1       -2 0.27252882E+00 0.45689620E+04</pdfrwt>
<totfact> 0.66278456E-02</totfact>
</mgrwt>
</event>
<event>
12    1  0.4953229E-007  0.3639916E+04  0.7818608E-02  0.8529490E-01
         -2   -1    0    0    0  501 -0.00000000000E+00  0.00000000000E+00  0.27223098374E+04  0.27223098374E+04  0.00000000000E+00 0. -1.
          2   -1    0    0  501    0  0.00000000000E+00 -0.00000000000E+00 -0.16760698564E+04  0.16760698564E+04  0.00000000000E+00 0.  1.
         24    2    1    2    0    0 -0.29509009758E+03  0.34756179767E+03  0.55936974347E+03  0.72604612410E+03  0.79819142502E+02 0.  0.
    9900016    2    1    2    0    0  0.33856888826E+03  0.72526330719E+03  0.12407431277E+04  0.23604004748E+04  0.18415784360E+04 0.  0.
        -24    2    4    4    0    0  0.25792324407E+03  0.74788634723E+03  0.11708325735E+04  0.14164217072E+04  0.97689043648E+02 0.  0.
        -15    1    3    3    0    0 -0.65030756732E+02  0.52418528285E+02  0.64048986950E+02  0.10525670600E+03  0.00000000000E+00 0.  1.
        -15    1    4    4    0    0  0.36529207674E+03 -0.31511769121E+03 -0.99819276178E+02  0.49264728613E+03  0.00000000000E+00 0.  1.
         15    1    5    5    0    0  0.22301485762E+03  0.55153461988E+03  0.82360880571E+03  0.10160007522E+04  0.00000000000E+00 0. -1.
         15    1    1    2    0    0 -0.43478790677E+02 -0.10728251049E+04 -0.75387289012E+03  0.13119330948E+04  0.00000000000E+00 0. -1.
        -16    1    5    5    0    0  0.34908386449E+02  0.19635172734E+03  0.34722376774E+03  0.40042095494E+03  0.00000000000E+00 0.  1.
         16    1    3    3    0    0 -0.23005934085E+03  0.29514326939E+03  0.49532075652E+03  0.62078941810E+03  0.00000000000E+00 0. -1.
    9900018    1    4    4    0    0 -0.28464643255E+03  0.29249465117E+03  0.16972983038E+03  0.45133148155E+03  0.91187600000E+02 0.  0.
<mgrwt>
<rscale>  0 0.21736185E+04</rscale>
<asrwt>0</asrwt>
<pdfrwt beam="1">  1        2 0.25785690E+00 0.36399164E+04</pdfrwt>
<pdfrwt beam="2">  1       -2 0.41881690E+00 0.36399164E+04</pdfrwt>
<totfact> 0.44863889E-02</totfact>
</mgrwt>
</event>
<event>
12    1  0.4953229E-007  0.2173450E+04  0.7818608E-02  0.9300561E-01
         -2   -1    0    0    0  501 -0.00000000000E+00  0.00000000000E+00  0.14948180186E+04  0.14948180186E+04  0.00000000000E+00 0.  1.
          2   -1    0    0  501    0  0.00000000000E+00 -0.00000000000E+00 -0.86708110862E+03  0.86708110862E+03  0.00000000000E+00 0. -1.
         24    2    1    2    0    0 -0.30888001968E+01 -0.59730798091E+02  0.54475027789E+02  0.11411971674E+03  0.80488956810E+02 0.  0.
    9900016    2    1    2    0    0 -0.81150402140E+02 -0.14499289164E+03  0.26401299362E+03  0.18674599298E+04  0.18412211714E+04 0.  0.
        -24    2    4    4    0    0 -0.82189765863E+02 -0.53567498182E+03  0.31154718470E+03  0.62849974066E+03  0.65172325106E+02 0.  0.
        -15    1    4    4    0    0  0.43602699383E+03  0.13695527804E+03 -0.40827122440E+03  0.61283087406E+03  0.00000000000E+00 0.  1.
        -15    1    3    3    0    0  0.71660947875E+01 -0.59087224174E+02  0.85733371120E+00  0.59526363875E+02  0.00000000000E+00 0.  1.
         15    1    5    5    0    0 -0.26141344139E+02 -0.17760029768E+03  0.68616523619E+02  0.19218080789E+03  0.00000000000E+00 0. -1.
         15    1    1    2    0    0  0.84239202337E+02  0.20472368974E+03  0.30924888859E+03  0.38031948076E+03  0.00000000000E+00 0. -1.
        -16    1    5    5    0    0 -0.56048421724E+02 -0.35807468414E+03  0.24293066108E+03  0.43631893277E+03  0.00000000000E+00 0.  1.
         16    1    3    3    0    0 -0.10254894984E+02 -0.64357391734E+00  0.53617694078E+02  0.54593352863E+02  0.00000000000E+00 0. -1.
    9900018    1    4    4    0    0 -0.43498763010E+03  0.25372681214E+03  0.36073703332E+03  0.62612931503E+03  0.91187600000E+02 0.  0.
<mgrwt>
<rscale>  0 0.10073125E+04</rscale>
<asrwt>0</asrwt>
<pdfrwt beam="1">  1        2 0.13339709E+00 0.21734496E+04</pdfrwt>
<pdfrwt beam="2">  1       -2 0.22997200E+00 0.21734496E+04</pdfrwt>
<totfact> 0.24108424E+00</totfact>
</mgrwt>
</event>
<event>
12    1  0.4953229E-007  0.5937213E+04  0.7818608E-02  0.7698236E-01
         -2   -1    0    0    0  501 -0.00000000000E+00  0.00000000000E+00  0.48445363109E+04  0.48445363109E+04  0.00000000000E+00 0.  1.
          2   -1    0    0  501    0  0.00000000000E+00 -0.00000000000E+00 -0.18190850428E+04  0.18190850428E+04  0.00000000000E+00 0. -1.
         24    2    1    2    0    0  0.60588811737E+03 -0.91055543496E+03 -0.93738270011E+03  0.14426783000E+04  0.80141998904E+02 0.  0.
    9900016    2    1    2    0    0 -0.59179028280E+03  0.11658055198E+03  0.39774206583E+04  0.44267090609E+04  0.18471792693E+04 0.  0.
        -24    2    4    4    0    0  0.34275468397E+03 -0.35925986499E+03  0.51462898172E+03  0.72330648727E+03  0.10853967815E+03 0.  0.
        -15    1    4    4    0    0 -0.22429470226E+03  0.51482430539E+03  0.11134749373E+04  0.12470680073E+04  0.00000000000E+00 0.  1.
        -15    1    3    3    0    0  0.54905464934E+03 -0.85135422662E+03 -0.88617682601E+03  0.13459473965E+04  0.00000000000E+00 0.  1.
         15    1    1    2    0    0 -0.14097834564E+02  0.79397488298E+03 -0.14586690175E+02  0.79423399277E+03  0.00000000000E+00 0. -1.
         15    1    5    5    0    0  0.29667105654E+03 -0.25738180967E+03  0.36228010531E+03  0.53432760217E+03  0.00000000000E+00 0. -1.
        -16    1    5    5    0    0  0.46083627432E+02 -0.10187805532E+03  0.15234887641E+03  0.18897888511E+03  0.00000000000E+00 0.  1.
         16    1    3    3    0    0  0.56833468030E+02 -0.59201208337E+02 -0.51205874102E+02  0.96730903539E+02  0.00000000000E+00 0. -1.
    9900018    1    4    4    0    0 -0.71025026451E+03 -0.38983888424E+02  0.23493167393E+04  0.24563345663E+04  0.91187600000E+02 0.  0.
<mgrwt>
<rscale>  0 0.59372127E+04</rscale>
<asrwt>0</asrwt>
<pdfrwt beam="1">  1        2 0.27985924E+00 0.59372127E+04</pdfrwt>
<pdfrwt beam="2">  1       -2 0.74531327E+00 0.59372127E+04</pdfrwt>
<totfact> 0.86782878E-04</totfact>
</mgrwt>
</event>
<event>
12    1  0.5206299E-007  0.5052518E+04  0.7818608E-02  0.7820456E-01
         -2   -1    0    0    0  501 -0.00000000000E+00  0.00000000000E+00  0.43006507066E+04  0.43006507066E+04  0.00000000000E+00 0. -1.
          2   -1    0    0  501    0  0.00000000000E+00 -0.00000000000E+00 -0.14839579735E+04  0.14839579735E+04  0.00000000000E+00 0.  1.
        -24    2    1    2    0    0  0.78458982289E+03  0.15809087615E+04  0.23795141987E+04  0.29636644814E+04  0.79784925352E+02 0.  0.
    9900016    2    1    2    0    0 -0.62678850392E+03 -0.14790717634E+04  0.66012701129E+03  0.25294342438E+04  0.18389542715E+04 0.  0.
         24    2    4    4    0    0  0.47604922159E+03 -0.43568788994E+03 -0.13500517091E+03  0.66559689483E+03  0.91356616732E+02 0.  0.
        -15    1    5    5    0    0  0.14033554974E+03 -0.17595405349E+03 -0.20686480119E+02  0.22601288884E+03  0.00000000000E+00 0.  1.
        -15    1    1    2    0    0 -0.15780131897E+03 -0.10183699804E+03 -0.22294847690E+03  0.29150995487E+03  0.00000000000E+00 0.  1.
         15    1    4    4    0    0 -0.70097180217E+03 -0.51354583183E+03  0.81635719767E+03  0.11922792722E+04  0.00000000000E+00 0. -1.
         15    1    3    3    0    0  0.18076656415E+03  0.42458541894E+03  0.58443487986E+03  0.74465660374E+03  0.00000000000E+00 0. -1.
        -16    1    3    3    0    0  0.60382325874E+03  0.11563233425E+04  0.17950793188E+04  0.22190078777E+04  0.00000000000E+00 0.  1.
         16    1    5    5    0    0  0.33571367185E+03 -0.25973383645E+03 -0.11431869079E+03  0.43958400600E+03  0.00000000000E+00 0. -1.
    9900018    1    4    4    0    0 -0.40186592334E+03 -0.52983804165E+03 -0.21225015468E+02  0.67155807671E+03  0.91187600000E+02 0.  0.
<mgrwt>
<rscale>  0 0.50525181E+04</rscale>
<asrwt>0</asrwt>
<pdfrwt beam="1">  1        2 0.22830123E+00 0.50525181E+04</pdfrwt>
<pdfrwt beam="2">  1       -2 0.66163857E+00 0.50525181E+04</pdfrwt>
<totfact> 0.29184031E-03</totfact>
</mgrwt>
</event>
<event>
12    1  0.4953231E-007  0.3544188E+04  0.7818608E-02  0.8659015E-01
          2   -1    0    0  501    0  0.00000000000E+00  0.00000000000E+00  0.44807154019E+04  0.44807154019E+04  0.00000000000E+00 0. -1.
         -2   -1    0    0    0  501 -0.00000000000E+00 -0.00000000000E+00 -0.10318298040E+04  0.10318298040E+04  0.00000000000E+00 0.  1.
        -24    2    1    2    0    0 -0.61057794057E+02  0.27087358001E+03 -0.25626279970E+03  0.38522697814E+03  0.75024340168E+02 0.  0.
    9900016    2    1    2    0    0  0.22869781260E+03  0.10742195132E+04  0.18860918874E+04  0.28587624774E+04  0.18463288013E+04 0.  0.
         24    2    4    4    0    0 -0.47194539291E+03  0.28766476782E+03  0.14851490530E+04  0.15879856053E+04  0.10269907803E+03 0.  0.
        -15    1    5    5    0    0 -0.17276211070E+03  0.53238865172E+02  0.42945881426E+03  0.46595707614E+03  0.00000000000E+00 0.  1.
        -15    1    1    2    0    0 -0.16764001854E+03 -0.13450930932E+04  0.18190565102E+04  0.22685557504E+04  0.00000000000E+00 0.  1.
         15    1    3    3    0    0 -0.30679524890E+02  0.24426277987E+03 -0.20793175981E+03  0.32224393806E+03  0.00000000000E+00 0. -1.
         15    1    4    4    0    0  0.63783643304E+03  0.85196277413E+03  0.29566175001E+03  0.11045776361E+04  0.00000000000E+00 0. -1.
        -16    1    3    3    0    0 -0.30378269167E+02  0.26610800138E+02 -0.48331039890E+02  0.62983040085E+02  0.00000000000E+00 0.  1.
         16    1    5    5    0    0 -0.29918328221E+03  0.23442590265E+03  0.10556902387E+04  0.11220285292E+04  0.00000000000E+00 0. -1.
    9900018    1    4    4    0    0  0.62806772474E+02 -0.65408028762E+02  0.10528108440E+03  0.16619923592E+03  0.91187600000E+02 0.  0.
<mgrwt>
<rscale>  0 0.18916679E+04</rscale>
<asrwt>0</asrwt>
<pdfrwt beam="1">  1        2 0.68934082E+00 0.35441879E+04</pdfrwt>
<pdfrwt beam="2">  1       -2 0.15874305E+00 0.35441879E+04</pdfrwt>
<totfact> 0.26365513E-02</totfact>
</mgrwt>
</event>
<event>
11    1  0.4953229E-007  0.3104829E+04  0.7818608E-02  0.8561528E-01
          1   -1    0    0  501    0  0.00000000000E+00  0.00000000000E+00  0.27850835198E+04  0.27850835198E+04  0.00000000000E+00 0. -1.
         -1   -1    0    0    0  501 -0.00000000000E+00 -0.00000000000E+00 -0.13436129522E+04  0.13436129522E+04  0.00000000000E+00 0.  1.
         24    2    1    2    0    0 -0.31734639249E+03 -0.56119619561E+03  0.66300317459E+03  0.92776298378E+03  0.74303712947E+02 0.  0.
    9900016    2    1    2    0    0  0.51429829965E+03 -0.52578923810E+03  0.32574153593E+03  0.20070791888E+04  0.18388317644E+04 0.  0.
        -15    1    4    4    0    0 -0.24812060764E+03 -0.93690964813E+02 -0.43573125875E+03  0.51010152193E+03  0.00000000000E+00 0.  1.
        -15    1    3    3    0    0 -0.19221740833E+03 -0.40876688771E+03  0.45564318574E+03  0.64159848291E+03  0.00000000000E+00 0.  1.
         15    1    1    2    0    0 -0.19695190716E+03  0.10869854337E+04  0.45272585707E+03  0.11938542995E+04  0.00000000000E+00 0. -1.
         15    1    4    4    0    0  0.15245393190E+03 -0.79804379618E+02  0.23562649049E+03  0.29177180017E+03  0.00000000000E+00 0. -1.
        -16    1    4    4    0    0  0.48843098757E+03  0.91169782437E+02  0.54313101127E+03  0.73611687540E+03  0.00000000000E+00 0.  1.
         16    1    3    3    0    0 -0.12512898417E+03 -0.15242930790E+03  0.20735998885E+03  0.28616450087E+03  0.00000000000E+00 0. -1.
    9900018    1    4    4    0    0  0.12153398783E+03 -0.44346367611E+03 -0.17284707075E+02  0.46908899126E+03  0.91187600000E+02 0.  0.
<mgrwt>
<rscale>  0 0.20993538E+04</rscale>
<asrwt>0</asrwt>
<pdfrwt beam="1">  1        1 0.42847439E+00 0.31048291E+04</pdfrwt>
<pdfrwt beam="2">  1       -1 0.20670969E+00 0.31048291E+04</pdfrwt>
<totfact> 0.95214067E-02</totfact>
</mgrwt>
</event>
