<event>
11    1  0.3594090E-012  0.2143507E+04  0.7818608E-02  0.8542317E-01
          2   -1    0    0  501    0  0.00000000000E+00  0.00000000000E+00  0.16432109948E+04  0.16432109948E+04  0.00000000000E+00 0. -1.
         -2   -1    0    0    0  501 -0.00000000000E+00 -0.00000000000E+00 -0.69903122942E+03  0.69903122942E+03  0.00000000000E+00 0.  1.
    9900016    2    1    2    0    0 -0.29657569222E+03  0.32260795493E+03  0.75899010101E+03  0.11337379131E+04  0.71920973886E+03 0.  0.
         23    2    3    3    0    0 -0.20280419865E+03  0.14927712815E+03 -0.48450679038E+02  0.27215441357E+03  0.91144679204E+02 0.  0.
        -15    1    4    4    0    0 -0.20442315048E+03  0.12837426285E+03 -0.28243372825E+02  0.24303593134E+03  0.00000000000E+00 0. -1.
        -15    1    1    2    0    0  0.15215174113E+03 -0.37757532933E+03 -0.36116191835E+03  0.54419777004E+03  0.00000000000E+00 0.  1.
         15    1    4    4    0    0  0.16189518316E+01  0.20902865302E+02 -0.20207306213E+02  0.29118482228E+02  0.00000000000E+00 0.  1.
         15    1    1    2    0    0 -0.55368758278E+02  0.11801842788E+03  0.36371126215E+03  0.38636761113E+03  0.00000000000E+00 0. -1.
        -16    1    3    3    0    0 -0.10746662558E+03  0.12823867713E+03  0.29664748096E+03  0.34057886295E+03  0.00000000000E+00 0.  1.
         16    1    1    2    0    0  0.19979270937E+03 -0.63051053479E+02  0.18264032058E+03  0.27793892991E+03  0.00000000000E+00 0. -1.
    9900018    1    3    3    0    0  0.13695132011E+02  0.45092149651E+02  0.51079329909E+03  0.52100463663E+03  0.91187600000E+02 0.  0.
<mgrwt>
<rscale>  0 0.21435072E+04</rscale>
<asrwt>0</asrwt>
<pdfrwt beam="1">  1        2 0.25280169E+00 0.21435072E+04</pdfrwt>
<pdfrwt beam="2">  1       -2 0.10754327E+00 0.21435072E+04</pdfrwt>
<totfact> 0.67221920E+00</totfact>
</mgrwt>
</event>
<event>
11    1  0.3594090E-012  0.1136488E+04  0.7818608E-02  0.9775574E-01
          1   -1    0    0  501    0  0.00000000000E+00  0.00000000000E+00  0.43020535363E+03  0.43020535363E+03  0.00000000000E+00 0. -1.
         -1   -1    0    0    0  501 -0.00000000000E+00 -0.00000000000E+00 -0.12584198186E+04  0.12584198186E+04  0.00000000000E+00 0.  1.
    9900016    2    1    2    0    0 -0.16565340031E+03 -0.20509965673E+03 -0.39217022483E+03  0.86373675703E+03  0.72300538170E+03 0.  0.
         23    2    3    3    0    0  0.21221552288E+03 -0.22962150731E+02 -0.11256712056E+03  0.25873493855E+03  0.93325898217E+02 0.  0.
        -15    1    1    2    0    0 -0.80015854647E+02  0.33688062577E+02 -0.37497922829E+03  0.38489848558E+03  0.00000000000E+00 0.  1.
        -15    1    4    4    0    0  0.58308236913E+02  0.14825466965E+02  0.64977408095E+01  0.60513350579E+02  0.00000000000E+00 0.  1.
         15    1    4    4    0    0  0.15390728597E+03 -0.37787617696E+02 -0.11906486137E+03  0.19822158797E+03  0.00000000000E+00 0. -1.
         15    1    1    2    0    0  0.69110286338E+01 -0.43124613864E+02 -0.10715417952E+03  0.11571306247E+03  0.00000000000E+00 0. -1.
        -16    1    3    3    0    0 -0.35402401628E+03 -0.13139423632E+03 -0.91460789609E+02  0.38853896262E+03  0.00000000000E+00 0.  1.
         16    1    1    2    0    0  0.23875822632E+03  0.21453620802E+03  0.46089167666E+02  0.32427686715E+03  0.00000000000E+00 0. -1.
    9900018    1    3    3    0    0 -0.23844906910E+02 -0.50743269684E+02 -0.18814231466E+03  0.21646285585E+03  0.91187600000E+02 0.  0.
<mgrwt>
<rscale>  0 0.66690034E+03</rscale>
<asrwt>0</asrwt>
<pdfrwt beam="1">  1        1 0.66185440E-01 0.11364877E+04</pdfrwt>
<pdfrwt beam="2">  1       -1 0.19360305E+00 0.11364877E+04</pdfrwt>
<totfact> 0.90051711E+00</totfact>
</mgrwt>
</event>
<event>
11    1  0.3594090E-012  0.2663441E+04  0.7818608E-02  0.8346966E-01
         -1   -1    0    0    0  501 -0.00000000000E+00  0.00000000000E+00  0.85427276035E+03  0.85427276035E+03  0.00000000000E+00 0.  1.
          1   -1    0    0  501    0  0.00000000000E+00 -0.00000000000E+00 -0.20760101540E+04  0.20760101540E+04  0.00000000000E+00 0. -1.
    9900016    2    1    2    0    0 -0.28302019156E+03 -0.58014623118E+03 -0.43882190454E+03  0.10678329750E+04  0.72871978166E+03 0.  0.
         23    2    3    3    0    0 -0.19161485366E+03 -0.91171706413E+02 -0.20300817177E+03  0.30742370127E+03  0.90931194352E+02 0.  0.
        -15    1    4    4    0    0 -0.40889776729E+02 -0.39912242772E+02 -0.10757415414E+03  0.12180787988E+03  0.00000000000E+00 0. -1.
        -15    1    1    2    0    0  0.81210010109E+02  0.62708837671E+03 -0.26066695195E+03  0.68394601964E+03  0.00000000000E+00 0.  1.
         15    1    4    4    0    0 -0.15072507693E+03 -0.51259463640E+02 -0.95434017637E+02  0.18561582139E+03  0.00000000000E+00 0.  1.
         15    1    1    2    0    0 -0.20272182857E+03 -0.42291173638E+03 -0.39162342491E+03  0.61099867716E+03  0.00000000000E+00 0. -1.
        -16    1    1    2    0    0  0.40453201001E+03  0.37596959086E+03 -0.13062511223E+03  0.56750524255E+03  0.00000000000E+00 0.  1.
         16    1    3    3    0    0 -0.11375264373E+03 -0.15035494091E+03  0.14825510567E+03  0.23984546811E+03  0.00000000000E+00 0. -1.
    9900018    1    3    3    0    0  0.22347305832E+02 -0.33861958386E+03 -0.38406883844E+03  0.52056380561E+03  0.91187600000E+02 0.  0.
<mgrwt>
<rscale>  0 0.26634406E+04</rscale>
<asrwt>0</asrwt>
<pdfrwt beam="1">  1        1 0.31938617E+00 0.26634406E+04</pdfrwt>
<pdfrwt beam="2">  1       -1 0.13142658E+00 0.26634406E+04</pdfrwt>
<totfact> 0.11430855E+00</totfact>
</mgrwt>
</event>
<event>
11    1  0.3594090E-012  0.1372098E+04  0.7818608E-02  0.8976177E-01
          1   -1    0    0  501    0  0.00000000000E+00  0.00000000000E+00  0.69396456059E+03  0.69396456059E+03  0.00000000000E+00 0. -1.
         -1   -1    0    0    0  501 -0.00000000000E+00 -0.00000000000E+00 -0.28982478782E+04  0.28982478782E+04  0.00000000000E+00 0.  1.
    9900016    2    1    2    0    0 -0.45880462958E+03  0.22718726592E+03 -0.24513449804E+03  0.90519570105E+03  0.70510466823E+03 0.  0.
         23    2    3    3    0    0  0.71565578057E+02  0.10743667233E+03 -0.26331634545E+03  0.30747849123E+03  0.92429726056E+02 0.  0.
        -15    1    1    2    0    0 -0.44514880858E+03 -0.14114513902E+03 -0.38247143821E+03  0.60362555702E+03  0.00000000000E+00 0.  1.
        -15    1    4    4    0    0  0.55813890202E+01  0.31766567859E+02 -0.16074502998E+03  0.16394886825E+03  0.00000000000E+00 0. -1.
         15    1    1    2    0    0  0.85470719616E+03 -0.66008204297E+02 -0.47426644349E+03  0.97969900155E+03  0.00000000000E+00 0. -1.
         15    1    4    4    0    0  0.65984189037E+02  0.75670104473E+02 -0.10257131548E+03  0.14352962298E+03  0.00000000000E+00 0.  1.
        -16    1    1    2    0    0  0.49246241997E+02 -0.20033922612E+02 -0.11024109379E+04  0.11036921792E+04  0.00000000000E+00 0.  1.
         16    1    3    3    0    0 -0.40180754002E+03  0.10216928745E+03 -0.63326652874E+02  0.41940210715E+03  0.00000000000E+00 0. -1.
    9900018    1    3    3    0    0 -0.12856266762E+03  0.17581306145E+02  0.81508500291E+02  0.17831510268E+03  0.91187600000E+02 0.  0.
<mgrwt>
<rscale>  0 0.13695262E+04</rscale>
<asrwt>0</asrwt>
<pdfrwt beam="1">  1        1 0.10676378E+00 0.13720978E+04</pdfrwt>
<pdfrwt beam="2">  1       -1 0.44588428E+00 0.13720978E+04</pdfrwt>
<totfact> 0.92707180E-02</totfact>
</mgrwt>
</event>
<event>
11    1  0.3594090E-012  0.3371840E+04  0.7818608E-02  0.8144852E-01
          2   -1    0    0  501    0  0.00000000000E+00  0.00000000000E+00  0.13417520231E+04  0.13417520231E+04  0.00000000000E+00 0.  1.
         -2   -1    0    0    0  501 -0.00000000000E+00 -0.00000000000E+00 -0.21183692374E+04  0.21183692374E+04  0.00000000000E+00 0. -1.
    9900016    2    1    2    0    0 -0.15044566963E+02  0.24260316609E+02 -0.85444803365E+02  0.71620327213E+03  0.71051489121E+03 0.  0.
         23    2    3    3    0    0 -0.15402054405E+03 -0.16114869741E+03 -0.43942416926E+01  0.24175615010E+03  0.93463875844E+02 0.  0.
        -15    1    4    4    0    0 -0.11309639655E+03 -0.12159809086E+03  0.38526528408E+02  0.17047341143E+03  0.00000000000E+00 0. -1.
        -15    1    1    2    0    0 -0.96468705778E+03 -0.16868966216E+03  0.17128620644E+03  0.99419127239E+03  0.00000000000E+00 0.  1.
         15    1    4    4    0    0 -0.40924147496E+02 -0.39550606545E+02 -0.42920770100E+02  0.71282738671E+02  0.00000000000E+00 0.  1.
         15    1    1    2    0    0 -0.71872316172E+02  0.39645960612E+03 -0.41797117856E+03  0.58055641864E+03  0.00000000000E+00 0. -1.
        -16    1    3    3    0    0  0.16146616792E+03  0.21934200004E+03  0.80951046376E+02  0.28413959294E+03  0.00000000000E+00 0.  1.
         16    1    1    2    0    0  0.10516039409E+04 -0.25203026057E+03 -0.44448743890E+03  0.11691702973E+04  0.00000000000E+00 0. -1.
    9900018    1    3    3    0    0 -0.22490190836E+02 -0.33932986025E+02 -0.16200160805E+03  0.19030752909E+03  0.91187600000E+02 0.  0.
<mgrwt>
<rscale>  0 0.33718400E+04</rscale>
<asrwt>0</asrwt>
<pdfrwt beam="1">  1        2 0.20642339E+00 0.33718400E+04</pdfrwt>
<pdfrwt beam="2">  1       -2 0.32590296E+00 0.33718400E+04</pdfrwt>
<totfact> 0.28564402E-01</totfact>
</mgrwt>
</event>
<event>
11    1  0.3594090E-012  0.3635091E+04  0.7818608E-02  0.8082501E-01
         -2   -1    0    0    0  501 -0.00000000000E+00  0.00000000000E+00  0.15367182803E+04  0.15367182803E+04  0.00000000000E+00 0.  1.
          2   -1    0    0  501    0  0.00000000000E+00 -0.00000000000E+00 -0.21496928888E+04  0.21496928888E+04  0.00000000000E+00 0. -1.
    9900016    2    1    2    0    0  0.10534182698E+03  0.19069052070E+03  0.57202759480E+02  0.74940083920E+03  0.71475148611E+03 0.  0.
         23    2    3    3    0    0  0.14128934996E+03  0.33649129295E+03 -0.11599686316E+03  0.39438991002E+03  0.94334819781E+02 0.  0.
        -15    1    4    4    0    0  0.17706508459E+02  0.16246996923E+03 -0.46407752986E+02  0.16989317491E+03  0.00000000000E+00 0.  1.
        -15    1    1    2    0    0 -0.27533015881E+03 -0.32303119292E+03 -0.13052662145E+04  0.13725435289E+04  0.00000000000E+00 0.  1.
         15    1    4    4    0    0  0.12358284150E+03  0.17402132371E+03 -0.69589110171E+02  0.22449673511E+03  0.00000000000E+00 0. -1.
         15    1    1    2    0    0  0.38754030455E+03 -0.17829542762E+03 -0.32233136958E+03  0.53467210417E+03  0.00000000000E+00 0. -1.
        -16    1    1    2    0    0 -0.21755197272E+03  0.31063609985E+03  0.95742021608E+03  0.10297946968E+04  0.00000000000E+00 0.  1.
         16    1    3    3    0    0  0.74653258650E+02 -0.11228982062E+03  0.15693186294E+03  0.20690510493E+03  0.00000000000E+00 0. -1.
    9900018    1    3    3    0    0 -0.11060078163E+03 -0.33510951630E+02  0.16267759695E+02  0.14810582424E+03  0.91187600000E+02 0.  0.
<mgrwt>
<rscale>  0 0.36350914E+04</rscale>
<asrwt>0</asrwt>
<pdfrwt beam="1">  1        2 0.33072198E+00 0.36350914E+04</pdfrwt>
<pdfrwt beam="2">  1       -2 0.23641820E+00 0.36350914E+04</pdfrwt>
<totfact> 0.34922303E-01</totfact>
</mgrwt>
</event>
<event>
11    1  0.3594090E-012  0.1802942E+04  0.7818608E-02  0.8704737E-01
         -3   -1    0    0    0  501 -0.00000000000E+00  0.00000000000E+00  0.46617475270E+03  0.46617475270E+03  0.00000000000E+00 0.  1.
          3   -1    0    0  501    0  0.00000000000E+00 -0.00000000000E+00 -0.17432293764E+04  0.17432293764E+04  0.00000000000E+00 0. -1.
    9900016    2    1    2    0    0  0.40813552121E+03 -0.26652104480E+03 -0.61484105893E+03  0.10481117343E+04  0.69491050420E+03 0.  0.
         23    2    3    3    0    0  0.74608875326E+02 -0.41789314200E+03 -0.26095768328E+03  0.50760918792E+03  0.96783329096E+02 0.  0.
        -15    1    1    2    0    0 -0.55462610202E+03  0.20276258663E+03 -0.27747187103E+03  0.65246717833E+03  0.00000000000E+00 0.  1.
        -15    1    4    4    0    0  0.84156443617E+02 -0.20439026757E+03 -0.14642710785E+03  0.26513880590E+03  0.00000000000E+00 0.  1.
         15    1    4    4    0    0 -0.95475682914E+01 -0.21350287443E+03 -0.11453057543E+03  0.24247038202E+03  0.00000000000E+00 0. -1.
         15    1    1    2    0    0 -0.79210215797E+01  0.11998804555E+03 -0.39672769169E+02  0.12662465112E+03  0.00000000000E+00 0. -1.
        -16    1    3    3    0    0  0.13770122274E+03  0.99524411811E+02 -0.23061395298E+03  0.28644289238E+03  0.00000000000E+00 0.  1.
         16    1    1    2    0    0  0.15441160239E+03 -0.56229587381E+02 -0.34506892460E+03  0.38220056538E+03  0.00000000000E+00 0. -1.
    9900018    1    3    3    0    0  0.19582542315E+03  0.51847685391E+02 -0.12326942267E+03  0.25405965400E+03  0.91187600000E+02 0.  0.
<mgrwt>
<rscale>  0 0.18029415E+04</rscale>
<asrwt>0</asrwt>
<pdfrwt beam="1">  1        3 0.26818913E+00 0.18029415E+04</pdfrwt>
<pdfrwt beam="2">  1       -3 0.71719193E-01 0.18029415E+04</pdfrwt>
<totfact> 0.26626703E-01</totfact>
</mgrwt>
</event>
<event>
11    1  0.3594090E-012  0.3683203E+04  0.7818608E-02  0.8071694E-01
          2   -1    0    0  501    0  0.00000000000E+00  0.00000000000E+00  0.35185885985E+04  0.35185885985E+04  0.00000000000E+00 0. -1.
         -2   -1    0    0    0  501 -0.00000000000E+00 -0.00000000000E+00 -0.96387972425E+03  0.96387972425E+03  0.00000000000E+00 0.  1.
    9900016    2    1    2    0    0  0.15212990562E+03  0.28339336983E+03  0.10351287402E+04  0.12942569149E+04  0.70721576824E+03 0.  0.
         23    2    3    3    0    0  0.23674623211E+03 -0.49169423384E+02  0.24315167429E+03  0.35658874071E+03  0.97807886564E+02 0.  0.
        -15    1    1    2    0    0 -0.16569283315E+03  0.89210890287E-01 -0.72774328070E+02  0.18097023441E+03  0.00000000000E+00 0.  1.
        -15    1    4    4    0    0  0.34599823604E+02 -0.21211840005E+02  0.98261990903E+02  0.10631325790E+03  0.00000000000E+00 0. -1.
         15    1    4    4    0    0  0.20214640851E+03 -0.27957583380E+02  0.14488968339E+03  0.25027548281E+03  0.00000000000E+00 0.  1.
         15    1    1    2    0    0  0.96968403094E+03  0.29628587922E+03  0.15939015208E+04  0.18890723915E+04  0.00000000000E+00 0. -1.
        -16    1    1    2    0    0 -0.95612110341E+03 -0.57976845994E+03 -0.15470586959E+01  0.11181687819E+04  0.00000000000E+00 0.  1.
         16    1    3    3    0    0 -0.40822490549E+02  0.13620745517E+03  0.67085176982E+03  0.68575581926E+03  0.00000000000E+00 0. -1.
    9900018    1    3    3    0    0 -0.43793835939E+02  0.19635533804E+03  0.12112529609E+03  0.25191235497E+03  0.91187600000E+02 0.  0.
<mgrwt>
<rscale>  0 0.36832031E+04</rscale>
<asrwt>0</asrwt>
<pdfrwt beam="1">  1        2 0.54132132E+00 0.36832031E+04</pdfrwt>
<pdfrwt beam="2">  1       -2 0.14828919E+00 0.36832031E+04</pdfrwt>
<totfact> 0.19689878E-01</totfact>
</mgrwt>
</event>
<event>
11    1  0.3594090E-012  0.3231783E+04  0.7818608E-02  0.8180473E-01
          2   -1    0    0  501    0  0.00000000000E+00  0.00000000000E+00  0.25339489960E+04  0.25339489960E+04  0.00000000000E+00 0.  1.
         -2   -1    0    0    0  501 -0.00000000000E+00 -0.00000000000E+00 -0.10304492070E+04  0.10304492070E+04  0.00000000000E+00 0. -1.
    9900016    2    1    2    0    0  0.18633988335E+03 -0.24058278968E+03  0.26741644629E+03  0.81751973751E+03  0.71008755421E+03 0.  0.
         23    2    3    3    0    0  0.71040305286E+02  0.17012913368E+03 -0.68725663075E+02  0.21694618574E+03  0.91388093521E+02 0.  0.
        -15    1    1    2    0    0  0.72292967485E+03  0.32359754325E+03  0.38046084453E+03  0.87868830594E+03  0.00000000000E+00 0.  1.
        -15    1    4    4    0    0  0.34900619508E+02  0.14229555295E+03 -0.16243339184E+02  0.14741073128E+03  0.00000000000E+00 0.  1.
         15    1    1    2    0    0 -0.20644814693E+03 -0.68194490520E+03  0.53389128114E+03  0.89034240109E+03  0.00000000000E+00 0. -1.
         15    1    4    4    0    0  0.36139685778E+02  0.27833580738E+02 -0.52482323891E+02  0.69535454452E+02  0.00000000000E+00 0. -1.
        -16    1    3    3    0    0  0.16015825773E+03 -0.24465298309E+03  0.13995139782E+03  0.32417918411E+03  0.00000000000E+00 0.  1.
         16    1    1    2    0    0 -0.70282141127E+03  0.59893015163E+03  0.32173121703E+03  0.97784775844E+03  0.00000000000E+00 0. -1.
    9900018    1    3    3    0    0 -0.44858679665E+02 -0.16605894028E+03  0.19619071154E+03  0.27639436766E+03  0.91187600000E+02 0.  0.
<mgrwt>
<rscale>  0 0.32317832E+04</rscale>
<asrwt>0</asrwt>
<pdfrwt beam="1">  1        2 0.38983830E+00 0.32317832E+04</pdfrwt>
<pdfrwt beam="2">  1       -2 0.15853065E+00 0.32317832E+04</pdfrwt>
<totfact> 0.72146138E-01</totfact>
</mgrwt>
</event>
<event>
11    1  0.3594090E-012  0.2727778E+04  0.7818608E-02  0.8326048E-01
          2   -1    0    0  501    0  0.00000000000E+00  0.00000000000E+00  0.29669304046E+04  0.29669304046E+04  0.00000000000E+00 0. -1.
         -2   -1    0    0    0  501 -0.00000000000E+00 -0.00000000000E+00 -0.62697549716E+03  0.62697549716E+03  0.00000000000E+00 0.  1.
    9900016    2    1    2    0    0 -0.15403004536E+03 -0.66449246945E+02  0.50916452558E+03  0.89555454200E+03  0.71737623762E+03 0.  0.
         23    2    3    3    0    0  0.90755367520E+02 -0.10579306302E+03  0.25901776968E+03  0.30829662184E+03  0.92346592309E+02 0.  0.
        -15    1    4    4    0    0  0.27484804252E+02  0.12305039576E+02  0.73744868244E+02  0.79656349754E+02  0.00000000000E+00 0.  1.
        -15    1    1    2    0    0 -0.23449252003E+03 -0.14754251051E+03 -0.29321444028E+03  0.40339836682E+03  0.00000000000E+00 0.  1.
         15    1    4    4    0    0  0.63270563268E+02 -0.11809810260E+03  0.18527290144E+03  0.22864027209E+03  0.00000000000E+00 0. -1.
         15    1    1    2    0    0 -0.87515222273E+02  0.16431217468E+03  0.92596965760E+02  0.20792210788E+03  0.00000000000E+00 0. -1.
        -16    1    3    3    0    0 -0.15732431029E+03 -0.14046487799E+03 -0.48555026957E+02  0.21642299138E+03  0.00000000000E+00 0.  1.
         16    1    1    2    0    0  0.47603778767E+03  0.49679582781E+02  0.20314078564E+04  0.20870308851E+04  0.00000000000E+00 0. -1.
    9900018    1    3    3    0    0 -0.87461102585E+02  0.17980869406E+03  0.29870178285E+03  0.37083492877E+03  0.91187600000E+02 0.  0.
<mgrwt>
<rscale>  0 0.27277776E+04</rscale>
<asrwt>0</asrwt>
<pdfrwt beam="1">  1        2 0.45645082E+00 0.27277776E+04</pdfrwt>
<pdfrwt beam="2">  1       -2 0.96457770E-01 0.27277776E+04</pdfrwt>
<totfact> 0.14370039E+00</totfact>
</mgrwt>
</event>
<event>
11    1  0.3594090E-012  0.1963318E+04  0.7818608E-02  0.8623965E-01
          2   -1    0    0  501    0  0.00000000000E+00  0.00000000000E+00  0.27331142351E+04  0.27331142351E+04  0.00000000000E+00 0.  1.
         -2   -1    0    0    0  501 -0.00000000000E+00 -0.00000000000E+00 -0.35258470658E+03  0.35258470658E+03  0.00000000000E+00 0. -1.
    9900016    2    1    2    0    0 -0.57851379952E+03 -0.92219343972E+02  0.17617860211E+04  0.19791623714E+04  0.68557354451E+03 0.  0.
         23    2    3    3    0    0  0.54995131459E+02 -0.15363976436E+03  0.25938366159E+03  0.31922383938E+03  0.89411039884E+02 0.  0.
        -15    1    1    2    0    0 -0.68822391451E+02  0.12060172767E+02  0.58303356828E+02  0.91001377735E+02  0.00000000000E+00 0. -1.
        -15    1    4    4    0    0  0.26255707752E+01 -0.80223032102E+02  0.59423704333E+02  0.99868939807E+02  0.00000000000E+00 0.  1.
         15    1    1    2    0    0  0.40695494511E+01  0.14822844387E+03 -0.15942699623E+02  0.14913886977E+03  0.00000000000E+00 0.  1.
         15    1    4    4    0    0  0.52369560684E+02 -0.73416732260E+02  0.19995995725E+03  0.21935489957E+03  0.00000000000E+00 0. -1.
        -16    1    3    3    0    0 -0.37715411771E+03  0.14415274855E+03  0.69319385251E+03  0.80221129423E+03  0.00000000000E+00 0.  1.
         16    1    1    2    0    0  0.64326664152E+03 -0.68069272662E+02  0.57638285024E+03  0.86639632272E+03  0.00000000000E+00 0. -1.
    9900018    1    3    3    0    0 -0.25635481327E+03 -0.82732328164E+02  0.80920850696E+03  0.85772723784E+03  0.91187600000E+02 0.  0.
<mgrwt>
<rscale>  0 0.19633179E+04</rscale>
<asrwt>0</asrwt>
<pdfrwt beam="1">  1        2 0.42047910E+00 0.19633179E+04</pdfrwt>
<pdfrwt beam="2">  1       -2 0.54243803E-01 0.19633179E+04</pdfrwt>
<totfact> 0.75755689E+00</totfact>
</mgrwt>
</event>
<event>
11    1  0.3594090E-012  0.2132973E+04  0.7818608E-02  0.8546856E-01
         -2   -1    0    0    0  501 -0.00000000000E+00  0.00000000000E+00  0.19329927648E+04  0.19329927648E+04  0.00000000000E+00 0.  1.
          2   -1    0    0  501    0  0.00000000000E+00 -0.00000000000E+00 -0.58841086318E+03  0.58841086318E+03  0.00000000000E+00 0. -1.
    9900016    2    1    2    0    0  0.47748831876E+03 -0.33656841299E+03  0.92332091892E+03  0.12954950564E+04  0.69606934322E+03 0.  0.
         23    2    3    3    0    0 -0.97506883392E+02 -0.14723454674E+03  0.60215740931E+02  0.20768726764E+03  0.91227526658E+02 0.  0.
        -15    1    4    4    0    0 -0.73012729966E+02 -0.43933273915E+02 -0.84314483689E+00  0.85215621733E+02  0.00000000000E+00 0. -1.
        -15    1    1    2    0    0  0.14243454747E+03  0.23996848513E+03  0.37275228962E+03  0.46563584869E+03  0.00000000000E+00 0.  1.
         15    1    4    4    0    0 -0.24494153425E+02 -0.10330127283E+03  0.61058885768E+02  0.12247164591E+03  0.00000000000E+00 0.  1.
         15    1    1    2    0    0 -0.50560174071E+02  0.13404684972E+03 -0.95011322641E+02  0.17190706952E+03  0.00000000000E+00 0. -1.
        -16    1    3    3    0    0  0.45117404425E+03 -0.21809140467E+03  0.70894681144E+03  0.86817478681E+03  0.00000000000E+00 0.  1.
         16    1    1    2    0    0 -0.56936269216E+03 -0.37446921861E+02  0.14352001572E+03  0.58836565339E+03  0.00000000000E+00 0. -1.
    9900018    1    3    3    0    0  0.12382115790E+03  0.28757538423E+02  0.15415836655E+03  0.21963300192E+03  0.91187600000E+02 0.  0.
<mgrwt>
<rscale>  0 0.21329735E+04</rscale>
<asrwt>0</asrwt>
<pdfrwt beam="1">  1        2 0.90524749E-01 0.21329735E+04</pdfrwt>
<pdfrwt beam="2">  1       -2 0.29738350E+00 0.21329735E+04</pdfrwt>
<totfact> 0.15400641E+00</totfact>
</mgrwt>
</event>
<event>
11    1  0.3594090E-012  0.1473913E+04  0.7818608E-02  0.9152729E-01
         -1   -1    0    0    0  501 -0.00000000000E+00  0.00000000000E+00  0.76262363018E+03  0.76262363018E+03  0.00000000000E+00 0.  1.
          1   -1    0    0  501    0  0.00000000000E+00 -0.00000000000E+00 -0.13700589386E+04  0.13700589386E+04  0.00000000000E+00 0. -1.
    9900016    2    1    2    0    0 -0.20486093132E+03 -0.78106979475E+02 -0.66072120574E+02  0.74755034535E+03  0.71161597248E+03 0.  0.
         23    2    3    3    0    0  0.21690479131E+03 -0.13516842660E+03  0.63242645668E+02  0.27820394874E+03  0.89886666556E+02 0.  0.
        -15    1    1    2    0    0 -0.12495355951E+03 -0.10473559370E+02 -0.20079910843E+03  0.23673480823E+03  0.00000000000E+00 0.  1.
        -15    1    4    4    0    0  0.14959896279E+03 -0.43186164245E+02  0.49580026287E+02  0.16341075074E+03  0.00000000000E+00 0. -1.
         15    1    4    4    0    0  0.67305828517E+02 -0.91982262355E+02  0.13662619381E+02  0.11479319801E+03  0.00000000000E+00 0.  1.
         15    1    1    2    0    0 -0.33864162084E+03 -0.16765199584E+03 -0.77671691323E+02  0.38576966017E+03  0.00000000000E+00 0. -1.
        -16    1    1    2    0    0  0.66845611167E+03  0.25623253468E+03 -0.26289238811E+03  0.76262775506E+03  0.00000000000E+00 0.  1.
         16    1    3    3    0    0 -0.23200821083E+03  0.51270095931E+02 -0.95310425957E+02  0.25600880830E+03  0.00000000000E+00 0. -1.
    9900018    1    3    3    0    0 -0.18975751180E+03  0.57913511932E+01 -0.34004340285E+02  0.21333758831E+03  0.91187600000E+02 0.  0.
<mgrwt>
<rscale>  0 0.11554953E+04</rscale>
<asrwt>0</asrwt>
<pdfrwt beam="1">  1        1 0.21077830E+00 0.14739132E+04</pdfrwt>
<pdfrwt beam="2">  1       -1 0.11732671E+00 0.14739132E+04</pdfrwt>
<totfact> 0.50620066E+00</totfact>
</mgrwt>
</event>
<event>
11    1  0.3594090E-012  0.1858115E+04  0.7818608E-02  0.8929540E-01
          2   -1    0    0  501    0  0.00000000000E+00  0.00000000000E+00  0.25061913100E+04  0.25061913100E+04  0.00000000000E+00 0. -1.
         -2   -1    0    0    0  501 -0.00000000000E+00 -0.00000000000E+00 -0.73567533834E+03  0.73567533834E+03  0.00000000000E+00 0.  1.
    9900016    2    1    2    0    0  0.59621885993E+02  0.48886008329E+03  0.71203160558E+03  0.11232292029E+04  0.71562272503E+03 0.  0.
         23    2    3    3    0    0  0.35580982901E+03  0.37722408097E+03  0.42074711693E+03  0.67393117087E+03  0.90864982206E+02 0.  0.
        -15    1    1    2    0    0  0.36510302440E+03 -0.92895313111E+02  0.61485201251E+03  0.72109136377E+03  0.00000000000E+00 0.  1.
        -15    1    4    4    0    0  0.24340353616E+03  0.31054972680E+03  0.29597892943E+03  0.49324430143E+03  0.00000000000E+00 0. -1.
         15    1    4    4    0    0  0.11240629286E+03  0.66674354163E+02  0.12476818750E+03  0.18068686944E+03  0.00000000000E+00 0.  1.
         15    1    1    2    0    0  0.21449874778E+03  0.18378748373E+03  0.45378273257E+03  0.53451503286E+03  0.00000000000E+00 0. -1.
        -16    1    1    2    0    0 -0.63922365817E+03 -0.57975225391E+03 -0.10150378970E+02  0.86303104884E+03  0.00000000000E+00 0.  1.
         16    1    3    3    0    0 -0.15413402401E+03  0.61584277746E+02  0.13809263364E+03  0.21591548367E+03  0.00000000000E+00 0. -1.
    9900018    1    3    3    0    0 -0.14205391901E+03  0.50051724573E+02  0.15319185502E+03  0.23338254836E+03  0.91187600000E+02 0.  0.
<mgrwt>
<rscale>  0 0.14340412E+04</rscale>
<asrwt>0</asrwt>
<pdfrwt beam="1">  1        2 0.38556789E+00 0.18581153E+04</pdfrwt>
<pdfrwt beam="2">  1       -2 0.11318082E+00 0.18581153E+04</pdfrwt>
<totfact> 0.19533711E+00</totfact>
</mgrwt>
</event>
<event>
11    1  0.3594090E-012  0.1249623E+04  0.7818608E-02  0.9451932E-01
          1   -1    0    0  501    0  0.00000000000E+00  0.00000000000E+00  0.16121571308E+04  0.16121571308E+04  0.00000000000E+00 0. -1.
         -1   -1    0    0    0  501 -0.00000000000E+00 -0.00000000000E+00 -0.38296734847E+03  0.38296734847E+03  0.00000000000E+00 0.  1.
    9900016    2    1    2    0    0  0.18786970940E+03 -0.14838383243E+03  0.32953660219E+03  0.83544460379E+03  0.72942479008E+03 0.  0.
         23    2    3    3    0    0 -0.22453384236E+03  0.89169639765E+02  0.91017907409E+02  0.27539768820E+03  0.95879904960E+02 0.  0.
        -15    1    4    4    0    0 -0.14723656988E+03  0.77255155480E+02  0.10399663178E+03  0.19611798995E+03  0.00000000000E+00 0.  1.
        -15    1    1    2    0    0  0.21212006517E+03  0.55365262713E+01  0.24622604738E+03  0.32504283038E+03  0.00000000000E+00 0.  1.
         15    1    1    2    0    0  0.22151678857E+02  0.91338735978E+02  0.11536797860E+03  0.14880602156E+03  0.00000000000E+00 0. -1.
         15    1    4    4    0    0 -0.77297272480E+02  0.11914484285E+02 -0.12978724374E+02  0.79279698252E+02  0.00000000000E+00 0. -1.
        -16    1    3    3    0    0  0.18488464884E+03 -0.11592032660E+03  0.17352337619E+03  0.27880139451E+03  0.00000000000E+00 0.  1.
         16    1    1    2    0    0 -0.42214145343E+03  0.51508570176E+02  0.53805915421E+03  0.68583102360E+03  0.00000000000E+00 0. -1.
    9900018    1    3    3    0    0  0.22751890292E+03 -0.12163314559E+03  0.64995318585E+02  0.28124552108E+03  0.91187600000E+02 0.  0.
<mgrwt>
<rscale>  0 0.87922378E+03</rscale>
<asrwt>0</asrwt>
<pdfrwt beam="1">  1        1 0.24802417E+00 0.12496228E+04</pdfrwt>
<pdfrwt beam="2">  1       -1 0.58918055E-01 0.12496228E+04</pdfrwt>
<totfact> 0.15729589E+01</totfact>
</mgrwt>
</event>
<event>
11    1  0.3594090E-012  0.4728649E+04  0.7818608E-02  0.7871786E-01
         -2   -1    0    0    0  501 -0.00000000000E+00  0.00000000000E+00  0.41635257885E+04  0.41635257885E+04  0.00000000000E+00 0. -1.
          2   -1    0    0  501    0  0.00000000000E+00 -0.00000000000E+00 -0.13426192061E+04  0.13426192061E+04  0.00000000000E+00 0.  1.
    9900016    2    1    2    0    0 -0.13891696323E+03 -0.24702764161E+03  0.29568367005E+03  0.82425219297E+03  0.71529173523E+03 0.  0.
         23    2    3    3    0    0 -0.76523307149E+02 -0.12295318679E+03 -0.20679588246E+03  0.26767767879E+03  0.88957855447E+02 0.  0.
        -15    1    1    2    0    0 -0.12180998805E+04 -0.32611212665E+03  0.99923974157E+03  0.16089115884E+04  0.00000000000E+00 0.  1.
        -15    1    4    4    0    0  0.81907637310E+01 -0.11454764750E+02 -0.71816083249E+02  0.73183673447E+02  0.00000000000E+00 0. -1.
         15    1    1    2    0    0 -0.47596615989E+03 -0.22744381016E+03 -0.45248284983E+02  0.52945432233E+03  0.00000000000E+00 0. -1.
         15    1    4    4    0    0 -0.84714070880E+02 -0.11149842204E+03 -0.13497979921E+03  0.19449400535E+03  0.00000000000E+00 0.  1.
        -16    1    3    3    0    0 -0.43068376550E+02  0.30439928879E+02  0.67582749079E+02  0.85725738853E+02  0.00000000000E+00 0.  1.
         16    1    1    2    0    0  0.18329830036E+04  0.80058357841E+03  0.15712314558E+04  0.25435268910E+04  0.00000000000E+00 0. -1.
    9900018    1    3    3    0    0 -0.19325279526E+02 -0.15451438370E+03  0.43489680342E+03  0.47084877532E+03  0.91187600000E+02 0.  0.
<mgrwt>
<rscale>  0 0.47286487E+04</rscale>
<asrwt>0</asrwt>
<pdfrwt beam="1">  1        2 0.20655680E+00 0.47286487E+04</pdfrwt>
<pdfrwt beam="2">  1       -2 0.64054242E+00 0.47286487E+04</pdfrwt>
<totfact> 0.42304491E-03</totfact>
</mgrwt>
</event>
<event>
11    1  0.3594090E-012  0.2415428E+04  0.7818608E-02  0.8433750E-01
         -2   -1    0    0    0  501 -0.00000000000E+00  0.00000000000E+00  0.68184230764E+03  0.68184230764E+03  0.00000000000E+00 0. -1.
          2   -1    0    0  501    0  0.00000000000E+00 -0.00000000000E+00 -0.21391642803E+04  0.21391642803E+04  0.00000000000E+00 0.  1.
    9900016    2    1    2    0    0 -0.14039371628E+03  0.35696552820E+03 -0.60491930427E+03  0.10090742345E+04  0.71075218053E+03 0.  0.
         23    2    3    3    0    0  0.47309960879E+02 -0.10329973103E+03 -0.43802860359E+02  0.15230098498E+03  0.91475858122E+02 0.  0.
        -15    1    4    4    0    0 -0.73207323649E+01 -0.88379400067E+02 -0.20236099264E+02  0.90961591850E+02  0.00000000000E+00 0.  1.
        -15    1    1    2    0    0  0.21358254135E+03  0.12335921554E+02 -0.10090578363E+04  0.10314879514E+04  0.00000000000E+00 0.  1.
         15    1    4    4    0    0  0.54630693244E+02 -0.14920330966E+02 -0.23566761095E+02  0.61339393125E+02  0.00000000000E+00 0. -1.
         15    1    1    2    0    0 -0.18041055737E+03 -0.55189308320E+02 -0.21240150844E+03  0.28409193890E+03  0.00000000000E+00 0. -1.
        -16    1    3    3    0    0 -0.26662973125E+03  0.26658749545E+03 -0.19270153921E+03  0.42343144609E+03  0.00000000000E+00 0.  1.
         16    1    1    2    0    0  0.10722173230E+03 -0.31411214144E+03  0.36905667636E+03  0.49635246312E+03  0.00000000000E+00 0. -1.
    9900018    1    3    3    0    0  0.78926054088E+02  0.19367776378E+03 -0.36841490470E+03  0.43334180342E+03  0.91187600000E+02 0.  0.
<mgrwt>
<rscale>  0 0.24154277E+04</rscale>
<asrwt>0</asrwt>
<pdfrwt beam="1">  1        2 0.32910219E+00 0.24154277E+04</pdfrwt>
<pdfrwt beam="2">  1       -2 0.10489882E+00 0.24154277E+04</pdfrwt>
<totfact> 0.36962775E+00</totfact>
</mgrwt>
</event>
<event>
11    1  0.3594090E-012  0.3977872E+04  0.7818608E-02  0.8009025E-01
         -1   -1    0    0    0  501 -0.00000000000E+00  0.00000000000E+00  0.22569681855E+04  0.22569681855E+04  0.00000000000E+00 0.  1.
          1   -1    0    0  501    0  0.00000000000E+00 -0.00000000000E+00 -0.17527346915E+04  0.17527346915E+04  0.00000000000E+00 0. -1.
    9900016    2    1    2    0    0  0.67161634666E+03  0.64007518695E+03  0.76383844079E+03  0.14013365631E+04  0.72078445974E+03 0.  0.
         23    2    3    3    0    0  0.23286316380E+03 -0.99512015759E+01 -0.44861608883E+02  0.25374938091E+03  0.89732407148E+02 0.  0.
        -15    1    4    4    0    0  0.15390844797E+02 -0.11319355202E+02 -0.30255667457E+02  0.35782835536E+02  0.00000000000E+00 0. -1.
        -15    1    1    2    0    0  0.25004284773E+02 -0.82699142425E+03 -0.36985959009E+03  0.90627597696E+03  0.00000000000E+00 0.  1.
         15    1    4    4    0    0  0.21747231901E+03  0.13681536258E+01 -0.14605941426E+02  0.21796654538E+03  0.00000000000E+00 0.  1.
         15    1    1    2    0    0  0.32528529880E+03  0.34054900663E+02  0.50023837866E+03  0.59766938801E+03  0.00000000000E+00 0. -1.
        -16    1    3    3    0    0  0.32151261253E+03  0.53637502176E+03  0.65409046395E+03  0.90493251627E+03  0.00000000000E+00 0.  1.
         16    1    1    2    0    0 -0.10219059302E+04  0.15286133664E+03 -0.38998373539E+03  0.11044209489E+04  0.00000000000E+00 0. -1.
    9900018    1    3    3    0    0  0.11724057033E+03  0.11365136677E+03  0.15460958572E+03  0.24265466591E+03  0.91187600000E+02 0.  0.
<mgrwt>
<rscale>  0 0.39778720E+04</rscale>
<asrwt>0</asrwt>
<pdfrwt beam="1">  1        1 0.26965149E+00 0.39778720E+04</pdfrwt>
<pdfrwt beam="2">  1       -1 0.34722588E+00 0.39778720E+04</pdfrwt>
<totfact> 0.55739434E-02</totfact>
</mgrwt>
</event>
<event>
11    1  0.3606113E-012  0.4777614E+04  0.7818608E-02  0.7863759E-01
          2   -1    0    0  501    0  0.00000000000E+00  0.00000000000E+00  0.23724397349E+04  0.23724397349E+04  0.00000000000E+00 0. -1.
         -2   -1    0    0    0  501 -0.00000000000E+00 -0.00000000000E+00 -0.24052869906E+04  0.24052869906E+04  0.00000000000E+00 0.  1.
    9900016    2    1    2    0    0 -0.45465446349E+03  0.15920616492E+03  0.16561488967E+03  0.87275822883E+03  0.70867577226E+03 0.  0.
         23    2    3    3    0    0 -0.11474064563E+03  0.28260616764E+03  0.73787722517E+02  0.32629185109E+03  0.89387260535E+02 0.  0.
        -15    1    1    2    0    0 -0.11083875519E+03 -0.68196802567E+03  0.44056868356E+03  0.81943052336E+03  0.00000000000E+00 0.  1.
        -15    1    4    4    0    0 -0.10049600780E+02  0.35549812426E+02 -0.20050938130E+02  0.42033602739E+02  0.00000000000E+00 0. -1.
         15    1    1    2    0    0 -0.11117848237E+04  0.70432242934E+03 -0.43519403093E+03  0.13861924193E+04  0.00000000000E+00 0. -1.
         15    1    4    4    0    0 -0.10469104485E+03  0.24705635521E+03  0.93838660647E+02  0.28425824835E+03  0.00000000000E+00 0.  1.
        -16    1    1    2    0    0  0.16772780424E+04 -0.18156056860E+03 -0.20383679804E+03  0.16993455540E+04  0.00000000000E+00 0.  1.
         16    1    3    3    0    0 -0.22239239743E+03  0.69846793287E+02 -0.81872687420E+02  0.24706292703E+03  0.00000000000E+00 0. -1.
    9900018    1    3    3    0    0 -0.11752142043E+03 -0.19324679600E+03  0.17369985457E+03  0.29940345071E+03  0.91187600000E+02 0.  0.
<mgrwt>
<rscale>  0 0.47776138E+04</rscale>
<asrwt>0</asrwt>
<pdfrwt beam="1">  1        2 0.36499073E+00 0.47776138E+04</pdfrwt>
<pdfrwt beam="2">  1       -2 0.37004415E+00 0.47776138E+04</pdfrwt>
<totfact> 0.35448069E-02</totfact>
</mgrwt>
</event>
<event>
11    1  0.3594090E-012  0.2723911E+04  0.7818608E-02  0.8327288E-01
          2   -1    0    0  501    0  0.00000000000E+00  0.00000000000E+00  0.46562476031E+04  0.46562476031E+04  0.00000000000E+00 0. -1.
         -2   -1    0    0    0  501 -0.00000000000E+00 -0.00000000000E+00 -0.39837282166E+03  0.39837282166E+03  0.00000000000E+00 0.  1.
    9900016    2    1    2    0    0 -0.37892390992E+03 -0.48994848990E+02  0.83232397580E+03  0.11640840598E+04  0.71857127198E+03 0.  0.
         23    2    3    3    0    0 -0.24891543638E+03  0.14899683760E+03  0.81701322976E+02  0.31491546786E+03  0.91310972181E+02 0.  0.
        -15    1    1    2    0    0  0.55888954827E+03 -0.16764687048E+03  0.53534463152E+03  0.79186922838E+03  0.00000000000E+00 0.  1.
        -15    1    4    4    0    0 -0.55609519494E+02  0.19847214363E+02  0.55376817855E+02  0.80950123731E+02  0.00000000000E+00 0. -1.
         15    1    1    2    0    0 -0.23502040291E+03 -0.37462064051E+03  0.18380698018E+04  0.18905226289E+04  0.00000000000E+00 0. -1.
         15    1    4    4    0    0 -0.19330591688E+03  0.12914962323E+03  0.26324505121E+02  0.23396534413E+03  0.00000000000E+00 0.  1.
        -16    1    3    3    0    0  0.97417120460E+02 -0.57331263025E+02  0.18246257283E+03  0.21463820621E+03  0.00000000000E+00 0.  1.
         16    1    1    2    0    0  0.55054764549E+02  0.59126235999E+03  0.10521363723E+04  0.12081445077E+04  0.00000000000E+00 0. -1.
    9900018    1    3    3    0    0 -0.22742559400E+03 -0.14066042356E+03  0.56816007999E+03  0.63453038576E+03  0.91187600000E+02 0.  0.
<mgrwt>
<rscale>  0 0.27239108E+04</rscale>
<asrwt>0</asrwt>
<pdfrwt beam="1">  1        2 0.71634575E+00 0.27239108E+04</pdfrwt>
<pdfrwt beam="2">  1       -2 0.61288130E-01 0.27239108E+04</pdfrwt>
<totfact> 0.18572527E-01</totfact>
</mgrwt>
</event>
<event>
11    1  0.3594090E-012  0.3738440E+04  0.7818608E-02  0.8059496E-01
         -2   -1    0    0    0  501 -0.00000000000E+00  0.00000000000E+00  0.20023224879E+04  0.20023224879E+04  0.00000000000E+00 0. -1.
          2   -1    0    0  501    0  0.00000000000E+00 -0.00000000000E+00 -0.17449651974E+04  0.17449651974E+04  0.00000000000E+00 0.  1.
    9900016    2    1    2    0    0  0.43539539852E+03  0.16900049424E+03  0.17520918901E+03  0.86487486962E+03  0.70652668745E+03 0.  0.
         23    2    3    3    0    0  0.21261394851E+03  0.91715908012E+02 -0.13229605569E+03  0.28183874817E+03  0.91182973933E+02 0.  0.
        -15    1    4    4    0    0  0.37478174871E+02  0.57080712371E+02 -0.20916832429E+02  0.71416631083E+02  0.00000000000E+00 0. -1.
        -15    1    1    2    0    0 -0.24154641013E+03 -0.49779372614E+03  0.90544476590E+03  0.10611189783E+04  0.00000000000E+00 0.  1.
         15    1    1    2    0    0  0.58942070603E+03  0.15167996879E+03  0.78617137552E+02  0.61368089097E+03  0.00000000000E+00 0. -1.
         15    1    4    4    0    0  0.17513577363E+03  0.34635195642E+02 -0.11137922326E+03  0.21042211708E+03  0.00000000000E+00 0.  1.
        -16    1    1    2    0    0 -0.78326969441E+03  0.17711326311E+03 -0.90191380193E+03  0.12076129464E+04  0.00000000000E+00 0.  1.
         16    1    3    3    0    0  0.85805488401E+02 -0.17410791297E+03  0.10474693178E+03  0.22056306789E+03  0.00000000000E+00 0. -1.
    9900018    1    3    3    0    0  0.13697596161E+03  0.25139249920E+03  0.20275831292E+03  0.36247305357E+03  0.91187600000E+02 0.  0.
<mgrwt>
<rscale>  0 0.37384398E+04</rscale>
<asrwt>0</asrwt>
<pdfrwt beam="1">  1        2 0.26845618E+00 0.37384398E+04</pdfrwt>
<pdfrwt beam="2">  1       -2 0.30804961E+00 0.37384398E+04</pdfrwt>
<totfact> 0.21162642E-01</totfact>
</mgrwt>
</event>
<event>
11    1  0.3594090E-012  0.3236378E+04  0.7818608E-02  0.8179275E-01
          1   -1    0    0  501    0  0.00000000000E+00  0.00000000000E+00  0.84473680152E+03  0.84473680152E+03  0.00000000000E+00 0. -1.
         -1   -1    0    0    0  501 -0.00000000000E+00 -0.00000000000E+00 -0.30998245513E+04  0.30998245513E+04  0.00000000000E+00 0.  1.
    9900016    2    1    2    0    0  0.36588166753E+03 -0.34344251220E+03 -0.90773231324E+03  0.12678013857E+04  0.72905435129E+03 0.  0.
         23    2    3    3    0    0  0.40583073672E+03 -0.96573370242E+02 -0.47912037839E+03  0.64217749049E+03  0.93864740940E+02 0.  0.
        -15    1    4    4    0    0  0.81358096668E+02 -0.53741477868E+02 -0.80728800887E+02  0.12658762036E+03  0.00000000000E+00 0. -1.
        -15    1    1    2    0    0  0.73837405225E+03 -0.32807431092E+03 -0.21856703794E+03  0.83701884363E+03  0.00000000000E+00 0.  1.
         15    1    1    2    0    0 -0.30046728211E+03 -0.65298692864E+02 -0.60774143570E+02  0.31342942337E+03  0.00000000000E+00 0. -1.
         15    1    4    4    0    0  0.32447264005E+03 -0.42831892374E+02 -0.39839157751E+03  0.51558987012E+03  0.00000000000E+00 0.  1.
        -16    1    3    3    0    0 -0.71635986504E+02 -0.22919174800E+03 -0.64670630298E+02  0.24868225175E+03  0.00000000000E+00 0.  1.
         16    1    1    2    0    0 -0.80378843767E+03  0.73681551598E+03 -0.10680142550E+04  0.15263117002E+04  0.00000000000E+00 0. -1.
    9900018    1    3    3    0    0  0.31686917310E+02 -0.17677393959E+02 -0.36394130455E+03  0.37694164341E+03  0.91187600000E+02 0.  0.
<mgrwt>
<rscale>  0 0.32363781E+04</rscale>
<asrwt>0</asrwt>
<pdfrwt beam="1">  1        1 0.12995951E+00 0.32363781E+04</pdfrwt>
<pdfrwt beam="2">  1       -1 0.47689609E+00 0.32363781E+04</pdfrwt>
<totfact> 0.35712366E-02</totfact>
</mgrwt>
</event>
