<event>
13    1  0.1192747E-009  0.5377255E+04  0.7818608E-02  0.7772808E-01
          2   -1    0    0  501    0  0.00000000000E+00  0.00000000000E+00  0.34748481931E+04  0.34748481931E+04  0.00000000000E+00 0. -1.
         -2   -1    0    0    0  501 -0.00000000000E+00 -0.00000000000E+00 -0.20802977256E+04  0.20802977256E+04  0.00000000000E+00 0.  1.
    9900016    2    1    2    0    0  0.11383938973E+04  0.10176579706E+04  0.10487110333E+04  0.28723887744E+04  0.21952799433E+04 0.  0.
         24    2    3    3    0    0 -0.16577691189E+03 -0.53449255563E+03 -0.52105023754E+02  0.56547985831E+03  0.62355914848E+02 0.  0.
    9900016    2    1    2    0    0 -0.11383938973E+04 -0.10176579706E+04  0.34583943420E+03  0.26827571442E+04  0.21785345005E+04 0.  0.
         23    2    5    5    0    0  0.52718544533E+03  0.40862379304E+02  0.97555532955E+02  0.54879382192E+03  0.10983327892E+03 0.  0.
        -15    1    6    6    0    0  0.44958669264E+03  0.55878880882E+01  0.10938774295E+03  0.46273653087E+03  0.00000000000E+00 0. -1.
        -15    1    4    4    0    0 -0.52240498687E+02 -0.22247387931E+03  0.49575902194E+01  0.22857881437E+03  0.00000000000E+00 0.  1.
         15    1    3    3    0    0  0.13041708092E+04  0.15521505262E+04  0.11008160571E+04  0.23069089161E+04  0.00000000000E+00 0. -1.
         15    1    6    6    0    0  0.77598752696E+02  0.35274491216E+02 -0.11832210000E+02  0.86057291057E+02  0.00000000000E+00 0.  1.
        -16    1    5    5    0    0 -0.16611940508E+04 -0.96456974980E+03  0.82539228781E+02  0.19226994568E+04  0.00000000000E+00 0.  1.
         16    1    4    4    0    0 -0.11353641320E+03 -0.31201867632E+03 -0.57062613974E+02  0.33690104394E+03  0.00000000000E+00 0. -1.
    9900018    1    5    5    0    0 -0.43852918451E+01 -0.93950600072E+02  0.16574467246E+03  0.21126386554E+03  0.91187600000E+02 0.  0.
<mgrwt>
<rscale>  0 0.53772554E+04</rscale>
<asrwt>0</asrwt>
<pdfrwt beam="1">  1        2 0.53459203E+00 0.53772554E+04</pdfrwt>
<pdfrwt beam="2">  1       -2 0.32004580E+00 0.53772554E+04</pdfrwt>
<totfact> 0.14285936E-02</totfact>
</mgrwt>
</event>
<event>
12    1  0.1192747E-009  0.5442073E+04  0.7818608E-02  0.7763711E-01
          2   -1    0    0  501    0  0.00000000000E+00  0.00000000000E+00  0.14715193501E+04  0.14715193501E+04  0.00000000000E+00 0. -1.
         -2   -1    0    0    0  501 -0.00000000000E+00 -0.00000000000E+00 -0.50315605396E+04  0.50315605396E+04  0.00000000000E+00 0.  1.
    9900016    2    1    2    0    0  0.65041800523E+03  0.69866457661E+03 -0.29779526250E+03  0.24539219745E+04  0.22409540973E+04 0.  0.
         24    2    3    3    0    0  0.56617586570E+03  0.86941515163E+03 -0.11666771858E+04  0.15644230742E+04  0.99227427876E+02 0.  0.
    9900016    2    1    2    0    0 -0.65041800523E+03 -0.69866457661E+03 -0.32622459270E+04  0.40491579152E+04  0.22005125680E+04 0.  0.
        -15    1    4    4    0    0  0.13091318594E+03  0.25580070039E+03 -0.37299122854E+03  0.47084468474E+03  0.00000000000E+00 0.  1.
        -15    1    5    5    0    0 -0.70213847926E+03  0.21782312115E+03 -0.98266877148E+03  0.12272258434E+04  0.00000000000E+00 0.  1.
         15    1    3    3    0    0  0.84242139529E+02 -0.17075057502E+03  0.86888192331E+03  0.88949890028E+03  0.00000000000E+00 0. -1.
         15    1    5    5    0    0 -0.21162825524E+03 -0.51773276136E+02 -0.11063677509E+03  0.24435115416E+03  0.00000000000E+00 0. -1.
        -16    1    5    5    0    0 -0.34069519410E+03 -0.27406617657E+03 -0.31721184141E+03  0.54019333276E+03  0.00000000000E+00 0.  1.
         16    1    4    4    0    0  0.43526267976E+03  0.61361445123E+03 -0.79368595727E+03  0.10935783895E+04  0.00000000000E+00 0. -1.
    9900018    1    5    5    0    0  0.60404392337E+03 -0.59064824505E+03 -0.18517285390E+04  0.20373875849E+04  0.91187600000E+02 0.  0.
<mgrwt>
<rscale>  0 0.54420727E+04</rscale>
<asrwt>0</asrwt>
<pdfrwt beam="1">  1        2 0.22638759E+00 0.54420727E+04</pdfrwt>
<pdfrwt beam="2">  1       -2 0.77408625E+00 0.54420727E+04</pdfrwt>
<totfact> 0.10210433E-03</totfact>
</mgrwt>
</event>
<event>
13    1  0.1192747E-009  0.4980965E+04  0.7818608E-02  0.7831450E-01
          2   -1    0    0  501    0  0.00000000000E+00  0.00000000000E+00  0.22890767480E+04  0.22890767480E+04  0.00000000000E+00 0. -1.
         -2   -1    0    0    0  501 -0.00000000000E+00 -0.00000000000E+00 -0.27096086335E+04  0.27096086335E+04  0.00000000000E+00 0.  1.
    9900016    2    1    2    0    0  0.55251240185E+03 -0.71683617526E+03 -0.96062015356E+03  0.25594244393E+04  0.21928835639E+04 0.  0.
        -24    2    3    3    0    0 -0.21148359723E+03  0.23804753238E+03 -0.12595922536E+04  0.13005054195E+04  0.57877123016E+02 0.  0.
    9900016    2    1    2    0    0 -0.55251240185E+03  0.71683617526E+03  0.54008826803E+03  0.24392609423E+04  0.21998123899E+04 0.  0.
         23    2    5    5    0    0  0.67708703776E+03  0.24743853620E+03  0.66459348703E+03  0.98638135788E+03  0.10766147993E+03 0.  0.
        -15    1    3    3    0    0  0.76399599908E+03 -0.95488370764E+03  0.29897210003E+03  0.12589190198E+04  0.00000000000E+00 0.  1.
        -15    1    6    6    0    0  0.57869386717E+03  0.24956329770E+03  0.58348062533E+03  0.85884694305E+03  0.00000000000E+00 0.  1.
         15    1    4    4    0    0 -0.30760133429E+02  0.69365442957E+02 -0.32893546806E+03  0.33757412909E+03  0.00000000000E+00 0. -1.
         15    1    6    6    0    0  0.98393170588E+02 -0.21247615016E+01  0.81112861704E+02  0.12753441482E+03  0.00000000000E+00 0. -1.
        -16    1    4    4    0    0 -0.18072346380E+03  0.16868208942E+03 -0.93065678553E+03  0.96293129044E+03  0.00000000000E+00 0.  1.
         16    1    5    5    0    0 -0.41619401253E+03  0.42577429527E+03 -0.20398292399E+03  0.62937289412E+03  0.00000000000E+00 0. -1.
    9900018    1    5    5    0    0 -0.81340542709E+03  0.43623343794E+02  0.79477704989E+02  0.82350669027E+03  0.91187600000E+02 0.  0.
<mgrwt>
<rscale>  0 0.49809646E+04</rscale>
<asrwt>0</asrwt>
<pdfrwt beam="1">  1        2 0.35216565E+00 0.49809646E+04</pdfrwt>
<pdfrwt beam="2">  1       -2 0.41686287E+00 0.49809646E+04</pdfrwt>
<totfact> 0.19305255E-02</totfact>
</mgrwt>
</event>
<event>
12    1  0.1192747E-009  0.5232003E+04  0.7818608E-02  0.7793682E-01
         -2   -1    0    0    0  501 -0.00000000000E+00  0.00000000000E+00  0.54710570022E+04  0.54710570022E+04  0.00000000000E+00 0. -1.
          2   -1    0    0  501    0  0.00000000000E+00 -0.00000000000E+00 -0.12508483897E+04  0.12508483897E+04  0.00000000000E+00 0.  1.
    9900016    2    1    2    0    0  0.77098709462E+03  0.10173787756E+04  0.13291936134E+04  0.28727445711E+04  0.22037298010E+04 0.  0.
    9900016    2    1    2    0    0 -0.77098709462E+03 -0.10173787756E+04  0.28910149991E+04  0.38491608208E+04  0.21974054305E+04 0.  0.
         23    2    4    4    0    0  0.31470249993E+03 -0.77188241150E+03  0.43806325679E+03  0.94931351306E+03  0.12023563736E+03 0.  0.
        -15    1    5    5    0    0  0.67059023635E+02 -0.84878706980E+02  0.88120990548E+02  0.13952281722E+03  0.00000000000E+00 0.  1.
        -15    1    3    3    0    0  0.15280751254E+04  0.65219817455E+03  0.66855807797E+03  0.17909064608E+04  0.00000000000E+00 0.  1.
         15    1    5    5    0    0  0.24764347629E+03 -0.68700370452E+03  0.34994226624E+03  0.80979069584E+03  0.00000000000E+00 0. -1.
         15    1    3    3    0    0 -0.52647147381E+03  0.24796493361E+03  0.35607557299E+03  0.68223796048E+03  0.00000000000E+00 0. -1.
        -16    1    3    3    0    0 -0.23061655697E+03  0.11721566740E+03  0.30455996239E+03  0.39960014981E+03  0.00000000000E+00 0.  1.
         16    1    4    4    0    0 -0.82074643242E+03  0.31579073602E+03  0.10983042655E+04  0.14069899626E+04  0.00000000000E+00 0. -1.
    9900018    1    4    4    0    0 -0.26494316213E+03 -0.56128710009E+03  0.13546474768E+04  0.14928573451E+04  0.91187600000E+02 0.  0.
<mgrwt>
<rscale>  0 0.52320026E+04</rscale>
<asrwt>0</asrwt>
<pdfrwt beam="1">  1        2 0.19243822E+00 0.52320026E+04</pdfrwt>
<pdfrwt beam="2">  1       -2 0.84170107E+00 0.52320026E+04</pdfrwt>
<totfact> 0.48769201E-04</totfact>
</mgrwt>
</event>
<event>
12    1  0.1192747E-009  0.4901043E+04  0.7818608E-02  0.7843956E-01
         -2   -1    0    0    0  501 -0.00000000000E+00  0.00000000000E+00  0.24105458120E+04  0.24105458120E+04  0.00000000000E+00 0.  1.
          2   -1    0    0  501    0  0.00000000000E+00 -0.00000000000E+00 -0.24911603610E+04  0.24911603610E+04  0.00000000000E+00 0. -1.
    9900016    2    1    2    0    0 -0.79081886963E+02 -0.77727679628E+03  0.69488206178E+03  0.24345268944E+04  0.21985556524E+04 0.  0.
        -24    2    3    3    0    0 -0.52227186265E+03  0.60266161083E+03  0.56447700667E+03  0.97931115767E+03  0.66686856286E+02 0.  0.
    9900016    2    1    2    0    0  0.79081886963E+02  0.77727679628E+03 -0.77549661085E+03  0.24671792786E+04  0.22079776802E+04 0.  0.
        -15    1    3    3    0    0  0.44318997569E+03 -0.13799384071E+04  0.13040505512E+03  0.14552157367E+04  0.00000000000E+00 0.  1.
        -15    1    5    5    0    0 -0.19884407844E+03  0.24512044382E+03  0.40307132923E+03  0.51194677063E+03  0.00000000000E+00 0. -1.
         15    1    5    5    0    0 -0.54783239634E+02  0.93768438474E+01  0.20556504081E+03  0.21294627151E+03  0.00000000000E+00 0.  1.
         15    1    4    4    0    0 -0.14802013368E+03  0.14260728382E+03  0.11823410323E+03  0.23712043467E+03  0.00000000000E+00 0. -1.
        -16    1    4    4    0    0 -0.37425172897E+03  0.46005432701E+03  0.44624290344E+03  0.74219072300E+03  0.00000000000E+00 0.  1.
         16    1    5    5    0    0  0.47010035144E+03 -0.10754811724E+02 -0.43237294572E+03  0.63879290117E+03  0.00000000000E+00 0. -1.
    9900018    1    5    5    0    0 -0.13739114640E+03  0.53353432034E+03 -0.95176003517E+03  0.11034933353E+04  0.91187600000E+02 0.  0.
<mgrwt>
<rscale>  0 0.49010432E+04</rscale>
<asrwt>0</asrwt>
<pdfrwt beam="1">  1        2 0.38325544E+00 0.49010432E+04</pdfrwt>
<pdfrwt beam="2">  1       -2 0.37085320E+00 0.49010432E+04</pdfrwt>
<totfact> 0.29638091E-02</totfact>
</mgrwt>
</event>
<event>
12    1  0.1192747E-009  0.5357773E+04  0.7818608E-02  0.7775569E-01
          2   -1    0    0  501    0  0.00000000000E+00  0.00000000000E+00  0.37259076350E+04  0.37259076350E+04  0.00000000000E+00 0. -1.
         -2   -1    0    0    0  501 -0.00000000000E+00 -0.00000000000E+00 -0.19260895083E+04  0.19260895083E+04  0.00000000000E+00 0.  1.
    9900016    2    1    2    0    0  0.11035767714E+04 -0.30229169346E+02  0.20352457606E+04  0.31950921984E+04  0.22017250866E+04 0.  0.
         24    2    3    3    0    0 -0.46452799020E+03  0.41524856549E+03  0.58556113292E+02  0.63292418722E+03  0.94586381386E+02 0.  0.
    9900016    2    1    2    0    0 -0.11035767714E+04  0.30229169346E+02 -0.23542763393E+03  0.24569049449E+04  0.21822374400E+04 0.  0.
        -15    1    5    5    0    0  0.17324272430E+03 -0.61755133283E+03 -0.12459558028E+03  0.65338101352E+03  0.00000000000E+00 0.  1.
        -15    1    4    4    0    0 -0.11507909136E+03  0.15896171836E+03  0.31157763270E+02  0.19870287211E+03  0.00000000000E+00 0.  1.
         15    1    3    3    0    0  0.15681047616E+04 -0.44547773483E+03  0.19766896473E+04  0.25621680112E+04  0.00000000000E+00 0. -1.
         15    1    5    5    0    0 -0.75239396367E+01 -0.10598005227E+03 -0.71548147391E+02  0.12809183636E+03  0.00000000000E+00 0. -1.
        -16    1    5    5    0    0 -0.30115188987E+03  0.36167811287E+03  0.31769355305E+03  0.56783158749E+03  0.00000000000E+00 0.  1.
         16    1    4    4    0    0 -0.34944889884E+03  0.25628684713E+03  0.27398350021E+02  0.43422131511E+03  0.00000000000E+00 0. -1.
    9900018    1    5    5    0    0 -0.96814366622E+03  0.39208244159E+03 -0.35697745931E+03  0.11076005075E+04  0.91187600000E+02 0.  0.
<mgrwt>
<rscale>  0 0.53577725E+04</rscale>
<asrwt>0</asrwt>
<pdfrwt beam="1">  1        2 0.57321656E+00 0.53577725E+04</pdfrwt>
<pdfrwt beam="2">  1       -2 0.29632146E+00 0.53577725E+04</pdfrwt>
<totfact> 0.13187301E-02</totfact>
</mgrwt>
</event>
<event>
11    1  0.1192747E-009  0.5435178E+04  0.7818608E-02  0.7764672E-01
          2   -1    0    0  501    0  0.00000000000E+00  0.00000000000E+00  0.25613078836E+04  0.25613078836E+04  0.00000000000E+00 0. -1.
         -2   -1    0    0    0  501 -0.00000000000E+00 -0.00000000000E+00 -0.28834058971E+04  0.28834058971E+04  0.00000000000E+00 0.  1.
    9900016    2    1    2    0    0 -0.48490482746E+03 -0.74404469715E+03  0.11688933181E+04  0.26437481726E+04  0.21987172642E+04 0.  0.
    9900016    2    1    2    0    0  0.48490482746E+03  0.74404469715E+03 -0.14909913317E+04  0.28009656081E+04  0.21985490633E+04 0.  0.
        -15    1    4    4    0    0  0.11648352315E+03  0.17602143355E+03 -0.23200860071E+03  0.31365577795E+03  0.00000000000E+00 0.  1.
        -15    1    3    3    0    0  0.48613682946E+03  0.10253323765E+03 -0.38234313194E+03  0.62691973356E+03  0.00000000000E+00 0.  1.
         15    1    4    4    0    0  0.35169782284E+03  0.78312619522E+03 -0.15630062175E+04  0.17832460380E+04  0.00000000000E+00 0. -1.
         15    1    3    3    0    0 -0.47755951321E+03 -0.38948258586E+03  0.74034468615E+03  0.96326010385E+03  0.00000000000E+00 0. -1.
        -16    1    3    3    0    0 -0.49348214371E+03 -0.45709534895E+03  0.81089176388E+03  0.10535683352E+04  0.00000000000E+00 0.  1.
         16    1    4    4    0    0 -0.42554191794E+01 -0.41463266726E+03  0.19716595212E+03  0.45914351790E+03  0.00000000000E+00 0. -1.
    9900018    1    4    4    0    0  0.20978900648E+02  0.19952973564E+03  0.10685753444E+03  0.24492027425E+03  0.91187600000E+02 0.  0.
<mgrwt>
<rscale>  0 0.54351781E+04</rscale>
<asrwt>0</asrwt>
<pdfrwt beam="1">  1        2 0.39404737E+00 0.54351781E+04</pdfrwt>
<pdfrwt beam="2">  1       -2 0.44360090E+00 0.54351781E+04</pdfrwt>
<totfact> 0.86579788E-03</totfact>
</mgrwt>
</event>
<event>
12    1  0.1192747E-009  0.5172535E+04  0.7818608E-02  0.7802430E-01
          1   -1    0    0  501    0  0.00000000000E+00  0.00000000000E+00  0.33852157387E+04  0.33852157387E+04  0.00000000000E+00 0. -1.
         -1   -1    0    0    0  501 -0.00000000000E+00 -0.00000000000E+00 -0.19758795457E+04  0.19758795457E+04  0.00000000000E+00 0.  1.
    9900016    2    1    2    0    0  0.75795125761E+03 -0.13204354987E+03 -0.44111949334E+03  0.23831509196E+04  0.22119892157E+04 0.  0.
        -24    2    3    3    0    0  0.12950208273E+04 -0.33052365654E+03  0.37044152625E+03  0.13899392785E+04  0.91539297167E+02 0.  0.
    9900016    2    1    2    0    0 -0.75795125761E+03  0.13204354987E+03  0.18504556864E+04  0.29779443648E+04  0.22027348422E+04 0.  0.
        -15    1    5    5    0    0  0.69908043165E+00 -0.29145340597E+03  0.86685848883E+03  0.91454317351E+03  0.00000000000E+00 0.  1.
        -15    1    3    3    0    0 -0.53706956970E+03  0.19848010667E+03 -0.81156101960E+03  0.99321164108E+03  0.00000000000E+00 0.  1.
         15    1    5    5    0    0  0.10518982196E+03 -0.18051115120E+03  0.79674089106E+03  0.82367786291E+03  0.00000000000E+00 0. -1.
         15    1    4    4    0    0  0.79281593891E+03 -0.15675598614E+03  0.23107524863E+03  0.84055060687E+03  0.00000000000E+00 0. -1.
        -16    1    4    4    0    0  0.50220488841E+03 -0.17376767040E+03  0.13936627763E+03  0.54938867166E+03  0.00000000000E+00 0.  1.
         16    1    5    5    0    0 -0.38263882300E+03  0.60427584666E+03 -0.80580442811E+00  0.71523591706E+03  0.00000000000E+00 0. -1.
    9900018    1    5    5    0    0 -0.48120133700E+03 -0.26773961798E+00  0.18766211089E+03  0.52448741136E+03  0.91187600000E+02 0.  0.
<mgrwt>
<rscale>  0 0.51725346E+04</rscale>
<asrwt>0</asrwt>
<pdfrwt beam="1">  1        1 0.52080242E+00 0.51725346E+04</pdfrwt>
<pdfrwt beam="2">  1       -1 0.30398147E+00 0.51725346E+04</pdfrwt>
<totfact> 0.68026378E-03</totfact>
</mgrwt>
</event>
<event>
12    1  0.1192747E-009  0.5344534E+04  0.7818608E-02  0.7777451E-01
          1   -1    0    0  501    0  0.00000000000E+00  0.00000000000E+00  0.34926789756E+04  0.34926789756E+04  0.00000000000E+00 0. -1.
         -1   -1    0    0    0  501 -0.00000000000E+00 -0.00000000000E+00 -0.20445654540E+04  0.20445654540E+04  0.00000000000E+00 0.  1.
    9900016    2    1    2    0    0 -0.37409340151E+03  0.10473407697E+04 -0.30102160233E+03  0.24830675327E+04  0.21995776426E+04 0.  0.
    9900016    2    1    2    0    0  0.37409340151E+03 -0.10473407697E+04  0.17491351239E+04  0.30541768969E+04  0.22431349212E+04 0.  0.
         23    2    4    4    0    0 -0.35455512573E+03 -0.15534729327E+03 -0.25624571043E+03  0.47696032791E+03  0.10948594237E+03 0.  0.
        -15    1    5    5    0    0 -0.13802199975E+03 -0.11541177007E+02 -0.58476798771E+02  0.15034230002E+03  0.00000000000E+00 0. -1.
        -15    1    3    3    0    0 -0.61616557614E+03  0.10712170376E+04 -0.10902388398E+04  0.16479644070E+04  0.00000000000E+00 0.  1.
         15    1    5    5    0    0 -0.21653312598E+03 -0.14380611626E+03 -0.19776891166E+03  0.32661802789E+03  0.00000000000E+00 0.  1.
         15    1    3    3    0    0  0.22906891821E+03  0.17391616850E+02  0.66127172455E+03  0.70003952126E+03  0.00000000000E+00 0. -1.
        -16    1    3    3    0    0  0.13003256414E+02 -0.41267884765E+02  0.12794551288E+03  0.13506360449E+03  0.00000000000E+00 0.  1.
         16    1    4    4    0    0  0.26950264786E+03  0.21788795841E+03  0.80609027133E+03  0.87743282658E+03  0.00000000000E+00 0. -1.
    9900018    1    4    4    0    0  0.45914587938E+03 -0.11098814348E+04  0.11992905630E+04  0.16997837424E+04  0.91187600000E+02 0.  0.
<mgrwt>
<rscale>  0 0.53445339E+04</rscale>
<asrwt>0</asrwt>
<pdfrwt beam="1">  1        1 0.53733523E+00 0.53445339E+04</pdfrwt>
<pdfrwt beam="2">  1       -1 0.31454853E+00 0.53445339E+04</pdfrwt>
<totfact> 0.47214914E-03</totfact>
</mgrwt>
</event>
<event>
13    1  0.1192747E-009  0.6098878E+04  0.7818608E-02  0.7678262E-01
         -2   -1    0    0    0  501 -0.00000000000E+00  0.00000000000E+00  0.29114750896E+04  0.29114750896E+04  0.00000000000E+00 0.  1.
          2   -1    0    0  501    0  0.00000000000E+00 -0.00000000000E+00 -0.31939409205E+04  0.31939409205E+04  0.00000000000E+00 0. -1.
    9900016    2    1    2    0    0 -0.69613940568E+03  0.21770543735E+03 -0.21204933194E+04  0.31459394671E+04  0.22064535987E+04 0.  0.
         24    2    3    3    0    0  0.78526725931E+03  0.11369832392E+03 -0.46118964665E+03  0.91913191701E+03  0.50354873428E+02 0.  0.
    9900016    2    1    2    0    0  0.69613940568E+03 -0.21770543735E+03  0.18380274885E+04  0.29594765429E+04  0.22018516367E+04 0.  0.
         23    2    5    5    0    0  0.24493277358E+03 -0.16155707129E+03 -0.42896352402E+03  0.52441297271E+03  0.70046485594E+02 0.  0.
        -15    1    6    6    0    0  0.24393940769E+03 -0.14868018883E+03 -0.39051658621E+03  0.48385476879E+03  0.00000000000E+00 0.  1.
        -15    1    4    4    0    0  0.19191332074E+03  0.49384265288E+02 -0.11020408687E+03  0.22674758896E+03  0.00000000000E+00 0.  1.
         15    1    3    3    0    0 -0.14814066650E+04  0.10400711342E+03 -0.16593036728E+04  0.22268075501E+04  0.00000000000E+00 0. -1.
         15    1    6    6    0    0  0.99336588418E+00 -0.12876882467E+02 -0.38446937811E+02  0.40558203916E+02  0.00000000000E+00 0. -1.
        -16    1    5    5    0    0  0.52012325867E+03  0.15283423140E+03  0.92545890839E+03  0.10725486924E+04  0.00000000000E+00 0.  1.
         16    1    4    4    0    0  0.59335393857E+03  0.64314058636E+02 -0.35098555978E+03  0.69238432805E+03  0.00000000000E+00 0. -1.
    9900018    1    5    5    0    0 -0.68916626566E+02 -0.20898259746E+03  0.13415321041E+04  0.13625148778E+04  0.91187600000E+02 0.  0.
<mgrwt>
<rscale>  0 0.60988784E+04</rscale>
<asrwt>0</asrwt>
<pdfrwt beam="1">  1        2 0.49137552E+00 0.60988784E+04</pdfrwt>
<pdfrwt beam="2">  1       -2 0.44791925E+00 0.60988784E+04</pdfrwt>
<totfact> 0.31437523E-03</totfact>
</mgrwt>
</event>
<event>
12    1  0.1192747E-009  0.5734759E+04  0.7818608E-02  0.7724187E-01
          2   -1    0    0  501    0  0.00000000000E+00  0.00000000000E+00  0.30893908984E+04  0.30893908984E+04  0.00000000000E+00 0. -1.
         -2   -1    0    0    0  501 -0.00000000000E+00 -0.00000000000E+00 -0.26613220979E+04  0.26613220979E+04  0.00000000000E+00 0.  1.
    9900016    2    1    2    0    0 -0.12249548006E+04  0.10697283263E+04 -0.65456555930E+03  0.28152621757E+04  0.22028191235E+04 0.  0.
    9900016    2    1    2    0    0  0.12249548006E+04 -0.10697283263E+04  0.10826343598E+04  0.29354508205E+04  0.21908768580E+04 0.  0.
         23    2    4    4    0    0  0.20223891417E+02  0.28768071113E+03 -0.41214095962E+03  0.50882712688E+03  0.76652965499E+02 0.  0.
        -15    1    5    5    0    0  0.49299184227E+02  0.15907043864E+03 -0.23240066347E+03  0.28590887079E+03  0.00000000000E+00 0.  1.
        -15    1    3    3    0    0 -0.37627670746E+03  0.15184453750E+04 -0.91716445489E+03  0.18134087114E+04  0.00000000000E+00 0.  1.
         15    1    5    5    0    0 -0.29075292810E+02  0.12861027249E+03 -0.17974029614E+03  0.22291825609E+03  0.00000000000E+00 0. -1.
         15    1    3    3    0    0 -0.29774619287E+03 -0.18311022214E+03  0.14803878111E+03  0.37960193563E+03  0.00000000000E+00 0. -1.
        -16    1    3    3    0    0 -0.55093190029E+03 -0.26560682653E+03  0.11456011448E+03  0.62225152863E+03  0.00000000000E+00 0.  1.
         16    1    4    4    0    0  0.50576673799E+03 -0.17536981939E+03  0.42335291158E+03  0.68248242069E+03  0.00000000000E+00 0. -1.
    9900018    1    4    4    0    0  0.69896417121E+03 -0.11820392180E+04  0.10714224079E+04  0.17441412730E+04  0.91187600000E+02 0.  0.
<mgrwt>
<rscale>  0 0.57347587E+04</rscale>
<asrwt>0</asrwt>
<pdfrwt beam="1">  1        2 0.47529091E+00 0.57347587E+04</pdfrwt>
<pdfrwt beam="2">  1       -2 0.40943417E+00 0.57347587E+04</pdfrwt>
<totfact> 0.67655682E-03</totfact>
</mgrwt>
</event>
<event>
13    1  0.1192747E-009  0.7027186E+04  0.7818608E-02  0.7574638E-01
          2   -1    0    0  501    0  0.00000000000E+00  0.00000000000E+00  0.32852834005E+04  0.32852834005E+04  0.00000000000E+00 0. -1.
         -2   -1    0    0    0  501 -0.00000000000E+00 -0.00000000000E+00 -0.37577690707E+04  0.37577690707E+04  0.00000000000E+00 0.  1.
    9900016    2    1    2    0    0 -0.10101351576E+04 -0.19013888389E+04  0.14621135592E+04  0.34114421429E+04  0.22055631665E+04 0.  0.
         24    2    3    3    0    0 -0.32835660705E+03 -0.13597208412E+04 -0.31051875668E+03  0.14364860576E+04  0.10203660154E+03 0.  0.
    9900016    2    1    2    0    0  0.10101351576E+04  0.19013888389E+04 -0.19345992294E+04  0.36316103283E+04  0.21932320545E+04 0.  0.
         23    2    5    5    0    0 -0.30598000727E+02 -0.17918310945E+03 -0.32569693350E+03  0.37830867776E+03  0.63215020486E+02 0.  0.
        -15    1    4    4    0    0 -0.64852594697E+02 -0.17853643028E+03 -0.71041283929E+02  0.20280034516E+03  0.00000000000E+00 0.  1.
        -15    1    6    6    0    0 -0.34625934260E+02 -0.63293580935E+02 -0.16555065479E+03  0.18058807273E+03  0.00000000000E+00 0.  1.
         15    1    3    3    0    0 -0.68177855054E+03 -0.54166799771E+03  0.17726323158E+04  0.19749560853E+04  0.00000000000E+00 0. -1.
         15    1    6    6    0    0  0.40279335335E+01 -0.11588952852E+03 -0.16014627871E+03  0.19772060503E+03  0.00000000000E+00 0. -1.
        -16    1    5    5    0    0  0.52700438743E+03  0.23853446438E+03  0.20718337525E+03  0.61445688706E+03  0.00000000000E+00 0.  1.
         16    1    4    4    0    0 -0.26350401235E+03 -0.11811844109E+04 -0.23947747276E+03  0.12336857124E+04  0.00000000000E+00 0. -1.
    9900018    1    5    5    0    0  0.51372877088E+03  0.18420374840E+04 -0.18160856712E+04  0.26388447635E+04  0.91187600000E+02 0.  0.
<mgrwt>
<rscale>  0 0.70271862E+04</rscale>
<asrwt>0</asrwt>
<pdfrwt beam="1">  1        2 0.50542822E+00 0.70271862E+04</pdfrwt>
<pdfrwt beam="2">  1       -2 0.57811832E+00 0.70271862E+04</pdfrwt>
<totfact> 0.45622460E-04</totfact>
</mgrwt>
</event>
