<event>
13    1  0.5291116E-012  0.5797751E+04  0.7818608E-02  0.7715997E-01
         -2   -1    0    0    0  501 -0.00000000000E+00  0.00000000000E+00  0.53702516929E+04  0.53702516929E+04  0.00000000000E+00 0.  1.
          2   -1    0    0  501    0  0.00000000000E+00 -0.00000000000E+00 -0.15648203452E+04  0.15648203452E+04  0.00000000000E+00 0. -1.
    9900016    2    1    2    0    0  0.74897437861E+03 -0.14116857516E+04  0.81016915657E+03  0.27885505090E+04  0.21367780881E+04 0.  0.
         23    2    3    3    0    0 -0.10522229263E+03  0.24362584154E+03  0.88363738978E+03  0.92438688823E+03  0.57015795978E+02 0.  0.
    9900016    2    1    2    0    0 -0.72869203798E+03  0.12596150318E+04  0.25153092705E+04  0.36344601446E+04  0.21828645633E+04 0.  0.
         23    2    5    5    0    0 -0.44105399814E+03  0.25160909317E+03 -0.32318240664E+03  0.60859719075E+03  0.90043920319E+02 0.  0.
        -15    1    6    6    0    0 -0.98379219767E+02  0.34018393040E+02 -0.10458223988E+03  0.14755733410E+03  0.00000000000E+00 0.  1.
        -15    1    4    4    0    0 -0.65263635769E+02  0.92079204030E+02  0.31781705753E+03  0.33726192199E+03  0.00000000000E+00 0. -1.
         15    1    4    4    0    0 -0.39958656865E+02  0.15154663751E+03  0.56582033225E+03  0.58712496624E+03  0.00000000000E+00 0.  1.
         15    1    6    6    0    0 -0.34267477837E+03  0.21759070013E+03 -0.21860016675E+03  0.46103985665E+03  0.00000000000E+00 0. -1.
        -16    1    5    5    0    0 -0.28763803985E+03  0.10080059386E+04  0.28384916771E+04  0.30258629538E+04  0.00000000000E+00 0.  1.
         16    1    3    3    0    0  0.85419667125E+03 -0.16553115932E+04 -0.73468233206E+02  0.18641636207E+04  0.00000000000E+00 0. -1.
    9900018    1    1    2    0    0 -0.20282340631E+02  0.15207071983E+03  0.47995292056E+03  0.51206138452E+03  0.91187600000E+02 0.  0.
<mgrwt>
<rscale>  0 0.57977510E+04</rscale>
<asrwt>0</asrwt>
<pdfrwt beam="1">  1        2 0.24074159E+00 0.57977510E+04</pdfrwt>
<pdfrwt beam="2">  1       -2 0.82619256E+00 0.57977510E+04</pdfrwt>
<totfact> 0.41084057E-04</totfact>
</mgrwt>
</event>
<event>
13    1  0.5291116E-012  0.4895288E+04  0.7818608E-02  0.7844866E-01
         -1   -1    0    0    0  501 -0.00000000000E+00  0.00000000000E+00  0.30747285616E+04  0.30747285616E+04  0.00000000000E+00 0.  1.
          1   -1    0    0  501    0  0.00000000000E+00 -0.00000000000E+00 -0.19484519366E+04  0.19484519366E+04  0.00000000000E+00 0. -1.
    9900016    2    1    2    0    0 -0.23960417147E+03 -0.61637346508E+03  0.15545449886E+03  0.22299903554E+04  0.21239972873E+04 0.  0.
         23    2    3    3    0    0  0.14452395524E+03  0.20714808435E+03 -0.83919238583E+03  0.88274702718E+03  0.10583454572E+03 0.  0.
    9900016    2    1    2    0    0 -0.47189769509E+02  0.34801961976E+03  0.76701542304E+03  0.23413971576E+04  0.21841436447E+04 0.  0.
         23    2    5    5    0    0 -0.59553502542E+03  0.35068946849E+03 -0.56713655931E+03  0.89895091607E+03  0.93935098826E+02 0.  0.
        -15    1    4    4    0    0  0.28523565761E+02  0.86782039321E+02 -0.16996959013E+03  0.19296211473E+03  0.00000000000E+00 0.  1.
        -15    1    6    6    0    0 -0.55066758445E+03  0.29248022603E+03 -0.51704877775E+03  0.81001167260E+03  0.00000000000E+00 0. -1.
         15    1    4    4    0    0  0.11600038948E+03  0.12036604503E+03 -0.66922279571E+03  0.68978491245E+03  0.00000000000E+00 0. -1.
         15    1    6    6    0    0 -0.44867440970E+02  0.58209242467E+02 -0.50087781564E+02  0.88939243474E+02  0.00000000000E+00 0.  1.
        -16    1    5    5    0    0  0.54834525591E+03 -0.26698487339E+01  0.13341519824E+04  0.14424462416E+04  0.00000000000E+00 0.  1.
         16    1    3    3    0    0 -0.38412812671E+03 -0.82352154943E+03  0.99464688469E+03  0.13472433282E+04  0.00000000000E+00 0. -1.
    9900018    1    1    2    0    0  0.28679394098E+03  0.26835384532E+03  0.20380670314E+03  0.45179298524E+03  0.91187600000E+02 0.  0.
<mgrwt>
<rscale>  0 0.48952879E+04</rscale>
<asrwt>0</asrwt>
<pdfrwt beam="1">  1        1 0.29976184E+00 0.48952879E+04</pdfrwt>
<pdfrwt beam="2">  1       -1 0.47303516E+00 0.48952879E+04</pdfrwt>
<totfact> 0.53092966E-03</totfact>
</mgrwt>
</event>
<event>
13    1  0.5291116E-012  0.6357496E+04  0.7818608E-02  0.7647591E-01
          2   -1    0    0  501    0  0.00000000000E+00  0.00000000000E+00  0.28852035344E+04  0.28852035344E+04  0.00000000000E+00 0. -1.
         -2   -1    0    0    0  501 -0.00000000000E+00 -0.00000000000E+00 -0.35021582179E+04  0.35021582179E+04  0.00000000000E+00 0.  1.
    9900016    2    1    2    0    0  0.12131627618E+04  0.99308710916E+03  0.65734715641E+03  0.27259248653E+04  0.21308625470E+04 0.  0.
         23    2    3    3    0    0 -0.37698191319E+03  0.42975032741E+02 -0.42573242953E+03  0.58015357395E+03  0.10662012710E+03 0.  0.
    9900016    2    1    2    0    0 -0.49318213114E+03 -0.26254763141E+03 -0.37519362411E+03  0.22944069681E+04  0.21934842618E+04 0.  0.
         23    2    5    5    0    0 -0.12112634411E+03 -0.68409466431E+02  0.91881716245E+03  0.93404707034E+03  0.94167432076E+02 0.  0.
        -15    1    4    4    0    0 -0.65030920070E+02  0.40206956071E+02 -0.12691985970E+03  0.14816973601E+03  0.00000000000E+00 0.  1.
        -15    1    6    6    0    0 -0.33802175918E+02 -0.72804089325E+02  0.46686112920E+03  0.47371123744E+03  0.00000000000E+00 0.  1.
         15    1    4    4    0    0 -0.31195099312E+03  0.27680766700E+01 -0.29881256983E+03  0.43198383794E+03  0.00000000000E+00 0. -1.
         15    1    6    6    0    0 -0.87324168191E+02  0.43946228941E+01  0.45195603325E+03  0.46033583290E+03  0.00000000000E+00 0. -1.
        -16    1    5    5    0    0 -0.37205578703E+03 -0.19413816498E+03 -0.12940107866E+04  0.13603598978E+04  0.00000000000E+00 0.  1.
         16    1    3    3    0    0  0.15901446750E+04  0.95011207642E+03  0.10830795859E+04  0.21457712913E+04  0.00000000000E+00 0. -1.
    9900018    1    1    2    0    0 -0.71998063065E+03 -0.73053947775E+03 -0.89910821582E+03  0.13670299189E+04  0.91187600000E+02 0.  0.
<mgrwt>
<rscale>  0 0.63574961E+04</rscale>
<asrwt>0</asrwt>
<pdfrwt beam="1">  1        2 0.44387746E+00 0.63574961E+04</pdfrwt>
<pdfrwt beam="2">  1       -2 0.53879357E+00 0.63574961E+04</pdfrwt>
<totfact> 0.13396814E-03</totfact>
</mgrwt>
</event>
