<event>
12    1  0.3949490E-013  0.2781324E+04  0.7818608E-02  0.8939470E-01
         -2   -1    0    0    0  501 -0.00000000000E+00  0.00000000000E+00  0.11970554810E+04  0.11970554810E+04  0.00000000000E+00 0. -1.
          2   -1    0    0  501    0  0.00000000000E+00 -0.00000000000E+00 -0.19545319110E+04  0.19545319110E+04  0.00000000000E+00 0.  1.
         23    2    1    2    0    0  0.13650108339E+02 -0.16483503910E+03 -0.26737386185E+03  0.32741221600E+03  0.91395085267E+02 0.  0.
    9900016    2    1    2    0    0  0.34011876265E+03  0.22106252144E+03 -0.13651545999E+03  0.21953840174E+04  0.21532591813E+04 0.  0.
         24    2    4    4    0    0 -0.62243980880E+03 -0.59553645333E+03 -0.31326786307E+03  0.92078827712E+03  0.87288684390E+02 0.  0.
        -15    1    3    3    0    0 -0.14044003145E+02  0.37772778575E+00 -0.55845050891E+02  0.57585123180E+02  0.00000000000E+00 0.  1.
        -15    1    5    5    0    0 -0.41200805718E+03 -0.42766028728E+03 -0.24965524771E+03  0.64418297339E+03  0.00000000000E+00 0.  1.
         15    1    3    3    0    0  0.27694111483E+02 -0.16521276688E+03 -0.21152881096E+03  0.26982709282E+03  0.00000000000E+00 0. -1.
         15    1    4    4    0    0  0.96255857145E+03  0.81659897477E+03  0.17675240308E+03  0.12745957403E+04  0.00000000000E+00 0. -1.
        -16    1    1    2    0    0 -0.37914580197E+03 -0.52991242544E+02 -0.37030213868E+03  0.53261926819E+03  0.00000000000E+00 0.  1.
         16    1    5    5    0    0 -0.21043175162E+03 -0.16787616604E+03 -0.63612615365E+02  0.27660530373E+03  0.00000000000E+00 0. -1.
    9900018    1    1    2    0    0  0.25376930976E+02 -0.32362398034E+01  0.16715030531E+02  0.96171890453E+02  0.91187600000E+02 0.  0.
<mgrwt>
<rscale>  0 0.14199970E+04</rscale>
<asrwt>0</asrwt>
<pdfrwt beam="1">  1        2 0.30069721E+00 0.27813243E+04</pdfrwt>
<pdfrwt beam="2">  1       -2 0.18416238E+00 0.27813243E+04</pdfrwt>
<totfact> 0.10376921E+00</totfact>
</mgrwt>
</event>
<event>
12    1  0.3949490E-013  0.2615561E+04  0.7818608E-02  0.8362935E-01
          1   -1    0    0  501    0  0.00000000000E+00  0.00000000000E+00  0.14979560396E+04  0.14979560396E+04  0.00000000000E+00 0. -1.
         -1   -1    0    0    0  501 -0.00000000000E+00 -0.00000000000E+00 -0.11417488671E+04  0.11417488671E+04  0.00000000000E+00 0.  1.
         23    2    1    2    0    0  0.14829349896E+03 -0.11347299875E+02  0.10379595618E+03  0.20319380163E+03  0.91620944401E+02 0.  0.
    9900016    2    1    2    0    0 -0.45710815362E+02  0.58739248385E+02  0.89706605859E+02  0.22384151838E+04  0.22353781519E+04 0.  0.
        -24    2    4    4    0    0  0.39416748190E+03 -0.93768209399E+03  0.22982142557E+03  0.10458578941E+04  0.79907032757E+02 0.  0.
        -15    1    3    3    0    0  0.91602149385E+02  0.26289770281E+02  0.95030357364E+02  0.13458408009E+03  0.00000000000E+00 0. -1.
        -15    1    4    4    0    0 -0.45303977952E+03  0.99366242124E+03 -0.12607212868E+03  0.10993198947E+04  0.00000000000E+00 0.  1.
         15    1    3    3    0    0  0.56691349576E+02 -0.37637070156E+02  0.87655988110E+01  0.68609721536E+02  0.00000000000E+00 0.  1.
         15    1    5    5    0    0  0.31881867163E+03 -0.78533599207E+03  0.21970519096E+03  0.87559598946E+03  0.00000000000E+00 0. -1.
        -16    1    5    5    0    0  0.75348810277E+02 -0.15234610192E+03  0.10116234610E+02  0.17026190468E+03  0.00000000000E+00 0.  1.
         16    1    1    2    0    0 -0.10258268360E+03 -0.47391948510E+02  0.16270461041E+03  0.19809592122E+03  0.00000000000E+00 0. -1.
    9900018    1    4    4    0    0  0.13161482250E+02  0.27589211366E+01 -0.14042691026E+02  0.93237394997E+02  0.91187600000E+02 0.  0.
<mgrwt>
<rscale>  0 0.26155608E+04</rscale>
<asrwt>0</asrwt>
<pdfrwt beam="1">  1        1 0.23045477E+00 0.26155608E+04</pdfrwt>
<pdfrwt beam="2">  1       -1 0.17565367E+00 0.26155608E+04</pdfrwt>
<totfact> 0.12915404E+00</totfact>
</mgrwt>
</event>
<event>
12    1  0.3949491E-013  0.4118682E+04  0.7818608E-02  0.8763501E-01
         -2   -1    0    0    0  501 -0.00000000000E+00  0.00000000000E+00  0.15292408735E+04  0.15292408735E+04  0.00000000000E+00 0.  1.
          2   -1    0    0  501    0  0.00000000000E+00 -0.00000000000E+00 -0.30550921004E+04  0.30550921004E+04  0.00000000000E+00 0. -1.
         23    2    1    2    0    0 -0.39001099328E+01  0.75364337978E+02  0.10129179324E+03  0.15588691262E+03  0.91354845803E+02 0.  0.
    9900016    2    1    2    0    0 -0.85245684726E+03 -0.58033956844E+03 -0.21777098589E+04  0.32920169763E+04  0.22430958186E+04 0.  0.
         24    2    4    4    0    0  0.38519888607E+03  0.12161857704E+03  0.22141183273E+03  0.46752146142E+03  0.79899043238E+02 0.  0.
        -15    1    3    3    0    0 -0.12381704955E+01  0.95141990923E+02  0.67565605640E+02  0.11669893988E+03  0.00000000000E+00 0.  1.
        -15    1    5    5    0    0  0.90870820693E+02  0.38928201058E+02  0.18461606674E+02  0.10056710104E+03  0.00000000000E+00 0.  1.
         15    1    3    3    0    0 -0.26619394373E+01 -0.19777652945E+02  0.33726187598E+02  0.39187972740E+02  0.00000000000E+00 0. -1.
         15    1    4    4    0    0 -0.12177563589E+04 -0.67993703539E+03 -0.22481085963E+04  0.26456071482E+04  0.00000000000E+00 0. -1.
        -16    1    1    2    0    0  0.85635695719E+03  0.50497523047E+03  0.55056683869E+03  0.11364290851E+04  0.00000000000E+00 0.  1.
         16    1    5    5    0    0  0.29432806537E+03  0.82690375984E+02  0.20295022606E+03  0.36695436038E+03  0.00000000000E+00 0. -1.
    9900018    1    4    4    0    0 -0.19899374452E+02 -0.22021110090E+02 -0.15101309529E+03  0.17888836669E+03  0.91187600000E+02 0.  0.
<mgrwt>
<rscale>  0 0.16962595E+04</rscale>
<asrwt>0</asrwt>
<pdfrwt beam="1">  1        2 0.47001417E+00 0.41186818E+04</pdfrwt>
<pdfrwt beam="2">  1       -2 0.23526783E+00 0.41186818E+04</pdfrwt>
<totfact> 0.98733995E-02</totfact>
</mgrwt>
</event>
<event>
12    1  0.3949490E-013  0.3167317E+04  0.7818608E-02  0.8197502E-01
          2   -1    0    0  501    0  0.00000000000E+00  0.00000000000E+00  0.12619371890E+04  0.12619371890E+04  0.00000000000E+00 0. -1.
         -2   -1    0    0    0  501 -0.00000000000E+00 -0.00000000000E+00 -0.19874003853E+04  0.19874003853E+04  0.00000000000E+00 0.  1.
         23    2    1    2    0    0 -0.55605654431E+03 -0.12694171644E+03 -0.17150097761E+03  0.60263282426E+03  0.91873041239E+02 0.  0.
    9900016    2    1    2    0    0  0.63541016699E+03  0.32392489703E+03 -0.57988835071E+03  0.24327619185E+04  0.22524179527E+04 0.  0.
        -24    2    4    4    0    0  0.10719310230E+04 -0.51936357484E+03  0.71920685884E+02  0.11959578237E+04  0.79799061356E+02 0.  0.
        -15    1    4    4    0    0 -0.49587086775E+03  0.78269220641E+03 -0.57711993705E+03  0.10915871148E+04  0.00000000000E+00 0.  1.
        -15    1    3    3    0    0 -0.52561017174E+03 -0.10309172439E+03 -0.17575693018E+03  0.56372373977E+03  0.00000000000E+00 0. -1.
         15    1    3    3    0    0 -0.30446372570E+02 -0.23849992046E+02  0.42559525664E+01  0.38909084486E+02  0.00000000000E+00 0.  1.
         15    1    5    5    0    0  0.28977672918E+03 -0.17654169769E+03  0.35890619795E+02  0.34121204608E+03  0.00000000000E+00 0. -1.
        -16    1    5    5    0    0  0.78215429379E+03 -0.34282187715E+03  0.36030066089E+02  0.85474577765E+03  0.00000000000E+00 0.  1.
         16    1    1    2    0    0 -0.79353622681E+02 -0.19698318059E+03  0.25926132058E+02  0.21394283160E+03  0.00000000000E+00 0. -1.
    9900018    1    4    4    0    0  0.59350011765E+02  0.60596265457E+02 -0.74689099536E+02  0.14521697995E+03  0.91187600000E+02 0.  0.
<mgrwt>
<rscale>  0 0.31673171E+04</rscale>
<asrwt>0</asrwt>
<pdfrwt beam="1">  1        2 0.19414418E+00 0.31673171E+04</pdfrwt>
<pdfrwt beam="2">  1       -2 0.30575390E+00 0.31673171E+04</pdfrwt>
<totfact> 0.43053761E-01</totfact>
</mgrwt>
</event>
<event>
12    1  0.4329295E-013  0.3621652E+04  0.7818608E-02  0.8860325E-01
         -1   -1    0    0    0  501 -0.00000000000E+00  0.00000000000E+00  0.17728566865E+04  0.17728566865E+04  0.00000000000E+00 0.  1.
          1   -1    0    0  501    0  0.00000000000E+00 -0.00000000000E+00 -0.20533878501E+04  0.20533878501E+04  0.00000000000E+00 0. -1.
         23    2    1    2    0    0  0.72195028273E+02 -0.20615042634E+02 -0.16529218746E+03  0.20275960045E+03  0.90293112974E+02 0.  0.
    9900016    2    1    2    0    0 -0.41606819903E+03  0.23801433720E+03  0.81607717324E+03  0.23481382052E+04  0.21489549802E+04 0.  0.
        -24    2    4    4    0    0  0.21326637049E+03  0.12248542436E+03 -0.67646583342E+03  0.72422516661E+03  0.80067747590E+02 0.  0.
        -15    1    3    3    0    0 -0.17447481749E+02  0.88512831665E+01 -0.12623804578E+02  0.23283476440E+02  0.00000000000E+00 0.  1.
        -15    1    4    4    0    0 -0.62933456951E+03  0.11552891284E+03  0.14925430067E+04  0.16239130386E+04  0.00000000000E+00 0.  1.
         15    1    3    3    0    0  0.89642510022E+02 -0.29466325801E+02 -0.15266838288E+03  0.17947612401E+03  0.00000000000E+00 0. -1.
         15    1    5    5    0    0  0.10284308770E+03  0.67899920340E+02 -0.22827738816E+03  0.25941793658E+03  0.00000000000E+00 0. -1.
        -16    1    5    5    0    0  0.11042328278E+03  0.54585504020E+02 -0.44818844526E+03  0.46480723003E+03  0.00000000000E+00 0.  1.
         16    1    1    2    0    0  0.38416160612E+03 -0.25988272336E+03 -0.10294762001E+04  0.11291325945E+04  0.00000000000E+00 0. -1.
    9900018    1    1    2    0    0 -0.40288435366E+02  0.42483428800E+02  0.98160050671E+02  0.14621413642E+03  0.91187600000E+02 0.  0.
<mgrwt>
<rscale>  0 0.15368284E+04</rscale>
<asrwt>0</asrwt>
<pdfrwt beam="1">  1        1 0.31590582E+00 0.36216520E+04</pdfrwt>
<pdfrwt beam="2">  1       -1 0.27274718E+00 0.36216520E+04</pdfrwt>
<totfact> 0.10904554E-01</totfact>
</mgrwt>
</event>
<event>
12    1  0.3949490E-013  0.3587492E+04  0.7818608E-02  0.8904615E-01
         -1   -1    0    0    0  501 -0.00000000000E+00  0.00000000000E+00  0.22296731051E+04  0.22296731051E+04  0.00000000000E+00 0.  1.
          1   -1    0    0  501    0  0.00000000000E+00 -0.00000000000E+00 -0.19271830975E+04  0.19271830975E+04  0.00000000000E+00 0. -1.
         23    2    1    2    0    0 -0.35518632756E+02  0.25740816851E+02 -0.47536262029E+03  0.48600478207E+03  0.91142001823E+02 0.  0.
    9900016    2    1    2    0    0  0.92643641524E+03  0.32093258865E+03  0.10704748205E+04  0.26710791001E+04  0.22422009410E+04 0.  0.
        -24    2    4    4    0    0 -0.24976697781E+03  0.96917712375E+03  0.33181345351E+03  0.10574552241E+04  0.80147006515E+02 0.  0.
        -15    1    3    3    0    0 -0.63299780259E+02  0.85893920942E+00 -0.27405609116E+03  0.28127271652E+03  0.00000000000E+00 0. -1.
        -15    1    4    4    0    0  0.11438007109E+04 -0.68239148045E+03  0.68049349550E+03  0.14956635973E+04  0.00000000000E+00 0.  1.
         15    1    5    5    0    0 -0.21386235134E+03  0.89865968057E+03  0.29157758285E+03  0.96868148203E+03  0.00000000000E+00 0. -1.
         15    1    3    3    0    0  0.27781147503E+02  0.24881877641E+02 -0.20130652913E+03  0.20473206555E+03  0.00000000000E+00 0.  1.
        -16    1    5    5    0    0 -0.35904626471E+02  0.70517443176E+02  0.40235870661E+02  0.88773742075E+02  0.00000000000E+00 0.  1.
         16    1    1    2    0    0 -0.89091778248E+03 -0.34667340550E+03 -0.29262219256E+03  0.99977232048E+03  0.00000000000E+00 0. -1.
    9900018    1    4    4    0    0  0.32402682200E+02  0.34146945342E+02  0.58167871463E+02  0.11796027871E+03  0.91187600000E+02 0.  0.
<mgrwt>
<rscale>  0 0.14700533E+04</rscale>
<asrwt>0</asrwt>
<pdfrwt beam="1">  1        1 0.29648971E+00 0.35874915E+04</pdfrwt>
<pdfrwt beam="2">  1       -1 0.34302663E+00 0.35874915E+04</pdfrwt>
<totfact> 0.45859644E-02</totfact>
</mgrwt>
</event>
<event>
12    1  0.3949490E-013  0.2765767E+04  0.7818608E-02  0.9122307E-01
          1   -1    0    0  501    0  0.00000000000E+00  0.00000000000E+00  0.21672130727E+04  0.21672130727E+04  0.00000000000E+00 0. -1.
         -1   -1    0    0    0  501 -0.00000000000E+00 -0.00000000000E+00 -0.94841013903E+03  0.94841013903E+03  0.00000000000E+00 0.  1.
         23    2    1    2    0    0  0.17176320411E+02 -0.17161470708E+02  0.34721770837E+01  0.94614354586E+02  0.91379855660E+02 0.  0.
    9900016    2    1    2    0    0 -0.28628051549E+03  0.38002843223E+03  0.94686735492E+03  0.24954975846E+04  0.22593300476E+04 0.  0.
         24    2    4    4    0    0 -0.60360059439E+03 -0.77574593602E+03  0.17209867654E+03  0.10011491108E+04  0.81031800680E+02 0.  0.
        -15    1    3    3    0    0  0.38544049001E+02 -0.24893015213E+02  0.33605227677E+02  0.56873695563E+02  0.00000000000E+00 0.  1.
        -15    1    5    5    0    0 -0.47094203068E+02 -0.10125747595E+03  0.14175446501E+02  0.11256946159E+03  0.00000000000E+00 0.  1.
         15    1    4    4    0    0  0.37651832895E+03  0.10716041557E+04  0.72806307669E+03  0.13491394895E+04  0.00000000000E+00 0. -1.
         15    1    3    3    0    0 -0.21367728590E+02  0.77315445044E+01 -0.30133050593E+02  0.37740659024E+02  0.00000000000E+00 0. -1.
        -16    1    1    2    0    0  0.26910419508E+03 -0.36286696152E+03  0.26846340164E+03  0.52551127257E+03  0.00000000000E+00 0.  1.
         16    1    5    5    0    0 -0.55650639133E+03 -0.67448846007E+03  0.15792323004E+03  0.88857964918E+03  0.00000000000E+00 0. -1.
    9900018    1    4    4    0    0 -0.59198250047E+02  0.84170212553E+02  0.46705601690E+02  0.14520898427E+03  0.91187600000E+02 0.  0.
<mgrwt>
<rscale>  0 0.11892626E+04</rscale>
<asrwt>0</asrwt>
<pdfrwt beam="1">  1        1 0.33341739E+00 0.27657667E+04</pdfrwt>
<pdfrwt beam="2">  1       -1 0.14590925E+00 0.27657667E+04</pdfrwt>
<totfact> 0.74571898E-01</totfact>
</mgrwt>
</event>
<event>
12    1  0.3949490E-013  0.2679950E+04  0.7818608E-02  0.9090523E-01
          1   -1    0    0  501    0  0.00000000000E+00  0.00000000000E+00  0.11490431598E+04  0.11490431598E+04  0.00000000000E+00 0. -1.
         -1   -1    0    0    0  501 -0.00000000000E+00 -0.00000000000E+00 -0.17069688947E+04  0.17069688947E+04  0.00000000000E+00 0.  1.
         23    2    1    2    0    0 -0.31570877981E+02  0.59901697093E+02 -0.53759740378E+02  0.12905116351E+03  0.95807930077E+02 0.  0.
    9900016    2    1    2    0    0  0.17384583743E+03  0.29010243317E+03 -0.58139027229E+03  0.23413332929E+04  0.22426424465E+04 0.  0.
        -24    2    4    4    0    0  0.59691786930E+03  0.85168156715E+03  0.36228444730E+03  0.11043237374E+04  0.81292445283E+02 0.  0.
        -15    1    3    3    0    0  0.22702819260E+02  0.56018190093E+02 -0.41370739298E+02  0.73246117260E+02  0.00000000000E+00 0.  1.
        -15    1    4    4    0    0 -0.43546839091E+03 -0.55031574498E+03 -0.87488816798E+03  0.11215656223E+04  0.00000000000E+00 0.  1.
         15    1    3    3    0    0 -0.54273697241E+02  0.38835070003E+01 -0.12389001080E+02  0.55805046246E+02  0.00000000000E+00 0. -1.
         15    1    5    5    0    0  0.25665063067E+03  0.30058879586E+03  0.12491934839E+03  0.41452142770E+03  0.00000000000E+00 0. -1.
        -16    1    5    5    0    0  0.34026723863E+03  0.55109277128E+03  0.23736509891E+03  0.68980230967E+03  0.00000000000E+00 0.  1.
         16    1    1    2    0    0 -0.14227495944E+03 -0.35000413026E+03  0.77224277765E+02  0.38562759803E+03  0.00000000000E+00 0. -1.
    9900018    1    4    4    0    0  0.12396359039E+02 -0.11263389002E+02 -0.68786551612E+02  0.11544393326E+03  0.91187600000E+02 0.  0.
<mgrwt>
<rscale>  0 0.12258532E+04</rscale>
<asrwt>0</asrwt>
<pdfrwt beam="1">  1        1 0.17677587E+00 0.26799501E+04</pdfrwt>
<pdfrwt beam="2">  1       -1 0.26261060E+00 0.26799501E+04</pdfrwt>
<totfact> 0.58566399E-01</totfact>
</mgrwt>
</event>
<event>
12    1  0.3949490E-013  0.4068848E+04  0.7818608E-02  0.8852041E-01
         -2   -1    0    0    0  501 -0.00000000000E+00  0.00000000000E+00  0.17359915128E+04  0.17359915128E+04  0.00000000000E+00 0. -1.
          2   -1    0    0  501    0  0.00000000000E+00 -0.00000000000E+00 -0.24973731692E+04  0.24973731692E+04  0.00000000000E+00 0.  1.
         23    2    1    2    0    0  0.15344783487E+01 -0.25878517558E+02  0.25043492355E+02  0.89213786531E+02  0.81608032099E+02 0.  0.
    9900016    2    1    2    0    0  0.12219244838E+04  0.58613795735E+03 -0.96699033824E+03  0.27864520115E+04  0.22344098436E+04 0.  0.
        -24    2    4    4    0    0 -0.46965570512E+03 -0.38316839029E+03 -0.21815185636E+03  0.64922204782E+03  0.80650717776E+02 0.  0.
        -15    1    3    3    0    0  0.17328867351E+02 -0.13445707390E+02  0.51506642891E+02  0.55982237833E+02  0.00000000000E+00 0. -1.
        -15    1    4    4    0    0  0.16329304024E+04  0.95094403832E+03 -0.68433879501E+03  0.20097452201E+04  0.00000000000E+00 0.  1.
         15    1    5    5    0    0 -0.22182983894E+03 -0.21188594256E+03 -0.14449831786E+03  0.33909275127E+03  0.00000000000E+00 0. -1.
         15    1    3    3    0    0 -0.15794389002E+02 -0.12432810168E+02 -0.26463150536E+02  0.33231548699E+02  0.00000000000E+00 0.  1.
        -16    1    5    5    0    0 -0.24782586618E+03 -0.17128244773E+03 -0.73653538501E+02  0.31012929656E+03  0.00000000000E+00 0.  1.
         16    1    1    2    0    0 -0.12234589621E+04 -0.56025943979E+03  0.18056518952E+03  0.13576988840E+04  0.00000000000E+00 0. -1.
    9900018    1    4    4    0    0  0.58649786437E+02  0.18362309320E+02 -0.64499686872E+02  0.12748474361E+03  0.91187600000E+02 0.  0.
<mgrwt>
<rscale>  0 0.15497292E+04</rscale>
<asrwt>0</asrwt>
<pdfrwt beam="1">  1        2 0.38421126E+00 0.40688478E+04</pdfrwt>
<pdfrwt beam="2">  1       -2 0.26707562E+00 0.40688478E+04</pdfrwt>
<totfact> 0.13790691E-01</totfact>
</mgrwt>
</event>
<event>
12    1  0.3949490E-013  0.2769737E+04  0.7818608E-02  0.8312726E-01
          1   -1    0    0  501    0  0.00000000000E+00  0.00000000000E+00  0.17661440370E+04  0.17661440370E+04  0.00000000000E+00 0. -1.
         -1   -1    0    0    0  501 -0.00000000000E+00 -0.00000000000E+00 -0.10859025089E+04  0.10859025089E+04  0.00000000000E+00 0.  1.
         23    2    1    2    0    0 -0.27727395211E+03 -0.76442964215E+02 -0.15698193348E+03  0.34162317336E+03  0.96636917579E+02 0.  0.
    9900016    2    1    2    0    0  0.17810112808E+03 -0.11660543027E+00  0.83150673499E+03  0.23192832386E+04  0.21577653406E+04 0.  0.
         24    2    4    4    0    0 -0.80454526467E+02  0.50132404526E+03 -0.59440628826E+03  0.78581602257E+03  0.79932825747E+02 0.  0.
        -15    1    3    3    0    0 -0.27216197907E+03 -0.62699871232E+02 -0.12410201497E+03  0.30562186902E+03  0.00000000000E+00 0.  1.
        -15    1    5    5    0    0 -0.11314466060E+02  0.26955623459E+03 -0.35065705211E+03  0.44243524831E+03  0.00000000000E+00 0.  1.
         15    1    3    3    0    0 -0.51119730411E+01 -0.13743092982E+02 -0.32879918503E+02  0.36001304336E+02  0.00000000000E+00 0. -1.
         15    1    4    4    0    0  0.25855565455E+03 -0.50144065069E+03  0.14259130232E+04  0.15334672160E+04  0.00000000000E+00 0. -1.
        -16    1    1    2    0    0  0.53301594227E+02  0.70721872956E+02 -0.22591097522E+01  0.88587509494E+02  0.00000000000E+00 0.  1.
         16    1    5    5    0    0 -0.69140060407E+02  0.23176781067E+03 -0.24374923614E+03  0.34338077427E+03  0.00000000000E+00 0. -1.
    9900018    1    1    2    0    0  0.45871229798E+02  0.58376966892E+01  0.79758363157E+01  0.10255262446E+03  0.91187600000E+02 0.  0.
<mgrwt>
<rscale>  0 0.27697366E+04</rscale>
<asrwt>0</asrwt>
<pdfrwt beam="1">  1        1 0.27171447E+00 0.27697366E+04</pdfrwt>
<pdfrwt beam="2">  1       -1 0.16706192E+00 0.27697366E+04</pdfrwt>
<totfact> 0.96456033E-01</totfact>
</mgrwt>
</event>
<event>
12    1  0.3949490E-013  0.3792038E+04  0.7818608E-02  0.8047866E-01
          1   -1    0    0  501    0  0.00000000000E+00  0.00000000000E+00  0.22463966812E+04  0.22463966812E+04  0.00000000000E+00 0. -1.
         -1   -1    0    0    0  501 -0.00000000000E+00 -0.00000000000E+00 -0.16002905060E+04  0.16002905060E+04  0.00000000000E+00 0.  1.
         23    2    1    2    0    0 -0.84835751504E+01  0.16798657253E+03  0.14089774182E+02  0.19096052385E+03  0.89308120201E+02 0.  0.
    9900016    2    1    2    0    0 -0.70784595003E+02 -0.26970554176E+03 -0.65305508403E+03  0.23642008552E+04  0.22550417297E+04 0.  0.
        -24    2    4    4    0    0  0.10537827061E+04 -0.16675027357E+03 -0.43877414567E+03  0.11561178964E+04  0.76303303243E+02 0.  0.
        -15    1    3    3    0    0  0.23767449292E+02  0.35516628025E+02 -0.24506332125E+02  0.49263402504E+02  0.00000000000E+00 0.  1.
        -15    1    4    4    0    0 -0.10645262950E+04 -0.67132230639E+02 -0.15209889895E+03  0.10774307608E+04  0.00000000000E+00 0.  1.
         15    1    3    3    0    0 -0.32251024442E+02  0.13246994451E+03  0.38596106307E+02  0.14169712134E+03  0.00000000000E+00 0. -1.
         15    1    5    5    0    0  0.89294298897E+03 -0.11531100665E+03 -0.35787914285E+03  0.96887630309E+03  0.00000000000E+00 0. -1.
        -16    1    5    5    0    0  0.16083971709E+03 -0.51439266915E+02 -0.80895002818E+02  0.18724159329E+03  0.00000000000E+00 0.  1.
         16    1    1    2    0    0  0.79268170154E+02  0.10171896923E+03  0.12850714851E+04  0.12915258082E+04  0.00000000000E+00 0. -1.
    9900018    1    4    4    0    0 -0.60041006031E+02 -0.35823037550E+02 -0.62182039402E+02  0.13065219800E+03  0.91187600000E+02 0.  0.
<mgrwt>
<rscale>  0 0.37920376E+04</rscale>
<asrwt>0</asrwt>
<pdfrwt beam="1">  1        1 0.34559949E+00 0.37920376E+04</pdfrwt>
<pdfrwt beam="2">  1       -1 0.24619854E+00 0.37920376E+04</pdfrwt>
<totfact> 0.11905681E-01</totfact>
</mgrwt>
</event>
<event>
12    1  0.3949490E-013  0.3397598E+04  0.7818608E-02  0.8883424E-01
         -2   -1    0    0    0  501 -0.00000000000E+00  0.00000000000E+00  0.66110985738E+03  0.66110985738E+03  0.00000000000E+00 0.  1.
          2   -1    0    0  501    0  0.00000000000E+00 -0.00000000000E+00 -0.47254553952E+04  0.47254553952E+04  0.00000000000E+00 0. -1.
         23    2    1    2    0    0 -0.48316236511E+02 -0.81983479138E+02 -0.22574069790E+03  0.26030326021E+03  0.87995312531E+02 0.  0.
    9900016    2    1    2    0    0 -0.45339359737E+01  0.63180691406E+03 -0.16362850853E+04  0.28557309417E+04  0.22535682368E+04 0.  0.
        -24    2    4    4    0    0  0.75716300952E+03 -0.19325171077E+03 -0.14001925136E+04  0.16055696447E+04  0.81686976893E+02 0.  0.
        -15    1    4    4    0    0 -0.80421533088E+03  0.75661827352E+03 -0.19213503149E+03  0.11207807014E+04  0.00000000000E+00 0.  1.
        -15    1    3    3    0    0 -0.35403615374E+02 -0.93528567949E+02 -0.13545929883E+03  0.16837526731E+03  0.00000000000E+00 0.  1.
         15    1    5    5    0    0  0.25813509167E+03 -0.74268350526E+02 -0.40587786041E+03  0.48670971945E+03  0.00000000000E+00 0. -1.
         15    1    3    3    0    0 -0.12912621137E+02  0.11545088811E+02 -0.90281399069E+02  0.91927992897E+02  0.00000000000E+00 0. -1.
        -16    1    5    5    0    0  0.49902791786E+03 -0.11898336025E+03 -0.99431465319E+03  0.11188599253E+04  0.00000000000E+00 0.  1.
         16    1    1    2    0    0  0.52850172485E+02 -0.54982343492E+03 -0.22023197546E+04  0.22705310506E+04  0.00000000000E+00 0. -1.
    9900018    1    4    4    0    0  0.42518385387E+02  0.68440351315E+02 -0.43957540175E+02  0.12938059559E+03  0.91187600000E+02 0.  0.
<mgrwt>
<rscale>  0 0.15015480E+04</rscale>
<asrwt>0</asrwt>
<pdfrwt beam="1">  1        2 0.72699314E+00 0.33975984E+04</pdfrwt>
<pdfrwt beam="2">  1       -2 0.10170921E+00 0.33975984E+04</pdfrwt>
<totfact> 0.46927435E-02</totfact>
</mgrwt>
</event>
