<event>
13    1  0.8251548E-007  0.4108940E+04  0.7818608E-02  0.7982923E-01
         -2   -1    0    0    0  501 -0.00000000000E+00  0.00000000000E+00  0.24554336261E+04  0.24554336261E+04  0.00000000000E+00 0.  1.
          2   -1    0    0  501    0  0.00000000000E+00 -0.00000000000E+00 -0.17189825940E+04  0.17189825940E+04  0.00000000000E+00 0. -1.
    9900016    2    1    2    0    0 -0.17009180108E+03  0.29497954112E+03  0.55299134955E+02  0.18815873562E+04  0.18496942542E+04 0.  0.
         24    2    3    3    0    0  0.38251919678E+03 -0.50214907139E+03  0.50514597283E+03  0.81240303278E+03  0.79696976111E+02 0.  0.
    9900016    2    1    2    0    0 -0.82681051957E+02 -0.16484680359E+03  0.42618811721E+03  0.19002090070E+04  0.18425925578E+04 0.  0.
        -24    2    5    5    0    0 -0.15702630586E+03  0.15709934323E+03 -0.69200101408E+03  0.73422295581E+03  0.10430954403E+03 0.  0.
        -15    1    4    4    0    0  0.74938853364E+02 -0.10703403982E+03  0.14763678132E+03  0.19715155749E+03  0.00000000000E+00 0.  1.
        -15    1    5    5    0    0  0.74345253901E+02 -0.32194614681E+03  0.11181891313E+04  0.11659860512E+04  0.00000000000E+00 0.  1.
         15    1    3    3    0    0 -0.55261099786E+03  0.79712861251E+03 -0.44984683787E+03  0.10691843234E+04  0.00000000000E+00 0. -1.
         15    1    6    6    0    0 -0.80036874917E+02  0.38719788847E+02 -0.15229561559E+03  0.17634930656E+03  0.00000000000E+00 0. -1.
        -16    1    6    6    0    0 -0.76989430941E+02  0.11837955438E+03 -0.53970539849E+03  0.55787364925E+03  0.00000000000E+00 0.  1.
         16    1    4    4    0    0  0.30758034341E+03 -0.39511503157E+03  0.35750919151E+03  0.61525147529E+03  0.00000000000E+00 0. -1.
    9900018    1    1    2    0    0  0.25277285304E+03 -0.13013273754E+03  0.25496377991E+03  0.39261985695E+03  0.91187600000E+02 0.  0.
<mgrwt>
<rscale>  0 0.41089403E+04</rscale>
<asrwt>0</asrwt>
<pdfrwt beam="1">  1        2 0.26445886E+00 0.41089403E+04</pdfrwt>
<pdfrwt beam="2">  1       -2 0.37775902E+00 0.41089403E+04</pdfrwt>
<totfact> 0.77447337E-02</totfact>
</mgrwt>
</event>
<event>
13    1  0.8251550E-007  0.5269151E+04  0.7818608E-02  0.7788278E-01
          2   -1    0    0  501    0  0.00000000000E+00  0.00000000000E+00  0.34835400027E+04  0.34835400027E+04  0.00000000000E+00 0. -1.
         -2   -1    0    0    0  501 -0.00000000000E+00 -0.00000000000E+00 -0.19925096892E+04  0.19925096892E+04  0.00000000000E+00 0.  1.
    9900016    2    1    2    0    0  0.52513480321E+03 -0.11148174687E+04 -0.66408621387E+02  0.22147718154E+04  0.18390811671E+04 0.  0.
         24    2    3    3    0    0  0.96075056279E+03 -0.38522346730E+03 -0.61185478414E+03  0.12050292673E+04  0.79312637655E+02 0.  0.
    9900016    2    1    2    0    0 -0.74657925156E+03  0.57656057306E+03  0.64249378109E+03  0.21730692834E+04  0.18492239395E+04 0.  0.
        -24    2    5    5    0    0  0.51741728379E+03  0.30166705152E+03  0.64093694303E+03  0.87952527047E+03  0.63567923654E+02 0.  0.
        -15    1    4    4    0    0  0.28269179381E+03 -0.14509145273E+03 -0.21283006610E+03  0.38244322060E+03  0.00000000000E+00 0.  1.
        -15    1    5    5    0    0 -0.12639965354E+04  0.27489352154E+03  0.15568380612E+01  0.12935440129E+04  0.00000000000E+00 0.  1.
         15    1    6    6    0    0  0.29682718949E+03  0.13742352900E+03  0.33734560445E+03  0.46988686254E+03  0.00000000000E+00 0. -1.
         15    1    3    3    0    0 -0.43561575959E+03 -0.72959400144E+03  0.54544616276E+03  0.10097425481E+04  0.00000000000E+00 0. -1.
        -16    1    6    6    0    0  0.22059009430E+03  0.16424352252E+03  0.30359133858E+03  0.40963840793E+03  0.00000000000E+00 0.  1.
         16    1    4    4    0    0  0.67805876898E+03 -0.24013201457E+03 -0.39902471804E+03  0.82258604670E+03  0.00000000000E+00 0. -1.
    9900018    1    1    2    0    0  0.22144444836E+03  0.53825689568E+03  0.91494515375E+03  0.10882085932E+04  0.91187600000E+02 0.  0.
<mgrwt>
<rscale>  0 0.52691507E+04</rscale>
<asrwt>0</asrwt>
<pdfrwt beam="1">  1        2 0.53592923E+00 0.52691507E+04</pdfrwt>
<pdfrwt beam="2">  1       -2 0.30653995E+00 0.52691507E+04</pdfrwt>
<totfact> 0.17207840E-02</totfact>
</mgrwt>
</event>
<event>
13    1  0.8251548E-007  0.4823391E+04  0.7818608E-02  0.7856344E-01
          1   -1    0    0  501    0  0.00000000000E+00  0.00000000000E+00  0.14498105087E+04  0.14498105087E+04  0.00000000000E+00 0. -1.
         -1   -1    0    0    0  501 -0.00000000000E+00 -0.00000000000E+00 -0.40117481932E+04  0.40117481932E+04  0.00000000000E+00 0.  1.
    9900016    2    1    2    0    0 -0.89373085237E+03  0.79739885595E+03 -0.34199080435E+03  0.22221321488E+04  0.18401939584E+04 0.  0.
         24    2    3    3    0    0  0.24080504354E+02 -0.49315335254E+03 -0.39695713088E+03  0.63754261630E+03  0.71452949784E+02 0.  0.
    9900016    2    1    2    0    0  0.70692664461E+03 -0.61732665120E+03 -0.18379431892E+04  0.27687209028E+04  0.18457905613E+04 0.  0.
        -24    2    5    5    0    0  0.94551285509E+02  0.56973481833E+03 -0.12796499104E+03  0.59889511466E+03  0.93608817049E+02 0.  0.
        -15    1    5    5    0    0  0.61237535910E+03 -0.11870614695E+04 -0.17099781982E+04  0.21698257882E+04  0.00000000000E+00 0.  1.
        -15    1    4    4    0    0 -0.40784038247E+01 -0.30060716799E+03 -0.20272020929E+03  0.36259727809E+03  0.00000000000E+00 0.  1.
         15    1    6    6    0    0  0.74441736725E+02  0.23186023197E+03 -0.83904484056E+02  0.25756688797E+03  0.00000000000E+00 0. -1.
         15    1    3    3    0    0 -0.91781135672E+03  0.12905522085E+04  0.54966326522E+02  0.15845895325E+04  0.00000000000E+00 0. -1.
        -16    1    6    6    0    0  0.20109548784E+02  0.33787458636E+03 -0.44060506979E+02  0.34132822669E+03  0.00000000000E+00 0.  1.
         16    1    4    4    0    0  0.28158908178E+02 -0.19254618455E+03 -0.19423692159E+03  0.27494533821E+03  0.00000000000E+00 0. -1.
    9900018    1    1    2    0    0  0.18680420776E+03 -0.18007220475E+03 -0.38200369093E+03  0.47070565032E+03  0.91187600000E+02 0.  0.
<mgrwt>
<rscale>  0 0.48233908E+04</rscale>
<asrwt>0</asrwt>
<pdfrwt beam="1">  1        1 0.22304777E+00 0.48233908E+04</pdfrwt>
<pdfrwt beam="2">  1       -1 0.61719202E+00 0.48233908E+04</pdfrwt>
<totfact> 0.19869393E-03</totfact>
</mgrwt>
</event>
<event>
12    1  0.8251548E-007  0.5091060E+04  0.7818608E-02  0.7814612E-01
         -2   -1    0    0    0  501 -0.00000000000E+00  0.00000000000E+00  0.26375337864E+04  0.26375337864E+04  0.00000000000E+00 0.  1.
          2   -1    0    0  501    0  0.00000000000E+00 -0.00000000000E+00 -0.24567358537E+04  0.24567358537E+04  0.00000000000E+00 0. -1.
    9900016    2    1    2    0    0  0.14867961176E+04 -0.43909090442E+03  0.20694496521E+03  0.24185818499E+04  0.18448166381E+04 0.  0.
        -24    2    3    3    0    0  0.67062309676E+03  0.54883123134E+03  0.62410128173E+03  0.10709365187E+04  0.80321596076E+02 0.  0.
    9900016    2    1    2    0    0 -0.95586050241E+03  0.19690028853E+03 -0.60741293682E+01  0.20846996163E+04  0.18421445578E+04 0.  0.
        -15    1    5    5    0    0  0.12025376868E+02  0.74482060930E+02  0.37038645435E+02  0.84047893161E+02  0.00000000000E+00 0.  1.
        -15    1    3    3    0    0  0.81617302081E+03 -0.98792213576E+03 -0.41715631651E+03  0.13476453312E+04  0.00000000000E+00 0.  1.
         15    1    5    5    0    0 -0.11405496607E+04 -0.50756426702E+03 -0.32377698575E+03  0.12896924246E+04  0.00000000000E+00 0. -1.
         15    1    4    4    0    0  0.48146574726E+03  0.43691625975E+03  0.47942679562E+03  0.80780884878E+03  0.00000000000E+00 0. -1.
        -16    1    4    4    0    0  0.18915734950E+03  0.11191497159E+03  0.14467448611E+03  0.26312766990E+03  0.00000000000E+00 0.  1.
         16    1    5    5    0    0  0.17266378138E+03  0.62998249462E+03  0.28066421095E+03  0.71095929858E+03  0.00000000000E+00 0. -1.
    9900018    1    1    2    0    0 -0.53093561516E+03  0.24219061589E+03 -0.20072903149E+02  0.59098817392E+03  0.91187600000E+02 0.  0.
<mgrwt>
<rscale>  0 0.50910603E+04</rscale>
<asrwt>0</asrwt>
<pdfrwt beam="1">  1        2 0.37795936E+00 0.50910603E+04</pdfrwt>
<pdfrwt beam="2">  1       -2 0.40577443E+00 0.50910603E+04</pdfrwt>
<totfact> 0.18150130E-02</totfact>
</mgrwt>
</event>
<event>
13    1  0.8251548E-007  0.4594505E+04  0.7818608E-02  0.7894297E-01
         -2   -1    0    0    0  501 -0.00000000000E+00  0.00000000000E+00  0.15855130613E+04  0.15855130613E+04  0.00000000000E+00 0.  1.
          2   -1    0    0  501    0  0.00000000000E+00 -0.00000000000E+00 -0.33284929406E+04  0.33284929406E+04  0.00000000000E+00 0. -1.
    9900016    2    1    2    0    0 -0.90359870276E+01 -0.39236777347E+03 -0.40835346697E+03  0.19304264224E+04  0.18454699942E+04 0.  0.
        -24    2    3    3    0    0 -0.65463920772E+03 -0.63985745107E+03  0.27405274503E+03  0.95896726355E+03  0.80890392145E+02 0.  0.
    9900016    2    1    2    0    0  0.45934227519E+03 -0.14789571819E+03 -0.69437870358E+03  0.20281253940E+04  0.18434376476E+04 0.  0.
         24    2    5    5    0    0 -0.56633875669E+03  0.25539434793E+03 -0.68318558459E+03  0.92595038862E+03  0.68379228586E+02 0.  0.
        -15    1    6    6    0    0 -0.33164708540E+03  0.15717161811E+03 -0.45152296481E+03  0.58186398285E+03  0.00000000000E+00 0.  1.
        -15    1    3    3    0    0  0.64560322069E+03  0.24748967760E+03 -0.68240621200E+03  0.97145915882E+03  0.00000000000E+00 0.  1.
         15    1    5    5    0    0  0.10256810319E+04 -0.40329006612E+03 -0.11193118992E+02  0.11021750054E+04  0.00000000000E+00 0. -1.
         15    1    4    4    0    0 -0.45062052757E+03 -0.40220976790E+03  0.20837689373E+03  0.63894638828E+03  0.00000000000E+00 0. -1.
        -16    1    4    4    0    0 -0.20401868015E+03 -0.23764768317E+03  0.65675851299E+02  0.32002087527E+03  0.00000000000E+00 0.  1.
         16    1    6    6    0    0 -0.23469167129E+03  0.98222729821E+02 -0.23166261979E+03  0.34408640576E+03  0.00000000000E+00 0. -1.
    9900018    1    1    2    0    0 -0.45030628816E+03  0.54026349166E+03 -0.64024770872E+03  0.95545418545E+03  0.91187600000E+02 0.  0.
<mgrwt>
<rscale>  0 0.45945050E+04</rscale>
<asrwt>0</asrwt>
<pdfrwt beam="1">  1        2 0.51207583E+00 0.45945050E+04</pdfrwt>
<pdfrwt beam="2">  1       -2 0.24392509E+00 0.45945050E+04</pdfrwt>
<totfact> 0.56072059E-02</totfact>
</mgrwt>
</event>
<event>
12    1  0.8251548E-007  0.5168092E+04  0.7818608E-02  0.7803088E-01
         -1   -1    0    0    0  501 -0.00000000000E+00  0.00000000000E+00  0.22812913316E+04  0.22812913316E+04  0.00000000000E+00 0.  1.
          1   -1    0    0  501    0  0.00000000000E+00 -0.00000000000E+00 -0.29269804018E+04  0.29269804018E+04  0.00000000000E+00 0. -1.
    9900016    2    1    2    0    0  0.15388136074E+04 -0.16142801401E+03  0.40532350600E+03  0.24418258404E+04  0.18450528362E+04 0.  0.
        -24    2    3    3    0    0  0.29339903865E+03 -0.39865263081E+03 -0.62993465441E+03  0.80503250413E+03  0.79074319131E+02 0.  0.
    9900016    2    1    2    0    0 -0.12496000268E+04  0.86697295369E+02 -0.10493210247E+04  0.24541203974E+04  0.18310149273E+04 0.  0.
        -15    1    3    3    0    0  0.12454145687E+04  0.23722461680E+03  0.10352581604E+04  0.16367933362E+04  0.00000000000E+00 0.  1.
        -15    1    5    5    0    0 -0.45267375741E+02 -0.27097922753E+03 -0.75149256063E+02  0.28482676796E+03  0.00000000000E+00 0.  1.
         15    1    4    4    0    0  0.17681579808E+03 -0.25333191473E+03 -0.33080432929E+03  0.45262831302E+03  0.00000000000E+00 0. -1.
         15    1    5    5    0    0 -0.10928142273E+04  0.87521071181E+03 -0.79690260016E+03  0.16109905275E+04  0.00000000000E+00 0. -1.
        -16    1    4    4    0    0  0.11658324058E+03 -0.14532071608E+03 -0.29913032513E+03  0.35240419111E+03  0.00000000000E+00 0.  1.
         16    1    5    5    0    0 -0.11151842372E+03 -0.51753418890E+03 -0.17726916849E+03  0.55830310192E+03  0.00000000000E+00 0. -1.
    9900018    1    1    2    0    0 -0.28921358059E+03  0.74730718640E+02 -0.16915515220E+01  0.31232549567E+03  0.91187600000E+02 0.  0.
<mgrwt>
<rscale>  0 0.51680925E+04</rscale>
<asrwt>0</asrwt>
<pdfrwt beam="1">  1        1 0.45030468E+00 0.51680925E+04</pdfrwt>
<pdfrwt beam="2">  1       -1 0.35096790E+00 0.51680925E+04</pdfrwt>
<totfact> 0.73679669E-03</totfact>
</mgrwt>
</event>
<event>
13    1  0.8251548E-007  0.5176352E+04  0.7818608E-02  0.7801864E-01
          2   -1    0    0  501    0  0.00000000000E+00  0.00000000000E+00  0.35557989731E+04  0.35557989731E+04  0.00000000000E+00 0. -1.
         -2   -1    0    0    0  501 -0.00000000000E+00 -0.00000000000E+00 -0.18838680338E+04  0.18838680338E+04  0.00000000000E+00 0.  1.
    9900016    2    1    2    0    0 -0.68904726712E+03  0.63156841503E+03  0.23177178715E+04  0.31048195573E+04  0.18423961442E+04 0.  0.
         24    2    3    3    0    0 -0.54737081887E+03 -0.59786354939E+03  0.74427678823E+03  0.11029973840E+04  0.74830838984E+02 0.  0.
    9900016    2    1    2    0    0  0.65591519076E+03 -0.52934960756E+03 -0.42415091051E+03  0.20721991609E+04  0.18449036894E+04 0.  0.
        -24    2    5    5    0    0 -0.24753854632E+03 -0.16481791595E+03  0.58843140619E+03  0.66705327622E+03  0.10133250313E+03 0.  0.
        -15    1    4    4    0    0 -0.34973122177E+03 -0.41153702565E+03  0.53399172017E+03  0.75948785913E+03  0.00000000000E+00 0.  1.
        -15    1    5    5    0    0  0.90345373708E+03 -0.36453169161E+03 -0.10125823167E+04  0.14051458847E+04  0.00000000000E+00 0.  1.
         15    1    3    3    0    0 -0.14167644824E+03  0.12294319644E+04  0.15734410833E+04  0.20018221733E+04  0.00000000000E+00 0. -1.
         15    1    6    6    0    0 -0.16581513666E+03 -0.50342241858E+02  0.33763483107E+03  0.37950794460E+03  0.00000000000E+00 0. -1.
        -16    1    6    6    0    0 -0.81723409659E+02 -0.11447567409E+03  0.25079657512E+03  0.28754533162E+03  0.00000000000E+00 0.  1.
         16    1    4    4    0    0 -0.19763959710E+03 -0.18632652374E+03  0.21028506807E+03  0.34350952482E+03  0.00000000000E+00 0. -1.
    9900018    1    1    2    0    0  0.33132076356E+02 -0.10221880747E+03 -0.22163602161E+03  0.26264828870E+03  0.91187600000E+02 0.  0.
<mgrwt>
<rscale>  0 0.51763524E+04</rscale>
<asrwt>0</asrwt>
<pdfrwt beam="1">  1        2 0.54704599E+00 0.51763524E+04</pdfrwt>
<pdfrwt beam="2">  1       -2 0.28982585E+00 0.51763524E+04</pdfrwt>
<totfact> 0.19508552E-02</totfact>
</mgrwt>
</event>
<event>
13    1  0.8251548E-007  0.7014513E+04  0.7818608E-02  0.7575940E-01
          1   -1    0    0  501    0  0.00000000000E+00  0.00000000000E+00  0.30289555224E+04  0.30289555224E+04  0.00000000000E+00 0. -1.
         -1   -1    0    0    0  501 -0.00000000000E+00 -0.00000000000E+00 -0.40610862210E+04  0.40610862210E+04  0.00000000000E+00 0.  1.
    9900016    2    1    2    0    0 -0.21540080949E+04 -0.91509816634E+03 -0.10164108589E+04  0.31514701301E+04  0.18497344187E+04 0.  0.
        -24    2    3    3    0    0 -0.19818741705E+03  0.48954464172E+03  0.97017843046E+01  0.53399747528E+03  0.78274967095E+02 0.  0.
    9900016    2    1    2    0    0  0.56438636611E+03 -0.33745043032E+02 -0.53406478244E+03  0.20139424712E+04  0.18577051400E+04 0.  0.
         24    2    5    5    0    0  0.38185998486E+03  0.48863750250E+03 -0.10735289097E+04  0.12411417542E+04  0.58179697353E+02 0.  0.
        -15    1    3    3    0    0 -0.19558206778E+04 -0.14046428081E+04 -0.10261126432E+04  0.26174726548E+04  0.00000000000E+00 0.  1.
        -15    1    6    6    0    0  0.14432245478E+03  0.15225882959E+03 -0.40076238450E+03  0.45235186632E+03  0.00000000000E+00 0.  1.
         15    1    4    4    0    0 -0.12125690569E+03  0.31154482153E+03 -0.31382253552E+02  0.33578007510E+03  0.00000000000E+00 0. -1.
         15    1    5    5    0    0  0.18252638125E+03 -0.52238254553E+03  0.53946412721E+03  0.77280071706E+03  0.00000000000E+00 0. -1.
        -16    1    4    4    0    0 -0.76930511360E+02  0.17799982019E+03  0.41084037856E+02  0.19821740018E+03  0.00000000000E+00 0.  1.
         16    1    6    6    0    0  0.23753753008E+03  0.33637867291E+03 -0.67276652516E+03  0.78878988784E+03  0.00000000000E+00 0. -1.
    9900018    1    1    2    0    0  0.15896217288E+04  0.94884320938E+03  0.51834494271E+03  0.19246291421E+04  0.91187600000E+02 0.  0.
<mgrwt>
<rscale>  0 0.70145134E+04</rscale>
<asrwt>0</asrwt>
<pdfrwt beam="1">  1        1 0.46599316E+00 0.70145134E+04</pdfrwt>
<pdfrwt beam="2">  1       -1 0.62478250E+00 0.70145134E+04</pdfrwt>
<totfact> 0.12942995E-04</totfact>
</mgrwt>
</event>
