<event>
12    1  0.2642003E-009  0.2810735E+04  0.7818608E-02  0.8299943E-01
          1   -1    0    0  501    0  0.00000000000E+00  0.00000000000E+00  0.26424238703E+04  0.26424238703E+04  0.00000000000E+00 0. -1.
         -1   -1    0    0    0  501 -0.00000000000E+00 -0.00000000000E+00 -0.74744191384E+03  0.74744191384E+03  0.00000000000E+00 0.  1.
    9900016    2    1    2    0    0 -0.50973864420E+03 -0.67199246205E+02  0.13292897177E+04  0.26254333587E+04  0.22048900071E+04 0.  0.
         23    2    3    3    0    0 -0.11416670897E+02  0.15821345738E+03  0.33181486830E+03  0.37905536891E+03  0.91760707280E+02 0.  0.
        -24    2    3    3    0    0  0.35633921004E+03  0.54024352391E+03  0.47883936818E+02  0.65220168790E+03  0.65065140814E+02 0.  0.
        -15    1    4    4    0    0  0.34160588018E+02  0.76830533259E+02  0.20547552100E+03  0.22201366252E+03  0.00000000000E+00 0. -1.
        -15    1    3    3    0    0 -0.79364719970E+03 -0.51404203121E+03  0.91796111493E+03  0.13178648246E+04  0.00000000000E+00 0.  1.
         15    1    5    5    0    0  0.30951800312E+02  0.33538437871E+02  0.18666822196E+02  0.49308123147E+02  0.00000000000E+00 0. -1.
         15    1    4    4    0    0 -0.45577258915E+02  0.81382924125E+02  0.12633934730E+03  0.15704170639E+03  0.00000000000E+00 0.  1.
        -16    1    5    5    0    0  0.32538740973E+03  0.50670508604E+03  0.29217114621E+02  0.60289356475E+03  0.00000000000E+00 0.  1.
         16    1    1    2    0    0  0.50973864420E+03  0.67199246205E+02  0.56569223871E+03  0.76443242541E+03  0.00000000000E+00 0. -1.
    9900018    1    3    3    0    0 -0.61013983636E+02 -0.25161419630E+03  0.31629797663E+02  0.27631147727E+03  0.91187600000E+02 0.  0.
<mgrwt>
<rscale>  0 0.28107354E+04</rscale>
<asrwt>0</asrwt>
<pdfrwt beam="1">  1        1 0.40652674E+00 0.28107354E+04</pdfrwt>
<pdfrwt beam="2">  1       -1 0.11499107E+00 0.28107354E+04</pdfrwt>
<totfact> 0.63946603E-01</totfact>
</mgrwt>
</event>
<event>
11    1  0.2642003E-009  0.2561333E+04  0.7818608E-02  0.8381455E-01
         -2   -1    0    0    0  501 -0.00000000000E+00  0.00000000000E+00  0.71700431827E+03  0.71700431827E+03  0.00000000000E+00 0.  1.
          2   -1    0    0  501    0  0.00000000000E+00 -0.00000000000E+00 -0.22874431972E+04  0.22874431972E+04  0.00000000000E+00 0. -1.
    9900016    2    1    2    0    0 -0.26605360329E+02 -0.87291902998E+02 -0.98682561412E+03  0.24137427124E+04  0.22009092138E+04 0.  0.
         23    2    3    3    0    0 -0.24561583637E+03 -0.29797496846E+03 -0.45692523121E+03  0.60501325698E+03  0.90244962764E+02 0.  0.
        -15    1    3    3    0    0  0.16262540853E+03  0.76621764307E+03 -0.73191235474E+03  0.10720224788E+04  0.00000000000E+00 0.  1.
        -15    1    4    4    0    0 -0.25246101990E+03 -0.28777570566E+03 -0.45037876817E+03  0.59109428872E+03  0.00000000000E+00 0. -1.
         15    1    3    3    0    0 -0.34065691915E+02 -0.43939696215E+03  0.49932122756E+02  0.44353509285E+03  0.00000000000E+00 0. -1.
         15    1    4    4    0    0  0.68451835288E+01 -0.10199262799E+02 -0.65464630359E+01  0.13918968261E+02  0.00000000000E+00 0.  1.
        -16    1    3    3    0    0  0.30784837233E+02 -0.13527110136E+03  0.69862752740E+02  0.15532797973E+03  0.00000000000E+00 0.  1.
         16    1    1    2    0    0  0.26605360329E+02  0.87291902998E+02 -0.58361326484E+03  0.59070480311E+03  0.00000000000E+00 0. -1.
    9900018    1    3    3    0    0  0.59665922191E+02  0.19133485896E+02  0.82217096329E+02  0.13784390402E+03  0.91187600000E+02 0.  0.
<mgrwt>
<rscale>  0 0.25613330E+04</rscale>
<asrwt>0</asrwt>
<pdfrwt beam="1">  1        2 0.35191434E+00 0.25613330E+04</pdfrwt>
<pdfrwt beam="2">  1       -2 0.11030836E+00 0.25613330E+04</pdfrwt>
<totfact> 0.26683683E+00</totfact>
</mgrwt>
</event>
<event>
12    1  0.2642003E-009  0.2690404E+04  0.7818608E-02  0.8338125E-01
          1   -1    0    0  501    0  0.00000000000E+00  0.00000000000E+00  0.19774607036E+04  0.19774607036E+04  0.00000000000E+00 0. -1.
         -1   -1    0    0    0  501 -0.00000000000E+00 -0.00000000000E+00 -0.91509685650E+03  0.91509685650E+03  0.00000000000E+00 0.  1.
    9900016    2    1    2    0    0  0.16904142576E+02 -0.22646582807E+03  0.12926428955E+04  0.25691368411E+04  0.22086117658E+04 0.  0.
         23    2    3    3    0    0 -0.25334342166E+03 -0.19004546034E+03 -0.21140560891E+03  0.39161355312E+03  0.91480474518E+02 0.  0.
         24    2    3    3    0    0 -0.85602588439E+02  0.20197358714E+03  0.38115102018E+03  0.44405626748E+03  0.61552704677E+02 0.  0.
        -15    1    4    4    0    0 -0.12527535252E+03 -0.99262032070E+02 -0.16068512911E+03  0.22664195480E+03  0.00000000000E+00 0. -1.
        -15    1    5    5    0    0 -0.33703364698E+02  0.76020880619E+02  0.20610494138E+03  0.22224836994E+03  0.00000000000E+00 0.  1.
         15    1    4    4    0    0 -0.12806806914E+03 -0.90783428269E+02 -0.50720479799E+02  0.16497159832E+03  0.00000000000E+00 0.  1.
         15    1    3    3    0    0  0.37389982042E+03 -0.67869886737E+03  0.37553767829E+03  0.86108174763E+03  0.00000000000E+00 0. -1.
        -16    1    1    2    0    0 -0.16904142576E+02  0.22646582807E+03 -0.23027904839E+03  0.32342071895E+03  0.00000000000E+00 0.  1.
         16    1    5    5    0    0 -0.51899223741E+02  0.12595270652E+03  0.17504607880E+03  0.22180789753E+03  0.00000000000E+00 0. -1.
    9900018    1    3    3    0    0 -0.18049667737E+02  0.44030491250E+03  0.74735980590E+03  0.87238527289E+03  0.91187600000E+02 0.  0.
<mgrwt>
<rscale>  0 0.26904037E+04</rscale>
<asrwt>0</asrwt>
<pdfrwt beam="1">  1        1 0.30422472E+00 0.26904037E+04</pdfrwt>
<pdfrwt beam="2">  1       -1 0.14078413E+00 0.26904037E+04</pdfrwt>
<totfact> 0.11141136E+00</totfact>
</mgrwt>
</event>
<event>
11    1  0.2642003E-009  0.3479785E+04  0.7818608E-02  0.8118597E-01
         -2   -1    0    0    0  501 -0.00000000000E+00  0.00000000000E+00  0.13318293778E+04  0.13318293778E+04  0.00000000000E+00 0.  1.
          2   -1    0    0  501    0  0.00000000000E+00 -0.00000000000E+00 -0.22729832986E+04  0.22729832986E+04  0.00000000000E+00 0. -1.
    9900016    2    1    2    0    0  0.63393458970E+03  0.11273728531E+03  0.19269897157E+03  0.23008935298E+04  0.22005443377E+04 0.  0.
         23    2    3    3    0    0 -0.22613694596E+03  0.26797078539E+01 -0.96099620473E+02  0.26190381905E+03  0.90627668032E+02 0.  0.
        -15    1    3    3    0    0  0.71066256574E+03 -0.55900694978E+03  0.57855305813E+03  0.10734308051E+04  0.00000000000E+00 0.  1.
        -15    1    4    4    0    0 -0.67268260293E+02  0.15885145546E+02 -0.73498755003E+02  0.10089312999E+03  0.00000000000E+00 0. -1.
         15    1    3    3    0    0 -0.45592674110E+02  0.28445539595E+03 -0.89603860440E+02  0.30169921449E+03  0.00000000000E+00 0. -1.
         15    1    4    4    0    0 -0.15886868567E+03 -0.13205437692E+02 -0.22600865469E+02  0.16101068906E+03  0.00000000000E+00 0.  1.
        -16    1    3    3    0    0 -0.51667694071E+02  0.35909109392E+03 -0.70624896285E+02  0.36959956753E+03  0.00000000000E+00 0.  1.
         16    1    1    2    0    0 -0.63393458970E+03 -0.11273728531E+03 -0.11338528924E+04  0.13039191467E+04  0.00000000000E+00 0. -1.
    9900018    1    3    3    0    0  0.24666933810E+03  0.25518037372E+02 -0.12952570936E+03  0.29426012365E+03  0.91187600000E+02 0.  0.
<mgrwt>
<rscale>  0 0.34797850E+04</rscale>
<asrwt>0</asrwt>
<pdfrwt beam="1">  1        2 0.34968974E+00 0.34797850E+04</pdfrwt>
<pdfrwt beam="2">  1       -2 0.20489683E+00 0.34797850E+04</pdfrwt>
<totfact> 0.47757971E-01</totfact>
</mgrwt>
</event>
<event>
12    1  0.2642003E-009  0.2428278E+04  0.7818608E-02  0.8428992E-01
         -2   -1    0    0    0  501 -0.00000000000E+00  0.00000000000E+00  0.19249978159E+04  0.19249978159E+04  0.00000000000E+00 0.  1.
          2   -1    0    0  501    0  0.00000000000E+00 -0.00000000000E+00 -0.76578471452E+03  0.76578471452E+03  0.00000000000E+00 0. -1.
    9900016    2    1    2    0    0  0.88698053530E+02 -0.18119621172E+03  0.11357823905E+04  0.24876854845E+04  0.22040594410E+04 0.  0.
         23    2    3    3    0    0  0.44603852126E+03 -0.16535525811E+03 -0.30616441459E+03  0.57236319841E+03  0.87007231316E+02 0.  0.
        -24    2    3    3    0    0 -0.23329324013E+02 -0.29055356630E+03 -0.69997599062E+02  0.31478314761E+03  0.96037148548E+02 0.  0.
        -15    1    3    3    0    0 -0.22825535080E+03  0.27541082903E+03  0.12869170600E+04  0.13357047388E+04  0.00000000000E+00 0.  1.
        -15    1    4    4    0    0  0.42367873457E+03 -0.13271058159E+03 -0.27886320884E+03  0.52429043272E+03  0.00000000000E+00 0. -1.
         15    1    4    4    0    0  0.22359786684E+02 -0.32644676521E+02 -0.27301205750E+02  0.48072765690E+02  0.00000000000E+00 0.  1.
         15    1    5    5    0    0  0.30868357369E+02 -0.17623351503E+03 -0.25791858242E+02  0.18076594607E+03  0.00000000000E+00 0. -1.
        -16    1    5    5    0    0 -0.54197681382E+02 -0.11432005127E+03 -0.44205740821E+02  0.13401720155E+03  0.00000000000E+00 0.  1.
         16    1    1    2    0    0 -0.88698053530E+02  0.18119621172E+03  0.23430710842E+02  0.20309704590E+03  0.00000000000E+00 0. -1.
    9900018    1    3    3    0    0 -0.10575579291E+03 -0.69821635098E+00  0.22502734420E+03  0.26483439971E+03  0.91187600000E+02 0.  0.
<mgrwt>
<rscale>  0 0.24282783E+04</rscale>
<asrwt>0</asrwt>
<pdfrwt beam="1">  1        2 0.11781303E+00 0.24282783E+04</pdfrwt>
<pdfrwt beam="2">  1       -2 0.29615351E+00 0.24282783E+04</pdfrwt>
<totfact> 0.10988213E+00</totfact>
</mgrwt>
</event>
<event>
12    1  0.2642003E-009  0.3223860E+04  0.7818608E-02  0.8182544E-01
          2   -1    0    0  501    0  0.00000000000E+00  0.00000000000E+00  0.73034995002E+03  0.73034995002E+03  0.00000000000E+00 0. -1.
         -2   -1    0    0    0  501 -0.00000000000E+00 -0.00000000000E+00 -0.35576356664E+04  0.35576356664E+04  0.00000000000E+00 0.  1.
    9900016    2    1    2    0    0 -0.57611112931E+03  0.56326633167E+03 -0.24701988497E+04  0.34066888310E+04  0.22032869628E+04 0.  0.
         23    2    3    3    0    0  0.77657754705E+02  0.15840142793E+03  0.61800843193E+02  0.20798006613E+03  0.91184562567E+02 0.  0.
        -24    2    3    3    0    0  0.46438401329E+03 -0.11165939061E+03 -0.25693026049E+03  0.55086168896E+03  0.96514819031E+02 0.  0.
        -15    1    4    4    0    0  0.76380628011E+02  0.52534893053E+02  0.29799713022E+02  0.97375244388E+02  0.00000000000E+00 0. -1.
        -15    1    3    3    0    0 -0.93782646344E+03  0.62110634093E+03 -0.18320268311E+04  0.21497939138E+04  0.00000000000E+00 0.  1.
         15    1    4    4    0    0  0.12771266942E+01  0.10586653488E+03  0.32001130170E+02  0.11060482174E+03  0.00000000000E+00 0.  1.
         15    1    5    5    0    0  0.11303821035E+03 -0.63494943819E+02 -0.42485575091E+02  0.13643411956E+03  0.00000000000E+00 0. -1.
        -16    1    5    5    0    0  0.35134580294E+03 -0.48164446793E+02 -0.21444468540E+03  0.41442756939E+03  0.00000000000E+00 0.  1.
         16    1    1    2    0    0  0.57611112931E+03 -0.56326633167E+03 -0.35708686669E+03  0.88129678547E+03  0.00000000000E+00 0. -1.
    9900018    1    3    3    0    0 -0.18032643387E+03 -0.10458204658E+03 -0.44304260136E+03  0.49805316205E+03  0.91187600000E+02 0.  0.
<mgrwt>
<rscale>  0 0.32238604E+04</rscale>
<asrwt>0</asrwt>
<pdfrwt beam="1">  1        2 0.11236153E+00 0.32238604E+04</pdfrwt>
<pdfrwt beam="2">  1       -2 0.54732856E+00 0.32238604E+04</pdfrwt>
<totfact> 0.28581190E-02</totfact>
</mgrwt>
</event>
<event>
12    1  0.2642003E-009  0.2992601E+04  0.7818608E-02  0.8245847E-01
         -2   -1    0    0    0  501 -0.00000000000E+00  0.00000000000E+00  0.40022956084E+04  0.40022956084E+04  0.00000000000E+00 0.  1.
          2   -1    0    0  501    0  0.00000000000E+00 -0.00000000000E+00 -0.55940766907E+03  0.55940766907E+03  0.00000000000E+00 0. -1.
    9900016    2    1    2    0    0 -0.27846872004E+03 -0.61736343685E+03  0.25656265027E+04  0.34534298142E+04  0.22102162087E+04 0.  0.
         23    2    3    3    0    0 -0.12933732121E+03  0.44140191105E+03  0.40428199250E+03  0.61965727096E+03  0.94696432131E+02 0.  0.
         24    2    3    3    0    0  0.26490330505E+03 -0.16662483575E+03 -0.64361274455E+02  0.32633514224E+03  0.66442866386E+02 0.  0.
        -15    1    5    5    0    0  0.17961155248E+03 -0.14302422671E+03 -0.30658692530E+02  0.23163806820E+03  0.00000000000E+00 0.  1.
        -15    1    4    4    0    0 -0.10019244228E+03  0.26583849718E+03  0.19319072710E+03  0.34355682079E+03  0.00000000000E+00 0. -1.
         15    1    4    4    0    0 -0.29144878937E+02  0.17556341387E+03  0.21109126540E+03  0.27610045017E+03  0.00000000000E+00 0.  1.
         15    1    3    3    0    0 -0.45770287546E+03 -0.62669854699E+03  0.19978996975E+04  0.21433259650E+04  0.00000000000E+00 0. -1.
        -16    1    1    2    0    0  0.27846872004E+03  0.61736343685E+03  0.87726143665E+03  0.11082734633E+04  0.00000000000E+00 0.  1.
         16    1    5    5    0    0  0.85291752564E+02 -0.23600609044E+02 -0.33702581925E+02  0.94697074037E+02  0.00000000000E+00 0. -1.
    9900018    1    3    3    0    0  0.43668171584E+02 -0.26544196515E+03  0.22780608712E+03  0.36411143596E+03  0.91187600000E+02 0.  0.
<mgrwt>
<rscale>  0 0.29926008E+04</rscale>
<asrwt>0</asrwt>
<pdfrwt beam="1">  1        2 0.86062721E-01 0.29926008E+04</pdfrwt>
<pdfrwt beam="2">  1       -2 0.61573777E+00 0.29926008E+04</pdfrwt>
<totfact> 0.20174307E-02</totfact>
</mgrwt>
</event>
<event>
12    1  0.2642003E-009  0.2812541E+04  0.7818608E-02  0.8299385E-01
         -1   -1    0    0    0  501 -0.00000000000E+00  0.00000000000E+00  0.93774614924E+03  0.93774614924E+03  0.00000000000E+00 0.  1.
          1   -1    0    0  501    0  0.00000000000E+00 -0.00000000000E+00 -0.21088831117E+04  0.21088831117E+04  0.00000000000E+00 0. -1.
    9900016    2    1    2    0    0  0.10915415376E+03  0.77562311600E+01 -0.15265820841E+04  0.26747206392E+04  0.21935594020E+04 0.  0.
         23    2    3    3    0    0  0.36452924715E+03 -0.18603834006E+03 -0.39101152635E+03  0.57317459606E+03  0.90262217006E+02 0.  0.
         24    2    3    3    0    0 -0.59829402244E+03  0.22506136791E+03 -0.10319661234E+04  0.12176400113E+04  0.95314011207E+02 0.  0.
        -15    1    5    5    0    0 -0.32813175887E+03  0.17034342958E+03 -0.62330199232E+03  0.72470180682E+03  0.00000000000E+00 0.  1.
        -15    1    4    4    0    0  0.21356940580E+03 -0.95249272818E+02 -0.16303805538E+03  0.28507143415E+03  0.00000000000E+00 0.  1.
         15    1    4    4    0    0  0.15095984135E+03 -0.90789067238E+02 -0.22797347097E+03  0.28810316190E+03  0.00000000000E+00 0. -1.
         15    1    3    3    0    0  0.14626451645E+02  0.31295646739E+03 -0.22362597287E+03  0.38492110791E+03  0.00000000000E+00 0. -1.
        -16    1    1    2    0    0 -0.10915415376E+03 -0.77562311600E+01  0.35544512166E+03  0.37190862173E+03  0.00000000000E+00 0.  1.
         16    1    5    5    0    0 -0.27016226357E+03  0.54717938334E+02 -0.40866413106E+03  0.49293820449E+03  0.00000000000E+00 0. -1.
    9900018    1    3    3    0    0  0.32829247740E+03 -0.34422326409E+03  0.12002153846E+03  0.49898492396E+03  0.91187600000E+02 0.  0.
<mgrwt>
<rscale>  0 0.28125412E+04</rscale>
<asrwt>0</asrwt>
<pdfrwt beam="1">  1        1 0.32444355E+00 0.28125412E+04</pdfrwt>
<pdfrwt beam="2">  1       -1 0.14426864E+00 0.28125412E+04</pdfrwt>
<totfact> 0.84152820E-01</totfact>
</mgrwt>
</event>
<event>
12    1  0.2642003E-009  0.2846121E+04  0.7818608E-02  0.8289091E-01
         -2   -1    0    0    0  501 -0.00000000000E+00  0.00000000000E+00  0.87544905658E+03  0.87544905658E+03  0.00000000000E+00 0.  1.
          2   -1    0    0  501    0  0.00000000000E+00 -0.00000000000E+00 -0.23132138882E+04  0.23132138882E+04  0.00000000000E+00 0. -1.
    9900016    2    1    2    0    0 -0.45383662384E+02 -0.21278797533E+03 -0.53260147618E+03  0.22577176729E+04  0.21831826215E+04 0.  0.
         23    2    3    3    0    0  0.34623784120E+03  0.16471040155E+03 -0.52701768348E+03  0.65817561912E+03  0.91855037070E+02 0.  0.
        -24    2    3    3    0    0 -0.29463882471E+03 -0.52355261533E+03 -0.39969656068E+03  0.72459845172E+03  0.66077209164E+02 0.  0.
        -15    1    3    3    0    0 -0.16957181015E+03  0.38009915949E+03  0.44420680985E+03  0.60872790290E+03  0.00000000000E+00 0.  1.
        -15    1    4    4    0    0  0.25098389236E+03  0.13632841952E+03 -0.32256610019E+03  0.43084479942E+03  0.00000000000E+00 0. -1.
         15    1    5    5    0    0 -0.18628823781E+03 -0.26384870148E+03 -0.21239257764E+03  0.38656183446E+03  0.00000000000E+00 0. -1.
         15    1    4    4    0    0  0.95253948843E+02  0.28381982034E+02 -0.20445158329E+03  0.22733081970E+03  0.00000000000E+00 0.  1.
        -16    1    5    5    0    0 -0.10835058689E+03 -0.25970391385E+03 -0.18730398304E+03  0.33803661727E+03  0.00000000000E+00 0.  1.
         16    1    1    2    0    0  0.45383662384E+02  0.21278797533E+03 -0.90516335546E+03  0.93094527192E+03  0.00000000000E+00 0. -1.
    9900018    1    3    3    0    0  0.72589131273E+02 -0.23404492104E+03 -0.50094041874E+02  0.26621569914E+03  0.91187600000E+02 0.  0.
<mgrwt>
<rscale>  0 0.28461208E+04</rscale>
<asrwt>0</asrwt>
<pdfrwt beam="1">  1        2 0.35587905E+00 0.28461208E+04</pdfrwt>
<pdfrwt beam="2">  1       -2 0.13468447E+00 0.28461208E+04</pdfrwt>
<totfact> 0.15328818E+00</totfact>
</mgrwt>
</event>
