<event>
11    1  0.6309057E-012  0.1463543E+04  0.7818608E-02  0.8909065E-01
          4   -1    0    0  501    0  0.00000000000E+00  0.00000000000E+00  0.29387710688E+03  0.29387710688E+03  0.00000000000E+00 0.  1.
         -4   -1    0    0    0  501 -0.00000000000E+00 -0.00000000000E+00 -0.18221551454E+04  0.18221551454E+04  0.00000000000E+00 0. -1.
    9900016    2    1    2    0    0  0.28460780444E+03 -0.30128563657E+03 -0.49403543653E+03  0.95839912519E+03  0.70900157508E+03 0.  0.
         23    2    3    3    0    0  0.24720663656E+03 -0.36197376477E+03 -0.17749658519E+02  0.44340925462E+03  0.64502629141E+02 0.  0.
        -15    1    4    4    0    0  0.22270977222E+03 -0.33382294847E+03 -0.33948268311E+02  0.40272805773E+03  0.00000000000E+00 0. -1.
        -15    1    3    3    0    0  0.59319190837E+02  0.72327955361E+02 -0.25647902471E+03  0.27300474290E+03  0.00000000000E+00 0.  1.
         15    1    4    4    0    0  0.24496864343E+02 -0.28150816304E+02  0.16198609792E+02  0.40681196890E+02  0.00000000000E+00 0.  1.
         15    1    3    3    0    0 -0.26613051630E+02 -0.28699952554E+02 -0.22081983264E+03  0.22426176731E+03  0.00000000000E+00 0. -1.
        -16    1    3    3    0    0  0.46950286743E+01  0.17060125392E+02  0.10130793346E+01  0.17723360358E+02  0.00000000000E+00 0.  1.
         16    1    1    2    0    0 -0.19875964124E+03  0.13073300085E+03 -0.83045934824E+03  0.86386297616E+03  0.00000000000E+00 0. -1.
    9900018    1    1    2    0    0 -0.85848163198E+02  0.17055263573E+03 -0.20378325380E+03  0.29377015097E+03  0.91187600000E+02 0.  0.
<mgrwt>
<rscale>  0 0.14635432E+04</rscale>
<asrwt>0</asrwt>
<pdfrwt beam="1">  1        4 0.45211863E-01 0.14635432E+04</pdfrwt>
<pdfrwt beam="2">  1       -4 0.28033156E+00 0.14635432E+04</pdfrwt>
<totfact> 0.37900953E-01</totfact>
</mgrwt>
</event>
<event>
11    1  0.6309057E-012  0.9128910E+03  0.7818608E-02  0.9409609E-01
         -1   -1    0    0    0  501 -0.00000000000E+00  0.00000000000E+00  0.23498370637E+03  0.23498370637E+03  0.00000000000E+00 0.  1.
          1   -1    0    0  501    0  0.00000000000E+00 -0.00000000000E+00 -0.88662537259E+03  0.88662537259E+03  0.00000000000E+00 0. -1.
    9900016    2    1    2    0    0  0.77657935368E+02  0.43542305710E+02 -0.50569225923E+03  0.88695021510E+03  0.72320767121E+03 0.  0.
         23    2    3    3    0    0 -0.17135122946E+03 -0.34365796147E+02 -0.95363291656E+02  0.20792393289E+03  0.59966262928E+02 0.  0.
        -15    1    4    4    0    0 -0.12403858687E+03 -0.27517148406E+02 -0.36699924658E+02  0.13224843651E+03  0.00000000000E+00 0. -1.
        -15    1    3    3    0    0  0.20240457808E+03 -0.83510810146E+02 -0.21785901311E+03  0.30887573267E+03  0.00000000000E+00 0.  1.
         15    1    4    4    0    0 -0.47312642594E+02 -0.68486477402E+01 -0.58663366998E+02  0.75675496382E+02  0.00000000000E+00 0.  1.
         15    1    3    3    0    0  0.38185861893E+02  0.50253854230E+02  0.64375187105E+02  0.90154171441E+02  0.00000000000E+00 0. -1.
        -16    1    3    3    0    0  0.84187248560E+01  0.11116505777E+03 -0.25684514158E+03  0.27999637810E+03  0.00000000000E+00 0.  1.
         16    1    1    2    0    0 -0.57317942715E+02  0.26466683700E+02 -0.29227979054E+02  0.69570875104E+02  0.00000000000E+00 0. -1.
    9900018    1    1    2    0    0 -0.20339992654E+02 -0.70008989410E+02 -0.11672142794E+03  0.16508798876E+03  0.91187600000E+02 0.  0.
<mgrwt>
<rscale>  0 0.91289105E+03</rscale>
<asrwt>0</asrwt>
<pdfrwt beam="1">  1        1 0.13640390E+00 0.91289105E+03</pdfrwt>
<pdfrwt beam="2">  1       -1 0.36151339E-01 0.91289105E+03</pdfrwt>
<totfact> 0.13744025E+02</totfact>
</mgrwt>
</event>
<event>
11    1  0.6309057E-012  0.1817289E+04  0.7818608E-02  0.8697159E-01
          2   -1    0    0  501    0  0.00000000000E+00  0.00000000000E+00  0.37643923921E+03  0.37643923921E+03  0.00000000000E+00 0.  1.
         -2   -1    0    0    0  501 -0.00000000000E+00 -0.00000000000E+00 -0.21932756708E+04  0.21932756708E+04  0.00000000000E+00 0. -1.
    9900016    2    1    2    0    0 -0.75119553748E+02 -0.11647948944E+03 -0.53808296106E+03  0.90577375356E+03  0.71531978921E+03 0.  0.
         23    2    3    3    0    0  0.14265316410E+03 -0.10785855999E+03 -0.49646812863E+03  0.53194935334E+03  0.67127621667E+02 0.  0.
        -15    1    3    3    0    0 -0.30389072048E+02  0.10566158415E+02  0.55936169700E+02  0.64529020482E+02  0.00000000000E+00 0. -1.
        -15    1    4    4    0    0  0.10679752239E+03 -0.53582871626E+02 -0.25069703910E+03  0.27771539449E+03  0.00000000000E+00 0.  1.
         15    1    4    4    0    0  0.35855641705E+02 -0.54275688362E+02 -0.24577108953E+03  0.25423395886E+03  0.00000000000E+00 0. -1.
         15    1    3    3    0    0 -0.12051422574E+03 -0.80938681625E+02  0.34214450507E+02  0.14914884314E+03  0.00000000000E+00 0.  1.
        -16    1    1    2    0    0  0.15725785094E+03 -0.26674176998E+03  0.14045892461E+02  0.30996530553E+03  0.00000000000E+00 0.  1.
         16    1    3    3    0    0 -0.66869420064E+02  0.61751593761E+02 -0.13176545264E+03  0.16014653659E+03  0.00000000000E+00 0. -1.
    9900018    1    1    2    0    0 -0.82138297196E+02  0.38322125942E+03 -0.12927993629E+04  0.13539758509E+04  0.91187600000E+02 0.  0.
<mgrwt>
<rscale>  0 0.18172892E+04</rscale>
<asrwt>0</asrwt>
<pdfrwt beam="1">  1        2 0.57913729E-01 0.18172892E+04</pdfrwt>
<pdfrwt beam="2">  1       -2 0.33742703E+00 0.18172892E+04</pdfrwt>
<totfact> 0.15026593E+00</totfact>
</mgrwt>
</event>
<event>
11    1  0.6309057E-012  0.1997404E+04  0.7818608E-02  0.8607835E-01
         -2   -1    0    0    0  501 -0.00000000000E+00  0.00000000000E+00  0.20949232032E+03  0.20949232032E+03  0.00000000000E+00 0.  1.
          2   -1    0    0  501    0  0.00000000000E+00 -0.00000000000E+00 -0.47610627126E+04  0.47610627126E+04  0.00000000000E+00 0. -1.
    9900016    2    1    2    0    0 -0.14695981565E+03 -0.18481946759E+03 -0.83525281802E+03  0.11225807666E+04  0.71188825276E+03 0.  0.
         23    2    3    3    0    0  0.28382974615E+02 -0.13154286837E+03 -0.14836156852E+02  0.15388364923E+03  0.73150163938E+02 0.  0.
        -15    1    4    4    0    0  0.39803671115E+02 -0.51870119207E+02 -0.30073223392E+02  0.71966938701E+02  0.00000000000E+00 0.  1.
        -15    1    3    3    0    0 -0.69611760837E+02  0.12521723949E+03 -0.71566695523E+03  0.72986597751E+03  0.00000000000E+00 0.  1.
         15    1    3    3    0    0 -0.42773848322E+02 -0.52774794536E+02 -0.61744006456E+02  0.91799255834E+02  0.00000000000E+00 0. -1.
         15    1    4    4    0    0 -0.11420696500E+02 -0.79672749162E+02  0.15237066540E+02  0.81916710532E+02  0.00000000000E+00 0. -1.
        -16    1    3    3    0    0 -0.62957181107E+02 -0.12571904417E+03 -0.43005699483E+02  0.14703188398E+03  0.00000000000E+00 0.  1.
         16    1    1    2    0    0  0.42952840368E+03 -0.26457508693E+02 -0.31169607590E+04  0.31465280903E+04  0.00000000000E+00 0. -1.
    9900018    1    1    2    0    0 -0.28256858803E+03  0.21127697628E+03 -0.59935681521E+03  0.70144617611E+03  0.91187600000E+02 0.  0.
<mgrwt>
<rscale>  0 0.19974044E+04</rscale>
<asrwt>0</asrwt>
<pdfrwt beam="1">  1        2 0.73247120E+00 0.19974044E+04</pdfrwt>
<pdfrwt beam="2">  1       -2 0.32229587E-01 0.19974044E+04</pdfrwt>
<totfact> 0.55965963E-01</totfact>
</mgrwt>
</event>
<event>
11    1  0.6309057E-012  0.1220183E+04  0.7818608E-02  0.9095372E-01
         -2   -1    0    0    0  501 -0.00000000000E+00  0.00000000000E+00  0.53649712539E+03  0.53649712539E+03  0.00000000000E+00 0. -1.
          2   -1    0    0  501    0  0.00000000000E+00 -0.00000000000E+00 -0.69378097246E+03  0.69378097246E+03  0.00000000000E+00 0.  1.
    9900016    2    1    2    0    0 -0.30805778713E+03 -0.11041716090E+02 -0.21073891792E+03  0.79004624142E+03  0.69623318820E+03 0.  0.
         23    2    3    3    0    0  0.72847847936E+02  0.96599545615E+02 -0.94815681410E+00  0.14328370393E+03  0.76753108391E+02 0.  0.
        -15    1    4    4    0    0  0.32275361570E+02  0.63753719464E+02 -0.36387591230E+02  0.80189104656E+02  0.00000000000E+00 0.  1.
        -15    1    3    3    0    0 -0.38806441460E+03 -0.51765665808E+02 -0.30430257491E+03  0.49585656307E+03  0.00000000000E+00 0.  1.
         15    1    3    3    0    0 -0.39099106019E+02  0.54597030603E+01  0.43204219294E+02  0.58524806824E+02  0.00000000000E+00 0. -1.
         15    1    4    4    0    0  0.40572486367E+02  0.32845826151E+02  0.35439434416E+02  0.63094599271E+02  0.00000000000E+00 0. -1.
        -16    1    3    3    0    0  0.46257885555E+02 -0.61335298957E+02  0.51307594509E+02  0.92381167607E+02  0.00000000000E+00 0.  1.
         16    1    1    2    0    0  0.30542628553E+03 -0.55557264313E+02  0.87014523528E+02  0.32240247024E+03  0.00000000000E+00 0. -1.
    9900018    1    1    2    0    0  0.26315016031E+01  0.66598980403E+02 -0.33559452682E+02  0.11782938619E+03  0.91187600000E+02 0.  0.
<mgrwt>
<rscale>  0 0.12201828E+04</rscale>
<asrwt>0</asrwt>
<pdfrwt beam="1">  1        2 0.10673553E+00 0.12201828E+04</pdfrwt>
<pdfrwt beam="2">  1       -2 0.82538019E-01 0.12201828E+04</pdfrwt>
<totfact> 0.52627715E+01</totfact>
</mgrwt>
</event>
<event>
11    1  0.6309057E-012  0.1843198E+04  0.7818608E-02  0.8683659E-01
         -2   -1    0    0    0  501 -0.00000000000E+00  0.00000000000E+00  0.52600829721E+03  0.52600829721E+03  0.00000000000E+00 0. -1.
          2   -1    0    0  501    0  0.00000000000E+00 -0.00000000000E+00 -0.16146987582E+04  0.16146987582E+04  0.00000000000E+00 0.  1.
    9900016    2    1    2    0    0  0.33899822709E+03  0.15126501922E+03 -0.23804184415E+03  0.83437118673E+03  0.70831522197E+03 0.  0.
         23    2    3    3    0    0  0.11766293430E+03 -0.13409461040E+03 -0.89993514988E+02  0.23138390850E+03  0.11667797446E+03 0.  0.
        -15    1    3    3    0    0  0.23260314923E+03  0.26272517198E+03 -0.17551405359E+03  0.39234413979E+03  0.00000000000E+00 0.  1.
        -15    1    4    4    0    0  0.27893445747E+02 -0.62528162443E+02 -0.94256328209E+02  0.11649923099E+03  0.00000000000E+00 0. -1.
         15    1    4    4    0    0  0.89769488557E+02 -0.71566447958E+02  0.42628132213E+01  0.11488467751E+03  0.00000000000E+00 0.  1.
         15    1    3    3    0    0  0.60036879922E+02 -0.62200006501E+02  0.46560451379E+02  0.98189324226E+02  0.00000000000E+00 0. -1.
        -16    1    1    2    0    0  0.66346054509E+01  0.31994045011E+03 -0.56543384087E+03  0.64970865625E+03  0.00000000000E+00 0.  1.
         16    1    3    3    0    0 -0.71304736364E+02  0.84834464148E+02 -0.19094726949E+02  0.11245381422E+03  0.00000000000E+00 0. -1.
    9900018    1    1    2    0    0 -0.34563283254E+03 -0.47120546933E+03 -0.28521477595E+03  0.65662721241E+03  0.91187600000E+02 0.  0.
<mgrwt>
<rscale>  0 0.18431982E+04</rscale>
<asrwt>0</asrwt>
<pdfrwt beam="1">  1        2 0.24841519E+00 0.18431982E+04</pdfrwt>
<pdfrwt beam="2">  1       -2 0.80924353E-01 0.18431982E+04</pdfrwt>
<totfact> 0.13866395E+01</totfact>
</mgrwt>
</event>
