<event>
11    1  0.1335779E-017  0.3822117E+04  0.7818608E-02  0.8041425E-01
          2   -1    0    0  501    0  0.00000000000E+00  0.00000000000E+00  0.15329904761E+04  0.15329904761E+04  0.00000000000E+00 0. -1.
         -2   -1    0    0    0  501 -0.00000000000E+00 -0.00000000000E+00 -0.23823659380E+04  0.23823659380E+04  0.00000000000E+00 0.  1.
    9900016    2    1    2    0    0  0.10913066661E+04  0.80035727031E+03  0.79498480319E+02  0.22739153399E+04  0.18256092039E+04 0.  0.
        -24    2    3    3    0    0 -0.33685043688E+01 -0.29365398400E+03  0.24879526564E+02  0.30517593512E+03  0.79179235894E+02 0.  0.
        -15    1    3    3    0    0  0.11009373863E+04  0.74274678492E+03 -0.40001212849E+03  0.13869915710E+04  0.00000000000E+00 0.  1.
        -15    1    4    4    0    0  0.25126430246E+02 -0.13746524832E+03  0.16983851841E+02  0.14077103117E+03  0.00000000000E+00 0.  1.
         15    1    4    4    0    0 -0.15392669486E+02 -0.26978660392E+02 -0.73608634985E+01  0.31921226510E+02  0.00000000000E+00 0. -1.
         15    1    4    4    0    0 -0.13532083849E+02 -0.55407863063E+02  0.13724150530E+02  0.58664306783E+02  0.00000000000E+00 0. -1.
        -16    1    1    2    0    0 -0.10913066661E+04 -0.80035727031E+03 -0.92887394220E+03  0.16414410742E+04  0.00000000000E+00 0.  1.
         16    1    4    4    0    0  0.42981872002E+00 -0.73802212219E+02  0.15323876916E+01  0.73819370659E+02  0.00000000000E+00 0. -1.
    9900018    1    3    3    0    0 -0.62622158517E+01  0.35126446939E+03  0.45463108224E+03  0.58174783380E+03  0.91187600000E+02 0.  0.
<mgrwt>
<rscale>  0 0.38221168E+04</rscale>
<asrwt>0</asrwt>
<pdfrwt beam="1">  1        2 0.23584469E+00 0.38221168E+04</pdfrwt>
<pdfrwt beam="2">  1       -2 0.36651784E+00 0.38221168E+04</pdfrwt>
<totfact> 0.11889591E-01</totfact>
</mgrwt>
</event>
<event>
11    1  0.1335779E-017  0.2364789E+04  0.7818608E-02  0.8452805E-01
         -2   -1    0    0    0  501 -0.00000000000E+00  0.00000000000E+00  0.66644079118E+03  0.66644079118E+03  0.00000000000E+00 0. -1.
          2   -1    0    0  501    0  0.00000000000E+00 -0.00000000000E+00 -0.20977956437E+04  0.20977956437E+04  0.00000000000E+00 0.  1.
    9900016    2    1    2    0    0 -0.33993718836E+03 -0.29067238001E+03 -0.10240801172E+04  0.21593228588E+04  0.18476708033E+04 0.  0.
        -24    2    3    3    0    0 -0.31563458075E+02  0.19365103509E+03  0.15726690381E+03  0.26555475563E+03  0.85378416053E+02 0.  0.
        -15    1    3    3    0    0 -0.55062144745E+03  0.25733020965E+03 -0.84111410131E+03  0.10377262388E+04  0.00000000000E+00 0.  1.
        -15    1    4    4    0    0  0.35179578678E+01  0.21954160215E+02  0.54337742005E+01  0.22888579693E+02  0.00000000000E+00 0.  1.
         15    1    4    4    0    0 -0.20570688434E+02  0.18875890071E+02  0.31755058230E+02  0.42282811778E+02  0.00000000000E+00 0. -1.
         15    1    4    4    0    0 -0.74767582589E+01  0.12827389650E+03  0.11851193437E+03  0.17480038051E+03  0.00000000000E+00 0. -1.
        -16    1    1    2    0    0  0.33993718836E+03  0.29067238001E+03 -0.40727473532E+03  0.60491357611E+03  0.00000000000E+00 0.  1.
         16    1    4    4    0    0 -0.70339692501E+01  0.24547088302E+02  0.15661370116E+01  0.25582983654E+02  0.00000000000E+00 0. -1.
    9900018    1    3    3    0    0  0.24224771716E+03 -0.74165362475E+03 -0.34023291975E+03  0.85604186443E+03  0.91187600000E+02 0.  0.
<mgrwt>
<rscale>  0 0.23647889E+04</rscale>
<asrwt>0</asrwt>
<pdfrwt beam="1">  1        2 0.32273779E+00 0.23647889E+04</pdfrwt>
<pdfrwt beam="2">  1       -2 0.10252935E+00 0.23647889E+04</pdfrwt>
<totfact> 0.41353358E+00</totfact>
</mgrwt>
</event>
<event>
11    1  0.1335779E-017  0.3293826E+04  0.7818608E-02  0.8164468E-01
         -2   -1    0    0    0  501 -0.00000000000E+00  0.00000000000E+00  0.10860294410E+04  0.10860294410E+04  0.00000000000E+00 0.  1.
          2   -1    0    0  501    0  0.00000000000E+00 -0.00000000000E+00 -0.24974666643E+04  0.24974666643E+04  0.00000000000E+00 0. -1.
    9900016    2    1    2    0    0  0.48347402781E+03  0.77430154507E+03 -0.23693753708E+03  0.20959681120E+04  0.18718047205E+04 0.  0.
         24    2    3    3    0    0 -0.52956886657E+02 -0.23148081500E+03  0.61675343445E+03  0.66568642198E+03  0.79786051014E+02 0.  0.
        -15    1    4    4    0    0 -0.16732692267E+01 -0.15850815578E+02  0.66617399723E+02  0.68497635946E+02  0.00000000000E+00 0.  1.
        -15    1    4    4    0    0 -0.11871715322E+02 -0.67315417556E+01  0.16146055617E+02  0.21141106666E+02  0.00000000000E+00 0.  1.
         15    1    4    4    0    0 -0.30368716727E+02 -0.86358642965E+02  0.19339528040E+03  0.21396684008E+03  0.00000000000E+00 0. -1.
         15    1    3    3    0    0  0.21430873283E+03  0.39553923445E+03 -0.29783185704E+03  0.53952139348E+03  0.00000000000E+00 0. -1.
        -16    1    4    4    0    0 -0.90431853809E+01 -0.12253981471E+03  0.34059469871E+03  0.36208083929E+03  0.00000000000E+00 0.  1.
         16    1    1    2    0    0 -0.48347402781E+03 -0.77430154507E+03 -0.11744996861E+04  0.14875279934E+04  0.00000000000E+00 0. -1.
    9900018    1    3    3    0    0  0.32212218163E+03  0.61024312562E+03 -0.55585911450E+03  0.89076029651E+03  0.91187600000E+02 0.  0.
<mgrwt>
<rscale>  0 0.32938259E+04</rscale>
<asrwt>0</asrwt>
<pdfrwt beam="1">  1        2 0.38422564E+00 0.32938259E+04</pdfrwt>
<pdfrwt beam="2">  1       -2 0.16708145E+00 0.32938259E+04</pdfrwt>
<totfact> 0.65263745E-01</totfact>
</mgrwt>
</event>
<event>
12    1  0.1335779E-017  0.2002581E+04  0.7818608E-02  0.8605415E-01
          2   -1    0    0  501    0  0.00000000000E+00  0.00000000000E+00  0.35883386342E+04  0.35883386342E+04  0.00000000000E+00 0. -1.
         -2   -1    0    0    0  501 -0.00000000000E+00 -0.00000000000E+00 -0.27940014089E+03  0.27940014089E+03  0.00000000000E+00 0.  1.
    9900016    2    1    2    0    0  0.33371128773E+02 -0.14755353341E+03  0.31802134488E+04  0.36691038976E+04  0.18236447446E+04 0.  0.
        -24    2    3    3    0    0  0.23645423851E+03  0.42495842694E+03  0.98614805346E+02  0.50251129071E+03  0.79324938858E+02 0.  0.
         24    2    4    4    0    0  0.22684997840E+03  0.40207797211E+03  0.93057402991E+02  0.47385344211E+03  0.52438497229E+02 0.  0.
        -15    1    3    3    0    0 -0.29824186694E+03 -0.38905707455E+03  0.23635045539E+04  0.24138076549E+04  0.00000000000E+00 0.  1.
        -15    1    5    5    0    0  0.10066756421E+03  0.13566247491E+03  0.19709219595E+02  0.17007856690E+03  0.00000000000E+00 0.  1.
         15    1    4    4    0    0  0.64816934051E+01  0.11678827660E+02 -0.36258684497E+01  0.13840313830E+02  0.00000000000E+00 0. -1.
         15    1    4    4    0    0  0.31225667034E+01  0.11201627170E+02  0.91832708049E+01  0.14817534773E+02  0.00000000000E+00 0. -1.
        -16    1    1    2    0    0 -0.33371128773E+02  0.14755353341E+03  0.12872504455E+03  0.19863487749E+03  0.00000000000E+00 0.  1.
         16    1    5    5    0    0  0.12618241419E+03  0.26641549720E+03  0.73348183395E+02  0.30377487521E+03  0.00000000000E+00 0. -1.
    9900018    1    3    3    0    0  0.95158757208E+02 -0.18345488581E+03  0.71809408953E+03  0.75278495204E+03  0.91187600000E+02 0.  0.
<mgrwt>
<rscale>  0 0.20025807E+04</rscale>
<asrwt>0</asrwt>
<pdfrwt beam="1">  1        2 0.55205207E+00 0.20025807E+04</pdfrwt>
<pdfrwt beam="2">  1       -2 0.42984640E-01 0.20025807E+04</pdfrwt>
<totfact> 0.33760853E+00</totfact>
</mgrwt>
</event>
<event>
11    1  0.1335779E-017  0.2457892E+04  0.7818608E-02  0.8418142E-01
         -1   -1    0    0    0  501 -0.00000000000E+00  0.00000000000E+00  0.10566474573E+04  0.10566474573E+04  0.00000000000E+00 0.  1.
          1   -1    0    0  501    0  0.00000000000E+00 -0.00000000000E+00 -0.14293394453E+04  0.14293394453E+04  0.00000000000E+00 0. -1.
    9900016    2    1    2    0    0 -0.41624513988E+03 -0.12354480790E+03 -0.61583342913E+03  0.19883513971E+04  0.18400454151E+04 0.  0.
        -24    2    3    3    0    0 -0.67335533981E+02 -0.17259987849E+03 -0.99087600470E+02  0.22479710940E+03  0.79941201112E+02 0.  0.
        -15    1    3    3    0    0 -0.83757254946E+03 -0.36240632682E+03  0.36813537000E+02  0.91335719072E+03  0.00000000000E+00 0.  1.
        -15    1    4    4    0    0 -0.83274559309E+01 -0.22950002394E+02  0.10056021645E+02  0.26404028168E+02  0.00000000000E+00 0. -1.
         15    1    4    4    0    0 -0.12759445716E+02 -0.66181186999E+01 -0.52894497378E+01  0.15316044810E+02  0.00000000000E+00 0.  1.
         15    1    4    4    0    0 -0.46109268038E+02 -0.14293399473E+03 -0.10412879820E+03  0.18275392763E+03  0.00000000000E+00 0. -1.
        -16    1    1    2    0    0  0.41624513988E+03  0.12354480790E+03  0.24314144108E+03  0.49763550557E+03  0.00000000000E+00 0.  1.
         16    1    4    4    0    0 -0.13936429609E+00 -0.97762664856E-01  0.27462582560E+00  0.32310878935E+00  0.00000000000E+00 0. -1.
    9900018    1    3    3    0    0  0.48866294356E+03  0.41146139740E+03 -0.55355936566E+03  0.85019709695E+03  0.91187600000E+02 0.  0.
<mgrwt>
<rscale>  0 0.24578917E+04</rscale>
<asrwt>0</asrwt>
<pdfrwt beam="1">  1        1 0.21989837E+00 0.24578917E+04</pdfrwt>
<pdfrwt beam="2">  1       -1 0.16256115E+00 0.24578917E+04</pdfrwt>
<totfact> 0.18261967E+00</totfact>
</mgrwt>
</event>
<event>
11    1  0.1335779E-017  0.2379670E+04  0.7818608E-02  0.8447154E-01
          2   -1    0    0  501    0  0.00000000000E+00  0.00000000000E+00  0.21507421601E+04  0.21507421601E+04  0.00000000000E+00 0. -1.
         -2   -1    0    0    0  501 -0.00000000000E+00 -0.00000000000E+00 -0.65824139701E+03  0.65824139701E+03  0.00000000000E+00 0.  1.
    9900016    2    1    2    0    0  0.34149218986E+03 -0.47109662197E+02  0.15796553895E+04  0.24534105479E+04  0.18452847831E+04 0.  0.
        -24    2    3    3    0    0  0.15981897894E+03  0.66391327813E+02 -0.33178324968E+03  0.38258080189E+03  0.79611750206E+02 0.  0.
        -15    1    3    3    0    0  0.46114134661E+03 -0.92395748905E+02  0.87603517821E+03  0.99429671096E+03  0.00000000000E+00 0.  1.
        -15    1    4    4    0    0  0.21230931482E+02  0.30338411165E+02 -0.76439273007E+02  0.84936058900E+02  0.00000000000E+00 0.  1.
         15    1    4    4    0    0  0.71063679323E+02  0.91904642410E+01 -0.16625523219E+03  0.18103953541E+03  0.00000000000E+00 0. -1.
         15    1    4    4    0    0  0.54516123573E+02  0.25044812136E+02 -0.82225702239E+02  0.10178563972E+03  0.00000000000E+00 0. -1.
        -16    1    1    2    0    0 -0.34149218986E+03  0.47109662197E+02 -0.87154626419E+02  0.35557300926E+03  0.00000000000E+00 0.  1.
         16    1    4    4    0    0  0.13008244562E+02  0.18176402718E+01 -0.68630422421E+01  0.14819567860E+02  0.00000000000E+00 0. -1.
    9900018    1    3    3    0    0 -0.27946813569E+03 -0.21105241106E+02  0.10354034610E+04  0.10765330350E+04  0.91187600000E+02 0.  0.
<mgrwt>
<rscale>  0 0.23796702E+04</rscale>
<asrwt>0</asrwt>
<pdfrwt beam="1">  1        2 0.33088340E+00 0.23796702E+04</pdfrwt>
<pdfrwt beam="2">  1       -2 0.10126791E+00 0.23796702E+04</pdfrwt>
<totfact> 0.39733683E+00</totfact>
</mgrwt>
</event>
<event>
12    1  0.1335779E-017  0.3192447E+04  0.7818608E-02  0.8190815E-01
          1   -1    0    0  501    0  0.00000000000E+00  0.00000000000E+00  0.93367663563E+03  0.93367663563E+03  0.00000000000E+00 0. -1.
         -1   -1    0    0    0  501 -0.00000000000E+00 -0.00000000000E+00 -0.27289206417E+04  0.27289206417E+04  0.00000000000E+00 0.  1.
    9900016    2    1    2    0    0  0.32759507609E+03  0.82990235708E+03 -0.18534968668E+04  0.27684776813E+04  0.18528252969E+04 0.  0.
         24    2    3    3    0    0  0.17946715814E+03  0.51786931987E+02  0.15062295560E+03  0.25238511059E+03  0.78234404937E+02 0.  0.
        -24    2    4    4    0    0  0.10325844446E+03  0.41580435395E+02  0.71328712369E+02  0.14084488147E+03  0.48561882859E+02 0.  0.
        -15    1    4    4    0    0  0.50040063726E+02  0.16272194474E+01  0.43116100850E+02  0.66073095684E+02  0.00000000000E+00 0.  1.
        -15    1    4    4    0    0  0.26168649957E+02  0.85792771446E+01  0.36178142379E+02  0.45467133436E+02  0.00000000000E+00 0.  1.
         15    1    3    3    0    0  0.37746750257E+03  0.43672239885E+03 -0.20136190157E+04  0.20947242562E+04  0.00000000000E+00 0. -1.
         15    1    5    5    0    0  0.94192249680E+02  0.41106621136E+02  0.43545599280E+02  0.11161609838E+03  0.00000000000E+00 0. -1.
        -16    1    5    5    0    0  0.90661947816E+01  0.47381425871E+00  0.27783113089E+02  0.29228783086E+02  0.00000000000E+00 0.  1.
         16    1    1    2    0    0 -0.32759507609E+03 -0.82990235708E+03  0.58252860694E+02  0.89411959600E+03  0.00000000000E+00 0. -1.
    9900018    1    3    3    0    0 -0.22933958462E+03  0.34139302625E+03  0.94991933143E+01  0.42136831456E+03  0.91187600000E+02 0.  0.
<mgrwt>
<rscale>  0 0.31924470E+04</rscale>
<asrwt>0</asrwt>
<pdfrwt beam="1">  1        1 0.14364256E+00 0.31924470E+04</pdfrwt>
<pdfrwt beam="2">  1       -1 0.41983395E+00 0.31924470E+04</pdfrwt>
<totfact> 0.74692215E-02</totfact>
</mgrwt>
</event>
<event>
12    1  0.1335779E-017  0.2478782E+04  0.7818608E-02  0.8410584E-01
         -1   -1    0    0    0  501 -0.00000000000E+00  0.00000000000E+00  0.14896945590E+04  0.14896945590E+04  0.00000000000E+00 0.  1.
          1   -1    0    0  501    0  0.00000000000E+00 -0.00000000000E+00 -0.10311445691E+04  0.10311445691E+04  0.00000000000E+00 0. -1.
    9900016    2    1    2    0    0 -0.21811472088E+03 -0.48920717554E+03  0.22381512229E+03  0.19360330490E+04  0.18469523724E+04 0.  0.
        -24    2    3    3    0    0 -0.27338498862E+03 -0.35845976155E+02 -0.65975158687E+03  0.72006464256E+03  0.84833054225E+02 0.  0.
         24    2    4    4    0    0 -0.18149770227E+03 -0.65630418397E+01 -0.43847554514E+03  0.47794695211E+03  0.56462340506E+02 0.  0.
        -15    1    3    3    0    0  0.19194545356E+03 -0.11907859686E+03  0.80394498668E+03  0.83507503314E+03  0.00000000000E+00 0.  1.
        -15    1    5    5    0    0 -0.50771059873E+02  0.23603891446E+02 -0.13354287689E+03  0.14480519389E+03  0.00000000000E+00 0.  1.
         15    1    4    4    0    0 -0.81642467586E+02 -0.20907908865E+02 -0.20041412886E+03  0.21741310037E+03  0.00000000000E+00 0. -1.
         15    1    4    4    0    0 -0.10244818765E+02 -0.83750254502E+01 -0.20861912863E+02  0.24704590082E+02  0.00000000000E+00 0. -1.
        -16    1    1    2    0    0  0.21811472088E+03  0.48920717554E+03  0.23473486763E+03  0.58480607909E+03  0.00000000000E+00 0.  1.
         16    1    5    5    0    0 -0.13072664240E+03 -0.30166933286E+02 -0.30493266825E+03  0.33314175821E+03  0.00000000000E+00 0. -1.
    9900018    1    3    3    0    0 -0.13667518582E+03 -0.33428260252E+03  0.79621722477E+02  0.38089337334E+03  0.91187600000E+02 0.  0.
<mgrwt>
<rscale>  0 0.24787823E+04</rscale>
<asrwt>0</asrwt>
<pdfrwt beam="1">  1        1 0.15863763E+00 0.24787823E+04</pdfrwt>
<pdfrwt beam="2">  1       -1 0.22918378E+00 0.24787823E+04</pdfrwt>
<totfact> 0.12172624E+00</totfact>
</mgrwt>
</event>
<event>
12    1  0.1335779E-017  0.2077860E+04  0.7818608E-02  0.8571059E-01
         -2   -1    0    0    0  501 -0.00000000000E+00  0.00000000000E+00  0.11879079121E+04  0.11879079121E+04  0.00000000000E+00 0.  1.
          2   -1    0    0  501    0  0.00000000000E+00 -0.00000000000E+00 -0.90863553220E+03  0.90863553220E+03  0.00000000000E+00 0. -1.
    9900016    2    1    2    0    0  0.79502118107E+02 -0.20426157365E+03  0.28924861081E+03  0.18771285349E+04  0.18417120841E+04 0.  0.
        -24    2    3    3    0    0  0.48683396445E+02 -0.43864833041E+03 -0.56099014924E+03  0.71844189188E+03  0.81647863444E+02 0.  0.
         24    2    4    4    0    0  0.28047071329E+02 -0.30864617063E+03 -0.36840114550E+03  0.48419788070E+03  0.51759895862E+02 0.  0.
        -15    1    3    3    0    0  0.13053719387E+03  0.41219358364E+03  0.21010631169E+03  0.48071631093E+03  0.00000000000E+00 0.  1.
        -15    1    5    5    0    0  0.64190392028E+01 -0.14264992127E+02 -0.38303559989E+02  0.41374590905E+02  0.00000000000E+00 0.  1.
         15    1    4    4    0    0  0.21573247177E+02 -0.11046118841E+03 -0.15145450093E+03  0.18869431626E+03  0.00000000000E+00 0. -1.
         15    1    4    4    0    0 -0.93692206128E+00 -0.19540971376E+02 -0.41134502819E+02  0.45549694921E+02  0.00000000000E+00 0. -1.
        -16    1    1    2    0    0 -0.79502118107E+02  0.20426157365E+03 -0.99762309469E+01  0.21941490933E+03  0.00000000000E+00 0.  1.
         16    1    5    5    0    0  0.21628032126E+02 -0.29438117850E+03 -0.33009758551E+03  0.44282328980E+03  0.00000000000E+00 0. -1.
    9900018    1    3    3    0    0 -0.99718472211E+02 -0.17780682688E+03  0.64013244837E+03  0.67797033212E+03  0.91187600000E+02 0.  0.
<mgrwt>
<rscale>  0 0.20778598E+04</rscale>
<asrwt>0</asrwt>
<pdfrwt beam="1">  1        2 0.13979008E+00 0.20778598E+04</pdfrwt>
<pdfrwt beam="2">  1       -2 0.18275506E+00 0.20778598E+04</pdfrwt>
<totfact> 0.46343992E+00</totfact>
</mgrwt>
</event>
<event>
11    1  0.1335779E-017  0.2262611E+04  0.7818608E-02  0.8492811E-01
          2   -1    0    0  501    0  0.00000000000E+00  0.00000000000E+00  0.16410831570E+04  0.16410831570E+04  0.00000000000E+00 0.  1.
         -2   -1    0    0    0  501 -0.00000000000E+00 -0.00000000000E+00 -0.77988270123E+03  0.77988270123E+03  0.00000000000E+00 0. -1.
    9900016    2    1    2    0    0  0.20551227988E+03 -0.12332837306E+03  0.40800556447E+03  0.19082955994E+04  0.18486963973E+04 0.  0.
        -24    2    3    3    0    0  0.20086615829E+02  0.15686738969E+03 -0.44871302096E+03  0.48391925041E+03  0.88451204922E+02 0.  0.
        -15    1    3    3    0    0  0.62292264175E+03 -0.28457861498E+03  0.58980371538E+03  0.90381747515E+03  0.00000000000E+00 0.  1.
        -15    1    4    4    0    0 -0.73227389045E+01  0.11263847296E+03 -0.33051773013E+03  0.34926067346E+03  0.00000000000E+00 0. -1.
         15    1    4    4    0    0  0.10762306832E+02  0.22502525650E+02 -0.26243173701E+02  0.36206285019E+02  0.00000000000E+00 0. -1.
         15    1    4    4    0    0  0.21655869439E+02  0.14147860208E+02 -0.72690490614E+02  0.77155985220E+02  0.00000000000E+00 0.  1.
        -16    1    1    2    0    0 -0.20551227988E+03  0.12332837306E+03  0.45319489128E+03  0.51267025880E+03  0.00000000000E+00 0.  1.
         16    1    4    4    0    0 -0.50088215371E+01  0.75785308733E+01 -0.19261626517E+02  0.21296306710E+02  0.00000000000E+00 0. -1.
    9900018    1    3    3    0    0 -0.43749697770E+03  0.43828522384E+01  0.26691487005E+03  0.52055887384E+03  0.91187600000E+02 0.  0.
<mgrwt>
<rscale>  0 0.22626112E+04</rscale>
<asrwt>0</asrwt>
<pdfrwt beam="1">  1        2 0.25247433E+00 0.22626112E+04</pdfrwt>
<pdfrwt beam="2">  1       -2 0.11998195E+00 0.22626112E+04</pdfrwt>
<totfact> 0.51102249E+00</totfact>
</mgrwt>
</event>
<event>
12    1  0.1335779E-017  0.2044556E+04  0.7818608E-02  0.8586068E-01
         -1   -1    0    0    0  501 -0.00000000000E+00  0.00000000000E+00  0.65222795199E+03  0.65222795199E+03  0.00000000000E+00 0.  1.
          1   -1    0    0  501    0  0.00000000000E+00 -0.00000000000E+00 -0.16022810657E+04  0.16022810657E+04  0.00000000000E+00 0. -1.
    9900016    2    1    2    0    0  0.11414385336E+03  0.52189698700E+01 -0.10299800654E+04  0.21150659306E+04  0.18437974126E+04 0.  0.
         24    2    3    3    0    0 -0.23969400719E+03  0.19978136607E+03  0.45607669386E+03  0.55843271082E+03  0.80469438425E+02 0.  0.
        -24    2    4    4    0    0 -0.21422958880E+03  0.18056952438E+03  0.42489976949E+03  0.51206964684E+03  0.56354584995E+02 0.  0.
        -15    1    4    4    0    0 -0.16104567281E+02  0.44245865665E+01  0.17108455311E+02  0.23908853941E+02  0.00000000000E+00 0.  1.
        -15    1    4    4    0    0 -0.93598511005E+01  0.14787255125E+02  0.14068469061E+02  0.22454210039E+02  0.00000000000E+00 0.  1.
         15    1    5    5    0    0 -0.11723697876E+03  0.91842746879E+02  0.17571573182E+03  0.23033805103E+03  0.00000000000E+00 0. -1.
         15    1    3    3    0    0  0.29775199375E+03 -0.10379789834E+03 -0.11499451433E+04  0.11923942662E+04  0.00000000000E+00 0. -1.
        -16    1    5    5    0    0 -0.96992610039E+02  0.88726777503E+02  0.24918403767E+03  0.28173159581E+03  0.00000000000E+00 0.  1.
         16    1    1    2    0    0 -0.11414385336E+03 -0.52189698700E+01  0.79926951743E+02  0.13944308703E+03  0.00000000000E+00 0. -1.
    9900018    1    3    3    0    0  0.56085866792E+02 -0.90764497862E+02 -0.33611161597E+03  0.36423895359E+03  0.91187600000E+02 0.  0.
<mgrwt>
<rscale>  0 0.20445562E+04</rscale>
<asrwt>0</asrwt>
<pdfrwt beam="1">  1        1 0.24650478E+00 0.20445562E+04</pdfrwt>
<pdfrwt beam="2">  1       -1 0.10034276E+00 0.20445562E+04</pdfrwt>
<totfact> 0.48584951E+00</totfact>
</mgrwt>
</event>
<event>
11    1  0.1335779E-017  0.4343498E+04  0.7818608E-02  0.7938623E-01
          2   -1    0    0  501    0  0.00000000000E+00  0.00000000000E+00  0.39702764253E+04  0.39702764253E+04  0.00000000000E+00 0. -1.
         -2   -1    0    0    0  501 -0.00000000000E+00 -0.00000000000E+00 -0.11879512052E+04  0.11879512052E+04  0.00000000000E+00 0.  1.
    9900016    2    1    2    0    0  0.16425772483E+03  0.13348033282E+04  0.26011768248E+03  0.22998694674E+04  0.18474463005E+04 0.  0.
        -24    2    3    3    0    0 -0.24769024858E+03 -0.18416747026E+03  0.14529689873E+02  0.31964656951E+03  0.81821153547E+02 0.  0.
        -15    1    4    4    0    0 -0.28590939734E+02 -0.41397913619E+02 -0.24201525832E+01  0.50369496975E+02  0.00000000000E+00 0. -1.
        -15    1    3    3    0    0  0.80127895656E+03  0.82359565533E+03  0.29360255941E+02  0.11494432541E+04  0.00000000000E+00 0.  1.
         15    1    4    4    0    0 -0.95481780011E+01 -0.17864676623E+02  0.14085421206E+02  0.24672119174E+02  0.00000000000E+00 0.  1.
         15    1    4    4    0    0 -0.14747611471E+03 -0.95240843337E+02  0.68601353089E+01  0.17569030737E+03  0.00000000000E+00 0. -1.
        -16    1    1    2    0    0 -0.16425772483E+03 -0.13348033282E+04  0.25222075376E+04  0.28583581630E+04  0.00000000000E+00 0.  1.
         16    1    4    4    0    0 -0.62075016137E+02 -0.29664036678E+02 -0.39957140590E+01  0.68914645986E+02  0.00000000000E+00 0. -1.
    9900018    1    3    3    0    0 -0.38933098315E+03  0.69537514316E+03  0.21622773666E+03  0.83077964387E+03  0.91187600000E+02 0.  0.
<mgrwt>
<rscale>  0 0.43434984E+04</rscale>
<asrwt>0</asrwt>
<pdfrwt beam="1">  1        2 0.61081175E+00 0.43434984E+04</pdfrwt>
<pdfrwt beam="2">  1       -2 0.18276173E+00 0.43434984E+04</pdfrwt>
<totfact> 0.47961033E-02</totfact>
</mgrwt>
</event>
<event>
11    1  0.1335779E-017  0.2524862E+04  0.7818608E-02  0.8394181E-01
          2   -1    0    0  501    0  0.00000000000E+00  0.00000000000E+00  0.10513321210E+04  0.10513321210E+04  0.00000000000E+00 0. -1.
         -2   -1    0    0    0  501 -0.00000000000E+00 -0.00000000000E+00 -0.15159169961E+04  0.15159169961E+04  0.00000000000E+00 0.  1.
    9900016    2    1    2    0    0 -0.33800763685E+03  0.13662325277E+03 -0.83020150287E+03  0.20509249997E+04  0.18396042355E+04 0.  0.
         24    2    3    3    0    0  0.11970016778E+03 -0.28921612760E+03 -0.95573897331E+03  0.10088739438E+04  0.80097133408E+02 0.  0.
        -15    1    4    4    0    0  0.62671091089E+00 -0.19546565067E+02 -0.45369290154E+02  0.49404791889E+02  0.00000000000E+00 0.  1.
        -15    1    4    4    0    0 -0.52731751453E+01 -0.25539676127E+02 -0.92478838003E+02  0.96085466701E+02  0.00000000000E+00 0.  1.
         15    1    3    3    0    0 -0.35167712504E+03  0.41425884026E+03 -0.28115503360E+03  0.61182950233E+03  0.00000000000E+00 0. -1.
         15    1    4    4    0    0  0.64666681970E+02 -0.10412567276E+03 -0.41425409743E+03  0.43200739892E+03  0.00000000000E+00 0. -1.
        -16    1    4    4    0    0  0.59679950041E+02 -0.14000421364E+03 -0.40363674772E+03  0.43137628630E+03  0.00000000000E+00 0.  1.
         16    1    1    2    0    0  0.33800763685E+03 -0.13662325277E+03  0.36561662778E+03  0.51632411746E+03  0.00000000000E+00 0. -1.
    9900018    1    3    3    0    0 -0.10603067959E+03  0.11580540108E+02  0.40669250404E+03  0.43022155357E+03  0.91187600000E+02 0.  0.
<mgrwt>
<rscale>  0 0.25248622E+04</rscale>
<asrwt>0</asrwt>
<pdfrwt beam="1">  1        2 0.16174340E+00 0.25248622E+04</pdfrwt>
<pdfrwt beam="2">  1       -2 0.23321800E+00 0.25248622E+04</pdfrwt>
<totfact> 0.16972183E+00</totfact>
</mgrwt>
</event>
<event>
11    1  0.1335779E-017  0.2305939E+04  0.7818608E-02  0.8475583E-01
          1   -1    0    0  501    0  0.00000000000E+00  0.00000000000E+00  0.10477763482E+04  0.10477763482E+04  0.00000000000E+00 0. -1.
         -1   -1    0    0    0  501 -0.00000000000E+00 -0.00000000000E+00 -0.12687240678E+04  0.12687240678E+04  0.00000000000E+00 0.  1.
    9900016    2    1    2    0    0  0.18730752827E+03 -0.31125731481E+03  0.39419210959E+02  0.18695595199E+04  0.18335031219E+04 0.  0.
        -24    2    3    3    0    0 -0.14528457421E+03 -0.52687701961E+02  0.69688880669E+03  0.71933749827E+03  0.88931580934E+02 0.  0.
        -15    1    3    3    0    0  0.52906424452E+03  0.77618562185E+02 -0.29620217560E+03  0.61128499479E+03  0.00000000000E+00 0.  1.
        -15    1    4    4    0    0 -0.22045555194E+02 -0.29014569775E+02  0.15148685813E+03  0.15580795856E+03  0.00000000000E+00 0.  1.
         15    1    4    4    0    0 -0.91408009959E+02 -0.39626619028E+02  0.44107618051E+03  0.45218789263E+03  0.00000000000E+00 0. -1.
         15    1    4    4    0    0 -0.20262546551E+02  0.10263801640E+02  0.85909222411E+02  0.88861189009E+02  0.00000000000E+00 0. -1.
        -16    1    1    2    0    0 -0.18730752827E+03  0.31125731481E+03 -0.26036693054E+03  0.44694089619E+03  0.00000000000E+00 0.  1.
         16    1    4    4    0    0 -0.11568462503E+02  0.56896852026E+01  0.18416545635E+02  0.22480458081E+02  0.00000000000E+00 0. -1.
    9900018    1    3    3    0    0 -0.19647214204E+03 -0.33618817504E+03 -0.36126742014E+03  0.53893702682E+03  0.91187600000E+02 0.  0.
<mgrwt>
<rscale>  0 0.23059393E+04</rscale>
<asrwt>0</asrwt>
<pdfrwt beam="1">  1        1 0.16119636E+00 0.23059393E+04</pdfrwt>
<pdfrwt beam="2">  1       -1 0.19518832E+00 0.23059393E+04</pdfrwt>
<totfact> 0.20400081E+00</totfact>
</mgrwt>
</event>
<event>
11    1  0.1335779E-017  0.3029136E+04  0.7818608E-02  0.8235459E-01
          2   -1    0    0  501    0  0.00000000000E+00  0.00000000000E+00  0.41583043840E+04  0.41583043840E+04  0.00000000000E+00 0.  1.
         -2   -1    0    0    0  501 -0.00000000000E+00 -0.00000000000E+00 -0.55164708311E+03  0.55164708311E+03  0.00000000000E+00 0. -1.
    9900016    2    1    2    0    0 -0.10028458272E+03 -0.89936967431E+03  0.20010618996E+04  0.28668943868E+04  0.18428000137E+04 0.  0.
        -24    2    3    3    0    0  0.79688614861E+01 -0.11957079795E+03 -0.29136211038E+03  0.32529227058E+03  0.81009280107E+02 0.  0.
        -15    1    3    3    0    0  0.24950651197E+03 -0.66078034056E+03  0.13837032516E+04  0.15535504004E+04  0.00000000000E+00 0.  1.
        -15    1    4    4    0    0 -0.24039742025E+02 -0.37362194155E+02 -0.79560977338E+02  0.91125143971E+02  0.00000000000E+00 0.  1.
         15    1    4    4    0    0  0.23762454781E+02 -0.18391243709E+02 -0.47644975074E+02  0.56328818133E+02  0.00000000000E+00 0. -1.
         15    1    4    4    0    0 -0.11592925590E+01 -0.27320911984E+02 -0.97528911805E+02  0.10129000360E+03  0.00000000000E+00 0. -1.
        -16    1    1    2    0    0  0.10028458272E+03  0.89936967431E+03  0.16055954012E+04  0.18430570802E+04  0.00000000000E+00 0.  1.
         16    1    4    4    0    0  0.94054412898E+01 -0.36496448103E+02 -0.66627246158E+02  0.76548304884E+02  0.00000000000E+00 0. -1.
    9900018    1    3    3    0    0 -0.35775995618E+03 -0.11901853579E+03  0.90872075838E+03  0.98805171586E+03  0.91187600000E+02 0.  0.
<mgrwt>
<rscale>  0 0.30291362E+04</rscale>
<asrwt>0</asrwt>
<pdfrwt beam="1">  1        2 0.63973911E+00 0.30291362E+04</pdfrwt>
<pdfrwt beam="2">  1       -2 0.84868785E-01 0.30291362E+04</pdfrwt>
<totfact> 0.26061683E-01</totfact>
</mgrwt>
</event>
<event>
11    1  0.1335779E-017  0.2424300E+04  0.7818608E-02  0.8430462E-01
          2   -1    0    0  501    0  0.00000000000E+00  0.00000000000E+00  0.11273590065E+04  0.11273590065E+04  0.00000000000E+00 0. -1.
         -2   -1    0    0    0  501 -0.00000000000E+00 -0.00000000000E+00 -0.13033185265E+04  0.13033185265E+04  0.00000000000E+00 0.  1.
    9900016    2    1    2    0    0  0.41301201489E+03  0.26741223357E+03 -0.91890078724E+01  0.19111579175E+04  0.18467138167E+04 0.  0.
        -24    2    3    3    0    0 -0.21503398142E+03  0.24849687004E+03  0.19610414644E+03  0.39182110769E+03  0.84122747193E+02 0.  0.
        -15    1    3    3    0    0  0.88075319127E+03 -0.39744812679E+03  0.38608995216E+02  0.96704800912E+03  0.00000000000E+00 0.  1.
        -15    1    4    4    0    0 -0.23447857012E+02  0.16878983998E+02  0.38027062738E+02  0.47757298916E+02  0.00000000000E+00 0.  1.
         15    1    4    4    0    0 -0.51310460132E+02  0.34225363252E+02  0.23223384121E+02  0.65904964750E+02  0.00000000000E+00 0. -1.
         15    1    4    4    0    0 -0.37288763418E+02  0.69999439265E+02  0.48702067528E+02  0.93071288570E+02  0.00000000000E+00 0. -1.
        -16    1    1    2    0    0 -0.41301201489E+03 -0.26741223357E+03 -0.16677051216E+03  0.51951961545E+03  0.00000000000E+00 0.  1.
         16    1    4    4    0    0 -0.10298690086E+03  0.12739308353E+03  0.86151632054E+02  0.18508755546E+03  0.00000000000E+00 0. -1.
    9900018    1    3    3    0    0 -0.25270719496E+03  0.41636349032E+03 -0.24390214953E+03  0.55228880072E+03  0.91187600000E+02 0.  0.
<mgrwt>
<rscale>  0 0.24243002E+04</rscale>
<asrwt>0</asrwt>
<pdfrwt beam="1">  1        2 0.17343985E+00 0.24243002E+04</pdfrwt>
<pdfrwt beam="2">  1       -2 0.20051054E+00 0.24243002E+04</pdfrwt>
<totfact> 0.24820936E+00</totfact>
</mgrwt>
</event>
<event>
11    1  0.1335779E-017  0.2237380E+04  0.7818608E-02  0.8503029E-01
          1   -1    0    0  501    0  0.00000000000E+00  0.00000000000E+00  0.15137612688E+04  0.15137612688E+04  0.00000000000E+00 0. -1.
         -1   -1    0    0    0  501 -0.00000000000E+00 -0.00000000000E+00 -0.82672684021E+03  0.82672684021E+03  0.00000000000E+00 0.  1.
    9900016    2    1    2    0    0  0.24663438583E+02 -0.19666838736E+03  0.25941309464E+03  0.18691636507E+04  0.18404322480E+04 0.  0.
         24    2    3    3    0    0  0.18962621838E+03 -0.36200561245E+03 -0.70286373269E+03  0.81695161719E+03  0.79914654203E+02 0.  0.
        -15    1    4    4    0    0  0.28633442434E+02 -0.30280350143E+02 -0.86884530020E+02  0.96362312068E+02  0.00000000000E+00 0.  1.
        -15    1    4    4    0    0  0.33991138813E+02 -0.90401190424E+02 -0.13751448634E+03  0.16804168144E+03  0.00000000000E+00 0. -1.
         15    1    4    4    0    0  0.16210440977E+02 -0.35264432571E+02 -0.10399760129E+03  0.11100387234E+03  0.00000000000E+00 0.  1.
         15    1    3    3    0    0 -0.21512315494E+03  0.11658634376E+03  0.33699543189E+03  0.41645680263E+03  0.00000000000E+00 0. -1.
        -16    1    4    4    0    0  0.11079119616E+03 -0.20605963931E+03 -0.37446711504E+03  0.44154375134E+03  0.00000000000E+00 0.  1.
         16    1    1    2    0    0 -0.24663438583E+02  0.19666838736E+03  0.42762133400E+03  0.47132445839E+03  0.00000000000E+00 0. -1.
    9900018    1    3    3    0    0  0.50160375139E+02  0.48750881337E+02  0.62528139543E+03  0.63575523084E+03  0.91187600000E+02 0.  0.
<mgrwt>
<rscale>  0 0.22373798E+04</rscale>
<asrwt>0</asrwt>
<pdfrwt beam="1">  1        1 0.23288635E+00 0.22373798E+04</pdfrwt>
<pdfrwt beam="2">  1       -1 0.12718874E+00 0.22373798E+04</pdfrwt>
<totfact> 0.31163871E+00</totfact>
</mgrwt>
</event>
<event>
11    1  0.1335779E-017  0.2078626E+04  0.7818608E-02  0.8570718E-01
         -1   -1    0    0    0  501 -0.00000000000E+00  0.00000000000E+00  0.57279888333E+03  0.57279888333E+03  0.00000000000E+00 0.  1.
          1   -1    0    0  501    0  0.00000000000E+00 -0.00000000000E+00 -0.18857779661E+04  0.18857779661E+04  0.00000000000E+00 0. -1.
    9900016    2    1    2    0    0  0.88070734057E+02  0.18523631284E+03 -0.12681157362E+04  0.22486205072E+04  0.18455643362E+04 0.  0.
         24    2    3    3    0    0  0.26240160532E+03 -0.57839355586E+02  0.38129069392E+03  0.47311809596E+03  0.79108444051E+02 0.  0.
        -15    1    4    4    0    0  0.30754338919E+02 -0.20597775886E+02  0.44892568376E+02  0.58184537716E+02  0.00000000000E+00 0.  1.
        -15    1    4    4    0    0  0.17398995601E+03 -0.21465009475E+02  0.26891704588E+03  0.32101344051E+03  0.00000000000E+00 0.  1.
         15    1    4    4    0    0  0.15619007986E+02  0.71485266862E+01  0.21670324326E+02  0.27652446558E+02  0.00000000000E+00 0. -1.
         15    1    3    3    0    0  0.35949622127E+02  0.37820518111E+03 -0.80449738436E+03  0.88968959519E+03  0.00000000000E+00 0. -1.
        -16    1    4    4    0    0  0.42038302411E+02 -0.22925096911E+02  0.45810755339E+02  0.66267671173E+02  0.00000000000E+00 0.  1.
         16    1    1    2    0    0 -0.88070734057E+02 -0.18523631284E+03 -0.44863346633E+02  0.20995634228E+03  0.00000000000E+00 0. -1.
    9900018    1    3    3    0    0 -0.21028049339E+03 -0.13512951269E+03 -0.84490904573E+03  0.88581281604E+03  0.91187600000E+02 0.  0.
<mgrwt>
<rscale>  0 0.20786260E+04</rscale>
<asrwt>0</asrwt>
<pdfrwt beam="1">  1        1 0.29011968E+00 0.20786260E+04</pdfrwt>
<pdfrwt beam="2">  1       -1 0.88122907E-01 0.20786260E+04</pdfrwt>
<totfact> 0.41528085E+00</totfact>
</mgrwt>
</event>
<event>
12    1  0.1335779E-017  0.1969031E+04  0.7818608E-02  0.8621238E-01
         -1   -1    0    0    0  501 -0.00000000000E+00  0.00000000000E+00  0.68442813770E+03  0.68442813770E+03  0.00000000000E+00 0.  1.
          1   -1    0    0  501    0  0.00000000000E+00 -0.00000000000E+00 -0.14161766581E+04  0.14161766581E+04  0.00000000000E+00 0. -1.
    9900016    2    1    2    0    0 -0.99657151154E+02  0.65370110446E+02 -0.70323535579E+03  0.19780576633E+04  0.18449843779E+04 0.  0.
         24    2    3    3    0    0 -0.17533885735E+03  0.16947892528E+03  0.46447493170E+03  0.53061541386E+03  0.79680199794E+02 0.  0.
        -24    2    4    4    0    0 -0.10660402304E+03  0.99969965357E+02  0.26480142241E+03  0.30725017232E+03  0.54078307807E+02 0.  0.
        -15    1    4    4    0    0 -0.50656137791E+02  0.52207178426E+02  0.16743610665E+03  0.18255542607E+03  0.00000000000E+00 0.  1.
        -15    1    4    4    0    0 -0.18078696513E+02  0.17301781502E+02  0.32237402634E+02  0.40809815478E+02  0.00000000000E+00 0.  1.
         15    1    5    5    0    0 -0.22011828767E+02  0.55800556956E+02  0.91454798971E+02  0.10937185660E+03  0.00000000000E+00 0. -1.
         15    1    3    3    0    0 -0.70073728541E+02 -0.42219238117E+03 -0.90313738323E+03  0.99940675760E+03  0.00000000000E+00 0. -1.
        -16    1    5    5    0    0 -0.84592194278E+02  0.44169408400E+02  0.17334662344E+03  0.19787831571E+03  0.00000000000E+00 0.  1.
         16    1    1    2    0    0  0.99657151154E+02 -0.65370110446E+02 -0.28513164603E+02  0.12254713245E+03  0.00000000000E+00 0. -1.
    9900018    1    3    3    0    0  0.14575543474E+03  0.31808356633E+03 -0.26457290426E+03  0.44803549188E+03  0.91187600000E+02 0.  0.
<mgrwt>
<rscale>  0 0.19690314E+04</rscale>
<asrwt>0</asrwt>
<pdfrwt beam="1">  1        1 0.21787333E+00 0.19690314E+04</pdfrwt>
<pdfrwt beam="2">  1       -1 0.10529664E+00 0.19690314E+04</pdfrwt>
<totfact> 0.58878129E+00</totfact>
</mgrwt>
</event>
<event>
11    1  0.1335779E-017  0.3078745E+04  0.7818608E-02  0.8221596E-01
         -2   -1    0    0    0  501 -0.00000000000E+00  0.00000000000E+00  0.19918986126E+04  0.19918986126E+04  0.00000000000E+00 0.  1.
          2   -1    0    0  501    0  0.00000000000E+00 -0.00000000000E+00 -0.11896524838E+04  0.11896524838E+04  0.00000000000E+00 0. -1.
    9900016    2    1    2    0    0  0.80363066108E+03 -0.26982204709E+03  0.10652436291E+04  0.22939735721E+04  0.18463327391E+04 0.  0.
         24    2    3    3    0    0 -0.15422972884E+03  0.24199684890E+03  0.13017549280E+03  0.32597675136E+03  0.83461963615E+02 0.  0.
        -15    1    4    4    0    0  0.44805467779E+00  0.14744084695E+02 -0.40085436217E+01  0.15285849942E+02  0.00000000000E+00 0. -1.
        -15    1    4    4    0    0  0.13299726749E+01  0.18736995335E+02  0.64689346003E+01  0.19866830053E+02  0.00000000000E+00 0.  1.
         15    1    3    3    0    0 -0.99344431621E+02  0.17317530061E+03 -0.19069602067E+03  0.27608689418E+03  0.00000000000E+00 0.  1.
         15    1    4    4    0    0 -0.57734548439E+02  0.75617435217E+02  0.58097911548E+02  0.11147484882E+03  0.00000000000E+00 0. -1.
        -16    1    4    4    0    0 -0.98273207752E+02  0.13289833365E+03  0.69617190276E+02  0.17934922255E+03  0.00000000000E+00 0.  1.
         16    1    1    2    0    0 -0.80363066108E+03  0.26982204709E+03 -0.26299750032E+03  0.88757752433E+03  0.00000000000E+00 0. -1.
    9900018    1    3    3    0    0  0.10572048215E+04 -0.68499419660E+03  0.11257641570E+04  0.16919099266E+04  0.91187600000E+02 0.  0.
<mgrwt>
<rscale>  0 0.30787446E+04</rscale>
<asrwt>0</asrwt>
<pdfrwt beam="1">  1        2 0.18302346E+00 0.30787446E+04</pdfrwt>
<pdfrwt beam="2">  1       -2 0.30644594E+00 0.30787446E+04</pdfrwt>
<totfact> 0.47413699E-01</totfact>
</mgrwt>
</event>
<event>
11    1  0.1335779E-017  0.2782447E+04  0.7818608E-02  0.8308739E-01
          1   -1    0    0  501    0  0.00000000000E+00  0.00000000000E+00  0.19372844437E+04  0.19372844437E+04  0.00000000000E+00 0. -1.
         -1   -1    0    0    0  501 -0.00000000000E+00 -0.00000000000E+00 -0.99908008864E+03  0.99908008864E+03  0.00000000000E+00 0.  1.
    9900016    2    1    2    0    0 -0.60815020562E+03 -0.47336770177E+03  0.53960461600E+03  0.20687209387E+04  0.18424194763E+04 0.  0.
        -24    2    3    3    0    0  0.14085662323E+03  0.93368264622E+02 -0.64108562059E+02  0.19701182686E+03  0.78393437525E+02 0.  0.
        -15    1    3    3    0    0 -0.44396817152E+03  0.31495652876E+03  0.74607777597E+03  0.92354610071E+03  0.00000000000E+00 0.  1.
        -15    1    4    4    0    0  0.77962596581E+02  0.49295584824E+02 -0.33134134334E+02  0.98010672923E+02  0.00000000000E+00 0.  1.
         15    1    4    4    0    0  0.27934724206E+02  0.55256992235E+01 -0.50878087836E+01  0.28926941882E+02  0.00000000000E+00 0. -1.
         15    1    4    4    0    0 -0.17773633875E+01  0.20904351707E+02  0.14045804418E+01  0.21026739812E+02  0.00000000000E+00 0. -1.
        -16    1    1    2    0    0  0.60815020562E+03  0.47336770177E+03  0.39859973903E+03  0.86764359366E+03  0.00000000000E+00 0.  1.
         16    1    4    4    0    0  0.36736665826E+02  0.17642628868E+02 -0.27291199383E+02  0.49047472240E+02  0.00000000000E+00 0. -1.
    9900018    1    3    3    0    0 -0.30503865733E+03 -0.88169249515E+03 -0.14236459791E+03  0.94816301109E+03  0.91187600000E+02 0.  0.
<mgrwt>
<rscale>  0 0.27824466E+04</rscale>
<asrwt>0</asrwt>
<pdfrwt beam="1">  1        1 0.29804376E+00 0.27824466E+04</pdfrwt>
<pdfrwt beam="2">  1       -1 0.15370463E+00 0.27824466E+04</pdfrwt>
<totfact> 0.93051288E-01</totfact>
</mgrwt>
</event>
<event>
11    1  0.1335779E-017  0.2819789E+04  0.7818608E-02  0.8297151E-01
         -1   -1    0    0    0  501 -0.00000000000E+00  0.00000000000E+00  0.18130749579E+04  0.18130749579E+04  0.00000000000E+00 0.  1.
          1   -1    0    0  501    0  0.00000000000E+00 -0.00000000000E+00 -0.10963710201E+04  0.10963710201E+04  0.00000000000E+00 0. -1.
    9900016    2    1    2    0    0 -0.21245534389E+03  0.45913735489E+03  0.11590024917E+04  0.22374546130E+04  0.18457984683E+04 0.  0.
         24    2    3    3    0    0 -0.28039078390E+03  0.30055232400E+02  0.13213545232E+04  0.13535386064E+04  0.81035019093E+02 0.  0.
        -15    1    4    4    0    0 -0.12678656435E+03 -0.55145190579E+01  0.57292630535E+03  0.58681325325E+03  0.00000000000E+00 0.  1.
        -15    1    4    4    0    0 -0.73856508493E+02  0.25929890326E+02  0.41614505031E+03  0.42344284851E+03  0.00000000000E+00 0.  1.
         15    1    3    3    0    0  0.38856115004E+03  0.17324467016E+03  0.19888826510E+02  0.42589793199E+03  0.00000000000E+00 0. -1.
         15    1    4    4    0    0 -0.89033395719E+01  0.12330825537E+02  0.65159495483E+02  0.66910974926E+02  0.00000000000E+00 0. -1.
        -16    1    4    4    0    0 -0.70844371481E+02 -0.26909644051E+01  0.26712367206E+03  0.27637152971E+03  0.00000000000E+00 0.  1.
         16    1    1    2    0    0  0.21245534389E+03 -0.45913735489E+03 -0.44229855399E+03  0.67199136502E+03  0.00000000000E+00 0. -1.
    9900018    1    3    3    0    0 -0.32062571002E+03  0.25583745234E+03 -0.18224085797E+03  0.45801807459E+03  0.91187600000E+02 0.  0.
<mgrwt>
<rscale>  0 0.28197892E+04</rscale>
<asrwt>0</asrwt>
<pdfrwt beam="1">  1        1 0.16867246E+00 0.28197892E+04</pdfrwt>
<pdfrwt beam="2">  1       -1 0.27893461E+00 0.28197892E+04</pdfrwt>
<totfact> 0.49860442E-01</totfact>
</mgrwt>
</event>
<event>
11    1  0.1335779E-017  0.3624985E+04  0.7818608E-02  0.8084792E-01
         -1   -1    0    0    0  501 -0.00000000000E+00  0.00000000000E+00  0.13556475787E+04  0.13556475787E+04  0.00000000000E+00 0.  1.
          1   -1    0    0  501    0  0.00000000000E+00 -0.00000000000E+00 -0.24232910867E+04  0.24232910867E+04  0.00000000000E+00 0. -1.
    9900016    2    1    2    0    0  0.54838278012E+03 -0.11790651113E+04 -0.10505067855E+04  0.24784726422E+04  0.18298480597E+04 0.  0.
        -24    2    3    3    0    0 -0.28730435268E+03  0.27409985307E+03 -0.43509132375E+03  0.59441309243E+03  0.79673985255E+02 0.  0.
        -15    1    4    4    0    0 -0.61163314462E+01  0.11647618398E+02 -0.53524674985E+01  0.14203007887E+02  0.00000000000E+00 0.  1.
        -15    1    3    3    0    0  0.44180305306E+03 -0.45860594791E+03 -0.48932117995E+03  0.80308441045E+03  0.00000000000E+00 0.  1.
         15    1    4    4    0    0 -0.14847099663E+03  0.13464829496E+03 -0.20133805691E+03  0.28409648597E+03  0.00000000000E+00 0. -1.
         15    1    4    4    0    0 -0.12806511945E+02  0.28049940222E+02 -0.53617646767E+02  0.61851903282E+02  0.00000000000E+00 0. -1.
        -16    1    1    2    0    0 -0.54838278012E+03  0.11790651113E+04 -0.17136722584E+02  0.13004660232E+04  0.00000000000E+00 0.  1.
         16    1    4    4    0    0 -0.11991051266E+03  0.99753999487E+02 -0.17478315257E+03  0.23426169529E+03  0.00000000000E+00 0. -1.
    9900018    1    3    3    0    0  0.39388407973E+03 -0.99455901647E+03 -0.12609428178E+03  0.10809751393E+04  0.91187600000E+02 0.  0.
<mgrwt>
<rscale>  0 0.36249848E+04</rscale>
<asrwt>0</asrwt>
<pdfrwt beam="1">  1        1 0.37281401E+00 0.36249848E+04</pdfrwt>
<pdfrwt beam="2">  1       -1 0.20856117E+00 0.36249848E+04</pdfrwt>
<totfact> 0.16251903E-01</totfact>
</mgrwt>
</event>
<event>
11    1  0.1335779E-017  0.2974505E+04  0.7818608E-02  0.8251049E-01
         -1   -1    0    0    0  501 -0.00000000000E+00  0.00000000000E+00  0.10343072426E+04  0.10343072426E+04  0.00000000000E+00 0.  1.
          1   -1    0    0  501    0  0.00000000000E+00 -0.00000000000E+00 -0.21385518563E+04  0.21385518563E+04  0.00000000000E+00 0. -1.
    9900016    2    1    2    0    0  0.61906500542E+03  0.69441311255E+03 -0.78948549404E+03  0.21907570903E+04  0.18195269252E+04 0.  0.
        -24    2    3    3    0    0  0.13791439256E+03 -0.13906169032E+03 -0.31838509458E+03  0.38210397071E+03  0.79220215799E+02 0.  0.
        -15    1    3    3    0    0  0.27893855328E+03  0.84156262173E+03 -0.93860530176E+03  0.12911290700E+04  0.00000000000E+00 0.  1.
        -15    1    4    4    0    0  0.82388173642E+02 -0.69268109580E+02 -0.17188520267E+03  0.20280632400E+03  0.00000000000E+00 0.  1.
         15    1    4    4    0    0  0.61830462704E+01 -0.21475292811E+02 -0.63560417797E+02  0.67374661209E+02  0.00000000000E+00 0. -1.
         15    1    4    4    0    0  0.29036597767E+02 -0.26999900620E+02 -0.24836836630E+02  0.46786612371E+02  0.00000000000E+00 0. -1.
        -16    1    1    2    0    0 -0.61906500542E+03 -0.69441311255E+03 -0.31475911969E+03  0.98210200857E+03  0.00000000000E+00 0.  1.
         16    1    4    4    0    0  0.20306574885E+02 -0.21318387309E+02 -0.58102637492E+02  0.65136373130E+02  0.00000000000E+00 0. -1.
    9900018    1    3    3    0    0  0.20221205957E+03 -0.80878188666E+01  0.46750490231E+03  0.51752404961E+03  0.91187600000E+02 0.  0.
<mgrwt>
<rscale>  0 0.29745048E+04</rscale>
<asrwt>0</asrwt>
<pdfrwt beam="1">  1        1 0.32900798E+00 0.29745048E+04</pdfrwt>
<pdfrwt beam="2">  1       -1 0.15912419E+00 0.29745048E+04</pdfrwt>
<totfact> 0.60714247E-01</totfact>
</mgrwt>
</event>
<event>
11    1  0.1335779E-017  0.2250095E+04  0.7818608E-02  0.8497862E-01
         -1   -1    0    0    0  501 -0.00000000000E+00  0.00000000000E+00  0.58077303562E+03  0.58077303562E+03  0.00000000000E+00 0.  1.
          1   -1    0    0  501    0  0.00000000000E+00 -0.00000000000E+00 -0.21793913613E+04  0.21793913613E+04  0.00000000000E+00 0. -1.
    9900016    2    1    2    0    0  0.14004634232E+03  0.29264043971E+03 -0.12579876358E+04  0.22897596012E+04  0.18855277072E+04 0.  0.
         24    2    3    3    0    0  0.61469353074E+02 -0.46341148480E+02  0.47292611108E+03  0.48572981419E+03  0.79676611636E+02 0.  0.
        -15    1    4    4    0    0 -0.55023897166E+01 -0.26090080714E+02  0.62348199655E+02  0.67810519866E+02  0.00000000000E+00 0.  1.
        -15    1    4    4    0    0  0.89294788070E+01 -0.76588275501E+01  0.32136667758E+02  0.34222195221E+02  0.00000000000E+00 0. -1.
         15    1    4    4    0    0  0.20071462035E+02 -0.13292993322E+02  0.11161528349E+03  0.11418204224E+03  0.00000000000E+00 0.  1.
         15    1    3    3    0    0  0.13790457099E+03  0.36139248476E+03 -0.14784317005E+04  0.15281958290E+04  0.00000000000E+00 0. -1.
        -16    1    4    4    0    0  0.37970801949E+02  0.70075310529E+00  0.26682596017E+03  0.26951505687E+03  0.00000000000E+00 0.  1.
         16    1    1    2    0    0 -0.14004634232E+03 -0.29264043971E+03 -0.34063068981E+03  0.47040479567E+03  0.00000000000E+00 0. -1.
    9900018    1    3    3    0    0 -0.59327581739E+02 -0.22410896567E+02 -0.25248204638E+03  0.27583395798E+03  0.91187600000E+02 0.  0.
<mgrwt>
<rscale>  0 0.22500949E+04</rscale>
<asrwt>0</asrwt>
<pdfrwt beam="1">  1        1 0.33529097E+00 0.22500949E+04</pdfrwt>
<pdfrwt beam="2">  1       -1 0.89349699E-01 0.22500949E+04</pdfrwt>
<totfact> 0.25067915E+00</totfact>
</mgrwt>
</event>
<event>
11    1  0.1335779E-017  0.2920218E+04  0.7818608E-02  0.8266887E-01
          2   -1    0    0  501    0  0.00000000000E+00  0.00000000000E+00  0.24317974241E+04  0.24317974241E+04  0.00000000000E+00 0. -1.
         -2   -1    0    0    0  501 -0.00000000000E+00 -0.00000000000E+00 -0.87668410406E+03  0.87668410406E+03  0.00000000000E+00 0.  1.
    9900016    2    1    2    0    0 -0.23558066797E+03  0.84424438419E+03  0.10185145904E+04  0.22807728983E+04  0.18429070001E+04 0.  0.
         24    2    3    3    0    0  0.32919802093E+03 -0.17119259698E+03  0.14237938207E+03  0.40551300912E+03  0.80564693754E+02 0.  0.
        -15    1    4    4    0    0  0.10935408003E+02 -0.14001363287E+00 -0.85823955727E+00  0.10969928311E+02  0.00000000000E+00 0. -1.
        -15    1    4    4    0    0  0.39512494145E+02 -0.35979487075E+02  0.47896886847E+01  0.53653534846E+02  0.00000000000E+00 0.  1.
         15    1    4    4    0    0  0.22130582042E+03 -0.96252194026E+02  0.11780766818E+03  0.26855054960E+03  0.00000000000E+00 0. -1.
         15    1    3    3    0    0  0.18666807101E+03  0.38972002438E+03 -0.14758762015E+03  0.45662760731E+03  0.00000000000E+00 0.  1.
        -16    1    4    4    0    0  0.57444298363E+02 -0.38820902250E+02  0.20640264766E+02  0.72338996368E+02  0.00000000000E+00 0.  1.
         16    1    1    2    0    0  0.23558066797E+03 -0.84424438419E+03  0.53659872960E+03  0.10277086299E+04  0.00000000000E+00 0. -1.
    9900018    1    3    3    0    0 -0.75144675991E+03  0.62571695680E+03  0.10237228285E+04  0.14186322818E+04  0.91187600000E+02 0.  0.
<mgrwt>
<rscale>  0 0.29202179E+04</rscale>
<asrwt>0</asrwt>
<pdfrwt beam="1">  1        2 0.37412268E+00 0.29202179E+04</pdfrwt>
<pdfrwt beam="2">  1       -2 0.13487448E+00 0.29202179E+04</pdfrwt>
<totfact> 0.12985772E+00</totfact>
</mgrwt>
</event>
<event>
11    1  0.1335779E-017  0.2659681E+04  0.7818608E-02  0.8348207E-01
         -2   -1    0    0    0  501 -0.00000000000E+00  0.00000000000E+00  0.75402347119E+03  0.75402347119E+03  0.00000000000E+00 0. -1.
          2   -1    0    0  501    0  0.00000000000E+00 -0.00000000000E+00 -0.23453857800E+04  0.23453857800E+04  0.00000000000E+00 0.  1.
    9900016    2    1    2    0    0  0.44497092426E+03  0.51637470246E+03 -0.10387763090E+04  0.22219166620E+04  0.18420682605E+04 0.  0.
         24    2    3    3    0    0 -0.16375314229E+03  0.16213738346E+03 -0.88315621202E+03  0.91619413076E+03  0.79644005906E+02 0.  0.
        -15    1    4    4    0    0 -0.11390189412E+03  0.10264393138E+03 -0.62140129071E+03  0.64003826622E+03  0.00000000000E+00 0.  1.
        -15    1    4    4    0    0 -0.43100240412E+02  0.32446018609E+02 -0.14286126023E+03  0.15270793863E+03  0.00000000000E+00 0.  1.
         15    1    3    3    0    0  0.58239614031E+03  0.20039705789E+03  0.39130403192E+03  0.72970068553E+03  0.00000000000E+00 0. -1.
         15    1    4    4    0    0 -0.11233277511E+02  0.24300267422E+02 -0.10905447910E+03  0.11229233692E+03  0.00000000000E+00 0. -1.
        -16    1    4    4    0    0  0.44822697447E+01  0.27471660518E+01 -0.98391819864E+01  0.11155588982E+02  0.00000000000E+00 0.  1.
         16    1    1    2    0    0 -0.44497092426E+03 -0.51637470246E+03 -0.55258599979E+03  0.87749258911E+03  0.00000000000E+00 0. -1.
    9900018    1    3    3    0    0  0.26327926251E+02  0.15384026111E+03 -0.54692412889E+03  0.57602184576E+03  0.91187600000E+02 0.  0.
<mgrwt>
<rscale>  0 0.26596811E+04</rscale>
<asrwt>0</asrwt>
<pdfrwt beam="1">  1        2 0.36082858E+00 0.26596811E+04</pdfrwt>
<pdfrwt beam="2">  1       -2 0.11600361E+00 0.26596811E+04</pdfrwt>
<totfact> 0.21701948E+00</totfact>
</mgrwt>
</event>
<event>
11    1  0.1335779E-017  0.1998116E+04  0.7818608E-02  0.8607502E-01
         -2   -1    0    0    0  501 -0.00000000000E+00  0.00000000000E+00  0.75585317514E+03  0.75585317514E+03  0.00000000000E+00 0.  1.
          2   -1    0    0  501    0  0.00000000000E+00 -0.00000000000E+00 -0.13205170430E+04  0.13205170430E+04  0.00000000000E+00 0. -1.
    9900016    2    1    2    0    0  0.26357836332E+02 -0.15181398580E+03 -0.51749362053E+03  0.19152266361E+04  0.18375394413E+04 0.  0.
         24    2    3    3    0    0  0.25082878565E+03 -0.86051278504E+02  0.62219990146E+03  0.68140853386E+03  0.82855116920E+02 0.  0.
        -15    1    4    4    0    0  0.36576377879E+02 -0.28440661106E+02  0.80152747650E+02  0.92580589643E+02  0.00000000000E+00 0.  1.
        -15    1    4    4    0    0  0.82804041164E+02 -0.34472409279E+02  0.24022396436E+03  0.25642232603E+03  0.00000000000E+00 0.  1.
         15    1    4    4    0    0  0.76766431859E+02  0.64481101765E+01  0.16212744969E+03  0.17949922876E+03  0.00000000000E+00 0. -1.
         15    1    3    3    0    0 -0.20960118158E+03  0.66212791175E+01 -0.10836496878E+04  0.11037541132E+04  0.00000000000E+00 0. -1.
        -16    1    4    4    0    0  0.54681934745E+02 -0.29586318296E+02  0.13969573977E+03  0.15290638943E+03  0.00000000000E+00 0.  1.
         16    1    1    2    0    0 -0.26357836332E+02  0.15181398580E+03 -0.47170247355E+02  0.16114358211E+03  0.00000000000E+00 0. -1.
    9900018    1    3    3    0    0 -0.14869767730E+02 -0.72383986410E+02 -0.56043834237E+02  0.13006398898E+03  0.91187600000E+02 0.  0.
<mgrwt>
<rscale>  0 0.19981161E+04</rscale>
<asrwt>0</asrwt>
<pdfrwt beam="1">  1        2 0.20315647E+00 0.19981161E+04</pdfrwt>
<pdfrwt beam="2">  1       -2 0.11628510E+00 0.19981161E+04</pdfrwt>
<totfact> 0.85768822E+00</totfact>
</mgrwt>
</event>
<event>
11    1  0.1335779E-017  0.2000215E+04  0.7818608E-02  0.8606520E-01
          1   -1    0    0  501    0  0.00000000000E+00  0.00000000000E+00  0.14511662024E+04  0.14511662024E+04  0.00000000000E+00 0. -1.
         -1   -1    0    0    0  501 -0.00000000000E+00 -0.00000000000E+00 -0.68924894839E+03  0.68924894839E+03  0.00000000000E+00 0.  1.
    9900016    2    1    2    0    0 -0.54604853552E+02 -0.23061685857E+02  0.85054578834E+03  0.20337917553E+04  0.18464471924E+04 0.  0.
        -24    2    3    3    0    0  0.96519691577E+02 -0.28109376431E+03  0.53343467736E+03  0.61595143762E+03  0.80708508190E+02 0.  0.
        -15    1    3    3    0    0 -0.66205717593E+02 -0.22675388311E+03  0.73107708460E+03  0.76829305878E+03  0.00000000000E+00 0.  1.
        -15    1    4    4    0    0  0.29294174930E+02 -0.53850144400E+02  0.80222325077E+02  0.10096340019E+03  0.00000000000E+00 0.  1.
         15    1    4    4    0    0  0.10935219474E+02 -0.85330896909E+02  0.17873471582E+03  0.19836088231E+03  0.00000000000E+00 0. -1.
         15    1    4    4    0    0  0.26374002328E+01 -0.15318111210E+02  0.59048812082E+02  0.61060319515E+02  0.00000000000E+00 0. -1.
        -16    1    1    2    0    0  0.54604853552E+02  0.23061685857E+02 -0.88628534301E+02  0.10662339555E+03  0.00000000000E+00 0.  1.
         16    1    4    4    0    0  0.53652896941E+02 -0.12659461179E+03  0.21542882438E+03  0.25556683560E+03  0.00000000000E+00 0. -1.
    9900018    1    3    3    0    0 -0.84918827536E+02  0.48478596156E+03 -0.41396597362E+03  0.64954725887E+03  0.91187600000E+02 0.  0.
<mgrwt>
<rscale>  0 0.20002148E+04</rscale>
<asrwt>0</asrwt>
<pdfrwt beam="1">  1        1 0.22325634E+00 0.20002148E+04</pdfrwt>
<pdfrwt beam="2">  1       -1 0.10603830E+00 0.20002148E+04</pdfrwt>
<totfact> 0.54597790E+00</totfact>
</mgrwt>
</event>
<event>
11    1  0.1335779E-017  0.2802722E+04  0.7818608E-02  0.8302424E-01
         -2   -1    0    0    0  501 -0.00000000000E+00  0.00000000000E+00  0.79492914260E+03  0.79492914260E+03  0.00000000000E+00 0.  1.
          2   -1    0    0  501    0  0.00000000000E+00 -0.00000000000E+00 -0.24704246862E+04  0.24704246862E+04  0.00000000000E+00 0. -1.
    9900016    2    1    2    0    0 -0.35238096308E+02 -0.79354667108E+03 -0.11807516929E+04  0.23295496182E+04  0.18443613586E+04 0.  0.
         24    2    3    3    0    0  0.25105120760E+03  0.89668327269E+02  0.23420846183E+03  0.36366102082E+03  0.79552603478E+02 0.  0.
        -15    1    4    4    0    0  0.14481393050E+02  0.10887617834E+02  0.28826963977E+02  0.34047684486E+02  0.00000000000E+00 0.  1.
        -15    1    4    4    0    0  0.92782802450E+02  0.13065067646E+02  0.76799040988E+02  0.12115047305E+03  0.00000000000E+00 0.  1.
         15    1    4    4    0    0  0.10048518644E+03  0.66971560056E+02  0.93889203978E+02  0.15296288822E+03  0.00000000000E+00 0. -1.
         15    1    3    3    0    0 -0.18733872065E+03 -0.10482288474E+04 -0.85113362626E+03  0.13631976975E+04  0.00000000000E+00 0. -1.
        -16    1    4    4    0    0  0.43301825662E+02 -0.12559182666E+01  0.34693252885E+02  0.55499975063E+02  0.00000000000E+00 0.  1.
         16    1    1    2    0    0  0.35238096308E+02  0.79354667108E+03 -0.49474385072E+03  0.93580421053E+03  0.00000000000E+00 0. -1.
    9900018    1    3    3    0    0 -0.98950583251E+02  0.16501384903E+03 -0.56382652843E+03  0.60269089992E+03  0.91187600000E+02 0.  0.
<mgrwt>
<rscale>  0 0.28027219E+04</rscale>
<asrwt>0</asrwt>
<pdfrwt beam="1">  1        2 0.38006534E+00 0.28027219E+04</pdfrwt>
<pdfrwt beam="2">  1       -2 0.12229679E+00 0.28027219E+04</pdfrwt>
<totfact> 0.15952092E+00</totfact>
</mgrwt>
</event>
<event>
11    1  0.1335779E-017  0.2134393E+04  0.7818608E-02  0.8546242E-01
          2   -1    0    0  501    0  0.00000000000E+00  0.00000000000E+00  0.92804547152E+03  0.92804547152E+03  0.00000000000E+00 0.  1.
         -2   -1    0    0    0  501 -0.00000000000E+00 -0.00000000000E+00 -0.12272118613E+04  0.12272118613E+04  0.00000000000E+00 0. -1.
    9900016    2    1    2    0    0  0.21958835368E+03 -0.73983642579E+02 -0.40164240891E+03  0.19018920650E+04  0.18445010647E+04 0.  0.
        -24    2    3    3    0    0  0.46623952693E+02 -0.75892875989E+02  0.44789412646E+03  0.46301512239E+03  0.76422074433E+02 0.  0.
        -15    1    4    4    0    0 -0.33534654805E+01 -0.34761225529E+02  0.16506630594E+03  0.16872010517E+03  0.00000000000E+00 0.  1.
        -15    1    3    3    0    0  0.98851444270E+02  0.39696340046E+03  0.84700338362E+02  0.41776272770E+03  0.00000000000E+00 0.  1.
         15    1    4    4    0    0  0.15139270124E+02 -0.20041015401E+01  0.54053522176E+02  0.56169361599E+02  0.00000000000E+00 0. -1.
         15    1    4    4    0    0  0.28940848545E+02 -0.47052126978E+02  0.20646810919E+03  0.21373009961E+03  0.00000000000E+00 0. -1.
        -16    1    1    2    0    0 -0.21958835368E+03  0.73983642579E+02  0.10247601913E+03  0.25336526782E+03  0.00000000000E+00 0.  1.
         16    1    4    4    0    0  0.58972995050E+01  0.79245780586E+01  0.22306189148E+02  0.24395556013E+02  0.00000000000E+00 0. -1.
    9900018    1    3    3    0    0  0.74112956721E+02 -0.39505416705E+03 -0.93423687373E+03  0.10211142149E+04  0.91187600000E+02 0.  0.
<mgrwt>
<rscale>  0 0.21343930E+04</rscale>
<asrwt>0</asrwt>
<pdfrwt beam="1">  1        2 0.14277623E+00 0.21343930E+04</pdfrwt>
<pdfrwt beam="2">  1       -2 0.18880183E+00 0.21343930E+04</pdfrwt>
<totfact> 0.40727202E+00</totfact>
</mgrwt>
</event>
