<event>
13    1  0.5673330E-011  0.5312827E+04  0.7818608E-02  0.7781983E-01
          2   -1    0    0  501    0  0.00000000000E+00  0.00000000000E+00  0.37491897416E+04  0.37491897416E+04  0.00000000000E+00 0. -1.
         -2   -1    0    0    0  501 -0.00000000000E+00 -0.00000000000E+00 -0.18821488203E+04  0.18821488203E+04  0.00000000000E+00 0.  1.
    9900016    2    1    2    0    0  0.95820452335E+03  0.15456880002E+04  0.31784562581E+03  0.25896938995E+04  0.18160895762E+04 0.  0.
         24    2    3    3    0    0  0.39199039979E+03 -0.28746608954E+03  0.44902292976E+03  0.66660788073E+03  0.80319667819E+02 0.  0.
    9900016    2    1    2    0    0 -0.95820452335E+03 -0.15456880002E+04  0.15491952955E+04  0.30416446624E+04  0.18826281858E+04 0.  0.
        -24    2    5    5    0    0  0.25668604712E+03  0.14636525240E+03 -0.13498844528E+03  0.33778208191E+03  0.92543722664E+02 0.  0.
        -15    1    4    4    0    0  0.24642423735E+03 -0.17205796843E+03  0.22415053005E+03  0.37492973925E+03  0.00000000000E+00 0.  1.
        -15    1    5    5    0    0 -0.11590183744E+04 -0.15788705167E+04  0.15807072979E+04  0.25169011229E+04  0.00000000000E+00 0.  1.
         15    1    3    3    0    0  0.56621412356E+03  0.18331540898E+04 -0.13117730395E+03  0.19230860188E+04  0.00000000000E+00 0. -1.
         15    1    6    6    0    0  0.73443802573E+02  0.62277033712E+02 -0.21084920464E+01  0.96316492892E+02  0.00000000000E+00 0. -1.
        -16    1    6    6    0    0  0.18324224455E+03  0.84088218684E+02 -0.13287995323E+03  0.24146558902E+03  0.00000000000E+00 0.  1.
         16    1    4    4    0    0  0.14556616244E+03 -0.11540812111E+03  0.22487239971E+03  0.29167814148E+03  0.00000000000E+00 0. -1.
    9900018    1    5    5    0    0 -0.55872196029E+02 -0.11318273594E+03  0.10347644286E+03  0.18696145759E+03  0.91187600000E+02 0.  0.
<mgrwt>
<rscale>  0 0.53128271E+04</rscale>
<asrwt>0</asrwt>
<pdfrwt beam="1">  1        2 0.57679842E+00 0.53128271E+04</pdfrwt>
<pdfrwt beam="2">  1       -2 0.28956136E+00 0.53128271E+04</pdfrwt>
<totfact> 0.13982277E-02</totfact>
</mgrwt>
</event>
<event>
13    1  0.5673330E-011  0.4199592E+04  0.7818608E-02  0.7965450E-01
          2   -1    0    0  501    0  0.00000000000E+00  0.00000000000E+00  0.25147484360E+04  0.25147484360E+04  0.00000000000E+00 0.  1.
         -2   -1    0    0    0  501 -0.00000000000E+00 -0.00000000000E+00 -0.17533139774E+04  0.17533139774E+04  0.00000000000E+00 0. -1.
    9900016    2    1    2    0    0  0.80090745880E+03  0.30507799734E+02 -0.15569954281E+03  0.20141306862E+04  0.18412214940E+04 0.  0.
         24    2    3    3    0    0 -0.21978526065E+03  0.17097321641E+03  0.64632904378E+03  0.70845307876E+03  0.81407189116E+02 0.  0.
    9900016    2    1    2    0    0 -0.80090745880E+03 -0.30507799734E+02  0.91713400145E+03  0.22539317272E+04  0.18964941263E+04 0.  0.
        -24    2    5    5    0    0 -0.48821189929E+03  0.79922034119E+03  0.28873368182E+02  0.93864411928E+03  0.55813070886E+02 0.  0.
        -15    1    5    5    0    0 -0.26930785589E+03 -0.82372157683E+03  0.76629647812E+03  0.11568293953E+04  0.00000000000E+00 0.  1.
        -15    1    4    4    0    0 -0.13351756692E+03  0.11613400712E+03  0.31020960136E+03  0.35713309153E+03  0.00000000000E+00 0.  1.
         15    1    3    3    0    0  0.10206927194E+04 -0.14046541667E+03 -0.80202858659E+03  0.13056776074E+04  0.00000000000E+00 0. -1.
         15    1    6    6    0    0 -0.23115656790E+03  0.32740721949E+03  0.19776147752E+02  0.40127290249E+03  0.00000000000E+00 0. -1.
        -16    1    6    6    0    0 -0.25705533139E+03  0.47181312170E+03  0.90972204300E+01  0.53737121678E+03  0.00000000000E+00 0.  1.
         16    1    4    4    0    0 -0.86267693724E+02  0.54839209291E+02  0.33611944242E+03  0.35131998723E+03  0.00000000000E+00 0. -1.
    9900018    1    5    5    0    0 -0.43387703609E+02 -0.60065640977E+01  0.12196415515E+03  0.15845821270E+03  0.91187600000E+02 0.  0.
<mgrwt>
<rscale>  0 0.41995922E+04</rscale>
<asrwt>0</asrwt>
<pdfrwt beam="1">  1        2 0.38688438E+00 0.41995922E+04</pdfrwt>
<pdfrwt beam="2">  1       -2 0.26974061E+00 0.41995922E+04</pdfrwt>
<totfact> 0.12888783E-01</totfact>
</mgrwt>
</event>
<event>
13    1  0.5673330E-011  0.4535313E+04  0.7818608E-02  0.7904483E-01
          1   -1    0    0  501    0  0.00000000000E+00  0.00000000000E+00  0.20207168696E+04  0.20207168696E+04  0.00000000000E+00 0. -1.
         -1   -1    0    0    0  501 -0.00000000000E+00 -0.00000000000E+00 -0.25447733822E+04  0.25447733822E+04  0.00000000000E+00 0.  1.
    9900016    2    1    2    0    0  0.97504070065E+03  0.77680103368E+03 -0.50395501544E+03  0.22917254477E+04  0.18557776419E+04 0.  0.
        -24    2    3    3    0    0 -0.37610132234E+03 -0.10213641323E+03  0.29288509427E+03  0.49365148859E+03  0.77627715223E+02 0.  0.
    9900016    2    1    2    0    0 -0.89377754290E+03 -0.68953891662E+03 -0.60302272955E+02  0.21183631997E+04  0.17915144621E+04 0.  0.
         24    2    5    5    0    0 -0.99443852401E+03  0.32152453966E+03 -0.26843027297E+03  0.10812039978E+04  0.68273462682E+02 0.  0.
        -15    1    3    3    0    0  0.13511420230E+04  0.87893744691E+03 -0.79684010970E+03  0.17980739591E+04  0.00000000000E+00 0.  1.
        -15    1    6    6    0    0 -0.52487178861E+03  0.16665806090E+03 -0.17647000661E+03  0.57827931571E+03  0.00000000000E+00 0.  1.
         15    1    4    4    0    0 -0.28258995092E+03 -0.95304569369E+02  0.18602959936E+03  0.35149260752E+03  0.00000000000E+00 0. -1.
         15    1    5    5    0    0  0.10066098111E+03 -0.10110634563E+04  0.20812800001E+03  0.10371592019E+04  0.00000000000E+00 0. -1.
        -16    1    4    4    0    0 -0.93511371428E+02 -0.68318438602E+01  0.10685549491E+03  0.14215888108E+03  0.00000000000E+00 0.  1.
         16    1    6    6    0    0 -0.46956673540E+03  0.15486647877E+03 -0.91960266355E+02  0.50292468207E+03  0.00000000000E+00 0. -1.
    9900018    1    1    2    0    0 -0.81263157751E+02 -0.87262117057E+02  0.40200775858E+02  0.15540160441E+03  0.91187600000E+02 0.  0.
<mgrwt>
<rscale>  0 0.45353132E+04</rscale>
<asrwt>0</asrwt>
<pdfrwt beam="1">  1        1 0.31087952E+00 0.45353132E+04</pdfrwt>
<pdfrwt beam="2">  1       -1 0.39150360E+00 0.45353132E+04</pdfrwt>
<totfact> 0.17669751E-02</totfact>
</mgrwt>
</event>
<event>
12    1  0.5673330E-011  0.4735904E+04  0.7818608E-02  0.7870590E-01
          2   -1    0    0  501    0  0.00000000000E+00  0.00000000000E+00  0.45580768601E+04  0.45580768601E+04  0.00000000000E+00 0. -1.
         -2   -1    0    0    0  501 -0.00000000000E+00 -0.00000000000E+00 -0.12301669481E+04  0.12301669481E+04  0.00000000000E+00 0.  1.
    9900016    2    1    2    0    0  0.19029222306E+03 -0.13961109480E+04  0.19821863783E+04  0.30629693544E+04  0.18620906311E+04 0.  0.
         24    2    3    3    0    0  0.10290824921E+04 -0.80386216724E+03  0.11142714178E+04  0.17184976692E+04  0.80176600002E+02 0.  0.
    9900016    2    1    2    0    0 -0.17921606543E+03  0.12726207488E+04  0.13208914099E+04  0.25693760146E+04  0.17903231605E+04 0.  0.
        -15    1    5    5    0    0 -0.57034167238E+02  0.11260221440E+04  0.17526003200E+04  0.20839353749E+04  0.00000000000E+00 0.  1.
        -15    1    4    4    0    0  0.98637978525E+02 -0.49166705017E+02  0.89957594061E+02  0.14226448755E+03  0.00000000000E+00 0.  1.
         15    1    5    5    0    0  0.13967524544E+02  0.23519449356E+02 -0.12545031166E+03  0.12839796312E+03  0.00000000000E+00 0. -1.
         15    1    3    3    0    0 -0.83879026899E+03 -0.59224878076E+03  0.86791496050E+03  0.13444716852E+04  0.00000000000E+00 0. -1.
        -16    1    5    5    0    0 -0.13614942273E+03  0.12307915539E+03 -0.30625859841E+03  0.35704267658E+03  0.00000000000E+00 0.  1.
         16    1    4    4    0    0  0.93044451353E+03 -0.75469546222E+03  0.10243138237E+04  0.15762331816E+04  0.00000000000E+00 0. -1.
    9900018    1    1    2    0    0 -0.11076157639E+02  0.12349019923E+03  0.24832123850E+02  0.15589843919E+03  0.91187600000E+02 0.  0.
<mgrwt>
<rscale>  0 0.47359035E+04</rscale>
<asrwt>0</asrwt>
<pdfrwt beam="1">  1        2 0.70124259E+00 0.47359035E+04</pdfrwt>
<pdfrwt beam="2">  1       -2 0.18925646E+00 0.47359035E+04</pdfrwt>
<totfact> 0.12439833E-02</totfact>
</mgrwt>
</event>
<event>
13    1  0.5673330E-011  0.3861428E+04  0.7818608E-02  0.8033100E-01
          2   -1    0    0  501    0  0.00000000000E+00  0.00000000000E+00  0.26334962985E+04  0.26334962985E+04  0.00000000000E+00 0. -1.
         -2   -1    0    0    0  501 -0.00000000000E+00 -0.00000000000E+00 -0.14154778208E+04  0.14154778208E+04  0.00000000000E+00 0.  1.
    9900016    2    1    2    0    0 -0.20305851311E+03 -0.40247928457E+03  0.69768210413E+03  0.20297790926E+04  0.18520314554E+04 0.  0.
         24    2    3    3    0    0  0.62257817730E+03 -0.76987491556E+03  0.46413867855E+03  0.10963991989E+04  0.79721502902E+02 0.  0.
    9900016    2    1    2    0    0  0.20305851311E+03  0.40247928457E+03  0.52033637361E+03  0.20191950268E+04  0.18982034349E+04 0.  0.
        -24    2    5    5    0    0 -0.29320366346E+02  0.32439227474E+03  0.11329348502E+04  0.11802790407E+04  0.58542355627E+02 0.  0.
        -15    1    4    4    0    0  0.28134614421E+03 -0.30103061698E+03  0.22157701747E+03  0.46783700141E+03  0.00000000000E+00 0.  1.
        -15    1    5    5    0    0  0.25766675328E+03  0.10505897139E+03 -0.66965874581E+03  0.72517058618E+03  0.00000000000E+00 0.  1.
         15    1    3    3    0    0 -0.82563669041E+03  0.36739563099E+03  0.23354342558E+03  0.93337989364E+03  0.00000000000E+00 0. -1.
         15    1    6    6    0    0  0.17218957249E+01  0.25340148485E+03  0.87585131075E+03  0.91177343457E+03  0.00000000000E+00 0. -1.
        -16    1    6    6    0    0 -0.31042262071E+02  0.70990789889E+02  0.25708353944E+03  0.26850560615E+03  0.00000000000E+00 0.  1.
         16    1    4    4    0    0  0.34123203309E+03 -0.46884429858E+03  0.24256166108E+03  0.62856219751E+03  0.00000000000E+00 0. -1.
    9900018    1    5    5    0    0 -0.25287873823E+02 -0.26971961562E+02  0.57060269231E+02  0.11374539987E+03  0.91187600000E+02 0.  0.
<mgrwt>
<rscale>  0 0.38614275E+04</rscale>
<asrwt>0</asrwt>
<pdfrwt beam="1">  1        2 0.40515328E+00 0.38614275E+04</pdfrwt>
<pdfrwt beam="2">  1       -2 0.21776582E+00 0.38614275E+04</pdfrwt>
<totfact> 0.23688636E-01</totfact>
</mgrwt>
</event>
<event>
12    1  0.5673330E-011  0.4213971E+04  0.7818608E-02  0.7962720E-01
          1   -1    0    0  501    0  0.00000000000E+00  0.00000000000E+00  0.20357819858E+04  0.20357819858E+04  0.00000000000E+00 0. -1.
         -1   -1    0    0    0  501 -0.00000000000E+00 -0.00000000000E+00 -0.21806798399E+04  0.21806798399E+04  0.00000000000E+00 0.  1.
    9900016    2    1    2    0    0 -0.69822609601E+03  0.61943375431E+03 -0.33472871536E+03  0.20902080335E+04  0.18400294707E+04 0.  0.
        -24    2    3    3    0    0  0.10668265775E+03 -0.58102215307E+03  0.38818237421E+02  0.59738861592E+03  0.79989818442E+02 0.  0.
    9900016    2    1    2    0    0  0.63093474760E+03 -0.51775417249E+03  0.16179769207E+03  0.19714380957E+04  0.17872441448E+04 0.  0.
        -15    1    3    3    0    0 -0.80490875376E+03  0.12004559074E+04 -0.37354695278E+03  0.14928194175E+04  0.00000000000E+00 0.  1.
        -15    1    5    5    0    0  0.92986312620E+03  0.15136110098E+03 -0.31963678706E+02  0.94264377848E+03  0.00000000000E+00 0.  1.
         15    1    5    5    0    0 -0.46869537047E+03 -0.68747183498E+03  0.20737874474E+03  0.85749566644E+03  0.00000000000E+00 0. -1.
         15    1    4    4    0    0  0.42731214881E+02 -0.37474880430E+03  0.53394650546E+02  0.38093780562E+03  0.00000000000E+00 0. -1.
        -16    1    4    4    0    0  0.63951442867E+02 -0.20627334878E+03 -0.14576413125E+02  0.21645081030E+03  0.00000000000E+00 0.  1.
         16    1    5    5    0    0  0.16976699187E+03  0.18356561511E+02 -0.13617373958E+02  0.17129865076E+03  0.00000000000E+00 0. -1.
    9900018    1    1    2    0    0  0.67291348411E+02 -0.10167958182E+03  0.28033169132E+02  0.15481569654E+03  0.91187600000E+02 0.  0.
<mgrwt>
<rscale>  0 0.42139714E+04</rscale>
<asrwt>0</asrwt>
<pdfrwt beam="1">  1        1 0.31319723E+00 0.42139714E+04</pdfrwt>
<pdfrwt beam="2">  1       -1 0.33548921E+00 0.42139714E+04</pdfrwt>
<totfact> 0.41983453E-02</totfact>
</mgrwt>
</event>
<event>
12    1  0.5673330E-011  0.4511250E+04  0.7818608E-02  0.7908670E-01
          1   -1    0    0  501    0  0.00000000000E+00  0.00000000000E+00  0.44785015065E+04  0.44785015065E+04  0.00000000000E+00 0. -1.
         -1   -1    0    0    0  501 -0.00000000000E+00 -0.00000000000E+00 -0.11360594817E+04  0.11360594817E+04  0.00000000000E+00 0.  1.
    9900016    2    1    2    0    0 -0.72013331782E+03 -0.62072956121E+03  0.26415079099E+04  0.33749789956E+04  0.18732383723E+04 0.  0.
         24    2    3    3    0    0 -0.92712505850E+03  0.43256618331E+03  0.12361699107E+04  0.16065750830E+04  0.79328886855E+02 0.  0.
    9900016    2    1    2    0    0  0.65213406840E+03  0.53977595252E+03  0.67809487997E+03  0.20981104628E+04  0.17960005362E+04 0.  0.
        -15    1    5    5    0    0  0.94644661916E+03  0.72828446705E+03  0.10383031768E+04  0.15824768418E+04  0.00000000000E+00 0.  1.
        -15    1    4    4    0    0 -0.48058059325E+03  0.18132950645E+03  0.63121646540E+03  0.81380115674E+03  0.00000000000E+00 0.  1.
         15    1    3    3    0    0  0.20699174068E+03 -0.10532957445E+04  0.14053379992E+04  0.17684039126E+04  0.00000000000E+00 0. -1.
         15    1    5    5    0    0 -0.46176975720E+02 -0.84174348952E+02 -0.63980169458E+02  0.11537372401E+03  0.00000000000E+00 0. -1.
        -16    1    5    5    0    0 -0.24813557504E+03 -0.10433416558E+03 -0.29622812737E+03  0.40025989701E+03  0.00000000000E+00 0.  1.
         16    1    4    4    0    0 -0.44654446525E+03  0.25123667686E+03  0.60495344530E+03  0.79277392630E+03  0.00000000000E+00 0. -1.
    9900018    1    1    2    0    0  0.67999249424E+02  0.80953608691E+02  0.22839234906E+02  0.14147152974E+03  0.91187600000E+02 0.  0.
<mgrwt>
<rscale>  0 0.45112500E+04</rscale>
<asrwt>0</asrwt>
<pdfrwt beam="1">  1        1 0.68900022E+00 0.45112500E+04</pdfrwt>
<pdfrwt beam="2">  1       -1 0.17477838E+00 0.45112500E+04</pdfrwt>
<totfact> 0.57367501E-03</totfact>
</mgrwt>
</event>
