<event>
12    1  0.1021481E-015  0.5141440E+04  0.7818608E-02  0.8225618E-01
          2   -1    0    0  501    0  0.00000000000E+00  0.00000000000E+00  0.30524023100E+04  0.30524023100E+04  0.00000000000E+00 0.  1.
         -2   -1    0    0    0  501 -0.00000000000E+00 -0.00000000000E+00 -0.27694671736E+04  0.27694671736E+04  0.00000000000E+00 0. -1.
         23    2    1    2    0    0 -0.63883104949E+03 -0.67436408149E+02  0.20330655269E+03  0.67981250780E+03  0.90325591384E+02 0.  0.
    9900016    2    1    2    0    0  0.29651921385E+03  0.65440627275E+03  0.18861314438E+04  0.29537233068E+04  0.21565756040E+04 0.  0.
         23    2    4    4    0    0 -0.28301994491E+03 -0.25699339710E+03 -0.31372651903E+03  0.50303155719E+03  0.92035446528E+02 0.  0.
        -15    1    3    3    0    0 -0.55800565448E+03 -0.49603747757E+02  0.14530568251E+03  0.57874397068E+03  0.00000000000E+00 0. -1.
        -15    1    5    5    0    0 -0.20094304105E+03 -0.14644170567E+03 -0.24529449112E+03  0.34927448558E+03  0.00000000000E+00 0.  1.
         15    1    3    3    0    0 -0.80825395009E+02 -0.17832660391E+02  0.58000870177E+02  0.10106853712E+03  0.00000000000E+00 0.  1.
         15    1    5    5    0    0 -0.82076903864E+02 -0.11055169143E+03 -0.68432027911E+02  0.15375707161E+03  0.00000000000E+00 0. -1.
        -16    1    4    4    0    0  0.57953915877E+03  0.91139966985E+03  0.21998579629E+04  0.24506917496E+04  0.00000000000E+00 0.  1.
         16    1    1    2    0    0  0.35635623569E+03 -0.62676768210E+03 -0.19115303944E+04  0.20429821200E+04  0.00000000000E+00 0. -1.
    9900018    1    1    2    0    0 -0.14044400048E+02  0.39797817497E+02  0.10502753426E+03  0.14535154900E+03  0.91187600000E+02 0.  0.
<mgrwt>
<rscale>  0 0.30642525E+04</rscale>
<asrwt>0</asrwt>
<pdfrwt beam="1">  1        2 0.46960036E+00 0.51414404E+04</pdfrwt>
<pdfrwt beam="2">  1       -2 0.42607187E+00 0.51414404E+04</pdfrwt>
<totfact> 0.56740338E-03</totfact>
</mgrwt>
</event>
<event>
12    1  0.1021481E-015  0.2977431E+04  0.7818608E-02  0.8772596E-01
         -2   -1    0    0    0  501 -0.00000000000E+00  0.00000000000E+00  0.17687970378E+04  0.17687970378E+04  0.00000000000E+00 0.  1.
          2   -1    0    0  501    0  0.00000000000E+00 -0.00000000000E+00 -0.15645296494E+04  0.15645296494E+04  0.00000000000E+00 0. -1.
         23    2    1    2    0    0  0.10461053643E+03 -0.26796403118E+03  0.18803309274E+03  0.35585185971E+03  0.92336427013E+02 0.  0.
    9900016    2    1    2    0    0 -0.17459512180E+02 -0.18626722038E+03  0.50154646897E+03  0.23070650749E+04  0.22441034038E+04 0.  0.
         23    2    4    4    0    0  0.35661412286E+03  0.75098352699E+03 -0.35040902275E+03  0.90675552418E+03  0.90935179974E+02 0.  0.
        -15    1    5    5    0    0  0.13786842510E+02  0.46073837923E+02 -0.43863944966E+02  0.65091637215E+02  0.00000000000E+00 0.  1.
        -15    1    3    3    0    0  0.95317259806E+02 -0.12935568562E+03  0.12358667608E+03  0.20271146964E+03  0.00000000000E+00 0.  1.
         15    1    3    3    0    0  0.92932766242E+01 -0.13860834557E+03  0.64446416663E+02  0.15314039007E+03  0.00000000000E+00 0. -1.
         15    1    5    5    0    0  0.34282728035E+03  0.70490968907E+03 -0.30654507779E+03  0.84166388696E+03  0.00000000000E+00 0. -1.
        -16    1    1    2    0    0 -0.87151024250E+02  0.45423125156E+03 -0.48531217331E+03  0.67040975268E+03  0.00000000000E+00 0.  1.
         16    1    4    4    0    0 -0.35387636838E+03 -0.95221367832E+03  0.79448904312E+03  0.12896325883E+04  0.00000000000E+00 0. -1.
    9900018    1    4    4    0    0 -0.20197266659E+02  0.14962930947E+02  0.57466448605E+02  0.11067696234E+03  0.91187600000E+02 0.  0.
<mgrwt>
<rscale>  0 0.16804465E+04</rscale>
<asrwt>0</asrwt>
<pdfrwt beam="1">  1        2 0.24069687E+00 0.29774306E+04</pdfrwt>
<pdfrwt beam="2">  1       -2 0.27212262E+00 0.29774306E+04</pdfrwt>
<totfact> 0.46526319E-01</totfact>
</mgrwt>
</event>
<event>
12    1  0.1021481E-015  0.3135345E+04  0.7818608E-02  0.8905249E-01
         -1   -1    0    0    0  501 -0.00000000000E+00  0.00000000000E+00  0.14499725359E+04  0.14499725359E+04  0.00000000000E+00 0.  1.
          1   -1    0    0  501    0  0.00000000000E+00 -0.00000000000E+00 -0.22580104064E+04  0.22580104064E+04  0.00000000000E+00 0. -1.
         23    2    1    2    0    0 -0.16542439463E+02  0.12016285268E+03  0.33760072644E+03  0.36988838470E+03  0.90168748343E+02 0.  0.
    9900016    2    1    2    0    0  0.12455491444E+03 -0.28326808333E+03 -0.12206394974E+03  0.21947120056E+04  0.21693562284E+04 0.  0.
         23    2    4    4    0    0 -0.34008144617E+03  0.27941008453E+03 -0.97409428944E+03  0.10729057086E+04  0.92420719984E+02 0.  0.
        -15    1    5    5    0    0 -0.13325690517E+03  0.12919193688E+03 -0.51530668021E+03  0.54771245559E+03  0.00000000000E+00 0.  1.
        -15    1    3    3    0    0 -0.37231400054E+02  0.78083478801E+02  0.12394362985E+03  0.15114638663E+03  0.00000000000E+00 0.  1.
         15    1    3    3    0    0  0.20688960591E+02  0.42079373875E+02  0.21365709659E+03  0.21874199807E+03  0.00000000000E+00 0. -1.
         15    1    5    5    0    0 -0.20682454100E+03  0.15021814765E+03 -0.45878760922E+03  0.52519325302E+03  0.00000000000E+00 0. -1.
        -16    1    4    4    0    0  0.46463636061E+03 -0.56267816786E+03  0.85203033970E+03  0.11218062970E+04  0.00000000000E+00 0.  1.
         16    1    1    2    0    0 -0.11385991846E+03  0.18115295755E+03 -0.10281038015E+04  0.10501323258E+04  0.00000000000E+00 0. -1.
    9900018    1    1    2    0    0  0.58474434803E+01 -0.18047726899E+02  0.45291542872E+01  0.93250226133E+02  0.91187600000E+02 0.  0.
<mgrwt>
<rscale>  0 0.14691242E+04</rscale>
<asrwt>0</asrwt>
<pdfrwt beam="1">  1        1 0.34738621E+00 0.31353449E+04</pdfrwt>
<pdfrwt beam="2">  1       -1 0.22307270E+00 0.31353449E+04</pdfrwt>
<totfact> 0.17281583E-01</totfact>
</mgrwt>
</event>
<event>
12    1  0.1021481E-015  0.4507933E+04  0.7818608E-02  0.8400940E-01
          2   -1    0    0  501    0  0.00000000000E+00  0.00000000000E+00  0.32291912416E+04  0.32291912416E+04  0.00000000000E+00 0. -1.
         -2   -1    0    0    0  501 -0.00000000000E+00 -0.00000000000E+00 -0.21836910241E+04  0.21836910241E+04  0.00000000000E+00 0.  1.
         23    2    1    2    0    0 -0.22524020703E+03 -0.35502099756E+03 -0.48856780170E+03  0.65107310049E+03  0.91785760106E+02 0.  0.
    9900016    2    1    2    0    0  0.69804888222E+03  0.99573848174E+03 -0.43815677645E+03  0.25064510599E+04  0.21474515568E+04 0.  0.
         23    2    4    4    0    0  0.26641367062E+03  0.72630126885E+02 -0.11997010458E+04  0.12342923965E+04  0.89127669982E+02 0.  0.
        -15    1    3    3    0    0 -0.14662689334E+03 -0.18420334990E+03 -0.21317457108E+03  0.31760623060E+03  0.00000000000E+00 0. -1.
        -15    1    5    5    0    0  0.29571486498E+02  0.41318690756E+02 -0.23778964149E+03  0.24315760449E+03  0.00000000000E+00 0. -1.
         15    1    5    5    0    0  0.23684218412E+03  0.31311436129E+02 -0.96191140429E+03  0.99113479200E+03  0.00000000000E+00 0.  1.
         15    1    3    3    0    0 -0.78613313684E+02 -0.17081764767E+03 -0.27539323062E+03  0.33346686989E+03  0.00000000000E+00 0.  1.
        -16    1    1    2    0    0 -0.54061997829E+03 -0.64037548314E+03  0.19709341741E+04  0.21417124548E+04  0.00000000000E+00 0.  1.
         16    1    4    4    0    0  0.43163521160E+03  0.92310835485E+03  0.76154426933E+03  0.12721586634E+04  0.00000000000E+00 0. -1.
    9900018    1    1    2    0    0  0.67811303091E+02 -0.34200103264E+00  0.12906215368E+01  0.11364565055E+03  0.91187600000E+02 0.  0.
<mgrwt>
<rscale>  0 0.25057489E+04</rscale>
<asrwt>0</asrwt>
<pdfrwt beam="1">  1        2 0.49679866E+00 0.45079332E+04</pdfrwt>
<pdfrwt beam="2">  1       -2 0.33595246E+00 0.45079332E+04</pdfrwt>
<totfact> 0.17389412E-02</totfact>
</mgrwt>
</event>
<event>
12    1  0.1021481E-015  0.5049178E+04  0.7818608E-02  0.8312596E-01
          2   -1    0    0  501    0  0.00000000000E+00  0.00000000000E+00  0.18026168991E+04  0.18026168991E+04  0.00000000000E+00 0. -1.
         -2   -1    0    0    0  501 -0.00000000000E+00 -0.00000000000E+00 -0.44797913477E+04  0.44797913477E+04  0.00000000000E+00 0.  1.
         23    2    1    2    0    0 -0.30024524576E+03  0.33273704688E+03 -0.74888091393E+03  0.87754802674E+03  0.91688418053E+02 0.  0.
    9900016    2    1    2    0    0 -0.10952711255E+04 -0.12959012098E+04 -0.21313562194E+04  0.34779018152E+04  0.21619766231E+04 0.  0.
         23    2    4    4    0    0 -0.28778338714E+03  0.18264902306E+03  0.33799558200E+03  0.48861334511E+03  0.91225237938E+02 0.  0.
        -15    1    3    3    0    0 -0.23773779333E+03  0.23122678457E+03 -0.61160852175E+03  0.69573706826E+03  0.00000000000E+00 0.  1.
        -15    1    5    5    0    0 -0.20305813183E+03  0.77073992379E+02  0.21774067597E+03  0.30754513031E+03  0.00000000000E+00 0.  1.
         15    1    5    5    0    0 -0.84725255308E+02  0.10557503068E+03  0.12025490602E+03  0.18106821480E+03  0.00000000000E+00 0. -1.
         15    1    3    3    0    0 -0.62507452433E+02  0.10151026232E+03 -0.13727239218E+03  0.18181095847E+03  0.00000000000E+00 0. -1.
        -16    1    4    4    0    0 -0.80748773832E+03 -0.14785502328E+04 -0.24693518014E+04  0.29892884701E+04  0.00000000000E+00 0.  1.
         16    1    1    2    0    0  0.14379913621E+04  0.10237412884E+04  0.27903361016E+03  0.17870996443E+04  0.00000000000E+00 0. -1.
    9900018    1    1    2    0    0 -0.42474990879E+02 -0.60577125480E+02 -0.75970925531E+02  0.13985876055E+03  0.91187600000E+02 0.  0.
<mgrwt>
<rscale>  0 0.27701503E+04</rscale>
<asrwt>0</asrwt>
<pdfrwt beam="1">  1        2 0.27732568E+00 0.50491780E+04</pdfrwt>
<pdfrwt beam="2">  1       -2 0.68919867E+00 0.50491780E+04</pdfrwt>
<totfact> 0.15314435E-03</totfact>
</mgrwt>
</event>
<event>
12    1  0.1021481E-015  0.3561164E+04  0.7818608E-02  0.8733167E-01
         -1   -1    0    0    0  501 -0.00000000000E+00  0.00000000000E+00  0.13299037453E+04  0.13299037453E+04  0.00000000000E+00 0.  1.
          1   -1    0    0  501    0  0.00000000000E+00 -0.00000000000E+00 -0.30843661498E+04  0.30843661498E+04  0.00000000000E+00 0. -1.
         23    2    1    2    0    0 -0.13708057456E+03 -0.12607843852E+03 -0.65509878437E+03  0.68727533508E+03  0.92228587438E+02 0.  0.
    9900016    2    1    2    0    0  0.80403788537E+03  0.33038100881E+03  0.22947935149E+02  0.24055730444E+04  0.22429058233E+04 0.  0.
         23    2    4    4    0    0  0.31713854994E+03  0.49722250299E+03 -0.10202905644E+04  0.11820146416E+04  0.91425925693E+02 0.  0.
        -15    1    3    3    0    0 -0.60621005966E+02 -0.35814355241E+01 -0.24794401810E+03  0.25527234311E+03  0.00000000000E+00 0. -1.
        -15    1    5    5    0    0  0.55485037061E+02  0.72979149026E+02 -0.10181774286E+03  0.13700875261E+03  0.00000000000E+00 0.  1.
         15    1    3    3    0    0 -0.76459568589E+02 -0.12249700300E+03 -0.40715476627E+03  0.43200299197E+03  0.00000000000E+00 0.  1.
         15    1    5    5    0    0  0.26165351288E+03  0.42424335396E+03 -0.91847282154E+03  0.10450058890E+04  0.00000000000E+00 0. -1.
        -16    1    4    4    0    0  0.44466847401E+03 -0.19403397805E+03  0.99873679604E+03  0.11103397787E+04  0.00000000000E+00 0.  1.
         16    1    1    2    0    0 -0.66695731082E+03 -0.20430257029E+03 -0.11223115552E+04  0.13214215155E+04  0.00000000000E+00 0. -1.
    9900018    1    4    4    0    0  0.42230861429E+02  0.27192483874E+02  0.44501703508E+02  0.11321862411E+03  0.91187600000E+02 0.  0.
<mgrwt>
<rscale>  0 0.17503327E+04</rscale>
<asrwt>0</asrwt>
<pdfrwt beam="1">  1        1 0.47451786E+00 0.35611639E+04</pdfrwt>
<pdfrwt beam="2">  1       -1 0.20460058E+00 0.35611639E+04</pdfrwt>
<totfact> 0.57900931E-02</totfact>
</mgrwt>
</event>
<event>
12    1  0.1021481E-015  0.3404573E+04  0.7818608E-02  0.8686796E-01
         -1   -1    0    0    0  501 -0.00000000000E+00  0.00000000000E+00  0.18269217848E+04  0.18269217848E+04  0.00000000000E+00 0.  1.
          1   -1    0    0  501    0  0.00000000000E+00 -0.00000000000E+00 -0.25393125864E+04  0.25393125864E+04  0.00000000000E+00 0. -1.
         23    2    1    2    0    0  0.29598971217E+02 -0.27219431975E+03  0.64063107902E+03  0.70265884864E+03  0.91408048699E+02 0.  0.
    9900016    2    1    2    0    0 -0.37998204649E+03 -0.59602812798E+03 -0.12072502744E+04  0.25641973216E+04  0.21489576064E+04 0.  0.
         23    2    4    4    0    0 -0.30386948206E+03  0.62820551553E+03 -0.11351872559E+04  0.13354849000E+04  0.88831189786E+02 0.  0.
        -15    1    3    3    0    0  0.22219963631E+02 -0.24399754570E+03  0.47482101611E+03  0.53430658467E+03  0.00000000000E+00 0.  1.
        -15    1    5    5    0    0 -0.36516559480E+02  0.27866230609E+02 -0.85171929646E+02  0.96769021511E+02  0.00000000000E+00 0.  1.
         15    1    5    5    0    0 -0.26735292258E+03  0.60033928492E+03 -0.10500153262E+04  0.12387158785E+04  0.00000000000E+00 0. -1.
         15    1    3    3    0    0  0.73790075862E+01 -0.28196774056E+02  0.16581006291E+03  0.16835226396E+03  0.00000000000E+00 0. -1.
        -16    1    1    2    0    0  0.31586509012E+03  0.91765967081E+03 -0.84780791337E+02  0.97419598088E+03  0.00000000000E+00 0.  1.
         16    1    4    4    0    0 -0.76112564432E+02 -0.12242336435E+04 -0.72063018530E+02  0.12287124216E+04  0.00000000000E+00 0. -1.
    9900018    1    1    2    0    0  0.34517985151E+02 -0.49437223077E+02 -0.60990814919E+02  0.12518222007E+03  0.91187600000E+02 0.  0.
<mgrwt>
<rscale>  0 0.18371367E+04</rscale>
<asrwt>0</asrwt>
<pdfrwt beam="1">  1        1 0.39066347E+00 0.34045730E+04</pdfrwt>
<pdfrwt beam="2">  1       -1 0.28106489E+00 0.34045730E+04</pdfrwt>
<totfact> 0.44526039E-02</totfact>
</mgrwt>
</event>
<event>
12    1  0.1021481E-015  0.4106466E+04  0.7818608E-02  0.8754080E-01
         -1   -1    0    0    0  501 -0.00000000000E+00  0.00000000000E+00  0.17434131899E+04  0.17434131899E+04  0.00000000000E+00 0.  1.
          1   -1    0    0  501    0  0.00000000000E+00 -0.00000000000E+00 -0.25667133530E+04  0.25667133530E+04  0.00000000000E+00 0. -1.
         23    2    1    2    0    0  0.42526549321E+02 -0.75201898185E+02 -0.25104470518E+02  0.12680470821E+03  0.89360879007E+02 0.  0.
    9900016    2    1    2    0    0 -0.37095349298E+03 -0.12851138251E+04 -0.92438240651E+03  0.27782431141E+04  0.22527822642E+04 0.  0.
         23    2    4    4    0    0 -0.15541008168E+03 -0.29614277577E+01  0.63753739910E+03  0.66269906658E+03  0.92493535162E+02 0.  0.
        -15    1    3    3    0    0  0.41308183829E+02  0.71499135396E+01 -0.76501610496E+01  0.42614695575E+02  0.00000000000E+00 0. -1.
        -15    1    5    5    0    0 -0.73587351157E+02 -0.27515226020E+02  0.16810864671E+03  0.18556051038E+03  0.00000000000E+00 0.  1.
         15    1    5    5    0    0 -0.81822730524E+02  0.24553798262E+02  0.46942875239E+03  0.47713855620E+03  0.00000000000E+00 0. -1.
         15    1    3    3    0    0  0.12183654923E+01 -0.82351811724E+02 -0.17454309469E+02  0.84190012637E+02  0.00000000000E+00 0.  1.
        -16    1    1    2    0    0  0.32842694366E+03  0.13603157233E+04  0.12618671394E+03  0.14050787206E+04  0.00000000000E+00 0.  1.
         16    1    4    4    0    0 -0.23926105859E+03 -0.12107166940E+04 -0.15700410338E+04  0.19970251914E+04  0.00000000000E+00 0. -1.
    9900018    1    4    4    0    0  0.23717647297E+02 -0.71435703346E+02  0.81212282140E+01  0.11851885608E+03  0.91187600000E+02 0.  0.
<mgrwt>
<rscale>  0 0.17128307E+04</rscale>
<asrwt>0</asrwt>
<pdfrwt beam="1">  1        1 0.39487898E+00 0.41064663E+04</pdfrwt>
<pdfrwt beam="2">  1       -1 0.26821741E+00 0.41064663E+04</pdfrwt>
<totfact> 0.49897221E-02</totfact>
</mgrwt>
</event>
<event>
12    1  0.1021481E-015  0.3853913E+04  0.7818608E-02  0.8676702E-01
          2   -1    0    0  501    0  0.00000000000E+00  0.00000000000E+00  0.28646656450E+04  0.28646656450E+04  0.00000000000E+00 0. -1.
         -2   -1    0    0    0  501 -0.00000000000E+00 -0.00000000000E+00 -0.16867332567E+04  0.16867332567E+04  0.00000000000E+00 0.  1.
         23    2    1    2    0    0 -0.55963944299E+02 -0.17515727274E+03 -0.34894163074E+03  0.40604135002E+03  0.96422419648E+02 0.  0.
    9900016    2    1    2    0    0 -0.84087013355E+03  0.84356160039E+03  0.75286505241E+03  0.25751682147E+04  0.21554644028E+04 0.  0.
         23    2    4    4    0    0  0.16688189094E+03  0.35050168405E+03 -0.65994917647E+03  0.77108499343E+03  0.91313501375E+02 0.  0.
        -15    1    5    5    0    0  0.13026968376E+03  0.24297245769E+03 -0.38441473815E+03  0.47305443303E+03  0.00000000000E+00 0. -1.
        -15    1    3    3    0    0 -0.31954715202E+02 -0.14628499420E+03 -0.33325060257E+03  0.36534417672E+03  0.00000000000E+00 0.  1.
         15    1    3    3    0    0 -0.24009229097E+02 -0.28872278532E+02 -0.15691028171E+02  0.40697173299E+02  0.00000000000E+00 0. -1.
         15    1    5    5    0    0  0.36612207183E+02  0.10752922636E+03 -0.27553443831E+03  0.29803056040E+03  0.00000000000E+00 0.  1.
        -16    1    1    2    0    0  0.97127875102E+03 -0.72594752594E+03  0.77510588928E+03  0.14391564759E+04  0.00000000000E+00 0.  1.
         16    1    4    4    0    0 -0.10077520245E+04  0.49305991634E+03  0.14128142289E+04  0.18040832213E+04  0.00000000000E+00 0. -1.
    9900018    1    1    2    0    0 -0.74444673177E+02  0.57543198286E+02 -0.10969226172E+01  0.13103286102E+03  0.91187600000E+02 0.  0.
<mgrwt>
<rscale>  0 0.18567260E+04</rscale>
<asrwt>0</asrwt>
<pdfrwt beam="1">  1        2 0.44071779E+00 0.38539129E+04</pdfrwt>
<pdfrwt beam="2">  1       -2 0.25949742E+00 0.38539129E+04</pdfrwt>
<totfact> 0.92889240E-02</totfact>
</mgrwt>
</event>
