<event>
12    1  0.6537448E-013  0.9635914E+03  0.7818608E-02  0.9349404E-01
          2   -1    0    0  501    0  0.00000000000E+00  0.00000000000E+00  0.98230477670E+03  0.98230477670E+03  0.00000000000E+00 0. -1.
         -2   -1    0    0    0  501 -0.00000000000E+00 -0.00000000000E+00 -0.23630864114E+03  0.23630864114E+03  0.00000000000E+00 0.  1.
    9900016    2    1    2    0    0 -0.41021599727E+02 -0.13222698800E+03  0.75817103225E+03  0.10796350882E+04  0.75605678459E+03 0.  0.
         23    2    3    3    0    0  0.46652766352E+02 -0.17026175386E+02  0.37198334339E+03  0.38685263278E+03  0.93898777805E+02 0.  0.
         23    2    3    3    0    0  0.10283146983E+03 -0.19296181911E+03  0.79538733804E+02  0.24964677996E+03  0.90490495339E+02 0.  0.
        -15    1    5    5    0    0  0.87760888712E+02 -0.14774641618E+03  0.19437764054E+02  0.17294161949E+03  0.00000000000E+00 0.  1.
        -15    1    4    4    0    0 -0.11703544114E+02  0.10979052147E+02  0.95273702892E+01  0.18662350214E+02  0.00000000000E+00 0. -1.
         15    1    4    4    0    0  0.58356310466E+02 -0.28005227533E+02  0.36245597310E+03  0.36819028256E+03  0.00000000000E+00 0.  1.
         15    1    5    5    0    0  0.15070581123E+02 -0.45215402935E+02  0.60100969750E+02  0.76705160471E+02  0.00000000000E+00 0. -1.
        -16    1    1    2    0    0  0.41021599727E+02  0.13222698800E+03 -0.12174896685E+02  0.13897832964E+03  0.00000000000E+00 0.  1.
         16    1    3    3    0    0 -0.20174135625E+03  0.10029634489E+03  0.21534881990E+03  0.31166335340E+03  0.00000000000E+00 0. -1.
    9900018    1    3    3    0    0  0.11235520336E+02 -0.22535338388E+02  0.91300135158E+02  0.13147232206E+03  0.91187600000E+02 0.  0.
<mgrwt>
<rscale>  0 0.96359142E+03</rscale>
<asrwt>0</asrwt>
<pdfrwt beam="1">  1        2 0.15112381E+00 0.96359142E+03</pdfrwt>
<pdfrwt beam="2">  1       -2 0.36355176E-01 0.96359142E+03</pdfrwt>
<totfact> 0.18397520E+02</totfact>
</mgrwt>
</event>
<event>
12    1  0.6537448E-013  0.9693541E+03  0.7818608E-02  0.9342810E-01
          2   -1    0    0  501    0  0.00000000000E+00  0.00000000000E+00  0.15724048381E+04  0.15724048381E+04  0.00000000000E+00 0. -1.
         -2   -1    0    0    0  501 -0.00000000000E+00 -0.00000000000E+00 -0.14939653118E+03  0.14939653118E+03  0.00000000000E+00 0.  1.
    9900016    2    1    2    0    0  0.82033574272E+02  0.87954819301E+02  0.99654170321E+03  0.11995341693E+04  0.65675056116E+03 0.  0.
         23    2    3    3    0    0 -0.52034933911E+02 -0.23000887531E+02  0.14355829585E+03  0.17991634191E+03  0.92326759966E+02 0.  0.
         23    2    3    3    0    0  0.17410466606E+03  0.62443529457E+01  0.88180238558E+03  0.90386855063E+03  0.95139281641E+02 0.  0.
        -15    1    4    4    0    0 -0.65306028883E+02 -0.34607734254E+02  0.14445310253E+03  0.16226297023E+03  0.00000000000E+00 0. -1.
        -15    1    5    5    0    0  0.14739371525E+03 -0.31085925094E+02  0.61736945169E+03  0.63548114206E+03  0.00000000000E+00 0.  1.
         15    1    5    5    0    0  0.26710950811E+02  0.37330278040E+02  0.26443293389E+03  0.26838740857E+03  0.00000000000E+00 0. -1.
         15    1    4    4    0    0  0.13271094972E+02  0.11606846723E+02 -0.89480668201E+00  0.17653371678E+02  0.00000000000E+00 0.  1.
        -16    1    1    2    0    0 -0.75394712253E+02 -0.16432282327E+03  0.23067553344E+03  0.29308284598E+03  0.00000000000E+00 0.  1.
         16    1    3    3    0    0 -0.40036157881E+02  0.10471135389E+03 -0.28818978215E+02  0.11574927678E+03  0.00000000000E+00 0. -1.
    9900018    1    1    2    0    0 -0.66388620188E+01  0.76368003966E+02  0.19579107028E+03  0.22918435399E+03  0.91187600000E+02 0.  0.
<mgrwt>
<rscale>  0 0.96935407E+03</rscale>
<asrwt>0</asrwt>
<pdfrwt beam="1">  1        2 0.24190843E+00 0.96935407E+03</pdfrwt>
<pdfrwt beam="2">  1       -2 0.22984083E-01 0.96935407E+03</pdfrwt>
<totfact> 0.19287203E+02</totfact>
</mgrwt>
</event>
<event>
12    1  0.6537448E-013  0.1012594E+04  0.7818608E-02  0.9294839E-01
         -1   -1    0    0    0  501 -0.00000000000E+00  0.00000000000E+00  0.50718343379E+03  0.50718343379E+03  0.00000000000E+00 0.  1.
          1   -1    0    0  501    0  0.00000000000E+00 -0.00000000000E+00 -0.50541223150E+03  0.50541223150E+03  0.00000000000E+00 0. -1.
    9900016    2    1    2    0    0  0.79958476017E+02  0.18114689272E+03  0.12707975377E+03  0.77826728949E+03  0.74185116799E+03 0.  0.
         23    2    3    3    0    0 -0.93489000343E+00  0.30939065960E+02 -0.50930796495E+02  0.10970218648E+03  0.92100618160E+02 0.  0.
         23    2    3    3    0    0  0.42995141449E+02 -0.54905424430E+02 -0.16265817716E+03  0.19894700412E+03  0.90879260734E+02 0.  0.
        -15    1    4    4    0    0 -0.43466917629E+02  0.11257018379E+02 -0.69569668356E+01  0.45436689784E+02  0.00000000000E+00 0. -1.
        -15    1    5    5    0    0  0.46572235677E+02 -0.71672495184E+02 -0.89307500514E+02  0.12361937287E+03  0.00000000000E+00 0. -1.
         15    1    4    4    0    0  0.42532027626E+02  0.19682047580E+02 -0.43973829659E+02  0.64265496698E+02  0.00000000000E+00 0.  1.
         15    1    5    5    0    0 -0.35770942277E+01  0.16767070754E+02 -0.73350676642E+02  0.75327631243E+02  0.00000000000E+00 0.  1.
        -16    1    3    3    0    0  0.19931014451E+02  0.19641793634E+03  0.31677676541E+03  0.37326233424E+03  0.00000000000E+00 0.  1.
         16    1    1    2    0    0 -0.79958476017E+02 -0.18114689272E+03 -0.12530855148E+03  0.23432837580E+03  0.00000000000E+00 0. -1.
    9900018    1    3    3    0    0  0.17967210121E+02  0.86953148471E+01  0.23891962013E+02  0.96355764656E+02  0.91187600000E+02 0.  0.
<mgrwt>
<rscale>  0 0.10125941E+04</rscale>
<asrwt>0</asrwt>
<pdfrwt beam="1">  1        1 0.77755727E-01 0.10125941E+04</pdfrwt>
<pdfrwt beam="2">  1       -1 0.78028221E-01 0.10125941E+04</pdfrwt>
<totfact> 0.72002695E+01</totfact>
</mgrwt>
</event>
<event>
12    1  0.6537448E-013  0.1392518E+04  0.7818608E-02  0.8959252E-01
         -1   -1    0    0    0  501 -0.00000000000E+00  0.00000000000E+00  0.44336829704E+03  0.44336829704E+03  0.00000000000E+00 0.  1.
          1   -1    0    0  501    0  0.00000000000E+00 -0.00000000000E+00 -0.10933949681E+04  0.10933949681E+04  0.00000000000E+00 0. -1.
    9900016    2    1    2    0    0  0.25173651973E+03  0.20944050912E+03 -0.83202178026E+02  0.74995204431E+03  0.66952883740E+03 0.  0.
         23    2    3    3    0    0 -0.19498356254E+01  0.36289645994E+02 -0.10828185276E+03  0.14668915986E+03  0.92043520779E+02 0.  0.
         23    2    3    3    0    0  0.23787673495E+03  0.15768015565E+03 -0.21054176227E+03  0.36660543484E+03  0.92861933412E+02 0.  0.
        -15    1    5    5    0    0  0.82625329945E+02  0.62211429858E+01 -0.50209043426E+02  0.96884445658E+02  0.00000000000E+00 0. -1.
        -15    1    4    4    0    0  0.38685726698E+02  0.41466163034E+02 -0.74272178129E+02  0.93447228803E+02  0.00000000000E+00 0.  1.
         15    1    5    5    0    0  0.15525140501E+03  0.15145901266E+03 -0.16033271884E+03  0.26972098918E+03  0.00000000000E+00 0.  1.
         15    1    4    4    0    0 -0.40635562323E+02 -0.51765170401E+01 -0.34009674627E+02  0.53241931053E+02  0.00000000000E+00 0. -1.
        -16    1    3    3    0    0  0.15809620406E+02  0.15470707482E+02  0.23562143700E+03  0.23665744962E+03  0.00000000000E+00 0.  1.
         16    1    1    2    0    0 -0.27716451758E+03 -0.23727555763E+03 -0.58206822989E+03  0.68696672721E+03  0.00000000000E+00 0. -1.
    9900018    1    1    2    0    0  0.25427997853E+02  0.27835048504E+02  0.15243736849E+02  0.99844493624E+02  0.91187600000E+02 0.  0.
<mgrwt>
<rscale>  0 0.13925181E+04</rscale>
<asrwt>0</asrwt>
<pdfrwt beam="1">  1        1 0.16821461E+00 0.13925181E+04</pdfrwt>
<pdfrwt beam="2">  1       -1 0.68210508E-01 0.13925181E+04</pdfrwt>
<totfact> 0.27226946E+01</totfact>
</mgrwt>
</event>
<event>
12    1  0.6537448E-013  0.1041922E+04  0.7818608E-02  0.9263724E-01
         -2   -1    0    0    0  501 -0.00000000000E+00  0.00000000000E+00  0.14016889511E+04  0.14016889511E+04  0.00000000000E+00 0.  1.
          2   -1    0    0  501    0  0.00000000000E+00 -0.00000000000E+00 -0.19362367787E+03  0.19362367787E+03  0.00000000000E+00 0. -1.
    9900016    2    1    2    0    0  0.10928982695E+03  0.12577916995E+03  0.10731850174E+04  0.12760601048E+04  0.66995421013E+03 0.  0.
         23    2    3    3    0    0  0.21217010854E+03 -0.29933871847E+01  0.18907275961E+03  0.29849877520E+03  0.91257301338E+02 0.  0.
         23    2    3    3    0    0 -0.13768883356E+03 -0.54149719391E+02  0.18446026769E+03  0.25355504387E+03  0.91510452515E+02 0.  0.
        -15    1    5    5    0    0 -0.31333123829E+02 -0.36482258821E+02  0.11021090582E+02  0.49337453270E+02  0.00000000000E+00 0.  1.
        -15    1    4    4    0    0  0.38392937782E+02 -0.17356654418E+02  0.11635501886E+01  0.42150029338E+02  0.00000000000E+00 0. -1.
         15    1    5    5    0    0 -0.10635570973E+03 -0.17667460569E+02  0.17343917711E+03  0.20421759060E+03  0.00000000000E+00 0. -1.
         15    1    4    4    0    0  0.17377717075E+03  0.14363267234E+02  0.18790920942E+03  0.25634874586E+03  0.00000000000E+00 0.  1.
        -16    1    3    3    0    0  0.34808551974E+02  0.18292227653E+03  0.69965199011E+03  0.72400628575E+03  0.00000000000E+00 0.  1.
         16    1    1    2    0    0 -0.11251134419E+03 -0.14767855967E+03  0.48911249817E+02  0.19198976513E+03  0.00000000000E+00 0. -1.
    9900018    1    1    2    0    0  0.32215172375E+01  0.21899389719E+02  0.85969005974E+02  0.12726275899E+03  0.91187600000E+02 0.  0.
<mgrwt>
<rscale>  0 0.10419216E+04</rscale>
<asrwt>0</asrwt>
<pdfrwt beam="1">  1        2 0.29788259E-01 0.10419216E+04</pdfrwt>
<pdfrwt beam="2">  1       -2 0.21564445E+00 0.10419216E+04</pdfrwt>
<totfact> 0.18872289E+01</totfact>
</mgrwt>
</event>
<event>
12    1  0.6537448E-013  0.9705388E+03  0.7818608E-02  0.9341461E-01
          1   -1    0    0  501    0  0.00000000000E+00  0.00000000000E+00  0.23687029030E+04  0.23687029030E+04  0.00000000000E+00 0. -1.
         -1   -1    0    0    0  501 -0.00000000000E+00 -0.00000000000E+00 -0.99415760979E+02  0.99415760979E+02  0.00000000000E+00 0.  1.
    9900016    2    1    2    0    0  0.12761162314E+02 -0.17469858354E+03  0.20465196189E+04  0.21847323346E+04  0.74439934220E+03 0.  0.
         23    2    3    3    0    0 -0.87796618134E+01 -0.58502445741E+02  0.15610015891E+03  0.19023813681E+03  0.91234151864E+02 0.  0.
         23    2    3    3    0    0  0.45373217479E+02 -0.16949526005E+02  0.17659971337E+02  0.10203768697E+03  0.88055662382E+02 0.  0.
        -15    1    5    5    0    0  0.14005657048E+02  0.20967446564E+02  0.40561176436E+02  0.47759829131E+02  0.00000000000E+00 0. -1.
        -15    1    4    4    0    0  0.26872067864E+02 -0.34304808271E+02  0.13577572693E+03  0.14259725076E+03  0.00000000000E+00 0.  1.
         15    1    5    5    0    0  0.31367560432E+02 -0.37916972569E+02 -0.22901205099E+02  0.54277857835E+02  0.00000000000E+00 0.  1.
         15    1    4    4    0    0 -0.35651729677E+02 -0.24197637470E+02  0.20324431980E+02  0.47640886048E+02  0.00000000000E+00 0. -1.
        -16    1    1    2    0    0 -0.12761162314E+02  0.17469858354E+03  0.22276752307E+03  0.28338632940E+03  0.00000000000E+00 0.  1.
         16    1    3    3    0    0 -0.12593140945E+02 -0.86448658683E+02  0.16336328008E+04  0.16359670185E+04  0.00000000000E+00 0. -1.
    9900018    1    3    3    0    0 -0.11239252407E+02 -0.12797953113E+02  0.23912668790E+03  0.25648949230E+03  0.91187600000E+02 0.  0.
<mgrwt>
<rscale>  0 0.97053882E+03</rscale>
<asrwt>0</asrwt>
<pdfrwt beam="1">  1        1 0.36441579E+00 0.97053882E+03</pdfrwt>
<pdfrwt beam="2">  1       -1 0.15294734E-01 0.97053882E+03</pdfrwt>
<totfact> 0.54068665E+01</totfact>
</mgrwt>
</event>
<event>
12    1  0.6537448E-013  0.1028676E+04  0.7818608E-02  0.9277641E-01
         -1   -1    0    0    0  501 -0.00000000000E+00  0.00000000000E+00  0.42457697723E+03  0.42457697723E+03  0.00000000000E+00 0.  1.
          1   -1    0    0  501    0  0.00000000000E+00 -0.00000000000E+00 -0.62307509321E+03  0.62307509321E+03  0.00000000000E+00 0. -1.
    9900016    2    1    2    0    0 -0.10114659961E+03 -0.72083838884E+02 -0.31052026572E+03  0.74047167411E+03  0.66064267974E+03 0.  0.
         23    2    3    3    0    0  0.59063661503E+02  0.74960442643E+02 -0.65377338157E+02  0.14650028412E+03  0.89891895246E+02 0.  0.
         23    2    3    3    0    0  0.10788689754E+03 -0.20070364829E+03 -0.20590197339E+03  0.31775541182E+03  0.81555760035E+02 0.  0.
        -15    1    5    5    0    0  0.73719259341E+01 -0.87499575065E+02 -0.52885252989E+02  0.10250546772E+03  0.00000000000E+00 0.  1.
        -15    1    4    4    0    0  0.76404368656E+02  0.68247149118E+02 -0.73624998659E+02  0.12615839782E+03  0.00000000000E+00 0.  1.
         15    1    4    4    0    0 -0.17340707153E+02  0.67132935249E+01  0.82476605021E+01  0.20341886300E+02  0.00000000000E+00 0. -1.
         15    1    5    5    0    0  0.10051497160E+03 -0.11320407322E+03 -0.15301672040E+03  0.21524994410E+03  0.00000000000E+00 0. -1.
        -16    1    1    2    0    0  0.13489783788E+03  0.96019684711E+02  0.12325035149E+03  0.20641670392E+03  0.00000000000E+00 0.  1.
         16    1    3    3    0    0 -0.26809715865E+03  0.53659366760E+02 -0.39240954176E+02  0.27621597818E+03  0.00000000000E+00 0. -1.
    9900018    1    1    2    0    0 -0.33751238268E+02 -0.23935845827E+02 -0.11228201738E+02  0.10076369241E+03  0.91187600000E+02 0.  0.
<mgrwt>
<rscale>  0 0.10286755E+04</rscale>
<asrwt>0</asrwt>
<pdfrwt beam="1">  1        1 0.95857706E-01 0.10286755E+04</pdfrwt>
<pdfrwt beam="2">  1       -1 0.65319535E-01 0.10286755E+04</pdfrwt>
<totfact> 0.77119448E+01</totfact>
</mgrwt>
</event>
<event>
12    1  0.6537448E-013  0.8930850E+03  0.7818608E-02  0.9434267E-01
         -1   -1    0    0    0  501 -0.00000000000E+00  0.00000000000E+00  0.84619554242E+03  0.84619554242E+03  0.00000000000E+00 0.  1.
          1   -1    0    0  501    0  0.00000000000E+00 -0.00000000000E+00 -0.23564318274E+03  0.23564318274E+03  0.00000000000E+00 0. -1.
    9900016    2    1    2    0    0 -0.59510168027E+02  0.10608493547E+03  0.36365814731E+03  0.76123292820E+03  0.65759626614E+03 0.  0.
         23    2    3    3    0    0  0.11532888484E+03  0.10370893489E+03  0.23821103145E+03  0.29808927478E+03  0.89757592319E+02 0.  0.
         23    2    3    3    0    0 -0.12779999338E+03 -0.17763962644E+03  0.14229181607E+03  0.27632276857E+03  0.90656694848E+02 0.  0.
        -15    1    5    5    0    0 -0.80915530289E+02 -0.13934317970E+03  0.55336794905E+02  0.17037020174E+03  0.00000000000E+00 0.  1.
        -15    1    4    4    0    0  0.28574968130E+01  0.56915476633E+02  0.66881191616E+02  0.87867118767E+02  0.00000000000E+00 0.  1.
         15    1    5    5    0    0 -0.46884463090E+02 -0.38296446742E+02  0.86955021165E+02  0.10595256683E+03  0.00000000000E+00 0. -1.
         15    1    4    4    0    0  0.11247138803E+03  0.46793458259E+02  0.17132983983E+03  0.21022215601E+03  0.00000000000E+00 0. -1.
        -16    1    1    2    0    0  0.63620248397E+02 -0.56639444990E+02  0.17408290652E+03  0.19380511107E+03  0.00000000000E+00 0.  1.
         16    1    3    3    0    0 -0.47039059493E+02  0.18001562702E+03 -0.16844700210E+02  0.18682088485E+03  0.00000000000E+00 0. -1.
    9900018    1    1    2    0    0 -0.41100803700E+01 -0.49445490482E+02  0.72811305843E+02  0.12680068589E+03  0.91187600000E+02 0.  0.
<mgrwt>
<rscale>  0 0.89308501E+03</rscale>
<asrwt>0</asrwt>
<pdfrwt beam="1">  1        1 0.36252798E-01 0.89308501E+03</pdfrwt>
<pdfrwt beam="2">  1       -1 0.13018393E+00 0.89308501E+03</pdfrwt>
<totfact> 0.61238559E+01</totfact>
</mgrwt>
</event>
<event>
12    1  0.6537448E-013  0.1008286E+04  0.7818608E-02  0.9299503E-01
          2   -1    0    0  501    0  0.00000000000E+00  0.00000000000E+00  0.80735824086E+03  0.80735824086E+03  0.00000000000E+00 0. -1.
         -2   -1    0    0    0  501 -0.00000000000E+00 -0.00000000000E+00 -0.31480493275E+03  0.31480493275E+03  0.00000000000E+00 0.  1.
    9900016    2    1    2    0    0 -0.28348211262E+02 -0.15348872421E+03  0.48991800407E+03  0.84507103367E+03  0.67064371442E+03 0.  0.
         23    2    3    3    0    0 -0.40947450506E+02 -0.74887417830E+01 -0.82287995953E+02  0.12808208833E+03  0.88887187583E+02 0.  0.
         23    2    3    3    0    0  0.17662863084E+03 -0.14310862756E+02  0.16451652579E+03  0.25823152257E+03  0.90638611902E+02 0.  0.
        -15    1    5    5    0    0  0.57997012650E+02  0.18967238071E+02  0.12040647657E+02  0.62196356745E+02  0.00000000000E+00 0.  1.
        -15    1    4    4    0    0 -0.23716594851E+02 -0.45530468376E+02 -0.24766215524E+02  0.56998823262E+02  0.00000000000E+00 0. -1.
         15    1    5    5    0    0  0.11863161819E+03 -0.33278100827E+02  0.15247587813E+03  0.19603516582E+03  0.00000000000E+00 0. -1.
         15    1    4    4    0    0 -0.17230855654E+02  0.38041726593E+02 -0.57521780429E+02  0.71083265067E+02  0.00000000000E+00 0.  1.
        -16    1    1    2    0    0  0.34848981523E+02  0.13378434023E+03 -0.73434780867E+02  0.15654190572E+03  0.00000000000E+00 0.  1.
         16    1    3    3    0    0 -0.16402939159E+03 -0.13168911967E+03  0.40768947423E+03  0.45875742277E+03  0.00000000000E+00 0. -1.
    9900018    1    1    2    0    0 -0.65007702604E+01  0.19704383976E+02  0.76070084907E+02  0.12055023423E+03  0.91187600000E+02 0.  0.
<mgrwt>
<rscale>  0 0.10082864E+04</rscale>
<asrwt>0</asrwt>
<pdfrwt beam="1">  1        2 0.12420896E+00 0.10082864E+04</pdfrwt>
<pdfrwt beam="2">  1       -2 0.48431528E-01 0.10082864E+04</pdfrwt>
<totfact> 0.13710982E+02</totfact>
</mgrwt>
</event>
<event>
12    1  0.7401106E-013  0.1078859E+04  0.7818608E-02  0.9226046E-01
         -2   -1    0    0    0  501 -0.00000000000E+00  0.00000000000E+00  0.14460891602E+03  0.14460891602E+03  0.00000000000E+00 0.  1.
          2   -1    0    0  501    0  0.00000000000E+00 -0.00000000000E+00 -0.20122157391E+04  0.20122157391E+04  0.00000000000E+00 0. -1.
    9900016    2    1    2    0    0  0.18476347128E+03  0.62261131838E+02 -0.10533912639E+04  0.12578007111E+04  0.65910202941E+03 0.  0.
         23    2    3    3    0    0  0.31721728646E+02 -0.12602943711E+03 -0.33768141297E+03  0.37373702461E+03  0.93599892158E+02 0.  0.
         23    2    3    3    0    0 -0.14366437205E+03  0.12183687048E+03 -0.24404075412E+03  0.32288425940E+03  0.95993127311E+02 0.  0.
        -15    1    5    5    0    0 -0.12149362337E+03  0.10819085820E+03 -0.24795319403E+03  0.29655817093E+03  0.00000000000E+00 0. -1.
        -15    1    4    4    0    0  0.55232721892E+02 -0.78314562679E+02 -0.27665095358E+03  0.29277905391E+03  0.00000000000E+00 0.  1.
         15    1    4    4    0    0 -0.23510993246E+02 -0.47714874433E+02 -0.61030459389E+02  0.80957970694E+02  0.00000000000E+00 0. -1.
         15    1    5    5    0    0 -0.22170748681E+02  0.13646012279E+02  0.39124399026E+01  0.26326088471E+02  0.00000000000E+00 0.  1.
        -16    1    3    3    0    0  0.29670611468E+03  0.66453698473E+02 -0.47166909685E+03  0.56117942714E+03  0.00000000000E+00 0.  1.
         16    1    1    2    0    0 -0.20475949725E+03 -0.88023575088E+02 -0.75099858237E+03  0.78337313728E+03  0.00000000000E+00 0. -1.
    9900018    1    1    2    0    0  0.19996025972E+02  0.25762443250E+02 -0.63216976722E+02  0.11565080664E+03  0.91187600000E+02 0.  0.
<mgrwt>
<rscale>  0 0.10788593E+04</rscale>
<asrwt>0</asrwt>
<pdfrwt beam="1">  1        2 0.30957167E+00 0.10788593E+04</pdfrwt>
<pdfrwt beam="2">  1       -2 0.22247525E-01 0.10788593E+04</pdfrwt>
<totfact> 0.11601870E+02</totfact>
</mgrwt>
</event>
<event>
12    1  0.6537448E-013  0.9756792E+03  0.7818608E-02  0.9335629E-01
          1   -1    0    0  501    0  0.00000000000E+00  0.00000000000E+00  0.53251809642E+03  0.53251809642E+03  0.00000000000E+00 0. -1.
         -1   -1    0    0    0  501 -0.00000000000E+00 -0.00000000000E+00 -0.44690964659E+03  0.44690964659E+03  0.00000000000E+00 0.  1.
    9900016    2    1    2    0    0  0.58223518686E+02 -0.11622041775E+03  0.58497616524E+02  0.66422281333E+03  0.64874710865E+03 0.  0.
         23    2    3    3    0    0 -0.82016082574E+01 -0.36372559914E+02 -0.88186474442E+02  0.13080886907E+03  0.89128426780E+02 0.  0.
         23    2    3    3    0    0 -0.11618395304E+03  0.63394271120E+02  0.23466786995E+03  0.28520933318E+03  0.93583171502E+02 0.  0.
        -15    1    5    5    0    0  0.10190060724E+02 -0.98063462166E+01  0.35672941758E+02  0.38373956498E+02  0.00000000000E+00 0.  1.
        -15    1    4    4    0    0 -0.20980789552E+02  0.23612191486E+02 -0.13991691288E+02  0.34547019294E+02  0.00000000000E+00 0. -1.
         15    1    5    5    0    0 -0.12637401376E+03  0.73200617336E+02  0.19899492820E+03  0.24683537668E+03  0.00000000000E+00 0. -1.
         15    1    4    4    0    0  0.12779181294E+02 -0.59984751400E+02 -0.74194783154E+02  0.96261849776E+02  0.00000000000E+00 0.  1.
        -16    1    3    3    0    0  0.18260907998E+03 -0.14324212895E+03 -0.87983778987E+02  0.24820461108E+03  0.00000000000E+00 0.  1.
         16    1    1    2    0    0 -0.12832550655E+03  0.11365925795E+03 -0.47745338436E+02  0.17794796962E+03  0.00000000000E+00 0. -1.
    9900018    1    1    2    0    0  0.70101987866E+02  0.25611597970E+01  0.74856171751E+02  0.13725696006E+03  0.91187600000E+02 0.  0.
<mgrwt>
<rscale>  0 0.97567920E+03</rscale>
<asrwt>0</asrwt>
<pdfrwt beam="1">  1        1 0.81925861E-01 0.97567920E+03</pdfrwt>
<pdfrwt beam="2">  1       -1 0.68755330E-01 0.97567920E+03</pdfrwt>
<totfact> 0.87289323E+01</totfact>
</mgrwt>
</event>
<event>
12    1  0.6537448E-013  0.1010595E+04  0.7818608E-02  0.9297000E-01
         -2   -1    0    0    0  501 -0.00000000000E+00  0.00000000000E+00  0.13486478118E+04  0.13486478118E+04  0.00000000000E+00 0.  1.
          2   -1    0    0  501    0  0.00000000000E+00 -0.00000000000E+00 -0.18931982069E+03  0.18931982069E+03  0.00000000000E+00 0. -1.
    9900016    2    1    2    0    0 -0.45527943564E+02 -0.79907113475E+02  0.11232430695E+04  0.13057392525E+04  0.65941038964E+03 0.  0.
         23    2    3    3    0    0 -0.16985133147E+03 -0.33433412630E+02  0.12186997982E+03  0.22990267752E+03  0.89641961542E+02 0.  0.
         23    2    3    3    0    0  0.18018174806E+03 -0.54839154733E+02  0.26946894464E+03  0.34175632411E+03  0.93333154431E+02 0.  0.
        -15    1    5    5    0    0  0.10250117742E+03 -0.73925716674E+02  0.19559739379E+03  0.23287301994E+03  0.00000000000E+00 0. -1.
        -15    1    4    4    0    0 -0.11331310529E+03  0.12832941976E+02  0.41658473489E+02  0.12140828903E+03  0.00000000000E+00 0. -1.
         15    1    4    4    0    0 -0.56538226179E+02 -0.46266354606E+02  0.80211506328E+02  0.10849438850E+03  0.00000000000E+00 0.  1.
         15    1    5    5    0    0  0.77680570638E+02  0.19086561941E+02  0.73871550852E+02  0.10888330417E+03  0.00000000000E+00 0.  1.
        -16    1    3    3    0    0 -0.55858360151E+02  0.83654538884E+01  0.73190414503E+03  0.73408025088E+03  0.00000000000E+00 0.  1.
         16    1    1    2    0    0  0.19937932245E+02  0.84598881495E+02 -0.53264225645E+02  0.10193904858E+03  0.00000000000E+00 0. -1.
    9900018    1    1    2    0    0  0.25590011319E+02 -0.46917680206E+01  0.89349147268E+02  0.13028933140E+03  0.91187600000E+02 0.  0.
<mgrwt>
<rscale>  0 0.10105954E+04</rscale>
<asrwt>0</asrwt>
<pdfrwt beam="1">  1        2 0.29126127E-01 0.10105954E+04</pdfrwt>
<pdfrwt beam="2">  1       -2 0.20748427E+00 0.10105954E+04</pdfrwt>
<totfact> 0.21876720E+01</totfact>
</mgrwt>
</event>
<event>
12    1  0.6537448E-013  0.1117860E+04  0.7818608E-02  0.9187957E-01
         -2   -1    0    0    0  501 -0.00000000000E+00  0.00000000000E+00  0.12581999051E+03  0.12581999051E+03  0.00000000000E+00 0.  1.
          2   -1    0    0  501    0  0.00000000000E+00 -0.00000000000E+00 -0.24829344882E+04  0.24829344882E+04  0.00000000000E+00 0. -1.
    9900016    2    1    2    0    0  0.24901305534E+03  0.13603436818E+03 -0.19367557075E+04  0.21015914245E+04  0.76495162852E+03 0.  0.
         23    2    3    3    0    0  0.19011297913E+03  0.12083006648E+03 -0.85940282400E+03  0.89310117475E+03  0.91179189720E+02 0.  0.
         23    2    3    3    0    0  0.15345560837E+02 -0.16000475512E+03 -0.56846770973E+03  0.59777377250E+03  0.91328736914E+02 0.  0.
        -15    1    5    5    0    0 -0.18916342508E+02 -0.12308974796E+03 -0.48082298058E+03  0.49668868794E+03  0.00000000000E+00 0. -1.
        -15    1    4    4    0    0  0.91089059228E+02  0.78921567126E+01 -0.28021307280E+03  0.29475221631E+03  0.00000000000E+00 0. -1.
         15    1    4    4    0    0  0.99023919907E+02  0.11293790977E+03 -0.57918975119E+03  0.59834895844E+03  0.00000000000E+00 0.  1.
         15    1    5    5    0    0  0.34261903345E+02 -0.36915007159E+02 -0.87644729150E+02  0.10108508457E+03  0.00000000000E+00 0.  1.
        -16    1    3    3    0    0 -0.13296650637E+02  0.21424646641E+03 -0.26247125564E+03  0.33907154013E+03  0.00000000000E+00 0.  1.
         16    1    1    2    0    0 -0.24901305534E+03 -0.13603436818E+03 -0.42035879018E+03  0.50716305419E+03  0.00000000000E+00 0. -1.
    9900018    1    3    3    0    0  0.56851166004E+02 -0.39037409594E+02 -0.24641391818E+03  0.27164493717E+03  0.91187600000E+02 0.  0.
<mgrwt>
<rscale>  0 0.11178601E+04</rscale>
<asrwt>0</asrwt>
<pdfrwt beam="1">  1        2 0.38198989E+00 0.11178601E+04</pdfrwt>
<pdfrwt beam="2">  1       -2 0.19356923E-01 0.11178601E+04</pdfrwt>
<totfact> 0.80601817E+01</totfact>
</mgrwt>
</event>
<event>
12    1  0.6537448E-013  0.1119188E+04  0.7818608E-02  0.9186689E-01
          2   -1    0    0  501    0  0.00000000000E+00  0.00000000000E+00  0.29722473044E+04  0.29722473044E+04  0.00000000000E+00 0. -1.
         -2   -1    0    0    0  501 -0.00000000000E+00 -0.00000000000E+00 -0.10535649374E+03  0.10535649374E+03  0.00000000000E+00 0.  1.
    9900016    2    1    2    0    0  0.61642681615E+02  0.10376990890E+03  0.25200841894E+04  0.26083505306E+04  0.66189134655E+03 0.  0.
         23    2    3    3    0    0  0.23919645481E+02  0.15311538485E+03  0.33499998011E+03  0.37993745021E+03  0.90061139692E+02 0.  0.
         23    2    3    3    0    0  0.61577183835E+02 -0.99739209614E+02  0.23724602603E+03  0.27977711210E+03  0.90828938582E+02 0.  0.
        -15    1    4    4    0    0  0.48238386513E+02  0.13352792793E+03  0.30595773680E+03  0.33729332365E+03  0.00000000000E+00 0. -1.
        -15    1    5    5    0    0  0.85069993127E+02 -0.82984588804E+02  0.20024326793E+03  0.23285341325E+03  0.00000000000E+00 0.  1.
         15    1    5    5    0    0 -0.23492809292E+02 -0.16754620810E+02  0.37002758098E+02  0.46923698850E+02  0.00000000000E+00 0. -1.
         15    1    4    4    0    0 -0.24318741032E+02  0.19587456912E+02  0.29042243313E+02  0.42644126563E+02  0.00000000000E+00 0.  1.
        -16    1    1    2    0    0 -0.72920373634E+02 -0.79341856759E+02 -0.19406665978E+01  0.10777883517E+03  0.00000000000E+00 0.  1.
         16    1    3    3    0    0 -0.23854147701E+02  0.50393733665E+02  0.19478381832E+04  0.19486359683E+04  0.00000000000E+00 0. -1.
    9900018    1    1    2    0    0  0.11277692019E+02 -0.24428052139E+02  0.34874728791E+03  0.36147443241E+03  0.91187600000E+02 0.  0.
<mgrwt>
<rscale>  0 0.11191882E+04</rscale>
<asrwt>0</asrwt>
<pdfrwt beam="1">  1        2 0.45726875E+00 0.11191882E+04</pdfrwt>
<pdfrwt beam="2">  1       -2 0.16208694E-01 0.11191882E+04</pdfrwt>
<totfact> 0.56270792E+01</totfact>
</mgrwt>
</event>
<event>
12    1  0.6537448E-013  0.1005858E+04  0.7818608E-02  0.9302143E-01
         -1   -1    0    0    0  501 -0.00000000000E+00  0.00000000000E+00  0.15885890058E+03  0.15885890058E+03  0.00000000000E+00 0.  1.
          1   -1    0    0  501    0  0.00000000000E+00 -0.00000000000E+00 -0.15922152613E+04  0.15922152613E+04  0.00000000000E+00 0. -1.
    9900016    2    1    2    0    0 -0.41231777062E+02  0.65893453843E+02 -0.12475189186E+04  0.14211006750E+04  0.67615210528E+03 0.  0.
         23    2    3    3    0    0 -0.18220415862E+03 -0.12916199253E+02 -0.53687452427E+03  0.57444605476E+03  0.91590563908E+02 0.  0.
         23    2    3    3    0    0  0.24058881736E+03 -0.64026751820E+02 -0.54443323023E+03  0.60592276957E+03  0.93554564338E+02 0.  0.
        -15    1    5    5    0    0  0.12604586467E+03 -0.54371598764E+02 -0.19811229472E+03  0.24102346788E+03  0.00000000000E+00 0. -1.
        -15    1    4    4    0    0 -0.62844378956E+02  0.20678742835E+02 -0.96892551935E+02  0.11732515925E+03  0.00000000000E+00 0.  1.
         15    1    4    4    0    0 -0.11935977966E+03 -0.33594942088E+02 -0.43998197233E+03  0.45712089551E+03  0.00000000000E+00 0. -1.
         15    1    5    5    0    0  0.11454295269E+03 -0.96551530554E+01 -0.34632093552E+03  0.36489930169E+03  0.00000000000E+00 0.  1.
        -16    1    1    2    0    0  0.33863607675E+02 -0.74104665653E+02  0.36599198303E+02  0.89318232813E+02  0.00000000000E+00 0.  1.
         16    1    3    3    0    0 -0.99616435808E+02  0.14283640492E+03 -0.16621116411E+03  0.24073185067E+03  0.00000000000E+00 0. -1.
    9900018    1    1    2    0    0  0.73681693869E+01  0.82112118099E+01 -0.22243664046E+03  0.24065525411E+03  0.91187600000E+02 0.  0.
<mgrwt>
<rscale>  0 0.10058580E+04</rscale>
<asrwt>0</asrwt>
<pdfrwt beam="1">  1        1 0.24495620E+00 0.10058580E+04</pdfrwt>
<pdfrwt beam="2">  1       -1 0.24439831E-01 0.10058580E+04</pdfrwt>
<totfact> 0.82502018E+01</totfact>
</mgrwt>
</event>
<event>
12    1  0.6537448E-013  0.1144827E+04  0.7818608E-02  0.9162569E-01
          2   -1    0    0  501    0  0.00000000000E+00  0.00000000000E+00  0.63151506213E+03  0.63151506213E+03  0.00000000000E+00 0.  1.
         -2   -1    0    0    0  501 -0.00000000000E+00 -0.00000000000E+00 -0.51884321946E+03  0.51884321946E+03  0.00000000000E+00 0. -1.
    9900016    2    1    2    0    0  0.21396337818E+03 -0.16646159079E+03 -0.15552253436E+02  0.72574280477E+03  0.67303117140E+03 0.  0.
         23    2    3    3    0    0  0.10842661725E+03  0.52143683123E+01  0.88637090788E+02  0.16691680311E+03  0.90670636542E+02 0.  0.
         23    2    3    3    0    0  0.10972127875E+03  0.13765861580E+02  0.17325843885E+03  0.22508440794E+03  0.91740100875E+02 0.  0.
        -15    1    4    4    0    0  0.60105124176E+02  0.46877917709E+02  0.36460080136E+02  0.84495577189E+02  0.00000000000E+00 0. -1.
        -15    1    5    5    0    0  0.11937588499E+03  0.80647292112E+01  0.11568427291E+03  0.16642864168E+03  0.00000000000E+00 0. -1.
         15    1    5    5    0    0 -0.96546062312E+01  0.57011323686E+01  0.57574165938E+02  0.58655766257E+02  0.00000000000E+00 0.  1.
         15    1    4    4    0    0  0.48321493076E+02 -0.41663549397E+02  0.52177010652E+02  0.82421225919E+02  0.00000000000E+00 0.  1.
        -16    1    3    3    0    0 -0.41845178266E+01 -0.18544182068E+03 -0.27744778308E+03  0.33374159372E+03  0.00000000000E+00 0.  1.
         16    1    1    2    0    0 -0.23914651526E+03  0.17101121916E+03  0.14599282554E+03  0.32825264347E+03  0.00000000000E+00 0. -1.
    9900018    1    1    2    0    0  0.25183137081E+02 -0.45496283689E+01 -0.17768729435E+02  0.96362833349E+02  0.91187600000E+02 0.  0.
<mgrwt>
<rscale>  0 0.11448272E+04</rscale>
<asrwt>0</asrwt>
<pdfrwt beam="1">  1        2 0.97156164E-01 0.11448272E+04</pdfrwt>
<pdfrwt beam="2">  1       -2 0.79822034E-01 0.11448272E+04</pdfrwt>
<totfact> 0.64129822E+01</totfact>
</mgrwt>
</event>
<event>
12    1  0.6537448E-013  0.1115227E+04  0.7818608E-02  0.9190476E-01
          1   -1    0    0  501    0  0.00000000000E+00  0.00000000000E+00  0.40018015801E+03  0.40018015801E+03  0.00000000000E+00 0. -1.
         -1   -1    0    0    0  501 -0.00000000000E+00 -0.00000000000E+00 -0.77698220325E+03  0.77698220325E+03  0.00000000000E+00 0.  1.
    9900016    2    1    2    0    0  0.46435088667E+02 -0.27272020689E+02  0.19015829590E+02  0.67499307173E+03  0.67257272063E+03 0.  0.
         23    2    3    3    0    0 -0.22126402291E+03  0.19378415407E+02 -0.11353785554E+03  0.26607652590E+03  0.92588239955E+02 0.  0.
         23    2    3    3    0    0  0.35407070246E+02 -0.10226235435E+03  0.80212492577E+02  0.16439276711E+03  0.94232097360E+02 0.  0.
        -15    1    5    5    0    0  0.67573087268E+02 -0.76204979945E+02  0.61369933308E+02  0.11891000717E+03  0.00000000000E+00 0. -1.
        -15    1    4    4    0    0 -0.68500315967E+02  0.44825920594E+02 -0.62567699049E+02  0.10303578703E+03  0.00000000000E+00 0. -1.
         15    1    5    5    0    0 -0.32166017023E+02 -0.26057374404E+02  0.18842559269E+02  0.45482759940E+02  0.00000000000E+00 0.  1.
         15    1    4    4    0    0 -0.15276370695E+03 -0.25447505187E+02 -0.50970156487E+02  0.16304073887E+03  0.00000000000E+00 0.  1.
        -16    1    1    2    0    0 -0.29321046976E+02  0.44770408915E+02 -0.40388001128E+03  0.40741032979E+03  0.00000000000E+00 0.  1.
         16    1    3    3    0    0  0.23229204133E+03  0.55611918252E+02  0.52341192549E+02  0.24452377871E+03  0.00000000000E+00 0. -1.
    9900018    1    1    2    0    0 -0.17114041690E+02 -0.17498388226E+02  0.80621364401E+01  0.94758959741E+02  0.91187600000E+02 0.  0.
<mgrwt>
<rscale>  0 0.11152271E+04</rscale>
<asrwt>0</asrwt>
<pdfrwt beam="1">  1        1 0.61566178E-01 0.11152271E+04</pdfrwt>
<pdfrwt beam="2">  1       -1 0.11953572E+00 0.11152271E+04</pdfrwt>
<totfact> 0.37320261E+01</totfact>
</mgrwt>
</event>
<event>
12    1  0.6537450E-013  0.1031220E+04  0.7818608E-02  0.9274951E-01
         -1   -1    0    0    0  501 -0.00000000000E+00  0.00000000000E+00  0.30438846379E+03  0.30438846379E+03  0.00000000000E+00 0.  1.
          1   -1    0    0  501    0  0.00000000000E+00 -0.00000000000E+00 -0.87340264713E+03  0.87340264713E+03  0.00000000000E+00 0. -1.
    9900016    2    1    2    0    0  0.26047696091E+02  0.30644607707E+02 -0.57212116586E+03  0.87418764913E+03  0.65974528647E+03 0.  0.
         23    2    3    3    0    0 -0.38051364733E+02  0.74630245234E+02 -0.14301119279E+03  0.18854113316E+03  0.89877570989E+02 0.  0.
         23    2    3    3    0    0 -0.74698921900E+02  0.17244946653E+03 -0.36392646601E+03  0.42039583479E+03  0.94717674193E+02 0.  0.
        -15    1    4    4    0    0  0.17613385869E+02  0.11022310608E+02  0.18112005870E+01  0.20856728901E+02  0.00000000000E+00 0.  1.
        -15    1    5    5    0    0 -0.56365749682E+02  0.15039088743E+03 -0.21298271557E+03  0.26675110851E+03  0.00000000000E+00 0. -1.
         15    1    4    4    0    0 -0.55664750602E+02  0.63607934626E+02 -0.14482239338E+03  0.16768440425E+03  0.00000000000E+00 0. -1.
         15    1    5    5    0    0 -0.18333172218E+02  0.22058579096E+02 -0.15094375045E+03  0.15364472628E+03  0.00000000000E+00 0.  1.
        -16    1    1    2    0    0  0.23041142169E+02 -0.16151039883E+02  0.13351466682E+03  0.13644748652E+03  0.00000000000E+00 0.  1.
         16    1    3    3    0    0  0.13879798272E+03 -0.21643510406E+03 -0.65183507053E+02  0.26525068118E+03  0.00000000000E+00 0. -1.
    9900018    1    1    2    0    0 -0.49088838260E+02 -0.14493567824E+02 -0.13040768430E+03  0.16715597527E+03  0.91187600000E+02 0.  0.
<mgrwt>
<rscale>  0 0.10312200E+04</rscale>
<asrwt>0</asrwt>
<pdfrwt beam="1">  1        1 0.13436964E+00 0.10312200E+04</pdfrwt>
<pdfrwt beam="2">  1       -1 0.46828994E-01 0.10312200E+04</pdfrwt>
<totfact> 0.87014854E+01</totfact>
</mgrwt>
</event>
<event>
12    1  0.6537448E-013  0.1071520E+04  0.7818608E-02  0.9233403E-01
         -1   -1    0    0    0  501 -0.00000000000E+00  0.00000000000E+00  0.95060961073E+03  0.95060961073E+03  0.00000000000E+00 0.  1.
          1   -1    0    0  501    0  0.00000000000E+00 -0.00000000000E+00 -0.30195252258E+03  0.30195252258E+03  0.00000000000E+00 0. -1.
    9900016    2    1    2    0    0 -0.72108565435E+02  0.19498264791E+03  0.45243045679E+03  0.83707370145E+03  0.67289017323E+03 0.  0.
         23    2    3    3    0    0  0.76103112746E+02 -0.54968592067E+02  0.74767390943E+01  0.13074613055E+03  0.90694096515E+02 0.  0.
         23    2    3    3    0    0  0.11335689909E+03 -0.42371092478E+02  0.76077599543E+02  0.16786674854E+03  0.88013340263E+02 0.  0.
        -15    1    4    4    0    0  0.13523111024E+02 -0.25621839992E+02 -0.38165953260E+02  0.47916523294E+02  0.00000000000E+00 0. -1.
        -15    1    5    5    0    0  0.82109481824E+02 -0.11408799573E+02  0.34672589580E+01  0.82970775564E+02  0.00000000000E+00 0.  1.
         15    1    5    5    0    0  0.31247417268E+02 -0.30962292906E+02  0.72610340585E+02  0.84895972978E+02  0.00000000000E+00 0. -1.
         15    1    4    4    0    0  0.62580001722E+02 -0.29346752076E+02  0.45642692354E+02  0.82829607256E+02  0.00000000000E+00 0.  1.
        -16    1    3    3    0    0 -0.26156857727E+03  0.29232233246E+03  0.36887611815E+03  0.53846082235E+03  0.00000000000E+00 0.  1.
         16    1    1    2    0    0  0.67415337379E+02 -0.25034594429E+03  0.13292221284E+03  0.29135242268E+03  0.00000000000E+00 0. -1.
    9900018    1    1    2    0    0  0.46932280564E+01  0.55363296380E+02  0.63304418522E+02  0.12413600917E+03  0.91187600000E+02 0.  0.
<mgrwt>
<rscale>  0 0.10715204E+04</rscale>
<asrwt>0</asrwt>
<pdfrwt beam="1">  1        1 0.46454235E-01 0.10715204E+04</pdfrwt>
<pdfrwt beam="2">  1       -1 0.14624763E+00 0.10715204E+04</pdfrwt>
<totfact> 0.32416187E+01</totfact>
</mgrwt>
</event>
<event>
12    1  0.6537448E-013  0.2601088E+04  0.7818608E-02  0.8367832E-01
         -2   -1    0    0    0  501 -0.00000000000E+00  0.00000000000E+00  0.10324221591E+04  0.10324221591E+04  0.00000000000E+00 0. -1.
          2   -1    0    0  501    0  0.00000000000E+00 -0.00000000000E+00 -0.16382980544E+04  0.16382980544E+04  0.00000000000E+00 0.  1.
    9900016    2    1    2    0    0 -0.36257450636E+03  0.17255212865E+03 -0.12066661502E+04  0.14361839155E+04  0.66734288892E+03 0.  0.
         23    2    3    3    0    0 -0.52990647250E+02 -0.52773964336E+02 -0.16394344538E+03  0.20217964822E+03  0.91684550834E+02 0.  0.
         23    2    3    3    0    0  0.47337283315E+02 -0.64362743063E+02 -0.36513799702E+02  0.12776347779E+03  0.92773205200E+02 0.  0.
        -15    1    4    4    0    0  0.70819804528E+01  0.21328073728E+02 -0.38596061391E+02  0.44662032321E+02  0.00000000000E+00 0. -1.
        -15    1    5    5    0    0  0.65441261617E+02 -0.14639936213E+02 -0.76680047265E+01  0.67495812839E+02  0.00000000000E+00 0. -1.
         15    1    5    5    0    0 -0.18103978302E+02 -0.49722806849E+02 -0.28845794975E+02  0.60267664955E+02  0.00000000000E+00 0.  1.
         15    1    4    4    0    0 -0.60072627703E+02 -0.74102038064E+02 -0.12534738399E+03  0.15751761590E+03  0.00000000000E+00 0.  1.
        -16    1    3    3    0    0 -0.35692114242E+03  0.28968883605E+03 -0.10062089051E+04  0.11062407895E+04  0.00000000000E+00 0.  1.
         16    1    1    2    0    0  0.47048284812E+03 -0.23100478949E+03  0.81643063510E+03  0.97019395230E+03  0.00000000000E+00 0. -1.
    9900018    1    1    2    0    0 -0.10790834177E+03  0.58452660843E+02 -0.21564038013E+03  0.26434234568E+03  0.91187600000E+02 0.  0.
<mgrwt>
<rscale>  0 0.26010884E+04</rscale>
<asrwt>0</asrwt>
<pdfrwt beam="1">  1        2 0.25204586E+00 0.26010884E+04</pdfrwt>
<pdfrwt beam="2">  1       -2 0.15883418E+00 0.26010884E+04</pdfrwt>
<totfact> 0.24129867E+00</totfact>
</mgrwt>
</event>
<event>
12    1  0.6537448E-013  0.1187010E+04  0.7818608E-02  0.9124303E-01
          1   -1    0    0  501    0  0.00000000000E+00  0.00000000000E+00  0.16790957286E+04  0.16790957286E+04  0.00000000000E+00 0. -1.
         -1   -1    0    0    0  501 -0.00000000000E+00 -0.00000000000E+00 -0.20978442085E+03  0.20978442085E+03  0.00000000000E+00 0.  1.
    9900016    2    1    2    0    0  0.15588617464E+03  0.93991520946E+02  0.15178943741E+04  0.17004783984E+04  0.74463987738E+03 0.  0.
         23    2    3    3    0    0  0.66447713391E+02  0.49286176556E+01  0.12734285022E+03  0.17013987230E+03  0.91059237625E+02 0.  0.
         23    2    3    3    0    0  0.11936907558E+03 -0.14732598795E+02  0.43665385381E+02  0.15742240748E+03  0.91701269487E+02 0.  0.
        -15    1    4    4    0    0  0.46830286627E+02  0.42254557125E+02  0.10481987921E+03  0.12233450217E+03  0.00000000000E+00 0.  1.
        -15    1    5    5    0    0  0.29636224559E+02  0.37177712797E+02  0.15296859848E+02  0.49944790080E+02  0.00000000000E+00 0. -1.
         15    1    5    5    0    0  0.89732851018E+02 -0.51910311592E+02  0.28368525533E+02  0.10747761740E+03  0.00000000000E+00 0.  1.
         15    1    4    4    0    0  0.19617426764E+02 -0.37325939469E+02  0.22522971009E+02  0.47805370129E+02  0.00000000000E+00 0. -1.
        -16    1    1    2    0    0 -0.15588617464E+03 -0.93991520946E+02 -0.48583066383E+02  0.18840175104E+03  0.00000000000E+00 0.  1.
         16    1    3    3    0    0 -0.30410506403E+02  0.78548846402E+02  0.11636293656E+04  0.11666739136E+04  0.00000000000E+00 0. -1.
    9900018    1    3    3    0    0  0.47989207859E+00  0.25246655683E+02  0.18325677295E+03  0.20624220505E+03  0.91187600000E+02 0.  0.
<mgrwt>
<rscale>  0 0.11870099E+04</rscale>
<asrwt>0</asrwt>
<pdfrwt beam="1">  1        1 0.25832241E+00 0.11870099E+04</pdfrwt>
<pdfrwt beam="2">  1       -1 0.32274527E-01 0.11870099E+04</pdfrwt>
<totfact> 0.43769506E+01</totfact>
</mgrwt>
</event>
<event>
12    1  0.6537448E-013  0.8406231E+03  0.7818608E-02  0.9503009E-01
         -2   -1    0    0    0  501 -0.00000000000E+00  0.00000000000E+00  0.18768210527E+03  0.18768210527E+03  0.00000000000E+00 0.  1.
          2   -1    0    0  501    0  0.00000000000E+00 -0.00000000000E+00 -0.94128198289E+03  0.94128198289E+03  0.00000000000E+00 0. -1.
    9900016    2    1    2    0    0 -0.56696827513E+02 -0.32962330674E+02 -0.63969851307E+03  0.99753134360E+03  0.76259658297E+03 0.  0.
         23    2    3    3    0    0 -0.78899973981E+02 -0.16259178412E+03 -0.80855234378E+02  0.21647315980E+03  0.87531513345E+02 0.  0.
         23    2    3    3    0    0 -0.51671086987E+02  0.23524001316E+03 -0.43640341550E+03  0.50683352807E+03  0.91785179020E+02 0.  0.
        -15    1    4    4    0    0  0.82727655241E+01 -0.49081820216E+02  0.42586490496E+01  0.49955978789E+02  0.00000000000E+00 0.  1.
        -15    1    5    5    0    0 -0.33696980738E+02  0.13780923041E+03 -0.16332240570E+03  0.21633556966E+03  0.00000000000E+00 0.  1.
         15    1    5    5    0    0 -0.17974106249E+02  0.97430782747E+02 -0.27308100980E+03  0.29049795840E+03  0.00000000000E+00 0. -1.
         15    1    4    4    0    0 -0.87172739505E+02 -0.11350996390E+03 -0.85113883427E+02  0.16651718101E+03  0.00000000000E+00 0. -1.
        -16    1    3    3    0    0  0.68838495251E+02 -0.13074349717E+03 -0.94790072348E+02  0.17554987410E+03  0.00000000000E+00 0.  1.
         16    1    1    2    0    0  0.56696827513E+02  0.32962330674E+02 -0.11390136456E+03  0.13143274455E+03  0.00000000000E+00 0. -1.
    9900018    1    3    3    0    0  0.50357382038E+01  0.25132937460E+02 -0.27649790836E+02  0.98674781640E+02  0.91187600000E+02 0.  0.
<mgrwt>
<rscale>  0 0.84062306E+03</rscale>
<asrwt>0</asrwt>
<pdfrwt beam="1">  1        2 0.14481261E+00 0.84062306E+03</pdfrwt>
<pdfrwt beam="2">  1       -2 0.28874170E-01 0.84062306E+03</pdfrwt>
<totfact> 0.30387410E+02</totfact>
</mgrwt>
</event>
<event>
12    1  0.6537448E-013  0.1927519E+04  0.7818608E-02  0.8641279E-01
         -2   -1    0    0    0  501 -0.00000000000E+00  0.00000000000E+00  0.60416013371E+03  0.60416013371E+03  0.00000000000E+00 0.  1.
          2   -1    0    0  501    0  0.00000000000E+00 -0.00000000000E+00 -0.15373935628E+04  0.15373935628E+04  0.00000000000E+00 0. -1.
    9900016    2    1    2    0    0  0.25226971389E+03 -0.64502911446E+02  0.31080126411E+03  0.87056079645E+03  0.77037525947E+03 0.  0.
         23    2    3    3    0    0 -0.46806178199E+02 -0.56420053709E+02  0.95449207560E+02  0.15174968645E+03  0.92430381021E+02 0.  0.
         23    2    3    3    0    0  0.35841243398E+03  0.70287173933E+02  0.15637642620E+03  0.40739692062E+03  0.90104964402E+02 0.  0.
        -15    1    4    4    0    0 -0.45096944892E+02 -0.30558244565E+02  0.17192392195E+01  0.54502261724E+02  0.00000000000E+00 0. -1.
        -15    1    5    5    0    0  0.19922213089E+03  0.23284055362E+02  0.13078793612E+03  0.23945164210E+03  0.00000000000E+00 0.  1.
         15    1    5    5    0    0  0.15919030308E+03  0.47003118571E+02  0.25588490081E+02  0.16794527851E+03  0.00000000000E+00 0. -1.
         15    1    4    4    0    0 -0.17092333062E+01 -0.25861809144E+02  0.93729968341E+02  0.97247424726E+02  0.00000000000E+00 0.  1.
        -16    1    3    3    0    0 -0.10280865155E+03 -0.13295525950E+03 -0.23965270768E+02  0.16976764728E+03  0.00000000000E+00 0.  1.
         16    1    1    2    0    0 -0.25226971389E+03  0.64502911446E+02 -0.12440346932E+04  0.12709929001E+04  0.00000000000E+00 0. -1.
    9900018    1    3    3    0    0  0.43472109666E+02  0.54585227827E+02  0.82940901118E+02  0.14164654210E+03  0.91187600000E+02 0.  0.
<mgrwt>
<rscale>  0 0.19275185E+04</rscale>
<asrwt>0</asrwt>
<pdfrwt beam="1">  1        2 0.23652208E+00 0.19275185E+04</pdfrwt>
<pdfrwt beam="2">  1       -2 0.92947715E-01 0.19275185E+04</pdfrwt>
<totfact> 0.11082869E+01</totfact>
</mgrwt>
</event>
