<event>
13    1  0.1067401E-013  0.4278894E+04  0.7818608E-02  0.7950532E-01
          2   -1    0    0  501    0  0.00000000000E+00  0.00000000000E+00  0.29434838463E+04  0.29434838463E+04  0.00000000000E+00 0. -1.
         -2   -1    0    0    0  501 -0.00000000000E+00 -0.00000000000E+00 -0.15550392314E+04  0.15550392314E+04  0.00000000000E+00 0.  1.
    9900016    2    1    2    0    0  0.42869449088E+03  0.49273914379E+03  0.45911506463E+02  0.20809952047E+04  0.19753132271E+04 0.  0.
        -24    2    3    3    0    0  0.73140904914E+03 -0.80095984368E+02  0.79798351719E+03  0.10883278399E+04  0.79405475443E+02 0.  0.
    9900016    2    1    2    0    0 -0.39838412196E+03 -0.42830576537E+03  0.12339288838E+04  0.22588444311E+04  0.17993448631E+04 0.  0.
         24    2    5    5    0    0 -0.42232172728E+03  0.28473124065E+03 -0.28014722145E+03  0.58509975722E+03  0.66571311204E+02 0.  0.
        -15    1    6    6    0    0 -0.24344597864E+03  0.19712842529E+03 -0.15124103940E+03  0.34784969825E+03  0.00000000000E+00 0.  1.
        -15    1    3    3    0    0 -0.30271455826E+03  0.57283512816E+03 -0.75207201073E+03  0.99266736481E+03  0.00000000000E+00 0.  1.
         15    1    4    4    0    0  0.21613278076E+03 -0.59309154169E+02  0.25447103030E+03  0.33909653486E+03  0.00000000000E+00 0. -1.
         15    1    5    5    0    0  0.23937605318E+02 -0.71303700602E+03  0.15140761052E+04  0.16737446739E+04  0.00000000000E+00 0. -1.
        -16    1    4    4    0    0  0.51527626838E+03 -0.20786830199E+02  0.54351248689E+03  0.74923130505E+03  0.00000000000E+00 0.  1.
         16    1    6    6    0    0 -0.17887574864E+03  0.87602815365E+02 -0.12890618205E+03  0.23725005897E+03  0.00000000000E+00 0. -1.
    9900018    1    1    2    0    0 -0.30310368922E+02 -0.64433378419E+02  0.10860422467E+03  0.15868344188E+03  0.91187600000E+02 0.  0.
<mgrwt>
<rscale>  0 0.42788937E+04</rscale>
<asrwt>0</asrwt>
<pdfrwt beam="1">  1        2 0.45284367E+00 0.42788937E+04</pdfrwt>
<pdfrwt beam="2">  1       -2 0.23923680E+00 0.42788937E+04</pdfrwt>
<totfact> 0.10903316E-01</totfact>
</mgrwt>
</event>
<event>
13    1  0.1067401E-013  0.4492580E+04  0.7818608E-02  0.7911937E-01
         -2   -1    0    0    0  501 -0.00000000000E+00  0.00000000000E+00  0.15881577617E+04  0.15881577617E+04  0.00000000000E+00 0.  1.
          2   -1    0    0  501    0  0.00000000000E+00 -0.00000000000E+00 -0.31771514527E+04  0.31771514527E+04  0.00000000000E+00 0. -1.
    9900016    2    1    2    0    0 -0.21046874676E+02 -0.67275601714E+03  0.22454624091E+03  0.20559251380E+04  0.19296019095E+04 0.  0.
        -24    2    3    3    0    0 -0.54075953197E+03  0.50005856470E+03 -0.55338650689E+02  0.74293966886E+03  0.80109585931E+02 0.  0.
    9900016    2    1    2    0    0  0.21046874676E+02  0.67275601714E+03 -0.18135399320E+04  0.27093840765E+04  0.18970480646E+04 0.  0.
         24    2    5    5    0    0  0.58320800739E+03  0.72087880381E+03 -0.22948053098E+03  0.96043956615E+03  0.99925054213E+02 0.  0.
        -15    1    6    6    0    0  0.21040508967E+03  0.33341384859E+03 -0.79010812516E+02  0.40209178639E+03  0.00000000000E+00 0.  1.
        -15    1    3    3    0    0  0.51971265729E+03 -0.11728145818E+04  0.27988489160E+03  0.13129854691E+04  0.00000000000E+00 0.  1.
         15    1    5    5    0    0 -0.52414158948E+03 -0.11888890605E+03 -0.15186179423E+04  0.16109188162E+04  0.00000000000E+00 0. -1.
         15    1    4    4    0    0 -0.41839185274E+03  0.42756186046E+03 -0.54664926787E+02  0.60070720087E+03  0.00000000000E+00 0. -1.
        -16    1    4    4    0    0 -0.12236767923E+03  0.72496704244E+02 -0.67372390193E+00  0.14223246799E+03  0.00000000000E+00 0.  1.
         16    1    6    6    0    0  0.37280291772E+03  0.38746495522E+03 -0.15046971847E+03  0.55834777976E+03  0.00000000000E+00 0. -1.
    9900018    1    5    5    0    0 -0.38019543239E+02  0.70766119381E+02 -0.65441458648E+02  0.13802569407E+03  0.91187600000E+02 0.  0.
<mgrwt>
<rscale>  0 0.44925795E+04</rscale>
<asrwt>0</asrwt>
<pdfrwt beam="1">  1        2 0.48879252E+00 0.44925795E+04</pdfrwt>
<pdfrwt beam="2">  1       -2 0.24433197E+00 0.44925795E+04</pdfrwt>
<totfact> 0.70794035E-02</totfact>
</mgrwt>
</event>
<event>
13    1  0.1067401E-013  0.5359305E+04  0.7818608E-02  0.7775351E-01
         -2   -1    0    0    0  501 -0.00000000000E+00  0.00000000000E+00  0.16426038462E+04  0.16426038462E+04  0.00000000000E+00 0.  1.
          2   -1    0    0  501    0  0.00000000000E+00 -0.00000000000E+00 -0.43714360180E+04  0.43714360180E+04  0.00000000000E+00 0. -1.
    9900016    2    1    2    0    0 -0.11832288123E+04 -0.57810211421E+03  0.13236959411E+03  0.23329418334E+04  0.19211619952E+04 0.  0.
        -24    2    3    3    0    0 -0.57438570139E+01 -0.54004938944E+03 -0.70224457414E+03  0.88916219657E+03  0.75997598509E+02 0.  0.
    9900016    2    1    2    0    0  0.11171470756E+04  0.58964525845E+03 -0.26466906648E+04  0.34385485904E+04  0.17952564759E+04 0.  0.
         24    2    5    5    0    0  0.19290875443E+03  0.43437904380E+01  0.26137569170E+03  0.33151717498E+03  0.65982793572E+02 0.  0.
        -15    1    6    6    0    0  0.41702655727E+02 -0.15954581707E+02  0.99603390114E+02  0.10915354092E+03  0.00000000000E+00 0.  1.
        -15    1    3    3    0    0 -0.11774849553E+04 -0.38052724773E+02  0.83461416825E+03  0.14437796368E+04  0.00000000000E+00 0.  1.
         15    1    5    5    0    0  0.92423832114E+03  0.58530146801E+03 -0.29080663565E+04  0.31070314155E+04  0.00000000000E+00 0. -1.
         15    1    4    4    0    0 -0.36802866970E+02 -0.30819502003E+03 -0.37242283896E+03  0.48480655149E+03  0.00000000000E+00 0. -1.
        -16    1    4    4    0    0  0.31059009956E+02 -0.23185436940E+03 -0.32982173518E+03  0.40435564508E+03  0.00000000000E+00 0.  1.
         16    1    6    6    0    0  0.15120609870E+03  0.20298372145E+02  0.16177230159E+03  0.22236363407E+03  0.00000000000E+00 0. -1.
    9900018    1    1    2    0    0  0.66081736765E+02 -0.11543144237E+02 -0.21451110107E+03  0.24254944029E+03  0.91187600000E+02 0.  0.
<mgrwt>
<rscale>  0 0.53593050E+04</rscale>
<asrwt>0</asrwt>
<pdfrwt beam="1">  1        2 0.67252861E+00 0.53593050E+04</pdfrwt>
<pdfrwt beam="2">  1       -2 0.25270829E+00 0.53593050E+04</pdfrwt>
<totfact> 0.70790077E-03</totfact>
</mgrwt>
</event>
<event>
13    1  0.1067401E-013  0.4117755E+04  0.7818608E-02  0.7981204E-01
         -2   -1    0    0    0  501 -0.00000000000E+00  0.00000000000E+00  0.38733243567E+04  0.38733243567E+04  0.00000000000E+00 0.  1.
          2   -1    0    0  501    0  0.00000000000E+00 -0.00000000000E+00 -0.10944025600E+04  0.10944025600E+04  0.00000000000E+00 0. -1.
    9900016    2    1    2    0    0 -0.14688017697E+03 -0.17283626579E+03  0.22840036536E+04  0.29926525463E+04  0.19203776742E+04 0.  0.
        -24    2    3    3    0    0  0.45971035487E+03  0.59945603247E+03  0.37775172208E+03  0.84831491104E+03  0.79124455911E+02 0.  0.
    9900016    2    1    2    0    0  0.10249848825E+03  0.20407912535E+03  0.46872868486E+03  0.18657724186E+04  0.17914368279E+04 0.  0.
         24    2    5    5    0    0  0.14667889236E+03 -0.12571255072E+02  0.11442426130E+04  0.11549923101E+04  0.55166520064E+02 0.  0.
        -15    1    3    3    0    0 -0.60659053184E+03 -0.77229229826E+03  0.19062519315E+04  0.21443376352E+04  0.00000000000E+00 0.  1.
        -15    1    6    6    0    0  0.64412642945E+02 -0.26775812695E+02  0.39490205139E+03  0.40101566417E+03  0.00000000000E+00 0.  1.
         15    1    5    5    0    0 -0.44180404109E+02  0.21665038042E+03 -0.67551392819E+03  0.71078010848E+03  0.00000000000E+00 0. -1.
         15    1    4    4    0    0  0.14442003867E+03  0.17023642441E+03  0.15076868547E+03  0.26938593928E+03  0.00000000000E+00 0. -1.
        -16    1    4    4    0    0  0.31529031620E+03  0.42921960806E+03  0.22698303661E+03  0.57892897176E+03  0.00000000000E+00 0.  1.
         16    1    6    6    0    0  0.82266249418E+02  0.14204557624E+02  0.74934056165E+03  0.75397664591E+03  0.00000000000E+00 0. -1.
    9900018    1    1    2    0    0  0.44381688713E+02 -0.31242859557E+02  0.26189458150E+02  0.10930195185E+03  0.91187600000E+02 0.  0.
<mgrwt>
<rscale>  0 0.41177548E+04</rscale>
<asrwt>0</asrwt>
<pdfrwt beam="1">  1        2 0.16836963E+00 0.41177548E+04</pdfrwt>
<pdfrwt beam="2">  1       -2 0.59589605E+00 0.41177548E+04</pdfrwt>
<totfact> 0.90484360E-03</totfact>
</mgrwt>
</event>
