<event>
11    1  0.4637970E-014  0.1899380E+04  0.7818608E-02  0.8753678E-01
          2   -1    0    0  501    0  0.00000000000E+00  0.00000000000E+00  0.28650561399E+04  0.28650561399E+04  0.00000000000E+00 0. -1.
         -2   -1    0    0    0  501 -0.00000000000E+00 -0.00000000000E+00 -0.95544422623E+03  0.95544422623E+03  0.00000000000E+00 0.  1.
    9900016    2    1    2    0    0 -0.55208018753E+02  0.18788712554E+03  0.53396076940E+03  0.92900628031E+03  0.73456726602E+03 0.  0.
         23    2    3    3    0    0  0.22881480933E+03 -0.14593650748E+03  0.92826097169E+02  0.30714859251E+03  0.10986306196E+03 0.  0.
        -15    1    4    4    0    0  0.77305661607E+02 -0.35849205514E-01  0.51222518315E+02  0.92735715796E+02  0.00000000000E+00 0.  1.
        -15    1    1    2    0    0  0.29720932273E+03  0.20038140476E+03 -0.62585659269E+02  0.36387230403E+03  0.00000000000E+00 0.  1.
         15    1    4    4    0    0  0.15150914772E+03 -0.14590065827E+03  0.41603578854E+02  0.21441287671E+03  0.00000000000E+00 0. -1.
         15    1    1    2    0    0  0.68514491454E+03  0.17413102776E+03  0.11126136598E+04  0.13182011701E+04  0.00000000000E+00 0. -1.
        -16    1    3    3    0    0 -0.28402282808E+03  0.33382363302E+03  0.44113467223E+03  0.62185768780E+03  0.00000000000E+00 0.  1.
         16    1    1    2    0    0 -0.81214902118E+03 -0.30889334172E+03  0.28036545268E+03  0.91302021677E+03  0.00000000000E+00 0. -1.
    9900018    1    1    2    0    0 -0.11499719733E+03 -0.25350621635E+03  0.45257690989E+02  0.29640039492E+03  0.91187600000E+02 0.  0.
<mgrwt>
<rscale>  0 0.17135430E+04</rscale>
<asrwt>0</asrwt>
<pdfrwt beam="1">  1        2 0.44077786E+00 0.18993801E+04</pdfrwt>
<pdfrwt beam="2">  1       -2 0.14699142E+00 0.18993801E+04</pdfrwt>
<totfact> 0.60810606E-01</totfact>
</mgrwt>
</event>
<event>
10    1  0.4637970E-014  0.2266016E+04  0.7818608E-02  0.8547166E-01
         -2   -1    0    0    0  501 -0.00000000000E+00  0.00000000000E+00  0.24477152784E+04  0.24477152784E+04  0.00000000000E+00 0.  1.
          2   -1    0    0  501    0  0.00000000000E+00 -0.00000000000E+00 -0.18236435884E+04  0.18236435884E+04  0.00000000000E+00 0. -1.
    9900016    2    1    2    0    0  0.16119371981E+03 -0.96794919764E+03 -0.48465707248E+03  0.12780040802E+04  0.65991884854E+03 0.  0.
        -15    1    1    2    0    0  0.91977881547E+02  0.25495843940E+03  0.84971136696E+03  0.89189301133E+03  0.00000000000E+00 0.  1.
        -15    1    3    3    0    0  0.81222675792E+02 -0.10196920945E+03 -0.90634864575E+02  0.15877506547E+03  0.00000000000E+00 0.  1.
         15    1    1    2    0    0 -0.79425630132E+03  0.75578510977E+03  0.45246368193E+02  0.10973155600E+04  0.00000000000E+00 0. -1.
         15    1    3    3    0    0 -0.60719853824E+02 -0.94901506949E+02 -0.31130842260E+03  0.33106816617E+03  0.00000000000E+00 0. -1.
        -16    1    1    2    0    0  0.28049944526E+03  0.37611407115E+03  0.17566862830E+03  0.50100019988E+03  0.00000000000E+00 0.  1.
         16    1    3    3    0    0  0.14069089784E+03 -0.77107848123E+03 -0.82713785303E+02  0.78816084858E+03  0.00000000000E+00 0. -1.
    9900018    1    1    2    0    0  0.26058525470E+03 -0.41890842269E+03  0.38102399026E+02  0.50314601536E+03  0.91187600000E+02 0.  0.
<mgrwt>
<rscale>  0 0.21322565E+04</rscale>
<asrwt>0</asrwt>
<pdfrwt beam="1">  1        2 0.28056055E+00 0.22660165E+04</pdfrwt>
<pdfrwt beam="2">  1       -2 0.37657158E+00 0.22660165E+04</pdfrwt>
<totfact> 0.76626246E-02</totfact>
</mgrwt>
</event>
<event>
11    1  0.4637970E-014  0.3726109E+04  0.7818608E-02  0.8606278E-01
         -1   -1    0    0    0  501 -0.00000000000E+00  0.00000000000E+00  0.15657225782E+04  0.15657225782E+04  0.00000000000E+00 0.  1.
          1   -1    0    0  501    0  0.00000000000E+00 -0.00000000000E+00 -0.32736695466E+04  0.32736695466E+04  0.00000000000E+00 0. -1.
    9900016    2    1    2    0    0  0.11906784554E+03  0.86549419725E+03  0.92909977805E+03  0.14577732940E+04  0.70612974856E+03 0.  0.
         23    2    3    3    0    0  0.19794675526E+03  0.15868851667E+03  0.62457500612E+03  0.68412512510E+03  0.11648298284E+03 0.  0.
        -15    1    1    2    0    0 -0.18620322498E+03 -0.14332642225E+03 -0.83399573570E+03  0.86646580514E+03  0.00000000000E+00 0.  1.
        -15    1    4    4    0    0  0.82977299793E+02  0.70252172125E+01  0.13211068687E+03  0.15616599996E+03  0.00000000000E+00 0.  1.
         15    1    4    4    0    0  0.11496945547E+03  0.15166329945E+03  0.49246431925E+03  0.52795912514E+03  0.00000000000E+00 0. -1.
         15    1    1    2    0    0 -0.29329611608E+02 -0.10290128464E+04 -0.17376715985E+04  0.20197104367E+04  0.00000000000E+00 0. -1.
        -16    1    3    3    0    0 -0.78878909726E+02  0.70680568059E+03  0.30452477193E+03  0.77364816889E+03  0.00000000000E+00 0.  1.
         16    1    1    2    0    0  0.66496723676E+02  0.23710169572E+02 -0.16568752620E+03  0.18010092376E+03  0.00000000000E+00 0. -1.
    9900018    1    1    2    0    0  0.29968267372E+02  0.28313490182E+03  0.10030811388E+03  0.31534166515E+03  0.91187600000E+02 0.  0.
<mgrwt>
<rscale>  0 0.20007324E+04</rscale>
<asrwt>0</asrwt>
<pdfrwt beam="1">  1        1 0.50364146E+00 0.37261088E+04</pdfrwt>
<pdfrwt beam="2">  1       -1 0.24088040E+00 0.37261088E+04</pdfrwt>
<totfact> 0.23330417E-02</totfact>
</mgrwt>
</event>
<event>
11    1  0.4637970E-014  0.1525116E+04  0.7818608E-02  0.9082978E-01
          2   -1    0    0  501    0  0.00000000000E+00  0.00000000000E+00  0.70196336492E+03  0.70196336492E+03  0.00000000000E+00 0.  1.
         -2   -1    0    0    0  501 -0.00000000000E+00 -0.00000000000E+00 -0.17670005452E+04  0.17670005452E+04  0.00000000000E+00 0. -1.
    9900016    2    1    2    0    0 -0.10602892556E+03  0.47050004506E+03 -0.64905790180E+03  0.10828974296E+04  0.72026263112E+03 0.  0.
         23    2    3    3    0    0 -0.61341869473E+02  0.11513844164E+03  0.13589601678E+03  0.22009301586E+03  0.11381354295E+03 0.  0.
        -15    1    1    2    0    0  0.10978129506E+03 -0.10367969784E+03  0.28699496457E+03  0.32429542424E+03  0.00000000000E+00 0.  1.
        -15    1    4    4    0    0  0.32721845255E+02  0.44703153650E+02  0.38469318497E+02  0.67446123453E+02  0.00000000000E+00 0.  1.
         15    1    1    2    0    0 -0.15716016624E+03 -0.23680530273E+03 -0.46782045246E+03  0.54738655902E+03  0.00000000000E+00 0. -1.
         15    1    4    4    0    0 -0.94063714728E+02  0.70435287991E+02  0.97426698279E+02  0.15264689240E+03  0.00000000000E+00 0. -1.
        -16    1    1    2    0    0  0.25469270479E+03 -0.16089257185E+03 -0.93564997713E+02  0.31545079228E+03  0.00000000000E+00 0.  1.
         16    1    3    3    0    0 -0.44687056084E+02  0.35536160342E+03 -0.78495391857E+03  0.86280441379E+03  0.00000000000E+00 0. -1.
    9900018    1    1    2    0    0 -0.10128490806E+03  0.30877527367E+02 -0.14158879286E+03  0.19893370492E+03  0.91187600000E+02 0.  0.
<mgrwt>
<rscale>  0 0.12347430E+04</rscale>
<asrwt>0</asrwt>
<pdfrwt beam="1">  1        2 0.10799437E+00 0.15251156E+04</pdfrwt>
<pdfrwt beam="2">  1       -2 0.27184623E+00 0.15251156E+04</pdfrwt>
<totfact> 0.18367345E+00</totfact>
</mgrwt>
</event>
<event>
11    1  0.4637970E-014  0.2632701E+04  0.7818608E-02  0.8565554E-01
          2   -1    0    0  501    0  0.00000000000E+00  0.00000000000E+00  0.28896094185E+04  0.28896094185E+04  0.00000000000E+00 0. -1.
         -2   -1    0    0    0  501 -0.00000000000E+00 -0.00000000000E+00 -0.13406153088E+04  0.13406153088E+04  0.00000000000E+00 0.  1.
    9900016    2    1    2    0    0  0.39781138776E+02 -0.11630482496E+03  0.31116092798E+03  0.78494915822E+03  0.71008077469E+03 0.  0.
         23    2    3    3    0    0 -0.11976279994E+03 -0.10086830846E+03 -0.19383807519E+03  0.25512225476E+03  0.54741406414E+02 0.  0.
        -15    1    4    4    0    0 -0.62877814733E+02 -0.50473699738E+02 -0.57495857925E+02  0.99030235935E+02  0.00000000000E+00 0. -1.
        -15    1    1    2    0    0 -0.32082142706E+02  0.37057128273E+03 -0.35325092286E+03  0.51297032464E+03  0.00000000000E+00 0.  1.
         15    1    1    2    0    0 -0.98694428327E+03 -0.14725822948E+03  0.15807714318E+04  0.18693801978E+04  0.00000000000E+00 0. -1.
         15    1    4    4    0    0 -0.56884985212E+02 -0.50394608724E+02 -0.13634221727E+03  0.15609201883E+03  0.00000000000E+00 0.  1.
        -16    1    3    3    0    0  0.15954393872E+03 -0.15436516496E+02  0.50499900317E+03  0.52982690346E+03  0.00000000000E+00 0.  1.
         16    1    1    2    0    0  0.52911285888E+03  0.66458610814E+02  0.14727842310E+03  0.55323421649E+03  0.00000000000E+00 0. -1.
    9900018    1    1    2    0    0  0.45013242832E+03 -0.17346683910E+03 -0.13696575028E+03  0.50969083024E+03  0.91187600000E+02 0.  0.
<mgrwt>
<rscale>  0 0.20902423E+04</rscale>
<asrwt>0</asrwt>
<pdfrwt beam="1">  1        2 0.44455529E+00 0.26327013E+04</pdfrwt>
<pdfrwt beam="2">  1       -2 0.20624851E+00 0.26327013E+04</pdfrwt>
<totfact> 0.20992619E-01</totfact>
</mgrwt>
</event>
