<event>
12    1  0.1714674E-016  0.4079035E+04  0.7818608E-02  0.8212163E-01
          2   -1    0    0  501    0  0.00000000000E+00  0.00000000000E+00  0.43068485892E+04  0.43068485892E+04  0.00000000000E+00 0. -1.
         -2   -1    0    0    0  501 -0.00000000000E+00 -0.00000000000E+00 -0.17455275708E+04  0.17455275708E+04  0.00000000000E+00 0.  1.
         24    2    1    2    0    0 -0.14158151190E+03  0.13737973145E+04  0.88318530391E+03  0.16416319466E+04  0.87033217853E+02 0.  0.
    9900016    2    1    2    0    0 -0.52114744712E+03 -0.12000182582E+04  0.23127523881E+04  0.34768560210E+04  0.22423348770E+04 0.  0.
         23    2    4    4    0    0 -0.10183208037E+04 -0.50378319246E+03  0.22582304619E+04  0.25296727403E+04  0.94151949400E+02 0.  0.
        -15    1    5    5    0    0 -0.97697610778E+03 -0.50153898331E+03  0.21625223555E+04  0.24253920518E+04  0.00000000000E+00 0. -1.
        -15    1    3    3    0    0 -0.79110732776E+02  0.79867712585E+03  0.56376220637E+03  0.98080145021E+03  0.00000000000E+00 0.  1.
         15    1    5    5    0    0 -0.41344695884E+02 -0.22442091533E+01  0.95708106415E+02  0.10428068846E+03  0.00000000000E+00 0.  1.
         15    1    1    2    0    0  0.66272895902E+03 -0.17377905628E+03 -0.63461667363E+03  0.93388819244E+03  0.00000000000E+00 0. -1.
        -16    1    4    4    0    0  0.51542882784E+03 -0.65575857974E+03  0.44891940649E+01  0.83409012962E+03  0.00000000000E+00 0.  1.
         16    1    3    3    0    0 -0.62470779128E+02  0.57512018867E+03  0.31942309754E+03  0.66083049635E+03  0.00000000000E+00 0. -1.
    9900018    1    4    4    0    0 -0.18255471291E+02 -0.40476486050E+02  0.50032732120E+02  0.11309315113E+03  0.91187600000E+02 0.  0.
<mgrwt>
<rscale>  0 0.31130596E+04</rscale>
<asrwt>0</asrwt>
<pdfrwt beam="1">  1        2 0.66259209E+00 0.40790348E+04</pdfrwt>
<pdfrwt beam="2">  1       -2 0.26854270E+00 0.40790348E+04</pdfrwt>
<totfact> 0.69021447E-03</totfact>
</mgrwt>
</event>
<event>
12    1  0.1714674E-016  0.5229594E+04  0.7818608E-02  0.8203115E-01
          1   -1    0    0  501    0  0.00000000000E+00  0.00000000000E+00  0.34659501666E+04  0.34659501666E+04  0.00000000000E+00 0. -1.
         -1   -1    0    0    0  501 -0.00000000000E+00 -0.00000000000E+00 -0.25659998845E+04  0.25659998845E+04  0.00000000000E+00 0.  1.
        -24    2    1    2    0    0 -0.67160897732E+03 -0.10954420333E+03  0.36133282691E+03  0.77469165835E+03  0.80791106036E+02 0.  0.
    9900016    2    1    2    0    0  0.76179269366E+03  0.74900392924E+03  0.20952974319E+04  0.31898042793E+04  0.21548190221E+04 0.  0.
         23    2    4    4    0    0  0.11807037182E+03  0.59519785719E+02 -0.44805808024E+03  0.47716274879E+03  0.97185533722E+02 0.  0.
        -15    1    5    5    0    0  0.22526418587E+02  0.63845608177E+02 -0.20856419611E+03  0.21927773511E+03  0.00000000000E+00 0. -1.
        -15    1    1    2    0    0 -0.14977083122E+03 -0.69809929887E+03 -0.17201544545E+04  0.18624460476E+04  0.00000000000E+00 0.  1.
         15    1    5    5    0    0  0.95543953237E+02 -0.43258224586E+01 -0.23949388413E+03  0.25788501367E+03  0.00000000000E+00 0.  1.
         15    1    3    3    0    0 -0.67070393261E+02  0.13225576034E+02  0.34169521750E+02  0.76425844649E+02  0.00000000000E+00 0. -1.
        -16    1    3    3    0    0 -0.60453858406E+03 -0.12276977936E+03  0.32716330516E+03  0.69826581370E+03  0.00000000000E+00 0.  1.
         16    1    4    4    0    0  0.64372232184E+03  0.68948414352E+03  0.25433555121E+04  0.27126415305E+04  0.00000000000E+00 0. -1.
    9900018    1    1    2    0    0  0.59587114883E+02  0.58639572958E+02  0.16347447778E+03  0.20500806583E+03  0.91187600000E+02 0.  0.
<mgrwt>
<rscale>  0 0.31464104E+04</rscale>
<asrwt>0</asrwt>
<pdfrwt beam="1">  1        1 0.53322310E+00 0.52295943E+04</pdfrwt>
<pdfrwt beam="2">  1       -1 0.39476921E+00 0.52295943E+04</pdfrwt>
<totfact> 0.14269721E-03</totfact>
</mgrwt>
</event>
<event>
12    1  0.1714674E-016  0.5068640E+04  0.7818608E-02  0.8501422E-01
          1   -1    0    0  501    0  0.00000000000E+00  0.00000000000E+00  0.24349324117E+04  0.24349324117E+04  0.00000000000E+00 0. -1.
         -1   -1    0    0    0  501 -0.00000000000E+00 -0.00000000000E+00 -0.30540455358E+04  0.30540455358E+04  0.00000000000E+00 0.  1.
         24    2    1    2    0    0 -0.56704154259E+02 -0.16689071434E+03 -0.36585699228E+03  0.41401491260E+03  0.80555182415E+02 0.  0.
    9900016    2    1    2    0    0  0.50138069994E+03  0.18830520330E+04  0.71021332166E+02  0.29021373877E+04  0.21494394204E+04 0.  0.
         23    2    4    4    0    0 -0.71183459221E+03  0.59769420002E+03  0.53260286889E+03  0.10753660230E+04  0.93805244864E+02 0.  0.
        -15    1    5    5    0    0 -0.69510620158E+03  0.59875796640E+03  0.52227177262E+03  0.10556758680E+04  0.00000000000E+00 0.  1.
        -15    1    3    3    0    0 -0.60529347456E+02 -0.68973345573E+02 -0.21918827294E+03  0.23762285937E+03  0.00000000000E+00 0.  1.
         15    1    1    2    0    0 -0.51492600449E+03 -0.18747039715E+04 -0.34944907521E+03  0.19752919852E+04  0.00000000000E+00 0. -1.
         15    1    5    5    0    0 -0.16728390629E+02 -0.10637663750E+01  0.10331096274E+02  0.19690154955E+02  0.00000000000E+00 0. -1.
        -16    1    4    4    0    0  0.12132152922E+04  0.12853578330E+04 -0.46158153673E+03  0.18267713647E+04  0.00000000000E+00 0.  1.
         16    1    3    3    0    0  0.38251931974E+01 -0.97917368763E+02 -0.14666871934E+03  0.17639205322E+03  0.00000000000E+00 0. -1.
    9900018    1    1    2    0    0  0.70249458806E+02  0.15854265284E+03  0.25171611158E+02  0.19753366203E+03  0.91187600000E+02 0.  0.
<mgrwt>
<rscale>  0 0.22413256E+04</rscale>
<asrwt>0</asrwt>
<pdfrwt beam="1">  1        1 0.37460499E+00 0.50686400E+04</pdfrwt>
<pdfrwt beam="2">  1       -1 0.46985316E+00 0.50686400E+04</pdfrwt>
<totfact> 0.25286631E-03</totfact>
</mgrwt>
</event>
