<event>
11    1  0.2552707E-015  0.1439914E+04  0.7818608E-02  0.8925423E-01
         -2   -1    0    0    0  501 -0.00000000000E+00  0.00000000000E+00  0.83219957723E+03  0.83219957723E+03  0.00000000000E+00 0.  1.
          2   -1    0    0  501    0  0.00000000000E+00 -0.00000000000E+00 -0.62285285487E+03  0.62285285487E+03  0.00000000000E+00 0. -1.
    9900016    2    1    2    0    0 -0.14431762042E+03 -0.50115167197E+03  0.14901000685E+03  0.93005615294E+03  0.75552623489E+03 0.  0.
         23    2    3    3    0    0  0.22182474506E+02 -0.29995637448E+03 -0.76861566159E+02  0.32361861348E+03  0.91407974863E+02 0.  0.
        -15    1    4    4    0    0  0.46852399149E+02 -0.13526537890E+03 -0.63355811719E+02  0.15654337710E+03  0.00000000000E+00 0.  1.
        -15    1    3    3    0    0  0.33042314835E+02 -0.10360609195E+03  0.26144018129E+03  0.28315540831E+03  0.00000000000E+00 0.  1.
         15    1    3    3    0    0 -0.62703254237E+02  0.20965426572E+02  0.28483213876E+02  0.71989865092E+02  0.00000000000E+00 0. -1.
         15    1    4    4    0    0 -0.24669924643E+02 -0.16469099558E+03 -0.13505754440E+02  0.16707523638E+03  0.00000000000E+00 0. -1.
        -16    1    3    3    0    0 -0.10967797194E+03 -0.37334353268E+02 -0.47035254243E+02  0.12504169947E+03  0.00000000000E+00 0.  1.
         16    1    1    2    0    0  0.14431762042E+03  0.50115167197E+03  0.60336715515E+02  0.52499627915E+03  0.00000000000E+00 0. -1.
    9900018    1    3    3    0    0 -0.27161183583E+02 -0.81220278843E+02 -0.17016567921E+02  0.12625056660E+03  0.91187600000E+02 0.  0.
<mgrwt>
<rscale>  0 0.14399137E+04</rscale>
<asrwt>0</asrwt>
<pdfrwt beam="1">  1        2 0.95823516E-01 0.14399137E+04</pdfrwt>
<pdfrwt beam="2">  1       -2 0.12803070E+00 0.14399137E+04</pdfrwt>
<totfact> 0.20752963E+01</totfact>
</mgrwt>
</event>
<event>
11    1  0.2552707E-015  0.9628276E+03  0.7818608E-02  0.9350282E-01
          1   -1    0    0  501    0  0.00000000000E+00  0.00000000000E+00  0.13445219283E+03  0.13445219283E+03  0.00000000000E+00 0. -1.
         -1   -1    0    0    0  501 -0.00000000000E+00 -0.00000000000E+00 -0.17237296320E+04  0.17237296320E+04  0.00000000000E+00 0.  1.
    9900016    2    1    2    0    0 -0.96840632171E+02  0.13747501339E+02 -0.97094544184E+03  0.11809772955E+04  0.66513548972E+03 0.  0.
         23    2    3    3    0    0  0.24534393755E+02 -0.15427988474E+03 -0.11952592152E+03  0.21754944600E+03  0.92935979182E+02 0.  0.
        -15    1    3    3    0    0 -0.82051954013E+02  0.45883221875E+02 -0.26648112450E+03  0.28257739280E+03  0.00000000000E+00 0.  1.
        -15    1    4    4    0    0  0.53539167034E+02 -0.60304140745E+02 -0.72895332635E+02  0.10870492775E+03  0.00000000000E+00 0.  1.
         15    1    3    3    0    0  0.67356545731E+02  0.20303209537E+03 -0.37959379868E+03  0.43571824382E+03  0.00000000000E+00 0. -1.
         15    1    4    4    0    0 -0.29004773280E+02 -0.93975743996E+02 -0.46630588889E+02  0.10884451825E+03  0.00000000000E+00 0. -1.
        -16    1    1    2    0    0  0.15182706966E+03 -0.46768639749E+02 -0.42921238737E+03  0.45767022868E+03  0.00000000000E+00 0.  1.
         16    1    3    3    0    0 -0.10667961764E+03 -0.80887931165E+02 -0.20534459715E+03  0.24513221291E+03  0.00000000000E+00 0. -1.
    9900018    1    1    2    0    0 -0.54986437489E+02  0.33021138410E+02 -0.18911960996E+03  0.21953430064E+03  0.91187600000E+02 0.  0.
<mgrwt>
<rscale>  0 0.96282756E+03</rscale>
<asrwt>0</asrwt>
<pdfrwt beam="1">  1        1 0.20684953E-01 0.96282756E+03</pdfrwt>
<pdfrwt beam="2">  1       -1 0.26518917E+00 0.96282756E+03</pdfrwt>
<totfact> 0.14126093E+01</totfact>
</mgrwt>
</event>
<event>
11    1  0.2552707E-015  0.1021098E+04  0.7818608E-02  0.9285703E-01
          1   -1    0    0  501    0  0.00000000000E+00  0.00000000000E+00  0.24304944505E+03  0.24304944505E+03  0.00000000000E+00 0. -1.
         -1   -1    0    0    0  501 -0.00000000000E+00 -0.00000000000E+00 -0.10724569100E+04  0.10724569100E+04  0.00000000000E+00 0.  1.
    9900016    2    1    2    0    0 -0.85233233283E+02 -0.12175800911E+03 -0.54719462276E+03  0.86569101007E+03  0.65414773018E+03 0.  0.
         23    2    3    3    0    0 -0.10064769510E+03  0.96427240106E+01 -0.31766543794E+03  0.34584076647E+03  0.92041102937E+02 0.  0.
        -15    1    3    3    0    0 -0.76094141261E+02 -0.80774555650E+02 -0.86442650258E+02  0.14066690783E+03  0.00000000000E+00 0.  1.
        -15    1    4    4    0    0 -0.10935463572E+03 -0.14727719820E+02 -0.24488996218E+03  0.26860088545E+03  0.00000000000E+00 0.  1.
         15    1    3    3    0    0 -0.78094080579E+02  0.43245625239E+02 -0.16143137290E+03  0.18446939497E+03  0.00000000000E+00 0. -1.
         15    1    4    4    0    0  0.87069406211E+01  0.24370443831E+02 -0.72775475763E+02  0.77239881021E+02  0.00000000000E+00 0. -1.
        -16    1    1    2    0    0  0.16547162830E+03  0.14380180368E+03 -0.22366826607E+03  0.31318893940E+03  0.00000000000E+00 0.  1.
         16    1    3    3    0    0  0.16960268366E+03 -0.93871802714E+02  0.18344838344E+02  0.19471394080E+03  0.00000000000E+00 0. -1.
    9900018    1    1    2    0    0 -0.80238395020E+02 -0.22043794564E+02 -0.58544576093E+02  0.13662640557E+03  0.91187600000E+02 0.  0.
<mgrwt>
<rscale>  0 0.10210976E+04</rscale>
<asrwt>0</asrwt>
<pdfrwt beam="1">  1        1 0.37392222E-01 0.10210976E+04</pdfrwt>
<pdfrwt beam="2">  1       -1 0.16499337E+00 0.10210976E+04</pdfrwt>
<totfact> 0.30977729E+01</totfact>
</mgrwt>
</event>
<event>
11    1  0.2552707E-015  0.9915035E+03  0.7818608E-02  0.9317913E-01
          1   -1    0    0  501    0  0.00000000000E+00  0.00000000000E+00  0.33703925599E+04  0.33703925599E+04  0.00000000000E+00 0. -1.
         -1   -1    0    0    0  501 -0.00000000000E+00 -0.00000000000E+00 -0.72920226480E+02  0.72920226480E+02  0.00000000000E+00 0.  1.
    9900016    2    1    2    0    0 -0.13120497111E+03 -0.14265706268E+03  0.22850792656E+04  0.24125337093E+04  0.74911004962E+03 0.  0.
         23    2    3    3    0    0  0.13289121421E+02 -0.51179783876E+02  0.74021210167E+02  0.12845152321E+03  0.90690039336E+02 0.  0.
        -15    1    4    4    0    0  0.49569305585E+02 -0.40278366739E+02  0.30583459633E+02  0.70815329459E+02  0.00000000000E+00 0.  1.
        -15    1    3    3    0    0 -0.10400593884E+03 -0.11457109954E+03  0.30609072261E+03  0.34298003241E+03  0.00000000000E+00 0.  1.
         15    1    3    3    0    0 -0.97931248575E+01  0.21033604851E+02  0.10230422909E+02  0.25357038084E+02  0.00000000000E+00 0. -1.
         15    1    4    4    0    0 -0.36280184164E+02 -0.10901417138E+02  0.43437750535E+02  0.57636193751E+02  0.00000000000E+00 0. -1.
        -16    1    3    3    0    0 -0.13532304201E+02  0.58598245783E+02  0.16077968554E+04  0.16089212553E+04  0.00000000000E+00 0.  1.
         16    1    1    2    0    0  0.13120497111E+03  0.14265706268E+03  0.10123930679E+04  0.10307790772E+04  0.00000000000E+00 0. -1.
    9900018    1    3    3    0    0 -0.17162724640E+02 -0.56538029899E+02  0.28694005450E+03  0.30682386024E+03  0.91187600000E+02 0.  0.
<mgrwt>
<rscale>  0 0.99150348E+03</rscale>
<asrwt>0</asrwt>
<pdfrwt beam="1">  1        1 0.51852181E+00 0.99150348E+03</pdfrwt>
<pdfrwt beam="2">  1       -1 0.11218499E-01 0.99150348E+03</pdfrwt>
<totfact> 0.17177033E+01</totfact>
</mgrwt>
</event>
<event>
11    1  0.2552707E-015  0.1133415E+04  0.7818608E-02  0.9173222E-01
          1   -1    0    0  501    0  0.00000000000E+00  0.00000000000E+00  0.41015363164E+04  0.41015363164E+04  0.00000000000E+00 0. -1.
         -1   -1    0    0    0  501 -0.00000000000E+00 -0.00000000000E+00 -0.78301717115E+02  0.78301717115E+02  0.00000000000E+00 0.  1.
    9900016    2    1    2    0    0 -0.21382769511E+03 -0.20962644476E+03  0.32102214419E+04  0.33134340148E+04  0.76397495702E+03 0.  0.
         23    2    3    3    0    0 -0.14121159333E+03 -0.14349148486E+03  0.31124898037E+03  0.38180060223E+03  0.91461750263E+02 0.  0.
        -15    1    3    3    0    0 -0.10579198175E+02 -0.78465523482E+02  0.23636542241E+03  0.24927368637E+03  0.00000000000E+00 0. -1.
        -15    1    4    4    0    0 -0.19808319236E+02  0.12212719894E+02  0.40462922842E+02  0.46677276732E+02  0.00000000000E+00 0. -1.
         15    1    3    3    0    0  0.19900871918E+02  0.17109925814E+02  0.55827242222E+02  0.61688534093E+02  0.00000000000E+00 0.  1.
         15    1    4    4    0    0 -0.12140327409E+03 -0.15570420476E+03  0.27078605753E+03  0.33512332550E+03  0.00000000000E+00 0.  1.
        -16    1    1    2    0    0  0.21382769511E+03  0.20962644476E+03  0.81301315734E+03  0.86640401866E+03  0.00000000000E+00 0.  1.
         16    1    3    3    0    0 -0.33654260891E+02  0.73333548426E+02  0.19266265783E+04  0.19283154283E+04  0.00000000000E+00 0. -1.
    9900018    1    3    3    0    0 -0.48283514629E+02 -0.78112910658E+02  0.68015321857E+03  0.69235576384E+03  0.91187600000E+02 0.  0.
<mgrwt>
<rscale>  0 0.11334149E+04</rscale>
<asrwt>0</asrwt>
<pdfrwt beam="1">  1        1 0.63100542E+00 0.11334149E+04</pdfrwt>
<pdfrwt beam="2">  1       -1 0.12046421E-01 0.11334149E+04</pdfrwt>
<totfact> 0.37886101E+00</totfact>
</mgrwt>
</event>
<event>
11    1  0.2552707E-015  0.9330023E+03  0.7818608E-02  0.9385242E-01
         -1   -1    0    0    0  501 -0.00000000000E+00  0.00000000000E+00  0.65479043417E+03  0.65479043417E+03  0.00000000000E+00 0.  1.
          1   -1    0    0  501    0  0.00000000000E+00 -0.00000000000E+00 -0.33235565784E+03  0.33235565784E+03  0.00000000000E+00 0. -1.
    9900016    2    1    2    0    0  0.26430655873E+02 -0.16143314356E+03  0.26434356262E+03  0.81355511149E+03  0.75182122936E+03 0.  0.
         23    2    3    3    0    0  0.10210250872E+03 -0.84629820009E+02  0.62375414117E+02  0.17312843781E+03  0.92171768832E+02 0.  0.
        -15    1    4    4    0    0  0.67299735623E+02 -0.95603969409E+02  0.22474254531E+02  0.11905656428E+03  0.00000000000E+00 0.  1.
        -15    1    3    3    0    0  0.37398475584E+02 -0.16461346774E+03  0.23542027015E+03  0.28968766514E+03  0.00000000000E+00 0.  1.
         15    1    4    4    0    0  0.34802773095E+02  0.10974149400E+02  0.39901159586E+02  0.54071873525E+02  0.00000000000E+00 0. -1.
         15    1    3    3    0    0  0.40404346882E+02  0.54409517951E+02  0.17775376526E+02  0.70063334928E+02  0.00000000000E+00 0. -1.
        -16    1    1    2    0    0 -0.26430655873E+02  0.16143314356E+03  0.58091213710E+02  0.17359098052E+03  0.00000000000E+00 0.  1.
         16    1    3    3    0    0 -0.12370329808E+03  0.36436673164E+02 -0.10883079630E+03  0.16874323492E+03  0.00000000000E+00 0. -1.
    9900018    1    3    3    0    0 -0.29771377232E+02 -0.30360469265E+01  0.57603298128E+02  0.11193243869E+03  0.91187600000E+02 0.  0.
<mgrwt>
<rscale>  0 0.93300226E+03</rscale>
<asrwt>0</asrwt>
<pdfrwt beam="1">  1        1 0.51131640E-01 0.93300226E+03</pdfrwt>
<pdfrwt beam="2">  1       -1 0.10073699E+00 0.93300226E+03</pdfrwt>
<totfact> 0.72341105E+01</totfact>
</mgrwt>
</event>
<event>
11    1  0.2552707E-015  0.1024964E+04  0.7818608E-02  0.9281581E-01
          2   -1    0    0  501    0  0.00000000000E+00  0.00000000000E+00  0.53036225466E+03  0.53036225466E+03  0.00000000000E+00 0. -1.
         -2   -1    0    0    0  501 -0.00000000000E+00 -0.00000000000E+00 -0.49520440394E+03  0.49520440394E+03  0.00000000000E+00 0.  1.
    9900016    2    1    2    0    0 -0.18936032625E+02  0.16144994811E+03  0.21231992192E+02  0.68129402850E+03  0.66127611230E+03 0.  0.
         23    2    3    3    0    0 -0.35208196177E+02  0.12285954684E+03  0.15322205133E+01  0.15795042682E+03  0.92800346472E+02 0.  0.
        -15    1    3    3    0    0 -0.14225532948E+03 -0.16017197200E+03 -0.11988091510E+02  0.21455850885E+03  0.00000000000E+00 0.  1.
        -15    1    4    4    0    0 -0.34119775467E+02  0.17618628481E+02  0.30218581583E+02  0.48864484244E+02  0.00000000000E+00 0. -1.
         15    1    4    4    0    0 -0.10884207097E+01  0.10524091835E+03 -0.28686361070E+02  0.10908594257E+03  0.00000000000E+00 0.  1.
         15    1    3    3    0    0  0.40962644004E+02 -0.29370781738E+02  0.21962428345E+01  0.50452002005E+02  0.00000000000E+00 0. -1.
        -16    1    1    2    0    0  0.30405162978E+01 -0.22708599857E+03 -0.13587752674E+02  0.22751246671E+03  0.00000000000E+00 0.  1.
         16    1    3    3    0    0  0.11756484903E+03  0.22813315502E+03  0.29491620354E+02  0.25833309083E+03  0.00000000000E+00 0. -1.
    9900018    1    1    2    0    0  0.15895516327E+02  0.65636050458E+02  0.27513611208E+02  0.11676016339E+03  0.91187600000E+02 0.  0.
<mgrwt>
<rscale>  0 0.10249639E+04</rscale>
<asrwt>0</asrwt>
<pdfrwt beam="1">  1        2 0.81594193E-01 0.10249639E+04</pdfrwt>
<pdfrwt beam="2">  1       -2 0.76185293E-01 0.10249639E+04</pdfrwt>
<totfact> 0.88431997E+01</totfact>
</mgrwt>
</event>
<event>
11    1  0.2552707E-015  0.1476281E+04  0.7818608E-02  0.8900381E-01
          1   -1    0    0  501    0  0.00000000000E+00  0.00000000000E+00  0.37528732973E+04  0.37528732973E+04  0.00000000000E+00 0. -1.
         -1   -1    0    0    0  501 -0.00000000000E+00 -0.00000000000E+00 -0.14518237556E+03  0.14518237556E+03  0.00000000000E+00 0.  1.
    9900016    2    1    2    0    0 -0.50980727933E+03 -0.15176332744E+03  0.26227033597E+04  0.27786200709E+04  0.74781081544E+03 0.  0.
         23    2    3    3    0    0  0.69227529236E+02  0.42213321479E+02  0.28499890491E+03  0.30668537558E+03  0.79102013106E+02 0.  0.
        -15    1    4    4    0    0  0.62257747388E+02  0.26659655366E+02  0.28117679823E+03  0.28921818095E+03  0.00000000000E+00 0. -1.
        -15    1    3    3    0    0 -0.28781701168E+03 -0.11774623883E+03  0.83131779243E+03  0.88757652120E+03  0.00000000000E+00 0.  1.
         15    1    4    4    0    0  0.69697818482E+01  0.15553666113E+02  0.38221066897E+01  0.17467194626E+02  0.00000000000E+00 0.  1.
         15    1    3    3    0    0 -0.11781717973E+03 -0.15518117591E+03  0.38368905560E+03  0.43032473387E+03  0.00000000000E+00 0. -1.
        -16    1    1    2    0    0  0.50980727933E+03  0.15176332744E+03  0.98498756203E+03  0.11194356020E+04  0.00000000000E+00 0.  1.
         16    1    3    3    0    0 -0.12907592162E+03  0.98651134645E+02  0.74173547439E+03  0.75931821648E+03  0.00000000000E+00 0. -1.
    9900018    1    3    3    0    0 -0.44324695531E+02 -0.19700368829E+02  0.38096213236E+03  0.39471522374E+03  0.91187600000E+02 0.  0.
<mgrwt>
<rscale>  0 0.14762805E+04</rscale>
<asrwt>0</asrwt>
<pdfrwt beam="1">  1        1 0.57736505E+00 0.14762805E+04</pdfrwt>
<pdfrwt beam="2">  1       -1 0.22335753E-01 0.14762805E+04</pdfrwt>
<totfact> 0.26092728E+00</totfact>
</mgrwt>
</event>
<event>
11    1  0.2552707E-015  0.1026629E+04  0.7818608E-02  0.9279812E-01
          1   -1    0    0  501    0  0.00000000000E+00  0.00000000000E+00  0.33179062606E+03  0.33179062606E+03  0.00000000000E+00 0.  1.
         -1   -1    0    0    0  501 -0.00000000000E+00 -0.00000000000E+00 -0.79415009256E+03  0.79415009256E+03  0.00000000000E+00 0. -1.
    9900016    2    1    2    0    0 -0.13870471054E+03  0.18393490979E+02 -0.14537302408E+03  0.77944725271E+03  0.75287939698E+03 0.  0.
         23    2    3    3    0    0  0.11936015722E+03  0.89214732294E+02 -0.22242719232E+03  0.28255652454E+03  0.90322854727E+02 0.  0.
        -15    1    3    3    0    0  0.19488103650E+02  0.43543351665E+02  0.46234125944E+02  0.66433455878E+02  0.00000000000E+00 0.  1.
        -15    1    4    4    0    0  0.38624947815E+02  0.74618466151E+02 -0.15520990081E+03  0.17649338626E+03  0.00000000000E+00 0.  1.
         15    1    3    3    0    0 -0.14126766576E+03  0.25513219416E+02 -0.43562725701E+02  0.15001729508E+03  0.00000000000E+00 0. -1.
         15    1    4    4    0    0  0.80735209408E+02  0.14596266142E+02 -0.67217291510E+02  0.10606313828E+03  0.00000000000E+00 0. -1.
        -16    1    3    3    0    0 -0.12218332831E+03 -0.10712362306E+03  0.82414004855E+02  0.18219853054E+03  0.00000000000E+00 0.  1.
         16    1    1    2    0    0  0.13870471054E+03 -0.18393490979E+02 -0.31698644242E+03  0.34649346591E+03  0.00000000000E+00 0. -1.
    9900018    1    3    3    0    0 -0.14101977346E+02 -0.32754189340E+02 -0.80312368584E+01  0.98241446669E+02  0.91187600000E+02 0.  0.
<mgrwt>
<rscale>  0 0.10266286E+04</rscale>
<asrwt>0</asrwt>
<pdfrwt beam="1">  1        1 0.51044713E-01 0.10266286E+04</pdfrwt>
<pdfrwt beam="2">  1       -1 0.12217693E+00 0.10266286E+04</pdfrwt>
<totfact> 0.45572491E+01</totfact>
</mgrwt>
</event>
<event>
11    1  0.2552707E-015  0.1019029E+04  0.7818608E-02  0.9287917E-01
         -2   -1    0    0    0  501 -0.00000000000E+00  0.00000000000E+00  0.17656509958E+03  0.17656509958E+03  0.00000000000E+00 0. -1.
          2   -1    0    0  501    0  0.00000000000E+00 -0.00000000000E+00 -0.14703078560E+04  0.14703078560E+04  0.00000000000E+00 0.  1.
    9900016    2    1    2    0    0  0.10242067899E+03 -0.18158343255E+02 -0.72610114797E+03  0.98404719724E+03  0.65597735357E+03 0.  0.
         23    2    3    3    0    0  0.92940172555E+02 -0.81783611765E+02 -0.57208202249E+03  0.59120568770E+03  0.83185875533E+02 0.  0.
        -15    1    4    4    0    0  0.51957943903E+01  0.15682825854E+02 -0.95049832065E+02  0.96474959869E+02  0.00000000000E+00 0. -1.
        -15    1    3    3    0    0  0.59578370454E+02 -0.54757776310E+02 -0.14636877487E+03  0.16724776396E+03  0.00000000000E+00 0. -1.
         15    1    4    4    0    0  0.87744378165E+02 -0.97466437619E+02 -0.47703219042E+03  0.49473072783E+03  0.00000000000E+00 0.  1.
         15    1    3    3    0    0 -0.19257121511E+02 -0.39193448978E+02 -0.42886941376E+02  0.61206641080E+02  0.00000000000E+00 0.  1.
        -16    1    1    2    0    0 -0.14423532175E+03  0.41707034812E+02 -0.53357280897E+03  0.55429527083E+03  0.00000000000E+00 0.  1.
         16    1    3    3    0    0 -0.30840742513E+02  0.15757649380E+03  0.35236590767E+02  0.16438710450E+03  0.00000000000E+00 0. -1.
    9900018    1    1    2    0    0  0.41814642763E+02 -0.23548691556E+02 -0.34068799442E+02  0.10853048748E+03  0.91187600000E+02 0.  0.
<mgrwt>
<rscale>  0 0.10190291E+04</rscale>
<asrwt>0</asrwt>
<pdfrwt beam="1">  1        2 0.22620122E+00 0.10190291E+04</pdfrwt>
<pdfrwt beam="2">  1       -2 0.27163860E-01 0.10190291E+04</pdfrwt>
<totfact> 0.16207570E+02</totfact>
</mgrwt>
</event>
<event>
11    1  0.2552707E-015  0.1185755E+04  0.7818608E-02  0.9125417E-01
          2   -1    0    0  501    0  0.00000000000E+00  0.00000000000E+00  0.35915704820E+04  0.35915704820E+04  0.00000000000E+00 0. -1.
         -2   -1    0    0    0  501 -0.00000000000E+00 -0.00000000000E+00 -0.97869129863E+02  0.97869129863E+02  0.00000000000E+00 0.  1.
    9900016    2    1    2    0    0  0.31764841536E+03  0.80944124581E+02  0.28656403915E+04  0.29809814004E+04  0.75292947157E+03 0.  0.
         23    2    3    3    0    0 -0.10471772135E+03  0.67470044156E+02  0.33975388957E+03  0.37204318143E+03  0.86402635060E+02 0.  0.
        -15    1    4    4    0    0 -0.66343247350E+02  0.19810918335E+02  0.27233029989E+03  0.28099411238E+03  0.00000000000E+00 0.  1.
        -15    1    3    3    0    0  0.13671603801E+03 -0.14578814691E+03  0.59635836542E+03  0.62895847148E+03  0.00000000000E+00 0.  1.
         15    1    4    4    0    0 -0.38374473997E+02  0.47659125821E+02  0.67423589675E+02  0.91049069041E+02  0.00000000000E+00 0. -1.
         15    1    3    3    0    0  0.62601687879E+02 -0.17008544688E+00  0.18694497492E+03  0.19714822825E+03  0.00000000000E+00 0. -1.
        -16    1    1    2    0    0 -0.31764841536E+03 -0.80944124581E+02  0.62806096058E+03  0.70845821139E+03  0.00000000000E+00 0.  1.
         16    1    3    3    0    0  0.19419980504E+03  0.18992908506E+03  0.13870295673E+04  0.14133780960E+04  0.00000000000E+00 0. -1.
    9900018    1    3    3    0    0  0.28848605773E+02 -0.30496772275E+02  0.35555359430E+03  0.36945342330E+03  0.91187600000E+02 0.  0.
<mgrwt>
<rscale>  0 0.11857552E+04</rscale>
<asrwt>0</asrwt>
<pdfrwt beam="1">  1        2 0.55254920E+00 0.11857552E+04</pdfrwt>
<pdfrwt beam="2">  1       -2 0.15056792E-01 0.11857552E+04</pdfrwt>
<totfact> 0.24834656E+01</totfact>
</mgrwt>
</event>
<event>
11    1  0.2552707E-015  0.1153764E+04  0.7818608E-02  0.9154318E-01
          1   -1    0    0  501    0  0.00000000000E+00  0.00000000000E+00  0.22339064165E+03  0.22339064165E+03  0.00000000000E+00 0. -1.
         -1   -1    0    0    0  501 -0.00000000000E+00 -0.00000000000E+00 -0.14897347596E+04  0.14897347596E+04  0.00000000000E+00 0.  1.
    9900016    2    1    2    0    0 -0.11741219667E+03 -0.31580837146E+03 -0.85833448069E+03  0.11333944799E+04  0.65903293921E+03 0.  0.
         23    2    3    3    0    0 -0.14655159622E+03  0.78708587359E+02 -0.19206039175E+03  0.27026554364E+03  0.92107860276E+02 0.  0.
        -15    1    4    4    0    0 -0.12729740013E+03  0.37359339039E+02 -0.17903186686E+03  0.22282898744E+03  0.00000000000E+00 0. -1.
        -15    1    3    3    0    0 -0.26558834479E+02 -0.85589022206E+02 -0.38986085598E+01  0.89699785728E+02  0.00000000000E+00 0. -1.
         15    1    3    3    0    0 -0.53289782980E+02 -0.16397188205E+03 -0.50392189604E+03  0.53260102927E+03  0.00000000000E+00 0.  1.
         15    1    4    4    0    0 -0.19254196094E+02  0.41349248320E+02 -0.13028524889E+02  0.47436556206E+02  0.00000000000E+00 0.  1.
        -16    1    3    3    0    0  0.10898801701E+03 -0.14495605457E+03 -0.15845358434E+03  0.24082812128E+03  0.00000000000E+00 0.  1.
         16    1    1    2    0    0  0.11225353033E+03  0.29663969619E+03 -0.29481623104E+03  0.43302722144E+03  0.00000000000E+00 0. -1.
    9900018    1    1    2    0    0  0.51586663399E+01  0.19168675270E+02 -0.11319340620E+03  0.14670369985E+03  0.91187600000E+02 0.  0.
<mgrwt>
<rscale>  0 0.11537639E+04</rscale>
<asrwt>0</asrwt>
<pdfrwt beam="1">  1        1 0.34367792E-01 0.11537639E+04</pdfrwt>
<pdfrwt beam="2">  1       -1 0.22918996E+00 0.11537639E+04</pdfrwt>
<totfact> 0.12241481E+01</totfact>
</mgrwt>
</event>
<event>
11    1  0.2552707E-015  0.1074555E+04  0.7818608E-02  0.9230353E-01
         -2   -1    0    0    0  501 -0.00000000000E+00  0.00000000000E+00  0.15181742858E+03  0.15181742858E+03  0.00000000000E+00 0.  1.
          2   -1    0    0  501    0  0.00000000000E+00 -0.00000000000E+00 -0.19014108163E+04  0.19014108163E+04  0.00000000000E+00 0. -1.
    9900016    2    1    2    0    0  0.77366297953E+02 -0.16721094123E+03 -0.13090572190E+04  0.14810432643E+04  0.66776740344E+03 0.  0.
         23    2    3    3    0    0 -0.24105495004E+01 -0.30807340765E+02  0.51679201411E+01  0.93728790074E+02  0.88337283727E+02 0.  0.
        -15    1    3    3    0    0  0.75874516569E+02 -0.57721932834E+02 -0.19680478171E+03  0.21867987081E+03  0.00000000000E+00 0.  1.
        -15    1    4    4    0    0 -0.79072837292E+01  0.30250100794E+02  0.82839395547E+01  0.32345283869E+02  0.00000000000E+00 0. -1.
         15    1    4    4    0    0  0.54967342288E+01 -0.61057441559E+02 -0.31160194136E+01  0.61383506204E+02  0.00000000000E+00 0.  1.
         15    1    3    3    0    0  0.11076842157E+03  0.10142503595E+02 -0.12831414735E+03  0.16981470492E+03  0.00000000000E+00 0. -1.
        -16    1    1    2    0    0 -0.79903086133E+02  0.21776027108E+03 -0.18670304041E+03  0.29776175734E+03  0.00000000000E+00 0.  1.
         16    1    3    3    0    0 -0.10686609069E+03 -0.88824171230E+02 -0.98910621012E+03  0.99881989850E+03  0.00000000000E+00 0. -1.
    9900018    1    1    2    0    0  0.25367881797E+01 -0.50549329849E+02 -0.25383312824E+03  0.27442322319E+03  0.91187600000E+02 0.  0.
<mgrwt>
<rscale>  0 0.10745554E+04</rscale>
<asrwt>0</asrwt>
<pdfrwt beam="1">  1        2 0.29252474E+00 0.10745554E+04</pdfrwt>
<pdfrwt beam="2">  1       -2 0.23356527E-01 0.10745554E+04</pdfrwt>
<totfact> 0.12244453E+02</totfact>
</mgrwt>
</event>
<event>
11    1  0.2552707E-015  0.9552377E+03  0.7818608E-02  0.9359049E-01
         -2   -1    0    0    0  501 -0.00000000000E+00  0.00000000000E+00  0.54286085978E+03  0.54286085978E+03  0.00000000000E+00 0.  1.
          2   -1    0    0  501    0  0.00000000000E+00 -0.00000000000E+00 -0.42021771154E+03  0.42021771154E+03  0.00000000000E+00 0. -1.
    9900016    2    1    2    0    0  0.76759323004E+01 -0.96624462456E+02 -0.98899665089E+01  0.66647544925E+03  0.65931517981E+03 0.  0.
         23    2    3    3    0    0 -0.23909426072E+03 -0.14044331804E+03  0.52680761087E+02  0.29463487293E+03  0.84522509810E+02 0.  0.
        -15    1    4    4    0    0 -0.41664081165E+02  0.51581753986E+01 -0.59793869241E+01  0.42405842767E+02  0.00000000000E+00 0. -1.
        -15    1    3    3    0    0 -0.29979546126E+01  0.47303895305E+02  0.10260918566E+02  0.48496728681E+02  0.00000000000E+00 0.  1.
         15    1    4    4    0    0 -0.19743017956E+03 -0.14560149344E+03  0.58660148011E+02  0.25222903016E+03  0.00000000000E+00 0.  1.
         15    1    3    3    0    0  0.71900156133E+02 -0.43887225025E+02  0.55007478870E+02  0.10060588305E+03  0.00000000000E+00 0. -1.
        -16    1    1    2    0    0 -0.73940495003E+02  0.98064265323E+02  0.13673491228E+03  0.18379399656E+03  0.00000000000E+00 0.  1.
         16    1    3    3    0    0  0.17786799150E+03  0.40402185308E+02 -0.12783912503E+03  0.22273796459E+03  0.00000000000E+00 0. -1.
    9900018    1    1    2    0    0  0.66264562702E+02 -0.14398028666E+01 -0.42017975392E+01  0.11280912551E+03  0.91187600000E+02 0.  0.
<mgrwt>
<rscale>  0 0.95523766E+03</rscale>
<asrwt>0</asrwt>
<pdfrwt beam="1">  1        2 0.64648878E-01 0.95523766E+03</pdfrwt>
<pdfrwt beam="2">  1       -2 0.83517056E-01 0.95523766E+03</pdfrwt>
<totfact> 0.94434415E+01</totfact>
</mgrwt>
</event>
<event>
11    1  0.2552707E-015  0.9138678E+03  0.7818608E-02  0.9408410E-01
          4   -1    0    0  501    0  0.00000000000E+00  0.00000000000E+00  0.15691335361E+03  0.15691335361E+03  0.00000000000E+00 0. -1.
         -4   -1    0    0    0  501 -0.00000000000E+00 -0.00000000000E+00 -0.13305979996E+04  0.13305979996E+04  0.00000000000E+00 0.  1.
    9900016    2    1    2    0    0  0.16778141343E+02  0.12252750795E+03 -0.11076182313E+04  0.13472998438E+04  0.75703647636E+03 0.  0.
         23    2    3    3    0    0 -0.54955791792E+02  0.11052136027E+03 -0.67547059431E+02  0.16785545126E+03  0.91529979533E+02 0.  0.
        -15    1    3    3    0    0  0.24474629994E+02 -0.10221054962E+03 -0.54713072520E+03  0.55713376708E+03  0.00000000000E+00 0.  1.
        -15    1    4    4    0    0 -0.14908348721E+01 -0.10011816879E+02  0.10536811688E+02  0.14611073417E+02  0.00000000000E+00 0.  1.
         15    1    3    3    0    0 -0.81862568350E+02 -0.30819636343E+02 -0.12854795724E+03  0.15548603600E+03  0.00000000000E+00 0. -1.
         15    1    4    4    0    0 -0.53464956920E+02  0.12053317715E+03 -0.78083871120E+02  0.15324437785E+03  0.00000000000E+00 0. -1.
        -16    1    3    3    0    0  0.12116543282E+03  0.12841359567E+03 -0.14479791010E+03  0.22833648073E+03  0.00000000000E+00 0.  1.
         16    1    1    2    0    0 -0.16778141343E+02 -0.12252750795E+03 -0.66066414759E+02  0.14021150948E+03  0.00000000000E+00 0. -1.
    9900018    1    3    3    0    0  0.79564386723E+01  0.16622737968E+02 -0.21959457930E+03  0.23848810869E+03  0.91187600000E+02 0.  0.
<mgrwt>
<rscale>  0 0.91386781E+03</rscale>
<asrwt>0</asrwt>
<pdfrwt beam="1">  1        4 0.24140516E-01 0.91386781E+03</pdfrwt>
<pdfrwt beam="2">  1       -4 0.20470739E+00 0.91386781E+03</pdfrwt>
<totfact> 0.39943686E+00</totfact>
</mgrwt>
</event>
<event>
11    1  0.2552707E-015  0.9112781E+03  0.7818608E-02  0.9411592E-01
          2   -1    0    0  501    0  0.00000000000E+00  0.00000000000E+00  0.10824416009E+04  0.10824416009E+04  0.00000000000E+00 0. -1.
         -2   -1    0    0    0  501 -0.00000000000E+00 -0.00000000000E+00 -0.19179504736E+03  0.19179504736E+03  0.00000000000E+00 0.  1.
    9900016    2    1    2    0    0  0.52161626130E+02  0.36733054973E+00  0.65324822245E+03  0.92801749172E+03  0.65708618508E+03 0.  0.
         23    2    3    3    0    0  0.30543541644E+02  0.26281061384E+02  0.36674004798E+03  0.38022948749E+03  0.91938013049E+02 0.  0.
        -15    1    3    3    0    0 -0.43618282870E+02 -0.64415087681E+02 -0.40349495222E+02  0.87635266224E+02  0.00000000000E+00 0.  1.
        -15    1    4    4    0    0  0.59952935302E+02  0.28696433321E+02  0.29970943677E+03  0.30699118265E+03  0.00000000000E+00 0. -1.
         15    1    4    4    0    0 -0.29409393659E+02 -0.24153719371E+01  0.67030611214E+02  0.73238304846E+02  0.00000000000E+00 0.  1.
         15    1    3    3    0    0  0.13530492983E+01 -0.10778341439E+03  0.13700396351E+02  0.10865908163E+03  0.00000000000E+00 0. -1.
        -16    1    1    2    0    0 -0.11657548000E+03  0.25700325593E+02  0.56546932664E+02  0.13209051770E+03  0.00000000000E+00 0.  1.
         16    1    3    3    0    0  0.63883318058E+02  0.14628477124E+03  0.31315727334E+03  0.35149365637E+03  0.00000000000E+00 0. -1.
    9900018    1    1    2    0    0  0.64413853872E+02 -0.26067656143E+02  0.18085139846E+03  0.21412863887E+03  0.91187600000E+02 0.  0.
<mgrwt>
<rscale>  0 0.91127809E+03</rscale>
<asrwt>0</asrwt>
<pdfrwt beam="1">  1        2 0.16652947E+00 0.91127809E+03</pdfrwt>
<pdfrwt beam="2">  1       -2 0.29506931E-01 0.91127809E+03</pdfrwt>
<totfact> 0.23642584E+02</totfact>
</mgrwt>
</event>
<event>
11    1  0.2552707E-015  0.8896660E+03  0.7818608E-02  0.9438592E-01
          2   -1    0    0  501    0  0.00000000000E+00  0.00000000000E+00  0.12773096187E+04  0.12773096187E+04  0.00000000000E+00 0. -1.
         -2   -1    0    0    0  501 -0.00000000000E+00 -0.00000000000E+00 -0.15491655821E+03  0.15491655821E+03  0.00000000000E+00 0.  1.
    9900016    2    1    2    0    0 -0.11494476662E+03 -0.41967361152E+02  0.10095671327E+04  0.12657832475E+04  0.75366297200E+03 0.  0.
         23    2    3    3    0    0 -0.25599121778E+02  0.90175905845E+02  0.38327693884E+03  0.40494285481E+03  0.91052154185E+02 0.  0.
        -15    1    3    3    0    0  0.14743622993E+03 -0.34371134981E+02  0.14868454180E+03  0.21219309551E+03  0.00000000000E+00 0.  1.
        -15    1    4    4    0    0  0.30751986170E+02  0.57921257375E+02  0.18217397632E+03  0.19361795981E+03  0.00000000000E+00 0. -1.
         15    1    4    4    0    0 -0.56351107948E+02  0.32254648470E+02  0.20110296252E+03  0.21132489500E+03  0.00000000000E+00 0.  1.
         15    1    3    3    0    0 -0.24861369314E+03 -0.16766898797E+01  0.22391534985E+03  0.33458879779E+03  0.00000000000E+00 0. -1.
        -16    1    1    2    0    0  0.11494476662E+03  0.41967361152E+02  0.11282592772E+03  0.16644292938E+03  0.00000000000E+00 0.  1.
         16    1    3    3    0    0  0.45846910060E+02 -0.70621826990E+02  0.10628852172E+03  0.13559731361E+03  0.00000000000E+00 0. -1.
    9900018    1    3    3    0    0 -0.34015091689E+02 -0.25473615146E+02  0.14740178051E+03  0.17846118576E+03  0.91187600000E+02 0.  0.
<mgrwt>
<rscale>  0 0.88966603E+03</rscale>
<asrwt>0</asrwt>
<pdfrwt beam="1">  1        2 0.19650917E+00 0.88966603E+03</pdfrwt>
<pdfrwt beam="2">  1       -2 0.23833317E-01 0.88966603E+03</pdfrwt>
<totfact> 0.26706248E+02</totfact>
</mgrwt>
</event>
<event>
11    1  0.2552707E-015  0.1099635E+04  0.7818608E-02  0.9205547E-01
         -2   -1    0    0    0  501 -0.00000000000E+00  0.00000000000E+00  0.44383329980E+03  0.44383329980E+03  0.00000000000E+00 0.  1.
          2   -1    0    0  501    0  0.00000000000E+00 -0.00000000000E+00 -0.68111028469E+03  0.68111028469E+03  0.00000000000E+00 0. -1.
    9900016    2    1    2    0    0  0.50938498330E+02  0.28419382393E+03 -0.12386476466E+03  0.81474495156E+03  0.75173532310E+03 0.  0.
         23    2    3    3    0    0  0.19111967032E+03 -0.11322235767E+03  0.87175304259E+02  0.25282631518E+03  0.83519945592E+02 0.  0.
        -15    1    4    4    0    0  0.73043739404E+02  0.59993674190E+00  0.21321059091E+02  0.76094253075E+02  0.00000000000E+00 0.  1.
        -15    1    3    3    0    0 -0.12106330110E+03  0.12356505272E+03 -0.53322188148E+01  0.17306957469E+03  0.00000000000E+00 0.  1.
         15    1    4    4    0    0  0.11807593092E+03 -0.11382229441E+03  0.65854245168E+02  0.17673206210E+03  0.00000000000E+00 0. -1.
         15    1    3    3    0    0 -0.11770525559E+02  0.35660419202E+02 -0.16047353805E+02  0.40837829690E+02  0.00000000000E+00 0. -1.
        -16    1    1    2    0    0 -0.50938498330E+02 -0.28419382393E+03 -0.11341222023E+03  0.31019863293E+03  0.00000000000E+00 0.  1.
         16    1    3    3    0    0 -0.22118091684E+02  0.16570432419E+03 -0.14843954882E+03  0.22356527612E+03  0.00000000000E+00 0. -1.
    9900018    1    3    3    0    0  0.14770746354E+02  0.72486385498E+02 -0.41220947473E+02  0.12444595588E+03  0.91187600000E+02 0.  0.
<mgrwt>
<rscale>  0 0.10996353E+04</rscale>
<asrwt>0</asrwt>
<pdfrwt beam="1">  1        2 0.10478620E+00 0.10996353E+04</pdfrwt>
<pdfrwt beam="2">  1       -2 0.68282046E-01 0.10996353E+04</pdfrwt>
<totfact> 0.82690435E+01</totfact>
</mgrwt>
</event>
<event>
11    1  0.2552707E-015  0.9909230E+03  0.7818608E-02  0.9318557E-01
          4   -1    0    0  501    0  0.00000000000E+00  0.00000000000E+00  0.84575859421E+03  0.84575859421E+03  0.00000000000E+00 0. -1.
         -4   -1    0    0    0  501 -0.00000000000E+00 -0.00000000000E+00 -0.29025080418E+03  0.29025080418E+03  0.00000000000E+00 0.  1.
    9900016    2    1    2    0    0 -0.12755805449E+03 -0.63638352133E+02  0.27066870096E+03  0.81749063319E+03  0.75809530571E+03 0.  0.
         23    2    3    3    0    0  0.27273743053E+01  0.11384638030E+01  0.44371772643E+02  0.91488081451E+02  0.79952987247E+02 0.  0.
        -15    1    4    4    0    0 -0.36121081043E+02 -0.13149253859E+02  0.24391139827E+02  0.45525411308E+02  0.00000000000E+00 0.  1.
        -15    1    3    3    0    0  0.26780309238E+02 -0.22049533386E+02 -0.42585731763E+02  0.54926418372E+02  0.00000000000E+00 0. -1.
         15    1    3    3    0    0  0.19717493101E+03 -0.19859841566E+02  0.14186774120E+03  0.24371873691E+03  0.00000000000E+00 0.  1.
         15    1    4    4    0    0  0.38848455348E+02  0.14287717662E+02  0.19980632816E+02  0.45962670143E+02  0.00000000000E+00 0. -1.
        -16    1    3    3    0    0 -0.29638853575E+03 -0.21934239345E+02  0.70404575028E+02  0.30542442464E+03  0.00000000000E+00 0.  1.
         16    1    1    2    0    0  0.12755805449E+03  0.63638352133E+02  0.28483908906E+03  0.31851876520E+03  0.00000000000E+00 0. -1.
    9900018    1    3    3    0    0 -0.57852133298E+02 -0.93320164006E+00  0.56610343857E+02  0.12193297182E+03  0.91187600000E+02 0.  0.
<mgrwt>
<rscale>  0 0.99092303E+03</rscale>
<asrwt>0</asrwt>
<pdfrwt beam="1">  1        4 0.13011671E+00 0.99092303E+03</pdfrwt>
<pdfrwt beam="2">  1       -4 0.44653970E-01 0.99092303E+03</pdfrwt>
<totfact> 0.41771745E+00</totfact>
</mgrwt>
</event>
<event>
11    1  0.2552707E-015  0.8914093E+03  0.7818608E-02  0.9436384E-01
          1   -1    0    0  501    0  0.00000000000E+00  0.00000000000E+00  0.55560313676E+03  0.55560313676E+03  0.00000000000E+00 0. -1.
         -1   -1    0    0    0  501 -0.00000000000E+00 -0.00000000000E+00 -0.35754409850E+03  0.35754409850E+03  0.00000000000E+00 0.  1.
    9900016    2    1    2    0    0  0.67207744717E+02 -0.53315417142E+02  0.17741355272E+03  0.69552219016E+03  0.66702033976E+03 0.  0.
         23    2    3    3    0    0 -0.12613698099E+03 -0.58290455963E+02 -0.97527626815E+02  0.19134733906E+03  0.88282789622E+02 0.  0.
        -15    1    3    3    0    0  0.54170713698E+02  0.44935802396E+02  0.12597584972E+03  0.14430387130E+03  0.00000000000E+00 0.  1.
        -15    1    4    4    0    0 -0.81079143148E+02  0.73642946591E+01 -0.69138680039E+02  0.10680925693E+03  0.00000000000E+00 0.  1.
         15    1    3    3    0    0  0.81177520986E+02  0.12696050318E+03  0.62495441693E+02  0.16313932547E+03  0.00000000000E+00 0. -1.
         15    1    4    4    0    0 -0.45057837839E+02 -0.65654750622E+02 -0.28388946776E+02  0.84538082123E+02  0.00000000000E+00 0. -1.
        -16    1    1    2    0    0 -0.91622526702E+02  0.69926797967E+02  0.35565975740E+02  0.12062082367E+03  0.00000000000E+00 0.  1.
         16    1    3    3    0    0  0.57996491019E+02 -0.16692126675E+03  0.86469888128E+02  0.19673165434E+03  0.00000000000E+00 0. -1.
    9900018    1    1    2    0    0  0.24414781985E+02 -0.16611380825E+02 -0.14920490205E+02  0.97004221424E+02  0.91187600000E+02 0.  0.
<mgrwt>
<rscale>  0 0.89140927E+03</rscale>
<asrwt>0</asrwt>
<pdfrwt beam="1">  1        1 0.85477406E-01 0.89140927E+03</pdfrwt>
<pdfrwt beam="2">  1       -1 0.55006784E-01 0.89140927E+03</pdfrwt>
<totfact> 0.12877643E+02</totfact>
</mgrwt>
</event>
<event>
11    1  0.2552707E-015  0.1260411E+04  0.7818608E-02  0.9061563E-01
          1   -1    0    0  501    0  0.00000000000E+00  0.00000000000E+00  0.41703181398E+03  0.41703181398E+03  0.00000000000E+00 0. -1.
         -1   -1    0    0    0  501 -0.00000000000E+00 -0.00000000000E+00 -0.95234630001E+03  0.95234630001E+03  0.00000000000E+00 0.  1.
    9900016    2    1    2    0    0  0.58730590721E+02 -0.14108099360E+03  0.59053579751E+02  0.67976331346E+03  0.65972547928E+03 0.  0.
         23    2    3    3    0    0  0.82155797871E+02 -0.63089413910E+02 -0.41915221004E+02  0.14464549038E+03  0.91845429198E+02 0.  0.
        -15    1    3    3    0    0 -0.22563251094E+02  0.13245740533E+03 -0.81871822808E+02  0.15734376345E+03  0.00000000000E+00 0. -1.
        -15    1    4    4    0    0  0.45626334831E+02 -0.79099941523E+02 -0.69070782287E+01  0.91576584937E+02  0.00000000000E+00 0.  1.
         15    1    4    4    0    0  0.36529463040E+02  0.16010527614E+02 -0.35008142775E+02  0.53068905444E+02  0.00000000000E+00 0. -1.
         15    1    3    3    0    0 -0.58585761170E+02  0.14741034552E+02 -0.25531839090E+02  0.65585549619E+02  0.00000000000E+00 0.  1.
        -16    1    1    2    0    0 -0.21854288070E+02  0.13418316050E+03 -0.57275721381E+03  0.58867100866E+03  0.00000000000E+00 0.  1.
         16    1    3    3    0    0  0.57723805114E+02 -0.22519001957E+03  0.20837246265E+03  0.31218851001E+03  0.00000000000E+00 0. -1.
    9900018    1    1    2    0    0 -0.36876302651E+02  0.68978331024E+01 -0.21610851965E+02  0.10094379186E+03  0.91187600000E+02 0.  0.
<mgrwt>
<rscale>  0 0.12604106E+04</rscale>
<asrwt>0</asrwt>
<pdfrwt beam="1">  1        1 0.64158740E-01 0.12604106E+04</pdfrwt>
<pdfrwt beam="2">  1       -1 0.14651482E+00 0.12604106E+04</pdfrwt>
<totfact> 0.20781225E+01</totfact>
</mgrwt>
</event>
<event>
11    1  0.2552707E-015  0.1244149E+04  0.7818608E-02  0.9075067E-01
         -2   -1    0    0    0  501 -0.00000000000E+00  0.00000000000E+00  0.59907365571E+03  0.59907365571E+03  0.00000000000E+00 0.  1.
          2   -1    0    0  501    0  0.00000000000E+00 -0.00000000000E+00 -0.64595882817E+03  0.64595882817E+03  0.00000000000E+00 0. -1.
    9900016    2    1    2    0    0 -0.36614972603E+03 -0.25430793182E+02  0.10117944983E+03  0.84926047945E+03  0.75914012790E+03 0.  0.
         23    2    3    3    0    0  0.99374515170E+02 -0.82560724143E+02 -0.10214787054E+02  0.15900442231E+03  0.92122185190E+02 0.  0.
        -15    1    3    3    0    0 -0.11394369245E+03 -0.55978233294E+02 -0.18604910340E+02  0.12830771738E+03  0.00000000000E+00 0.  1.
        -15    1    4    4    0    0  0.79902310387E+02 -0.46982151724E+02 -0.47286354815E+02  0.10405624026E+03  0.00000000000E+00 0.  1.
         15    1    3    3    0    0 -0.22431698765E+03  0.20785666605E+03  0.13593467111E+03  0.33466511527E+03  0.00000000000E+00 0. -1.
         15    1    4    4    0    0  0.19472204784E+02 -0.35578572419E+02  0.37071567761E+02  0.54948182051E+02  0.00000000000E+00 0. -1.
        -16    1    1    2    0    0  0.36614972603E+03  0.25430793182E+02 -0.14806462229E+03  0.39577200442E+03  0.00000000000E+00 0.  1.
         16    1    3    3    0    0 -0.43794156179E+02 -0.93644237371E+02 -0.74555242922E+01  0.10364726794E+03  0.00000000000E+00 0. -1.
    9900018    1    3    3    0    0 -0.83469404925E+02 -0.11042644200E+01  0.15200004111E+01  0.12363595656E+03  0.91187600000E+02 0.  0.
<mgrwt>
<rscale>  0 0.12441494E+04</rscale>
<asrwt>0</asrwt>
<pdfrwt beam="1">  1        2 0.99378281E-01 0.12441494E+04</pdfrwt>
<pdfrwt beam="2">  1       -2 0.92165178E-01 0.12441494E+04</pdfrwt>
<totfact> 0.44606834E+01</totfact>
</mgrwt>
</event>
<event>
11    1  0.2552707E-015  0.1028004E+04  0.7818608E-02  0.9278353E-01
         -2   -1    0    0    0  501 -0.00000000000E+00  0.00000000000E+00  0.32316558566E+03  0.32316558566E+03  0.00000000000E+00 0.  1.
          2   -1    0    0  501    0  0.00000000000E+00 -0.00000000000E+00 -0.81753147974E+03  0.81753147974E+03  0.00000000000E+00 0. -1.
    9900016    2    1    2    0    0  0.24595428441E+02 -0.18656254475E+03 -0.46605606973E+03  0.83942727119E+03  0.67232385446E+03 0.  0.
         23    2    3    3    0    0  0.12428030215E+03 -0.24897700367E+03 -0.86250996424E+02  0.30483611183E+03  0.89725575137E+02 0.  0.
        -15    1    4    4    0    0  0.35608152974E+02 -0.16484975836E+03 -0.34723721479E+02  0.17218919892E+03  0.00000000000E+00 0. -1.
        -15    1    3    3    0    0 -0.23268279424E+01 -0.10856081857E+02 -0.50596373991E+02  0.51800209484E+02  0.00000000000E+00 0.  1.
         15    1    4    4    0    0  0.88672149174E+02 -0.84127245306E+02 -0.51527274945E+02  0.13264691291E+03  0.00000000000E+00 0.  1.
         15    1    3    3    0    0 -0.11722147150E+03  0.14883653109E+03 -0.54428765681E+02  0.19711843369E+03  0.00000000000E+00 0. -1.
        -16    1    1    2    0    0 -0.50885842789E+02  0.18188476401E+03  0.27828290910E+02  0.19090796251E+03  0.00000000000E+00 0.  1.
         16    1    3    3    0    0  0.19863425735E+02 -0.75565990306E+02 -0.27477993364E+03  0.28567251619E+03  0.00000000000E+00 0. -1.
    9900018    1    1    2    0    0  0.26290414349E+02  0.46777807379E+01 -0.56138115250E+02  0.11036183170E+03  0.91187600000E+02 0.  0.
<mgrwt>
<rscale>  0 0.10280040E+04</rscale>
<asrwt>0</asrwt>
<pdfrwt beam="1">  1        2 0.12577407E+00 0.10280040E+04</pdfrwt>
<pdfrwt beam="2">  1       -2 0.49717783E-01 0.10280040E+04</pdfrwt>
<totfact> 0.12769375E+02</totfact>
</mgrwt>
</event>
<event>
11    1  0.2552707E-015  0.1279392E+04  0.7818608E-02  0.9046069E-01
          1   -1    0    0  501    0  0.00000000000E+00  0.00000000000E+00  0.81281445319E+03  0.81281445319E+03  0.00000000000E+00 0. -1.
         -1   -1    0    0    0  501 -0.00000000000E+00 -0.00000000000E+00 -0.50344948135E+03  0.50344948135E+03  0.00000000000E+00 0.  1.
    9900016    2    1    2    0    0  0.15791171855E+03  0.34293580851E+03  0.25504645874E+03  0.80288978740E+03  0.66109169938E+03 0.  0.
         23    2    3    3    0    0 -0.72494477934E+02 -0.68113328333E+01  0.10379078521E+03  0.15175994017E+03  0.83406886772E+02 0.  0.
        -15    1    3    3    0    0 -0.11727204418E+03  0.13410489998E+03 -0.17115567854E+02  0.17896871014E+03  0.00000000000E+00 0.  1.
        -15    1    4    4    0    0 -0.30369751694E+02 -0.16168815099E+02  0.10300722300E+03  0.10860129092E+03  0.00000000000E+00 0.  1.
         15    1    3    3    0    0  0.10095612814E+03  0.15710195801E+03  0.57364737746E+02  0.19535577328E+03  0.00000000000E+00 0. -1.
         15    1    4    4    0    0 -0.42124726240E+02  0.93574822657E+01  0.78356220496E+00  0.43158649248E+02  0.00000000000E+00 0. -1.
        -16    1    3    3    0    0  0.24672211253E+03  0.58540283361E+02  0.11100650364E+03  0.27680536381E+03  0.00000000000E+00 0.  1.
         16    1    1    2    0    0 -0.13226777884E+03 -0.38378397285E+03  0.58509821554E+02  0.41013205478E+03  0.00000000000E+00 0. -1.
    9900018    1    1    2    0    0 -0.25643939708E+02  0.40848164341E+02 -0.41913084439E+01  0.10324209236E+03  0.91187600000E+02 0.  0.
<mgrwt>
<rscale>  0 0.12793921E+04</rscale>
<asrwt>0</asrwt>
<pdfrwt beam="1">  1        1 0.12504838E+00 0.12793921E+04</pdfrwt>
<pdfrwt beam="2">  1       -1 0.77453766E-01 0.12793921E+04</pdfrwt>
<totfact> 0.35443110E+01</totfact>
</mgrwt>
</event>
<event>
11    1  0.2552707E-015  0.8713334E+03  0.7818608E-02  0.9462143E-01
         -1   -1    0    0    0  501 -0.00000000000E+00  0.00000000000E+00  0.19467408922E+03  0.19467408922E+03  0.00000000000E+00 0.  1.
          1   -1    0    0  501    0  0.00000000000E+00 -0.00000000000E+00 -0.97499104784E+03  0.97499104784E+03  0.00000000000E+00 0. -1.
    9900016    2    1    2    0    0 -0.65463658460E+02 -0.66725954803E+02 -0.64281106959E+03  0.93918578711E+03  0.67832590095E+03 0.  0.
         23    2    3    3    0    0 -0.17186269293E+02  0.51545882132E+02 -0.30800510965E+02  0.10818981270E+03  0.88340354765E+02 0.  0.
        -15    1    3    3    0    0  0.46691289711E+02 -0.23847176539E+02 -0.80162031248E+02  0.95784735828E+02  0.00000000000E+00 0. -1.
        -15    1    4    4    0    0 -0.10962032681E+02  0.44829822469E+00 -0.51539128300E+02  0.52693916895E+02  0.00000000000E+00 0. -1.
         15    1    3    3    0    0  0.15518202696E+03  0.12050057311E+02 -0.40757863196E+03  0.43628775665E+03  0.00000000000E+00 0.  1.
         15    1    4    4    0    0 -0.62242366124E+01  0.51097583907E+02  0.20738617335E+02  0.55495895808E+02  0.00000000000E+00 0.  1.
        -16    1    1    2    0    0  0.70578491897E+02  0.59913145974E+02 -0.58392692638E+02  0.10945599633E+03  0.00000000000E+00 0.  1.
         16    1    3    3    0    0 -0.25015070584E+03 -0.10647471771E+03 -0.12426989542E+03  0.29892348193E+03  0.00000000000E+00 0. -1.
    9900018    1    1    2    0    0 -0.51148334368E+01  0.68128088295E+01 -0.79113196382E+02  0.12102335362E+03  0.91187600000E+02 0.  0.
<mgrwt>
<rscale>  0 0.87133345E+03</rscale>
<asrwt>0</asrwt>
<pdfrwt beam="1">  1        1 0.14999863E+00 0.87133345E+03</pdfrwt>
<pdfrwt beam="2">  1       -1 0.29949859E-01 0.87133345E+03</pdfrwt>
<totfact> 0.16322072E+02</totfact>
</mgrwt>
</event>
<event>
11    1  0.2552707E-015  0.1063187E+04  0.7818608E-02  0.9241835E-01
         -2   -1    0    0    0  501 -0.00000000000E+00  0.00000000000E+00  0.17606374420E+03  0.17606374420E+03  0.00000000000E+00 0.  1.
          2   -1    0    0  501    0  0.00000000000E+00 -0.00000000000E+00 -0.16050519852E+04  0.16050519852E+04  0.00000000000E+00 0. -1.
    9900016    2    1    2    0    0 -0.13723584415E+03 -0.21117228988E+03 -0.11913972248E+04  0.14348832874E+04  0.75896988622E+03 0.  0.
         23    2    3    3    0    0 -0.91286716098E+02  0.13021536445E+03 -0.30037108404E+03  0.35198139877E+03  0.91535846939E+02 0.  0.
        -15    1    4    4    0    0 -0.55181621112E+02  0.11588739808E+03 -0.28022832313E+03  0.30822526409E+03  0.00000000000E+00 0. -1.
        -15    1    3    3    0    0 -0.28573657236E+02 -0.54127903242E+02 -0.24644332128E+03  0.25393029437E+03  0.00000000000E+00 0. -1.
         15    1    4    4    0    0 -0.36105094986E+02  0.14327966370E+02 -0.20142760911E+02  0.43756134671E+02  0.00000000000E+00 0.  1.
         15    1    3    3    0    0  0.40608028979E+02  0.78663073385E+02 -0.21055962157E+03  0.22841244574E+03  0.00000000000E+00 0.  1.
        -16    1    3    3    0    0 -0.19062924763E+02 -0.28690393309E+03 -0.28410267806E+03  0.40421726040E+03  0.00000000000E+00 0.  1.
         16    1    1    2    0    0  0.13723584415E+03  0.21117228988E+03 -0.23759101622E+03  0.34623244204E+03  0.00000000000E+00 0. -1.
    9900018    1    3    3    0    0 -0.38920575032E+02 -0.79018891385E+02 -0.14992051987E+03  0.19634188812E+03  0.91187600000E+02 0.  0.
<mgrwt>
<rscale>  0 0.10631866E+04</rscale>
<asrwt>0</asrwt>
<pdfrwt beam="1">  1        2 0.24693108E+00 0.10631866E+04</pdfrwt>
<pdfrwt beam="2">  1       -2 0.27086730E-01 0.10631866E+04</pdfrwt>
<totfact> 0.13654637E+02</totfact>
</mgrwt>
</event>
<event>
11    1  0.2552707E-015  0.9033204E+03  0.7818608E-02  0.9421440E-01
          2   -1    0    0  501    0  0.00000000000E+00  0.00000000000E+00  0.70480253167E+03  0.70480253167E+03  0.00000000000E+00 0.  1.
         -2   -1    0    0    0  501 -0.00000000000E+00 -0.00000000000E+00 -0.28943845539E+03  0.28943845539E+03  0.00000000000E+00 0. -1.
    9900016    2    1    2    0    0  0.51319683784E+02 -0.11129803545E+03  0.36135064794E+03  0.86030662598E+03  0.77105916589E+03 0.  0.
         23    2    3    3    0    0  0.36123019366E+02  0.17872864543E+03  0.22878142317E+02  0.20331950210E+03  0.86986259334E+02 0.  0.
        -15    1    4    4    0    0  0.11053347557E+02  0.14830371139E+02 -0.24668240934E+02  0.30832426293E+02  0.00000000000E+00 0. -1.
        -15    1    3    3    0    0  0.94785409275E+01 -0.16348808584E+03  0.54454146265E+02  0.17257882546E+03  0.00000000000E+00 0.  1.
         15    1    4    4    0    0  0.25069671808E+02  0.16389827429E+03  0.47546383252E+02  0.17248707581E+03  0.00000000000E+00 0.  1.
         15    1    3    3    0    0 -0.29988153816E+02 -0.21574192638E+03  0.18825939727E+03  0.28789836545E+03  0.00000000000E+00 0. -1.
        -16    1    1    2    0    0 -0.51319683784E+02  0.11129803545E+03  0.54013428335E+02  0.13393436108E+03  0.00000000000E+00 0.  1.
         16    1    3    3    0    0  0.50907739754E+02  0.37618683464E+02  0.20189523091E+02  0.66440801885E+02  0.00000000000E+00 0. -1.
    9900018    1    3    3    0    0 -0.15201462448E+02  0.51584647885E+02  0.75569439003E+02  0.13006913109E+03  0.91187600000E+02 0.  0.
<mgrwt>
<rscale>  0 0.90332044E+03</rscale>
<asrwt>0</asrwt>
<pdfrwt beam="1">  1        2 0.10843116E+00 0.90332044E+03</pdfrwt>
<pdfrwt beam="2">  1       -2 0.44528993E-01 0.90332044E+03</pdfrwt>
<totfact> 0.19478893E+02</totfact>
</mgrwt>
</event>
<event>
11    1  0.2552707E-015  0.9428226E+03  0.7818608E-02  0.9373579E-01
          2   -1    0    0  501    0  0.00000000000E+00  0.00000000000E+00  0.39572250563E+03  0.39572250563E+03  0.00000000000E+00 0. -1.
         -2   -1    0    0    0  501 -0.00000000000E+00 -0.00000000000E+00 -0.56157693802E+03  0.56157693802E+03  0.00000000000E+00 0.  1.
    9900016    2    1    2    0    0  0.12758807803E+03  0.32011031563E+02 -0.10239380887E+03  0.68750952282E+03  0.66699432387E+03 0.  0.
         23    2    3    3    0    0  0.17955292429E+03 -0.17555683536E+03 -0.16081335108E+03  0.31234195982E+03  0.92936058203E+02 0.  0.
        -15    1    3    3    0    0 -0.52289511271E+02 -0.33222343384E+02 -0.11032587385E+02  0.62925631291E+02  0.00000000000E+00 0.  1.
        -15    1    4    4    0    0  0.47347936736E+02 -0.87209798486E+02 -0.22862502039E+02  0.10183354096E+03  0.00000000000E+00 0.  1.
         15    1    4    4    0    0  0.13220498755E+03 -0.88347036875E+02 -0.13795084904E+03  0.21050841885E+03  0.00000000000E+00 0. -1.
         15    1    3    3    0    0  0.36798301705E+02 -0.17551430898E+02  0.24293787322E+02  0.47458991112E+02  0.00000000000E+00 0. -1.
        -16    1    1    2    0    0 -0.14742391670E+03 -0.20021204962E+02 -0.87605694743E+02  0.17265404025E+03  0.00000000000E+00 0.  1.
         16    1    3    3    0    0 -0.36473636689E+02  0.25834164121E+03  0.45158342274E+02  0.26478294060E+03  0.00000000000E+00 0. -1.
    9900018    1    1    2    0    0  0.19835838670E+02 -0.11989826601E+02  0.24145071225E+02  0.97135880579E+02  0.91187600000E+02 0.  0.
<mgrwt>
<rscale>  0 0.94282264E+03</rscale>
<asrwt>0</asrwt>
<pdfrwt beam="1">  1        2 0.60880385E-01 0.94282264E+03</pdfrwt>
<pdfrwt beam="2">  1       -2 0.86396452E-01 0.94282264E+03</pdfrwt>
<totfact> 0.93615315E+01</totfact>
</mgrwt>
</event>
<event>
11    1  0.3289011E-015  0.9512782E+03  0.7818608E-02  0.9363658E-01
         -2   -1    0    0    0  501 -0.00000000000E+00  0.00000000000E+00  0.71570352652E+03  0.71570352652E+03  0.00000000000E+00 0.  1.
          2   -1    0    0  501    0  0.00000000000E+00 -0.00000000000E+00 -0.31609814637E+03  0.31609814637E+03  0.00000000000E+00 0. -1.
    9900016    2    1    2    0    0  0.15367600527E+02  0.13824430512E+03  0.45011430374E+03  0.88381923336E+03  0.74778733594E+03 0.  0.
         23    2    3    3    0    0 -0.11447783151E+03 -0.91857393770E+02  0.27040656472E+02  0.17447704249E+03  0.90377467079E+02 0.  0.
        -15    1    4    4    0    0 -0.20383434058E+02 -0.60287930309E+01  0.41173152805E+02  0.46336370610E+02  0.00000000000E+00 0.  1.
        -15    1    3    3    0    0  0.19544859296E+02  0.73917600581E+02 -0.64985728449E+02  0.10034419815E+03  0.00000000000E+00 0.  1.
         15    1    4    4    0    0 -0.94094397453E+02 -0.85828600739E+02 -0.14132496333E+02  0.12814067188E+03  0.00000000000E+00 0. -1.
         15    1    3    3    0    0  0.19560402861E+01  0.26370372572E+02 -0.24796436391E+01  0.26558826701E+02  0.00000000000E+00 0. -1.
        -16    1    3    3    0    0  0.12308086322E+03  0.14373185608E+03  0.43346762162E+03  0.47297137793E+03  0.00000000000E+00 0.  1.
         16    1    1    2    0    0 -0.15367600527E+02 -0.13824430512E+03 -0.50508923601E+02  0.14798243953E+03  0.00000000000E+00 0. -1.
    9900018    1    3    3    0    0 -0.14736330768E+02 -0.13918130346E+02  0.57071397741E+02  0.10946778810E+03  0.91187600000E+02 0.  0.
<mgrwt>
<rscale>  0 0.95127821E+03</rscale>
<asrwt>0</asrwt>
<pdfrwt beam="1">  1        2 0.48630484E-01 0.95127821E+03</pdfrwt>
<pdfrwt beam="2">  1       -2 0.11010823E+00 0.95127821E+03</pdfrwt>
<totfact> 0.67933506E+01</totfact>
</mgrwt>
</event>
<event>
11    1  0.2552707E-015  0.1086396E+04  0.7818608E-02  0.9218554E-01
          2   -1    0    0  501    0  0.00000000000E+00  0.00000000000E+00  0.14981009823E+04  0.14981009823E+04  0.00000000000E+00 0. -1.
         -2   -1    0    0    0  501 -0.00000000000E+00 -0.00000000000E+00 -0.19695874781E+03  0.19695874781E+03  0.00000000000E+00 0.  1.
    9900016    2    1    2    0    0 -0.89335146375E+02  0.24616482616E+03  0.81803270775E+03  0.11455392984E+04  0.75796100379E+03 0.  0.
         23    2    3    3    0    0  0.11857208809E+03  0.98726481107E+02  0.29397115282E+03  0.34362959821E+03  0.88634101391E+02 0.  0.
        -15    1    3    3    0    0  0.31455273064E+02 -0.85389346870E+02  0.78893167736E+02  0.12043631794E+03  0.00000000000E+00 0.  1.
        -15    1    4    4    0    0  0.26010429266E+02 -0.52097436865E+01  0.10879328121E+03  0.11198063179E+03  0.00000000000E+00 0. -1.
         15    1    3    3    0    0  0.52385958685E+02  0.79171329815E+01 -0.11070067113E+02  0.54125003906E+02  0.00000000000E+00 0. -1.
         15    1    4    4    0    0  0.92561658826E+02  0.10393622479E+03  0.18517787161E+03  0.23164896642E+03  0.00000000000E+00 0.  1.
        -16    1    3    3    0    0 -0.27039531905E+03  0.15491414798E+03  0.35802090647E+03  0.47464828166E+03  0.00000000000E+00 0.  1.
         16    1    1    2    0    0  0.89335146375E+02 -0.24616482616E+03  0.48310952672E+03  0.54952043167E+03  0.00000000000E+00 0. -1.
    9900018    1    3    3    0    0 -0.21353147166E+02  0.69996410956E+02  0.98217547843E+02  0.15270009672E+03  0.91187600000E+02 0.  0.
<mgrwt>
<rscale>  0 0.10863960E+04</rscale>
<asrwt>0</asrwt>
<pdfrwt beam="1">  1        2 0.23047707E+00 0.10863960E+04</pdfrwt>
<pdfrwt beam="2">  1       -2 0.30301347E-01 0.10863960E+04</pdfrwt>
<totfact> 0.12716089E+02</totfact>
</mgrwt>
</event>
<event>
11    1  0.2552707E-015  0.1132256E+04  0.7818608E-02  0.9174311E-01
         -1   -1    0    0    0  501 -0.00000000000E+00  0.00000000000E+00  0.98697648800E+03  0.98697648800E+03  0.00000000000E+00 0.  1.
          1   -1    0    0  501    0  0.00000000000E+00 -0.00000000000E+00 -0.32472977043E+03  0.32472977043E+03  0.00000000000E+00 0. -1.
    9900016    2    1    2    0    0  0.14386589820E+03 -0.21079291478E+03  0.64397200057E+03  0.95203632910E+03  0.65310197122E+03 0.  0.
         23    2    3    3    0    0  0.67821929766E+02  0.48184109221E+01 -0.47345469868E+02  0.12512398400E+03  0.93762394461E+02 0.  0.
        -15    1    4    4    0    0  0.62661321766E+02  0.43789305057E+02 -0.29291376792E+02  0.81865311562E+02  0.00000000000E+00 0. -1.
        -15    1    3    3    0    0 -0.54726232141E+02 -0.51656866828E+02  0.16206301082E+03  0.17868355227E+03  0.00000000000E+00 0.  1.
         15    1    3    3    0    0  0.13889641925E+03  0.22953150794E+02  0.80810403536E+02  0.16232493256E+03  0.00000000000E+00 0. -1.
         15    1    4    4    0    0  0.51606080001E+01 -0.38970894135E+02 -0.18054093077E+02  0.43258672442E+02  0.00000000000E+00 0.  1.
        -16    1    3    3    0    0 -0.81262186686E+01 -0.18690760966E+03  0.44844405609E+03  0.48590386027E+03  0.00000000000E+00 0.  1.
         16    1    1    2    0    0 -0.14359684035E+03  0.17022901776E+03 -0.62461399811E+02  0.23129936773E+03  0.00000000000E+00 0. -1.
    9900018    1    1    2    0    0 -0.26905784976E+00  0.40563897015E+02  0.80736116808E+02  0.12837056160E+03  0.91187600000E+02 0.  0.
<mgrwt>
<rscale>  0 0.11322555E+04</rscale>
<asrwt>0</asrwt>
<pdfrwt beam="1">  1        1 0.49958427E-01 0.11322555E+04</pdfrwt>
<pdfrwt beam="2">  1       -1 0.15184254E+00 0.11322555E+04</pdfrwt>
<totfact> 0.26531267E+01</totfact>
</mgrwt>
</event>
<event>
11    1  0.2552707E-015  0.1089387E+04  0.7818608E-02  0.9215598E-01
         -1   -1    0    0    0  501 -0.00000000000E+00  0.00000000000E+00  0.15934495205E+04  0.15934495205E+04  0.00000000000E+00 0.  1.
          1   -1    0    0  501    0  0.00000000000E+00 -0.00000000000E+00 -0.18619426301E+03  0.18619426301E+03  0.00000000000E+00 0. -1.
    9900016    2    1    2    0    0  0.21523160194E+03 -0.18536482808E+02  0.68061236124E+03  0.97118906330E+03  0.65826040951E+03 0.  0.
         23    2    3    3    0    0 -0.10373952451E+03  0.52797490416E+02  0.32044997044E+03  0.35336883360E+03  0.92907938659E+02 0.  0.
        -15    1    3    3    0    0  0.21655036298E+02 -0.78908384627E+02  0.22095278546E+03  0.23561750182E+03  0.00000000000E+00 0.  1.
        -15    1    4    4    0    0 -0.10159225011E+03  0.11992073507E+02  0.17937194729E+03  0.20649234994E+03  0.00000000000E+00 0.  1.
         15    1    4    4    0    0 -0.21472744002E+01  0.40805416910E+02  0.14107802315E+03  0.14687648366E+03  0.00000000000E+00 0. -1.
         15    1    3    3    0    0  0.10070779266E+03 -0.78867131531E+02  0.31358538830E+01  0.12795279410E+03  0.00000000000E+00 0. -1.
        -16    1    1    2    0    0 -0.20053561549E+03  0.25060588706E+02  0.67021338155E+03  0.70002038756E+03  0.00000000000E+00 0.  1.
         16    1    3    3    0    0  0.19660829750E+03  0.86441542933E+02  0.13607375145E+03  0.25424993377E+03  0.00000000000E+00 0. -1.
    9900018    1    1    2    0    0 -0.14695986449E+02 -0.65241058976E+01  0.56429514693E+02  0.10843433265E+03  0.91187600000E+02 0.  0.
<mgrwt>
<rscale>  0 0.10893873E+04</rscale>
<asrwt>0</asrwt>
<pdfrwt beam="1">  1        1 0.28645272E-01 0.10893873E+04</pdfrwt>
<pdfrwt beam="2">  1       -1 0.24514607E+00 0.10893873E+04</pdfrwt>
<totfact> 0.12264792E+01</totfact>
</mgrwt>
</event>
<event>
11    1  0.2552707E-015  0.8881691E+03  0.7818608E-02  0.9440493E-01
          1   -1    0    0  501    0  0.00000000000E+00  0.00000000000E+00  0.95932838161E+03  0.95932838161E+03  0.00000000000E+00 0. -1.
         -1   -1    0    0    0  501 -0.00000000000E+00 -0.00000000000E+00 -0.20557201783E+03  0.20557201783E+03  0.00000000000E+00 0.  1.
    9900016    2    1    2    0    0  0.52076815233E+02 -0.60643356964E+02  0.51469983144E+03  0.91283366803E+03  0.74963976520E+03 0.  0.
         23    2    3    3    0    0 -0.15191096864E+03 -0.10447256139E+03  0.11003409347E+03  0.23302818005E+03  0.90571366842E+02 0.  0.
        -15    1    4    4    0    0 -0.14872143295E+03 -0.65925056167E+02  0.10594065017E+03  0.19413294158E+03  0.00000000000E+00 0.  1.
        -15    1    3    3    0    0  0.23009415315E+03 -0.10121806350E+03  0.71119276257E+02  0.26124005656E+03  0.00000000000E+00 0.  1.
         15    1    4    4    0    0 -0.31895356886E+01 -0.38547505223E+02  0.40934433061E+01  0.38895238461E+02  0.00000000000E+00 0. -1.
         15    1    3    3    0    0 -0.55295151143E+01  0.77915759972E+02  0.16412249753E+03  0.18176257971E+03  0.00000000000E+00 0. -1.
        -16    1    3    3    0    0 -0.33444215571E+02  0.65152310803E+02  0.71063743494E+02  0.10204604254E+03  0.00000000000E+00 0.  1.
         16    1    1    2    0    0 -0.52076815233E+02  0.60643356964E+02  0.23905653234E+03  0.25206673141E+03  0.00000000000E+00 0. -1.
    9900018    1    3    3    0    0  0.12867361406E+02  0.19791971511E+01  0.98360220692E+02  0.13475680918E+03  0.91187600000E+02 0.  0.
<mgrwt>
<rscale>  0 0.88816906E+03</rscale>
<asrwt>0</asrwt>
<pdfrwt beam="1">  1        1 0.14758898E+00 0.88816906E+03</pdfrwt>
<pdfrwt beam="2">  1       -1 0.31626465E-01 0.88816906E+03</pdfrwt>
<totfact> 0.15248235E+02</totfact>
</mgrwt>
</event>
<event>
11    1  0.2552707E-015  0.8949478E+03  0.7818608E-02  0.9431919E-01
         -2   -1    0    0    0  501 -0.00000000000E+00  0.00000000000E+00  0.21975392740E+03  0.21975392740E+03  0.00000000000E+00 0.  1.
          2   -1    0    0  501    0  0.00000000000E+00 -0.00000000000E+00 -0.91116864094E+03  0.91116864094E+03  0.00000000000E+00 0. -1.
    9900016    2    1    2    0    0  0.71107023688E+02 -0.10170486111E+03 -0.58238688273E+03  0.96573432577E+03  0.76030797655E+03 0.  0.
         23    2    3    3    0    0  0.23947143870E+02  0.89011414870E+02  0.48290081847E+02  0.13826544336E+03  0.91043413519E+02 0.  0.
        -15    1    3    3    0    0  0.18827581967E+03 -0.11269916594E+03 -0.28800366724E+03  0.36207043323E+03  0.00000000000E+00 0.  1.
        -15    1    4    4    0    0  0.44332756769E+02  0.81037865885E+02  0.83856356225E+01  0.92751538611E+02  0.00000000000E+00 0. -1.
         15    1    4    4    0    0 -0.20385612900E+02  0.79735489850E+01  0.39904446224E+02  0.45513904745E+02  0.00000000000E+00 0.  1.
         15    1    3    3    0    0 -0.38106805574E+02 -0.17699225271E+02 -0.16490038953E+03  0.17016912080E+03  0.00000000000E+00 0. -1.
        -16    1    3    3    0    0 -0.11089267157E+03 -0.63397865704E+02 -0.15501682176E+03  0.20086485260E+03  0.00000000000E+00 0.  1.
         16    1    1    2    0    0 -0.71107023688E+02  0.10170486111E+03 -0.10902783082E+03  0.16518824257E+03  0.00000000000E+00 0. -1.
    9900018    1    3    3    0    0  0.78835372916E+01  0.30799809401E+01 -0.22756086041E+02  0.94364475776E+02  0.91187600000E+02 0.  0.
<mgrwt>
<rscale>  0 0.89494779E+03</rscale>
<asrwt>0</asrwt>
<pdfrwt beam="1">  1        2 0.14017979E+00 0.89494779E+03</pdfrwt>
<pdfrwt beam="2">  1       -2 0.33808297E-01 0.89494779E+03</pdfrwt>
<totfact> 0.23625827E+02</totfact>
</mgrwt>
</event>
