<event>
12    1  0.2689107E-011  0.2914903E+04  0.7818608E-02  0.8268457E-01
         -2   -1    0    0    0  501 -0.00000000000E+00  0.00000000000E+00  0.80734211096E+03  0.80734211096E+03  0.00000000000E+00 0. -1.
          2   -1    0    0  501    0  0.00000000000E+00 -0.00000000000E+00 -0.26310587592E+04  0.26310587592E+04  0.00000000000E+00 0.  1.
         23    2    1    2    0    0 -0.38600451053E+03  0.59374495867E+02  0.87024493665E+02  0.41018473400E+03  0.90296404144E+02 0.  0.
    9900016    2    1    2    0    0  0.33864790901E+03  0.12655699518E+03 -0.62821413786E+03  0.10154742230E+04  0.71122135464E+03 0.  0.
         23    2    4    4    0    0 -0.21067894272E+03  0.10155019140E+03 -0.22274248601E+03  0.33225201120E+03  0.77968747582E+02 0.  0.
        -15    1    5    5    0    0 -0.12597889942E+03  0.17472425504E+02 -0.11449976618E+03  0.17113201106E+03  0.00000000000E+00 0. -1.
        -15    1    3    3    0    0 -0.10732686062E+02  0.20313066333E+02 -0.23170110108E-01  0.22974153973E+02  0.00000000000E+00 0.  1.
         15    1    5    5    0    0 -0.84700043291E+02  0.84077765900E+02 -0.10824271982E+03  0.16112000014E+03  0.00000000000E+00 0.  1.
         15    1    3    3    0    0 -0.37527182447E+03  0.39061429534E+02  0.87047663776E+02  0.38721058003E+03  0.00000000000E+00 0. -1.
        -16    1    1    2    0    0  0.11933271894E+03 -0.33005478685E+03  0.27399406558E+03  0.44525184795E+03  0.00000000000E+00 0.  1.
         16    1    4    4    0    0  0.54932685172E+03  0.25006803778E+02 -0.40547165185E+03  0.68322221181E+03  0.00000000000E+00 0. -1.
    9900018    1    1    2    0    0 -0.71976117408E+02  0.14412329580E+03 -0.15565210696E+04  0.15674900652E+04  0.91187600000E+02 0.  0.
<mgrwt>
<rscale>  0 0.29149028E+04</rscale>
<asrwt>0</asrwt>
<pdfrwt beam="1">  1        2 0.40477828E+00 0.29149028E+04</pdfrwt>
<pdfrwt beam="2">  1       -2 0.12420648E+00 0.29149028E+04</pdfrwt>
<totfact> 0.12249949E+00</totfact>
</mgrwt>
</event>
<event>
12    1  0.2689107E-011  0.1864921E+04  0.7818608E-02  0.8672517E-01
          2   -1    0    0  501    0  0.00000000000E+00  0.00000000000E+00  0.18566182112E+04  0.18566182112E+04  0.00000000000E+00 0. -1.
         -2   -1    0    0    0  501 -0.00000000000E+00 -0.00000000000E+00 -0.46831525354E+03  0.46831525354E+03  0.00000000000E+00 0.  1.
         23    2    1    2    0    0  0.27737369229E+03  0.93028692702E+02 -0.89962687652E+02  0.31916702215E+03  0.90464357735E+02 0.  0.
    9900016    2    1    2    0    0 -0.26917989888E+03 -0.11764614260E+02  0.12338467368E+04  0.14487376692E+04  0.70983578410E+03 0.  0.
         23    2    4    4    0    0 -0.37039559873E+03  0.72526556069E+02  0.12573887025E+04  0.13149324248E+04  0.74618574540E+02 0.  0.
        -15    1    5    5    0    0 -0.10497369650E+03  0.81558469695E+00  0.26137230122E+03  0.28166579839E+03  0.00000000000E+00 0. -1.
        -15    1    3    3    0    0  0.18686974113E+03  0.45110630346E+02 -0.16116623812E+02  0.19291193505E+03  0.00000000000E+00 0.  1.
         15    1    3    3    0    0  0.90503951153E+02  0.47918062356E+02 -0.73846063840E+02  0.12625508710E+03  0.00000000000E+00 0. -1.
         15    1    5    5    0    0 -0.26542190223E+03  0.71710971373E+02  0.99601640130E+03  0.10332666264E+04  0.00000000000E+00 0.  1.
        -16    1    4    4    0    0  0.10121569985E+03 -0.84291170329E+02 -0.23541965764E+02  0.13380524445E+03  0.00000000000E+00 0.  1.
         16    1    1    2    0    0 -0.92050819768E+02 -0.25764606379E+03  0.19477355487E+03  0.33584458502E+03  0.00000000000E+00 0. -1.
    9900018    1    1    2    0    0  0.83857026361E+02  0.17638198535E+03  0.49645353691E+02  0.22118418832E+03  0.91187600000E+02 0.  0.
<mgrwt>
<rscale>  0 0.18649210E+04</rscale>
<asrwt>0</asrwt>
<pdfrwt beam="1">  1        2 0.28563357E+00 0.18649210E+04</pdfrwt>
<pdfrwt beam="2">  1       -2 0.72048501E-01 0.18649210E+04</pdfrwt>
<totfact> 0.13152685E+01</totfact>
</mgrwt>
</event>
<event>
11    1  0.2689107E-011  0.1926812E+04  0.7818608E-02  0.9259130E-01
         -2   -1    0    0    0  501 -0.00000000000E+00  0.00000000000E+00  0.45464618013E+03  0.45464618013E+03  0.00000000000E+00 0.  1.
          2   -1    0    0  501    0  0.00000000000E+00 -0.00000000000E+00 -0.24211870001E+04  0.24211870001E+04  0.00000000000E+00 0. -1.
         23    2    1    2    0    0  0.64499215142E+02  0.12528146648E+03 -0.11215729613E+03  0.20163383463E+03  0.90671658164E+02 0.  0.
    9900016    2    1    2    0    0  0.10099579442E+03  0.82995104184E+02 -0.14257156582E+04  0.15963003426E+04  0.70598959473E+03 0.  0.
        -15    1    3    3    0    0  0.66826187307E+02  0.60242768845E+02 -0.25988602909E+02  0.93650082697E+02  0.00000000000E+00 0. -1.
        -15    1    4    4    0    0 -0.22509314489E+03 -0.17997548748E+02 -0.52404545776E+03  0.57062639041E+03  0.00000000000E+00 0. -1.
         15    1    4    4    0    0 -0.39334224944E+02 -0.73896246937E+02 -0.15963578374E+03  0.18025376560E+03  0.00000000000E+00 0.  1.
         15    1    3    3    0    0 -0.23269721646E+01  0.65038697634E+02 -0.86168693221E+02  0.10798375193E+03  0.00000000000E+00 0.  1.
        -16    1    1    2    0    0 -0.15496888669E+03 -0.39117546164E+03  0.16347243301E+03  0.45139432206E+03  0.00000000000E+00 0.  1.
         16    1    4    4    0    0  0.36542316426E+03  0.17488889987E+03 -0.74203441671E+03  0.84542018657E+03  0.00000000000E+00 0. -1.
    9900018    1    1    2    0    0 -0.10526122879E+02  0.18289889098E+03 -0.59214029860E+03  0.62650468092E+03  0.91187600000E+02 0.  0.
<mgrwt>
<rscale>  0 0.10463409E+04</rscale>
<asrwt>0</asrwt>
<pdfrwt beam="1">  1        2 0.37249030E+00 0.19268118E+04</pdfrwt>
<pdfrwt beam="2">  1       -2 0.69945567E-01 0.19268118E+04</pdfrwt>
<totfact> 0.67041016E+00</totfact>
</mgrwt>
</event>
<event>
12    1  0.2689107E-011  0.1767547E+04  0.7818608E-02  0.8723751E-01
         -2   -1    0    0    0  501 -0.00000000000E+00  0.00000000000E+00  0.65082039042E+03  0.65082039042E+03  0.00000000000E+00 0.  1.
          2   -1    0    0  501    0  0.00000000000E+00 -0.00000000000E+00 -0.12001090978E+04  0.12001090978E+04  0.00000000000E+00 0. -1.
         23    2    1    2    0    0 -0.28196350213E+03  0.98312062707E+02 -0.15124668481E+03  0.34668553279E+03  0.90258632674E+02 0.  0.
    9900016    2    1    2    0    0 -0.20096522113E+02  0.37572091427E+02 -0.40396700099E+03  0.82264638684E+03  0.71536159222E+03 0.  0.
         23    2    4    4    0    0 -0.66217430827E+02  0.89571560420E+02  0.18566612320E+03  0.22893071066E+03  0.74360933296E+02 0.  0.
        -15    1    5    5    0    0 -0.76055090614E+02  0.86492390411E+02  0.13605055609E+03  0.17825561483E+03  0.00000000000E+00 0.  1.
        -15    1    3    3    0    0 -0.14029709179E+03  0.55480527216E+02 -0.12596618279E+03  0.19654221448E+03  0.00000000000E+00 0. -1.
         15    1    5    5    0    0  0.98376597864E+01  0.30791700093E+01  0.49615567110E+02  0.50675095833E+02  0.00000000000E+00 0. -1.
         15    1    3    3    0    0 -0.14166641034E+03  0.42831535491E+02 -0.25280502019E+02  0.15014331831E+03  0.00000000000E+00 0.  1.
        -16    1    1    2    0    0  0.16484598476E+03 -0.25994303519E+03  0.22457976831E+03  0.38102578990E+03  0.00000000000E+00 0.  1.
         16    1    4    4    0    0  0.46120908715E+02 -0.51999468993E+02 -0.58963312419E+03  0.59371567618E+03  0.00000000000E+00 0. -1.
    9900018    1    1    2    0    0  0.13721403949E+03  0.12405888105E+03 -0.21865478985E+03  0.30057177865E+03  0.91187600000E+02 0.  0.
<mgrwt>
<rscale>  0 0.17675469E+04</rscale>
<asrwt>0</asrwt>
<pdfrwt beam="1">  1        2 0.18463217E+00 0.17675469E+04</pdfrwt>
<pdfrwt beam="2">  1       -2 0.10012621E+00 0.17675469E+04</pdfrwt>
<totfact> 0.14764529E+01</totfact>
</mgrwt>
</event>
