<event>
13    1  0.1020632E-007  0.6341890E+04  0.7818608E-02  0.7649399E-01
         -2   -1    0    0    0  501 -0.00000000000E+00  0.00000000000E+00  0.34543284563E+04  0.34543284563E+04  0.00000000000E+00 0.  1.
          2   -1    0    0  501    0  0.00000000000E+00 -0.00000000000E+00 -0.29108091231E+04  0.29108091231E+04  0.00000000000E+00 0. -1.
    9900016    2    1    2    0    0  0.58255079152E+03 -0.20000810187E+04 -0.46936051572E+03  0.28319869570E+04  0.18601508876E+04 0.  0.
         24    2    3    3    0    0  0.27044925867E+03 -0.43045092594E+02 -0.77580223665E+03  0.82666815157E+03  0.80718281172E+02 0.  0.
    9900016    2    1    2    0    0 -0.50156396339E+03  0.81954476304E+03  0.10665264275E+04  0.23451195407E+04  0.18544236332E+04 0.  0.
         23    2    5    5    0    0  0.64309213084E+03  0.19698127437E+03  0.28455257161E+02  0.67916197033E+03  0.89900884789E+02 0.  0.
        -15    1    4    4    0    0  0.20477976008E+03  0.37635975783E+01 -0.55014587514E+03  0.58703441019E+03  0.00000000000E+00 0.  1.
        -15    1    6    6    0    0  0.13907098314E+02 -0.44078310438E+01 -0.95556722785E+01  0.17439817393E+02  0.00000000000E+00 0. -1.
         15    1    3    3    0    0  0.31210153284E+03 -0.19570359261E+04  0.30644172094E+03  0.20053188054E+04  0.00000000000E+00 0. -1.
         15    1    6    6    0    0  0.62918503252E+03  0.20138910541E+03  0.38010929440E+02  0.66172215294E+03  0.00000000000E+00 0.  1.
        -16    1    5    5    0    0 -0.11446560942E+04  0.62256348867E+03  0.10380711704E+04  0.16659575703E+04  0.00000000000E+00 0.  1.
         16    1    4    4    0    0  0.65669498592E+02 -0.46808690172E+02 -0.22565636151E+03  0.23963374138E+03  0.00000000000E+00 0. -1.
    9900018    1    1    2    0    0 -0.80986828125E+02  0.11805362557E+04 -0.53646578547E+02  0.11880310817E+04  0.91187600000E+02 0.  0.
<mgrwt>
<rscale>  0 0.63418896E+04</rscale>
<asrwt>0</asrwt>
<pdfrwt beam="1">  1        2 0.44781679E+00 0.63418896E+04</pdfrwt>
<pdfrwt beam="2">  1       -2 0.53143515E+00 0.63418896E+04</pdfrwt>
<totfact> 0.14183890E-03</totfact>
</mgrwt>
</event>
<event>
13    1  0.1020632E-007  0.4877127E+04  0.7818608E-02  0.7847746E-01
          1   -1    0    0  501    0  0.00000000000E+00  0.00000000000E+00  0.23344655819E+04  0.23344655819E+04  0.00000000000E+00 0. -1.
         -1   -1    0    0    0  501 -0.00000000000E+00 -0.00000000000E+00 -0.25473035579E+04  0.25473035579E+04  0.00000000000E+00 0.  1.
    9900016    2    1    2    0    0  0.41229582423E+01 -0.24283259742E+02 -0.19650873546E+03  0.18679737680E+04  0.18574454606E+04 0.  0.
         24    2    3    3    0    0 -0.33117170326E+03 -0.13054646265E+03 -0.96018760433E+03  0.10271885439E+04  0.80243337099E+02 0.  0.
    9900016    2    1    2    0    0 -0.35991396080E+03 -0.13376497705E+03  0.83971417408E+03  0.20689715847E+04  0.18515108414E+04 0.  0.
         23    2    5    5    0    0 -0.25980648709E+03 -0.31922563702E+03  0.14042807185E+04  0.14663501896E+04  0.93670293947E+02 0.  0.
        -15    1    6    6    0    0 -0.13475294625E+03 -0.23254276391E+03  0.94839491685E+03  0.98574206153E+03  0.00000000000E+00 0.  1.
        -15    1    4    4    0    0 -0.16055629358E+03 -0.25514016725E+02 -0.48381683306E+03  0.51039985933E+03  0.00000000000E+00 0.  1.
         15    1    6    6    0    0 -0.12505354084E+03 -0.86682873118E+02  0.45588580169E+03  0.48060812805E+03  0.00000000000E+00 0. -1.
         15    1    3    3    0    0  0.33529466150E+03  0.10626320291E+03  0.76367886887E+03  0.84078522411E+03  0.00000000000E+00 0. -1.
        -16    1    5    5    0    0 -0.10010747371E+03  0.18546065997E+03 -0.56456654446E+03  0.60262139508E+03  0.00000000000E+00 0.  1.
         16    1    4    4    0    0 -0.17061540969E+03 -0.10503244593E+03 -0.47637077128E+03  0.51678868452E+03  0.00000000000E+00 0. -1.
    9900018    1    1    2    0    0  0.35579100255E+03  0.15804823680E+03 -0.85604341466E+03  0.94482378718E+03  0.91187600000E+02 0.  0.
<mgrwt>
<rscale>  0 0.48771272E+04</rscale>
<asrwt>0</asrwt>
<pdfrwt beam="1">  1        1 0.35914855E+00 0.48771272E+04</pdfrwt>
<pdfrwt beam="2">  1       -1 0.39189285E+00 0.48771272E+04</pdfrwt>
<totfact> 0.10442919E-02</totfact>
</mgrwt>
</event>
<event>
13    1  0.1020632E-007  0.5921336E+04  0.7818608E-02  0.7700232E-01
          2   -1    0    0  501    0  0.00000000000E+00  0.00000000000E+00  0.31932352837E+04  0.31932352837E+04  0.00000000000E+00 0. -1.
         -2   -1    0    0    0  501 -0.00000000000E+00 -0.00000000000E+00 -0.27450392181E+04  0.27450392181E+04  0.00000000000E+00 0.  1.
    9900016    2    1    2    0    0  0.43084406763E+03  0.15642231727E+04  0.15473779089E+04  0.28986044760E+04  0.18371469104E+04 0.  0.
         24    2    3    3    0    0 -0.13712883895E+03  0.81169850116E+02 -0.36883575662E+03  0.40984671507E+03  0.80880476335E+02 0.  0.
    9900016    2    1    2    0    0  0.56429079187E+02 -0.12012054574E+04 -0.10444998453E+04  0.24228051454E+04  0.18256303170E+04 0.  0.
         23    2    5    5    0    0 -0.16267338749E+03 -0.38706885022E+03 -0.14318396783E+04  0.14949816427E+04  0.92305590515E+02 0.  0.
        -15    1    4    4    0    0 -0.52443290668E+02  0.77957709317E+02 -0.19396684389E+03  0.21552456869E+03  0.00000000000E+00 0.  1.
        -15    1    6    6    0    0 -0.11964437673E+03 -0.25540195917E+03 -0.80371420087E+03  0.85176373151E+03  0.00000000000E+00 0.  1.
         15    1    6    6    0    0 -0.43029010759E+02 -0.13166689104E+03 -0.62812547738E+03  0.64321791121E+03  0.00000000000E+00 0. -1.
         15    1    3    3    0    0  0.56797290658E+03  0.14830533226E+04  0.19162136656E+04  0.24887577609E+04  0.00000000000E+00 0. -1.
        -16    1    5    5    0    0  0.21910246668E+03 -0.81413660714E+03  0.38733983299E+03  0.92782350272E+03  0.00000000000E+00 0.  1.
         16    1    4    4    0    0 -0.84685548282E+02  0.32121407995E+01 -0.17486891273E+03  0.19432214639E+03  0.00000000000E+00 0. -1.
    9900018    1    1    2    0    0 -0.48727314681E+03 -0.36301771539E+03 -0.54681998061E+02  0.61686488034E+03  0.91187600000E+02 0.  0.
<mgrwt>
<rscale>  0 0.59213364E+04</rscale>
<asrwt>0</asrwt>
<pdfrwt beam="1">  1        2 0.49126696E+00 0.59213364E+04</pdfrwt>
<pdfrwt beam="2">  1       -2 0.42231373E+00 0.59213364E+04</pdfrwt>
<totfact> 0.47028655E-03</totfact>
</mgrwt>
</event>
<event>
13    1  0.1020632E-007  0.4383445E+04  0.7818608E-02  0.7931366E-01
          2   -1    0    0  501    0  0.00000000000E+00  0.00000000000E+00  0.37595419929E+04  0.37595419929E+04  0.00000000000E+00 0. -1.
         -2   -1    0    0    0  501 -0.00000000000E+00 -0.00000000000E+00 -0.12777211963E+04  0.12777211963E+04  0.00000000000E+00 0.  1.
    9900016    2    1    2    0    0  0.54827126045E+03 -0.98052370775E+02  0.21798660671E+04  0.29105271411E+04  0.18463847178E+04 0.  0.
        -24    2    3    3    0    0  0.74264515385E+03  0.74877764381E+03  0.12624330770E+04  0.16469664677E+04  0.81064710908E+02 0.  0.
    9900016    2    1    2    0    0 -0.33005127829E+03  0.71487616627E+02  0.32084225305E+03  0.18879944227E+04  0.18296280669E+04 0.  0.
         23    2    5    5    0    0 -0.97091578793E+03  0.11248954366E+03 -0.26715512637E+03  0.10172881599E+04  0.90398971863E+02 0.  0.
        -15    1    6    6    0    0 -0.47767428518E+02 -0.10302512317E+02 -0.16197108956E+01  0.48892662544E+02  0.00000000000E+00 0.  1.
        -15    1    3    3    0    0 -0.19437389340E+03 -0.84683001459E+03  0.91743299009E+03  0.12635606734E+04  0.00000000000E+00 0.  1.
         15    1    4    4    0    0  0.59165148562E+03  0.55498460317E+03  0.99608204160E+03  0.12846162165E+04  0.00000000000E+00 0. -1.
         15    1    6    6    0    0 -0.92314835941E+03  0.12279205598E+03 -0.26553541547E+03  0.96839549739E+03  0.00000000000E+00 0. -1.
        -16    1    4    4    0    0  0.15099366823E+03  0.19379304064E+03  0.26635103545E+03  0.36235025118E+03  0.00000000000E+00 0.  1.
         16    1    5    5    0    0  0.64086450964E+03 -0.41001927033E+02  0.58799737942E+03  0.87070626272E+03  0.00000000000E+00 0. -1.
    9900018    1    1    2    0    0 -0.21821998216E+03  0.26564754148E+02 -0.18887523556E+02  0.23874162544E+03  0.91187600000E+02 0.  0.
<mgrwt>
<rscale>  0 0.43834445E+04</rscale>
<asrwt>0</asrwt>
<pdfrwt beam="1">  1        2 0.57839107E+00 0.43834445E+04</pdfrwt>
<pdfrwt beam="2">  1       -2 0.19657249E+00 0.43834445E+04</pdfrwt>
<totfact> 0.56310469E-02</totfact>
</mgrwt>
</event>
<event>
13    1  0.1020632E-007  0.5047616E+04  0.7818608E-02  0.7821204E-01
         -2   -1    0    0    0  501 -0.00000000000E+00  0.00000000000E+00  0.22951493539E+04  0.22951493539E+04  0.00000000000E+00 0.  1.
          2   -1    0    0  501    0  0.00000000000E+00 -0.00000000000E+00 -0.27752467999E+04  0.27752467999E+04  0.00000000000E+00 0. -1.
    9900016    2    1    2    0    0 -0.79436877990E+01 -0.26960587667E+03  0.14110330931E+04  0.23337680237E+04  0.18392140624E+04 0.  0.
        -24    2    3    3    0    0  0.38379791270E+03  0.12528017610E+03 -0.31624800340E+03  0.51913404880E+03  0.80569228952E+02 0.  0.
    9900016    2    1    2    0    0 -0.41010522045E+02  0.26299998529E+03 -0.17278462743E+04  0.25431931746E+04  0.18470321926E+04 0.  0.
         23    2    5    5    0    0 -0.33474171248E+03  0.16877997080E+03 -0.20564792794E+04  0.20924659007E+04  0.93636671323E+02 0.  0.
        -15    1    6    6    0    0 -0.18506054005E+03  0.14156267315E+03 -0.11598333111E+04  0.11830049465E+04  0.00000000000E+00 0.  1.
        -15    1    3    3    0    0 -0.39174160050E+03 -0.39488605277E+03  0.17272810965E+04  0.18146339749E+04  0.00000000000E+00 0.  1.
         15    1    4    4    0    0  0.69460176864E+02 -0.13412127948E+01 -0.30560813228E+02  0.75897815033E+02  0.00000000000E+00 0. -1.
         15    1    6    6    0    0 -0.14968117243E+03  0.27217297648E+02 -0.89664596838E+03  0.90946095424E+03  0.00000000000E+00 0. -1.
        -16    1    4    4    0    0  0.31433773584E+03  0.12662138890E+03 -0.28568719017E+03  0.44323623377E+03  0.00000000000E+00 0.  1.
         16    1    5    5    0    0  0.29373119044E+03  0.94220014486E+02  0.32863300513E+03  0.45072727389E+03  0.00000000000E+00 0. -1.
    9900018    1    1    2    0    0  0.48954209844E+02  0.66058913834E+01 -0.16328426489E+03  0.19343495552E+03  0.91187600000E+02 0.  0.
<mgrwt>
<rscale>  0 0.50476156E+04</rscale>
<asrwt>0</asrwt>
<pdfrwt beam="1">  1        2 0.42696105E+00 0.50476156E+04</pdfrwt>
<pdfrwt beam="2">  1       -2 0.35309990E+00 0.50476156E+04</pdfrwt>
<totfact> 0.25816590E-02</totfact>
</mgrwt>
</event>
<event>
13    1  0.1020632E-007  0.4812997E+04  0.7818608E-02  0.7858020E-01
         -2   -1    0    0    0  501 -0.00000000000E+00  0.00000000000E+00  0.21885914923E+04  0.21885914923E+04  0.00000000000E+00 0.  1.
          2   -1    0    0  501    0  0.00000000000E+00 -0.00000000000E+00 -0.26461018875E+04  0.26461018875E+04  0.00000000000E+00 0. -1.
    9900016    2    1    2    0    0  0.65542940356E+03 -0.12031079093E+03  0.75470480217E+03  0.20965767011E+04  0.18390193407E+04 0.  0.
        -24    2    3    3    0    0 -0.48444568042E+03 -0.21643624406E+03 -0.23289995441E+03  0.58531283761E+03  0.82561880392E+02 0.  0.
    9900016    2    1    2    0    0 -0.34169310026E+03  0.12126488002E+03 -0.48145354211E+03  0.19376423485E+04  0.18415213850E+04 0.  0.
         23    2    5    5    0    0  0.17280536222E+03 -0.40714893459E+03 -0.95834214937E+03  0.10593755490E+04  0.90691401666E+02 0.  0.
        -15    1    3    3    0    0  0.11398750840E+04  0.96125453128E+02  0.98760475658E+03  0.15112638635E+04  0.00000000000E+00 0.  1.
        -15    1    6    6    0    0  0.15718175039E+03 -0.27557398428E+03 -0.71706968792E+03  0.78411482628E+03  0.00000000000E+00 0.  1.
         15    1    4    4    0    0 -0.19563519114E+03 -0.12959381068E+03 -0.86803564868E+02  0.25020500126E+03  0.00000000000E+00 0. -1.
         15    1    6    6    0    0  0.15623611831E+02 -0.13157495031E+03 -0.24127246145E+03  0.27526072268E+03  0.00000000000E+00 0. -1.
        -16    1    4    4    0    0 -0.28881048927E+03 -0.86842433376E+02 -0.14609638954E+03  0.33510783635E+03  0.00000000000E+00 0.  1.
         16    1    5    5    0    0 -0.51449846248E+03  0.52841381461E+03  0.47688860726E+03  0.87826679950E+03  0.00000000000E+00 0. -1.
    9900018    1    1    2    0    0 -0.31373630331E+03 -0.95408909204E+00 -0.73076165525E+03  0.80047433030E+03  0.91187600000E+02 0.  0.
<mgrwt>
<rscale>  0 0.48129974E+04</rscale>
<asrwt>0</asrwt>
<pdfrwt beam="1">  1        2 0.40709260E+00 0.48129974E+04</pdfrwt>
<pdfrwt beam="2">  1       -2 0.33670638E+00 0.48129974E+04</pdfrwt>
<totfact> 0.39823021E-02</totfact>
</mgrwt>
</event>
<event>
13    1  0.1020632E-007  0.7987727E+04  0.7818608E-02  0.7483347E-01
          2   -1    0    0  501    0  0.00000000000E+00  0.00000000000E+00  0.31091601091E+04  0.31091601091E+04  0.00000000000E+00 0. -1.
         -2   -1    0    0    0  501 -0.00000000000E+00 -0.00000000000E+00 -0.51303067360E+04  0.51303067360E+04  0.00000000000E+00 0.  1.
    9900016    2    1    2    0    0 -0.14507389012E+04  0.21416710067E+04 -0.26157578915E+04  0.41171531348E+04  0.18486109727E+04 0.  0.
         24    2    3    3    0    0 -0.45732803075E+03  0.18476505740E+04 -0.23908282076E+04  0.30570085526E+04  0.79247722446E+02 0.  0.
    9900016    2    1    2    0    0  0.80228434402E+03 -0.23261901047E+04 -0.19218901676E+03  0.30821644559E+04  0.18460716517E+04 0.  0.
         23    2    5    5    0    0  0.16240054700E+03 -0.14239630518E+03  0.62247306705E+03  0.66512474928E+03  0.90926165184E+02 0.  0.
        -15    1    6    6    0    0  0.36724145784E+02 -0.84462183634E+02  0.30969462627E+03  0.32309949688E+03  0.00000000000E+00 0.  1.
        -15    1    4    4    0    0 -0.16188002247E+03  0.52368306930E+03 -0.71634094745E+03  0.90199415283E+03  0.00000000000E+00 0.  1.
         15    1    3    3    0    0 -0.99341087047E+03  0.29402043271E+03 -0.22492968390E+03  0.10601445822E+04  0.00000000000E+00 0. -1.
         15    1    6    6    0    0  0.12567640122E+03 -0.57934121542E+02  0.31277844078E+03  0.34202525240E+03  0.00000000000E+00 0. -1.
        -16    1    5    5    0    0  0.63988379702E+03 -0.21837937995E+04 -0.81466208381E+03  0.24170397066E+04  0.00000000000E+00 0.  1.
         16    1    4    4    0    0 -0.29544800828E+03  0.13239675047E+04 -0.16744872601E+04  0.21550143998E+04  0.00000000000E+00 0. -1.
    9900018    1    1    2    0    0  0.64845455720E+03  0.18451909800E+03  0.78680028134E+03  0.10401492544E+04  0.91187600000E+02 0.  0.
<mgrwt>
<rscale>  0 0.79877268E+04</rscale>
<asrwt>0</asrwt>
<pdfrwt beam="1">  1        2 0.47833233E+00 0.79877268E+04</pdfrwt>
<pdfrwt beam="2">  1       -2 0.78927795E+00 0.79877268E+04</pdfrwt>
<totfact> 0.79067397E-05</totfact>
</mgrwt>
</event>
<event>
13    1  0.1020632E-007  0.5505358E+04  0.7818608E-02  0.7754952E-01
         -2   -1    0    0    0  501 -0.00000000000E+00  0.00000000000E+00  0.32996499866E+04  0.32996499866E+04  0.00000000000E+00 0. -1.
          2   -1    0    0  501    0  0.00000000000E+00 -0.00000000000E+00 -0.22963776557E+04  0.22963776557E+04  0.00000000000E+00 0.  1.
    9900016    2    1    2    0    0 -0.13324397090E+04  0.35882987602E+03  0.11855067471E+04  0.25937915836E+04  0.18488304611E+04 0.  0.
         24    2    3    3    0    0 -0.23717395372E+03  0.83050793851E+03  0.10963706897E+04  0.13979519180E+04  0.79031357145E+02 0.  0.
    9900016    2    1    2    0    0  0.39149323413E+03 -0.51289942424E+03 -0.46333733385E+03  0.20040117738E+04  0.18398502474E+04 0.  0.
         23    2    5    5    0    0 -0.27133520868E+03 -0.30052372083E+03 -0.10274671407E+04  0.11080835273E+04  0.90681177478E+02 0.  0.
        -15    1    6    6    0    0 -0.76083616660E+02 -0.11389483617E+03 -0.45363103305E+03  0.47385848581E+03  0.00000000000E+00 0.  1.
        -15    1    4    4    0    0 -0.22546188076E+02  0.20030245007E+03  0.25510349869E+03  0.32512643255E+03  0.00000000000E+00 0.  1.
         15    1    6    6    0    0 -0.19525159202E+03 -0.18662888466E+03 -0.57383610765E+03  0.63422504146E+03  0.00000000000E+00 0. -1.
         15    1    3    3    0    0 -0.10952657553E+04 -0.47167806250E+03  0.89136057441E+02  0.11958396657E+04  0.00000000000E+00 0. -1.
        -16    1    5    5    0    0  0.66282844281E+03 -0.21237570341E+03  0.56412980685E+03  0.89592824656E+03  0.00000000000E+00 0.  1.
         16    1    4    4    0    0 -0.21462776564E+03  0.63020548844E+03  0.84126719102E+03  0.10728254854E+04  0.00000000000E+00 0. -1.
    9900018    1    1    2    0    0  0.94094647485E+03  0.15406954822E+03  0.28110291756E+03  0.99822428486E+03  0.91187600000E+02 0.  0.
<mgrwt>
<rscale>  0 0.55053583E+04</rscale>
<asrwt>0</asrwt>
<pdfrwt beam="1">  1        2 0.35328887E+00 0.55053583E+04</pdfrwt>
<pdfrwt beam="2">  1       -2 0.50763846E+00 0.55053583E+04</pdfrwt>
<totfact> 0.47665401E-03</totfact>
</mgrwt>
</event>
<event>
13    1  0.1020632E-007  0.5262214E+04  0.7818608E-02  0.7789284E-01
          2   -1    0    0  501    0  0.00000000000E+00  0.00000000000E+00  0.35606338459E+04  0.35606338459E+04  0.00000000000E+00 0. -1.
         -2   -1    0    0    0  501 -0.00000000000E+00 -0.00000000000E+00 -0.19442389703E+04  0.19442389703E+04  0.00000000000E+00 0.  1.
    9900016    2    1    2    0    0  0.84470727080E+03 -0.22458412363E+03 -0.83969518922E+03  0.22052807286E+04  0.18423372870E+04 0.  0.
        -24    2    3    3    0    0 -0.33169813116E+03  0.19325171886E+03  0.31621459681E+03  0.50391542554E+03  0.81050649659E+02 0.  0.
    9900016    2    1    2    0    0 -0.62532700462E+03  0.15072805185E+03  0.20817365473E+04  0.28501055416E+04  0.18373137288E+04 0.  0.
         23    2    5    5    0    0  0.16473288042E+03 -0.52511723379E+03  0.40432137012E+02  0.55927923496E+03  0.90958638112E+02 0.  0.
        -15    1    6    6    0    0  0.21289126500E+02 -0.42211118071E+02 -0.21107793742E+02  0.51773973699E+02  0.00000000000E+00 0. -1.
        -15    1    3    3    0    0  0.11764054020E+04 -0.41783584249E+03 -0.11559097860E+04  0.17013653031E+04  0.00000000000E+00 0.  1.
         15    1    4    4    0    0 -0.22350745711E+03  0.84550839739E+02  0.19014996173E+03  0.30538735375E+03  0.00000000000E+00 0. -1.
         15    1    6    6    0    0  0.14344375392E+03 -0.48290611572E+03  0.61539930754E+02  0.50750526126E+03  0.00000000000E+00 0.  1.
        -16    1    4    4    0    0 -0.10819067405E+03  0.10870087912E+03  0.12606463508E+03  0.19852807179E+03  0.00000000000E+00 0.  1.
         16    1    5    5    0    0 -0.79005988503E+03  0.67584528564E+03  0.20413044102E+04  0.22908263067E+04  0.00000000000E+00 0. -1.
    9900018    1    1    2    0    0 -0.21938026619E+03  0.73856071778E+02  0.37435351756E+03  0.44948654600E+03  0.91187600000E+02 0.  0.
<mgrwt>
<rscale>  0 0.52622136E+04</rscale>
<asrwt>0</asrwt>
<pdfrwt beam="1">  1        2 0.54778982E+00 0.52622136E+04</pdfrwt>
<pdfrwt beam="2">  1       -2 0.29911369E+00 0.52622136E+04</pdfrwt>
<totfact> 0.16866490E-02</totfact>
</mgrwt>
</event>
<event>
13    1  0.1020632E-007  0.5789930E+04  0.7818608E-02  0.7717008E-01
          2   -1    0    0  501    0  0.00000000000E+00  0.00000000000E+00  0.24674441014E+04  0.24674441014E+04  0.00000000000E+00 0. -1.
         -2   -1    0    0    0  501 -0.00000000000E+00 -0.00000000000E+00 -0.33965597588E+04  0.33965597588E+04  0.00000000000E+00 0.  1.
    9900016    2    1    2    0    0  0.34169314485E+03  0.12507627719E+04 -0.60274404963E+03  0.23271378308E+04  0.18360578360E+04 0.  0.
        -24    2    3    3    0    0  0.14493579418E+03 -0.17299221688E+02 -0.97659333870E+03  0.99055339063E+03  0.78459052912E+02 0.  0.
    9900016    2    1    2    0    0 -0.25632876677E+03 -0.20053872261E+04 -0.85416104963E+02  0.27349184771E+04  0.18398915190E+04 0.  0.
         23    2    5    5    0    0 -0.18737288942E+03 -0.43127316482E+03  0.79634619271E+03  0.92934523275E+03  0.91706927813E+02 0.  0.
        -15    1    6    6    0    0 -0.14862130658E+03 -0.26532258875E+03  0.44688478462E+03  0.54054637136E+03  0.00000000000E+00 0.  1.
        -15    1    3    3    0    0  0.19675735067E+03  0.12680619936E+04  0.37384928907E+03  0.13365844401E+04  0.00000000000E+00 0.  1.
         15    1    4    4    0    0  0.27973534976E+02 -0.15163574196E+02 -0.75969024957E+02  0.82363495521E+02  0.00000000000E+00 0. -1.
         15    1    6    6    0    0 -0.38751582838E+02 -0.16595057607E+03  0.34946140809E+03  0.38879886139E+03  0.00000000000E+00 0. -1.
        -16    1    4    4    0    0  0.11696225921E+03 -0.21356474917E+01 -0.90062431374E+03  0.90818989511E+03  0.00000000000E+00 0.  1.
         16    1    5    5    0    0 -0.68955877356E+02 -0.15741140613E+04 -0.88176229767E+03  0.18055732443E+04  0.00000000000E+00 0. -1.
    9900018    1    1    2    0    0 -0.85364378080E+02  0.75462445420E+03 -0.24095550283E+03  0.80194755231E+03  0.91187600000E+02 0.  0.
<mgrwt>
<rscale>  0 0.57899297E+04</rscale>
<asrwt>0</asrwt>
<pdfrwt beam="1">  1        2 0.37960678E+00 0.57899297E+04</pdfrwt>
<pdfrwt beam="2">  1       -2 0.52254766E+00 0.57899297E+04</pdfrwt>
<totfact> 0.30441721E-03</totfact>
</mgrwt>
</event>
<event>
13    1  0.1020632E-007  0.5014858E+04  0.7818608E-02  0.7826219E-01
         -2   -1    0    0    0  501 -0.00000000000E+00  0.00000000000E+00  0.18328714004E+04  0.18328714004E+04  0.00000000000E+00 0.  1.
          2   -1    0    0  501    0  0.00000000000E+00 -0.00000000000E+00 -0.34302458468E+04  0.34302458468E+04  0.00000000000E+00 0. -1.
    9900016    2    1    2    0    0  0.35212806986E+03  0.44283653601E+02 -0.19109083493E+03  0.18801838730E+04  0.18364695668E+04 0.  0.
         24    2    3    3    0    0  0.10607353392E+04 -0.14549355602E+03  0.12589349399E+03  0.10810476417E+04  0.80541897369E+02 0.  0.
    9900016    2    1    2    0    0 -0.11282065562E+04 -0.42156450457E+03 -0.10881292176E+04  0.24587169199E+04  0.18468072539E+04 0.  0.
         23    2    5    5    0    0 -0.78196946653E+03 -0.33715535791E+03 -0.16117996252E+04  0.18252852171E+04  0.92833776825E+02 0.  0.
        -15    1    4    4    0    0  0.18234036077E+03 -0.17455618189E+02  0.51404704999E+02  0.19025022856E+03  0.00000000000E+00 0.  1.
        -15    1    6    6    0    0 -0.76068563432E+03 -0.31184943228E+03 -0.15266674486E+04  0.17339568049E+04  0.00000000000E+00 0. -1.
         15    1    3    3    0    0 -0.70860726931E+03  0.18977720962E+03 -0.31698432892E+03  0.79913623131E+03  0.00000000000E+00 0. -1.
         15    1    6    6    0    0 -0.21283832208E+02 -0.25305925639E+02 -0.85132176614E+02  0.91328412233E+02  0.00000000000E+00 0.  1.
        -16    1    5    5    0    0 -0.34623708969E+03 -0.84409146655E+02  0.52367040761E+03  0.63343170280E+03  0.00000000000E+00 0.  1.
         16    1    4    4    0    0  0.87839497839E+03 -0.12803793783E+03  0.74488788990E+02  0.89079741315E+03  0.00000000000E+00 0. -1.
    9900018    1    1    2    0    0  0.77607848636E+03  0.37728085097E+03 -0.31815439395E+03  0.92421645423E+03  0.91187600000E+02 0.  0.
<mgrwt>
<rscale>  0 0.50148577E+04</rscale>
<asrwt>0</asrwt>
<pdfrwt beam="1">  1        2 0.52773012E+00 0.50148577E+04</pdfrwt>
<pdfrwt beam="2">  1       -2 0.28198022E+00 0.50148577E+04</pdfrwt>
<totfact> 0.27023917E-02</totfact>
</mgrwt>
</event>
<event>
13    1  0.1020632E-007  0.4926304E+04  0.7818608E-02  0.7839977E-01
          2   -1    0    0  501    0  0.00000000000E+00  0.00000000000E+00  0.41119737898E+04  0.41119737898E+04  0.00000000000E+00 0. -1.
         -2   -1    0    0    0  501 -0.00000000000E+00 -0.00000000000E+00 -0.14754755436E+04  0.14754755436E+04  0.00000000000E+00 0.  1.
    9900016    2    1    2    0    0 -0.10512731171E+04  0.50814521322E+03  0.10436646216E+04  0.24199458516E+04  0.18448618804E+04 0.  0.
         24    2    3    3    0    0  0.16993404617E+03 -0.37584142269E+03  0.78493295770E+03  0.89033106931E+03  0.80220382886E+02 0.  0.
    9900016    2    1    2    0    0  0.33655993934E+03 -0.28641720364E+03  0.75552297298E+03  0.20408347006E+04  0.18436062229E+04 0.  0.
         23    2    5    5    0    0 -0.12417544717E+03  0.42942578014E+03 -0.39923096655E+03  0.60620410890E+03  0.90950616606E+02 0.  0.
        -15    1    6    6    0    0 -0.40360992797E+02  0.13417730236E+03 -0.18430191662E+03  0.23151620824E+03  0.00000000000E+00 0.  1.
        -15    1    4    4    0    0  0.74242833258E+02 -0.19940757211E+03  0.32435980767E+03  0.38792352718E+03  0.00000000000E+00 0.  1.
         15    1    3    3    0    0 -0.12212071633E+04  0.88398663591E+03  0.25873166390E+03  0.15296147823E+04  0.00000000000E+00 0. -1.
         15    1    6    6    0    0 -0.83814454372E+02  0.29524847779E+03 -0.21492904993E+03  0.37468790066E+03  0.00000000000E+00 0. -1.
        -16    1    5    5    0    0  0.46073538651E+03 -0.71584298379E+03  0.11547539395E+04  0.14346305917E+04  0.00000000000E+00 0.  1.
         16    1    4    4    0    0  0.95691212914E+02 -0.17643385057E+03  0.46057315004E+03  0.50240754213E+03  0.00000000000E+00 0. -1.
    9900018    1    1    2    0    0  0.71471317781E+03 -0.22172800958E+03  0.83731065159E+03  0.11266687811E+04  0.91187600000E+02 0.  0.
<mgrwt>
<rscale>  0 0.49263036E+04</rscale>
<asrwt>0</asrwt>
<pdfrwt beam="1">  1        2 0.63261135E+00 0.49263036E+04</pdfrwt>
<pdfrwt beam="2">  1       -2 0.22699624E+00 0.49263036E+04</pdfrwt>
<totfact> 0.17981623E-02</totfact>
</mgrwt>
</event>
<event>
13    1  0.1020632E-007  0.4650286E+04  0.7818608E-02  0.7884842E-01
         -1   -1    0    0    0  501 -0.00000000000E+00  0.00000000000E+00  0.42597163493E+04  0.42597163493E+04  0.00000000000E+00 0.  1.
          1   -1    0    0  501    0  0.00000000000E+00 -0.00000000000E+00 -0.12691665354E+04  0.12691665354E+04  0.00000000000E+00 0. -1.
    9900016    2    1    2    0    0  0.16282805000E+03 -0.33790623917E+03  0.31684861182E+03  0.19129352045E+04  0.18488467902E+04 0.  0.
        -24    2    3    3    0    0  0.49430964619E+03 -0.27777606054E+03 -0.66345431489E+03  0.87635934377E+03  0.79577040258E+02 0.  0.
    9900016    2    1    2    0    0 -0.19275295478E+03 -0.22493265676E+03  0.20116670317E+04  0.27417122749E+04  0.18391393504E+04 0.  0.
         23    2    5    5    0    0  0.77476629785E+02  0.40099192608E+03 -0.17348055864E+03  0.45267850419E+03  0.89583318705E+02 0.  0.
        -15    1    3    3    0    0 -0.33148159620E+03 -0.60130178631E+02  0.98030292671E+03  0.10365758608E+04  0.00000000000E+00 0.  1.
        -15    1    6    6    0    0  0.47066906135E+02  0.99999658691E+02 -0.78609793352E+02  0.13562715437E+03  0.00000000000E+00 0.  1.
         15    1    4    4    0    0  0.23584769275E+03 -0.16263596206E+03 -0.37954024645E+03  0.47552643356E+03  0.00000000000E+00 0. -1.
         15    1    6    6    0    0  0.30409723651E+02  0.30099226738E+03 -0.94870765287E+02  0.31705134982E+03  0.00000000000E+00 0. -1.
        -16    1    4    4    0    0  0.25846195344E+03 -0.11514009848E+03 -0.28391406844E+03  0.40083291021E+03  0.00000000000E+00 0.  1.
         16    1    5    5    0    0 -0.27022958456E+03 -0.62592458284E+03  0.21851475903E+04  0.22890337707E+04  0.00000000000E+00 0. -1.
    9900018    1    1    2    0    0  0.29924904782E+02  0.56283889593E+03  0.66203417040E+03  0.87423540530E+03  0.91187600000E+02 0.  0.
<mgrwt>
<rscale>  0 0.46502858E+04</rscale>
<asrwt>0</asrwt>
<pdfrwt beam="1">  1        1 0.19525639E+00 0.46502858E+04</pdfrwt>
<pdfrwt beam="2">  1       -1 0.65534097E+00 0.46502858E+04</pdfrwt>
<totfact> 0.20010485E-03</totfact>
</mgrwt>
</event>
<event>
13    1  0.1020632E-007  0.5876785E+04  0.7818608E-02  0.7705869E-01
          2   -1    0    0  501    0  0.00000000000E+00  0.00000000000E+00  0.32232112733E+04  0.32232112733E+04  0.00000000000E+00 0. -1.
         -2   -1    0    0    0  501 -0.00000000000E+00 -0.00000000000E+00 -0.26787419502E+04  0.26787419502E+04  0.00000000000E+00 0.  1.
    9900016    2    1    2    0    0 -0.82541329321E+02 -0.45520983104E+03 -0.73213455457E+03  0.20338674068E+04  0.18402626337E+04 0.  0.
        -24    2    3    3    0    0  0.28390082599E+03  0.15989293727E+03  0.50415444762E+03  0.60521707665E+03  0.77139953471E+02 0.  0.
    9900016    2    1    2    0    0 -0.92368650017E+03  0.61522536896E+03  0.17207011453E+04  0.27529010882E+04  0.18400959118E+04 0.  0.
         23    2    5    5    0    0 -0.33561318913E+03 -0.21114761472E+03 -0.29102419718E+03  0.49995604207E+03  0.89674036027E+02 0.  0.
        -15    1    6    6    0    0 -0.19532197418E+03 -0.93607039254E+02 -0.11159975624E+03  0.24365438020E+03  0.00000000000E+00 0.  1.
        -15    1    3    3    0    0 -0.36644215531E+03 -0.61510276831E+03 -0.12362890022E+04  0.14286503301E+04  0.00000000000E+00 0.  1.
         15    1    6    6    0    0 -0.14029121495E+03 -0.11754057546E+03 -0.17942444094E+03  0.25630166187E+03  0.00000000000E+00 0. -1.
         15    1    4    4    0    0  0.19033176019E+03  0.70927531553E+02  0.27060188435E+03  0.33835229197E+03  0.00000000000E+00 0. -1.
        -16    1    4    4    0    0  0.93569065806E+02  0.88965405718E+02  0.23355256327E+03  0.26686478467E+03  0.00000000000E+00 0.  1.
         16    1    5    5    0    0 -0.58807331104E+03  0.82637298368E+03  0.20117253425E+04  0.22529450461E+04  0.00000000000E+00 0. -1.
    9900018    1    1    2    0    0  0.10062278295E+04 -0.16001553792E+03 -0.44409726760E+03  0.11151847285E+04  0.91187600000E+02 0.  0.
<mgrwt>
<rscale>  0 0.58767853E+04</rscale>
<asrwt>0</asrwt>
<pdfrwt beam="1">  1        2 0.49587866E+00 0.58767853E+04</pdfrwt>
<pdfrwt beam="2">  1       -2 0.41211415E+00 0.58767853E+04</pdfrwt>
<totfact> 0.52630687E-03</totfact>
</mgrwt>
</event>
<event>
13    1  0.1020632E-007  0.4725897E+04  0.7818608E-02  0.7872240E-01
          1   -1    0    0  501    0  0.00000000000E+00  0.00000000000E+00  0.23555665508E+04  0.23555665508E+04  0.00000000000E+00 0. -1.
         -1   -1    0    0    0  501 -0.00000000000E+00 -0.00000000000E+00 -0.23703532939E+04  0.23703532939E+04  0.00000000000E+00 0.  1.
    9900016    2    1    2    0    0 -0.94756104862E+03 -0.58364795319E+02 -0.10736887405E+04  0.23361678157E+04  0.18448832379E+04 0.  0.
         24    2    3    3    0    0 -0.11067583385E+04 -0.63961678853E+03 -0.23306403380E+03  0.13018334625E+04  0.80173962107E+02 0.  0.
    9900016    2    1    2    0    0  0.89785220075E+03  0.42800750076E+02  0.95112900027E+03  0.22392747670E+04  0.18170675905E+04 0.  0.
         23    2    5    5    0    0  0.20907026782E+03  0.23859119995E+03  0.13702923149E+04  0.14095444881E+04  0.92078761250E+02 0.  0.
        -15    1    6    6    0    0  0.50312485171E+02  0.11350311174E+03  0.63239590074E+03  0.64446790286E+03  0.00000000000E+00 0.  1.
        -15    1    4    4    0    0 -0.78829847288E+03 -0.44632645962E+03 -0.12882889225E+03  0.91499654337E+03  0.00000000000E+00 0.  1.
         15    1    6    6    0    0  0.15875778265E+03  0.12508808821E+03  0.73789641412E+03  0.76507658527E+03  0.00000000000E+00 0. -1.
         15    1    3    3    0    0  0.15919728989E+03  0.58125199321E+03 -0.84062470674E+03  0.10343343532E+04  0.00000000000E+00 0. -1.
        -16    1    5    5    0    0  0.68878193294E+03 -0.19579044987E+03 -0.41916331459E+03  0.82973027888E+03  0.00000000000E+00 0.  1.
         16    1    4    4    0    0 -0.31845986563E+03 -0.19329032891E+03 -0.10423514155E+03  0.38683691913E+03  0.00000000000E+00 0. -1.
    9900018    1    1    2    0    0  0.49708847867E+02  0.15564045243E+02  0.10777299712E+03  0.15047726194E+03  0.91187600000E+02 0.  0.
<mgrwt>
<rscale>  0 0.47258967E+04</rscale>
<asrwt>0</asrwt>
<pdfrwt beam="1">  1        1 0.36239485E+00 0.47258967E+04</pdfrwt>
<pdfrwt beam="2">  1       -1 0.36466974E+00 0.47258967E+04</pdfrwt>
<totfact> 0.15603891E-02</totfact>
</mgrwt>
</event>
<event>
13    1  0.1020632E-007  0.4562284E+04  0.7818608E-02  0.7899823E-01
          1   -1    0    0  501    0  0.00000000000E+00  0.00000000000E+00  0.48589513068E+04  0.48589513068E+04  0.00000000000E+00 0. -1.
         -1   -1    0    0    0  501 -0.00000000000E+00 -0.00000000000E+00 -0.10709325547E+04  0.10709325547E+04  0.00000000000E+00 0.  1.
    9900016    2    1    2    0    0 -0.91155691058E+03 -0.57593660449E+03  0.26318579483E+04  0.33870161857E+04  0.18391746542E+04 0.  0.
         24    2    3    3    0    0  0.43703830395E+03 -0.47933379218E+03  0.14529622676E+04  0.15931833669E+04  0.79815574444E+02 0.  0.
    9900016    2    1    2    0    0  0.80027201499E+03  0.62524580601E+03  0.10459338957E+04  0.23550356365E+04  0.18495533296E+04 0.  0.
         23    2    5    5    0    0 -0.36733210344E+03  0.49615788292E+03 -0.18791436052E+03  0.65140874408E+03  0.88972051621E+02 0.  0.
        -15    1    4    4    0    0  0.22395518530E+03 -0.28737542420E+03  0.88038775459E+03  0.95279754296E+03  0.00000000000E+00 0.  1.
        -15    1    6    6    0    0 -0.34318896870E+03  0.45479841021E+03 -0.14697923961E+03  0.58840730709E+03  0.00000000000E+00 0. -1.
         15    1    6    6    0    0 -0.24143134739E+02  0.41359472711E+02 -0.40935120909E+02  0.63001436982E+02  0.00000000000E+00 0.  1.
         15    1    3    3    0    0 -0.13485952145E+04 -0.96602812312E+02  0.11788956807E+04  0.17938328188E+04  0.00000000000E+00 0. -1.
        -16    1    5    5    0    0  0.11676041184E+04  0.12908792309E+03  0.12338482562E+04  0.17036268925E+04  0.00000000000E+00 0.  1.
         16    1    4    4    0    0  0.21308311865E+03 -0.19195836798E+03  0.57257451301E+03  0.64038582389E+03  0.00000000000E+00 0. -1.
    9900018    1    1    2    0    0  0.11128489559E+03 -0.49309201516E+02  0.11022690803E+03  0.18783203930E+03  0.91187600000E+02 0.  0.
<mgrwt>
<rscale>  0 0.45622841E+04</rscale>
<asrwt>0</asrwt>
<pdfrwt beam="1">  1        1 0.74753096E+00 0.45622841E+04</pdfrwt>
<pdfrwt beam="2">  1       -1 0.16475886E+00 0.45622841E+04</pdfrwt>
<totfact> 0.25706322E-03</totfact>
</mgrwt>
</event>
<event>
13    1  0.1020632E-007  0.6693890E+04  0.7818608E-02  0.7609856E-01
         -2   -1    0    0    0  501 -0.00000000000E+00  0.00000000000E+00  0.26375862597E+04  0.26375862597E+04  0.00000000000E+00 0.  1.
          2   -1    0    0  501    0  0.00000000000E+00 -0.00000000000E+00 -0.42470805315E+04  0.42470805315E+04  0.00000000000E+00 0. -1.
    9900016    2    1    2    0    0 -0.42292584375E+02 -0.41190245543E+03 -0.24748018941E+04  0.31130716231E+04  0.18425846575E+04 0.  0.
        -24    2    3    3    0    0  0.70895106114E+03 -0.36893045207E+03 -0.21473123761E+04  0.22924237130E+04  0.74395926608E+02 0.  0.
    9900016    2    1    2    0    0 -0.72784561318E+03 -0.87281067410E+03  0.39874724931E+03  0.22001008383E+04  0.18411644740E+04 0.  0.
         23    2    5    5    0    0  0.55018502208E+03 -0.34125542626E+03 -0.21195928794E+03  0.68719774791E+03  0.90306038101E+02 0.  0.
        -15    1    6    6    0    0  0.60660019747E+02 -0.58733424825E+02 -0.54412059050E+02  0.10044862049E+03  0.00000000000E+00 0.  1.
        -15    1    3    3    0    0 -0.75124364552E+03 -0.42972003363E+02 -0.32748951807E+03  0.82064791016E+03  0.00000000000E+00 0.  1.
         15    1    4    4    0    0  0.32425913215E+03 -0.12969297744E+03 -0.97109499192E+03  0.10319833993E+04  0.00000000000E+00 0. -1.
         15    1    6    6    0    0  0.48952500234E+03 -0.28252200143E+03 -0.15754722889E+03  0.58674912743E+03  0.00000000000E+00 0. -1.
        -16    1    4    4    0    0  0.38469192899E+03 -0.23923747463E+03 -0.11762173841E+04  0.12604403136E+04  0.00000000000E+00 0.  1.
         16    1    5    5    0    0 -0.12780306353E+04 -0.53155524785E+03  0.61070653725E+03  0.15129030904E+04  0.00000000000E+00 0. -1.
    9900018    1    1    2    0    0  0.77013819756E+03  0.12847131295E+04  0.46656037300E+03  0.15714943298E+04  0.91187600000E+02 0.  0.
<mgrwt>
<rscale>  0 0.66938901E+04</rscale>
<asrwt>0</asrwt>
<pdfrwt beam="1">  1        2 0.65339699E+00 0.66938901E+04</pdfrwt>
<pdfrwt beam="2">  1       -2 0.40578251E+00 0.66938901E+04</pdfrwt>
<totfact> 0.91174706E-04</totfact>
</mgrwt>
</event>
<event>
13    1  0.1020632E-007  0.5560569E+04  0.7818608E-02  0.7747409E-01
         -1   -1    0    0    0  501 -0.00000000000E+00  0.00000000000E+00  0.24212059017E+04  0.24212059017E+04  0.00000000000E+00 0.  1.
          1   -1    0    0  501    0  0.00000000000E+00 -0.00000000000E+00 -0.31926161744E+04  0.31926161744E+04  0.00000000000E+00 0. -1.
    9900016    2    1    2    0    0  0.63559811457E+03 -0.14875920490E+03  0.79138417001E+03  0.21214467896E+04  0.18569149987E+04 0.  0.
        -24    2    3    3    0    0 -0.19943355445E+03 -0.72442532448E+03 -0.11127781883E+03  0.76370305991E+03  0.79333582800E+02 0.  0.
    9900016    2    1    2    0    0  0.27672831259E+03 -0.23540436649E+03 -0.16271377586E+04  0.24961943792E+04  0.18577985139E+04 0.  0.
         23    2    5    5    0    0 -0.21503663314E+02  0.32255753913E+03  0.31093150505E+03  0.45747510709E+03  0.89996106530E+02 0.  0.
        -15    1    3    3    0    0  0.83503166902E+03  0.57566611958E+03  0.90266198884E+03  0.13577437297E+04  0.00000000000E+00 0.  1.
        -15    1    6    6    0    0 -0.50226836528E+01  0.82537451621E+02  0.30867386086E+02  0.88263547374E+02  0.00000000000E+00 0.  1.
         15    1    4    4    0    0 -0.12657043102E+03 -0.45359268681E+03 -0.10835149496E+03  0.48322504695E+03  0.00000000000E+00 0. -1.
         15    1    6    6    0    0 -0.16480979661E+02  0.24002008751E+03  0.28006411897E+03  0.36921155972E+03  0.00000000000E+00 0. -1.
        -16    1    4    4    0    0 -0.72863123434E+02 -0.27083263767E+03 -0.29263238695E+01  0.28047801296E+03  0.00000000000E+00 0.  1.
         16    1    5    5    0    0  0.29823197590E+03 -0.55796190562E+03 -0.19380692637E+04  0.20387192721E+04  0.00000000000E+00 0. -1.
    9900018    1    1    2    0    0 -0.91232642716E+03  0.38416357140E+03  0.64343315981E+02  0.99618090726E+03  0.91187600000E+02 0.  0.
<mgrwt>
<rscale>  0 0.55605687E+04</rscale>
<asrwt>0</asrwt>
<pdfrwt beam="1">  1        1 0.49117172E+00 0.55605687E+04</pdfrwt>
<pdfrwt beam="2">  1       -1 0.37249322E+00 0.55605687E+04</pdfrwt>
<totfact> 0.32698061E-03</totfact>
</mgrwt>
</event>
<event>
13    1  0.1020632E-007  0.5179513E+04  0.7818608E-02  0.7801397E-01
         -2   -1    0    0    0  501 -0.00000000000E+00  0.00000000000E+00  0.18247149552E+04  0.18247149552E+04  0.00000000000E+00 0.  1.
          2   -1    0    0  501    0  0.00000000000E+00 -0.00000000000E+00 -0.36755535161E+04  0.36755535161E+04  0.00000000000E+00 0. -1.
    9900016    2    1    2    0    0  0.26737376651E+03  0.91631836799E+03 -0.21210790983E+04  0.29762500534E+04  0.18568682658E+04 0.  0.
        -24    2    3    3    0    0  0.35107370235E+03  0.12110521155E+04 -0.22980154215E+04  0.26224420212E+04  0.80170480968E+02 0.  0.
    9900016    2    1    2    0    0 -0.98969252028E+02 -0.85812259599E+03 -0.16708208727E+03  0.20430682284E+04  0.18439202963E+04 0.  0.
         23    2    5    5    0    0  0.22386873721E+03  0.37987796038E+03  0.43714883672E+03  0.62816019093E+03  0.95192666464E+02 0.  0.
        -15    1    3    3    0    0 -0.83699935834E+02 -0.29473374754E+03  0.17693632318E+03  0.35380803221E+03  0.00000000000E+00 0.  1.
        -15    1    6    6    0    0  0.16775284282E+02  0.49022263325E+02  0.98970991801E+02  0.11171324757E+03  0.00000000000E+00 0.  1.
         15    1    6    6    0    0  0.20709345292E+03  0.33085569705E+03  0.33817784492E+03  0.51644694336E+03  0.00000000000E+00 0. -1.
         15    1    4    4    0    0  0.16420282133E+03  0.43447690897E+03 -0.82015158867E+03  0.94253985558E+03  0.00000000000E+00 0. -1.
        -16    1    4    4    0    0  0.18687088102E+03  0.77657520656E+03 -0.14778638328E+04  0.16799021656E+04  0.00000000000E+00 0.  1.
         16    1    5    5    0    0 -0.32283798923E+03 -0.12380005564E+04 -0.60423092399E+03  0.14149080374E+04  0.00000000000E+00 0. -1.
    9900018    1    1    2    0    0 -0.16840451448E+03 -0.58195771999E+02  0.43732262469E+03  0.48095018956E+03  0.91187600000E+02 0.  0.
<mgrwt>
<rscale>  0 0.51795125E+04</rscale>
<asrwt>0</asrwt>
<pdfrwt beam="1">  1        2 0.56546977E+00 0.51795125E+04</pdfrwt>
<pdfrwt beam="2">  1       -2 0.28072538E+00 0.51795125E+04</pdfrwt>
<totfact> 0.18152161E-02</totfact>
</mgrwt>
</event>
<event>
13    1  0.1020632E-007  0.6669517E+04  0.7818608E-02  0.7612513E-01
         -2   -1    0    0    0  501 -0.00000000000E+00  0.00000000000E+00  0.29974894789E+04  0.29974894789E+04  0.00000000000E+00 0. -1.
          2   -1    0    0  501    0  0.00000000000E+00 -0.00000000000E+00 -0.37099761011E+04  0.37099761011E+04  0.00000000000E+00 0.  1.
    9900016    2    1    2    0    0 -0.52800623571E+01  0.59158080076E+03 -0.15689502521E+04  0.25112424425E+04  0.18694218327E+04 0.  0.
        -24    2    3    3    0    0 -0.20164939499E+03 -0.63986939851E+03 -0.79710643075E+03  0.10446909116E+04  0.76844734613E+02 0.  0.
    9900016    2    1    2    0    0 -0.54558360321E+03  0.73199214076E+03  0.15575105351E+04  0.25977619865E+04  0.18679010438E+04 0.  0.
         23    2    5    5    0    0  0.78637944904E+02 -0.44709388145E+03  0.10886376478E+04  0.11836409968E+04  0.98980887483E+02 0.  0.
        -15    1    3    3    0    0  0.19636933263E+03  0.12314501993E+04 -0.77184382133E+03  0.14665515308E+04  0.00000000000E+00 0.  1.
        -15    1    6    6    0    0  0.64701270033E+02 -0.29781330939E+03  0.60707215382E+03  0.67927580668E+03  0.00000000000E+00 0.  1.
         15    1    6    6    0    0  0.13936674871E+02 -0.14928057206E+03  0.48156549393E+03  0.50436519016E+03  0.00000000000E+00 0. -1.
         15    1    4    4    0    0 -0.50327755603E+02 -0.99798619940E+02 -0.10008156506E+03  0.15002988766E+03  0.00000000000E+00 0. -1.
        -16    1    4    4    0    0 -0.15132163938E+03 -0.54007077857E+03 -0.69702486569E+03  0.89466102397E+03  0.00000000000E+00 0.  1.
         16    1    5    5    0    0 -0.62422154812E+03  0.11790860222E+04  0.46887288731E+03  0.14141209896E+04  0.00000000000E+00 0. -1.
    9900018    1    1    2    0    0  0.55086366557E+03 -0.13235729415E+04 -0.70104690523E+03  0.15984611510E+04  0.91187600000E+02 0.  0.
<mgrwt>
<rscale>  0 0.66695170E+04</rscale>
<asrwt>0</asrwt>
<pdfrwt beam="1">  1        2 0.57076556E+00 0.66695170E+04</pdfrwt>
<pdfrwt beam="2">  1       -2 0.46115222E+00 0.66695170E+04</pdfrwt>
<totfact> 0.10792668E-03</totfact>
</mgrwt>
</event>
<event>
13    1  0.1020632E-007  0.5974357E+04  0.7818608E-02  0.7693589E-01
          1   -1    0    0  501    0  0.00000000000E+00  0.00000000000E+00  0.41640463847E+04  0.41640463847E+04  0.00000000000E+00 0. -1.
         -1   -1    0    0    0  501 -0.00000000000E+00 -0.00000000000E+00 -0.21429242672E+04  0.21429242672E+04  0.00000000000E+00 0.  1.
    9900016    2    1    2    0    0  0.34988110582E+03 -0.34484924318E+03  0.20784605530E+04  0.28157763171E+04  0.18350095937E+04 0.  0.
        -24    2    3    3    0    0 -0.48242896999E+03  0.23002696161E+03  0.16151456744E+04  0.17031742365E+04  0.80354316017E+02 0.  0.
    9900016    2    1    2    0    0 -0.32062506596E+03 -0.87004896012E+03  0.58291986839E+03  0.21145754935E+04  0.18088251211E+04 0.  0.
         23    2    5    5    0    0  0.27091314422E+03  0.11355350329E+03 -0.46700579205E+03  0.55902570239E+03  0.90149854734E+02 0.  0.
        -15    1    3    3    0    0  0.83231007581E+03 -0.57487620479E+03  0.46331487854E+03  0.11126020806E+04  0.00000000000E+00 0.  1.
        -15    1    6    6    0    0  0.17257814177E+03  0.78723968779E+02 -0.37361287010E+03  0.41900746411E+03  0.00000000000E+00 0. -1.
         15    1    6    6    0    0  0.98335002451E+02  0.34829534511E+02 -0.93392921946E+02  0.14001823828E+03  0.00000000000E+00 0.  1.
         15    1    4    4    0    0 -0.20503593009E+03  0.12865664715E+03  0.81869868152E+03  0.85373286021E+03  0.00000000000E+00 0. -1.
        -16    1    4    4    0    0 -0.27739303990E+03  0.10137031446E+03  0.79644699292E+03  0.84944137630E+03  0.00000000000E+00 0.  1.
         16    1    5    5    0    0 -0.59153821018E+03 -0.98360246341E+03  0.10499256604E+04  0.15555497911E+04  0.00000000000E+00 0. -1.
    9900018    1    1    2    0    0 -0.29256039865E+02  0.12148982033E+04 -0.64025830384E+03  0.13766188413E+04  0.91187600000E+02 0.  0.
<mgrwt>
<rscale>  0 0.59743572E+04</rscale>
<asrwt>0</asrwt>
<pdfrwt beam="1">  1        1 0.64062252E+00 0.59743572E+04</pdfrwt>
<pdfrwt beam="2">  1       -1 0.32968066E+00 0.59743572E+04</pdfrwt>
<totfact> 0.96192913E-04</totfact>
</mgrwt>
</event>
<event>
13    1  0.1020632E-007  0.7500805E+04  0.7818608E-02  0.7527882E-01
          2   -1    0    0  501    0  0.00000000000E+00  0.00000000000E+00  0.29508683814E+04  0.29508683814E+04  0.00000000000E+00 0. -1.
         -2   -1    0    0    0  501 -0.00000000000E+00 -0.00000000000E+00 -0.47665694671E+04  0.47665694671E+04  0.00000000000E+00 0.  1.
    9900016    2    1    2    0    0 -0.79757812385E+03 -0.68803437072E+03 -0.12107204633E+03  0.21285309525E+04  0.18456606992E+04 0.  0.
         24    2    3    3    0    0  0.91652966687E+02 -0.10393680401E+04  0.29277421651E+03  0.10866883498E+04  0.80552086885E+02 0.  0.
    9900016    2    1    2    0    0 -0.60529775995E+03  0.15874785428E+04 -0.26639319340E+04  0.36589007189E+04  0.18451416259E+04 0.  0.
         23    2    5    5    0    0  0.27452916407E+03  0.62190031046E+02  0.15578156840E+03  0.33453841976E+03  0.91728923208E+02 0.  0.
        -15    1    4    4    0    0  0.17734827970E+02 -0.46860420362E+03  0.16520555887E+03  0.49718940099E+03  0.00000000000E+00 0.  1.
        -15    1    6    6    0    0  0.10715564638E+03  0.12601205408E+02  0.10997461957E+03  0.15406342810E+03  0.00000000000E+00 0.  1.
         15    1    3    3    0    0 -0.88923109054E+03  0.35133366933E+03 -0.41384626284E+03  0.10418426027E+04  0.00000000000E+00 0. -1.
         15    1    6    6    0    0  0.16737351769E+03  0.49588825639E+02  0.45806948834E+02  0.18047499166E+03  0.00000000000E+00 0. -1.
        -16    1    5    5    0    0 -0.87982692403E+03  0.15252885118E+04 -0.28197135024E+04  0.33243622991E+04  0.00000000000E+00 0.  1.
         16    1    4    4    0    0  0.73918138717E+02 -0.57076383643E+03  0.12756865764E+03  0.58949894878E+03  0.00000000000E+00 0. -1.
    9900018    1    1    2    0    0  0.14028758838E+04 -0.89944417208E+03  0.96930289458E+03  0.19300061772E+04  0.91187600000E+02 0.  0.
<mgrwt>
<rscale>  0 0.75008051E+04</rscale>
<asrwt>0</asrwt>
<pdfrwt beam="1">  1        2 0.45397975E+00 0.75008051E+04</pdfrwt>
<pdfrwt beam="2">  1       -2 0.73331837E+00 0.75008051E+04</pdfrwt>
<totfact> 0.19467059E-04</totfact>
</mgrwt>
</event>
<event>
13    1  0.1020632E-007  0.5587140E+04  0.7818608E-02  0.7743811E-01
          2   -1    0    0  501    0  0.00000000000E+00  0.00000000000E+00  0.27576892080E+04  0.27576892080E+04  0.00000000000E+00 0. -1.
         -2   -1    0    0    0  501 -0.00000000000E+00 -0.00000000000E+00 -0.28299171406E+04  0.28299171406E+04  0.00000000000E+00 0.  1.
    9900016    2    1    2    0    0 -0.11647448025E+04 -0.18631660678E+03  0.13982761138E+04  0.26005071670E+04  0.18482740874E+04 0.  0.
        -24    2    3    3    0    0 -0.42266170864E+03  0.71312479291E+03  0.11305058255E+04  0.14041029389E+04  0.79194390198E+02 0.  0.
    9900016    2    1    2    0    0  0.73366074972E+03  0.36332077051E+03 -0.81130105367E+03  0.21746782940E+04  0.18441139349E+04 0.  0.
         23    2    5    5    0    0 -0.16184273918E+03 -0.33054527163E+03 -0.95977299240E+03  0.10321282953E+04  0.93120202492E+02 0.  0.
        -15    1    6    6    0    0 -0.90687109870E+02 -0.26980846246E+03 -0.68166787671E+03  0.73870958600E+03  0.00000000000E+00 0.  1.
        -15    1    3    3    0    0 -0.74208309384E+03 -0.89944139969E+03  0.26777028831E+03  0.11964042281E+04  0.00000000000E+00 0.  1.
         15    1    6    6    0    0 -0.71155629306E+02 -0.60736809179E+02 -0.27810511569E+03  0.29341870926E+03  0.00000000000E+00 0. -1.
         15    1    4    4    0    0 -0.29403944740E+03  0.49620495518E+03  0.84606983403E+03  0.10239691002E+04  0.00000000000E+00 0. -1.
        -16    1    4    4    0    0 -0.12862226124E+03  0.21691983774E+03  0.28443599145E+03  0.38013383870E+03  0.00000000000E+00 0.  1.
         16    1    5    5    0    0  0.89550348889E+03  0.69386604214E+03  0.14847193873E+03  0.11425499987E+04  0.00000000000E+00 0. -1.
    9900018    1    1    2    0    0  0.43108405277E+03 -0.17700416372E+03 -0.65920299270E+03  0.81242088754E+03  0.91187600000E+02 0.  0.
<mgrwt>
<rscale>  0 0.55871395E+04</rscale>
<asrwt>0</asrwt>
<pdfrwt beam="1">  1        2 0.42425988E+00 0.55871395E+04</pdfrwt>
<pdfrwt beam="2">  1       -2 0.43537187E+00 0.55871395E+04</pdfrwt>
<totfact> 0.74149990E-03</totfact>
</mgrwt>
</event>
<event>
13    1  0.1020632E-007  0.5890903E+04  0.7818608E-02  0.7704078E-01
         -2   -1    0    0    0  501 -0.00000000000E+00  0.00000000000E+00  0.25091710879E+04  0.25091710879E+04  0.00000000000E+00 0.  1.
          2   -1    0    0  501    0  0.00000000000E+00 -0.00000000000E+00 -0.34575893436E+04  0.34575893436E+04  0.00000000000E+00 0. -1.
    9900016    2    1    2    0    0  0.12901335057E+03  0.18723869682E+04 -0.10354023742E+04  0.28256368548E+04  0.18411105766E+04 0.  0.
         24    2    3    3    0    0  0.33137213605E+03 -0.42691821502E+02 -0.81872049168E+03  0.88774447202E+03  0.78466043180E+02 0.  0.
    9900016    2    1    2    0    0  0.71788010265E+02 -0.76002383791E+03 -0.78071296766E+02  0.19951604933E+04  0.18416787217E+04 0.  0.
         23    2    5    5    0    0 -0.31432009242E+03 -0.13189210381E+03 -0.85480048738E+03  0.92420896407E+03  0.85356244576E+02 0.  0.
        -15    1    4    4    0    0  0.56688260851E+02 -0.89732264375E+01 -0.76704542393E+02  0.95800128052E+02  0.00000000000E+00 0.  1.
        -15    1    6    6    0    0 -0.24874258444E+03 -0.13058394393E+03 -0.74626863516E+03  0.79739696234E+03  0.00000000000E+00 0. -1.
         15    1    3    3    0    0 -0.20235878548E+03  0.19150787897E+04 -0.21668188253E+03  0.19378923827E+04  0.00000000000E+00 0. -1.
         15    1    6    6    0    0 -0.65577507985E+02 -0.13081598819E+01 -0.10853185222E+03  0.12681200173E+03  0.00000000000E+00 0.  1.
        -16    1    5    5    0    0  0.38610810269E+03 -0.62813173410E+03  0.77672919062E+03  0.10709515292E+04  0.00000000000E+00 0.  1.
         16    1    4    4    0    0  0.27468387520E+03 -0.33718595065E+02 -0.74201594928E+03  0.79194434397E+03  0.00000000000E+00 0. -1.
    9900018    1    1    2    0    0 -0.20080136083E+03 -0.11123631303E+04  0.16505541536E+03  0.11459630835E+04  0.91187600000E+02 0.  0.
<mgrwt>
<rscale>  0 0.58909026E+04</rscale>
<asrwt>0</asrwt>
<pdfrwt beam="1">  1        2 0.53193683E+00 0.58909026E+04</pdfrwt>
<pdfrwt beam="2">  1       -2 0.38602632E+00 0.58909026E+04</pdfrwt>
<totfact> 0.54003251E-03</totfact>
</mgrwt>
</event>
<event>
13    1  0.1020632E-007  0.4746189E+04  0.7818608E-02  0.7868899E-01
          2   -1    0    0  501    0  0.00000000000E+00  0.00000000000E+00  0.25846986796E+04  0.25846986796E+04  0.00000000000E+00 0.  1.
         -2   -1    0    0    0  501 -0.00000000000E+00 -0.00000000000E+00 -0.21788143830E+04  0.21788143830E+04  0.00000000000E+00 0. -1.
    9900016    2    1    2    0    0  0.10271800334E+04  0.46039790299E+03  0.79008410189E+03  0.23033078322E+04  0.18476820700E+04 0.  0.
        -24    2    3    3    0    0 -0.29200632302E+03 -0.46174465459E+03  0.25114500097E+03  0.60594078468E+03  0.74930663313E+02 0.  0.
    9900016    2    1    2    0    0 -0.55137942698E+03 -0.44135101673E+03 -0.32596860509E+03  0.19718866336E+04  0.18119799590E+04 0.  0.
         23    2    5    5    0    0 -0.43388547945E+03 -0.25729773869E+03 -0.10753577046E+04  0.11913326897E+04  0.91764094449E+02 0.  0.
        -15    1    3    3    0    0  0.13191863564E+04  0.92214255758E+03  0.53893910092E+03  0.16973670475E+04  0.00000000000E+00 0.  1.
        -15    1    6    6    0    0 -0.36009144159E+03 -0.16999131563E+03 -0.82131433951E+03  0.91275414980E+03  0.00000000000E+00 0. -1.
         15    1    4    4    0    0 -0.12469547968E+03 -0.26636237487E+03  0.13997700406E+03  0.32571680808E+03  0.00000000000E+00 0. -1.
         15    1    6    6    0    0 -0.73794037866E+02 -0.87306423058E+02 -0.25404336513E+03  0.27857853991E+03  0.00000000000E+00 0.  1.
        -16    1    4    4    0    0 -0.16731084334E+03 -0.19538227973E+03  0.11116799690E+03  0.28022397661E+03  0.00000000000E+00 0.  1.
         16    1    5    5    0    0 -0.11749394753E+03 -0.18405327804E+03  0.74938909955E+03  0.78055394393E+03  0.00000000000E+00 0. -1.
    9900018    1    1    2    0    0 -0.47580060643E+03 -0.19046886260E+02 -0.58231200210E+02  0.48831859685E+03  0.91187600000E+02 0.  0.
<mgrwt>
<rscale>  0 0.47461895E+04</rscale>
<asrwt>0</asrwt>
<pdfrwt beam="1">  1        2 0.39764595E+00 0.47461895E+04</pdfrwt>
<pdfrwt beam="2">  1       -2 0.33520221E+00 0.47461895E+04</pdfrwt>
<totfact> 0.44463160E-02</totfact>
</mgrwt>
</event>
<event>
13    1  0.1020632E-007  0.5346025E+04  0.7818608E-02  0.7777239E-01
         -2   -1    0    0    0  501 -0.00000000000E+00  0.00000000000E+00  0.26173844188E+04  0.26173844188E+04  0.00000000000E+00 0. -1.
          2   -1    0    0  501    0  0.00000000000E+00 -0.00000000000E+00 -0.27298226076E+04  0.27298226076E+04  0.00000000000E+00 0.  1.
    9900016    2    1    2    0    0  0.51118237265E+02 -0.77766657306E+03  0.13858689998E+04  0.24361052565E+04  0.18456970399E+04 0.  0.
        -24    2    3    3    0    0  0.46081936078E+03 -0.87864641909E+03  0.16580912134E+04  0.19339530151E+04  0.80831798868E+02 0.  0.
    9900016    2    1    2    0    0 -0.11434248752E+03  0.23376382607E+03 -0.14068183632E+04  0.23485069889E+04  0.18624251499E+04 0.  0.
         23    2    5    5    0    0  0.14908562867E+03  0.31363933047E+03  0.39074269967E+03  0.52999104359E+03  0.87261071785E+02 0.  0.
        -15    1    3    3    0    0 -0.40970112351E+03  0.10097984603E+03 -0.27222221359E+03  0.50215224134E+03  0.00000000000E+00 0.  1.
        -15    1    6    6    0    0  0.12193281646E+03  0.29089999873E+03  0.31204884216E+03  0.44369460317E+03  0.00000000000E+00 0.  1.
         15    1    4    4    0    0  0.19702171970E+03 -0.46012710138E+03  0.85275705167E+03  0.98880184902E+03  0.00000000000E+00 0. -1.
         15    1    6    6    0    0  0.27152812210E+02  0.22739331734E+02  0.78693857512E+02  0.86296440418E+02  0.00000000000E+00 0. -1.
        -16    1    4    4    0    0  0.26379764108E+03 -0.41851931771E+03  0.80533416174E+03  0.94515116611E+03  0.00000000000E+00 0.  1.
         16    1    5    5    0    0 -0.26342811618E+03 -0.79875504395E+02 -0.17975610629E+04  0.18185159453E+04  0.00000000000E+00 0. -1.
    9900018    1    1    2    0    0  0.63224250251E+02  0.54390274699E+03 -0.91488825451E+02  0.56259478097E+03  0.91187600000E+02 0.  0.
<mgrwt>
<rscale>  0 0.53460248E+04</rscale>
<asrwt>0</asrwt>
<pdfrwt beam="1">  1        2 0.41997271E+00 0.53460248E+04</pdfrwt>
<pdfrwt beam="2">  1       -2 0.40267452E+00 0.53460248E+04</pdfrwt>
<totfact> 0.12883256E-02</totfact>
</mgrwt>
</event>
<event>
13    1  0.1020632E-007  0.4342295E+04  0.7818608E-02  0.7938843E-01
         -1   -1    0    0    0  501 -0.00000000000E+00  0.00000000000E+00  0.17794547828E+04  0.17794547828E+04  0.00000000000E+00 0.  1.
          1   -1    0    0  501    0  0.00000000000E+00 -0.00000000000E+00 -0.26490599636E+04  0.26490599636E+04  0.00000000000E+00 0. -1.
    9900016    2    1    2    0    0 -0.10325021283E+03 -0.13036506137E+03 -0.11875671101E+04  0.22011052327E+04  0.18457770583E+04 0.  0.
         24    2    3    3    0    0 -0.16965861011E+01 -0.97923018097E+03 -0.49055638470E+03  0.10980598657E+04  0.78710078482E+02 0.  0.
    9900016    2    1    2    0    0 -0.10749715582E+03  0.51966409033E+02  0.51635105738E+03  0.19139861154E+04  0.18391487948E+04 0.  0.
         23    2    5    5    0    0  0.48174675101E+03  0.61607806885E+03 -0.21741778261E+03  0.81678647222E+03  0.90760839408E+02 0.  0.
        -15    1    6    6    0    0  0.93820173651E+01  0.40742686475E+02 -0.20788562124E+01  0.41860606711E+02  0.00000000000E+00 0. -1.
        -15    1    4    4    0    0  0.12464657533E+02 -0.16966697592E+03 -0.55839277238E+02  0.17905383349E+03  0.00000000000E+00 0.  1.
         15    1    6    6    0    0  0.47236473364E+03  0.57533538238E+03 -0.21533892640E+03  0.77492586550E+03  0.00000000000E+00 0.  1.
         15    1    3    3    0    0 -0.10155362672E+03  0.84886511960E+03 -0.69701072536E+03  0.11030453670E+04  0.00000000000E+00 0. -1.
        -16    1    5    5    0    0 -0.58924390682E+03 -0.56411165982E+03  0.73376883999E+03  0.10971996432E+04  0.00000000000E+00 0.  1.
         16    1    4    4    0    0 -0.14161243634E+02 -0.80956320505E+03 -0.43471710746E+03  0.91900603225E+03  0.00000000000E+00 0. -1.
    9900018    1    1    2    0    0  0.21074736864E+03  0.78398652333E+02 -0.19838912807E+03  0.31342339831E+03  0.91187600000E+02 0.  0.
<mgrwt>
<rscale>  0 0.43422954E+04</rscale>
<asrwt>0</asrwt>
<pdfrwt beam="1">  1        1 0.40754768E+00 0.43422954E+04</pdfrwt>
<pdfrwt beam="2">  1       -1 0.27376228E+00 0.43422954E+04</pdfrwt>
<totfact> 0.39630114E-02</totfact>
</mgrwt>
</event>
<event>
13    1  0.1020632E-007  0.5676128E+04  0.7818608E-02  0.7731908E-01
          2   -1    0    0  501    0  0.00000000000E+00  0.00000000000E+00  0.32248662817E+04  0.32248662817E+04  0.00000000000E+00 0. -1.
         -2   -1    0    0    0  501 -0.00000000000E+00 -0.00000000000E+00 -0.24976563119E+04  0.24976563119E+04  0.00000000000E+00 0.  1.
    9900016    2    1    2    0    0  0.17143631137E+04 -0.11520111919E+03 -0.27281808735E+03  0.25338644562E+04  0.18422071518E+04 0.  0.
        -24    2    3    3    0    0 -0.12311929001E+03  0.53746232852E+03 -0.16307600441E+03  0.58082721006E+03  0.82111817550E+02 0.  0.
    9900016    2    1    2    0    0 -0.89297913798E+03 -0.22402534214E+03  0.99847420264E+03  0.22953139593E+04  0.18503827560E+04 0.  0.
         23    2    5    5    0    0 -0.46777045770E+03 -0.35279237387E+03  0.15073602136E+04  0.16197783626E+04  0.90969611060E+02 0.  0.
        -15    1    6    6    0    0 -0.81892248041E+02 -0.44245565632E+02  0.33191849122E+03  0.34472292523E+03  0.00000000000E+00 0. -1.
        -15    1    3    3    0    0  0.18374824038E+04 -0.65266344771E+03 -0.10974208294E+03  0.19530372461E+04  0.00000000000E+00 0.  1.
         15    1    6    6    0    0 -0.38587820966E+03 -0.30854680823E+03  0.11754417224E+04  0.12750554374E+04  0.00000000000E+00 0.  1.
         15    1    4    4    0    0 -0.47411121137E+02  0.18763525717E+03 -0.98377489244E+02  0.21710120803E+03  0.00000000000E+00 0. -1.
        -16    1    4    4    0    0 -0.75708168869E+02  0.34982707135E+03 -0.64698515163E+02  0.36372600203E+03  0.00000000000E+00 0.  1.
         16    1    5    5    0    0 -0.42520868029E+03  0.12876703173E+03 -0.50888601100E+03  0.67553559673E+03  0.00000000000E+00 0. -1.
    9900018    1    1    2    0    0 -0.82138397576E+03  0.33922646132E+03  0.15538545199E+01  0.89334417811E+03  0.91187600000E+02 0.  0.
<mgrwt>
<rscale>  0 0.56761281E+04</rscale>
<asrwt>0</asrwt>
<pdfrwt beam="1">  1        2 0.49613328E+00 0.56761281E+04</pdfrwt>
<pdfrwt beam="2">  1       -2 0.38425482E+00 0.56761281E+04</pdfrwt>
<totfact> 0.80982690E-03</totfact>
</mgrwt>
</event>
<event>
13    1  0.1020632E-007  0.4870053E+04  0.7818608E-02  0.7848871E-01
          1   -1    0    0  501    0  0.00000000000E+00  0.00000000000E+00  0.30929466079E+04  0.30929466079E+04  0.00000000000E+00 0.  1.
         -1   -1    0    0    0  501 -0.00000000000E+00 -0.00000000000E+00 -0.19170565690E+04  0.19170565690E+04  0.00000000000E+00 0. -1.
    9900016    2    1    2    0    0 -0.58683749389E+02  0.19495265998E+03  0.12997150349E+04  0.22614583666E+04  0.18394250324E+04 0.  0.
        -24    2    3    3    0    0  0.72525941778E+03 -0.38228245242E+03  0.86705337165E+03  0.11961117661E+04  0.82223544204E+02 0.  0.
    9900016    2    1    2    0    0  0.44571896590E+03 -0.48562697562E+03 -0.60554201002E+03  0.20595932326E+04  0.18549243116E+04 0.  0.
         23    2    5    5    0    0 -0.20894474458E+03  0.17020277736E+03  0.52522881032E+03  0.59762883942E+03  0.93102281421E+02 0.  0.
        -15    1    6    6    0    0 -0.79571382392E+02  0.12476942992E+03  0.27618858019E+03  0.31333551884E+03  0.00000000000E+00 0. -1.
        -15    1    3    3    0    0 -0.78394316717E+03  0.57723511240E+03  0.43266166329E+03  0.10653466005E+04  0.00000000000E+00 0.  1.
         15    1    6    6    0    0 -0.12937336218E+03  0.45433347441E+02  0.24904023013E+03  0.28429332058E+03  0.00000000000E+00 0.  1.
         15    1    4    4    0    0  0.11749537498E+03 -0.91215238180E+02  0.13139388676E+03  0.19846847683E+03  0.00000000000E+00 0. -1.
        -16    1    4    4    0    0  0.60776404280E+03 -0.29106721424E+03  0.73565948489E+03  0.99764328927E+03  0.00000000000E+00 0.  1.
         16    1    5    5    0    0  0.65466371047E+03 -0.65582975298E+03 -0.11307708203E+04  0.14619643931E+04  0.00000000000E+00 0. -1.
    9900018    1    1    2    0    0 -0.38703521651E+03  0.29067431564E+03  0.48171701394E+03  0.68895157776E+03  0.91187600000E+02 0.  0.
<mgrwt>
<rscale>  0 0.48700528E+04</rscale>
<asrwt>0</asrwt>
<pdfrwt beam="1">  1        1 0.47583794E+00 0.48700528E+04</pdfrwt>
<pdfrwt beam="2">  1       -1 0.29493178E+00 0.48700528E+04</pdfrwt>
<totfact> 0.13267323E-02</totfact>
</mgrwt>
</event>
<event>
13    1  0.1020632E-007  0.5105150E+04  0.7818608E-02  0.7812488E-01
         -1   -1    0    0    0  501 -0.00000000000E+00  0.00000000000E+00  0.27847135464E+04  0.27847135464E+04  0.00000000000E+00 0.  1.
          1   -1    0    0  501    0  0.00000000000E+00 -0.00000000000E+00 -0.23397883677E+04  0.23397883677E+04  0.00000000000E+00 0. -1.
    9900016    2    1    2    0    0 -0.10405873884E+04  0.25410713856E+03 -0.29352889105E+03  0.21588884894E+04  0.18512827306E+04 0.  0.
         24    2    3    3    0    0  0.46637664920E+03 -0.26825920866E+03 -0.77837994138E+02  0.54943834275E+03  0.79709204014E+02 0.  0.
    9900016    2    1    2    0    0  0.11475024516E+04 -0.76164790503E+03  0.38657388199E+03  0.23322388868E+04  0.18420177662E+04 0.  0.
         23    2    5    5    0    0 -0.12870255539E+03 -0.81999893837E+03  0.61177989549E+03  0.10350026664E+04  0.89405101485E+02 0.  0.
        -15    1    4    4    0    0  0.23364352562E+03 -0.15949175717E+03 -0.74441423600E+02  0.29252084236E+03  0.00000000000E+00 0.  1.
        -15    1    6    6    0    0  0.28949761547E+00 -0.63067436619E+02  0.75743501461E+02  0.98562991960E+02  0.00000000000E+00 0. -1.
         15    1    6    6    0    0 -0.12899205301E+03 -0.75693150175E+03  0.53603639402E+03  0.93643967440E+03  0.00000000000E+00 0.  1.
         15    1    3    3    0    0 -0.15069640376E+04  0.52236634722E+03 -0.21569089691E+03  0.16094501466E+04  0.00000000000E+00 0. -1.
        -16    1    5    5    0    0  0.12762050070E+04  0.58351033332E+02 -0.22520601350E+03  0.12972362204E+04  0.00000000000E+00 0.  1.
         16    1    4    4    0    0  0.23273312357E+03 -0.10876745149E+03 -0.33965705381E+01  0.25691750039E+03  0.00000000000E+00 0. -1.
    9900018    1    1    2    0    0 -0.10691506321E+03  0.50754076648E+03  0.35188018779E+03  0.63337453795E+03  0.91187600000E+02 0.  0.
<mgrwt>
<rscale>  0 0.51051505E+04</rscale>
<asrwt>0</asrwt>
<pdfrwt beam="1">  1        1 0.35996744E+00 0.51051505E+04</pdfrwt>
<pdfrwt beam="2">  1       -1 0.42841747E+00 0.51051505E+04</pdfrwt>
<totfact> 0.57156145E-03</totfact>
</mgrwt>
</event>
<event>
13    1  0.1020632E-007  0.5215676E+04  0.7818608E-02  0.7796072E-01
         -2   -1    0    0    0  501 -0.00000000000E+00  0.00000000000E+00  0.15862766162E+04  0.15862766162E+04  0.00000000000E+00 0.  1.
          2   -1    0    0  501    0  0.00000000000E+00 -0.00000000000E+00 -0.42872839991E+04  0.42872839991E+04  0.00000000000E+00 0. -1.
    9900016    2    1    2    0    0  0.13350051971E+03 -0.72865489635E+02 -0.22025474668E+04  0.28721843727E+04  0.18371434236E+04 0.  0.
         24    2    3    3    0    0 -0.70863186131E+03  0.24730978702E+03 -0.16522558032E+04  0.18164760465E+04  0.79465355898E+02 0.  0.
    9900016    2    1    2    0    0 -0.34098600813E+03 -0.77960346316E+03 -0.55189189962E+02  0.20141793735E+04  0.18247793523E+04 0.  0.
         23    2    5    5    0    0 -0.24351114817E+03  0.58704929835E+03  0.15119682921E+02  0.64225209537E+03  0.91293982384E+02 0.  0.
        -15    1    4    4    0    0 -0.34875096220E+03  0.79910253223E+02 -0.79313862849E+03  0.87010445707E+03  0.00000000000E+00 0.  1.
        -15    1    6    6    0    0 -0.15872372453E+02  0.46609234473E+02  0.26092240877E+02  0.55723944399E+02  0.00000000000E+00 0.  1.
         15    1    6    6    0    0 -0.22763877572E+03  0.54044006388E+03 -0.10972557956E+02  0.58652815097E+03  0.00000000000E+00 0. -1.
         15    1    3    3    0    0  0.84213238102E+03 -0.32017527665E+03 -0.55029166356E+03  0.10557083262E+04  0.00000000000E+00 0. -1.
        -16    1    5    5    0    0 -0.97474859958E+02 -0.13666527615E+04 -0.70308872882E+02  0.13719272781E+04  0.00000000000E+00 0.  1.
         16    1    4    4    0    0 -0.35988089910E+03  0.16739953379E+03 -0.85911717472E+03  0.94637158947E+03  0.00000000000E+00 0. -1.
    9900018    1    1    2    0    0  0.20748548842E+03  0.85246895280E+03 -0.44327072616E+03  0.98719686915E+03  0.91187600000E+02 0.  0.
<mgrwt>
<rscale>  0 0.52156757E+04</rscale>
<asrwt>0</asrwt>
<pdfrwt beam="1">  1        2 0.65958215E+00 0.52156757E+04</pdfrwt>
<pdfrwt beam="2">  1       -2 0.24404256E+00 0.52156757E+04</pdfrwt>
<totfact> 0.96733688E-03</totfact>
</mgrwt>
</event>
<event>
13    1  0.1020632E-007  0.5427363E+04  0.7818608E-02  0.7765764E-01
          2   -1    0    0  501    0  0.00000000000E+00  0.00000000000E+00  0.21915329859E+04  0.21915329859E+04  0.00000000000E+00 0. -1.
         -2   -1    0    0    0  501 -0.00000000000E+00 -0.00000000000E+00 -0.33602356066E+04  0.33602356066E+04  0.00000000000E+00 0.  1.
    9900016    2    1    2    0    0  0.53243818779E+03 -0.14888027654E+04 -0.11949965278E+04  0.27066278859E+04  0.18433105308E+04 0.  0.
        -24    2    3    3    0    0  0.11739761213E+04 -0.12701475354E+04 -0.70090594981E+03  0.18678749252E+04  0.78694922089E+02 0.  0.
    9900016    2    1    2    0    0 -0.20051773392E+03  0.16339782166E+04 -0.73432585369E+01  0.24700490689E+04  0.18414658035E+04 0.  0.
         23    2    5    5    0    0 -0.17288781476E+03 -0.28744602227E+03 -0.37746041557E+03  0.51310726390E+03  0.91034535975E+02 0.  0.
        -15    1    3    3    0    0 -0.64153793351E+03 -0.21865522997E+03 -0.49409057801E+03  0.83875296065E+03  0.00000000000E+00 0.  1.
        -15    1    6    6    0    0 -0.11980695101E+03 -0.22717402254E+03 -0.22798795756E+03  0.34342430144E+03  0.00000000000E+00 0.  1.
         15    1    4    4    0    0  0.15441986274E+03 -0.18771546525E+03 -0.12421165317E+03  0.27296725936E+03  0.00000000000E+00 0. -1.
         15    1    6    6    0    0 -0.53080863749E+02 -0.60271999731E+02 -0.14947245801E+03  0.16968296247E+03  0.00000000000E+00 0. -1.
        -16    1    4    4    0    0  0.10195562586E+04 -0.10824320702E+04 -0.57669429664E+03  0.15949076659E+04  0.00000000000E+00 0.  1.
         16    1    5    5    0    0 -0.27629919158E+02  0.19214242389E+04  0.37011715703E+03  0.19569418050E+04  0.00000000000E+00 0. -1.
    9900018    1    1    2    0    0 -0.33192045388E+03 -0.14517545123E+03  0.33637165647E+02  0.37509163767E+03  0.91187600000E+02 0.  0.
<mgrwt>
<rscale>  0 0.54273630E+04</rscale>
<asrwt>0</asrwt>
<pdfrwt beam="1">  1        2 0.33715892E+00 0.54273630E+04</pdfrwt>
<pdfrwt beam="2">  1       -2 0.51695933E+00 0.54273630E+04</pdfrwt>
<totfact> 0.48357322E-03</totfact>
</mgrwt>
</event>
<event>
13    1  0.1020632E-007  0.4231673E+04  0.7818608E-02  0.7959375E-01
          1   -1    0    0  501    0  0.00000000000E+00  0.00000000000E+00  0.21896502333E+04  0.21896502333E+04  0.00000000000E+00 0. -1.
         -1   -1    0    0    0  501 -0.00000000000E+00 -0.00000000000E+00 -0.20445106965E+04  0.20445106965E+04  0.00000000000E+00 0.  1.
    9900016    2    1    2    0    0 -0.81397901032E+03  0.15469342632E+02 -0.17941110376E+03  0.20170378209E+04  0.18366959729E+04 0.  0.
         24    2    3    3    0    0  0.26490129966E+03 -0.67394076421E+03 -0.73409525099E+02  0.73231786957E+03  0.80818633302E+02 0.  0.
    9900016    2    1    2    0    0  0.59322823215E+03  0.90672600006E+02  0.18877751468E+03  0.19225954563E+04  0.18167539963E+04 0.  0.
         23    2    5    5    0    0 -0.64297667094E+03 -0.28279897163E+02  0.20243568747E+03  0.68060559943E+03  0.89582489693E+02 0.  0.
        -15    1    6    6    0    0 -0.56376896887E+03 -0.38353459763E+01  0.19818993369E+03  0.59760305384E+03  0.00000000000E+00 0.  1.
        -15    1    4    4    0    0  0.62488727593E+02 -0.18663593439E+03  0.14589769019E+02  0.19735925224E+03  0.00000000000E+00 0.  1.
         15    1    3    3    0    0 -0.10788803100E+04  0.68941010684E+03 -0.10600157866E+03  0.12847199513E+04  0.00000000000E+00 0. -1.
         15    1    6    6    0    0 -0.79207702065E+02 -0.24444551187E+02  0.42457537787E+01  0.83002545589E+02  0.00000000000E+00 0. -1.
        -16    1    5    5    0    0  0.12362049031E+04  0.11895249717E+03 -0.13658172795E+02  0.12419898569E+04  0.00000000000E+00 0.  1.
         16    1    4    4    0    0  0.20241257206E+03 -0.48730482981E+03 -0.87999294118E+02  0.53495861733E+03  0.00000000000E+00 0. -1.
    9900018    1    1    2    0    0  0.22075077816E+03 -0.10614194264E+03  0.13577312581E+03  0.29452765258E+03  0.91187600000E+02 0.  0.
<mgrwt>
<rscale>  0 0.42316726E+04</rscale>
<asrwt>0</asrwt>
<pdfrwt beam="1">  1        1 0.33686927E+00 0.42316726E+04</pdfrwt>
<pdfrwt beam="2">  1       -1 0.31454010E+00 0.42316726E+04</pdfrwt>
<totfact> 0.45175870E-02</totfact>
</mgrwt>
</event>
<event>
13    1  0.1020632E-007  0.6028246E+04  0.7818608E-02  0.7686910E-01
         -1   -1    0    0    0  501 -0.00000000000E+00  0.00000000000E+00  0.26950643445E+04  0.26950643445E+04  0.00000000000E+00 0.  1.
          1   -1    0    0  501    0  0.00000000000E+00 -0.00000000000E+00 -0.33709533857E+04  0.33709533857E+04  0.00000000000E+00 0. -1.
    9900016    2    1    2    0    0 -0.79957683574E+03  0.14810681857E+04 -0.12162134228E+04  0.27761146792E+04  0.18424851520E+04 0.  0.
         24    2    3    3    0    0 -0.18894678094E+03 -0.17923496052E+03  0.33000539731E+03  0.42658956957E+03  0.72450269229E+02 0.  0.
    9900016    2    1    2    0    0  0.19631282035E+03 -0.45033724173E+03 -0.15001332169E+03  0.19074360264E+04  0.18369719223E+04 0.  0.
         23    2    5    5    0    0  0.34550869163E+03  0.18169571646E+03  0.71888149456E+03  0.82267648163E+03  0.87271993435E+02 0.  0.
        -15    1    4    4    0    0 -0.50974809513E+02 -0.64355089631E+02  0.15747656258E+03  0.17759188194E+03  0.00000000000E+00 0.  1.
        -15    1    6    6    0    0  0.13131346666E+03  0.25209423700E+02  0.26935021682E+03  0.30071295428E+03  0.00000000000E+00 0.  1.
         15    1    6    6    0    0  0.21419522497E+03  0.15648629276E+03  0.44953127774E+03  0.52196352736E+03  0.00000000000E+00 0. -1.
         15    1    3    3    0    0 -0.61063005480E+03  0.16603031462E+04 -0.15462188201E+04  0.23495251097E+04  0.00000000000E+00 0. -1.
        -16    1    5    5    0    0 -0.14919587128E+03 -0.63203295820E+03 -0.86889481625E+03  0.10847595448E+04  0.00000000000E+00 0.  1.
         16    1    4    4    0    0 -0.13797197143E+03 -0.11487987089E+03  0.17252883473E+03  0.24899768763E+03  0.00000000000E+00 0. -1.
    9900018    1    1    2    0    0  0.60326401539E+03 -0.10307309440E+04  0.69033770331E+03  0.13824670246E+04  0.91187600000E+02 0.  0.
<mgrwt>
<rscale>  0 0.60282456E+04</rscale>
<asrwt>0</asrwt>
<pdfrwt beam="1">  1        1 0.51860821E+00 0.60282456E+04</pdfrwt>
<pdfrwt beam="2">  1       -1 0.41462529E+00 0.60282456E+04</pdfrwt>
<totfact> 0.11934868E-03</totfact>
</mgrwt>
</event>
<event>
13    1  0.1020632E-007  0.4895421E+04  0.7818608E-02  0.7844845E-01
          2   -1    0    0  501    0  0.00000000000E+00  0.00000000000E+00  0.29356949848E+04  0.29356949848E+04  0.00000000000E+00 0. -1.
         -2   -1    0    0    0  501 -0.00000000000E+00 -0.00000000000E+00 -0.20408408711E+04  0.20408408711E+04  0.00000000000E+00 0.  1.
    9900016    2    1    2    0    0  0.94995720552E+03  0.37681892902E+03 -0.19752666614E+03  0.21068217831E+04  0.18317396224E+04 0.  0.
        -24    2    3    3    0    0  0.40068622954E+03  0.23698532591E+03 -0.10107010473E+04  0.11156080747E+04  0.79707402938E+02 0.  0.
    9900016    2    1    2    0    0 -0.19486237093E+03 -0.31944055043E+03  0.71589252576E+03  0.20191148303E+04  0.18504888490E+04 0.  0.
         23    2    5    5    0    0  0.48024626259E+03 -0.42232159112E+01  0.10831404827E+04  0.11884496167E+04  0.92546625364E+02 0.  0.
        -15    1    3    3    0    0  0.54927097598E+03  0.13983360311E+03  0.81317438116E+03  0.99121370843E+03  0.00000000000E+00 0.  1.
        -15    1    6    6    0    0  0.31477988356E+02 -0.26866284257E+01  0.14625591650E+03  0.14962912428E+03  0.00000000000E+00 0.  1.
         15    1    4    4    0    0  0.15016842816E+03  0.83681149438E+02 -0.46723019600E+03  0.49785253604E+03  0.00000000000E+00 0. -1.
         15    1    6    6    0    0  0.44876827423E+03 -0.15365874855E+01  0.93688456625E+03  0.10388204925E+04  0.00000000000E+00 0. -1.
        -16    1    4    4    0    0  0.25051780139E+03  0.15330417647E+03 -0.54347085130E+03  0.61775553866E+03  0.00000000000E+00 0.  1.
         16    1    5    5    0    0 -0.67510863352E+03 -0.31521733452E+03 -0.36724795698E+03  0.83066521352E+03  0.00000000000E+00 0. -1.
    9900018    1    1    2    0    0 -0.75509483459E+03 -0.57378378585E+02  0.37648825407E+03  0.85059924253E+03  0.91187600000E+02 0.  0.
<mgrwt>
<rscale>  0 0.48954208E+04</rscale>
<asrwt>0</asrwt>
<pdfrwt beam="1">  1        2 0.45164538E+00 0.48954208E+04</pdfrwt>
<pdfrwt beam="2">  1       -2 0.31397552E+00 0.48954208E+04</pdfrwt>
<totfact> 0.36549608E-02</totfact>
</mgrwt>
</event>
<event>
13    1  0.1020632E-007  0.5210492E+04  0.7818608E-02  0.7796832E-01
         -1   -1    0    0    0  501 -0.00000000000E+00  0.00000000000E+00  0.21143280246E+04  0.21143280246E+04  0.00000000000E+00 0.  1.
          1   -1    0    0  501    0  0.00000000000E+00 -0.00000000000E+00 -0.32101486507E+04  0.32101486507E+04  0.00000000000E+00 0. -1.
    9900016    2    1    2    0    0 -0.66486404898E+01  0.83212492824E+03 -0.24467649371E+03  0.20409284031E+04  0.18474431140E+04 0.  0.
        -24    2    3    3    0    0  0.57899115401E+03  0.97317721803E+03 -0.65627473639E+03  0.13113512443E+04  0.81491729948E+02 0.  0.
    9900016    2    1    2    0    0 -0.85060401030E+03 -0.76431289617E+03 -0.18642242724E+03  0.21928371727E+04  0.18617411633E+04 0.  0.
         23    2    5    5    0    0 -0.40015011008E+03  0.75044969908E+02  0.74936064411E+03  0.85750189640E+03  0.89533620917E+02 0.  0.
        -15    1    3    3    0    0 -0.58563979450E+03 -0.14105228979E+03  0.41159824269E+03  0.72957715887E+03  0.00000000000E+00 0.  1.
        -15    1    6    6    0    0 -0.17220207793E+03 -0.90203082648E+01  0.34687507438E+03  0.38737222259E+03  0.00000000000E+00 0.  1.
         15    1    4    4    0    0  0.45134303523E+03  0.80270034103E+03 -0.55844346179E+03  0.10769853634E+04  0.00000000000E+00 0. -1.
         15    1    6    6    0    0 -0.22794803216E+03  0.84065278172E+02  0.40248556973E+03  0.47012967381E+03  0.00000000000E+00 0. -1.
        -16    1    4    4    0    0  0.12764811878E+03  0.17047687700E+03 -0.97831274597E+02  0.23436588086E+03  0.00000000000E+00 0.  1.
         16    1    5    5    0    0 -0.45045390022E+03 -0.83935786608E+03 -0.93578307135E+03  0.13353352763E+04  0.00000000000E+00 0. -1.
    9900018    1    1    2    0    0  0.85725265079E+03 -0.67812032074E+02 -0.66472170514E+03  0.10907110995E+04  0.91187600000E+02 0.  0.
<mgrwt>
<rscale>  0 0.52104922E+04</rscale>
<asrwt>0</asrwt>
<pdfrwt beam="1">  1        1 0.49386902E+00 0.52104922E+04</pdfrwt>
<pdfrwt beam="2">  1       -1 0.32528124E+00 0.52104922E+04</pdfrwt>
<totfact> 0.67018457E-03</totfact>
</mgrwt>
</event>
<event>
13    1  0.1020632E-007  0.4351953E+04  0.7818608E-02  0.7937081E-01
          1   -1    0    0  501    0  0.00000000000E+00  0.00000000000E+00  0.29036025686E+04  0.29036025686E+04  0.00000000000E+00 0. -1.
         -1   -1    0    0    0  501 -0.00000000000E+00 -0.00000000000E+00 -0.16306893076E+04  0.16306893076E+04  0.00000000000E+00 0.  1.
    9900016    2    1    2    0    0 -0.41453233582E+03 -0.17303817322E+03  0.11140679466E+04  0.22030014788E+04  0.18466967426E+04 0.  0.
         24    2    3    3    0    0 -0.10722708106E+04  0.17287730741E+03  0.94271406789E+03  0.14403484957E+04  0.79010888242E+02 0.  0.
    9900016    2    1    2    0    0  0.53598595562E+03 -0.15663339080E+03 -0.77710973605E+02  0.18980371485E+04  0.18123716666E+04 0.  0.
         23    2    5    5    0    0  0.16017988937E+03  0.60170826719E+01  0.85740813830E+03  0.87718792875E+03  0.92823189298E+02 0.  0.
        -15    1    4    4    0    0 -0.75844782869E+02  0.26810758750E+02  0.51175431745E+02  0.95342397115E+02  0.00000000000E+00 0.  1.
        -15    1    6    6    0    0  0.59989880328E+02 -0.41965482325E+02  0.29849191096E+03  0.30733907717E+03  0.00000000000E+00 0. -1.
         15    1    3    3    0    0  0.65773847477E+03 -0.34591548063E+03  0.17135387868E+03  0.76265298313E+03  0.00000000000E+00 0. -1.
         15    1    6    6    0    0  0.10019000904E+03  0.47982564997E+02  0.55891622734E+03  0.56984885158E+03  0.00000000000E+00 0.  1.
        -16    1    5    5    0    0  0.37580606624E+03 -0.16265047347E+03 -0.93511911191E+03  0.10208492197E+04  0.00000000000E+00 0.  1.
         16    1    4    4    0    0 -0.99642602773E+03  0.14606654866E+03  0.89153863615E+03  0.13450060985E+04  0.00000000000E+00 0. -1.
    9900018    1    1    2    0    0 -0.12145361980E+03  0.32967156402E+03  0.23655628804E+03  0.43325324891E+03  0.91187600000E+02 0.  0.
<mgrwt>
<rscale>  0 0.43519530E+04</rscale>
<asrwt>0</asrwt>
<pdfrwt beam="1">  1        1 0.44670809E+00 0.43519530E+04</pdfrwt>
<pdfrwt beam="2">  1       -1 0.25087528E+00 0.43519530E+04</pdfrwt>
<totfact> 0.36741663E-02</totfact>
</mgrwt>
</event>
<event>
13    1  0.1020632E-007  0.4172431E+04  0.7818608E-02  0.7970637E-01
         -2   -1    0    0    0  501 -0.00000000000E+00  0.00000000000E+00  0.21442753298E+04  0.21442753298E+04  0.00000000000E+00 0.  1.
          2   -1    0    0  501    0  0.00000000000E+00 -0.00000000000E+00 -0.20297280177E+04  0.20297280177E+04  0.00000000000E+00 0. -1.
    9900016    2    1    2    0    0 -0.25477990393E+03  0.59095008307E+03 -0.13862017873E+03  0.19572264579E+04  0.18431996781E+04 0.  0.
         24    2    3    3    0    0  0.72434412203E+03 -0.93250970219E+02 -0.19887729916E+03  0.76121397466E+03  0.80773662373E+02 0.  0.
    9900016    2    1    2    0    0  0.18274643528E+03 -0.28827791730E+03  0.11495337375E+03  0.18643317434E+04  0.18292124409E+04 0.  0.
         23    2    5    5    0    0 -0.40166956475E+03  0.55603284376E+03  0.39934995156E+03  0.79883461255E+03  0.90251824344E+02 0.  0.
        -15    1    6    6    0    0 -0.17896612386E+01  0.34708622349E+02  0.17626004798E+02  0.38968800313E+02  0.00000000000E+00 0.  1.
        -15    1    4    4    0    0  0.30187958656E+03 -0.39711542595E+01 -0.61637386165E+02  0.30813344872E+03  0.00000000000E+00 0.  1.
         15    1    3    3    0    0 -0.97912402596E+03  0.68420105329E+03  0.60257120425E+02  0.11960124833E+04  0.00000000000E+00 0. -1.
         15    1    6    6    0    0 -0.39987990352E+03  0.52132422141E+03  0.38172394676E+03  0.75986581223E+03  0.00000000000E+00 0. -1.
        -16    1    5    5    0    0  0.58441600003E+03 -0.84431076106E+03 -0.28439657782E+03  0.10654971308E+04  0.00000000000E+00 0.  1.
         16    1    4    4    0    0  0.42246453548E+03 -0.89279815959E+02 -0.13723991299E+03  0.45308052595E+03  0.00000000000E+00 0. -1.
    9900018    1    1    2    0    0  0.72033468655E+02 -0.30267216578E+03  0.13821411714E+03  0.35244514625E+03  0.91187600000E+02 0.  0.
<mgrwt>
<rscale>  0 0.41724313E+04</rscale>
<asrwt>0</asrwt>
<pdfrwt beam="1">  1        2 0.31226585E+00 0.41724313E+04</pdfrwt>
<pdfrwt beam="2">  1       -2 0.32988851E+00 0.41724313E+04</pdfrwt>
<totfact> 0.10402490E-01</totfact>
</mgrwt>
</event>
<event>
13    1  0.1020632E-007  0.4480944E+04  0.7818608E-02  0.7913981E-01
         -1   -1    0    0    0  501 -0.00000000000E+00  0.00000000000E+00  0.21713517337E+04  0.21713517337E+04  0.00000000000E+00 0.  1.
          1   -1    0    0  501    0  0.00000000000E+00 -0.00000000000E+00 -0.23117923921E+04  0.23117923921E+04  0.00000000000E+00 0. -1.
    9900016    2    1    2    0    0 -0.15632654801E+02 -0.74193010635E+02 -0.98903160123E+03  0.20920610971E+04  0.18419519926E+04 0.  0.
        -24    2    3    3    0    0 -0.75780009973E+03 -0.67038330601E+02 -0.11017716829E+04  0.13413454174E+04  0.80941698523E+02 0.  0.
    9900016    2    1    2    0    0  0.28479400570E+03  0.17421832111E+03  0.48021656507E+03  0.19151967439E+04  0.18237080274E+04 0.  0.
         23    2    5    5    0    0 -0.46386278327E+03 -0.58815514233E+03  0.28229667509E+02  0.75502760061E+03  0.90413552145E+02 0.  0.
        -15    1    6    6    0    0 -0.24995950257E+02 -0.30001793932E+02  0.22313063875E+02  0.44975304200E+02  0.00000000000E+00 0.  1.
        -15    1    3    3    0    0  0.74216744492E+03 -0.71546800337E+01  0.11274008170E+03  0.75071567972E+03  0.00000000000E+00 0.  1.
         15    1    6    6    0    0 -0.43886683301E+03 -0.55815334840E+03  0.59166036342E+01  0.71005229641E+03  0.00000000000E+00 0. -1.
         15    1    4    4    0    0 -0.60690865898E+03 -0.79897724607E+02 -0.91515940375E+03  0.11010170303E+04  0.00000000000E+00 0. -1.
        -16    1    4    4    0    0 -0.15089144075E+03  0.12859394006E+02 -0.18661227918E+03  0.24032838710E+03  0.00000000000E+00 0.  1.
         16    1    5    5    0    0  0.74865678896E+03  0.76237346344E+03  0.45198689756E+03  0.11601691433E+04  0.00000000000E+00 0. -1.
    9900018    1    1    2    0    0 -0.26916135089E+03 -0.10002531048E+03  0.36837437771E+03  0.47588628484E+03  0.91187600000E+02 0.  0.
<mgrwt>
<rscale>  0 0.44809438E+04</rscale>
<asrwt>0</asrwt>
<pdfrwt beam="1">  1        1 0.35566037E+00 0.44809438E+04</pdfrwt>
<pdfrwt beam="2">  1       -1 0.33405411E+00 0.44809438E+04</pdfrwt>
<totfact> 0.27222072E-02</totfact>
</mgrwt>
</event>
<event>
13    1  0.1020632E-007  0.5678578E+04  0.7818608E-02  0.7731584E-01
         -2   -1    0    0    0  501 -0.00000000000E+00  0.00000000000E+00  0.28637033709E+04  0.28637033709E+04  0.00000000000E+00 0.  1.
          2   -1    0    0  501    0  0.00000000000E+00 -0.00000000000E+00 -0.28150827258E+04  0.28150827258E+04  0.00000000000E+00 0. -1.
    9900016    2    1    2    0    0  0.87205266393E+03 -0.77146077111E+03 -0.15643552347E+04  0.26994581690E+04  0.18666117797E+04 0.  0.
         24    2    3    3    0    0  0.46149560716E+03  0.24001482804E+03  0.24940275297E+03  0.58253634185E+03  0.81003353535E+02 0.  0.
    9900016    2    1    2    0    0 -0.54417335916E+03  0.34122470087E+03  0.12740027045E+04  0.23344822821E+04  0.18477461116E+04 0.  0.
         23    2    5    5    0    0 -0.26235698381E+03 -0.18638340977E+03 -0.42048067445E+03  0.53752243017E+03  0.92500826796E+02 0.  0.
        -15    1    4    4    0    0  0.14822172237E+03  0.82992222284E+02  0.12413009207E+03  0.21039407715E+03  0.00000000000E+00 0.  1.
        -15    1    6    6    0    0 -0.95198561541E+02 -0.81880512662E+02 -0.23701518271E+03  0.26822263385E+03  0.00000000000E+00 0.  1.
         15    1    3    3    0    0  0.41055705677E+03 -0.10114755991E+04 -0.18137579876E+04  0.21169218272E+04  0.00000000000E+00 0. -1.
         15    1    6    6    0    0 -0.16715842227E+03 -0.10450289711E+03 -0.18346549174E+03  0.26929979633E+03  0.00000000000E+00 0. -1.
        -16    1    5    5    0    0 -0.28181637534E+03  0.52760811063E+03  0.16944833789E+04  0.17969598519E+04  0.00000000000E+00 0.  1.
         16    1    4    4    0    0  0.31327388479E+03  0.15702260576E+03  0.12527266089E+03  0.37214226470E+03  0.00000000000E+00 0. -1.
    9900018    1    1    2    0    0 -0.32787930477E+03  0.43023607024E+03  0.33897317530E+03  0.64484564556E+03  0.91187600000E+02 0.  0.
<mgrwt>
<rscale>  0 0.56785780E+04</rscale>
<asrwt>0</asrwt>
<pdfrwt beam="1">  1        2 0.43308965E+00 0.56785780E+04</pdfrwt>
<pdfrwt beam="2">  1       -2 0.44056975E+00 0.56785780E+04</pdfrwt>
<totfact> 0.62814528E-03</totfact>
</mgrwt>
</event>
<event>
13    1  0.1020632E-007  0.5131831E+04  0.7818608E-02  0.7808487E-01
         -1   -1    0    0    0  501 -0.00000000000E+00  0.00000000000E+00  0.24236920229E+04  0.24236920229E+04  0.00000000000E+00 0.  1.
          1   -1    0    0  501    0  0.00000000000E+00 -0.00000000000E+00 -0.27164844186E+04  0.27164844186E+04  0.00000000000E+00 0. -1.
    9900016    2    1    2    0    0 -0.14460745415E+04  0.43331884842E+03 -0.38179512414E+03  0.24301718080E+04  0.18657627650E+04 0.  0.
        -24    2    3    3    0    0  0.33406335547E+03 -0.14827937116E+03  0.25475522969E+03  0.45220725463E+03  0.77498881927E+02 0.  0.
    9900016    2    1    2    0    0  0.79918095431E+03 -0.32441884372E+03 -0.51119551971E+02  0.20330408560E+04  0.18403000108E+04 0.  0.
         23    2    5    5    0    0  0.41526826954E+03 -0.21934972814E+03  0.89042428685E+03  0.10108210808E+04  0.91333497404E+02 0.  0.
        -15    1    6    6    0    0  0.28833243799E+03 -0.19270912672E+03  0.60595912728E+03  0.69818254508E+03  0.00000000000E+00 0.  1.
        -15    1    3    3    0    0 -0.17801378970E+04  0.58159821958E+03 -0.63655035383E+03  0.19779645533E+04  0.00000000000E+00 0.  1.
         15    1    6    6    0    0  0.12693583156E+03 -0.26640601418E+02  0.28446515957E+03  0.31263853567E+03  0.00000000000E+00 0. -1.
         15    1    4    4    0    0  0.20947494948E+03 -0.59891793269E+02  0.12127090198E+03  0.24934597055E+03  0.00000000000E+00 0. -1.
        -16    1    4    4    0    0  0.12458840599E+03 -0.88387577892E+02  0.13348432772E+03  0.20286128408E+03  0.00000000000E+00 0.  1.
         16    1    5    5    0    0  0.38391268476E+03 -0.10506911558E+03 -0.94154383883E+03  0.10222197753E+04  0.00000000000E+00 0. -1.
    9900018    1    1    2    0    0  0.64689358722E+03 -0.10890000470E+03  0.14012228045E+03  0.67696377752E+03  0.91187600000E+02 0.  0.
<mgrwt>
<rscale>  0 0.51318307E+04</rscale>
<asrwt>0</asrwt>
<pdfrwt beam="1">  1        1 0.41792068E+00 0.51318307E+04</pdfrwt>
<pdfrwt beam="2">  1       -1 0.37287570E+00 0.51318307E+04</pdfrwt>
<totfact> 0.74620649E-03</totfact>
</mgrwt>
</event>
<event>
13    1  0.1020632E-007  0.4730355E+04  0.7818608E-02  0.7871504E-01
          2   -1    0    0  501    0  0.00000000000E+00  0.00000000000E+00  0.34104732392E+04  0.34104732392E+04  0.00000000000E+00 0. -1.
         -2   -1    0    0    0  501 -0.00000000000E+00 -0.00000000000E+00 -0.16402601836E+04  0.16402601836E+04  0.00000000000E+00 0.  1.
    9900016    2    1    2    0    0  0.46068346433E+03 -0.73731153357E+03 -0.13371429848E+03  0.20411666320E+04  0.18419077486E+04 0.  0.
         24    2    3    3    0    0  0.10443066339E+04 -0.76948535361E+03 -0.45145063377E+03  0.13758790720E+04  0.80941281864E+02 0.  0.
    9900016    2    1    2    0    0 -0.57025665829E+03  0.46500940826E+03  0.14362605158E+04  0.24499399665E+04  0.18433488992E+04 0.  0.
         23    2    5    5    0    0  0.32236210839E+03  0.17799461315E+03  0.14635458794E+04  0.15119153153E+04  0.91224823111E+02 0.  0.
        -15    1    6    6    0    0  0.12626714703E+03  0.11934328848E+03  0.72552424508E+03  0.74603729339E+03  0.00000000000E+00 0.  1.
        -15    1    4    4    0    0  0.59127593796E+03 -0.42328705056E+03 -0.21174592577E+03  0.75737408132E+03  0.00000000000E+00 0.  1.
         15    1    3    3    0    0 -0.58362316956E+03  0.32173820046E+02  0.31773633529E+03  0.66528756001E+03  0.00000000000E+00 0. -1.
         15    1    6    6    0    0  0.19609496136E+03  0.58651324676E+02  0.73802163429E+03  0.76587802191E+03  0.00000000000E+00 0. -1.
        -16    1    5    5    0    0 -0.89261876668E+03  0.28701479511E+03 -0.27285363603E+02  0.93802465123E+03  0.00000000000E+00 0.  1.
         16    1    4    4    0    0  0.45303069594E+03 -0.34619830305E+03 -0.23970470800E+03  0.61850499071E+03  0.00000000000E+00 0. -1.
    9900018    1    1    2    0    0  0.10957319396E+03  0.27230212530E+03  0.46766683836E+03  0.55962682421E+03  0.91187600000E+02 0.  0.
<mgrwt>
<rscale>  0 0.47303545E+04</rscale>
<asrwt>0</asrwt>
<pdfrwt beam="1">  1        2 0.52468819E+00 0.47303545E+04</pdfrwt>
<pdfrwt beam="2">  1       -2 0.25234772E+00 0.47303545E+04</pdfrwt>
<totfact> 0.43286344E-02</totfact>
</mgrwt>
</event>
<event>
13    1  0.1020632E-007  0.4451773E+04  0.7818608E-02  0.7919135E-01
         -2   -1    0    0    0  501 -0.00000000000E+00  0.00000000000E+00  0.21872898539E+04  0.21872898539E+04  0.00000000000E+00 0.  1.
          2   -1    0    0  501    0  0.00000000000E+00 -0.00000000000E+00 -0.22651643451E+04  0.22651643451E+04  0.00000000000E+00 0. -1.
    9900016    2    1    2    0    0  0.28656094417E+03  0.62510210599E+02 -0.49333575136E+03  0.19338648823E+04  0.18467345554E+04 0.  0.
         24    2    3    3    0    0  0.42566438320E+03  0.90241373905E+03 -0.13399346974E+03  0.10097898966E+04  0.78617184886E+02 0.  0.
    9900016    2    1    2    0    0 -0.57907174832E+03  0.35542843315E+03  0.38783310559E+03  0.19996348160E+04  0.18402367834E+04 0.  0.
         23    2    5    5    0    0  0.14395654209E+03 -0.38033101679E+03 -0.49146563011E+03  0.64417248033E+03  0.89691418165E+02 0.  0.
        -15    1    4    4    0    0  0.24908672014E+03  0.44365404674E+03 -0.84032881737E+02  0.51568850341E+03  0.00000000000E+00 0.  1.
        -15    1    6    6    0    0  0.98242541336E+02 -0.15032110011E+03 -0.24737838471E+03  0.30568626938E+03  0.00000000000E+00 0.  1.
         15    1    3    3    0    0 -0.13910343903E+03 -0.83990352845E+03 -0.35934228162E+03  0.92407498571E+03  0.00000000000E+00 0. -1.
         15    1    6    6    0    0  0.45714000757E+02 -0.23000991668E+03 -0.24408724541E+03  0.33848621096E+03  0.00000000000E+00 0. -1.
        -16    1    5    5    0    0 -0.72302829041E+03  0.73575944994E+03  0.87929873570E+03  0.13554623357E+04  0.00000000000E+00 0.  1.
         16    1    4    4    0    0  0.17657766305E+03  0.45875969231E+03 -0.49960588003E+02  0.49410139317E+03  0.00000000000E+00 0. -1.
    9900018    1    1    2    0    0  0.29251080415E+03 -0.41793864375E+03  0.27628154518E+02  0.51895450070E+03  0.91187600000E+02 0.  0.
<mgrwt>
<rscale>  0 0.44517731E+04</rscale>
<asrwt>0</asrwt>
<pdfrwt beam="1">  1        2 0.34848682E+00 0.44517731E+04</pdfrwt>
<pdfrwt beam="2">  1       -2 0.33650613E+00 0.44517731E+04</pdfrwt>
<totfact> 0.68239355E-02</totfact>
</mgrwt>
</event>
<event>
13    1  0.1020632E-007  0.6540200E+04  0.7818608E-02  0.7626808E-01
          1   -1    0    0  501    0  0.00000000000E+00  0.00000000000E+00  0.34814533911E+04  0.34814533911E+04  0.00000000000E+00 0. -1.
         -1   -1    0    0    0  501 -0.00000000000E+00 -0.00000000000E+00 -0.30715773446E+04  0.30715773446E+04  0.00000000000E+00 0.  1.
    9900016    2    1    2    0    0 -0.18807079873E+04 -0.37212809281E+03 -0.10016679821E+04  0.28422700645E+04  0.18438054459E+04 0.  0.
        -24    2    3    3    0    0  0.48149050717E+02  0.52402349142E+03 -0.22589856599E+03  0.57833646964E+03  0.80771030426E+02 0.  0.
    9900016    2    1    2    0    0  0.70945276793E+03  0.36157765116E+03  0.15151917320E+04  0.25313505960E+04  0.18649043481E+04 0.  0.
         23    2    5    5    0    0 -0.23657547842E+03  0.38440958243E+03  0.15167136396E+04  0.15850456472E+04  0.90613217932E+02 0.  0.
        -15    1    6    6    0    0 -0.78671174910E+02  0.15985091071E+03  0.74343139622E+03  0.76448133286E+03  0.00000000000E+00 0.  1.
        -15    1    3    3    0    0 -0.19288570380E+04 -0.89615158423E+03 -0.77576941609E+03  0.22639335948E+04  0.00000000000E+00 0.  1.
         15    1    6    6    0    0 -0.15790430351E+03  0.22455867172E+03  0.77328224334E+03  0.82056431434E+03  0.00000000000E+00 0. -1.
         15    1    4    4    0    0  0.33166628159E+02  0.33640966174E+03 -0.10234297094E+03  0.35319338815E+03  0.00000000000E+00 0. -1.
        -16    1    4    4    0    0  0.14982422557E+02  0.18761382968E+03 -0.12355559505E+03  0.22514308149E+03  0.00000000000E+00 0.  1.
         16    1    5    5    0    0  0.94602824634E+03 -0.22831931270E+02 -0.15219075661E+01  0.94630494882E+03  0.00000000000E+00 0. -1.
    9900018    1    1    2    0    0  0.11712552193E+04  0.10550441651E+02 -0.10364770336E+03  0.11794100752E+04  0.91187600000E+02 0.  0.
<mgrwt>
<rscale>  0 0.65401998E+04</rscale>
<asrwt>0</asrwt>
<pdfrwt beam="1">  1        1 0.53560821E+00 0.65401998E+04</pdfrwt>
<pdfrwt beam="2">  1       -1 0.47255036E+00 0.65401998E+04</pdfrwt>
<totfact> 0.37831529E-04</totfact>
</mgrwt>
</event>
<event>
13    1  0.1154266E-007  0.5915899E+04  0.7818608E-02  0.7700918E-01
          2   -1    0    0  501    0  0.00000000000E+00  0.00000000000E+00  0.25102512941E+04  0.25102512941E+04  0.00000000000E+00 0. -1.
         -2   -1    0    0    0  501 -0.00000000000E+00 -0.00000000000E+00 -0.34854931897E+04  0.34854931897E+04  0.00000000000E+00 0.  1.
    9900016    2    1    2    0    0 -0.76485583587E+03  0.14098278512E+03  0.31198958771E+03  0.20211851572E+04  0.18392855519E+04 0.  0.
         24    2    3    3    0    0 -0.53850317952E+03  0.24741275371E+03 -0.73342778466E+03  0.94626174332E+03  0.79348765009E+02 0.  0.
    9900016    2    1    2    0    0  0.94291433423E+03 -0.38382849211E+03 -0.21773010946E+04  0.30305159179E+04  0.18457992630E+04 0.  0.
         23    2    5    5    0    0 -0.33111768315E+02 -0.13577103970E+03  0.30721370106E+03  0.34966284055E+03  0.91398465621E+02 0.  0.
        -15    1    6    6    0    0 -0.23032379732E+02 -0.44898243519E+02  0.21094122917E+03  0.21689293430E+03  0.00000000000E+00 0.  1.
        -15    1    4    4    0    0 -0.18405065035E+03  0.10238957856E+03 -0.20739211411E+03  0.29558375579E+03  0.00000000000E+00 0.  1.
         15    1    3    3    0    0 -0.22635265635E+03 -0.10642996859E+03  0.10454173724E+04  0.10749234139E+04  0.00000000000E+00 0. -1.
         15    1    6    6    0    0 -0.10079388583E+02 -0.90872796180E+02  0.96272471890E+02  0.13276990624E+03  0.00000000000E+00 0. -1.
        -16    1    5    5    0    0  0.97602610255E+03 -0.24805745241E+03 -0.24845147957E+04  0.26808530774E+04  0.00000000000E+00 0.  1.
         16    1    4    4    0    0 -0.35445252918E+03  0.14502317515E+03 -0.52603567055E+03  0.65067798753E+03  0.00000000000E+00 0. -1.
    9900018    1    1    2    0    0 -0.17805849836E+03  0.24284570699E+03  0.89006961129E+03  0.94404340874E+03  0.91187600000E+02 0.  0.
<mgrwt>
<rscale>  0 0.59158985E+04</rscale>
<asrwt>0</asrwt>
<pdfrwt beam="1">  1        2 0.38619251E+00 0.59158985E+04</pdfrwt>
<pdfrwt beam="2">  1       -2 0.53622972E+00 0.59158985E+04</pdfrwt>
<totfact> 0.23890554E-03</totfact>
</mgrwt>
</event>
<event>
13    1  0.1020632E-007  0.6764091E+04  0.7818608E-02  0.7602266E-01
          1   -1    0    0  501    0  0.00000000000E+00  0.00000000000E+00  0.42087979278E+04  0.42087979278E+04  0.00000000000E+00 0. -1.
         -1   -1    0    0    0  501 -0.00000000000E+00 -0.00000000000E+00 -0.27176960274E+04  0.27176960274E+04  0.00000000000E+00 0.  1.
    9900016    2    1    2    0    0 -0.31777898801E+03 -0.15222822217E+04  0.38255634729E+02  0.24117131270E+04  0.18429785852E+04 0.  0.
         24    2    3    3    0    0 -0.19273783958E+03 -0.19345142843E+04  0.19012457116E+03  0.19549476116E+04  0.78609290984E+02 0.  0.
    9900016    2    1    2    0    0 -0.53440572117E+03 -0.55514946425E+03  0.74861305496E+03  0.21597435074E+04  0.18735768223E+04 0.  0.
         23    2    5    5    0    0  0.13971873466E+03  0.40129053738E+03  0.88087465418E+03  0.98215512884E+03  0.90183815288E+02 0.  0.
        -15    1    6    6    0    0  0.60624653612E+02  0.28686643969E+03  0.64082447722E+03  0.70471534215E+03  0.00000000000E+00 0. -1.
        -15    1    4    4    0    0 -0.13225213541E+02 -0.10370910509E+03  0.27994208585E+02  0.10823197525E+03  0.00000000000E+00 0.  1.
         15    1    6    6    0    0  0.79094081046E+02  0.11442409768E+03  0.24005017695E+03  0.27743978670E+03  0.00000000000E+00 0.  1.
         15    1    3    3    0    0 -0.12504114843E+03  0.41223206257E+03 -0.15186893643E+03  0.45676551540E+03  0.00000000000E+00 0. -1.
        -16    1    5    5    0    0 -0.67412445583E+03 -0.95644000163E+03 -0.13226159922E+03  0.11775883786E+04  0.00000000000E+00 0.  1.
         16    1    4    4    0    0 -0.17951262604E+03 -0.18308051792E+04  0.16213036257E+03  0.18467156364E+04  0.00000000000E+00 0. -1.
    9900018    1    1    2    0    0  0.85218470918E+03  0.20774316860E+04  0.70423321073E+03  0.23550373207E+04  0.91187600000E+02 0.  0.
<mgrwt>
<rscale>  0 0.67640915E+04</rscale>
<asrwt>0</asrwt>
<pdfrwt beam="1">  1        1 0.64750737E+00 0.67640915E+04</pdfrwt>
<pdfrwt beam="2">  1       -1 0.41810708E+00 0.67640915E+04</pdfrwt>
<totfact> 0.20952061E-04</totfact>
</mgrwt>
</event>
<event>
13    1  0.1020632E-007  0.4289155E+04  0.7818608E-02  0.7948626E-01
         -2   -1    0    0    0  501 -0.00000000000E+00  0.00000000000E+00  0.11060639447E+04  0.11060639447E+04  0.00000000000E+00 0.  1.
          2   -1    0    0  501    0  0.00000000000E+00 -0.00000000000E+00 -0.41581805714E+04  0.41581805714E+04  0.00000000000E+00 0. -1.
    9900016    2    1    2    0    0 -0.72401853894E+03 -0.45359974762E+03 -0.14146334804E+04  0.24754391977E+04  0.18430018344E+04 0.  0.
         24    2    3    3    0    0  0.25556273996E+03  0.77452329830E+02  0.31342717119E+03  0.41928030143E+03  0.79045569625E+02 0.  0.
    9900016    2    1    2    0    0  0.41888696628E+03  0.39614049974E+03 -0.13710800175E+04  0.23696482510E+04  0.18447164640E+04 0.  0.
         23    2    5    5    0    0 -0.37420436622E+03  0.59180471590E+02  0.29854760239E+03  0.49076765030E+03  0.90504031835E+02 0.  0.
        -15    1    6    6    0    0 -0.24960610882E+03  0.23384735656E+02  0.14424312492E+03  0.28923370223E+03  0.00000000000E+00 0.  1.
        -15    1    4    4    0    0  0.58564086511E+02  0.10934192389E+02  0.12588614732E+03  0.13927178780E+03  0.00000000000E+00 0.  1.
         15    1    6    6    0    0 -0.12459825740E+03  0.35795735934E+02  0.15430447747E+03  0.20153394807E+03  0.00000000000E+00 0. -1.
         15    1    3    3    0    0 -0.97958127889E+03 -0.53105207745E+03 -0.17280606516E+04  0.20561588962E+04  0.00000000000E+00 0. -1.
        -16    1    5    5    0    0  0.79309133249E+03  0.33696002815E+03 -0.16696276199E+04  0.18788806007E+04  0.00000000000E+00 0.  1.
         16    1    4    4    0    0  0.19699865344E+03  0.66518137441E+02  0.18754102388E+03  0.28000851363E+03  0.00000000000E+00 0. -1.
    9900018    1    1    2    0    0  0.30513157266E+03  0.57459247887E+02 -0.26640312874E+03  0.41915706745E+03  0.91187600000E+02 0.  0.
<mgrwt>
<rscale>  0 0.42891554E+04</rscale>
<asrwt>0</asrwt>
<pdfrwt beam="1">  1        2 0.63972009E+00 0.42891554E+04</pdfrwt>
<pdfrwt beam="2">  1       -2 0.17016368E+00 0.42891554E+04</pdfrwt>
<totfact> 0.41182686E-02</totfact>
</mgrwt>
</event>
<event>
13    1  0.1020632E-007  0.5040023E+04  0.7818608E-02  0.7822363E-01
          2   -1    0    0  501    0  0.00000000000E+00  0.00000000000E+00  0.32874080096E+04  0.32874080096E+04  0.00000000000E+00 0. -1.
         -2   -1    0    0    0  501 -0.00000000000E+00 -0.00000000000E+00 -0.19317524021E+04  0.19317524021E+04  0.00000000000E+00 0.  1.
    9900016    2    1    2    0    0  0.64618337492E+03 -0.46496702381E+03 -0.58586699228E+03  0.21061835648E+04  0.18598445604E+04 0.  0.
        -24    2    3    3    0    0 -0.33420056457E+03 -0.20782846840E+03  0.48620720772E+03  0.63084767231E+03  0.81784149974E+02 0.  0.
    9900016    2    1    2    0    0 -0.14014876585E+03  0.32689357792E+03  0.16734731592E+04  0.25169055566E+04  0.18460227730E+04 0.  0.
         23    2    5    5    0    0  0.15205806119E+03  0.98555525216E+02 -0.37975771342E+03  0.43045399656E+03  0.90773766752E+02 0.  0.
        -15    1    3    3    0    0  0.98038393949E+03 -0.25713855541E+03 -0.10720742000E+04  0.14753358925E+04  0.00000000000E+00 0.  1.
        -15    1    6    6    0    0  0.12918843206E+03  0.49038079480E+02 -0.32504659883E+03  0.35319920106E+03  0.00000000000E+00 0. -1.
         15    1    4    4    0    0 -0.15701804800E+03 -0.92870593879E+02  0.16236169386E+03  0.24421493451E+03  0.00000000000E+00 0. -1.
         15    1    6    6    0    0  0.22869629133E+02  0.49517445736E+02 -0.54711114595E+02  0.77254795509E+02  0.00000000000E+00 0.  1.
        -16    1    4    4    0    0 -0.17718251657E+03 -0.11495787452E+03  0.32384551386E+03  0.38663273780E+03  0.00000000000E+00 0.  1.
         16    1    5    5    0    0 -0.29220682705E+03  0.22833805270E+03  0.20532308726E+04  0.20864515600E+04  0.00000000000E+00 0. -1.
    9900018    1    1    2    0    0 -0.50603460906E+03  0.13807344589E+03  0.26804944065E+03  0.59607129025E+03  0.91187600000E+02 0.  0.
<mgrwt>
<rscale>  0 0.50400231E+04</rscale>
<asrwt>0</asrwt>
<pdfrwt beam="1">  1        2 0.50575508E+00 0.50400231E+04</pdfrwt>
<pdfrwt beam="2">  1       -2 0.29719268E+00 0.50400231E+04</pdfrwt>
<totfact> 0.27217506E-02</totfact>
</mgrwt>
</event>
<event>
13    1  0.1020632E-007  0.4805397E+04  0.7818608E-02  0.7859248E-01
         -1   -1    0    0    0  501 -0.00000000000E+00  0.00000000000E+00  0.18650519177E+04  0.18650519177E+04  0.00000000000E+00 0.  1.
          1   -1    0    0  501    0  0.00000000000E+00 -0.00000000000E+00 -0.30953351812E+04  0.30953351812E+04  0.00000000000E+00 0. -1.
    9900016    2    1    2    0    0  0.10419060366E+04 -0.20347550407E+03 -0.12438750231E+04  0.24594764478E+04  0.18370707266E+04 0.  0.
         24    2    3    3    0    0 -0.42620702244E+03  0.23354168232E+03 -0.65237280541E+03  0.81746096411E+03  0.80361727497E+02 0.  0.
    9900016    2    1    2    0    0 -0.47211020518E+03  0.27046668820E+03 -0.12707106492E+03  0.19032014268E+04  0.18193373354E+04 0.  0.
         23    2    5    5    0    0  0.23804962085E+03  0.40884795212E+03 -0.78781095611E+03  0.92337819960E+03  0.90315707314E+02 0.  0.
        -15    1    4    4    0    0 -0.19655530016E+03  0.65273231655E+02 -0.29769862996E+03  0.36265555983E+03  0.00000000000E+00 0.  1.
        -15    1    6    6    0    0  0.29499471839E+02  0.11801022343E+02 -0.36531683186E+02  0.48415357517E+02  0.00000000000E+00 0.  1.
         15    1    3    3    0    0  0.14681130590E+04 -0.43701718639E+03 -0.59150221770E+03  0.16420154837E+04  0.00000000000E+00 0. -1.
         15    1    6    6    0    0  0.20855014901E+03  0.39704692978E+03 -0.75127927293E+03  0.87496284209E+03  0.00000000000E+00 0. -1.
        -16    1    5    5    0    0 -0.71015982603E+03 -0.13838126392E+03  0.66073989120E+03  0.97982322719E+03  0.00000000000E+00 0.  1.
         16    1    4    4    0    0 -0.22965172228E+03  0.16826845066E+03 -0.35467417545E+03  0.45480540428E+03  0.00000000000E+00 0. -1.
    9900018    1    1    2    0    0 -0.56979583138E+03 -0.66991184133E+02  0.14066282451E+03  0.59770922429E+03  0.91187600000E+02 0.  0.
<mgrwt>
<rscale>  0 0.48053973E+04</rscale>
<asrwt>0</asrwt>
<pdfrwt beam="1">  1        1 0.47620541E+00 0.48053973E+04</pdfrwt>
<pdfrwt beam="2">  1       -1 0.28693107E+00 0.48053973E+04</pdfrwt>
<totfact> 0.14964952E-02</totfact>
</mgrwt>
</event>
<event>
13    1  0.1020632E-007  0.6502403E+04  0.7818608E-02  0.7631050E-01
          2   -1    0    0  501    0  0.00000000000E+00  0.00000000000E+00  0.41857574539E+04  0.41857574539E+04  0.00000000000E+00 0. -1.
         -2   -1    0    0    0  501 -0.00000000000E+00 -0.00000000000E+00 -0.25253045192E+04  0.25253045192E+04  0.00000000000E+00 0.  1.
    9900016    2    1    2    0    0  0.85088663272E+02 -0.17913199534E+04 -0.75943852206E+03  0.26827959823E+04  0.18451504431E+04 0.  0.
         24    2    3    3    0    0  0.64655339679E+03 -0.20190256080E+03 -0.72705178781E+03  0.99681282831E+03  0.78965647955E+02 0.  0.
    9900016    2    1    2    0    0 -0.30526952524E+03  0.53688920501E+03  0.14681580926E+04  0.24357247231E+04  0.18427770458E+04 0.  0.
         23    2    5    5    0    0 -0.23362141016E+03 -0.45912615698E+03  0.13276048515E+04  0.14272926395E+04  0.96196910969E+02 0.  0.
        -15    1    4    4    0    0  0.58218869006E+03 -0.20086836835E+03 -0.63614623923E+03  0.88542295539E+03  0.00000000000E+00 0.  1.
        -15    1    6    6    0    0 -0.58682868681E+02 -0.78250910881E+02  0.35487806884E+03  0.36811048325E+03  0.00000000000E+00 0. -1.
         15    1    6    6    0    0 -0.17493854148E+03 -0.38087524610E+03  0.97272678266E+03  0.10591821562E+04  0.00000000000E+00 0.  1.
         15    1    3    3    0    0 -0.56146473352E+03 -0.15894173926E+04 -0.32386734249E+02  0.16859831539E+04  0.00000000000E+00 0. -1.
        -16    1    5    5    0    0 -0.71648115082E+02  0.99601536199E+03  0.14055324108E+03  0.10084320836E+04  0.00000000000E+00 0.  1.
         16    1    4    4    0    0  0.64364706737E+02 -0.10341924519E+01 -0.90905548582E+02  0.11138987293E+03  0.00000000000E+00 0. -1.
    9900018    1    1    2    0    0  0.22018086197E+03  0.12544307484E+04  0.95173336416E+03  0.15925412677E+04  0.91187600000E+02 0.  0.
<mgrwt>
<rscale>  0 0.65024033E+04</rscale>
<asrwt>0</asrwt>
<pdfrwt beam="1">  1        2 0.64396269E+00 0.65024033E+04</pdfrwt>
<pdfrwt beam="2">  1       -2 0.38850839E+00 0.65024033E+04</pdfrwt>
<totfact> 0.13572226E-03</totfact>
</mgrwt>
</event>
<event>
13    1  0.1020632E-007  0.4036024E+04  0.7818608E-02  0.7997319E-01
         -1   -1    0    0    0  501 -0.00000000000E+00  0.00000000000E+00  0.17531937137E+04  0.17531937137E+04  0.00000000000E+00 0.  1.
          1   -1    0    0  501    0  0.00000000000E+00 -0.00000000000E+00 -0.23228305880E+04  0.23228305880E+04  0.00000000000E+00 0. -1.
    9900016    2    1    2    0    0 -0.70371896098E+02  0.14640212960E+03  0.17862571463E+03  0.18651082334E+04  0.18494149856E+04 0.  0.
         24    2    3    3    0    0 -0.89829044684E+03 -0.72204790446E+02  0.38675525192E+03  0.98388407548E+03  0.79429153726E+02 0.  0.
    9900016    2    1    2    0    0  0.99141355981E+02 -0.27729062613E+03 -0.52652867399E+03  0.19362515679E+04  0.18398691774E+04 0.  0.
         23    2    5    5    0    0 -0.36665424682E+03 -0.21631981789E+03 -0.11070064053E+04  0.11895003513E+04  0.90654862925E+02 0.  0.
        -15    1    6    6    0    0 -0.11522522367E+03 -0.27765750755E+02 -0.36234003660E+03  0.38123233232E+03  0.00000000000E+00 0.  1.
        -15    1    4    4    0    0 -0.42236746597E+03  0.26860631953E+01  0.16395125934E+03  0.45308002239E+03  0.00000000000E+00 0.  1.
         15    1    3    3    0    0  0.82791855074E+03  0.21860692004E+03 -0.20812953729E+03  0.88122415789E+03  0.00000000000E+00 0. -1.
         15    1    6    6    0    0 -0.25142902314E+03 -0.18855406713E+03 -0.74466636865E+03  0.80826801898E+03  0.00000000000E+00 0. -1.
        -16    1    5    5    0    0  0.46579560280E+03 -0.60970808242E+02  0.58047773126E+03  0.74675121663E+03  0.00000000000E+00 0.  1.
         16    1    4    4    0    0 -0.47592298086E+03 -0.74890853641E+02  0.22280399258E+03  0.53080405309E+03  0.00000000000E+00 0. -1.
    9900018    1    1    2    0    0 -0.28769459883E+02  0.13088849653E+03 -0.22173391498E+03  0.27466450042E+03  0.91187600000E+02 0.  0.
<mgrwt>
<rscale>  0 0.40360238E+04</rscale>
<asrwt>0</asrwt>
<pdfrwt beam="1">  1        1 0.35735855E+00 0.40360238E+04</pdfrwt>
<pdfrwt beam="2">  1       -1 0.26972211E+00 0.40360238E+04</pdfrwt>
<totfact> 0.72689375E-02</totfact>
</mgrwt>
</event>
<event>
13    1  0.1020632E-007  0.4978933E+04  0.7818608E-02  0.7831765E-01
          1   -1    0    0  501    0  0.00000000000E+00  0.00000000000E+00  0.45008036776E+04  0.45008036776E+04  0.00000000000E+00 0. -1.
         -1   -1    0    0    0  501 -0.00000000000E+00 -0.00000000000E+00 -0.13769635678E+04  0.13769635678E+04  0.00000000000E+00 0.  1.
    9900016    2    1    2    0    0  0.78691642790E+03  0.13061903729E+03  0.47986451047E+03  0.20622781612E+04  0.18402234833E+04 0.  0.
        -24    2    3    3    0    0  0.74267455852E+03  0.93292134310E+03  0.20216002102E+03  0.12121216366E+04  0.80389399497E+02 0.  0.
    9900016    2    1    2    0    0 -0.60751776641E+03 -0.76582763972E+03  0.21648578569E+04  0.29947925277E+04  0.18238977310E+04 0.  0.
         23    2    5    5    0    0  0.19491824766E+03  0.17331434658E+02 -0.25151182530E+03  0.33094490941E+03  0.89290721243E+02 0.  0.
        -15    1    6    6    0    0  0.95501422304E+02 -0.36130364992E+01 -0.56414561217E+02  0.11097827901E+03  0.00000000000E+00 0.  1.
        -15    1    3    3    0    0  0.44241869377E+02 -0.80230230581E+03  0.27770448945E+03  0.85015652463E+03  0.00000000000E+00 0.  1.
         15    1    4    4    0    0  0.56579943525E+02  0.10607077960E+03  0.99290450816E+01  0.12062705431E+03  0.00000000000E+00 0. -1.
         15    1    6    6    0    0  0.99416825353E+02  0.20944471157E+02 -0.19509726409E+03  0.21996663040E+03  0.00000000000E+00 0. -1.
        -16    1    4    4    0    0  0.68609461500E+03  0.82685056349E+03  0.19223097594E+03  0.10914945823E+04  0.00000000000E+00 0.  1.
         16    1    5    5    0    0 -0.80243601406E+03 -0.78315907438E+03  0.24163696822E+04  0.26638476183E+04  0.00000000000E+00 0. -1.
    9900018    1    1    2    0    0 -0.17939866149E+03  0.63520860243E+03  0.47911774250E+03  0.82069655655E+03  0.91187600000E+02 0.  0.
<mgrwt>
<rscale>  0 0.49789327E+04</rscale>
<asrwt>0</asrwt>
<pdfrwt beam="1">  1        1 0.69243133E+00 0.49789327E+04</pdfrwt>
<pdfrwt beam="2">  1       -1 0.21184055E+00 0.49789327E+04</pdfrwt>
<totfact> 0.28824591E-03</totfact>
</mgrwt>
</event>
<event>
13    1  0.1020632E-007  0.5285183E+04  0.7818608E-02  0.7785960E-01
          2   -1    0    0  501    0  0.00000000000E+00  0.00000000000E+00  0.28860950772E+04  0.28860950772E+04  0.00000000000E+00 0. -1.
         -2   -1    0    0    0  501 -0.00000000000E+00 -0.00000000000E+00 -0.24196322471E+04  0.24196322471E+04  0.00000000000E+00 0.  1.
    9900016    2    1    2    0    0 -0.27066957993E+02  0.10027545696E+04 -0.92417851686E+02  0.21069348061E+04  0.18505090842E+04 0.  0.
        -24    2    3    3    0    0  0.30457836127E+02 -0.47543200254E+03  0.31001210882E+03  0.57386777656E+03  0.79078748987E+02 0.  0.
    9900016    2    1    2    0    0 -0.41458043279E+03 -0.78443072260E+03  0.12200597779E+04  0.23692199200E+04  0.18268685432E+04 0.  0.
         23    2    5    5    0    0  0.27931590218E+03  0.20914702779E+03 -0.26866698773E+03  0.44958551411E+03  0.90472823294E+02 0.  0.
        -15    1    6    6    0    0  0.13351685487E+03  0.72611293802E+02 -0.68181089634E+02  0.16657674359E+03  0.00000000000E+00 0.  1.
        -15    1    3    3    0    0 -0.57524794120E+02  0.14781865721E+04 -0.40242996051E+03  0.15330670295E+04  0.00000000000E+00 0.  1.
         15    1    6    6    0    0  0.14579904730E+03  0.13653573399E+03 -0.20048589810E+03  0.28300877051E+03  0.00000000000E+00 0. -1.
         15    1    4    4    0    0 -0.17662073377E+02 -0.20666159077E+03  0.10535623174E+03  0.23263898534E+03  0.00000000000E+00 0. -1.
        -16    1    4    4    0    0  0.48119909504E+02 -0.26877041177E+03  0.20465587708E+03  0.34122879122E+03  0.00000000000E+00 0.  1.
         16    1    5    5    0    0 -0.69389633497E+03 -0.99357775039E+03  0.14887267656E+04  0.19196344059E+04  0.00000000000E+00 0. -1.
    9900018    1    1    2    0    0  0.44164739078E+03 -0.21832384700E+03 -0.66117909612E+03  0.82957259809E+03  0.91187600000E+02 0.  0.
<mgrwt>
<rscale>  0 0.52851826E+04</rscale>
<asrwt>0</asrwt>
<pdfrwt beam="1">  1        2 0.44401463E+00 0.52851826E+04</pdfrwt>
<pdfrwt beam="2">  1       -2 0.37225111E+00 0.52851826E+04</pdfrwt>
<totfact> 0.16380076E-02</totfact>
</mgrwt>
</event>
<event>
13    1  0.1020632E-007  0.4130847E+04  0.7818608E-02  0.7978658E-01
          2   -1    0    0  501    0  0.00000000000E+00  0.00000000000E+00  0.19121466764E+04  0.19121466764E+04  0.00000000000E+00 0. -1.
         -2   -1    0    0    0  501 -0.00000000000E+00 -0.00000000000E+00 -0.22309869131E+04  0.22309869131E+04  0.00000000000E+00 0.  1.
    9900016    2    1    2    0    0 -0.63837671491E+03  0.13258534593E+03  0.15569115255E+02  0.19506687573E+04  0.18384130383E+04 0.  0.
         24    2    3    3    0    0  0.16886439582E+02 -0.63903536669E+03  0.51227400642E+03  0.82306773097E+03  0.79777693538E+02 0.  0.
    9900016    2    1    2    0    0  0.38974630710E+03 -0.60015438957E+02 -0.15446172176E+03  0.18641664937E+04  0.18154212337E+04 0.  0.
         23    2    5    5    0    0  0.23539901703E+03 -0.34212949272E+03 -0.93112094126E+03  0.10235649421E+04  0.90739717907E+02 0.  0.
        -15    1    6    6    0    0  0.18872012526E+03 -0.20274818904E+03 -0.57238278801E+03  0.63588062547E+03  0.00000000000E+00 0.  1.
        -15    1    4    4    0    0  0.60132930557E+01 -0.56394565304E+02  0.19707759690E+02  0.60040840110E+02  0.00000000000E+00 0.  1.
         15    1    6    6    0    0  0.46678891763E+02 -0.13938130367E+03 -0.35873815324E+03  0.38768431660E+03  0.00000000000E+00 0. -1.
         15    1    3    3    0    0 -0.65526315449E+03  0.77162071261E+03 -0.49670489116E+03  0.11276010264E+04  0.00000000000E+00 0. -1.
        -16    1    5    5    0    0  0.15434729008E+03  0.28211405376E+03  0.77665921949E+03  0.84060155157E+03  0.00000000000E+00 0.  1.
         16    1    4    4    0    0  0.10873146526E+02 -0.58264080138E+03  0.49256624673E+03  0.76302689086E+03  0.00000000000E+00 0. -1.
    9900018    1    1    2    0    0  0.24863040780E+03 -0.72569906968E+02 -0.17994763017E+03  0.32829833853E+03  0.91187600000E+02 0.  0.
<mgrwt>
<rscale>  0 0.41308470E+04</rscale>
<asrwt>0</asrwt>
<pdfrwt beam="1">  1        2 0.29417641E+00 0.41308470E+04</pdfrwt>
<pdfrwt beam="2">  1       -2 0.34322875E+00 0.41308470E+04</pdfrwt>
<totfact> 0.10014432E-01</totfact>
</mgrwt>
</event>
<event>
13    1  0.1020632E-007  0.5744411E+04  0.7818608E-02  0.7722925E-01
         -1   -1    0    0    0  501 -0.00000000000E+00  0.00000000000E+00  0.23133601968E+04  0.23133601968E+04  0.00000000000E+00 0.  1.
          1   -1    0    0  501    0  0.00000000000E+00 -0.00000000000E+00 -0.35660525933E+04  0.35660525933E+04  0.00000000000E+00 0. -1.
    9900016    2    1    2    0    0  0.89226961367E+02 -0.99868000136E+03 -0.19763008228E+04  0.28838973424E+04  0.18454743952E+04 0.  0.
        -24    2    3    3    0    0 -0.65488793804E+03 -0.92683520204E+03 -0.17774506750E+04  0.21103276687E+04  0.79058612031E+02 0.  0.
    9900016    2    1    2    0    0  0.43212591164E+03  0.21510496579E+03  0.19794576919E+03  0.19136489763E+04  0.18411591259E+04 0.  0.
         23    2    5    5    0    0 -0.35152958735E+03 -0.46289421886E+03 -0.40557620218E+03  0.71446691945E+03  0.90148846781E+02 0.  0.
        -15    1    6    6    0    0 -0.27285916222E+03 -0.40386781367E+03 -0.31199345158E+03  0.57870652939E+03  0.00000000000E+00 0.  1.
        -15    1    3    3    0    0  0.74411489940E+03 -0.71844799319E+02 -0.19885014776E+03  0.77356967364E+03  0.00000000000E+00 0.  1.
         15    1    4    4    0    0 -0.58965262953E+03 -0.79807830294E+03 -0.15798958142E+04  0.18656607368E+04  0.00000000000E+00 0. -1.
         15    1    6    6    0    0 -0.78670425133E+02 -0.59026405190E+02 -0.93582750602E+02  0.13576039006E+03  0.00000000000E+00 0. -1.
        -16    1    4    4    0    0 -0.65235308511E+02 -0.12875689911E+03 -0.19755486086E+03  0.24466693196E+03  0.00000000000E+00 0.  1.
         16    1    5    5    0    0  0.78365549899E+03  0.67799918465E+03  0.60352197137E+03  0.11991820568E+04  0.00000000000E+00 0. -1.
    9900018    1    1    2    0    0 -0.52135287301E+03  0.78357503558E+03  0.52566265708E+03  0.10818664714E+04  0.91187600000E+02 0.  0.
<mgrwt>
<rscale>  0 0.57444109E+04</rscale>
<asrwt>0</asrwt>
<pdfrwt beam="1">  1        1 0.54862348E+00 0.57444109E+04</pdfrwt>
<pdfrwt beam="2">  1       -1 0.35590157E+00 0.57444109E+04</pdfrwt>
<totfact> 0.21389117E-03</totfact>
</mgrwt>
</event>
<event>
13    1  0.1020632E-007  0.6151680E+04  0.7818608E-02  0.7671875E-01
         -1   -1    0    0    0  501 -0.00000000000E+00  0.00000000000E+00  0.23004061347E+04  0.23004061347E+04  0.00000000000E+00 0.  1.
          1   -1    0    0  501    0  0.00000000000E+00 -0.00000000000E+00 -0.41126615876E+04  0.41126615876E+04  0.00000000000E+00 0. -1.
    9900016    2    1    2    0    0 -0.91315522706E+02 -0.15447108516E+04 -0.23137853877E+04  0.33376812042E+04  0.18417499452E+04 0.  0.
         24    2    3    3    0    0  0.26843978252E+03 -0.70372328670E+02  0.23421896423E+03  0.37197317115E+03  0.80581234599E+02 0.  0.
    9900016    2    1    2    0    0  0.14051574185E+03  0.59416264164E+03 -0.13130921218E+03  0.19287553110E+04  0.18248509588E+04 0.  0.
         23    2    5    5    0    0  0.60259378501E+03  0.63329784476E+02 -0.76605640062E+03  0.98101925412E+03  0.91795624503E+02 0.  0.
        -15    1    4    4    0    0  0.18944861576E+03 -0.11821827765E+02  0.14070896629E+03  0.23628276877E+03  0.00000000000E+00 0.  1.
        -15    1    6    6    0    0  0.53958352850E+03  0.72795985572E+02 -0.64388465690E+03  0.84323015312E+03  0.00000000000E+00 0.  1.
         15    1    6    6    0    0  0.63010256518E+02 -0.94662010957E+01 -0.12217174373E+03  0.13778910100E+03  0.00000000000E+00 0. -1.
         15    1    3    3    0    0 -0.35975530522E+03 -0.14743385229E+04 -0.25480043519E+04  0.29657080330E+04  0.00000000000E+00 0. -1.
        -16    1    5    5    0    0 -0.46207804316E+03  0.53083285717E+03  0.63474718844E+03  0.94773605685E+03  0.00000000000E+00 0.  1.
         16    1    4    4    0    0  0.78991166757E+02 -0.58550500905E+02  0.93509997944E+02  0.13569040238E+03  0.00000000000E+00 0. -1.
    9900018    1    1    2    0    0 -0.49200219149E+02  0.95054820994E+03  0.63283914700E+03  0.11466312072E+04  0.91187600000E+02 0.  0.
<mgrwt>
<rscale>  0 0.61516801E+04</rscale>
<asrwt>0</asrwt>
<pdfrwt beam="1">  1        1 0.63271717E+00 0.61516801E+04</pdfrwt>
<pdfrwt beam="2">  1       -1 0.35390864E+00 0.61516801E+04</pdfrwt>
<totfact> 0.73211108E-04</totfact>
</mgrwt>
</event>
<event>
13    1  0.1020632E-007  0.5054909E+04  0.7818608E-02  0.7820092E-01
         -2   -1    0    0    0  501 -0.00000000000E+00  0.00000000000E+00  0.28828219386E+04  0.28828219386E+04  0.00000000000E+00 0.  1.
          2   -1    0    0  501    0  0.00000000000E+00 -0.00000000000E+00 -0.22158937647E+04  0.22158937647E+04  0.00000000000E+00 0. -1.
    9900016    2    1    2    0    0 -0.51964862535E+03 -0.12284988137E+04  0.12670982893E+04  0.26020820015E+04  0.18401219086E+04 0.  0.
         24    2    3    3    0    0  0.59250014236E+03 -0.74989674915E+03  0.95130739309E+03  0.13508191563E+04  0.79530394823E+02 0.  0.
    9900016    2    1    2    0    0  0.38433399055E+03  0.98178356948E+03 -0.47784778271E+03  0.21765455990E+04  0.18432039083E+04 0.  0.
         23    2    5    5    0    0 -0.64049695974E+03  0.53479717120E+03 -0.62767121589E+03  0.10484842629E+04  0.95413439913E+02 0.  0.
        -15    1    6    6    0    0 -0.48047224127E+02  0.40118691942E+02 -0.82428120623E+02  0.10350091912E+03  0.00000000000E+00 0.  1.
        -15    1    4    4    0    0  0.15541604089E+03 -0.25312655758E+03  0.31076392305E+03  0.42988535191E+03  0.00000000000E+00 0.  1.
         15    1    6    6    0    0 -0.59244973561E+03  0.49467847926E+03 -0.54524309527E+03  0.94498334377E+03  0.00000000000E+00 0. -1.
         15    1    3    3    0    0 -0.11121487677E+04 -0.47860206455E+03  0.31579089622E+03  0.12512628452E+04  0.00000000000E+00 0. -1.
        -16    1    5    5    0    0  0.10248309503E+04  0.44698639827E+03  0.14982343319E+03  0.11280613361E+04  0.00000000000E+00 0.  1.
         16    1    4    4    0    0  0.43708410147E+03 -0.49677019157E+03  0.64054347005E+03  0.92093380435E+03  0.00000000000E+00 0. -1.
    9900018    1    1    2    0    0  0.13531463479E+03  0.24671524422E+03 -0.12232233267E+03  0.32008810285E+03  0.91187600000E+02 0.  0.
<mgrwt>
<rscale>  0 0.50549094E+04</rscale>
<asrwt>0</asrwt>
<pdfrwt beam="1">  1        2 0.34090673E+00 0.50549094E+04</pdfrwt>
<pdfrwt beam="2">  1       -2 0.44351107E+00 0.50549094E+04</pdfrwt>
<totfact> 0.14084208E-02</totfact>
</mgrwt>
</event>
<event>
13    1  0.1020632E-007  0.6424874E+04  0.7818608E-02  0.7639844E-01
         -1   -1    0    0    0  501 -0.00000000000E+00  0.00000000000E+00  0.29423647630E+04  0.29423647630E+04  0.00000000000E+00 0.  1.
          1   -1    0    0  501    0  0.00000000000E+00 -0.00000000000E+00 -0.35072987331E+04  0.35072987331E+04  0.00000000000E+00 0. -1.
    9900016    2    1    2    0    0  0.12658249805E+04 -0.11279612366E+04 -0.61529365724E+03  0.25801557851E+04  0.18449954358E+04 0.  0.
        -24    2    3    3    0    0 -0.11465842106E+03  0.19915794601E+03  0.35735678931E+03  0.43235955687E+03  0.80127838957E+02 0.  0.
    9900016    2    1    2    0    0 -0.17553432932E+03 -0.32705916050E+03 -0.53497435572E+03  0.19572448681E+04  0.18457599837E+04 0.  0.
         23    2    5    5    0    0 -0.71531615646E+03 -0.14258738086E+03 -0.98611623801E+03  0.12299737658E+04  0.91661686017E+02 0.  0.
        -15    1    6    6    0    0 -0.66065921507E+03 -0.12404664807E+03 -0.86218198155E+03  0.10932593190E+04  0.00000000000E+00 0.  1.
        -15    1    3    3    0    0  0.13804834016E+04 -0.13271191826E+04 -0.97265044655E+03  0.21477962282E+04  0.00000000000E+00 0.  1.
         15    1    6    6    0    0 -0.54656941395E+02 -0.18540732788E+02 -0.12393425646E+03  0.13671444671E+03  0.00000000000E+00 0. -1.
         15    1    4    4    0    0  0.34989659209E+01  0.61735436417E+02  0.10054831970E+03  0.11804012651E+03  0.00000000000E+00 0. -1.
        -16    1    4    4    0    0 -0.11815738698E+03  0.13742250959E+03  0.25680846961E+03  0.31431943036E+03  0.00000000000E+00 0.  1.
         16    1    5    5    0    0  0.53978182715E+03 -0.18447177964E+03  0.45114188229E+03  0.72727110238E+03  0.00000000000E+00 0. -1.
    9900018    1    1    2    0    0 -0.10902906512E+04  0.14550203971E+04  0.58533404288E+03  0.19122628429E+04  0.91187600000E+02 0.  0.
<mgrwt>
<rscale>  0 0.64248742E+04</rscale>
<asrwt>0</asrwt>
<pdfrwt beam="1">  1        1 0.53958442E+00 0.64248742E+04</pdfrwt>
<pdfrwt beam="2">  1       -1 0.45267150E+00 0.64248742E+04</pdfrwt>
<totfact> 0.49666487E-04</totfact>
</mgrwt>
</event>
<event>
13    1  0.1020632E-007  0.6925204E+04  0.7818608E-02  0.7585199E-01
          2   -1    0    0  501    0  0.00000000000E+00  0.00000000000E+00  0.40852996483E+04  0.40852996483E+04  0.00000000000E+00 0. -1.
         -2   -1    0    0    0  501 -0.00000000000E+00 -0.00000000000E+00 -0.29348187212E+04  0.29348187212E+04  0.00000000000E+00 0.  1.
    9900016    2    1    2    0    0 -0.20668354653E+04  0.56985895527E+03 -0.11019331630E+04  0.30291908921E+04  0.18344461550E+04 0.  0.
        -24    2    3    3    0    0 -0.52807867215E+03  0.95655327585E+03  0.34022955701E+01  0.10955230194E+04  0.79359037586E+02 0.  0.
    9900016    2    1    2    0    0  0.96407553825E+03 -0.12850275518E+03  0.12135903064E+04  0.24103121592E+04  0.18414257170E+04 0.  0.
         23    2    5    5    0    0 -0.10479481421E+03  0.35981428351E+03 -0.30407093712E+03  0.49087656225E+03  0.89735126115E+02 0.  0.
        -15    1    3    3    0    0 -0.15387567932E+04 -0.38669432058E+03 -0.11053354586E+04  0.19336678728E+04  0.00000000000E+00 0.  1.
        -15    1    6    6    0    0 -0.38357740467E+02  0.19451846204E+03 -0.10728201642E+03  0.22542887875E+03  0.00000000000E+00 0. -1.
         15    1    4    4    0    0 -0.17324981966E+03  0.26208725390E+03 -0.24790300977E+02  0.31515042074E+03  0.00000000000E+00 0. -1.
         15    1    6    6    0    0 -0.66437073744E+02  0.16529582147E+03 -0.19678892070E+03  0.26544768350E+03  0.00000000000E+00 0.  1.
        -16    1    4    4    0    0 -0.35482885249E+03  0.69446602195E+03  0.28192596547E+02  0.78037259864E+03  0.00000000000E+00 0.  1.
         16    1    5    5    0    0  0.10688703525E+04 -0.48831703869E+03  0.15176612435E+04  0.19194355969E+04  0.00000000000E+00 0. -1.
    9900018    1    1    2    0    0  0.11027599271E+04 -0.44135620009E+03  0.10388237837E+04  0.15806153182E+04  0.91187600000E+02 0.  0.
<mgrwt>
<rscale>  0 0.69252044E+04</rscale>
<asrwt>0</asrwt>
<pdfrwt beam="1">  1        2 0.62850763E+00 0.69252044E+04</pdfrwt>
<pdfrwt beam="2">  1       -2 0.45151058E+00 0.69252044E+04</pdfrwt>
<totfact> 0.61893380E-04</totfact>
</mgrwt>
</event>
<event>
13    1  0.1020632E-007  0.6576783E+04  0.7818608E-02  0.7622730E-01
         -2   -1    0    0    0  501 -0.00000000000E+00  0.00000000000E+00  0.21603686443E+04  0.21603686443E+04  0.00000000000E+00 0.  1.
          2   -1    0    0  501    0  0.00000000000E+00 -0.00000000000E+00 -0.50054040712E+04  0.50054040712E+04  0.00000000000E+00 0. -1.
    9900016    2    1    2    0    0  0.17325202134E+04 -0.10680347673E+04 -0.11448832669E+04  0.29781211149E+04  0.18482757170E+04 0.  0.
         24    2    3    3    0    0 -0.38033376892E+03 -0.14077975429E+02 -0.14859468081E+03  0.41539447778E+03  0.74968178778E+02 0.  0.
    9900016    2    1    2    0    0 -0.85606307031E+02  0.56756952130E+02 -0.55784444555E+03  0.19408337780E+04  0.18560968555E+04 0.  0.
         23    2    5    5    0    0 -0.10343591378E+03 -0.57981598200E+03  0.45112798605E+03  0.74769993679E+03  0.93022440525E+02 0.  0.
        -15    1    6    6    0    0 -0.28731441161E+02 -0.56507308248E+02  0.78751023602E+02  0.10109547623E+03  0.00000000000E+00 0.  1.
        -15    1    4    4    0    0 -0.12870098269E+03  0.27814065549E+02 -0.35647497094E+02  0.13641227671E+03  0.00000000000E+00 0.  1.
         15    1    6    6    0    0 -0.74704472617E+02 -0.52330867375E+03  0.37237696245E+03  0.64660446056E+03  0.00000000000E+00 0. -1.
         15    1    3    3    0    0  0.21128539824E+04 -0.10539567919E+04 -0.99628858606E+03  0.25627266371E+04  0.00000000000E+00 0. -1.
        -16    1    5    5    0    0  0.17829606747E+02  0.63657293413E+03 -0.10089724316E+04  0.11931338412E+04  0.00000000000E+00 0.  1.
         16    1    4    4    0    0 -0.25163278622E+03 -0.41892040979E+02 -0.11294718372E+03  0.27898220106E+03  0.00000000000E+00 0. -1.
    9900018    1    1    2    0    0 -0.16469139064E+04  0.10112778152E+04 -0.11423077145E+04  0.22468178225E+04  0.91187600000E+02 0.  0.
<mgrwt>
<rscale>  0 0.65767828E+04</rscale>
<asrwt>0</asrwt>
<pdfrwt beam="1">  1        2 0.77006216E+00 0.65767828E+04</pdfrwt>
<pdfrwt beam="2">  1       -2 0.33236441E+00 0.65767828E+04</pdfrwt>
<totfact> 0.42654117E-04</totfact>
</mgrwt>
</event>
<event>
13    1  0.1020632E-007  0.4926671E+04  0.7818608E-02  0.7839920E-01
         -1   -1    0    0    0  501 -0.00000000000E+00  0.00000000000E+00  0.34589758716E+04  0.34589758716E+04  0.00000000000E+00 0.  1.
          1   -1    0    0  501    0  0.00000000000E+00 -0.00000000000E+00 -0.17542826475E+04  0.17542826475E+04  0.00000000000E+00 0. -1.
    9900016    2    1    2    0    0  0.47793841636E+03 -0.27202422232E+03 -0.68755003776E+03  0.20459089785E+04  0.18467799508E+04 0.  0.
         24    2    3    3    0    0 -0.28291590501E+03  0.85940849067E+02  0.50284758553E+03  0.58848495232E+03  0.77663414736E+02 0.  0.
    9900016    2    1    2    0    0 -0.51185206205E+03  0.24309999110E+03  0.20694568950E+04  0.28289814518E+04  0.18437445797E+04 0.  0.
         23    2    5    5    0    0 -0.30764114954E+03 -0.21796461493E+03 -0.24609627863E+03  0.45915673938E+03  0.90054887180E+02 0.  0.
        -15    1    6    6    0    0 -0.34570899610E+02 -0.52002472345E+02 -0.13413999814E+02  0.63869708163E+02  0.00000000000E+00 0. -1.
        -15    1    4    4    0    0 -0.10965678519E+02 -0.46132866051E+01  0.58598376782E+02  0.59793798007E+02  0.00000000000E+00 0.  1.
         15    1    3    3    0    0  0.76085432137E+03 -0.35796507138E+03 -0.11903976233E+04  0.14574240262E+04  0.00000000000E+00 0. -1.
         15    1    6    6    0    0 -0.27307024993E+03 -0.16596214259E+03 -0.23268227882E+03  0.39528703122E+03  0.00000000000E+00 0.  1.
        -16    1    5    5    0    0 -0.20421091250E+03  0.46106460604E+03  0.23155531736E+04  0.23698247124E+04  0.00000000000E+00 0.  1.
         16    1    4    4    0    0 -0.27195022649E+03  0.90554135672E+02  0.44424920875E+03  0.52869115431E+03  0.00000000000E+00 0. -1.
    9900018    1    1    2    0    0  0.33913645685E+02  0.28924231215E+02  0.32278636676E+03  0.33836808874E+03  0.91187600000E+02 0.  0.
<mgrwt>
<rscale>  0 0.49266708E+04</rscale>
<asrwt>0</asrwt>
<pdfrwt beam="1">  1        1 0.26988964E+00 0.49266708E+04</pdfrwt>
<pdfrwt beam="2">  1       -1 0.53215013E+00 0.49266708E+04</pdfrwt>
<totfact> 0.30251795E-03</totfact>
</mgrwt>
</event>
<event>
13    1  0.1020632E-007  0.6506212E+04  0.7818608E-02  0.7630621E-01
         -1   -1    0    0    0  501 -0.00000000000E+00  0.00000000000E+00  0.35236083461E+04  0.35236083461E+04  0.00000000000E+00 0.  1.
          1   -1    0    0  501    0  0.00000000000E+00 -0.00000000000E+00 -0.30033693776E+04  0.30033693776E+04  0.00000000000E+00 0. -1.
    9900016    2    1    2    0    0  0.40576282622E+02  0.16038738040E+04 -0.12506933629E+02  0.24405467218E+04  0.18390362324E+04 0.  0.
        -24    2    3    3    0    0 -0.78267067644E+03  0.86945019431E+03 -0.44697784487E+03  0.12548492196E+04  0.79626264722E+02 0.  0.
    9900016    2    1    2    0    0 -0.12852698876E+04 -0.63217485920E+03  0.81408657461E+03  0.24799040765E+04  0.18535435094E+04 0.  0.
         23    2    5    5    0    0 -0.47233080292E+03 -0.40319745390E+03  0.13437064922E+04  0.14830099675E+04  0.90038060829E+02 0.  0.
        -15    1    3    3    0    0  0.82324695906E+03  0.73442360965E+03  0.43447091124E+03  0.11856975022E+04  0.00000000000E+00 0.  1.
        -15    1    6    6    0    0 -0.77632622787E+02 -0.52819017390E+02  0.28451426938E+03  0.29960814775E+03  0.00000000000E+00 0. -1.
         15    1    4    4    0    0 -0.49656397913E+03  0.49804162583E+03 -0.28461851977E+03  0.75870214724E+03  0.00000000000E+00 0. -1.
         15    1    6    6    0    0 -0.39469818014E+03 -0.35037843651E+03  0.10591922228E+04  0.11834018197E+04  0.00000000000E+00 0.  1.
        -16    1    4    4    0    0 -0.28610669731E+03  0.37140856848E+03 -0.16235932510E+03  0.49614707239E+03  0.00000000000E+00 0.  1.
         16    1    5    5    0    0 -0.81293908466E+03 -0.22897740529E+03 -0.52961991755E+03  0.99689410900E+03  0.00000000000E+00 0. -1.
    9900018    1    1    2    0    0  0.12446936050E+04 -0.97169894477E+03 -0.28134067255E+03  0.16065269254E+04  0.91187600000E+02 0.  0.
<mgrwt>
<rscale>  0 0.65062116E+04</rscale>
<asrwt>0</asrwt>
<pdfrwt beam="1">  1        1 0.46205682E+00 0.65062116E+04</pdfrwt>
<pdfrwt beam="2">  1       -1 0.54209359E+00 0.65062116E+04</pdfrwt>
<totfact> 0.32299636E-04</totfact>
</mgrwt>
</event>
<event>
13    1  0.1020632E-007  0.4501068E+04  0.7818608E-02  0.7910450E-01
         -2   -1    0    0    0  501 -0.00000000000E+00  0.00000000000E+00  0.26237755872E+04  0.26237755872E+04  0.00000000000E+00 0.  1.
          2   -1    0    0  501    0  0.00000000000E+00 -0.00000000000E+00 -0.19303873478E+04  0.19303873478E+04  0.00000000000E+00 0. -1.
    9900016    2    1    2    0    0  0.11602798136E+03  0.75597058838E+02  0.10026535739E+04  0.21136031388E+04  0.18554855514E+04 0.  0.
         24    2    3    3    0    0  0.41388312662E+03 -0.14404062563E+03  0.14593081280E+04  0.15258176491E+04  0.80575067724E+02 0.  0.
    9900016    2    1    2    0    0  0.33550711409E+03 -0.18600425836E+03 -0.10627734738E+02  0.18805836480E+04  0.18410104021E+04 0.  0.
         23    2    5    5    0    0 -0.44104722581E+02 -0.98765960068E+03 -0.38287809075E+02  0.99315955881E+03  0.86505719855E+02 0.  0.
        -15    1    4    4    0    0  0.23897096872E+03 -0.64767521346E+02  0.69614950925E+03  0.73886811742E+03  0.00000000000E+00 0.  1.
        -15    1    6    6    0    0 -0.16205347527E+02 -0.35522110260E+02  0.64032690177E+01  0.39565584286E+02  0.00000000000E+00 0. -1.
         15    1    6    6    0    0 -0.27899375054E+02 -0.95213749042E+03 -0.44691078093E+02  0.95359397452E+03  0.00000000000E+00 0.  1.
         15    1    3    3    0    0 -0.29785514527E+03  0.21963768447E+03 -0.45665455416E+03  0.58778548964E+03  0.00000000000E+00 0. -1.
        -16    1    5    5    0    0  0.37961183667E+03  0.80165534231E+03  0.27660074337E+02  0.88742408921E+03  0.00000000000E+00 0.  1.
         16    1    4    4    0    0  0.17491215791E+03 -0.79273104289E+02  0.76315861878E+03  0.78694953171E+03  0.00000000000E+00 0. -1.
    9900018    1    1    2    0    0 -0.45153509545E+03  0.11040719953E+03 -0.29863759982E+03  0.55997614820E+03  0.91187600000E+02 0.  0.
<mgrwt>
<rscale>  0 0.45010680E+04</rscale>
<asrwt>0</asrwt>
<pdfrwt beam="1">  1        2 0.29698267E+00 0.45010680E+04</pdfrwt>
<pdfrwt beam="2">  1       -2 0.40365778E+00 0.45010680E+04</pdfrwt>
<totfact> 0.38876440E-02</totfact>
</mgrwt>
</event>
<event>
13    1  0.1020632E-007  0.4692386E+04  0.7818608E-02  0.7877795E-01
         -2   -1    0    0    0  501 -0.00000000000E+00  0.00000000000E+00  0.14215156080E+04  0.14215156080E+04  0.00000000000E+00 0.  1.
          2   -1    0    0  501    0  0.00000000000E+00 -0.00000000000E+00 -0.38723617524E+04  0.38723617524E+04  0.00000000000E+00 0. -1.
    9900016    2    1    2    0    0  0.16530952532E+03  0.37969870486E+03 -0.24181477638E+04  0.30704244805E+04  0.18462311711E+04 0.  0.
         24    2    3    3    0    0 -0.11351305380E+03  0.93861853020E+03 -0.54135753626E+03  0.10924267656E+04  0.80239002665E+02 0.  0.
    9900016    2    1    2    0    0 -0.24673006960E+03 -0.34516752985E+03 -0.31098555419E+03  0.19175433567E+04  0.18439750971E+04 0.  0.
         23    2    5    5    0    0 -0.61927660435E+02  0.19231389714E+03 -0.99997493525E+03  0.10243778726E+04  0.92630904588E+02 0.  0.
        -15    1    4    4    0    0  0.10988317302E+02  0.15682074133E+03 -0.88879840918E+02  0.18059101348E+03  0.00000000000E+00 0.  1.
        -15    1    6    6    0    0 -0.72256496154E+02  0.80853582922E+02 -0.42556880812E+03  0.43916638482E+03  0.00000000000E+00 0.  1.
         15    1    6    6    0    0  0.10328835719E+02  0.11146031422E+03 -0.57440612713E+03  0.58521148774E+03  0.00000000000E+00 0. -1.
         15    1    3    3    0    0  0.27882257911E+03 -0.55891982534E+03 -0.18767902275E+04  0.19779977148E+04  0.00000000000E+00 0. -1.
        -16    1    5    5    0    0 -0.18480240917E+03 -0.53748142699E+03  0.68898938107E+03  0.89316548411E+03  0.00000000000E+00 0.  1.
         16    1    4    4    0    0 -0.12450137110E+03  0.78179778887E+03 -0.45247769534E+03  0.91183575214E+03  0.00000000000E+00 0. -1.
    9900018    1    1    2    0    0  0.81420544284E+02 -0.34531175010E+02  0.27828717353E+03  0.30590952327E+03  0.91187600000E+02 0.  0.
<mgrwt>
<rscale>  0 0.46923865E+04</rscale>
<asrwt>0</asrwt>
<pdfrwt beam="1">  1        2 0.59574795E+00 0.46923865E+04</pdfrwt>
<pdfrwt beam="2">  1       -2 0.21869471E+00 0.46923865E+04</pdfrwt>
<totfact> 0.32350231E-02</totfact>
</mgrwt>
</event>
<event>
13    1  0.1020632E-007  0.5225976E+04  0.7818608E-02  0.7794563E-01
          2   -1    0    0  501    0  0.00000000000E+00  0.00000000000E+00  0.23303980623E+04  0.23303980623E+04  0.00000000000E+00 0. -1.
         -2   -1    0    0    0  501 -0.00000000000E+00 -0.00000000000E+00 -0.29298458634E+04  0.29298458634E+04  0.00000000000E+00 0.  1.
    9900016    2    1    2    0    0 -0.10534383644E+04  0.13308841551E+04 -0.66624866655E+03  0.25949201521E+04  0.18462768720E+04 0.  0.
        -24    2    3    3    0    0  0.79266499972E+02  0.11218427564E+04  0.21122027314E+03  0.11469317694E+04  0.77615280842E+02 0.  0.
    9900016    2    1    2    0    0  0.79940537530E+03 -0.11287319245E+04 -0.50990416099E+02  0.23081288012E+04  0.18470987599E+04 0.  0.
         23    2    5    5    0    0  0.26571430820E+03  0.36211389193E+03 -0.48419022546E+03  0.66644994151E+03  0.89357628698E+02 0.  0.
        -15    1    6    6    0    0  0.17224700434E+03  0.27463122972E+03 -0.29693474271E+03  0.43961526847E+03  0.00000000000E+00 0.  1.
        -15    1    3    3    0    0 -0.11327048644E+04  0.20904139872E+03 -0.87746893970E+03  0.14479883827E+04  0.00000000000E+00 0.  1.
         15    1    6    6    0    0  0.93467303869E+02  0.87482662211E+02 -0.18725548274E+03  0.22683467305E+03  0.00000000000E+00 0. -1.
         15    1    4    4    0    0  0.38009638950E+02  0.92740055472E+03  0.16280132339E+03  0.94234855146E+03  0.00000000000E+00 0. -1.
        -16    1    4    4    0    0  0.41256861022E+02  0.19444220170E+03  0.48418949756E+02  0.20458321797E+03  0.00000000000E+00 0.  1.
         16    1    5    5    0    0  0.53369106710E+03 -0.14908458164E+04  0.43319980936E+03  0.16416788597E+04  0.00000000000E+00 0. -1.
    9900018    1    1    2    0    0  0.25403298912E+03 -0.20215223065E+03  0.11779128160E+03  0.35719497244E+03  0.91187600000E+02 0.  0.
<mgrwt>
<rscale>  0 0.52259763E+04</rscale>
<asrwt>0</asrwt>
<pdfrwt beam="1">  1        2 0.35852278E+00 0.52259763E+04</pdfrwt>
<pdfrwt beam="2">  1       -2 0.45074552E+00 0.52259763E+04</pdfrwt>
<totfact> 0.10727981E-02</totfact>
</mgrwt>
</event>
<event>
13    1  0.1020632E-007  0.4947380E+04  0.7818608E-02  0.7836676E-01
         -1   -1    0    0    0  501 -0.00000000000E+00  0.00000000000E+00  0.22561093364E+04  0.22561093364E+04  0.00000000000E+00 0.  1.
          1   -1    0    0  501    0  0.00000000000E+00 -0.00000000000E+00 -0.27122547937E+04  0.27122547937E+04  0.00000000000E+00 0. -1.
    9900016    2    1    2    0    0 -0.46462541623E+03  0.11294520072E+04 -0.79398820683E+03  0.23519815789E+04  0.18465810193E+04 0.  0.
         24    2    3    3    0    0 -0.54125406936E+03  0.36479141225E+03  0.51380594021E+03  0.83510870781E+03  0.85914303952E+02 0.  0.
    9900016    2    1    2    0    0  0.55859538071E+03 -0.12805282460E+04  0.50459455114E+03  0.23560448362E+04  0.18288111497E+04 0.  0.
         23    2    5    5    0    0  0.36823631962E+03  0.18569859554E+03 -0.43326174374E+03  0.60515016416E+03  0.91700747670E+02 0.  0.
        -15    1    4    4    0    0 -0.29217236670E+03  0.16152058574E+03  0.30147384857E+03  0.44982226807E+03  0.00000000000E+00 0.  1.
        -15    1    6    6    0    0  0.15399610492E+03  0.11064685275E+03 -0.24771617587E+03  0.31196286661E+03  0.00000000000E+00 0.  1.
         15    1    6    6    0    0  0.21424021470E+03  0.75051742786E+02 -0.18554556787E+03  0.29318729755E+03  0.00000000000E+00 0. -1.
         15    1    3    3    0    0  0.76628653128E+02  0.76466059494E+03 -0.13077941470E+04  0.15168728711E+04  0.00000000000E+00 0. -1.
        -16    1    5    5    0    0  0.19035906109E+03 -0.14662268415E+04  0.93785629488E+03  0.17508946721E+04  0.00000000000E+00 0.  1.
         16    1    4    4    0    0 -0.24908170266E+03  0.20327082651E+03  0.21233209164E+03  0.38528643974E+03  0.00000000000E+00 0. -1.
    9900018    1    1    2    0    0 -0.93969964479E+02  0.15107623877E+03 -0.16675180157E+03  0.26033771503E+03  0.91187600000E+02 0.  0.
<mgrwt>
<rscale>  0 0.49473805E+04</rscale>
<asrwt>0</asrwt>
<pdfrwt beam="1">  1        1 0.41726997E+00 0.49473805E+04</pdfrwt>
<pdfrwt beam="2">  1       -1 0.34709374E+00 0.49473805E+04</pdfrwt>
<totfact> 0.11328879E-02</totfact>
</mgrwt>
</event>
<event>
13    1  0.1020632E-007  0.4627169E+04  0.7818608E-02  0.7888744E-01
          2   -1    0    0  501    0  0.00000000000E+00  0.00000000000E+00  0.18084797022E+04  0.18084797022E+04  0.00000000000E+00 0. -1.
         -2   -1    0    0    0  501 -0.00000000000E+00 -0.00000000000E+00 -0.29597637201E+04  0.29597637201E+04  0.00000000000E+00 0.  1.
    9900016    2    1    2    0    0 -0.10715928171E+03  0.14977438435E+03  0.40327105032E+03  0.18975079207E+04  0.18449914068E+04 0.  0.
        -24    2    3    3    0    0 -0.32531981065E+03  0.94155763577E+03  0.39914907181E+03  0.10762091173E+04  0.80884621857E+02 0.  0.
    9900016    2    1    2    0    0  0.27509433071E+03 -0.30823030769E+03 -0.17234300782E+04  0.25704949187E+04  0.18618673635E+04 0.  0.
         23    2    5    5    0    0 -0.39722460744E+03 -0.25079864135E+03 -0.18262606049E+04  0.18879370324E+04  0.91602914630E+02 0.  0.
        -15    1    6    6    0    0 -0.24823833415E+03 -0.19069022890E+03 -0.13290783542E+04  0.13654428972E+04  0.00000000000E+00 0. -1.
        -15    1    3    3    0    0  0.21816052894E+03 -0.79178325142E+03  0.41219785068E+01  0.82129880332E+03  0.00000000000E+00 0.  1.
         15    1    4    4    0    0 -0.13152964215E+03  0.27966320708E+03  0.10469936281E+03  0.32630279301E+03  0.00000000000E+00 0. -1.
         15    1    6    6    0    0 -0.14898627329E+03 -0.60108412451E+02 -0.49718225066E+03  0.52249413514E+03  0.00000000000E+00 0.  1.
        -16    1    4    4    0    0 -0.19379016851E+03  0.66189442870E+03  0.29444970900E+03  0.74990632433E+03  0.00000000000E+00 0.  1.
         16    1    5    5    0    0  0.67231893815E+03 -0.57431666342E+02  0.10283052674E+03  0.68255788628E+03  0.00000000000E+00 0. -1.
    9900018    1    1    2    0    0 -0.16793504900E+03  0.15845592334E+03  0.16887500988E+03  0.30024058300E+03  0.91187600000E+02 0.  0.
<mgrwt>
<rscale>  0 0.46271687E+04</rscale>
<asrwt>0</asrwt>
<pdfrwt beam="1">  1        2 0.27822765E+00 0.46271687E+04</pdfrwt>
<pdfrwt beam="2">  1       -2 0.45534826E+00 0.46271687E+04</pdfrwt>
<totfact> 0.20522746E-02</totfact>
</mgrwt>
</event>
<event>
13    1  0.1020632E-007  0.4142702E+04  0.7818608E-02  0.7976362E-01
          1   -1    0    0  501    0  0.00000000000E+00  0.00000000000E+00  0.33425244017E+04  0.33425244017E+04  0.00000000000E+00 0. -1.
         -1   -1    0    0    0  501 -0.00000000000E+00 -0.00000000000E+00 -0.12836090244E+04  0.12836090244E+04  0.00000000000E+00 0.  1.
    9900016    2    1    2    0    0  0.45709894789E+03  0.61060859411E+03  0.72723684115E+03  0.21274383681E+04  0.18480633873E+04 0.  0.
         24    2    3    3    0    0 -0.50097245927E+03 -0.21663164245E+03 -0.16864461411E+03  0.57668667548E+03  0.78891332543E+02 0.  0.
    9900016    2    1    2    0    0 -0.39378478339E+03 -0.53397090991E+03  0.11393795973E+04  0.22637991698E+04  0.18402199396E+04 0.  0.
         23    2    5    5    0    0  0.24156566642E+03 -0.78463297812E+02  0.14108207209E+04  0.14362499796E+04  0.88816873926E+02 0.  0.
        -15    1    4    4    0    0 -0.32434708489E+03 -0.14058561320E+03 -0.14816326450E+03  0.38329844646E+03  0.00000000000E+00 0.  1.
        -15    1    6    6    0    0  0.11187061356E+03 -0.81521378496E+02  0.78732172418E+03  0.79939743976E+03  0.00000000000E+00 0. -1.
         15    1    6    6    0    0  0.12969505285E+03  0.30580806842E+01  0.62349899670E+03  0.63685253982E+03  0.00000000000E+00 0.  1.
         15    1    3    3    0    0  0.95807140716E+03  0.82724023656E+03  0.89588145526E+03  0.15507516926E+04  0.00000000000E+00 0. -1.
        -16    1    5    5    0    0 -0.63535044981E+03 -0.45550761210E+03 -0.27144112353E+03  0.82754919026E+03  0.00000000000E+00 0.  1.
         16    1    4    4    0    0 -0.17662537438E+03 -0.76046029253E+02 -0.20481349611E+02  0.19338822902E+03  0.00000000000E+00 0. -1.
    9900018    1    1    2    0    0 -0.63314164497E+02 -0.76637684197E+02  0.19229893871E+03  0.23489588819E+03  0.91187600000E+02 0.  0.
<mgrwt>
<rscale>  0 0.41427018E+04</rscale>
<asrwt>0</asrwt>
<pdfrwt beam="1">  1        1 0.51423452E+00 0.41427018E+04</pdfrwt>
<pdfrwt beam="2">  1       -1 0.19747831E+00 0.41427018E+04</pdfrwt>
<totfact> 0.40115969E-02</totfact>
</mgrwt>
</event>
<event>
13    1  0.1020632E-007  0.6032943E+04  0.7818608E-02  0.7686331E-01
         -2   -1    0    0    0  501 -0.00000000000E+00  0.00000000000E+00  0.32600681027E+04  0.32600681027E+04  0.00000000000E+00 0.  1.
          2   -1    0    0  501    0  0.00000000000E+00 -0.00000000000E+00 -0.27910764443E+04  0.27910764443E+04  0.00000000000E+00 0. -1.
    9900016    2    1    2    0    0 -0.44119683127E+03 -0.17925262782E+04 -0.10365089213E+04  0.28060827189E+04  0.18417232091E+04 0.  0.
        -24    2    3    3    0    0 -0.49139683028E+02  0.24019721347E+03  0.25856577005E+03  0.36417935111E+03  0.75239168805E+02 0.  0.
    9900016    2    1    2    0    0  0.35566490932E+03  0.11193848754E+04  0.10720114491E+04  0.24347143331E+04  0.18436662685E+04 0.  0.
         23    2    5    5    0    0 -0.29063405752E+03  0.23989936241E+03 -0.42938639167E+03  0.57853745620E+03  0.91175958474E+02 0.  0.
        -15    1    6    6    0    0 -0.28040734064E+03  0.24814947355E+03 -0.41179041474E+03  0.55657684427E+03  0.00000000000E+00 0. -1.
        -15    1    3    3    0    0 -0.39205714824E+03 -0.20327234917E+04 -0.12950746913E+04  0.24419033677E+04  0.00000000000E+00 0.  1.
         15    1    4    4    0    0 -0.59775975714E+02  0.19755625317E+03  0.17865950717E+03  0.27298509106E+03  0.00000000000E+00 0. -1.
         15    1    6    6    0    0 -0.10226716874E+02 -0.82501111489E+01 -0.17595976928E+02  0.21960611923E+02  0.00000000000E+00 0.  1.
        -16    1    4    4    0    0  0.10636292686E+02  0.42640960305E+02  0.79906262889E+02  0.91194260053E+02  0.00000000000E+00 0.  1.
         16    1    5    5    0    0  0.64629896684E+03  0.87948551302E+03  0.15013978407E+04  0.18561768769E+04  0.00000000000E+00 0. -1.
    9900018    1    1    2    0    0  0.85531921952E+02  0.67314140281E+03  0.43348913065E+03  0.81034749499E+03  0.91187600000E+02 0.  0.
<mgrwt>
<rscale>  0 0.60329427E+04</rscale>
<asrwt>0</asrwt>
<pdfrwt beam="1">  1        2 0.42939638E+00 0.60329427E+04</pdfrwt>
<pdfrwt beam="2">  1       -2 0.50154894E+00 0.60329427E+04</pdfrwt>
<totfact> 0.25663029E-03</totfact>
</mgrwt>
</event>
<event>
13    1  0.1020632E-007  0.4603000E+04  0.7818608E-02  0.7892849E-01
         -2   -1    0    0    0  501 -0.00000000000E+00  0.00000000000E+00  0.12760016001E+04  0.12760016001E+04  0.00000000000E+00 0.  1.
          2   -1    0    0  501    0  0.00000000000E+00 -0.00000000000E+00 -0.41511719365E+04  0.41511719365E+04  0.00000000000E+00 0. -1.
    9900016    2    1    2    0    0 -0.57263225243E+02  0.31581865696E+03 -0.26157941633E+04  0.32167223732E+04  0.18444249023E+04 0.  0.
        -24    2    3    3    0    0  0.65530789841E+03  0.38191027014E+03 -0.23206190603E+04  0.24426073630E+04  0.75986909018E+02 0.  0.
    9900016    2    1    2    0    0 -0.22749717535E+03 -0.35656644970E+03 -0.24418080844E+03  0.19083006283E+04  0.18447472518E+04 0.  0.
         23    2    5    5    0    0  0.46048796938E+03 -0.57876293248E+02  0.60980466794E+03  0.77171338451E+03  0.90999887529E+02 0.  0.
        -15    1    3    3    0    0 -0.71257112365E+03 -0.66091613184E+02 -0.29517510294E+03  0.77411501018E+03  0.00000000000E+00 0.  1.
        -15    1    6    6    0    0  0.17361081085E+03  0.11721063144E+02  0.27422227137E+03  0.32477061302E+03  0.00000000000E+00 0.  1.
         15    1    6    6    0    0  0.28687715853E+03 -0.69597356392E+02  0.33558239657E+03  0.44694277150E+03  0.00000000000E+00 0. -1.
         15    1    4    4    0    0  0.38424149732E+03  0.18108782959E+03 -0.13168993005E+04  0.13837117106E+04  0.00000000000E+00 0. -1.
        -16    1    4    4    0    0  0.27106640108E+03  0.20082244056E+03 -0.10037197598E+04  0.10588956524E+04  0.00000000000E+00 0.  1.
         16    1    5    5    0    0 -0.68798514474E+03 -0.29869015645E+03 -0.85398547638E+03  0.11365872438E+04  0.00000000000E+00 0. -1.
    9900018    1    1    2    0    0  0.28476040060E+03  0.40747792740E+02 -0.15195364681E+02  0.30215053510E+03  0.91187600000E+02 0.  0.
<mgrwt>
<rscale>  0 0.46029999E+04</rscale>
<asrwt>0</asrwt>
<pdfrwt beam="1">  1        2 0.63864183E+00 0.46029999E+04</pdfrwt>
<pdfrwt beam="2">  1       -2 0.19630794E+00 0.46029999E+04</pdfrwt>
<totfact> 0.26931971E-02</totfact>
</mgrwt>
</event>
<event>
13    1  0.1020632E-007  0.6091758E+04  0.7818608E-02  0.7679128E-01
          2   -1    0    0  501    0  0.00000000000E+00  0.00000000000E+00  0.24837273010E+04  0.24837273010E+04  0.00000000000E+00 0. -1.
         -2   -1    0    0    0  501 -0.00000000000E+00 -0.00000000000E+00 -0.37352650907E+04  0.37352650907E+04  0.00000000000E+00 0.  1.
    9900016    2    1    2    0    0  0.85770948427E+03  0.13199668420E+03 -0.30887019914E+02  0.20321915315E+04  0.18373240674E+04 0.  0.
        -24    2    3    3    0    0  0.78968668596E+03  0.53703053249E+03  0.70477870742E+03  0.11896456386E+04  0.80850876049E+02 0.  0.
    9900016    2    1    2    0    0  0.67863913894E+03 -0.73690592043E+03 -0.14017186995E+04  0.25232555347E+04  0.18434808826E+04 0.  0.
         23    2    5    5    0    0 -0.35449589775E+03  0.15401072240E+03 -0.10368194943E+04  0.11110756954E+04  0.10053801806E+03 0.  0.
        -15    1    3    3    0    0  0.68022798309E+02 -0.40503384829E+03 -0.73566572733E+03  0.84254589295E+03  0.00000000000E+00 0.  1.
        -15    1    6    6    0    0 -0.12518219549E+03  0.38729051192E+02 -0.48665798383E+03  0.50399058989E+03  0.00000000000E+00 0. -1.
         15    1    6    6    0    0 -0.22931370227E+03  0.11528167121E+03 -0.55016151046E+03  0.60708510553E+03  0.00000000000E+00 0.  1.
         15    1    4    4    0    0  0.64750377626E+03  0.42234222289E+03  0.60378817779E+03  0.98091501015E+03  0.00000000000E+00 0. -1.
        -16    1    4    4    0    0  0.14218290970E+03  0.11468830960E+03  0.10099052963E+03  0.20873062843E+03  0.00000000000E+00 0.  1.
         16    1    5    5    0    0  0.10331350367E+04 -0.89091664283E+03 -0.36489920525E+03  0.14121798393E+04  0.00000000000E+00 0. -1.
    9900018    1    1    2    0    0 -0.15363486232E+04  0.60490923623E+03  0.18106792972E+03  0.16635453254E+04  0.91187600000E+02 0.  0.
<mgrwt>
<rscale>  0 0.60917583E+04</rscale>
<asrwt>0</asrwt>
<pdfrwt beam="1">  1        2 0.38211189E+00 0.60917583E+04</pdfrwt>
<pdfrwt beam="2">  1       -2 0.57465616E+00 0.60917583E+04</pdfrwt>
<totfact> 0.15759561E-03</totfact>
</mgrwt>
</event>
<event>
13    1  0.1020632E-007  0.4957899E+04  0.7818608E-02  0.7835035E-01
         -1   -1    0    0    0  501 -0.00000000000E+00  0.00000000000E+00  0.19551035443E+04  0.19551035443E+04  0.00000000000E+00 0.  1.
          1   -1    0    0  501    0  0.00000000000E+00 -0.00000000000E+00 -0.31431530048E+04  0.31431530048E+04  0.00000000000E+00 0. -1.
    9900016    2    1    2    0    0  0.80702970437E+00  0.70787382896E+03  0.63999965141E+02  0.19806409597E+04  0.18487175573E+04 0.  0.
        -24    2    3    3    0    0 -0.73571863160E+03  0.75753815595E+03  0.44647702003E+03  0.11492413610E+04  0.79170789198E+02 0.  0.
    9900016    2    1    2    0    0  0.10786753852E+03 -0.15020591932E+02 -0.22329522850E+03  0.18692141530E+04  0.18526304992E+04 0.  0.
         23    2    5    5    0    0 -0.67191169585E+02  0.86615336698E+03 -0.38853623611E+03  0.95574949155E+03  0.88092993002E+02 0.  0.
        -15    1    6    6    0    0  0.57203018117E+01  0.58206950659E+02 -0.49115490600E+02  0.76374749589E+02  0.00000000000E+00 0. -1.
        -15    1    3    3    0    0  0.73652566130E+03 -0.49664326998E+02 -0.38247705489E+03  0.83139959866E+03  0.00000000000E+00 0.  1.
         15    1    4    4    0    0 -0.38237651473E+03  0.39615262326E+03  0.27561507160E+03  0.61572101444E+03  0.00000000000E+00 0. -1.
         15    1    6    6    0    0 -0.72911471397E+02  0.80794641632E+03 -0.33942074551E+03  0.87937474196E+03  0.00000000000E+00 0.  1.
        -16    1    4    4    0    0 -0.35334211687E+03  0.36138553269E+03  0.17086194843E+03  0.53352034658E+03  0.00000000000E+00 0.  1.
         16    1    5    5    0    0  0.17505870811E+03 -0.88117395892E+03  0.16524100761E+03  0.91346466147E+03  0.00000000000E+00 0. -1.
    9900018    1    1    2    0    0 -0.10867456823E+03 -0.69285323702E+03 -0.10287541971E+04  0.12484014364E+04  0.91187600000E+02 0.  0.
<mgrwt>
<rscale>  0 0.49578986E+04</rscale>
<asrwt>0</asrwt>
<pdfrwt beam="1">  1        1 0.48356200E+00 0.49578986E+04</pdfrwt>
<pdfrwt beam="2">  1       -1 0.30078516E+00 0.49578986E+04</pdfrwt>
<totfact> 0.11080158E-02</totfact>
</mgrwt>
</event>
<event>
13    1  0.1298530E-007  0.6231953E+04  0.7818608E-02  0.7662289E-01
         -1   -1    0    0    0  501 -0.00000000000E+00  0.00000000000E+00  0.26306318370E+04  0.26306318370E+04  0.00000000000E+00 0.  1.
          1   -1    0    0  501    0  0.00000000000E+00 -0.00000000000E+00 -0.36908664408E+04  0.36908664408E+04  0.00000000000E+00 0. -1.
    9900016    2    1    2    0    0  0.16777997573E+04  0.55336473457E+03 -0.18240139763E+04  0.31352355816E+04  0.18388721030E+04 0.  0.
         24    2    3    3    0    0 -0.34376991288E+03  0.16786754885E+03 -0.83734332265E+01  0.39080438493E+03  0.79376860199E+02 0.  0.
    9900016    2    1    2    0    0 -0.70721652232E+03 -0.70557368257E+03  0.40282900822E+03  0.21356439624E+04  0.18441026255E+04 0.  0.
         23    2    5    5    0    0  0.18358637810E+03  0.23061531721E+03 -0.47984932070E+03  0.57068368081E+03  0.92396483763E+02 0.  0.
        -15    1    4    4    0    0 -0.79002425350E+02  0.71468837480E+02 -0.21695634844E+02  0.10871926468E+03  0.00000000000E+00 0.  1.
        -15    1    6    6    0    0  0.83669025495E+02  0.71698621371E+02 -0.10878892365E+03  0.15484259118E+03  0.00000000000E+00 0. -1.
         15    1    3    3    0    0  0.20215696702E+04  0.38549718571E+03 -0.18156405430E+04  0.27444311967E+04  0.00000000000E+00 0. -1.
         15    1    6    6    0    0  0.99917352601E+02  0.15891669584E+03 -0.37106039705E+03  0.41584108963E+03  0.00000000000E+00 0.  1.
        -16    1    5    5    0    0 -0.89080290041E+03 -0.93618899978E+03  0.88267832892E+03  0.15649602816E+04  0.00000000000E+00 0.  1.
         16    1    4    4    0    0 -0.26476748753E+03  0.96398711374E+02  0.13322201618E+02  0.28208512025E+03  0.00000000000E+00 0. -1.
    9900018    1    1    2    0    0 -0.97058323500E+03  0.15220894800E+03  0.36095036429E+03  0.10506187338E+04  0.91187600000E+02 0.  0.
<mgrwt>
<rscale>  0 0.62319534E+04</rscale>
<asrwt>0</asrwt>
<pdfrwt beam="1">  1        1 0.56782560E+00 0.62319534E+04</pdfrwt>
<pdfrwt beam="2">  1       -1 0.40471259E+00 0.62319534E+04</pdfrwt>
<totfact> 0.76467163E-04</totfact>
</mgrwt>
</event>
