<event>
13    1  0.2331766E-009  0.5278660E+04  0.7818608E-02  0.7786902E-01
          1   -1    0    0  501    0  0.00000000000E+00  0.00000000000E+00  0.22692673069E+04  0.22692673069E+04  0.00000000000E+00 0. -1.
         -1   -1    0    0    0  501 -0.00000000000E+00 -0.00000000000E+00 -0.30697410059E+04  0.30697410059E+04  0.00000000000E+00 0.  1.
    9900016    2    1    2    0    0 -0.10467849782E+04  0.28094755377E+02  0.10044896613E+04  0.23473294277E+04  0.18451037523E+04 0.  0.
         24    2    3    3    0    0  0.27476362280E+03  0.52552381529E+03 -0.26864022025E+02  0.59872518591E+03  0.77973352598E+02 0.  0.
    9900016    2    1    2    0    0  0.63601939121E+03  0.17679852766E+03 -0.99293781273E+03  0.20544434327E+04  0.16730313603E+04 0.  0.
         23    2    5    5    0    0 -0.18853099985E+03  0.23136481647E+03 -0.11698055716E+04  0.12093735945E+04  0.71174429244E+02 0.  0.
        -15    1    4    4    0    0  0.15658372920E+03  0.21696538294E+03 -0.56152506945E+01  0.26762655452E+03  0.00000000000E+00 0.  1.
        -15    1    6    6    0    0 -0.76736256409E+02  0.11448628339E+03 -0.67076940147E+03  0.68478255824E+03  0.00000000000E+00 0.  1.
         15    1    3    3    0    0 -0.13215486010E+04 -0.49742905991E+03  0.10313536833E+04  0.17486042418E+04  0.00000000000E+00 0. -1.
         15    1    6    6    0    0 -0.11179474344E+03  0.11687853308E+03 -0.49903617017E+03  0.52459103623E+03  0.00000000000E+00 0. -1.
        -16    1    5    5    0    0  0.82455039106E+03 -0.54566288811E+02  0.17686775890E+03  0.84506983818E+03  0.00000000000E+00 0.  1.
         16    1    4    4    0    0  0.11817989360E+03  0.30855843235E+03 -0.21248771331E+02  0.33109863139E+03  0.00000000000E+00 0. -1.
    9900018    1    1    2    0    0  0.41076558702E+03 -0.20489328304E+03 -0.81202554754E+03  0.93723545236E+03  0.91187600000E+02 0.  0.
<mgrwt>
<rscale>  0 0.52786600E+04</rscale>
<asrwt>0</asrwt>
<pdfrwt beam="1">  1        1 0.34911805E+00 0.52786600E+04</pdfrwt>
<pdfrwt beam="2">  1       -1 0.47226785E+00 0.52786600E+04</pdfrwt>
<totfact> 0.31570629E-03</totfact>
</mgrwt>
</event>
<event>
13    1  0.2331766E-009  0.4694361E+04  0.7818608E-02  0.7877466E-01
         -1   -1    0    0    0  501 -0.00000000000E+00  0.00000000000E+00  0.15517369043E+04  0.15517369043E+04  0.00000000000E+00 0.  1.
          1   -1    0    0  501    0  0.00000000000E+00 -0.00000000000E+00 -0.35503799838E+04  0.35503799838E+04  0.00000000000E+00 0. -1.
    9900016    2    1    2    0    0  0.46811788629E+03 -0.33954893937E+03 -0.23826041777E+04  0.30418559548E+04  0.18004602591E+04 0.  0.
         24    2    3    3    0    0  0.18790065475E+03  0.21938089829E+03  0.21571792527E+03  0.36936610242E+03  0.80389425570E+02 0.  0.
    9900016    2    1    2    0    0 -0.46811788629E+03  0.33954893937E+03  0.38396109820E+03  0.20602609333E+04  0.19397992552E+04 0.  0.
         23    2    5    5    0    0  0.27590166050E+03 -0.26993055316E+03  0.64518219869E+03  0.76162840815E+03  0.12179299158E+03 0.  0.
        -15    1    6    6    0    0  0.16849959496E+03 -0.14784678581E+03  0.48039937677E+03  0.53012672709E+03  0.00000000000E+00 0. -1.
        -15    1    4    4    0    0  0.56375774560E+02  0.72242887051E+02  0.11725044636E+03  0.14881172622E+03  0.00000000000E+00 0.  1.
         15    1    3    3    0    0  0.28021723154E+03 -0.55892983766E+03 -0.25983221030E+04  0.26724898524E+04  0.00000000000E+00 0. -1.
         15    1    6    6    0    0  0.10740206554E+03 -0.12208376735E+03  0.16478282192E+03  0.23150168106E+03  0.00000000000E+00 0.  1.
        -16    1    5    5    0    0 -0.10890784810E+03  0.32016181101E+03 -0.45658470780E+03  0.56818491709E+03  0.00000000000E+00 0.  1.
         16    1    4    4    0    0  0.13152488019E+03  0.14713801124E+03  0.98467478905E+02  0.22055437620E+03  0.00000000000E+00 0. -1.
    9900018    1    5    5    0    0 -0.63511169869E+03  0.28931768152E+03  0.19536360732E+03  0.73044760805E+03  0.91187600000E+02 0.  0.
<mgrwt>
<rscale>  0 0.46943607E+04</rscale>
<asrwt>0</asrwt>
<pdfrwt beam="1">  1        1 0.54621231E+00 0.46943607E+04</pdfrwt>
<pdfrwt beam="2">  1       -1 0.23872875E+00 0.46943607E+04</pdfrwt>
<totfact> 0.13915003E-02</totfact>
</mgrwt>
</event>
<event>
12    1  0.2331766E-009  0.4282317E+04  0.7818608E-02  0.7949896E-01
          2   -1    0    0  501    0  0.00000000000E+00  0.00000000000E+00  0.29997233376E+04  0.29997233376E+04  0.00000000000E+00 0. -1.
         -2   -1    0    0    0  501 -0.00000000000E+00 -0.00000000000E+00 -0.15283274757E+04  0.15283274757E+04  0.00000000000E+00 0.  1.
    9900016    2    1    2    0    0  0.59213991560E+03  0.52108439120E+03  0.46822318413E+03  0.20518013550E+04  0.18353466234E+04 0.  0.
        -24    2    3    3    0    0 -0.19216831322E+03 -0.52041533682E+03  0.49501903912E+03  0.74773881852E+03  0.79427377076E+02 0.  0.
         23    2    1    2    0    0  0.20894018854E+03  0.19218296070E+03 -0.43166498546E+03  0.53210084092E+03  0.12730417301E+03 0.  0.
        -15    1    5    5    0    0  0.13254551899E+03  0.10213183839E+03 -0.14261894361E+03  0.21986220706E+03  0.00000000000E+00 0. -1.
        -15    1    3    3    0    0  0.78430822882E+03  0.10414997280E+04 -0.26795854994E+02  0.13040625365E+04  0.00000000000E+00 0.  1.
         15    1    4    4    0    0 -0.11780699444E+03 -0.37633447145E+03  0.38960857124E+03  0.55434732896E+03  0.00000000000E+00 0. -1.
         15    1    5    5    0    0  0.76394669548E+02  0.90051122310E+02 -0.28904604185E+03  0.31223863386E+03  0.00000000000E+00 0.  1.
        -16    1    4    4    0    0 -0.74361318775E+02 -0.14408086537E+03  0.10541046788E+03  0.19339148956E+03  0.00000000000E+00 0.  1.
         16    1    1    2    0    0 -0.81863131747E+01  0.87222334482E+02  0.40702723502E+03  0.41634831740E+03  0.00000000000E+00 0. -1.
    9900018    1    1    2    0    0 -0.79289379096E+03 -0.80048968639E+03  0.10278104282E+04  0.15278002999E+04  0.91187600000E+02 0.  0.
<mgrwt>
<rscale>  0 0.42823169E+04</rscale>
<asrwt>0</asrwt>
<pdfrwt beam="1">  1        2 0.46149590E+00 0.42823169E+04</pdfrwt>
<pdfrwt beam="2">  1       -2 0.23512730E+00 0.42823169E+04</pdfrwt>
<totfact> 0.10661925E-01</totfact>
</mgrwt>
</event>
<event>
12    1  0.2331766E-009  0.4208495E+04  0.7818608E-02  0.7963758E-01
         -2   -1    0    0    0  501 -0.00000000000E+00  0.00000000000E+00  0.13627555326E+04  0.13627555326E+04  0.00000000000E+00 0.  1.
          2   -1    0    0  501    0  0.00000000000E+00 -0.00000000000E+00 -0.32491946844E+04  0.32491946844E+04  0.00000000000E+00 0. -1.
    9900016    2    1    2    0    0  0.51830884994E+02 -0.67751154030E+03 -0.39336483721E+03  0.19982303249E+04  0.18375201247E+04 0.  0.
        -24    2    3    3    0    0  0.75661459633E+01  0.52922004199E+03 -0.56534826990E+03  0.77850134688E+03  0.79464340468E+02 0.  0.
    9900016    2    1    2    0    0 -0.28756861250E+02  0.39773979303E+03 -0.10923055028E+04  0.21159895834E+04  0.17678395588E+04 0.  0.
        -15    1    5    5    0    0  0.99041705348E+02 -0.40671938483E+02  0.41773137867E+03  0.43123424111E+03  0.00000000000E+00 0. -1.
        -15    1    3    3    0    0  0.44264739031E+02 -0.12067315823E+04  0.17198343269E+03  0.12197289781E+04  0.00000000000E+00 0.  1.
         15    1    5    5    0    0  0.58063525391E+02  0.76949467797E+00  0.35278554885E+02  0.67945136232E+02  0.00000000000E+00 0.  1.
         15    1    4    4    0    0 -0.34945743551E+02  0.30312141279E+03 -0.32534923293E+03  0.44604475029E+03  0.00000000000E+00 0. -1.
        -16    1    4    4    0    0  0.42511889514E+02  0.22609862919E+03 -0.23999903697E+03  0.33245659659E+03  0.00000000000E+00 0.  1.
         16    1    5    5    0    0 -0.18586209199E+03  0.43764223683E+03 -0.15453154363E+04  0.16168102061E+04  0.00000000000E+00 0. -1.
    9900018    1    1    2    0    0 -0.23074023744E+02  0.27977174728E+03 -0.40076881178E+03  0.49773030854E+03  0.91187600000E+02 0.  0.
<mgrwt>
<rscale>  0 0.42084952E+04</rscale>
<asrwt>0</asrwt>
<pdfrwt beam="1">  1        2 0.49987610E+00 0.42084952E+04</pdfrwt>
<pdfrwt beam="2">  1       -2 0.20965470E+00 0.42084952E+04</pdfrwt>
<totfact> 0.10736225E-01</totfact>
</mgrwt>
</event>
