<event>
11    1  0.7329336E-013  0.1381800E+04  0.7818608E-02  0.9392397E-01
         -1   -1    0    0    0  501 -0.00000000000E+00  0.00000000000E+00  0.16843056014E+04  0.16843056014E+04  0.00000000000E+00 0.  1.
          1   -1    0    0  501    0  0.00000000000E+00 -0.00000000000E+00 -0.43287942108E+03  0.43287942108E+03  0.00000000000E+00 0. -1.
    9900016    2    1    2    0    0  0.19951104684E+02  0.42033763669E+03  0.31799635342E+03  0.87661821334E+03  0.70018285881E+03 0.  0.
         23    2    3    3    0    0  0.62079488672E+02  0.39711892596E+02 -0.15062199721E+03  0.19108980818E+03  0.91637500082E+02 0.  0.
        -15    1    4    4    0    0  0.40062610712E+00  0.53338871192E+02 -0.56159037398E+02  0.77453425765E+02  0.00000000000E+00 0. -1.
        -15    1    1    2    0    0  0.15427999543E+03 -0.16519909697E+03  0.40599343201E+02  0.22965488303E+03  0.00000000000E+00 0.  1.
         15    1    1    2    0    0 -0.22010299782E+03 -0.28322644163E+03  0.88703277262E+03  0.95681225253E+03  0.00000000000E+00 0. -1.
         15    1    4    4    0    0  0.61678862565E+02 -0.13626978596E+02 -0.94462959809E+02  0.11363638242E+03  0.00000000000E+00 0.  1.
        -16    1    3    3    0    0 -0.42174383770E+02 -0.43020338128E+02  0.99338184122E+02  0.11617875436E+03  0.00000000000E+00 0.  1.
         16    1    1    2    0    0  0.45871897709E+02  0.28087901915E+02  0.57977111205E+01  0.54099673638E+02  0.00000000000E+00 0. -1.
    9900018    1    3    3    0    0  0.45999782811E-01  0.42364608222E+03  0.36928016650E+03  0.56934965080E+03  0.91187600000E+02 0.  0.
<mgrwt>
<rscale>  0 0.92704020E+03</rscale>
<asrwt>0</asrwt>
<pdfrwt beam="1">  1        1 0.66596835E-01 0.13818003E+04</pdfrwt>
<pdfrwt beam="2">  1       -1 0.25912394E+00 0.13818003E+04</pdfrwt>
<totfact> 0.31947680E+00</totfact>
</mgrwt>
</event>
<event>
11    1  0.7329336E-013  0.1056846E+04  0.7818608E-02  0.9455688E-01
          1   -1    0    0  501    0  0.00000000000E+00  0.00000000000E+00  0.17063490311E+04  0.17063490311E+04  0.00000000000E+00 0. -1.
         -1   -1    0    0    0  501 -0.00000000000E+00 -0.00000000000E+00 -0.37089823940E+03  0.37089823940E+03  0.00000000000E+00 0.  1.
    9900016    2    1    2    0    0 -0.10670743747E+03  0.13466511322E+03  0.91415610870E+03  0.11679080041E+04  0.70626237684E+03 0.  0.
         23    2    3    3    0    0 -0.35992352254E+03  0.30183338295E+02  0.47893428821E+03  0.60705321137E+03  0.93164226077E+02 0.  0.
        -15    1    4    4    0    0 -0.81191474077E+02  0.31227670325E-01  0.17865586455E+03  0.19623958412E+03  0.00000000000E+00 0.  1.
        -15    1    1    2    0    0 -0.54152994408E+01 -0.31233294369E+02  0.48835353232E+02  0.58221438238E+02  0.00000000000E+00 0.  1.
         15    1    1    2    0    0 -0.21709571591E+03  0.21430319844E+03  0.18429092005E+03  0.35639802741E+03  0.00000000000E+00 0. -1.
         15    1    4    4    0    0 -0.27873204847E+03  0.30152110624E+02  0.30027842366E+03  0.41081362725E+03  0.00000000000E+00 0. -1.
        -16    1    3    3    0    0  0.10894580813E+03  0.22234324586E+02  0.32579016957E+02  0.11586607202E+03  0.00000000000E+00 0.  1.
         16    1    1    2    0    0  0.32921845282E+03 -0.31773501729E+03  0.18816840972E+03  0.49471980080E+03  0.00000000000E+00 0. -1.
    9900018    1    3    3    0    0  0.14427027694E+03  0.82247450338E+02  0.40264280354E+03  0.44498872068E+03  0.91187600000E+02 0.  0.
<mgrwt>
<rscale>  0 0.87631140E+03</rscale>
<asrwt>0</asrwt>
<pdfrwt beam="1">  1        1 0.26251523E+00 0.10568458E+04</pdfrwt>
<pdfrwt beam="2">  1       -1 0.57061268E-01 0.10568458E+04</pdfrwt>
<totfact> 0.14700715E+01</totfact>
</mgrwt>
</event>
<event>
11    1  0.7329336E-013  0.1019709E+04  0.7818608E-02  0.9538335E-01
          2   -1    0    0  501    0  0.00000000000E+00  0.00000000000E+00  0.95971946543E+03  0.95971946543E+03  0.00000000000E+00 0. -1.
         -2   -1    0    0    0  501 -0.00000000000E+00 -0.00000000000E+00 -0.90628154502E+03  0.90628154502E+03  0.00000000000E+00 0.  1.
    9900016    2    1    2    0    0 -0.19411227905E+03 -0.26292741237E+03 -0.44802313294E+03  0.90441027495E+03  0.71443881245E+03 0.  0.
         23    2    3    3    0    0 -0.15653116622E+03 -0.37541522610E+03 -0.38183798211E+03  0.56546817499E+03  0.92279002797E+02 0.  0.
        -15    1    4    4    0    0 -0.10748310586E+03 -0.31580626327E+03 -0.26794260060E+03  0.42787784610E+03  0.00000000000E+00 0.  1.
        -15    1    1    2    0    0  0.22989729274E+03 -0.18918081787E+02 -0.81959395645E+02  0.24480196397E+03  0.00000000000E+00 0.  1.
         15    1    4    4    0    0 -0.49048060362E+02 -0.59608962827E+02 -0.11389538150E+03  0.13759032889E+03  0.00000000000E+00 0. -1.
         15    1    1    2    0    0  0.55275407477E+02  0.30703656923E+03  0.37394840416E+03  0.48699510725E+03  0.00000000000E+00 0. -1.
        -16    1    1    2    0    0 -0.91060421164E+02 -0.25191075076E+02  0.20947204485E+03  0.22979366427E+03  0.00000000000E+00 0.  1.
         16    1    3    3    0    0 -0.40085645418E+02  0.24532959895E+02  0.11132731390E+03  0.12084078744E+03  0.00000000000E+00 0. -1.
    9900018    1    3    3    0    0  0.25045325844E+01  0.87954853832E+02 -0.17751246473E+03  0.21810131253E+03  0.91187600000E+02 0.  0.
<mgrwt>
<rscale>  0 0.81515579E+03</rscale>
<asrwt>0</asrwt>
<pdfrwt beam="1">  1        2 0.14764915E+00 0.10197094E+04</pdfrwt>
<pdfrwt beam="2">  1       -2 0.13942793E+00 0.10197094E+04</pdfrwt>
<totfact> 0.96140676E+00</totfact>
</mgrwt>
</event>
<event>
11    1  0.7329336E-013  0.2307860E+04  0.7818608E-02  0.8474828E-01
         -2   -1    0    0    0  501 -0.00000000000E+00  0.00000000000E+00  0.48601394608E+03  0.48601394608E+03  0.00000000000E+00 0.  1.
          2   -1    0    0  501    0  0.00000000000E+00 -0.00000000000E+00 -0.27397454390E+04  0.27397454390E+04  0.00000000000E+00 0. -1.
    9900016    2    1    2    0    0 -0.20872811219E+02 -0.47332227889E+02 -0.10841070678E+04  0.12992565379E+04  0.71421523558E+03 0.  0.
         23    2    3    3    0    0  0.12016607404E+03 -0.24177889749E+03 -0.41011073236E+03  0.50004077813E+03  0.94620538869E+02 0.  0.
        -15    1    1    2    0    0 -0.23092841938E+03 -0.23112907174E+03  0.14150250142E+03  0.35604991305E+03  0.00000000000E+00 0.  1.
        -15    1    4    4    0    0  0.40654456292E+02 -0.11685163403E+03 -0.11072406515E+03  0.16603285156E+03  0.00000000000E+00 0.  1.
         15    1    1    2    0    0  0.23831338755E+03 -0.20971335065E+03 -0.25607771849E+03  0.40785874765E+03  0.00000000000E+00 0. -1.
         15    1    4    4    0    0  0.79511617749E+02 -0.12492726345E+03 -0.29938666721E+03  0.33400792657E+03  0.00000000000E+00 0. -1.
        -16    1    3    3    0    0 -0.23665429424E+03  0.15823649943E+03 -0.52206015584E+03  0.59463505703E+03  0.00000000000E+00 0.  1.
         16    1    1    2    0    0  0.13487843042E+02  0.48817465028E+03 -0.10550492081E+04  0.11625941866E+04  0.00000000000E+00 0. -1.
    9900018    1    3    3    0    0  0.95615408984E+02  0.36210170166E+02 -0.15193617957E+03  0.20458070269E+03  0.91187600000E+02 0.  0.
<mgrwt>
<rscale>  0 0.23078600E+04</rscale>
<asrwt>0</asrwt>
<pdfrwt beam="1">  1        2 0.42149930E+00 0.23078600E+04</pdfrwt>
<pdfrwt beam="2">  1       -2 0.74771376E-01 0.23078600E+04</pdfrwt>
<totfact> 0.36628986E+00</totfact>
</mgrwt>
</event>
<event>
11    1  0.7329336E-013  0.2658265E+04  0.7818608E-02  0.8348675E-01
          1   -1    0    0  501    0  0.00000000000E+00  0.00000000000E+00  0.18121188098E+04  0.18121188098E+04  0.00000000000E+00 0. -1.
         -1   -1    0    0    0  501 -0.00000000000E+00 -0.00000000000E+00 -0.97487732212E+03  0.97487732212E+03  0.00000000000E+00 0.  1.
    9900016    2    1    2    0    0 -0.22857693367E+03  0.71980146097E+03 -0.15306801140E+03  0.10788544268E+04  0.75507317543E+03 0.  0.
         23    2    3    3    0    0 -0.33251342514E+03  0.26002634003E+03 -0.41203141397E+02  0.43403959532E+03  0.92270233739E+02 0.  0.
        -15    1    1    2    0    0 -0.81969476758E+02 -0.46325181500E+03  0.92554193821E+03  0.10382432849E+04  0.00000000000E+00 0.  1.
        -15    1    4    4    0    0 -0.25974051003E+03  0.24641049214E+03 -0.32697465773E+02  0.35951688063E+03  0.00000000000E+00 0.  1.
         15    1    4    4    0    0 -0.72772915105E+02  0.13615847893E+02 -0.85056756241E+01  0.74522714689E+02  0.00000000000E+00 0. -1.
         15    1    1    2    0    0 -0.87130921876E+01 -0.28392212464E+03  0.17191518015E+03  0.33202789039E+03  0.00000000000E+00 0. -1.
        -16    1    3    3    0    0  0.28141938118E+02  0.47136227444E+03 -0.18257853918E+03  0.50626997286E+03  0.00000000000E+00 0.  1.
         16    1    1    2    0    0  0.31925950262E+03  0.27372478665E+02 -0.10714761931E+03  0.33787052982E+03  0.00000000000E+00 0. -1.
    9900018    1    3    3    0    0  0.75794553348E+02 -0.11587153503E+02  0.70713669182E+02  0.13854485861E+03  0.91187600000E+02 0.  0.
<mgrwt>
<rscale>  0 0.26582652E+04</rscale>
<asrwt>0</asrwt>
<pdfrwt beam="1">  1        1 0.27878751E+00 0.26582652E+04</pdfrwt>
<pdfrwt beam="2">  1       -1 0.14998113E+00 0.26582652E+04</pdfrwt>
<totfact> 0.12225592E+00</totfact>
</mgrwt>
</event>
<event>
11    1  0.7329336E-013  0.1453317E+04  0.7818608E-02  0.9313366E-01
          1   -1    0    0  501    0  0.00000000000E+00  0.00000000000E+00  0.11399213172E+04  0.11399213172E+04  0.00000000000E+00 0. -1.
         -1   -1    0    0    0  501 -0.00000000000E+00 -0.00000000000E+00 -0.10325644468E+04  0.10325644468E+04  0.00000000000E+00 0.  1.
    9900016    2    1    2    0    0  0.13609716594E+03  0.17260839858E+03  0.16649672049E+03  0.76382329620E+03  0.71231227144E+03 0.  0.
         23    2    3    3    0    0 -0.11146750194E+03  0.24134571652E+03 -0.80382573953E+02  0.29252578963E+03  0.91854344127E+02 0.  0.
        -15    1    1    2    0    0 -0.27501563710E+03 -0.33549880635E+03 -0.62366166020E+03  0.75970186002E+03  0.00000000000E+00 0.  1.
        -15    1    4    4    0    0 -0.47682540819E+02  0.21862715887E+02 -0.10282932049E+02  0.53454108696E+02  0.00000000000E+00 0. -1.
         15    1    1    2    0    0  0.63848211826E+01  0.13968052175E+03  0.45335153816E+03  0.47442494796E+03  0.00000000000E+00 0. -1.
         15    1    4    4    0    0 -0.63784961116E+02  0.21948300063E+03 -0.70099641904E+02  0.23907168094E+03  0.00000000000E+00 0.  1.
        -16    1    1    2    0    0  0.13253364998E+03  0.23209886025E+02  0.11117027198E+03  0.17453565984E+03  0.00000000000E+00 0.  1.
         16    1    3    3    0    0  0.69930548470E+02 -0.11613634199E+03 -0.17418561251E+02  0.13667969058E+03  0.00000000000E+00 0. -1.
    9900018    1    3    3    0    0  0.17763411940E+03  0.47399024058E+02  0.26429785569E+03  0.33461781599E+03  0.91187600000E+02 0.  0.
<mgrwt>
<rscale>  0 0.99561657E+03</rscale>
<asrwt>0</asrwt>
<pdfrwt beam="1">  1        1 0.17537251E+00 0.14533166E+04</pdfrwt>
<pdfrwt beam="2">  1       -1 0.15885607E+00 0.14533166E+04</pdfrwt>
<totfact> 0.33829003E+00</totfact>
</mgrwt>
</event>
<event>
11    1  0.7329336E-013  0.1466003E+04  0.7818608E-02  0.9257658E-01
         -2   -1    0    0    0  501 -0.00000000000E+00  0.00000000000E+00  0.78174373657E+03  0.78174373657E+03  0.00000000000E+00 0.  1.
          2   -1    0    0  501    0  0.00000000000E+00 -0.00000000000E+00 -0.16959890169E+04  0.16959890169E+04  0.00000000000E+00 0. -1.
    9900016    2    1    2    0    0  0.16788536866E+02 -0.58714315717E+02 -0.14300485213E+04  0.15976999726E+04  0.70984308376E+03 0.  0.
         23    2    3    3    0    0 -0.12803512060E+03 -0.15883583978E+03 -0.73169274309E+03  0.76475096543E+03  0.88588671572E+02 0.  0.
        -15    1    1    2    0    0  0.21137955771E+03 -0.23566994573E+03  0.14832345921E+03  0.34960190116E+03  0.00000000000E+00 0.  1.
        -15    1    4    4    0    0 -0.62721636595E+02 -0.12064001865E+03 -0.57345444415E+03  0.58935389819E+03  0.00000000000E+00 0. -1.
         15    1    1    2    0    0 -0.21719255984E+03  0.25036139821E+03  0.34938801969E+03  0.48158636408E+03  0.00000000000E+00 0. -1.
         15    1    4    4    0    0 -0.65313484009E+02 -0.38195821127E+02 -0.15823829894E+03  0.17539706724E+03  0.00000000000E+00 0.  1.
        -16    1    1    2    0    0 -0.10975534737E+02  0.44022863242E+02  0.18091762021E+02  0.48844515596E+02  0.00000000000E+00 0.  1.
         16    1    3    3    0    0  0.17252414607E+03 -0.38061035677E+02 -0.83164565317E+02  0.19526793986E+03  0.00000000000E+00 0. -1.
    9900018    1    3    3    0    0 -0.27700488600E+02  0.13818255974E+03 -0.61519121286E+03  0.63768106735E+03  0.91187600000E+02 0.  0.
<mgrwt>
<rscale>  0 0.10477616E+04</rscale>
<asrwt>0</asrwt>
<pdfrwt beam="1">  1        2 0.26092138E+00 0.14660032E+04</pdfrwt>
<pdfrwt beam="2">  1       -2 0.12026827E+00 0.14660032E+04</pdfrwt>
<totfact> 0.49619665E+00</totfact>
</mgrwt>
</event>
<event>
11    1  0.7329336E-013  0.4232807E+04  0.7818608E-02  0.7959161E-01
          1   -1    0    0  501    0  0.00000000000E+00  0.00000000000E+00  0.27696873696E+04  0.27696873696E+04  0.00000000000E+00 0. -1.
         -1   -1    0    0    0  501 -0.00000000000E+00 -0.00000000000E+00 -0.16172091273E+04  0.16172091273E+04  0.00000000000E+00 0.  1.
    9900016    2    1    2    0    0  0.71037109623E+03 -0.17745014295E+03  0.23073002959E+02  0.10229052558E+04  0.71392377135E+03 0.  0.
         23    2    3    3    0    0  0.41418031996E+03 -0.11262341260E+03 -0.25005616354E+03  0.50476360144E+03  0.89603782832E+02 0.  0.
        -15    1    1    2    0    0 -0.83607312442E+03  0.42090407320E+02  0.24899620310E+03  0.87337791414E+03  0.00000000000E+00 0.  1.
        -15    1    4    4    0    0  0.22462996887E+03 -0.98763549545E+02 -0.17009239689E+03  0.29857040227E+03  0.00000000000E+00 0. -1.
         15    1    1    2    0    0  0.10797610614E+04  0.48632054945E+03  0.87773559119E+03  0.14740459269E+04  0.00000000000E+00 0. -1.
         15    1    4    4    0    0  0.18955035109E+03 -0.13859863055E+02 -0.79963766648E+02  0.20619319916E+03  0.00000000000E+00 0.  1.
        -16    1    1    2    0    0 -0.95405903320E+03 -0.35096081383E+03  0.26734450208E+01  0.10165674001E+04  0.00000000000E+00 0.  1.
         16    1    3    3    0    0  0.30355427226E+03 -0.38554762218E+02  0.28987664760E+03  0.42149749314E+03  0.00000000000E+00 0. -1.
    9900018    1    3    3    0    0 -0.73634959923E+01 -0.26271968127E+02 -0.16747481102E+02  0.96644161228E+02  0.91187600000E+02 0.  0.
<mgrwt>
<rscale>  0 0.42328070E+04</rscale>
<asrwt>0</asrwt>
<pdfrwt beam="1">  1        1 0.42610575E+00 0.42328070E+04</pdfrwt>
<pdfrwt beam="2">  1       -1 0.24880141E+00 0.42328070E+04</pdfrwt>
<totfact> 0.47743051E-02</totfact>
</mgrwt>
</event>
<event>
11    1  0.7329336E-013  0.2068243E+04  0.7818608E-02  0.8575363E-01
          1   -1    0    0  501    0  0.00000000000E+00  0.00000000000E+00  0.96067380581E+03  0.96067380581E+03  0.00000000000E+00 0. -1.
         -1   -1    0    0    0  501 -0.00000000000E+00 -0.00000000000E+00 -0.11131850324E+04  0.11131850324E+04  0.00000000000E+00 0.  1.
    9900016    2    1    2    0    0 -0.10539339604E+03 -0.35951504024E+02  0.28320095634E+03  0.77263105429E+03  0.71018003761E+03 0.  0.
         23    2    3    3    0    0 -0.14784041688E+03  0.81429072397E+01 -0.17616233910E+03  0.24754340822E+03  0.91222110446E+02 0.  0.
        -15    1    1    2    0    0  0.52605208279E+03 -0.30793085531E+03 -0.41958718522E+03  0.74000379151E+03  0.00000000000E+00 0.  1.
        -15    1    4    4    0    0 -0.13258628174E+02  0.34139858433E+02 -0.42304297416E+02  0.55955113571E+02  0.00000000000E+00 0. -1.
         15    1    1    2    0    0 -0.19324738689E+03  0.23922412748E+03 -0.38313740859E+02  0.30990430531E+03  0.00000000000E+00 0. -1.
         15    1    4    4    0    0 -0.13458178871E+03 -0.25996951194E+02 -0.13385804168E+03  0.19158829465E+03  0.00000000000E+00 0.  1.
        -16    1    3    3    0    0  0.11291173673E+03 -0.72672631252E+02  0.21660206978E+03  0.25484667598E+03  0.00000000000E+00 0.  1.
         16    1    1    2    0    0 -0.22741129985E+03  0.10465823186E+03  0.22188743150E+02  0.25131968709E+03  0.00000000000E+00 0. -1.
    9900018    1    3    3    0    0 -0.70464715893E+02  0.28578219989E+02  0.24276122565E+03  0.27024097009E+03  0.91187600000E+02 0.  0.
<mgrwt>
<rscale>  0 0.20682434E+04</rscale>
<asrwt>0</asrwt>
<pdfrwt beam="1">  1        1 0.14779597E+00 0.20682434E+04</pdfrwt>
<pdfrwt beam="2">  1       -1 0.17125924E+00 0.20682434E+04</pdfrwt>
<totfact> 0.36103942E+00</totfact>
</mgrwt>
</event>
<event>
11    1  0.7329336E-013  0.1277688E+04  0.7818608E-02  0.9447203E-01
          3   -1    0    0  501    0  0.00000000000E+00  0.00000000000E+00  0.15411482475E+04  0.15411482475E+04  0.00000000000E+00 0. -1.
         -3   -1    0    0    0  501 -0.00000000000E+00 -0.00000000000E+00 -0.40656101587E+03  0.40656101587E+03  0.00000000000E+00 0.  1.
    9900016    2    1    2    0    0  0.15247790702E+03 -0.13313669521E+03  0.94239650062E+03  0.11980260085E+04  0.71146346415E+03 0.  0.
         23    2    3    3    0    0 -0.79329807747E+02  0.10617552437E+03  0.18144252525E+03  0.24338389261E+03  0.93530042449E+02 0.  0.
        -15    1    4    4    0    0 -0.59123181133E+02  0.58119740904E+02  0.17125363232E+03  0.19026629079E+03  0.00000000000E+00 0.  1.
        -15    1    1    2    0    0  0.21740468124E+03  0.71295960807E+02  0.83894396837E+02  0.24369279692E+03  0.00000000000E+00 0.  1.
         15    1    4    4    0    0 -0.20206626614E+02  0.48055783468E+02  0.10188892935E+02  0.53117601820E+02  0.00000000000E+00 0. -1.
         15    1    1    2    0    0  0.47293715120E+02 -0.40271958291E+02  0.31642268556E+02  0.69711973676E+02  0.00000000000E+00 0. -1.
        -16    1    1    2    0    0 -0.41717630338E+03  0.10211269269E+03  0.76654065618E+02  0.43627848432E+03  0.00000000000E+00 0.  1.
         16    1    3    3    0    0  0.19103896151E+02 -0.14663284607E+03  0.67490571688E+03  0.69091524594E+03  0.00000000000E+00 0. -1.
    9900018    1    3    3    0    0  0.21270381862E+03 -0.92679373504E+02  0.86048258486E+02  0.26372686990E+03  0.91187600000E+02 0.  0.
<mgrwt>
<rscale>  0 0.88290787E+03</rscale>
<asrwt>0</asrwt>
<pdfrwt beam="1">  1        3 0.23709973E+00 0.12776882E+04</pdfrwt>
<pdfrwt beam="2">  1       -3 0.62547850E-01 0.12776882E+04</pdfrwt>
<totfact> 0.55610299E-01</totfact>
</mgrwt>
</event>
