<event>
13    1  0.1429147E-014  0.4691178E+04  0.7818608E-02  0.7877996E-01
         -1   -1    0    0    0  501 -0.00000000000E+00  0.00000000000E+00  0.29682504845E+04  0.29682504845E+04  0.00000000000E+00 0.  1.
          1   -1    0    0  501    0  0.00000000000E+00 -0.00000000000E+00 -0.18535453624E+04  0.18535453624E+04  0.00000000000E+00 0. -1.
    9900016    2    1    2    0    0  0.33397443625E+03 -0.51525183669E+03 -0.17106345059E+03  0.21495566553E+04  0.20528779142E+04 0.  0.
         24    2    3    3    0    0  0.35917565398E+03  0.67016983029E+02  0.87522909531E+03  0.95189218996E+03  0.81082338484E+02 0.  0.
    9900016    2    1    2    0    0 -0.34097427364E+03  0.52052660764E+03  0.12314969961E+04  0.25657619483E+04  0.21631777827E+04 0.  0.
         23    2    5    5    0    0  0.25302136400E+03 -0.72191255739E+03  0.87298044552E+02  0.77532146144E+03  0.91240719168E+02 0.  0.
        -15    1    6    6    0    0  0.21676319886E+03 -0.67362665860E+03  0.63751536669E+02  0.71050926664E+03  0.00000000000E+00 0.  1.
        -15    1    4    4    0    0  0.31179186847E+03  0.31150894644E+02  0.76451439160E+03  0.82623652936E+03  0.00000000000E+00 0.  1.
         15    1    6    6    0    0  0.36258165146E+02 -0.48285898790E+02  0.23546507883E+02  0.64812194803E+02  0.00000000000E+00 0. -1.
         15    1    3    3    0    0 -0.25201217727E+02 -0.58226881972E+03 -0.10462925459E+04  0.11976644653E+04  0.00000000000E+00 0. -1.
        -16    1    5    5    0    0 -0.59399563764E+03  0.12424391650E+04  0.11441989515E+04  0.17904404868E+04  0.00000000000E+00 0.  1.
         16    1    4    4    0    0  0.47383785507E+02  0.35866088385E+02  0.11071470371E+03  0.12565566061E+03  0.00000000000E+00 0. -1.
    9900018    1    1    2    0    0  0.69998373918E+01 -0.52747709492E+01  0.54271576616E+02  0.10647724336E+03  0.91187600000E+02 0.  0.
<mgrwt>
<rscale>  0 0.46911776E+04</rscale>
<asrwt>0</asrwt>
<pdfrwt beam="1">  1        1 0.28516083E+00 0.46911776E+04</pdfrwt>
<pdfrwt beam="2">  1       -1 0.45665392E+00 0.46911776E+04</pdfrwt>
<totfact> 0.80857850E-03</totfact>
</mgrwt>
</event>
<event>
12    1  0.1429147E-014  0.4761619E+04  0.7818608E-02  0.8255780E-01
         -2   -1    0    0    0  501 -0.00000000000E+00  0.00000000000E+00  0.30485660562E+04  0.30485660562E+04  0.00000000000E+00 0.  1.
          2   -1    0    0  501    0  0.00000000000E+00 -0.00000000000E+00 -0.27270219370E+04  0.27270219370E+04  0.00000000000E+00 0. -1.
        -24    2    1    2    0    0 -0.70068473552E+03  0.74261167040E+02  0.70308256896E+03  0.99870712328E+03  0.81344943241E+02 0.  0.
    9900016    2    1    2    0    0  0.13706277222E+04 -0.11411213768E+04  0.81518890730E+03  0.29071884989E+04  0.21462603906E+04 0.  0.
         23    2    4    4    0    0 -0.10580982079E+03 -0.36669783858E+03 -0.60223875135E+03  0.71887846553E+03  0.91824351743E+02 0.  0.
        -15    1    1    2    0    0 -0.73449994868E+03  0.10710328399E+04 -0.11835798358E+04  0.17571177384E+04  0.00000000000E+00 0.  1.
        -15    1    5    5    0    0 -0.10400432687E+02 -0.45068849248E+02 -0.28718840174E+02  0.54443934039E+02  0.00000000000E+00 0. -1.
         15    1    3    3    0    0 -0.39345494837E+03  0.81526715113E+02  0.38783393521E+03  0.55845193434E+03  0.00000000000E+00 0. -1.
         15    1    5    5    0    0 -0.95409388106E+02 -0.32162898933E+03 -0.57351991118E+03  0.66443453149E+03  0.00000000000E+00 0.  1.
        -16    1    3    3    0    0 -0.30722978715E+03 -0.72655480728E+01  0.31524863375E+03  0.44025518893E+03  0.00000000000E+00 0.  1.
         16    1    4    4    0    0  0.14764375430E+04 -0.77442353818E+03  0.14174276587E+04  0.21883100334E+04  0.00000000000E+00 0. -1.
    9900018    1    1    2    0    0  0.64556962027E+02 -0.41726302157E+01 -0.13147521213E+02  0.11257463256E+03  0.91187600000E+02 0.  0.
<mgrwt>
<rscale>  0 0.29581610E+04</rscale>
<asrwt>0</asrwt>
<pdfrwt beam="1">  1        2 0.41954184E+00 0.47616194E+04</pdfrwt>
<pdfrwt beam="2">  1       -2 0.46901016E+00 0.47616194E+04</pdfrwt>
<totfact> 0.47869538E-03</totfact>
</mgrwt>
</event>
<event>
13    1  0.1429147E-014  0.5197582E+04  0.7818608E-02  0.7798731E-01
         -2   -1    0    0    0  501 -0.00000000000E+00  0.00000000000E+00  0.25137351483E+04  0.25137351483E+04  0.00000000000E+00 0.  1.
          2   -1    0    0  501    0  0.00000000000E+00 -0.00000000000E+00 -0.26867245644E+04  0.26867245644E+04  0.00000000000E+00 0. -1.
    9900016    2    1    2    0    0 -0.11135243373E+04  0.52973172733E+03 -0.75403751976E+03  0.25639232593E+04  0.21176821636E+04 0.  0.
         24    2    3    3    0    0  0.59153218432E+02 -0.30953115211E+03  0.53753326335E+03  0.62802813865E+03  0.78541048816E+02 0.  0.
    9900016    2    1    2    0    0  0.10622146130E+04 -0.45853313161E+03  0.51873417310E+03  0.24954686252E+04  0.21493547869E+04 0.  0.
         23    2    5    5    0    0 -0.40321301379E+03  0.40925149951E+03 -0.24269608258E+03  0.62991124748E+03  0.88426618515E+02 0.  0.
        -15    1    6    6    0    0 -0.52482631113E+01  0.33639007583E+02 -0.14787840915E+02  0.37118827241E+02  0.00000000000E+00 0.  1.
        -15    1    4    4    0    0  0.65103213543E+01 -0.11145613677E+03  0.26055705067E+03  0.28346927763E+03  0.00000000000E+00 0.  1.
         15    1    6    6    0    0 -0.39796475068E+03  0.37561249193E+03 -0.22790824167E+03  0.59279242024E+03  0.00000000000E+00 0. -1.
         15    1    3    3    0    0 -0.11726775557E+04  0.83926287944E+03 -0.12915707831E+04  0.19358951207E+04  0.00000000000E+00 0. -1.
        -16    1    5    5    0    0  0.14654276267E+04 -0.86778463112E+03  0.76143025568E+03  0.18655573777E+04  0.00000000000E+00 0.  1.
         16    1    4    4    0    0  0.52642897078E+02 -0.19807501533E+03  0.27697621268E+03  0.34455886102E+03  0.00000000000E+00 0. -1.
    9900018    1    1    2    0    0  0.51309724303E+02 -0.71198595729E+02  0.62313930569E+02  0.14106782829E+03  0.91187600000E+02 0.  0.
<mgrwt>
<rscale>  0 0.51975817E+04</rscale>
<asrwt>0</asrwt>
<pdfrwt beam="1">  1        2 0.41334224E+00 0.51975817E+04</pdfrwt>
<pdfrwt beam="2">  1       -2 0.38672849E+00 0.51975817E+04</pdfrwt>
<totfact> 0.17563488E-02</totfact>
</mgrwt>
</event>
<event>
12    1  0.1429147E-014  0.4729054E+04  0.7818608E-02  0.7871719E-01
          1   -1    0    0  501    0  0.00000000000E+00  0.00000000000E+00  0.23723669790E+04  0.23723669790E+04  0.00000000000E+00 0. -1.
         -1   -1    0    0    0  501 -0.00000000000E+00 -0.00000000000E+00 -0.23567130528E+04  0.23567130528E+04  0.00000000000E+00 0.  1.
         24    2    1    2    0    0  0.38593718054E+03 -0.57715921023E+03 -0.12551054040E+04  0.14366286838E+04  0.80945283508E+02 0.  0.
    9900016    2    1    2    0    0 -0.49009828988E+03  0.78045506017E+03  0.49992139204E+03  0.24884800387E+04  0.22568351889E+04 0.  0.
         23    2    4    4    0    0 -0.16544112276E+03  0.48257487701E+03  0.12857344875E+04  0.13861542240E+04  0.89783536500E+02 0.  0.
        -15    1    5    5    0    0 -0.16814411477E+03  0.39126827786E+03  0.10285287893E+04  0.11132092252E+04  0.00000000000E+00 0. -1.
        -15    1    3    3    0    0  0.31687014394E+03 -0.41112275120E+03 -0.94341993130E+03  0.10767867809E+04  0.00000000000E+00 0.  1.
         15    1    5    5    0    0  0.27029920087E+01  0.91306599143E+02  0.25720569820E+03  0.27294499885E+03  0.00000000000E+00 0.  1.
         15    1    1    2    0    0  0.10416110935E+03 -0.20329584994E+03  0.77083793815E+03  0.80397130931E+03  0.00000000000E+00 0. -1.
        -16    1    4    4    0    0 -0.27587161194E+03  0.24220999429E+03 -0.87888142110E+03  0.95247224630E+03  0.00000000000E+00 0.  1.
         16    1    3    3    0    0  0.69067036594E+02 -0.16603645903E+03 -0.31168547265E+03  0.35984190297E+03  0.00000000000E+00 0. -1.
    9900018    1    4    4    0    0 -0.48785555177E+02  0.55670188875E+02  0.93068325651E+02  0.14985356838E+03  0.91187600000E+02 0.  0.
<mgrwt>
<rscale>  0 0.47290541E+04</rscale>
<asrwt>0</asrwt>
<pdfrwt beam="1">  1        1 0.36497954E+00 0.47290541E+04</pdfrwt>
<pdfrwt beam="2">  1       -1 0.36257124E+00 0.47290541E+04</pdfrwt>
<totfact> 0.15689484E-02</totfact>
</mgrwt>
</event>
<event>
13    1  0.1429147E-014  0.5627569E+04  0.7818608E-02  0.7738376E-01
         -2   -1    0    0    0  501 -0.00000000000E+00  0.00000000000E+00  0.30675274581E+04  0.30675274581E+04  0.00000000000E+00 0.  1.
          2   -1    0    0  501    0  0.00000000000E+00 -0.00000000000E+00 -0.25810305301E+04  0.25810305301E+04  0.00000000000E+00 0. -1.
    9900016    2    1    2    0    0 -0.11036921912E+04 -0.16265898024E+03 -0.11336242770E+04  0.26516082409E+04  0.21216333013E+04 0.  0.
         24    2    3    3    0    0  0.57368828242E+03 -0.39484287815E+03 -0.38622442851E+03  0.80062981067E+03  0.82581116192E+02 0.  0.
    9900016    2    1    2    0    0  0.10508187272E+04  0.15271542984E+03  0.15734977172E+04  0.28812630781E+04  0.21675423547E+04 0.  0.
         23    2    5    5    0    0  0.36533410947E+03 -0.81543596386E+01  0.20153474675E+04  0.20499993100E+04  0.85651917500E+02 0.  0.
        -15    1    4    4    0    0  0.49668034300E+03 -0.30999431747E+03 -0.30486227111E+03  0.66009760213E+03  0.00000000000E+00 0.  1.
        -15    1    6    6    0    0  0.70405540315E+02  0.32551119380E+02  0.40479986329E+03  0.41216434198E+03  0.00000000000E+00 0.  1.
         15    1    6    6    0    0  0.29492856915E+03 -0.40705479019E+02  0.16105476042E+04  0.16378349680E+04  0.00000000000E+00 0. -1.
         15    1    3    3    0    0 -0.16773804736E+04  0.23218389790E+03 -0.74739984852E+03  0.18509784303E+04  0.00000000000E+00 0. -1.
        -16    1    5    5    0    0  0.68548461768E+03  0.16086978948E+03 -0.44184975038E+03  0.83126376810E+03  0.00000000000E+00 0.  1.
         16    1    4    4    0    0  0.77007939422E+02 -0.84848560674E+02 -0.81362157397E+02  0.14053220855E+03  0.00000000000E+00 0. -1.
    9900018    1    1    2    0    0  0.52873464063E+02  0.99435504052E+01  0.46623487950E+02  0.11568666915E+03  0.91187600000E+02 0.  0.
<mgrwt>
<rscale>  0 0.56275686E+04</rscale>
<asrwt>0</asrwt>
<pdfrwt beam="1">  1        2 0.39708162E+00 0.56275686E+04</pdfrwt>
<pdfrwt beam="2">  1       -2 0.47192730E+00 0.56275686E+04</pdfrwt>
<totfact> 0.54226897E-03</totfact>
</mgrwt>
</event>
<event>
13    1  0.1429147E-014  0.4767565E+04  0.7818608E-02  0.7865398E-01
          2   -1    0    0  501    0  0.00000000000E+00  0.00000000000E+00  0.22231207706E+04  0.22231207706E+04  0.00000000000E+00 0.  1.
         -2   -1    0    0    0  501 -0.00000000000E+00 -0.00000000000E+00 -0.25560549261E+04  0.25560549261E+04  0.00000000000E+00 0. -1.
    9900016    2    1    2    0    0 -0.89422315149E+03 -0.31750931697E+03 -0.55462221031E+03  0.23211030898E+04  0.20443743655E+04 0.  0.
        -24    2    3    3    0    0 -0.18128890768E+03  0.66835811766E+03 -0.81956042680E+03  0.10759516559E+04  0.80152549939E+02 0.  0.
    9900016    2    1    2    0    0  0.83111995903E+03  0.25976739628E+03  0.21075111070E+03  0.23325698681E+04  0.21536542602E+04 0.  0.
         23    2    5    5    0    0 -0.17667587223E+03  0.35570320765E+03  0.97986301641E+03  0.10611968934E+04  0.90929532104E+02 0.  0.
        -15    1    3    3    0    0 -0.71293424381E+03 -0.98586743463E+03  0.26493821649E+03  0.12451514338E+04  0.00000000000E+00 0.  1.
        -15    1    6    6    0    0 -0.59010787662E+02  0.21000481698E+03  0.57952021810E+03  0.61921561624E+03  0.00000000000E+00 0. -1.
         15    1    6    6    0    0 -0.11766508456E+03  0.14569839067E+03  0.40034279831E+03  0.44198127712E+03  0.00000000000E+00 0.  1.
         15    1    4    4    0    0 -0.89826340911E+02  0.41417206245E+03 -0.44954638503E+03  0.61781811330E+03  0.00000000000E+00 0. -1.
        -16    1    4    4    0    0 -0.91462566769E+02  0.25418605521E+03 -0.37001404177E+03  0.45813354264E+03  0.00000000000E+00 0.  1.
         16    1    5    5    0    0  0.10077958313E+04 -0.95935811361E+02 -0.76911190571E+03  0.12713729747E+04  0.00000000000E+00 0. -1.
    9900018    1    1    2    0    0  0.63103192454E+02  0.57741920684E+02  0.10936944054E+02  0.12550273878E+03  0.91187600000E+02 0.  0.
<mgrwt>
<rscale>  0 0.47675649E+04</rscale>
<asrwt>0</asrwt>
<pdfrwt beam="1">  1        2 0.34201858E+00 0.47675649E+04</pdfrwt>
<pdfrwt beam="2">  1       -2 0.39323922E+00 0.47675649E+04</pdfrwt>
<totfact> 0.30544821E-02</totfact>
</mgrwt>
</event>
