<event>
11    1  0.3962799E-010  0.3938561E+04  0.7818608E-02  0.8799858E-01
         -2   -1    0    0    0  501 -0.00000000000E+00  0.00000000000E+00  0.17102908358E+04  0.17102908358E+04  0.00000000000E+00 0.  1.
          2   -1    0    0  501    0  0.00000000000E+00 -0.00000000000E+00 -0.24038699873E+04  0.24038699873E+04  0.00000000000E+00 0. -1.
         23    2    1    2    0    0  0.70927618749E+02 -0.11481338308E+02 -0.19348008190E+02  0.11830625509E+03  0.91975411614E+02 0.  0.
    9900016    2    1    2    0    0  0.20118357521E+03  0.16256579793E+03 -0.10405244052E+03  0.22293995103E+04  0.22118980077E+04 0.  0.
        -15    1    4    4    0    0 -0.22296461313E+03  0.16889089260E+03  0.10014790512E+04  0.10398065408E+04  0.00000000000E+00 0.  1.
        -15    1    3    3    0    0  0.16886261287E+02 -0.47039816603E+02 -0.19409924127E+02  0.53615625716E+02  0.00000000000E+00 0. -1.
         15    1    3    3    0    0  0.54041357461E+02  0.35558478296E+02  0.61915937155E-01  0.64690629372E+02  0.00000000000E+00 0.  1.
         15    1    4    4    0    0  0.57252058305E+02  0.33719859674E+02 -0.11915195787E+03  0.13642586331E+03  0.00000000000E+00 0. -1.
        -16    1    4    4    0    0  0.36689613003E+03 -0.40044954345E+02 -0.98637953390E+03  0.10531671062E+04  0.00000000000E+00 0.  1.
         16    1    1    2    0    0 -0.60807186151E+03 -0.17967646495E+03 -0.10175159247E+04  0.11989051997E+04  0.00000000000E+00 0. -1.
    9900018    1    1    2    0    0  0.33596066755E+03  0.28592005331E+02  0.44733722183E+03  0.56754985802E+03  0.91187600000E+02 0.  0.
<mgrwt>
<rscale>  0 0.16341180E+04</rscale>
<asrwt>0</asrwt>
<pdfrwt beam="1">  1        2 0.36982615E+00 0.39385614E+04</pdfrwt>
<pdfrwt beam="2">  1       -2 0.26312167E+00 0.39385614E+04</pdfrwt>
<totfact> 0.16669115E-01</totfact>
</mgrwt>
</event>
<event>
12    1  0.3962799E-010  0.3732541E+04  0.7818608E-02  0.8830707E-01
          1   -1    0    0  501    0  0.00000000000E+00  0.00000000000E+00  0.19413445909E+04  0.19413445909E+04  0.00000000000E+00 0. -1.
         -1   -1    0    0    0  501 -0.00000000000E+00 -0.00000000000E+00 -0.19351218695E+04  0.19351218695E+04  0.00000000000E+00 0.  1.
         23    2    1    2    0    0  0.53865746624E+02  0.54248005614E+02 -0.76345526794E+02  0.14301270337E+03  0.93699674985E+02 0.  0.
    9900016    2    1    2    0    0  0.35790389802E+03 -0.33753530630E+03 -0.24598436867E+03  0.22334493144E+04  0.21646621554E+04 0.  0.
        -24    2    4    4    0    0 -0.51829326387E+02  0.73089688641E+03  0.47726651866E+03  0.87974310120E+03  0.96270746532E+02 0.  0.
        -15    1    4    4    0    0  0.40973322440E+03 -0.10684321927E+04 -0.72325088733E+03  0.13537062132E+04  0.00000000000E+00 0.  1.
        -15    1    3    3    0    0  0.25885072187E+02  0.78547081614E+02 -0.43258716250E+02  0.93332724828E+02  0.00000000000E+00 0.  1.
         15    1    3    3    0    0  0.27980674437E+02 -0.24299075999E+02 -0.33086810544E+02  0.49679978546E+02  0.00000000000E+00 0. -1.
         15    1    5    5    0    0 -0.55429775331E+02  0.30282927942E+03  0.23959907155E+03  0.39010991728E+03  0.00000000000E+00 0. -1.
        -16    1    5    5    0    0  0.36004489431E+01  0.42806760698E+03  0.23766744711E+03  0.48963318392E+03  0.00000000000E+00 0.  1.
         16    1    1    2    0    0 -0.77734358167E+03  0.39690575456E+03  0.56611237492E+03  0.10403270846E+04  0.00000000000E+00 0. -1.
    9900018    1    1    2    0    0  0.36557393703E+03 -0.11361845388E+03 -0.23755975806E+03  0.45967735809E+03  0.91187600000E+02 0.  0.
<mgrwt>
<rscale>  0 0.15835678E+04</rscale>
<asrwt>0</asrwt>
<pdfrwt beam="1">  1        1 0.29866840E+00 0.37325406E+04</pdfrwt>
<pdfrwt beam="2">  1       -1 0.29771106E+00 0.37325406E+04</pdfrwt>
<totfact> 0.88849361E-02</totfact>
</mgrwt>
</event>
<event>
11    1  0.3962799E-010  0.2844312E+04  0.7818608E-02  0.8822652E-01
         -2   -1    0    0    0  501 -0.00000000000E+00  0.00000000000E+00  0.11808187326E+04  0.11808187326E+04  0.00000000000E+00 0.  1.
          2   -1    0    0  501    0  0.00000000000E+00 -0.00000000000E+00 -0.20904384028E+04  0.20904384028E+04  0.00000000000E+00 0. -1.
         23    2    1    2    0    0 -0.21961100435E+03  0.15141783079E+03 -0.17995135730E+03  0.33484303228E+03  0.92633754953E+02 0.  0.
    9900016    2    1    2    0    0  0.53076075229E+02 -0.34341267005E+03 -0.74060639206E+03  0.23556800446E+04  0.22090679738E+04 0.  0.
        -15    1    3    3    0    0 -0.11752473370E+03  0.68934122015E+02 -0.37857570876E+02  0.14141135698E+03  0.00000000000E+00 0.  1.
        -15    1    4    4    0    0 -0.49300768462E+02 -0.63648483287E+02  0.78994850601E+02  0.11279131889E+03  0.00000000000E+00 0.  1.
         15    1    3    3    0    0 -0.10208627065E+03  0.82483708777E+02 -0.14209378642E+03  0.19343167530E+03  0.00000000000E+00 0. -1.
         15    1    4    4    0    0  0.81892955894E+03 -0.32745413209E+03 -0.11525766105E+04  0.14513113636E+04  0.00000000000E+00 0. -1.
        -16    1    1    2    0    0  0.31923212730E+03  0.14223516310E+03  0.11603137499E+03  0.36824349649E+03  0.00000000000E+00 0.  1.
         16    1    4    4    0    0 -0.71655271525E+03  0.47689945333E+02  0.33297536783E+03  0.79157736210E+03  0.00000000000E+00 0. -1.
    9900018    1    1    2    0    0 -0.15269719818E+03  0.49759676157E+02 -0.10509329590E+03  0.21249056201E+03  0.91187600000E+02 0.  0.
<mgrwt>
<rscale>  0 0.15965800E+04</rscale>
<asrwt>0</asrwt>
<pdfrwt beam="1">  1        2 0.32160590E+00 0.28443122E+04</pdfrwt>
<pdfrwt beam="2">  1       -2 0.18166442E+00 0.28443122E+04</pdfrwt>
<totfact> 0.90141875E-01</totfact>
</mgrwt>
</event>
