<event>
13    1  0.2103593E-011  0.7345994E+04  0.7818608E-02  0.7542769E-01
         -1   -1    0    0    0  501 -0.00000000000E+00  0.00000000000E+00  0.43748504502E+04  0.43748504502E+04  0.00000000000E+00 0.  1.
          1   -1    0    0  501    0  0.00000000000E+00 -0.00000000000E+00 -0.30837413046E+04  0.30837413046E+04  0.00000000000E+00 0. -1.
    9900016    2    1    2    0    0  0.11897629110E+04 -0.82286432655E+03  0.25669062511E+04  0.36347923335E+04  0.21283951987E+04 0.  0.
        -24    2    3    3    0    0  0.68382839656E+03  0.67639128171E+03  0.12293528594E+04  0.15628883330E+04  0.78645067487E+02 0.  0.
    9900016    2    1    2    0    0 -0.97051691801E+03  0.63003826021E+03  0.26969886643E+02  0.24856037287E+04  0.21996925294E+04 0.  0.
         23    2    5    5    0    0  0.27477776301E+03  0.22797730666E+03 -0.84016749705E+03  0.91578237099E+03  0.72797366147E+02 0.  0.
        -15    1    3    3    0    0  0.50593451447E+03 -0.14992556083E+04  0.13375533917E+04  0.20719040005E+04  0.00000000000E+00 0.  1.
        -15    1    6    6    0    0  0.40352514349E+02  0.60598006685E+02 -0.12301862975E+03  0.14294763760E+03  0.00000000000E+00 0.  1.
         15    1    6    6    0    0  0.23442524866E+03  0.16737929997E+03 -0.71714886729E+03  0.77283473339E+03  0.00000000000E+00 0. -1.
         15    1    4    4    0    0  0.41474057518E+03  0.41718356498E+03  0.68936995180E+03  0.90624654595E+03  0.00000000000E+00 0. -1.
        -16    1    4    4    0    0  0.26908782137E+03  0.25920771672E+03  0.53998290756E+03  0.65664178703E+03  0.00000000000E+00 0.  1.
         16    1    5    5    0    0 -0.12452946810E+04  0.40206095355E+03  0.86713738369E+03  0.15698213577E+04  0.00000000000E+00 0. -1.
    9900018    1    1    2    0    0 -0.21924599302E+03  0.19282606634E+03 -0.13027669922E+04  0.13381956926E+04  0.91187600000E+02 0.  0.
<mgrwt>
<rscale>  0 0.73459940E+04</rscale>
<asrwt>0</asrwt>
<pdfrwt beam="1">  1        1 0.47442174E+00 0.73459940E+04</pdfrwt>
<pdfrwt beam="2">  1       -1 0.67305392E+00 0.73459940E+04</pdfrwt>
<totfact> 0.79669193E-05</totfact>
</mgrwt>
</event>
<event>
13    1  0.2103593E-011  0.6417136E+04  0.7818608E-02  0.7640729E-01
          2   -1    0    0  501    0  0.00000000000E+00  0.00000000000E+00  0.31297014389E+04  0.31297014389E+04  0.00000000000E+00 0.  1.
         -2   -1    0    0    0  501 -0.00000000000E+00 -0.00000000000E+00 -0.32894216320E+04  0.32894216320E+04  0.00000000000E+00 0. -1.
    9900016    2    1    2    0    0 -0.59824385885E+03  0.44332242015E+03  0.93869008218E+03  0.24102706721E+04  0.20913715977E+04 0.  0.
        -24    2    3    3    0    0 -0.13076410482E+04  0.31514179827E+03  0.10125059173E+04  0.16856166709E+04  0.83041342565E+02 0.  0.
    9900016    2    1    2    0    0  0.86914899647E+03  0.85984295954E+03 -0.73055771415E+03  0.26249231067E+04  0.22049391940E+04 0.  0.
         23    2    5    5    0    0 -0.34844508651E+03 -0.15599077219E+03  0.48397904501E+03  0.62753654903E+03  0.11755554020E+03 0.  0.
        -15    1    6    6    0    0 -0.59279832918E+02  0.73083560580E+01  0.12482607366E+03  0.13838012619E+03  0.00000000000E+00 0.  1.
        -15    1    3    3    0    0  0.70939718932E+03  0.12818062188E+03 -0.73815835144E+02  0.72465400127E+03  0.00000000000E+00 0.  1.
         15    1    4    4    0    0 -0.69252839928E+03  0.20527966627E+03  0.52038325837E+03  0.89024382097E+03  0.00000000000E+00 0. -1.
         15    1    6    6    0    0 -0.28916525359E+03 -0.16329912825E+03  0.35915297136E+03  0.48915642284E+03  0.00000000000E+00 0. -1.
        -16    1    4    4    0    0 -0.61511264890E+03  0.10986213201E+03  0.49212265895E+03  0.79537284989E+03  0.00000000000E+00 0.  1.
         16    1    5    5    0    0  0.12175940830E+04  0.10158337317E+04 -0.12145367592E+04  0.19973865577E+04  0.00000000000E+00 0. -1.
    9900018    1    1    2    0    0 -0.27090513761E+03 -0.13031653797E+04 -0.36785256109E+03  0.13839292921E+04  0.91187600000E+02 0.  0.
<mgrwt>
<rscale>  0 0.64171357E+04</rscale>
<asrwt>0</asrwt>
<pdfrwt beam="1">  1        2 0.48149253E+00 0.64171357E+04</pdfrwt>
<pdfrwt beam="2">  1       -2 0.50606486E+00 0.64171357E+04</pdfrwt>
<totfact> 0.14402035E-03</totfact>
</mgrwt>
</event>
<event>
11    1  0.2103593E-011  0.5332309E+04  0.7818608E-02  0.7779195E-01
          2   -1    0    0  501    0  0.00000000000E+00  0.00000000000E+00  0.26056655407E+04  0.26056655407E+04  0.00000000000E+00 0. -1.
         -2   -1    0    0    0  501 -0.00000000000E+00 -0.00000000000E+00 -0.27280479198E+04  0.27280479198E+04  0.00000000000E+00 0.  1.
        -24    2    1    2    0    0  0.12794595131E+02  0.11356809799E+04 -0.13087082927E+03  0.11458992626E+04  0.77607707751E+02 0.  0.
    9900016    2    1    2    0    0 -0.10877266248E+04 -0.35424233438E+03  0.43574742898E+03  0.25544603578E+04  0.22420426079E+04 0.  0.
        -15    1    4    4    0    0  0.89572470058E+01 -0.11410670584E+03 -0.21006098085E+01  0.11447700709E+03  0.00000000000E+00 0.  1.
        -15    1    1    2    0    0  0.58249218810E+03 -0.69778343009E+03  0.83966621050E+02  0.91282487803E+03  0.00000000000E+00 0.  1.
         15    1    3    3    0    0  0.43329498607E+02  0.72510598893E+03 -0.71023702411E+02  0.72986334812E+03  0.00000000000E+00 0. -1.
         15    1    4    4    0    0 -0.35073456723E+03 -0.11609612180E+04  0.16539642172E+03  0.12240104830E+04  0.00000000000E+00 0. -1.
        -16    1    3    3    0    0 -0.30534903476E+02  0.41057499102E+03 -0.59847126855E+02  0.41603591452E+03  0.00000000000E+00 0.  1.
         16    1    4    4    0    0 -0.74594930462E+03  0.92082558943E+03  0.27245161707E+03  0.12159728676E+04  0.00000000000E+00 0. -1.
    9900018    1    1    2    0    0  0.49243984162E+03 -0.83655215470E+02 -0.51122559992E+03  0.72052896201E+03  0.91187600000E+02 0.  0.
<mgrwt>
<rscale>  0 0.53323092E+04</rscale>
<asrwt>0</asrwt>
<pdfrwt beam="1">  1        2 0.40087162E+00 0.53323092E+04</pdfrwt>
<pdfrwt beam="2">  1       -2 0.41969968E+00 0.53323092E+04</pdfrwt>
<totfact> 0.11815768E-02</totfact>
</mgrwt>
</event>
