<event>
11    1  0.7899267E-012  0.2624586E+04  0.7818608E-02  0.8359898E-01
         -2   -1    0    0    0  501 -0.00000000000E+00  0.00000000000E+00  0.47960880372E+03  0.47960880372E+03  0.00000000000E+00 0.  1.
          2   -1    0    0  501    0  0.00000000000E+00 -0.00000000000E+00 -0.35906603550E+04  0.35906603550E+04  0.00000000000E+00 0. -1.
    9900016    2    1    2    0    0  0.55609984232E+03  0.21701437091E+03 -0.20789969057E+04  0.28161343388E+04  0.18033419555E+04 0.  0.
        -24    2    3    3    0    0  0.83929272120E+03  0.12661764430E+03 -0.13875399002E+04  0.16285366455E+04  0.80126970108E+02 0.  0.
        -15    1    3    3    0    0  0.26548470710E+03 -0.11005057928E+02  0.64071210479E+01  0.26578994000E+03  0.00000000000E+00 0.  1.
        -15    1    3    3    0    0 -0.19357198332E+03  0.46388036780E+02 -0.42927697928E+03  0.47318145317E+03  0.00000000000E+00 0.  1.
         15    1    4    4    0    0  0.70197306289E+03  0.82878560598E+02 -0.11134021356E+04  0.13188249893E+04  0.00000000000E+00 0. -1.
         15    1    3    3    0    0 -0.35510560266E+03  0.55013747757E+02 -0.26858714724E+03  0.44862630011E+03  0.00000000000E+00 0. -1.
        -16    1    4    4    0    0  0.13731965832E+03  0.43739083703E+02 -0.27413776461E+03  0.30971165620E+03  0.00000000000E+00 0.  1.
         16    1    1    2    0    0 -0.57280344376E+03 -0.20394468063E+03 -0.95845197344E+03  0.11350451107E+04  0.00000000000E+00 0. -1.
    9900018    1    1    2    0    0  0.16703601444E+02 -0.13069690276E+02 -0.73602672143E+02  0.11908970923E+03  0.91187600000E+02 0.  0.
<mgrwt>
<rscale>  0 0.26245855E+04</rscale>
<asrwt>0</asrwt>
<pdfrwt beam="1">  1        2 0.55240929E+00 0.26245855E+04</pdfrwt>
<pdfrwt beam="2">  1       -2 0.73785969E-01 0.26245855E+04</pdfrwt>
<totfact> 0.10255494E+00</totfact>
</mgrwt>
</event>
<event>
11    1  0.7899267E-012  0.2264522E+04  0.7818608E-02  0.8492042E-01
          2   -1    0    0  501    0  0.00000000000E+00  0.00000000000E+00  0.30370096151E+04  0.30370096151E+04  0.00000000000E+00 0. -1.
         -2   -1    0    0    0  501 -0.00000000000E+00 -0.00000000000E+00 -0.42213071099E+03  0.42213071099E+03  0.00000000000E+00 0.  1.
    9900016    2    1    2    0    0 -0.28008219715E+03  0.46837585877E+02  0.17585628665E+04  0.25285022129E+04  0.17944749339E+04 0.  0.
        -24    2    3    3    0    0 -0.75444949040E+02  0.41942447923E+03  0.28020173585E+03  0.51694921868E+03  0.84348371704E+02 0.  0.
        -15    1    3    3    0    0  0.13833275637E+03 -0.18358724076E+03  0.88432228122E+02  0.24629349448E+03  0.00000000000E+00 0.  1.
        -15    1    3    3    0    0 -0.19295621467E+03  0.21935771485E+03 -0.16965043021E+02  0.29263923273E+03  0.00000000000E+00 0.  1.
         15    1    3    3    0    0 -0.15001378982E+03 -0.40835736745E+03  0.14068939455E+04  0.14726202670E+04  0.00000000000E+00 0. -1.
         15    1    4    4    0    0 -0.34523700108E+02  0.19816588639E+03  0.82459410689E+02  0.21739631738E+03  0.00000000000E+00 0. -1.
        -16    1    4    4    0    0 -0.40921248932E+02  0.22125859284E+03  0.19774232516E+03  0.29955290130E+03  0.00000000000E+00 0.  1.
         16    1    1    2    0    0  0.24403988347E+03 -0.60318284214E+02  0.71662832429E+03  0.75944052782E+03  0.00000000000E+00 0. -1.
    9900018    1    1    2    0    0  0.36042313685E+02  0.13480698336E+02  0.13968771337E+03  0.17119758545E+03  0.91187600000E+02 0.  0.
<mgrwt>
<rscale>  0 0.22645220E+04</rscale>
<asrwt>0</asrwt>
<pdfrwt beam="1">  1        2 0.46723223E+00 0.22645220E+04</pdfrwt>
<pdfrwt beam="2">  1       -2 0.64943188E-01 0.22645220E+04</pdfrwt>
<totfact> 0.32852977E+00</totfact>
</mgrwt>
</event>
<event>
11    1  0.7899267E-012  0.2212855E+04  0.7818608E-02  0.8513097E-01
          1   -1    0    0  501    0  0.00000000000E+00  0.00000000000E+00  0.95227268284E+03  0.95227268284E+03  0.00000000000E+00 0. -1.
         -1   -1    0    0    0  501 -0.00000000000E+00 -0.00000000000E+00 -0.12855371525E+04  0.12855371525E+04  0.00000000000E+00 0.  1.
    9900016    2    1    2    0    0  0.89367027056E+02 -0.14662161575E+03 -0.11926456577E+03  0.18029861753E+04  0.17908240416E+04 0.  0.
         24    2    3    3    0    0 -0.44314582233E+02  0.17643491730E+03 -0.32402459853E+03  0.37973011482E+03  0.78166216545E+02 0.  0.
        -15    1    4    4    0    0 -0.18028135794E+02  0.10580849779E+03 -0.11391830813E+03  0.15651783544E+03  0.00000000000E+00 0.  1.
        -15    1    3    3    0    0  0.36461393269E+03 -0.39352973873E+03  0.25679258035E+03  0.59477004338E+03  0.00000000000E+00 0.  1.
         15    1    3    3    0    0  0.29021229854E+03  0.21513335726E+02 -0.87409159640E+02  0.30385253500E+03  0.00000000000E+00 0. -1.
         15    1    3    3    0    0 -0.52114462194E+03  0.48959869948E+02  0.35376612045E+02  0.52463348209E+03  0.00000000000E+00 0. -1.
        -16    1    1    2    0    0 -0.64127990605E+02  0.19350608543E+03 -0.25061948563E+03  0.32305902070E+03  0.00000000000E+00 0.  1.
         16    1    4    4    0    0 -0.26286446439E+02  0.70626419510E+02 -0.21010629040E+03  0.22321227938E+03  0.00000000000E+00 0. -1.
    9900018    1    1    2    0    0 -0.25239036451E+02 -0.46884469678E+02  0.36619581713E+02  0.11176463938E+03  0.91187600000E+02 0.  0.
<mgrwt>
<rscale>  0 0.22128551E+04</rscale>
<asrwt>0</asrwt>
<pdfrwt beam="1">  1        1 0.14650349E+00 0.22128551E+04</pdfrwt>
<pdfrwt beam="2">  1       -1 0.19777495E+00 0.22128551E+04</pdfrwt>
<totfact> 0.23438606E+00</totfact>
</mgrwt>
</event>
<event>
11    1  0.7899267E-012  0.2438526E+04  0.7818608E-02  0.8425219E-01
         -2   -1    0    0    0  501 -0.00000000000E+00  0.00000000000E+00  0.82060350090E+03  0.82060350090E+03  0.00000000000E+00 0.  1.
          2   -1    0    0  501    0  0.00000000000E+00 -0.00000000000E+00 -0.18115963327E+04  0.18115963327E+04  0.00000000000E+00 0. -1.
    9900016    2    1    2    0    0  0.44119276187E+03 -0.21933336654E+02 -0.58156181585E+03  0.20298993428E+04  0.18939759956E+04 0.  0.
        -24    2    3    3    0    0  0.27572630092E+01  0.51062162364E+01  0.28135743756E+02  0.84127226393E+02  0.79070185280E+02 0.  0.
        -15    1    3    3    0    0 -0.48502367155E+03 -0.24415237903E+03 -0.22916310378E+03  0.58938448765E+03  0.00000000000E+00 0.  1.
        -15    1    3    3    0    0  0.69166065532E+03  0.41153971133E+03 -0.52619701734E+02  0.80655330210E+03  0.00000000000E+00 0.  1.
         15    1    3    3    0    0  0.22182724884E+03 -0.18210233189E+03 -0.35202342433E+03  0.45419057551E+03  0.00000000000E+00 0. -1.
         15    1    4    4    0    0 -0.21911970522E+02  0.18774641933E+02 -0.15053016756E+02  0.32545582578E+02  0.00000000000E+00 0. -1.
        -16    1    4    4    0    0  0.24669233531E+02 -0.13668425696E+02  0.43188760512E+02  0.51581643815E+02  0.00000000000E+00 0.  1.
         16    1    1    2    0    0 -0.44119276187E+03  0.21933336654E+02 -0.40943101599E+03  0.60230049081E+03  0.00000000000E+00 0. -1.
    9900018    1    3    3    0    0  0.99712662476E+01 -0.12324553302E+02  0.24108670238E+02  0.95643751176E+02  0.91187600000E+02 0.  0.
<mgrwt>
<rscale>  0 0.24385260E+04</rscale>
<asrwt>0</asrwt>
<pdfrwt beam="1">  1        2 0.27870712E+00 0.24385260E+04</pdfrwt>
<pdfrwt beam="2">  1       -2 0.12624669E+00 0.24385260E+04</pdfrwt>
<totfact> 0.35643806E+00</totfact>
</mgrwt>
</event>
<event>
11    1  0.7899267E-012  0.2769749E+04  0.7818608E-02  0.8312722E-01
          2   -1    0    0  501    0  0.00000000000E+00  0.00000000000E+00  0.12035481360E+04  0.12035481360E+04  0.00000000000E+00 0. -1.
         -2   -1    0    0    0  501 -0.00000000000E+00 -0.00000000000E+00 -0.15935195839E+04  0.15935195839E+04  0.00000000000E+00 0.  1.
    9900016    2    1    2    0    0 -0.11688809148E+03 -0.67572094047E+03 -0.33065132052E+02  0.19188131696E+04  0.17917837653E+04 0.  0.
         24    2    3    3    0    0 -0.17599939594E+03 -0.95229024842E+03  0.27390274098E+03  0.10095634530E+04  0.79769351707E+02 0.  0.
        -15    1    3    3    0    0  0.18060421346E+03  0.42185241252E+03 -0.79849978520E+02  0.46578252322E+03  0.00000000000E+00 0.  1.
        -15    1    4    4    0    0 -0.65455467682E+02 -0.53278827464E+03  0.17511721255E+03  0.56463599068E+03  0.00000000000E+00 0.  1.
         15    1    3    3    0    0 -0.13761924420E+03 -0.20993358790E+03 -0.52339946897E+02  0.25641887166E+03  0.00000000000E+00 0. -1.
         15    1    3    3    0    0  0.16126335194E+02  0.64650483342E+02 -0.17477794762E+03  0.18704832172E+03  0.00000000000E+00 0. -1.
        -16    1    1    2    0    0  0.96766371799E+02  0.69874296262E+03 -0.30044128045E+03  0.76672708412E+03  0.00000000000E+00 0.  1.
         16    1    4    4    0    0 -0.11054392825E+03 -0.41950197379E+03  0.98785528430E+02  0.44492746231E+03  0.00000000000E+00 0. -1.
    9900018    1    1    2    0    0  0.20121719683E+02 -0.23022022150E+02 -0.56465035398E+02  0.11152746623E+03  0.91187600000E+02 0.  0.
<mgrwt>
<rscale>  0 0.27697491E+04</rscale>
<asrwt>0</asrwt>
<pdfrwt beam="1">  1        2 0.18516125E+00 0.27697491E+04</pdfrwt>
<pdfrwt beam="2">  1       -2 0.24515686E+00 0.27697491E+04</pdfrwt>
<totfact> 0.11317167E+00</totfact>
</mgrwt>
</event>
<event>
11    1  0.7899267E-012  0.2149674E+04  0.7818608E-02  0.8539672E-01
          2   -1    0    0  501    0  0.00000000000E+00  0.00000000000E+00  0.45529172665E+04  0.45529172665E+04  0.00000000000E+00 0. -1.
         -2   -1    0    0    0  501 -0.00000000000E+00 -0.00000000000E+00 -0.25374380487E+03  0.25374380487E+03  0.00000000000E+00 0.  1.
    9900016    2    1    2    0    0 -0.18718091987E+01 -0.28462290957E+02  0.43516483865E+04  0.47469348341E+04  0.18962418184E+04 0.  0.
         24    2    3    3    0    0 -0.33960625150E+03 -0.52598327839E+03  0.13137618385E+04  0.14575097587E+04  0.79835538139E+02 0.  0.
        -15    1    4    4    0    0 -0.62368061929E+02 -0.15266258529E+03  0.38543242700E+03  0.41923000355E+03  0.00000000000E+00 0.  1.
        -15    1    3    3    0    0 -0.79976156037E+02 -0.11696473425E+02  0.53979333145E+02  0.97194451651E+02  0.00000000000E+00 0.  1.
         15    1    3    3    0    0  0.64012040343E+03  0.18495310098E+03  0.15129285932E+04  0.16531529598E+04  0.00000000000E+00 0. -1.
         15    1    3    3    0    0 -0.20145886680E+03  0.27313709394E+03  0.12214072459E+04  0.12676849796E+04  0.00000000000E+00 0. -1.
        -16    1    1    2    0    0  0.18718091987E+01  0.28462290957E+02 -0.52474924890E+02  0.59726237270E+02  0.00000000000E+00 0.  1.
         16    1    4    4    0    0 -0.27723818957E+03 -0.37332069310E+03  0.92832941147E+03  0.10382797551E+04  0.00000000000E+00 0. -1.
    9900018    1    3    3    0    0 -0.20950938294E+02  0.51127265939E+02  0.24957137584E+03  0.27139268445E+03  0.91187600000E+02 0.  0.
<mgrwt>
<rscale>  0 0.21496740E+04</rscale>
<asrwt>0</asrwt>
<pdfrwt beam="1">  1        2 0.70044875E+00 0.21496740E+04</pdfrwt>
<pdfrwt beam="2">  1       -2 0.39037512E-01 0.21496740E+04</pdfrwt>
<totfact> 0.62938725E-01</totfact>
</mgrwt>
</event>
<event>
11    1  0.7899267E-012  0.2606003E+04  0.7818608E-02  0.8366165E-01
         -2   -1    0    0    0  501 -0.00000000000E+00  0.00000000000E+00  0.14053721968E+04  0.14053721968E+04  0.00000000000E+00 0.  1.
          2   -1    0    0  501    0  0.00000000000E+00 -0.00000000000E+00 -0.12080877113E+04  0.12080877113E+04  0.00000000000E+00 0. -1.
    9900016    2    1    2    0    0 -0.43915768845E+02  0.61322250015E+03  0.15946010294E+03  0.19975044605E+04  0.18938389889E+04 0.  0.
        -24    2    3    3    0    0  0.12787715245E+03  0.52835900306E+02  0.35697123788E+03  0.39104455739E+03  0.79644100286E+02 0.  0.
        -15    1    3    3    0    0  0.41650426579E+03 -0.10373924063E+03 -0.35447509944E+03  0.55667785082E+03  0.00000000000E+00 0.  1.
        -15    1    3    3    0    0 -0.38503312028E+03  0.58558668033E+03  0.83202768011E+02  0.70575134750E+03  0.00000000000E+00 0.  1.
         15    1    3    3    0    0 -0.22634589728E+03  0.54520268644E+02  0.21589311964E+02  0.23381835535E+03  0.00000000000E+00 0. -1.
         15    1    4    4    0    0  0.36545685054E+02 -0.20387792631E+02  0.78209211315E+02  0.88701352408E+02  0.00000000000E+00 0. -1.
        -16    1    4    4    0    0  0.91331467398E+02  0.73223692937E+02  0.27876202656E+03  0.30234320498E+03  0.00000000000E+00 0.  1.
         16    1    1    2    0    0  0.43915768845E+02 -0.61322250015E+03  0.37824382499E+02  0.61595544754E+03  0.00000000000E+00 0. -1.
    9900018    1    3    3    0    0  0.23081830475E+02  0.24018891494E+02  0.52171884524E+02  0.11021234947E+03  0.91187600000E+02 0.  0.
<mgrwt>
<rscale>  0 0.26060030E+04</rscale>
<asrwt>0</asrwt>
<pdfrwt beam="1">  1        2 0.18585965E+00 0.26060030E+04</pdfrwt>
<pdfrwt beam="2">  1       -2 0.21621111E+00 0.26060030E+04</pdfrwt>
<totfact> 0.17301004E+00</totfact>
</mgrwt>
</event>
<event>
11    1  0.7899267E-012  0.2271998E+04  0.7818608E-02  0.8489044E-01
         -2   -1    0    0    0  501 -0.00000000000E+00  0.00000000000E+00  0.64998130828E+03  0.64998130828E+03  0.00000000000E+00 0.  1.
          2   -1    0    0  501    0  0.00000000000E+00 -0.00000000000E+00 -0.19854324183E+04  0.19854324183E+04  0.00000000000E+00 0. -1.
    9900016    2    1    2    0    0 -0.27521262215E+03 -0.11275858767E+03 -0.11386458331E+04  0.21523222999E+04  0.18020878067E+04 0.  0.
         24    2    3    3    0    0 -0.58309602959E+03 -0.40477204087E+03 -0.53835386554E+03  0.89458694444E+03  0.81360505326E+02 0.  0.
        -15    1    4    4    0    0 -0.76670576282E+02 -0.86853704842E+02 -0.10197667246E+03  0.15434113204E+03  0.00000000000E+00 0.  1.
        -15    1    3    3    0    0  0.15262947725E+02 -0.19747403900E+03  0.12131227295E+02  0.19843417127E+03  0.00000000000E+00 0.  1.
         15    1    3    3    0    0  0.30449007302E+03  0.63216203101E+03 -0.41426907514E+03  0.81483857582E+03  0.00000000000E+00 0. -1.
         15    1    3    3    0    0 -0.11869613304E+02 -0.14267453882E+03 -0.19815411968E+03  0.24446260838E+03  0.00000000000E+00 0. -1.
        -16    1    1    2    0    0  0.29448815375E+03  0.12599136618E+03 -0.74685420666E+02  0.32889969460E+03  0.00000000000E+00 0.  1.
         16    1    4    4    0    0 -0.50642545331E+03 -0.31791833602E+03 -0.43637719308E+03  0.74024581240E+03  0.00000000000E+00 0. -1.
    9900018    1    1    2    0    0 -0.19275531603E+02 -0.13232778509E+02 -0.12211985625E+03  0.15419173204E+03  0.91187600000E+02 0.  0.
<mgrwt>
<rscale>  0 0.22719982E+04</rscale>
<asrwt>0</asrwt>
<pdfrwt beam="1">  1        2 0.30545114E+00 0.22719982E+04</pdfrwt>
<pdfrwt beam="2">  1       -2 0.99997125E-01 0.22719982E+04</pdfrwt>
<totfact> 0.51093897E+00</totfact>
</mgrwt>
</event>
<event>
11    1  0.7899267E-012  0.2558149E+04  0.7818608E-02  0.8382558E-01
          1   -1    0    0  501    0  0.00000000000E+00  0.00000000000E+00  0.13057490987E+04  0.13057490987E+04  0.00000000000E+00 0. -1.
         -1   -1    0    0    0  501 -0.00000000000E+00 -0.00000000000E+00 -0.12529447942E+04  0.12529447942E+04  0.00000000000E+00 0.  1.
    9900016    2    1    2    0    0 -0.22423168869E+03 -0.76950595339E+02 -0.48465132164E+03  0.19712759884E+04  0.18960065598E+04 0.  0.
        -24    2    3    3    0    0  0.39556921092E+03  0.41084113503E+03 -0.52732895749E+02  0.57832992636E+03  0.80120575184E+02 0.  0.
        -15    1    3    3    0    0 -0.12937741913E+03 -0.66454050460E+03 -0.37512797981E+03  0.77399844965E+03  0.00000000000E+00 0.  1.
        -15    1    3    3    0    0 -0.30021741294E+03  0.20411619836E+03 -0.11861604599E+00  0.36303433933E+03  0.00000000000E+00 0.  1.
         15    1    4    4    0    0  0.18994833071E+03  0.14172662062E+03 -0.30060727426E+02  0.23889422485E+03  0.00000000000E+00 0. -1.
         15    1    3    3    0    0 -0.12554828145E+03 -0.34746235867E+02  0.21851313682E+00  0.13026787643E+03  0.00000000000E+00 0. -1.
        -16    1    4    4    0    0  0.20562088020E+03  0.26911451441E+03 -0.22672168323E+02  0.33943570151E+03  0.00000000000E+00 0.  1.
         16    1    1    2    0    0  0.22423168869E+03  0.76950595339E+02  0.53745562612E+03  0.58741790438E+03  0.00000000000E+00 0. -1.
    9900018    1    3    3    0    0 -0.64657786087E+02  0.73788117341E+01 -0.56890343171E+02  0.12564539667E+03  0.91187600000E+02 0.  0.
<mgrwt>
<rscale>  0 0.25581490E+04</rscale>
<asrwt>0</asrwt>
<pdfrwt beam="1">  1        1 0.20088448E+00 0.25581490E+04</pdfrwt>
<pdfrwt beam="2">  1       -1 0.19276074E+00 0.25581490E+04</pdfrwt>
<totfact> 0.13385935E+00</totfact>
</mgrwt>
</event>
<event>
11    1  0.7899267E-012  0.2413246E+04  0.7818608E-02  0.8434561E-01
          1   -1    0    0  501    0  0.00000000000E+00  0.00000000000E+00  0.10052659391E+04  0.10052659391E+04  0.00000000000E+00 0. -1.
         -1   -1    0    0    0  501 -0.00000000000E+00 -0.00000000000E+00 -0.14483126098E+04  0.14483126098E+04  0.00000000000E+00 0.  1.
    9900016    2    1    2    0    0 -0.37638089730E+03 -0.22993697495E+03 -0.29052351317E+03  0.18855044027E+04  0.18100246818E+04 0.  0.
         24    2    3    3    0    0 -0.37610233206E+03 -0.27763464347E+03  0.40137740290E+03  0.62142671655E+03  0.80829357662E+02 0.  0.
        -15    1    4    4    0    0 -0.25025512820E+03 -0.13877956586E+03  0.26062135922E+03  0.38705411763E+03  0.00000000000E+00 0.  1.
        -15    1    3    3    0    0  0.14756707732E+03 -0.26729490708E+03 -0.30584704030E+03  0.43216318877E+03  0.00000000000E+00 0.  1.
         15    1    3    3    0    0 -0.59720713639E+02  0.26506332025E+03 -0.56463573244E+03  0.62660883949E+03  0.00000000000E+00 0. -1.
         15    1    3    3    0    0 -0.88124928929E+02  0.49929255342E+02  0.17858185668E+03  0.20530565792E+03  0.00000000000E+00 0. -1.
        -16    1    1    2    0    0  0.39141453897E+03  0.22843860198E+03 -0.14264027491E+03  0.47511660066E+03  0.00000000000E+00 0.  1.
         16    1    4    4    0    0 -0.12584720385E+03 -0.13885507761E+03  0.14075604367E+03  0.23437259892E+03  0.00000000000E+00 0. -1.
    9900018    1    1    2    0    0 -0.15033641675E+02  0.14983729732E+01 -0.98828825572E+01  0.92957545498E+02  0.91187600000E+02 0.  0.
<mgrwt>
<rscale>  0 0.24132462E+04</rscale>
<asrwt>0</asrwt>
<pdfrwt beam="1">  1        1 0.15465630E+00 0.24132462E+04</pdfrwt>
<pdfrwt beam="2">  1       -1 0.22281732E+00 0.24132462E+04</pdfrwt>
<totfact> 0.14136320E+00</totfact>
</mgrwt>
</event>
<event>
11    1  0.7899267E-012  0.2672192E+04  0.7818608E-02  0.8344085E-01
         -2   -1    0    0    0  501 -0.00000000000E+00  0.00000000000E+00  0.98709049471E+03  0.98709049471E+03  0.00000000000E+00 0.  1.
          2   -1    0    0  501    0  0.00000000000E+00 -0.00000000000E+00 -0.18084987767E+04  0.18084987767E+04  0.00000000000E+00 0. -1.
    9900016    2    1    2    0    0  0.31058070279E+03 -0.46515870596E+03 -0.28612656921E+03  0.19089689741E+04  0.18026261775E+04 0.  0.
        -24    2    3    3    0    0  0.29700833983E+03  0.28589901253E+03  0.41212578439E+03  0.58847237763E+03  0.80621819446E+02 0.  0.
        -15    1    3    3    0    0  0.21483360171E+03 -0.47669087824E+03 -0.79722288153E+03  0.95338973807E+03  0.00000000000E+00 0.  1.
        -15    1    3    3    0    0 -0.79250470454E+02 -0.18753709517E+03  0.62581571682E+02  0.21299589725E+03  0.00000000000E+00 0. -1.
         15    1    3    3    0    0 -0.12201076829E+03 -0.86829745085E+02  0.36388956244E+02  0.15411096115E+03  0.00000000000E+00 0.  1.
         15    1    4    4    0    0  0.13666109487E+03  0.16089556810E+03  0.16176082422E+03  0.26595150486E+03  0.00000000000E+00 0. -1.
        -16    1    4    4    0    0  0.16034724495E+03  0.12500344443E+03  0.25036496018E+03  0.32252087277E+03  0.00000000000E+00 0.  1.
         16    1    1    2    0    0 -0.35229003326E+03  0.48773703072E+03 -0.48154184124E+03  0.77063494829E+03  0.00000000000E+00 0. -1.
    9900018    1    1    2    0    0  0.41709330464E+02 -0.22578324764E+02 -0.53739871525E+02  0.11598534900E+03  0.91187600000E+02 0.  0.
<mgrwt>
<rscale>  0 0.26721916E+04</rscale>
<asrwt>0</asrwt>
<pdfrwt beam="1">  1        2 0.27823058E+00 0.26721916E+04</pdfrwt>
<pdfrwt beam="2">  1       -2 0.15186008E+00 0.26721916E+04</pdfrwt>
<totfact> 0.21765415E+00</totfact>
</mgrwt>
</event>
<event>
11    1  0.7899267E-012  0.2335101E+04  0.7818608E-02  0.8464208E-01
          1   -1    0    0  501    0  0.00000000000E+00  0.00000000000E+00  0.65909122612E+03  0.65909122612E+03  0.00000000000E+00 0. -1.
         -1   -1    0    0    0  501 -0.00000000000E+00 -0.00000000000E+00 -0.20682641379E+04  0.20682641379E+04  0.00000000000E+00 0.  1.
    9900016    2    1    2    0    0 -0.13503789466E+03 -0.28871088144E+03 -0.11557090372E+04  0.21610672675E+04  0.17980431446E+04 0.  0.
        -24    2    3    3    0    0  0.41488151445E+03 -0.20354233011E+03 -0.10881074176E+04  0.11848100458E+04  0.78999627639E+02 0.  0.
        -15    1    3    3    0    0 -0.77575571019E+02 -0.11953951449E+03 -0.30108606331E+03  0.33310731343E+03  0.00000000000E+00 0.  1.
        -15    1    3    3    0    0 -0.25292328907E+03 -0.75167640753E+02 -0.49739065007E+02  0.26850389003E+03  0.00000000000E+00 0.  1.
         15    1    4    4    0    0  0.32279258722E+03 -0.16950870161E+03 -0.77113468632E+03  0.85298121827E+03  0.00000000000E+00 0. -1.
         15    1    3    3    0    0 -0.21942054901E+03  0.10953860391E+03  0.28322350870E+03  0.37464601820E+03  0.00000000000E+00 0. -1.
        -16    1    4    4    0    0  0.92088927233E+02 -0.34033628497E+02 -0.31697273131E+03  0.33182882753E+03  0.00000000000E+00 0.  1.
         16    1    1    2    0    0  0.15453674162E+03  0.35244229945E+03 -0.14974007616E+03  0.41293978903E+03  0.00000000000E+00 0. -1.
    9900018    1    1    2    0    0 -0.19498846967E+02 -0.63731418016E+02 -0.10372379836E+03  0.15334830751E+03  0.91187600000E+02 0.  0.
<mgrwt>
<rscale>  0 0.23351015E+04</rscale>
<asrwt>0</asrwt>
<pdfrwt beam="1">  1        1 0.10139865E+00 0.23351015E+04</pdfrwt>
<pdfrwt beam="2">  1       -1 0.31819448E+00 0.23351015E+04</pdfrwt>
<totfact> 0.67634913E-01</totfact>
</mgrwt>
</event>
<event>
11    1  0.7899267E-012  0.2696679E+04  0.7818608E-02  0.8336083E-01
          2   -1    0    0  501    0  0.00000000000E+00  0.00000000000E+00  0.21325258961E+04  0.21325258961E+04  0.00000000000E+00 0. -1.
         -2   -1    0    0    0  501 -0.00000000000E+00 -0.00000000000E+00 -0.85251954454E+03  0.85251954454E+03  0.00000000000E+00 0.  1.
    9900016    2    1    2    0    0  0.46683884564E+03 -0.34904727306E+03  0.57484461074E+03  0.19789698238E+04  0.18016944053E+04 0.  0.
        -24    2    3    3    0    0  0.57183785027E+03 -0.31471544933E+03  0.30035607042E+03  0.72283970521E+03  0.78988159518E+02 0.  0.
        -15    1    3    3    0    0  0.29074046996E+03 -0.26551325108E+03  0.37740003641E+03  0.54539719000E+03  0.00000000000E+00 0.  1.
        -15    1    3    3    0    0 -0.61058618109E+01  0.10894366183E+03 -0.25311043024E+03  0.27562817871E+03  0.00000000000E+00 0.  1.
         15    1    4    4    0    0  0.67383979156E+02 -0.66763495975E+02  0.33357693914E+02  0.10055198051E+03  0.00000000000E+00 0. -1.
         15    1    3    3    0    0 -0.38963361278E+03  0.12223776551E+03  0.15019893415E+03  0.43510474985E+03  0.00000000000E+00 0. -1.
        -16    1    4    4    0    0  0.50445387111E+03 -0.24795195335E+03  0.26699837650E+03  0.62228772470E+03  0.00000000000E+00 0.  1.
         16    1    1    2    0    0 -0.47496880515E+03  0.37609593215E+03  0.67256996604E+03  0.90520377555E+03  0.00000000000E+00 0. -1.
    9900018    1    1    2    0    0  0.81299595120E+01 -0.27048659082E+02  0.32591774811E+02  0.10087184136E+03  0.91187600000E+02 0.  0.
<mgrwt>
<rscale>  0 0.26966794E+04</rscale>
<asrwt>0</asrwt>
<pdfrwt beam="1">  1        2 0.32808091E+00 0.26966794E+04</pdfrwt>
<pdfrwt beam="2">  1       -2 0.13115685E+00 0.26966794E+04</pdfrwt>
<totfact> 0.20996423E+00</totfact>
</mgrwt>
</event>
<event>
11    1  0.7899267E-012  0.2667859E+04  0.7818608E-02  0.8345509E-01
          2   -1    0    0  501    0  0.00000000000E+00  0.00000000000E+00  0.22350684061E+04  0.22350684061E+04  0.00000000000E+00 0. -1.
         -2   -1    0    0    0  501 -0.00000000000E+00 -0.00000000000E+00 -0.79611366149E+03  0.79611366149E+03  0.00000000000E+00 0.  1.
    9900016    2    1    2    0    0 -0.59746212006E+03 -0.18550281719E+03  0.84830889806E+03  0.21708130792E+04  0.18977431750E+04 0.  0.
        -24    2    3    3    0    0 -0.22514044582E+03 -0.32338920610E+03 -0.28628209339E+03  0.49354812778E+03  0.79771664571E+02 0.  0.
        -15    1    3    3    0    0 -0.31966620502E+03 -0.54370901571E+01  0.10709574026E+04  0.11176608621E+04  0.00000000000E+00 0.  1.
        -15    1    3    3    0    0  0.93496389571E+02 -0.83303636066E+02 -0.22478024657E+02  0.12722551724E+03  0.00000000000E+00 0.  1.
         15    1    3    3    0    0 -0.16577423750E+03  0.27294308423E+03  0.58720444083E+02  0.32469541974E+03  0.00000000000E+00 0. -1.
         15    1    4    4    0    0 -0.15391793314E+03 -0.23224755914E+03 -0.24410769912E+03  0.37042978773E+03  0.00000000000E+00 0. -1.
        -16    1    4    4    0    0 -0.71222512684E+02 -0.91141646958E+02 -0.42174394270E+02  0.12311834004E+03  0.00000000000E+00 0.  1.
         16    1    1    2    0    0  0.59746212006E+03  0.18550281719E+03  0.59064584652E+03  0.86036898835E+03  0.00000000000E+00 0. -1.
    9900018    1    3    3    0    0  0.19622378700E+02 -0.46315969097E+02  0.27391169448E+02  0.10768315233E+03  0.91187600000E+02 0.  0.
<mgrwt>
<rscale>  0 0.26678594E+04</rscale>
<asrwt>0</asrwt>
<pdfrwt beam="1">  1        2 0.34385667E+00 0.26678594E+04</pdfrwt>
<pdfrwt beam="2">  1       -2 0.12247903E+00 0.26678594E+04</pdfrwt>
<totfact> 0.21897624E+00</totfact>
</mgrwt>
</event>
<event>
11    1  0.7899267E-012  0.3365330E+04  0.7818608E-02  0.8146468E-01
         -2   -1    0    0    0  501 -0.00000000000E+00  0.00000000000E+00  0.98472048956E+03  0.98472048956E+03  0.00000000000E+00 0.  1.
          2   -1    0    0  501    0  0.00000000000E+00 -0.00000000000E+00 -0.28752937923E+04  0.28752937923E+04  0.00000000000E+00 0. -1.
    9900016    2    1    2    0    0  0.22634976474E+03 -0.79137937035E+03 -0.38546940012E+03  0.20146004978E+04  0.17979190703E+04 0.  0.
        -24    2    3    3    0    0  0.63436645484E+03 -0.27500432869E+03  0.42982786937E+02  0.69739005742E+03  0.80356657372E+02 0.  0.
        -15    1    3    3    0    0  0.21355563107E+02 -0.61813688268E+03 -0.10920681082E+02  0.61860207491E+03  0.00000000000E+00 0.  1.
        -15    1    3    3    0    0 -0.22771183098E+03  0.10725519703E+03 -0.42808030301E+03  0.49659752424E+03  0.00000000000E+00 0.  1.
         15    1    4    4    0    0  0.53921523737E+03 -0.20229337677E+03  0.26652185645E+02  0.57652928936E+03  0.00000000000E+00 0. -1.
         15    1    3    3    0    0 -0.20166042223E+03 -0.54933560092E+01  0.10548797039E+02  0.20201084123E+03  0.00000000000E+00 0. -1.
        -16    1    4    4    0    0  0.95151217476E+02 -0.72710951919E+02  0.16330601292E+02  0.12086076805E+03  0.00000000000E+00 0.  1.
         16    1    1    2    0    0 -0.29647909238E+03  0.82831670943E+03 -0.14804055592E+04  0.17220943769E+04  0.00000000000E+00 0. -1.
    9900018    1    1    2    0    0  0.70129327639E+02 -0.36937339077E+02 -0.24698343422E+02  0.12331940713E+03  0.91187600000E+02 0.  0.
<mgrwt>
<rscale>  0 0.33653295E+04</rscale>
<asrwt>0</asrwt>
<pdfrwt beam="1">  1        2 0.44235288E+00 0.33653295E+04</pdfrwt>
<pdfrwt beam="2">  1       -2 0.15149546E+00 0.33653295E+04</pdfrwt>
<totfact> 0.50412746E-01</totfact>
</mgrwt>
</event>
<event>
11    1  0.7899267E-012  0.2084147E+04  0.7818608E-02  0.8568259E-01
          1   -1    0    0  501    0  0.00000000000E+00  0.00000000000E+00  0.23940689547E+04  0.23940689547E+04  0.00000000000E+00 0. -1.
         -1   -1    0    0    0  501 -0.00000000000E+00 -0.00000000000E+00 -0.45358639211E+03  0.45358639211E+03  0.00000000000E+00 0.  1.
    9900016    2    1    2    0    0 -0.12164000108E+03  0.58692876849E+02  0.19284361699E+04  0.27120594058E+04  0.19021458975E+04 0.  0.
         24    2    3    3    0    0  0.87671749554E+01  0.19636452275E+03  0.11913553026E+03  0.24270715526E+03  0.77958960333E+02 0.  0.
        -15    1    3    3    0    0 -0.37907030798E+03 -0.52600351459E+03  0.20960510316E+03  0.68140171340E+03  0.00000000000E+00 0.  1.
        -15    1    4    4    0    0  0.19344672622E+02  0.26599128154E+02  0.48339718818E+02  0.58467584119E+02  0.00000000000E+00 0.  1.
         15    1    3    3    0    0  0.14153080571E+03  0.73388629956E+02  0.10386631013E+03  0.19027630003E+03  0.00000000000E+00 0. -1.
         15    1    3    3    0    0  0.10098541171E+03  0.27537959724E+03  0.14640410234E+04  0.14931336491E+04  0.00000000000E+00 0. -1.
        -16    1    1    2    0    0  0.12164000108E+03 -0.58692876849E+02  0.12046392689E+02  0.13559594107E+03  0.00000000000E+00 0.  1.
         16    1    4    4    0    0 -0.10577497666E+02  0.16976539459E+03  0.70795811443E+02  0.18423957115E+03  0.00000000000E+00 0. -1.
    9900018    1    3    3    0    0  0.61469145202E+01  0.39563641500E+02  0.31788202964E+02  0.10454058795E+03  0.91187600000E+02 0.  0.
<mgrwt>
<rscale>  0 0.20841469E+04</rscale>
<asrwt>0</asrwt>
<pdfrwt beam="1">  1        1 0.36831829E+00 0.20841469E+04</pdfrwt>
<pdfrwt beam="2">  1       -1 0.69782523E-01 0.20841469E+04</pdfrwt>
<totfact> 0.30672465E+00</totfact>
</mgrwt>
</event>
<event>
11    1  0.7899267E-012  0.2361341E+04  0.7818608E-02  0.8454120E-01
         -1   -1    0    0    0  501 -0.00000000000E+00  0.00000000000E+00  0.66620585057E+03  0.66620585057E+03  0.00000000000E+00 0.  1.
          1   -1    0    0  501    0  0.00000000000E+00 -0.00000000000E+00 -0.20924207984E+04  0.20924207984E+04  0.00000000000E+00 0. -1.
    9900016    2    1    2    0    0 -0.24318107372E+03  0.13523167715E+03 -0.14209058123E+04  0.23108584405E+04  0.18010188126E+04 0.  0.
         24    2    3    3    0    0 -0.43549926189E+03  0.26325398712E+03 -0.10200190076E+04  0.11427219760E+04  0.80077897432E+02 0.  0.
        -15    1    4    4    0    0 -0.18967066476E+03  0.69508942110E+02 -0.38716690060E+03  0.43669745022E+03  0.00000000000E+00 0.  1.
        -15    1    3    3    0    0  0.58925281679E+02 -0.42271782630E+03  0.42311833087E+02  0.42889723794E+03  0.00000000000E+00 0.  1.
         15    1    3    3    0    0 -0.18769045014E+03  0.14091144178E+03 -0.15585743322E+03  0.28173618686E+03  0.00000000000E+00 0. -1.
         15    1    3    3    0    0  0.32108335662E+03  0.15378407455E+03 -0.28734120461E+03  0.45750303972E+03  0.00000000000E+00 0. -1.
        -16    1    1    2    0    0  0.26448586576E+03 -0.13699687576E+03  0.92945418423E+02  0.31202526815E+03  0.00000000000E+00 0.  1.
         16    1    4    4    0    0 -0.24582859713E+03  0.19374504501E+03 -0.63285210699E+03  0.70602452575E+03  0.00000000000E+00 0. -1.
    9900018    1    1    2    0    0 -0.21304792041E+02  0.17651986063E+01 -0.98254553867E+02  0.13574294029E+03  0.91187600000E+02 0.  0.
<mgrwt>
<rscale>  0 0.23613411E+04</rscale>
<asrwt>0</asrwt>
<pdfrwt beam="1">  1        1 0.32191088E+00 0.23613411E+04</pdfrwt>
<pdfrwt beam="2">  1       -1 0.10249321E+00 0.23613411E+04</pdfrwt>
<totfact> 0.20876229E+00</totfact>
</mgrwt>
</event>
<event>
11    1  0.7899267E-012  0.2410195E+04  0.7818608E-02  0.8435696E-01
         -2   -1    0    0    0  501 -0.00000000000E+00  0.00000000000E+00  0.11233854080E+04  0.11233854080E+04  0.00000000000E+00 0.  1.
          2   -1    0    0  501    0  0.00000000000E+00 -0.00000000000E+00 -0.12927533167E+04  0.12927533167E+04  0.00000000000E+00 0. -1.
    9900016    2    1    2    0    0 -0.53030780244E+02  0.33527152518E+03 -0.36514767973E+03  0.18662633390E+04  0.17984400916E+04 0.  0.
         24    2    3    3    0    0  0.38019588519E+03  0.63714478830E+03 -0.29612837074E+03  0.80238218581E+03  0.74985117040E+02 0.  0.
        -15    1    4    4    0    0  0.86789440077E+02  0.96756396571E+02 -0.66495484141E+02  0.14599950889E+03  0.00000000000E+00 0.  1.
        -15    1    3    3    0    0  0.10589461742E+03 -0.97590957104E+01 -0.20899901477E+02  0.10837765374E+03  0.00000000000E+00 0.  1.
         15    1    3    3    0    0 -0.95807726176E+02  0.15123237791E+03  0.21133946452E+03  0.27697422586E+03  0.00000000000E+00 0. -1.
         15    1    3    3    0    0 -0.44331355668E+03 -0.44334654532E+03 -0.25945887203E+03  0.67852927355E+03  0.00000000000E+00 0. -1.
        -16    1    1    2    0    0  0.10274070295E+03 -0.35682748700E+03  0.23194081146E+03  0.43781051557E+03  0.00000000000E+00 0.  1.
         16    1    4    4    0    0  0.29340644511E+03  0.54038839172E+03 -0.22963288660E+03  0.65638267691E+03  0.00000000000E+00 0. -1.
    9900018    1    1    2    0    0 -0.49709922708E+02  0.21555961823E+02 -0.36161040420E+02  0.11206487025E+03  0.91187600000E+02 0.  0.
<mgrwt>
<rscale>  0 0.24101952E+04</rscale>
<asrwt>0</asrwt>
<pdfrwt beam="1">  1        2 0.19888513E+00 0.24101952E+04</pdfrwt>
<pdfrwt beam="2">  1       -2 0.17282852E+00 0.24101952E+04</pdfrwt>
<totfact> 0.30527887E+00</totfact>
</mgrwt>
</event>
<event>
11    1  0.7899267E-012  0.2391132E+04  0.7818608E-02  0.8442831E-01
         -1   -1    0    0    0  501 -0.00000000000E+00  0.00000000000E+00  0.85301094974E+03  0.85301094974E+03  0.00000000000E+00 0.  1.
          1   -1    0    0  501    0  0.00000000000E+00 -0.00000000000E+00 -0.16756850493E+04  0.16756850493E+04  0.00000000000E+00 0. -1.
    9900016    2    1    2    0    0 -0.22962282437E+03 -0.10661582719E+03 -0.10676516113E+04  0.21764069737E+04  0.18795674439E+04 0.  0.
         24    2    3    3    0    0 -0.79832943066E+03 -0.27491724550E+03 -0.18223628977E+03  0.86758124126E+03  0.81103471897E+02 0.  0.
        -15    1    4    4    0    0 -0.49973813060E+03 -0.17638424647E+03 -0.15406562639E+03  0.55189294144E+03  0.00000000000E+00 0.  1.
        -15    1    3    3    0    0  0.20514629873E+03 -0.10580075239E+03 -0.53945113167E+03  0.58675917254E+03  0.00000000000E+00 0.  1.
         15    1    3    3    0    0  0.25696112173E+03  0.33321801546E+03 -0.28451053956E+03  0.50794636629E+03  0.00000000000E+00 0. -1.
         15    1    3    3    0    0  0.10443578971E+03 -0.39395199161E+02 -0.29098183728E+02  0.11534955651E+03  0.00000000000E+00 0. -1.
        -16    1    1    2    0    0  0.22962282437E+03  0.10661582719E+03  0.24497751177E+03  0.35228902531E+03  0.00000000000E+00 0.  1.
         16    1    4    4    0    0 -0.29859130006E+03 -0.98532999027E+02 -0.28170663376E+02  0.31568829982E+03  0.00000000000E+00 0. -1.
    9900018    1    3    3    0    0  0.21633961045E+01 -0.19720645605E+02 -0.32355466614E+02  0.98770637131E+02  0.91187600000E+02 0.  0.
<mgrwt>
<rscale>  0 0.23911317E+04</rscale>
<asrwt>0</asrwt>
<pdfrwt beam="1">  1        1 0.25779770E+00 0.23911317E+04</pdfrwt>
<pdfrwt beam="2">  1       -1 0.13123246E+00 0.23911317E+04</pdfrwt>
<totfact> 0.21988495E+00</totfact>
</mgrwt>
</event>
<event>
11    1  0.7899267E-012  0.2127056E+04  0.7818608E-02  0.8549418E-01
          2   -1    0    0  501    0  0.00000000000E+00  0.00000000000E+00  0.21187247719E+04  0.21187247719E+04  0.00000000000E+00 0. -1.
         -2   -1    0    0    0  501 -0.00000000000E+00 -0.00000000000E+00 -0.53385521719E+03  0.53385521719E+03  0.00000000000E+00 0.  1.
    9900016    2    1    2    0    0  0.11084127675E+03  0.13833891410E+03  0.15884755880E+04  0.24752767255E+04  0.18900573352E+04 0.  0.
        -24    2    3    3    0    0 -0.10733895028E+03 -0.57988746655E+03  0.12853447326E+03  0.60877550403E+03  0.79343426828E+02 0.  0.
        -15    1    3    3    0    0  0.30894520537E+03  0.16402758796E+03  0.26090663283E+03  0.43637651242E+03  0.00000000000E+00 0.  1.
        -15    1    3    3    0    0  0.31580779289E+02  0.37654149441E+03  0.89728681894E+03  0.97360386096E+03  0.00000000000E+00 0.  1.
         15    1    4    4    0    0 -0.76701665657E+02 -0.25112581425E+03  0.30502825205E+02  0.26434398507E+03  0.00000000000E+00 0. -1.
         15    1    3    3    0    0 -0.16385609345E+03  0.17750803755E+03  0.22730505437E+03  0.33170093533E+03  0.00000000000E+00 0. -1.
        -16    1    4    4    0    0 -0.30637284619E+02 -0.32876165230E+03  0.98031648051E+02  0.34443151896E+03  0.00000000000E+00 0.  1.
         16    1    1    2    0    0 -0.11084127675E+03 -0.13833891410E+03 -0.36060333095E+01  0.17730326354E+03  0.00000000000E+00 0. -1.
    9900018    1    3    3    0    0  0.41510335822E+02  0.14926072784E+00  0.74442608584E+02  0.12481991278E+03  0.91187600000E+02 0.  0.
<mgrwt>
<rscale>  0 0.21270564E+04</rscale>
<asrwt>0</asrwt>
<pdfrwt beam="1">  1        2 0.32595765E+00 0.21270564E+04</pdfrwt>
<pdfrwt beam="2">  1       -2 0.82131573E-01 0.21270564E+04</pdfrwt>
<totfact> 0.68695964E+00</totfact>
</mgrwt>
</event>
<event>
11    1  0.7899267E-012  0.2336367E+04  0.7818608E-02  0.8463719E-01
          2   -1    0    0  501    0  0.00000000000E+00  0.00000000000E+00  0.25115428500E+04  0.25115428500E+04  0.00000000000E+00 0. -1.
         -2   -1    0    0    0  501 -0.00000000000E+00 -0.00000000000E+00 -0.54335235080E+03  0.54335235080E+03  0.00000000000E+00 0.  1.
    9900016    2    1    2    0    0  0.32726812551E+03  0.18302399445E+03  0.15462726839E+04  0.24032013423E+04  0.18010594855E+04 0.  0.
        -24    2    3    3    0    0 -0.23159486139E+03  0.11983933379E+03 -0.88727277440E+02  0.28726798746E+03  0.81564214681E+02 0.  0.
        -15    1    3    3    0    0  0.60475791177E+03 -0.32425437058E+03  0.75241956598E+03  0.10183360113E+04  0.00000000000E+00 0.  1.
        -15    1    3    3    0    0  0.21242136639E+02 -0.12429098162E+03  0.25956388915E+03  0.28857042300E+03  0.00000000000E+00 0.  1.
         15    1    4    4    0    0 -0.91783766748E+02  0.90504161544E+02 -0.27267514411E+02  0.13175272459E+03  0.00000000000E+00 0. -1.
         15    1    3    3    0    0 -0.67137061509E+02  0.51173001287E+03  0.62301650626E+03  0.80902692055E+03  0.00000000000E+00 0. -1.
        -16    1    4    4    0    0 -0.13981109464E+03  0.29335172243E+02 -0.61459763029E+02  0.15551526287E+03  0.00000000000E+00 0.  1.
         16    1    1    2    0    0 -0.34327291891E+03 -0.20593022180E+03  0.35654175105E+03  0.53606489658E+03  0.00000000000E+00 0. -1.
    9900018    1    1    2    0    0  0.16004793401E+02  0.22906227348E+02  0.65376064231E+02  0.11562896190E+03  0.91187600000E+02 0.  0.
<mgrwt>
<rscale>  0 0.23363670E+04</rscale>
<asrwt>0</asrwt>
<pdfrwt beam="1">  1        2 0.38639120E+00 0.23363670E+04</pdfrwt>
<pdfrwt beam="2">  1       -2 0.83592670E-01 0.23363670E+04</pdfrwt>
<totfact> 0.38777494E+00</totfact>
</mgrwt>
</event>
<event>
11    1  0.7899267E-012  0.2486190E+04  0.7818608E-02  0.8407922E-01
          1   -1    0    0  501    0  0.00000000000E+00  0.00000000000E+00  0.20827509664E+04  0.20827509664E+04  0.00000000000E+00 0. -1.
         -1   -1    0    0    0  501 -0.00000000000E+00 -0.00000000000E+00 -0.74194414551E+03  0.74194414551E+03  0.00000000000E+00 0.  1.
    9900016    2    1    2    0    0 -0.39360558816E+03  0.19520266047E+03  0.74296852523E+03  0.20827786305E+04  0.18955039320E+04 0.  0.
        -24    2    3    3    0    0 -0.62013207901E+02  0.14579977372E+02 -0.32199298900E+03  0.33780569211E+03  0.79843515494E+02 0.  0.
        -15    1    3    3    0    0 -0.17442960091E+03  0.15798528673E+03  0.10009915036E+04  0.10282845068E+04  0.00000000000E+00 0.  1.
        -15    1    3    3    0    0 -0.48876549297E+02 -0.27438252348E+03  0.14027314550E+02  0.27905456781E+03  0.00000000000E+00 0.  1.
         15    1    4    4    0    0 -0.45472895168E+02  0.33738951863E+02 -0.10458310451E+03  0.11892740145E+03  0.00000000000E+00 0. -1.
         15    1    3    3    0    0 -0.65472469426E+02  0.32362242785E+03  0.29879317687E+02  0.33152811899E+03  0.00000000000E+00 0. -1.
        -16    1    4    4    0    0 -0.16540312732E+02 -0.19158974491E+02 -0.21740988449E+03  0.21887829066E+03  0.00000000000E+00 0.  1.
         16    1    1    2    0    0  0.39360558816E+03 -0.19520266047E+03  0.59783829569E+03  0.74191648147E+03  0.00000000000E+00 0. -1.
    9900018    1    3    3    0    0 -0.42813760626E+02 -0.26602508005E+02  0.20063378342E+02  0.10610574478E+03  0.91187600000E+02 0.  0.
<mgrwt>
<rscale>  0 0.24861898E+04</rscale>
<asrwt>0</asrwt>
<pdfrwt beam="1">  1        1 0.32042322E+00 0.24861898E+04</pdfrwt>
<pdfrwt beam="2">  1       -1 0.11414525E+00 0.24861898E+04</pdfrwt>
<totfact> 0.16270255E+00</totfact>
</mgrwt>
</event>
<event>
11    1  0.7899267E-012  0.2841905E+04  0.7818608E-02  0.8290375E-01
         -1   -1    0    0    0  501 -0.00000000000E+00  0.00000000000E+00  0.14377659736E+04  0.14377659736E+04  0.00000000000E+00 0.  1.
          1   -1    0    0  501    0  0.00000000000E+00 -0.00000000000E+00 -0.14043357647E+04  0.14043357647E+04  0.00000000000E+00 0. -1.
    9900016    2    1    2    0    0  0.42263884840E+03  0.20695437244E+03  0.63926093892E+03  0.19584559126E+04  0.17903746270E+04 0.  0.
        -24    2    3    3    0    0  0.58436016713E+03  0.26694450159E+03  0.31247418846E+03  0.71876229269E+03  0.79012297080E+02 0.  0.
        -15    1    3    3    0    0 -0.60251359149E+03 -0.78271129012E+01  0.32571731844E+03  0.68496398676E+03  0.00000000000E+00 0.  1.
        -15    1    3    3    0    0  0.25572753661E+03 -0.16744502915E+03  0.90922849265E+02  0.31890653064E+03  0.00000000000E+00 0.  1.
         15    1    4    4    0    0  0.23410806760E+02  0.25715567329E+02  0.51136274459E+01  0.35149757636E+02  0.00000000000E+00 0. -1.
         15    1    3    3    0    0  0.18506473616E+03  0.11528201291E+03 -0.89853417239E+02  0.23582310247E+03  0.00000000000E+00 0. -1.
        -16    1    4    4    0    0  0.56094936036E+03  0.24122893426E+03  0.30736056101E+03  0.68361253505E+03  0.00000000000E+00 0.  1.
         16    1    1    2    0    0 -0.41891826575E+03 -0.16559721561E+03 -0.63567326325E+03  0.77909912644E+03  0.00000000000E+00 0. -1.
    9900018    1    1    2    0    0 -0.37205826498E+01 -0.41357156839E+02  0.29842533160E+02  0.10454669931E+03  0.91187600000E+02 0.  0.
<mgrwt>
<rscale>  0 0.28419051E+04</rscale>
<asrwt>0</asrwt>
<pdfrwt beam="1">  1        1 0.21605166E+00 0.28419051E+04</pdfrwt>
<pdfrwt beam="2">  1       -1 0.22119476E+00 0.28419051E+04</pdfrwt>
<totfact> 0.71104668E-01</totfact>
</mgrwt>
</event>
<event>
11    1  0.7899267E-012  0.2699924E+04  0.7818608E-02  0.8335030E-01
         -2   -1    0    0    0  501 -0.00000000000E+00  0.00000000000E+00  0.59606373704E+03  0.59606373704E+03  0.00000000000E+00 0.  1.
          2   -1    0    0  501    0  0.00000000000E+00 -0.00000000000E+00 -0.30573862270E+04  0.30573862270E+04  0.00000000000E+00 0. -1.
    9900016    2    1    2    0    0  0.10704314228E+03  0.62840441170E+03 -0.21765489343E+04  0.29552764061E+04  0.18947144994E+04 0.  0.
         24    2    3    3    0    0  0.50755540324E+03  0.79802851262E+03 -0.10671047605E+04  0.14281499653E+04  0.80235647767E+02 0.  0.
        -15    1    4    4    0    0  0.18993864034E+03  0.36637007376E+03 -0.44000952806E+03  0.60325127669E+03  0.00000000000E+00 0.  1.
        -15    1    3    3    0    0  0.16097379433E+03  0.36187875871E+02 -0.27437499935E+02  0.16725711113E+03  0.00000000000E+00 0.  1.
         15    1    3    3    0    0 -0.52575174656E+03 -0.23631845438E+03 -0.60525732389E+03  0.83582159520E+03  0.00000000000E+00 0. -1.
         15    1    3    3    0    0 -0.58315558274E+02  0.46012747189E+02 -0.38402829854E+03  0.39114653433E+03  0.00000000000E+00 0. -1.
        -16    1    1    2    0    0 -0.10704314228E+03 -0.62840441170E+03 -0.28477355560E+03  0.69817355788E+03  0.00000000000E+00 0.  1.
         16    1    4    4    0    0  0.31761676289E+03  0.43165843886E+03 -0.62709523249E+03  0.82489868864E+03  0.00000000000E+00 0. -1.
    9900018    1    3    3    0    0  0.22581249546E+02 -0.15506269605E+02 -0.92721051431E+02  0.13290120015E+03  0.91187600000E+02 0.  0.
<mgrwt>
<rscale>  0 0.26999237E+04</rscale>
<asrwt>0</asrwt>
<pdfrwt beam="1">  1        2 0.47036710E+00 0.26999237E+04</pdfrwt>
<pdfrwt beam="2">  1       -2 0.91702115E-01 0.26999237E+04</pdfrwt>
<totfact> 0.14217943E+00</totfact>
</mgrwt>
</event>
