<event>
12    1  0.2719978E-012  0.5431168E+04  0.7818608E-02  0.8421541E-01
         -2   -1    0    0    0  501 -0.00000000000E+00  0.00000000000E+00  0.31621493088E+04  0.31621493088E+04  0.00000000000E+00 0.  1.
          2   -1    0    0  501    0  0.00000000000E+00 -0.00000000000E+00 -0.33118325267E+04  0.33118325267E+04  0.00000000000E+00 0. -1.
        -24    2    1    2    0    0 -0.12843907965E+03  0.16713387233E+03 -0.95716871690E+03  0.98311479876E+03  0.76892304291E+02 0.  0.
    9900016    2    1    2    0    0 -0.62472548326E+03 -0.19376075301E+04 -0.66826860427E+03  0.30660610641E+04  0.21930669509E+04 0.  0.
         23    2    4    4    0    0  0.33229291380E+01  0.34974055060E+03 -0.46638542662E+03  0.58964123152E+03  0.88498142113E+02 0.  0.
        -15    1    5    5    0    0  0.10404691485E+02  0.25472997177E+03 -0.26987105816E+03  0.37124924802E+03  0.00000000000E+00 0. -1.
        -15    1    1    2    0    0  0.75316456291E+03  0.17704736578E+04  0.14757541032E+04  0.24248059726E+04  0.00000000000E+00 0.  1.
         15    1    5    5    0    0 -0.70817623472E+01  0.95010578827E+02 -0.19651436846E+03  0.21839198350E+03  0.00000000000E+00 0.  1.
         15    1    3    3    0    0 -0.12428036698E+03  0.11696623921E+03 -0.80299146586E+03  0.82092752724E+03  0.00000000000E+00 0. -1.
        -16    1    3    3    0    0 -0.41587126687E+01  0.50167633129E+02 -0.15417725104E+03  0.16218727152E+03  0.00000000000E+00 0.  1.
         16    1    4    4    0    0 -0.36715004476E+03 -0.99563531559E+03  0.23162082503E+03  0.10861570069E+04  0.00000000000E+00 0. -1.
    9900018    1    4    4    0    0 -0.26089836763E+03 -0.12917127651E+04 -0.43350400268E+03  0.13902628257E+04  0.91187600000E+02 0.  0.
<mgrwt>
<rscale>  0 0.24485677E+04</rscale>
<asrwt>0</asrwt>
<pdfrwt beam="1">  1        2 0.50951270E+00 0.54311682E+04</pdfrwt>
<pdfrwt beam="2">  1       -2 0.48648451E+00 0.54311682E+04</pdfrwt>
<totfact> 0.14982279E-03</totfact>
</mgrwt>
</event>
<event>
12    1  0.2719978E-012  0.4673665E+04  0.7818608E-02  0.8256925E-01
         -2   -1    0    0    0  501 -0.00000000000E+00  0.00000000000E+00  0.19876936159E+04  0.19876936159E+04  0.00000000000E+00 0.  1.
          2   -1    0    0  501    0  0.00000000000E+00 -0.00000000000E+00 -0.36951311693E+04  0.36951311693E+04  0.00000000000E+00 0. -1.
        -24    2    1    2    0    0 -0.17863479193E+03  0.72003064818E+03 -0.20897462202E+03  0.77481704606E+03  0.79476657006E+02 0.  0.
    9900016    2    1    2    0    0 -0.11478570228E+04  0.48497825396E+03 -0.17832873359E+04  0.30934135888E+04  0.21991621716E+04 0.  0.
         23    2    4    4    0    0  0.20972619901E+03 -0.32363122213E+03  0.17410957721E+03  0.43263466774E+03  0.90201798038E+02 0.  0.
        -15    1    5    5    0    0  0.10948771649E+03 -0.22466875813E+03  0.76907026491E+02  0.26149245050E+03  0.00000000000E+00 0. -1.
        -15    1    1    2    0    0  0.13264918148E+04 -0.12050089021E+04  0.28482440458E+03  0.18145941503E+04  0.00000000000E+00 0.  1.
         15    1    3    3    0    0 -0.79562175213E+01  0.52065191711E+02  0.51074930407E+01  0.52916652108E+02  0.00000000000E+00 0. -1.
         15    1    5    5    0    0  0.10023848252E+03 -0.98962463994E+02  0.97202550714E+02  0.17114221724E+03  0.00000000000E+00 0.  1.
        -16    1    3    3    0    0 -0.17067857441E+03  0.66796545647E+03 -0.21408211506E+03  0.72190039395E+03  0.00000000000E+00 0.  1.
         16    1    4    4    0    0  0.48612172773E+02 -0.30282700777E+02 -0.38354028658E+03  0.38779290445E+03  0.00000000000E+00 0. -1.
    9900018    1    4    4    0    0 -0.14061953946E+04  0.83889217687E+03 -0.15738566266E+04  0.22729860166E+04  0.91187600000E+02 0.  0.
<mgrwt>
<rscale>  0 0.29542215E+04</rscale>
<asrwt>0</asrwt>
<pdfrwt beam="1">  1        2 0.56848172E+00 0.46736655E+04</pdfrwt>
<pdfrwt beam="2">  1       -2 0.30579902E+00 0.46736655E+04</pdfrwt>
<totfact> 0.12510063E-02</totfact>
</mgrwt>
</event>
<event>
12    1  0.2719978E-012  0.5351481E+04  0.7818608E-02  0.8155890E-01
         -2   -1    0    0    0  501 -0.00000000000E+00  0.00000000000E+00  0.25400332694E+04  0.25400332694E+04  0.00000000000E+00 0.  1.
          2   -1    0    0  501    0  0.00000000000E+00 -0.00000000000E+00 -0.40870856794E+04  0.40870856794E+04  0.00000000000E+00 0. -1.
        -24    2    1    2    0    0  0.18849918240E+03 -0.77339329472E+03  0.44665455496E+03  0.91632096186E+03  0.80465418688E+02 0.  0.
    9900016    2    1    2    0    0  0.38264856507E+03 -0.61043437693E+03 -0.30838379038E+04  0.38588870177E+04  0.22049722778E+04 0.  0.
         23    2    4    4    0    0 -0.12033033243E+03 -0.38259501233E+03  0.15108342877E+03  0.43853835447E+03  0.92905078057E+02 0.  0.
        -15    1    5    5    0    0 -0.15375317317E+02 -0.16611680541E+03  0.31105856016E+02  0.16970199674E+03  0.00000000000E+00 0. -1.
        -15    1    1    2    0    0 -0.57114774746E+03  0.13838276716E+04  0.10901309389E+04  0.18519109693E+04  0.00000000000E+00 0.  1.
         15    1    3    3    0    0  0.15465387754E+03 -0.60704927508E+03  0.31309151505E+03  0.70032345456E+03  0.00000000000E+00 0. -1.
         15    1    5    5    0    0 -0.10495501511E+03 -0.21647820693E+03  0.11997757275E+03  0.26883635773E+03  0.00000000000E+00 0.  1.
        -16    1    3    3    0    0  0.33845304853E+02 -0.16634401963E+03  0.13356303991E+03  0.21599750730E+03  0.00000000000E+00 0.  1.
         16    1    4    4    0    0  0.29700922427E+03  0.26966582745E+03 -0.55181549460E+03  0.68222758511E+03  0.00000000000E+00 0. -1.
    9900018    1    4    4    0    0  0.20596967323E+03 -0.49750519204E+03 -0.26831058380E+04  0.27381210781E+04  0.91187600000E+02 0.  0.
<mgrwt>
<rscale>  0 0.33276694E+04</rscale>
<asrwt>0</asrwt>
<pdfrwt beam="1">  1        2 0.62878240E+00 0.53514807E+04</pdfrwt>
<pdfrwt beam="2">  1       -2 0.39077435E+00 0.53514807E+04</pdfrwt>
<totfact> 0.16780870E-03</totfact>
</mgrwt>
</event>
<event>
12    1  0.2719978E-012  0.2929874E+04  0.7818608E-02  0.8809177E-01
          2   -1    0    0  501    0  0.00000000000E+00  0.00000000000E+00  0.34583192460E+04  0.34583192460E+04  0.00000000000E+00 0. -1.
         -2   -1    0    0    0  501 -0.00000000000E+00 -0.00000000000E+00 -0.14855996420E+04  0.14855996420E+04  0.00000000000E+00 0.  1.
         24    2    1    2    0    0 -0.13925248870E+03  0.21963823341E+03 -0.83952456667E+03  0.88277627899E+03  0.82826635412E+02 0.  0.
    9900016    2    1    2    0    0 -0.21908192323E+03 -0.26065724777E+03  0.14571739277E+04  0.26588938887E+04  0.21978220505E+04 0.  0.
         23    2    4    4    0    0 -0.16002935788E+03 -0.87540561518E+02  0.92097893355E+03  0.94315164752E+03  0.89777997811E+02 0.  0.
        -15    1    5    5    0    0 -0.86223321629E+02 -0.81091903764E+02  0.70378974871E+03  0.71367385298E+03  0.00000000000E+00 0. -1.
        -15    1    3    3    0    0 -0.59670192218E+02  0.74600671967E+02 -0.19200375646E+03  0.21445567046E+03  0.00000000000E+00 0.  1.
         15    1    5    5    0    0 -0.73806036254E+02 -0.64486577537E+01  0.21718918484E+03  0.22947779454E+03  0.00000000000E+00 0.  1.
         15    1    1    2    0    0  0.35833441194E+03  0.41019014357E+02  0.13550702430E+04  0.14022487203E+04  0.00000000000E+00 0. -1.
        -16    1    4    4    0    0 -0.61618006076E+03  0.10294669334E+03 -0.28087370015E+03  0.68495687775E+03  0.00000000000E+00 0.  1.
         16    1    3    3    0    0 -0.79582296485E+02  0.14503756144E+03 -0.64752081020E+03  0.66832060853E+03  0.00000000000E+00 0. -1.
    9900018    1    4    4    0    0  0.55712749540E+03 -0.27606337960E+03  0.81706869434E+03  0.10307853634E+04  0.91187600000E+02 0.  0.
<mgrwt>
<rscale>  0 0.16186420E+04</rscale>
<asrwt>0</asrwt>
<pdfrwt beam="1">  1        2 0.53204911E+00 0.29298741E+04</pdfrwt>
<pdfrwt beam="2">  1       -2 0.22855379E+00 0.29298741E+04</pdfrwt>
<totfact> 0.62463056E-02</totfact>
</mgrwt>
</event>
<event>
12    1  0.2719978E-012  0.3841791E+04  0.7818608E-02  0.8797356E-01
          2   -1    0    0  501    0  0.00000000000E+00  0.00000000000E+00  0.23009181995E+04  0.23009181995E+04  0.00000000000E+00 0.  1.
         -2   -1    0    0    0  501 -0.00000000000E+00 -0.00000000000E+00 -0.21035112532E+04  0.21035112532E+04  0.00000000000E+00 0. -1.
         24    2    1    2    0    0 -0.10821225674E+02  0.97638585029E+02 -0.48599519022E+03  0.50232769096E+03  0.80569175096E+02 0.  0.
    9900016    2    1    2    0    0  0.43401067774E+03  0.97658139127E+03 -0.24100679693E+03  0.24230582376E+04  0.21612613134E+04 0.  0.
         23    2    4    4    0    0 -0.20865899013E+03 -0.22909349259E+01  0.38815658338E+03  0.45045274469E+03  0.93264781286E+02 0.  0.
        -15    1    3    3    0    0 -0.21044954864E+02  0.10128515619E+03 -0.32724261158E+03  0.34320445776E+03  0.00000000000E+00 0.  1.
        -15    1    5    5    0    0 -0.13455675892E+03  0.24680297795E+02  0.16832683726E+03  0.21690680629E+03  0.00000000000E+00 0.  1.
         15    1    1    2    0    0 -0.42318945206E+03 -0.10742199763E+04  0.92440893353E+03  0.14790435241E+04  0.00000000000E+00 0. -1.
         15    1    5    5    0    0 -0.74102231210E+02 -0.26971232721E+02  0.21982974612E+03  0.23354593840E+03  0.00000000000E+00 0. -1.
        -16    1    4    4    0    0  0.67277203823E+03  0.13270433548E+04 -0.61850510005E+03  0.16112773938E+04  0.00000000000E+00 0.  1.
         16    1    3    3    0    0  0.10223729190E+02 -0.36465711661E+01 -0.15875257864E+03  0.15912323320E+03  0.00000000000E+00 0. -1.
    9900018    1    4    4    0    0 -0.30102370365E+02 -0.34817102864E+03 -0.10658280270E+02  0.36132809912E+03  0.91187600000E+02 0.  0.
<mgrwt>
<rscale>  0 0.16383033E+04</rscale>
<asrwt>0</asrwt>
<pdfrwt beam="1">  1        2 0.35398742E+00 0.38417912E+04</pdfrwt>
<pdfrwt beam="2">  1       -2 0.32361712E+00 0.38417912E+04</pdfrwt>
<totfact> 0.80649850E-02</totfact>
</mgrwt>
</event>
