<event>
11    1  0.8264268E-012  0.4299017E+04  0.7818608E-02  0.8276698E-01
          1   -1    0    0  501    0  0.00000000000E+00  0.00000000000E+00  0.29255680351E+04  0.29255680351E+04  0.00000000000E+00 0. -1.
         -1   -1    0    0    0  501 -0.00000000000E+00 -0.00000000000E+00 -0.23948381740E+04  0.23948381740E+04  0.00000000000E+00 0.  1.
    9900016    2    1    2    0    0  0.53948086001E+03  0.11344929985E+04  0.73332907736E+03  0.24913183404E+04  0.20225680645E+04 0.  0.
         24    2    3    3    0    0  0.42329276756E+03  0.35707923907E+03 -0.64694483541E+03  0.85669862209E+03  0.93341089442E+02 0.  0.
        -15    1    1    2    0    0 -0.32756100067E+03  0.83903018839E+02  0.90348328423E+02  0.34999820882E+03  0.00000000000E+00 0.  1.
        -15    1    4    4    0    0  0.68866642736E+02  0.10404419681E+03 -0.12023659834E+03  0.17327622154E+03  0.00000000000E+00 0.  1.
         15    1    3    3    0    0  0.21728720795E+03  0.59307926189E+03  0.86862849442E+03  0.10739982323E+04  0.00000000000E+00 0. -1.
         15    1    1    2    0    0  0.39730262921E+03  0.31895372862E+03  0.43724550425E+03  0.67138996951E+03  0.00000000000E+00 0. -1.
        -16    1    1    2    0    0 -0.60922248855E+03 -0.15373497460E+04 -0.73019304890E+03  0.18076996904E+04  0.00000000000E+00 0.  1.
         16    1    4    4    0    0  0.35442612482E+03  0.25303504226E+03 -0.52670823707E+03  0.68342240054E+03  0.00000000000E+00 0. -1.
    9900018    1    3    3    0    0 -0.10109911549E+03  0.18433449756E+03  0.51164541834E+03  0.56062148607E+03  0.91187600000E+02 0.  0.
<mgrwt>
<rscale>  0 0.28871937E+04</rscale>
<asrwt>0</asrwt>
<pdfrwt beam="1">  1        1 0.45008739E+00 0.42990169E+04</pdfrwt>
<pdfrwt beam="2">  1       -1 0.36843664E+00 0.42990169E+04</pdfrwt>
<totfact> 0.58573835E-03</totfact>
</mgrwt>
</event>
<event>
11    1  0.8264268E-012  0.5528762E+04  0.7818608E-02  0.7894587E-01
          2   -1    0    0  501    0  0.00000000000E+00  0.00000000000E+00  0.45140838683E+04  0.45140838683E+04  0.00000000000E+00 0.  1.
         -2   -1    0    0    0  501 -0.00000000000E+00 -0.00000000000E+00 -0.36942030205E+04  0.36942030205E+04  0.00000000000E+00 0. -1.
    9900016    2    1    2    0    0  0.69266083126E+03  0.23873264616E+03 -0.14642352388E+04  0.25914199126E+04  0.20086562736E+04 0.  0.
         24    2    3    3    0    0 -0.11718458024E+03 -0.12098072809E+03 -0.10297881462E+04  0.10486485591E+04  0.10407503100E+03 0.  0.
        -15    1    4    4    0    0 -0.77799354025E+02 -0.13179469947E+03 -0.71314534324E+03  0.72938252164E+03  0.00000000000E+00 0.  1.
        -15    1    1    2    0    0 -0.71890432347E+03 -0.79791425772E+03  0.20503809176E+03  0.10934034974E+04  0.00000000000E+00 0.  1.
         15    1    1    2    0    0  0.64610521465E+03 -0.13980347130E+04 -0.82469134532E+02  0.15423210319E+04  0.00000000000E+00 0. -1.
         15    1    3    3    0    0  0.90020175745E+03 -0.16990134443E+03 -0.15080996017E+03  0.92842518010E+03  0.00000000000E+00 0. -1.
        -16    1    1    2    0    0 -0.61986172243E+03  0.19572163246E+04  0.21615471294E+04  0.29811424469E+04  0.00000000000E+00 0.  1.
         16    1    4    4    0    0 -0.39385226213E+02  0.10813971374E+02 -0.31664280294E+03  0.31926603746E+03  0.00000000000E+00 0. -1.
    9900018    1    3    3    0    0 -0.90356345953E+02  0.52961471869E+03 -0.28363713242E+03  0.61434617341E+03  0.91187600000E+02 0.  0.
<mgrwt>
<rscale>  0 0.45928091E+04</rscale>
<asrwt>0</asrwt>
<pdfrwt beam="1">  1        2 0.69447444E+00 0.55287618E+04</pdfrwt>
<pdfrwt beam="2">  1       -2 0.56833893E+00 0.55287618E+04</pdfrwt>
<totfact> 0.53498677E-05</totfact>
</mgrwt>
</event>
<event>
11    1  0.8264268E-012  0.3526910E+04  0.7818608E-02  0.8292464E-01
          2   -1    0    0  501    0  0.00000000000E+00  0.00000000000E+00  0.29630581127E+04  0.29630581127E+04  0.00000000000E+00 0. -1.
         -2   -1    0    0    0  501 -0.00000000000E+00 -0.00000000000E+00 -0.22534307841E+04  0.22534307841E+04  0.00000000000E+00 0.  1.
    9900016    2    1    2    0    0  0.78633736761E+03 -0.24886411555E+03  0.38040656197E+03  0.22099764569E+04  0.20147027036E+04 0.  0.
        -24    2    3    3    0    0  0.38810732508E+03  0.14036326437E+03 -0.74787624906E+03  0.85895175230E+03  0.90277832801E+02 0.  0.
        -15    1    1    2    0    0 -0.22104237638E+03 -0.12474145304E+03 -0.61736289099E+03  0.66750063778E+03  0.00000000000E+00 0.  1.
        -15    1    3    3    0    0 -0.16831356477E+02 -0.82755500948E+02 -0.21800120421E+02  0.87218190468E+02  0.00000000000E+00 0.  1.
         15    1    4    4    0    0  0.27685117835E+03  0.14098087351E+03 -0.56918948029E+03  0.64845882377E+03  0.00000000000E+00 0. -1.
         15    1    1    2    0    0 -0.57307816536E+02 -0.82190421669E+03  0.22950595508E+03  0.85526820978E+03  0.00000000000E+00 0. -1.
        -16    1    4    4    0    0  0.11125614673E+03 -0.61760913649E+00 -0.17868676877E+03  0.21049292853E+03  0.00000000000E+00 0.  1.
         16    1    1    2    0    0 -0.50798717469E+03  0.11955097853E+04  0.71707770252E+03  0.14837435923E+04  0.00000000000E+00 0. -1.
    9900018    1    3    3    0    0  0.41506139901E+03 -0.30647187898E+03  0.11500829315E+04  0.12638065141E+04  0.91187600000E+02 0.  0.
<mgrwt>
<rscale>  0 0.28350651E+04</rscale>
<asrwt>0</asrwt>
<pdfrwt beam="1">  1        2 0.45585510E+00 0.35269103E+04</pdfrwt>
<pdfrwt beam="2">  1       -2 0.34668166E+00 0.35269103E+04</pdfrwt>
<totfact> 0.23348137E-02</totfact>
</mgrwt>
</event>
<event>
10    1  0.8264268E-012  0.3905267E+04  0.7818608E-02  0.8400458E-01
          2   -1    0    0  501    0  0.00000000000E+00  0.00000000000E+00  0.39356020350E+04  0.39356020350E+04  0.00000000000E+00 0.  1.
         -2   -1    0    0    0  501 -0.00000000000E+00 -0.00000000000E+00 -0.13325926556E+04  0.13325926556E+04  0.00000000000E+00 0. -1.
    9900016    2    1    2    0    0  0.76008522592E+03 -0.23522608954E+03  0.11531338135E+03  0.21605197593E+04  0.20053647026E+04 0.  0.
        -15    1    1    2    0    0  0.16404333950E+03  0.25722043111E+02  0.59970942062E+03  0.62227263311E+03  0.00000000000E+00 0.  1.
        -15    1    3    3    0    0 -0.11941290651E+03  0.11852495426E+02 -0.18352328570E+03  0.21927316362E+03  0.00000000000E+00 0.  1.
         15    1    1    2    0    0  0.13647971861E+03 -0.14650264780E+03 -0.84822552153E+02  0.21745023513E+03  0.00000000000E+00 0. -1.
         15    1    3    3    0    0  0.75980662066E+03 -0.29802810562E+03  0.64622157487E+03  0.10410231392E+04  0.00000000000E+00 0. -1.
        -16    1    1    2    0    0 -0.10606082840E+04  0.35600669422E+03  0.19728091297E+04  0.22679520631E+04  0.00000000000E+00 0.  1.
         16    1    3    3    0    0 -0.15780035049E+03 -0.12927565324E+03 -0.48830532106E+03  0.52920244870E+03  0.00000000000E+00 0. -1.
    9900018    1    3    3    0    0  0.27749186226E+03  0.18022517389E+03  0.14092041323E+03  0.37102100774E+03  0.91187600000E+02 0.  0.
<mgrwt>
<rscale>  0 0.25071066E+04</rscale>
<asrwt>0</asrwt>
<pdfrwt beam="1">  1        2 0.60547723E+00 0.39052666E+04</pdfrwt>
<pdfrwt beam="2">  1       -2 0.20501426E+00 0.39052666E+04</pdfrwt>
<totfact> 0.36838199E-02</totfact>
</mgrwt>
</event>
<event>
11    1  0.8264268E-012  0.2913993E+04  0.7818608E-02  0.8415231E-01
          1   -1    0    0  501    0  0.00000000000E+00  0.00000000000E+00  0.36655864441E+04  0.36655864441E+04  0.00000000000E+00 0. -1.
         -1   -1    0    0    0  501 -0.00000000000E+00 -0.00000000000E+00 -0.14612733377E+04  0.14612733377E+04  0.00000000000E+00 0.  1.
    9900016    2    1    2    0    0 -0.10360066287E+03 -0.38102268699E+00  0.79365462072E+03  0.21584136920E+04  0.20045270680E+04 0.  0.
         24    2    3    3    0    0 -0.32143599996E+03  0.60922808401E+03  0.10208440967E+04  0.12334248697E+04  0.68806096943E+02 0.  0.
        -15    1    1    2    0    0  0.77308636923E+03  0.29119080899E+03 -0.11359788133E+03  0.83388194619E+03  0.00000000000E+00 0.  1.
        -15    1    4    4    0    0 -0.21372730198E+03  0.46318877982E+03  0.72864887264E+03  0.88946747268E+03  0.00000000000E+00 0.  1.
         15    1    1    2    0    0 -0.45218494808E+03 -0.75962734987E+03  0.12980517237E+04  0.15704913929E+04  0.00000000000E+00 0. -1.
         15    1    3    3    0    0  0.24350581386E+03 -0.52463594736E+03 -0.40517394108E+03  0.70618969206E+03  0.00000000000E+00 0. -1.
        -16    1    1    2    0    0 -0.21730075829E+03  0.46881756357E+03  0.22620464329E+03  0.56407275072E+03  0.00000000000E+00 0.  1.
         16    1    4    4    0    0 -0.10770869798E+03  0.14603930419E+03  0.29219522409E+03  0.34395739702E+03  0.00000000000E+00 0. -1.
    9900018    1    3    3    0    0 -0.25670476770E+02 -0.84973159341E+02  0.17798446508E+03  0.21879913023E+03  0.91187600000E+02 0.  0.
<mgrwt>
<rscale>  0 0.24659124E+04</rscale>
<asrwt>0</asrwt>
<pdfrwt beam="1">  1        1 0.56393637E+00 0.29139931E+04</pdfrwt>
<pdfrwt beam="2">  1       -1 0.22481128E+00 0.29139931E+04</pdfrwt>
<totfact> 0.15427570E-02</totfact>
</mgrwt>
</event>
<event>
10    1  0.8264268E-012  0.6219446E+04  0.7818608E-02  0.7663773E-01
         -2   -1    0    0    0  501 -0.00000000000E+00  0.00000000000E+00  0.21959499765E+04  0.21959499765E+04  0.00000000000E+00 0. -1.
          2   -1    0    0  501    0  0.00000000000E+00 -0.00000000000E+00 -0.44037333719E+04  0.44037333719E+04  0.00000000000E+00 0.  1.
    9900016    2    1    2    0    0  0.14623675933E+04 -0.26513191894E+03 -0.10767545629E+04  0.27286140706E+04  0.20191880659E+04 0.  0.
        -15    1    3    3    0    0  0.62927077121E+02  0.13810714528E+03  0.10086367752E+03  0.18222755570E+03  0.00000000000E+00 0.  1.
        -15    1    1    2    0    0 -0.11373461648E+04 -0.55216211085E+02 -0.84155335258E+03  0.14159156662E+04  0.00000000000E+00 0.  1.
         15    1    1    2    0    0  0.45738043604E+03  0.53081607067E+03  0.82174658531E+03  0.10799213002E+04  0.00000000000E+00 0. -1.
         15    1    3    3    0    0  0.10874654577E+04 -0.56826853427E+03 -0.96886164615E+03  0.15633947480E+04  0.00000000000E+00 0. -1.
        -16    1    1    2    0    0 -0.78240186453E+03 -0.21046794065E+03 -0.11112220653E+04  0.13752323113E+04  0.00000000000E+00 0.  1.
         16    1    3    3    0    0 -0.69240416016E+02  0.28303497742E+03  0.23860516357E+03  0.37661048543E+03  0.00000000000E+00 0. -1.
    9900018    1    3    3    0    0  0.38121547452E+03 -0.11800550736E+03 -0.44736175784E+03  0.60638128150E+03  0.91187600000E+02 0.  0.
<mgrwt>
<rscale>  0 0.62194463E+04</rscale>
<asrwt>0</asrwt>
<pdfrwt beam="1">  1        2 0.67749744E+00 0.62194463E+04</pdfrwt>
<pdfrwt beam="2">  1       -2 0.33783846E+00 0.62194463E+04</pdfrwt>
<totfact> 0.18494776E-03</totfact>
</mgrwt>
</event>
