<event>
11    1  0.7076004E-016  0.2367622E+04  0.7818608E-02  0.8451726E-01
         -1   -1    0    0    0  501 -0.00000000000E+00  0.00000000000E+00  0.13958781264E+04  0.13958781264E+04  0.00000000000E+00 0.  1.
          1   -1    0    0  501    0  0.00000000000E+00 -0.00000000000E+00 -0.10039622184E+04  0.10039622184E+04  0.00000000000E+00 0. -1.
    9900016    2    1    2    0    0  0.23830659684E+01 -0.53291754346E+03  0.20571844471E+03  0.18353261444E+04  0.17441603111E+04 0.  0.
         24    2    3    3    0    0 -0.10643722279E+03  0.72793521302E+02 -0.26189593613E+02  0.15431131046E+03  0.80612074687E+02 0.  0.
        -15    1    4    4    0    0 -0.21979661116E+02  0.40467385944E+01  0.11412965964E+02  0.25094568897E+02  0.00000000000E+00 0. -1.
        -15    1    4    4    0    0 -0.47466121775E+02  0.45568937166E+02 -0.33496300481E+02  0.73834699815E+02  0.00000000000E+00 0.  1.
         15    1    3    3    0    0  0.64447984298E+03  0.18224815137E+03  0.27236497421E+03  0.72301544649E+03  0.00000000000E+00 0. -1.
         15    1    4    4    0    0 -0.19107373063E+02 -0.27553639225E+01 -0.12225621004E+02  0.22850591778E+02  0.00000000000E+00 0.  1.
        -16    1    1    2    0    0 -0.23830659684E+01  0.53291754346E+03  0.18619746327E+03  0.56451420041E+03  0.00000000000E+00 0.  1.
         16    1    4    4    0    0 -0.17884066833E+02  0.25933209465E+02  0.81193619075E+01  0.32531449974E+02  0.00000000000E+00 0. -1.
    9900018    1    3    3    0    0 -0.53565955423E+03 -0.78795921614E+03 -0.40456935896E+02  0.95799938747E+03  0.91187600000E+02 0.  0.
<mgrwt>
<rscale>  0 0.23676224E+04</rscale>
<asrwt>0</asrwt>
<pdfrwt beam="1">  1        1 0.15445573E+00 0.23676224E+04</pdfrwt>
<pdfrwt beam="2">  1       -1 0.21475048E+00 0.23676224E+04</pdfrwt>
<totfact> 0.16115652E+00</totfact>
</mgrwt>
</event>
<event>
11    1  0.7076004E-016  0.2059613E+04  0.7818608E-02  0.8579246E-01
          2   -1    0    0  501    0  0.00000000000E+00  0.00000000000E+00  0.14416516287E+04  0.14416516287E+04  0.00000000000E+00 0. -1.
         -2   -1    0    0    0  501 -0.00000000000E+00 -0.00000000000E+00 -0.73561571238E+03  0.73561571238E+03  0.00000000000E+00 0.  1.
    9900016    2    1    2    0    0 -0.53860616075E+02 -0.25774016639E+03  0.50368279554E+03  0.18451864099E+04  0.17554730330E+04 0.  0.
        -24    2    3    3    0    0  0.26066178916E+03 -0.44216892668E+02  0.10608237169E+03  0.29537474118E+03  0.78058095136E+02 0.  0.
        -15    1    4    4    0    0  0.51777652301E+02 -0.24079039219E+02  0.19509782480E+02  0.60343657661E+02  0.00000000000E+00 0.  1.
        -15    1    3    3    0    0 -0.11794668372E+03  0.55674618837E+03  0.48121829161E+03  0.74528436361E+03  0.00000000000E+00 0.  1.
         15    1    4    4    0    0  0.12099567156E+03 -0.13134345923E+02  0.78834843394E+02  0.14500826222E+03  0.00000000000E+00 0. -1.
         15    1    4    4    0    0  0.49208700102E+02  0.27583765103E+01  0.90439224399E+01  0.50108854904E+02  0.00000000000E+00 0. -1.
        -16    1    4    4    0    0  0.38679765196E+02 -0.97618840360E+01 -0.13061766269E+01  0.39913966389E+02  0.00000000000E+00 0.  1.
         16    1    1    2    0    0  0.53860616075E+02  0.25774016639E+03  0.20235312077E+03  0.33208093113E+03  0.00000000000E+00 0. -1.
    9900018    1    3    3    0    0 -0.19657572152E+03 -0.77026946210E+03 -0.83617867754E+02  0.80452730515E+03  0.91187600000E+02 0.  0.
<mgrwt>
<rscale>  0 0.20596132E+04</rscale>
<asrwt>0</asrwt>
<pdfrwt beam="1">  1        2 0.22179256E+00 0.20596132E+04</pdfrwt>
<pdfrwt beam="2">  1       -2 0.11317165E+00 0.20596132E+04</pdfrwt>
<totfact> 0.77676368E+00</totfact>
</mgrwt>
</event>
<event>
11    1  0.7076004E-016  0.2374665E+04  0.7818608E-02  0.8449050E-01
         -1   -1    0    0    0  501 -0.00000000000E+00  0.00000000000E+00  0.12273947406E+04  0.12273947406E+04  0.00000000000E+00 0.  1.
          1   -1    0    0  501    0  0.00000000000E+00 -0.00000000000E+00 -0.11485782322E+04  0.11485782322E+04  0.00000000000E+00 0. -1.
    9900016    2    1    2    0    0 -0.41260327939E+03  0.23733744453E+03 -0.14630039210E+03  0.18494293871E+04  0.17811273746E+04 0.  0.
         24    2    3    3    0    0  0.21771484586E+03  0.98141239846E+02 -0.24595502783E+03  0.35200463604E+03  0.79886989017E+02 0.  0.
        -15    1    4    4    0    0  0.14291077332E+02  0.44037248280E+01 -0.13494501191E+02  0.20142721913E+02  0.00000000000E+00 0.  1.
        -15    1    4    4    0    0  0.39199887930E+02  0.22397478662E+02 -0.77258203952E+02  0.89482447117E+02  0.00000000000E+00 0.  1.
         15    1    4    4    0    0  0.38574779772E+01  0.10650732211E+02 -0.34128955040E+00  0.11332903932E+02  0.00000000000E+00 0. -1.
         15    1    3    3    0    0  0.23075306812E+03 -0.24639821134E+03 -0.31602792684E+03  0.46242048780E+03  0.00000000000E+00 0. -1.
        -16    1    1    2    0    0  0.41260327939E+03 -0.23733744453E+03  0.22511690055E+03  0.52654358571E+03  0.00000000000E+00 0.  1.
         16    1    4    4    0    0  0.16036640262E+03  0.60689304145E+02 -0.15486103314E+03  0.23104656308E+03  0.00000000000E+00 0. -1.
    9900018    1    3    3    0    0 -0.86107119337E+03  0.38559441603E+03  0.41568256257E+03  0.10350042632E+04  0.91187600000E+02 0.  0.
<mgrwt>
<rscale>  0 0.23746654E+04</rscale>
<asrwt>0</asrwt>
<pdfrwt beam="1">  1        1 0.17670434E+00 0.23746654E+04</pdfrwt>
<pdfrwt beam="2">  1       -1 0.18882996E+00 0.23746654E+04</pdfrwt>
<totfact> 0.18858944E+00</totfact>
</mgrwt>
</event>
<event>
11    1  0.7076004E-016  0.2191195E+04  0.7818608E-02  0.8522102E-01
          1   -1    0    0  501    0  0.00000000000E+00  0.00000000000E+00  0.21187220478E+04  0.21187220478E+04  0.00000000000E+00 0. -1.
         -1   -1    0    0    0  501 -0.00000000000E+00 -0.00000000000E+00 -0.56653678783E+03  0.56653678783E+03  0.00000000000E+00 0.  1.
    9900016    2    1    2    0    0  0.35223630135E+02 -0.24539254491E+03  0.76478753263E+03  0.18597569360E+04  0.16770025897E+04 0.  0.
        -24    2    3    3    0    0  0.36819132002E+02 -0.18285368924E+03 -0.23745597073E+03  0.31216559241E+03  0.79189007425E+02 0.  0.
        -15    1    4    4    0    0  0.13751657006E+02 -0.81344454705E+01 -0.94866462804E+01  0.18581542755E+02  0.00000000000E+00 0. -1.
        -15    1    3    3    0    0 -0.30872084957E+03  0.18910901148E+03 -0.97399212811E+02  0.37490983961E+03  0.00000000000E+00 0.  1.
         15    1    4    4    0    0 -0.11900673475E+02 -0.32283350378E+02 -0.32971318010E+02  0.47654470432E+02  0.00000000000E+00 0. -1.
         15    1    4    4    0    0  0.13372483519E+02 -0.92310988663E+02 -0.10297844050E+03  0.13894135868E+03  0.00000000000E+00 0.  1.
        -16    1    4    4    0    0  0.21595664953E+02 -0.50124904727E+02 -0.92019565943E+02  0.10698822054E+03  0.00000000000E+00 0.  1.
         16    1    1    2    0    0 -0.35223630135E+02  0.24539254491E+03  0.78739772734E+03  0.82550189960E+03  0.00000000000E+00 0. -1.
    9900018    1    3    3    0    0  0.30712534770E+03 -0.25164786715E+03  0.10996427162E+04  0.11726815040E+04  0.91187600000E+02 0.  0.
<mgrwt>
<rscale>  0 0.21911951E+04</rscale>
<asrwt>0</asrwt>
<pdfrwt beam="1">  1        1 0.32595723E+00 0.21911951E+04</pdfrwt>
<pdfrwt beam="2">  1       -1 0.87159507E-01 0.21911951E+04</pdfrwt>
<totfact> 0.29264682E+00</totfact>
</mgrwt>
</event>
<event>
11    1  0.7076004E-016  0.2460783E+04  0.7818608E-02  0.8417092E-01
          3   -1    0    0  501    0  0.00000000000E+00  0.00000000000E+00  0.23413587119E+04  0.23413587119E+04  0.00000000000E+00 0. -1.
         -3   -1    0    0    0  501 -0.00000000000E+00 -0.00000000000E+00 -0.64657453685E+03  0.64657453685E+03  0.00000000000E+00 0.  1.
    9900016    2    1    2    0    0 -0.59171246489E+03 -0.56948873973E+02  0.13335430618E+04  0.22923313818E+04  0.17672235997E+04 0.  0.
         24    2    3    3    0    0 -0.34598495828E+03  0.41804500522E+02 -0.46923323181E+02  0.36080417424E+03  0.80775282539E+02 0.  0.
        -15    1    4    4    0    0 -0.19630841747E+02 -0.78233302094E+01 -0.17698946090E+02  0.27564962107E+02  0.00000000000E+00 0. -1.
        -15    1    4    4    0    0 -0.98137583090E+02  0.16569388951E+02  0.94861947494E+00  0.99531049144E+02  0.00000000000E+00 0.  1.
         15    1    3    3    0    0  0.30380443924E+03 -0.41924046513E+03  0.14299548112E+03  0.53712886026E+03  0.00000000000E+00 0. -1.
         15    1    4    4    0    0 -0.21356817899E+02  0.28806082995E+01 -0.97827564193E+01  0.23666725547E+02  0.00000000000E+00 0.  1.
        -16    1    1    2    0    0  0.59171246489E+03  0.56948873973E+02  0.36124111327E+03  0.69560186692E+03  0.00000000000E+00 0.  1.
         16    1    4    4    0    0 -0.20685971555E+03  0.30177833481E+02 -0.20390240147E+02  0.21004143744E+03  0.00000000000E+00 0. -1.
    9900018    1    3    3    0    0 -0.54953194585E+03  0.32048709064E+03  0.12374709039E+04  0.13943983473E+04  0.91187600000E+02 0.  0.
<mgrwt>
<rscale>  0 0.24607827E+04</rscale>
<asrwt>0</asrwt>
<pdfrwt beam="1">  1        3 0.36020903E+00 0.24607827E+04</pdfrwt>
<pdfrwt beam="2">  1       -3 0.99473007E-01 0.24607827E+04</pdfrwt>
<totfact> 0.37493686E-02</totfact>
</mgrwt>
</event>
<event>
11    1  0.7076004E-016  0.2201796E+04  0.7818608E-02  0.8517681E-01
         -1   -1    0    0    0  501 -0.00000000000E+00  0.00000000000E+00  0.80415754769E+03  0.80415754769E+03  0.00000000000E+00 0.  1.
          1   -1    0    0  501    0  0.00000000000E+00 -0.00000000000E+00 -0.15071384617E+04  0.15071384617E+04  0.00000000000E+00 0. -1.
    9900016    2    1    2    0    0  0.35126535415E+03 -0.25072012537E+03 -0.49718785150E+03  0.18331760298E+04  0.17108742404E+04 0.  0.
        -24    2    3    3    0    0  0.28049817439E+03 -0.23592465602E+03  0.28798744190E+03  0.47254502111E+03  0.77603873186E+02 0.  0.
        -15    1    3    3    0    0 -0.38291339422E+03 -0.28127716613E+03 -0.89236015573E+02  0.48342794514E+03  0.00000000000E+00 0.  1.
        -15    1    4    4    0    0  0.32054175835E+02 -0.47201535299E+02  0.43721865134E+02  0.71882241297E+02  0.00000000000E+00 0. -1.
         15    1    4    4    0    0  0.16983499365E+02 -0.21500917972E+02  0.42119854891E+02  0.50247496459E+02  0.00000000000E+00 0.  1.
         15    1    4    4    0    0  0.92543714147E+02 -0.59742298828E+02  0.87408873094E+02  0.14061931728E+03  0.00000000000E+00 0. -1.
        -16    1    4    4    0    0  0.13891678505E+03 -0.10747990392E+03  0.11473684878E+03  0.20979596607E+03  0.00000000000E+00 0.  1.
         16    1    1    2    0    0 -0.35126535415E+03  0.25072012537E+03 -0.20579306252E+03  0.47811997958E+03  0.00000000000E+00 0. -1.
    9900018    1    3    3    0    0  0.45368057398E+03  0.26648169677E+03 -0.69593927783E+03  0.87720306357E+03  0.91187600000E+02 0.  0.
<mgrwt>
<rscale>  0 0.22017963E+04</rscale>
<asrwt>0</asrwt>
<pdfrwt beam="1">  1        1 0.23186746E+00 0.22017963E+04</pdfrwt>
<pdfrwt beam="2">  1       -1 0.12371655E+00 0.22017963E+04</pdfrwt>
<totfact> 0.33851707E+00</totfact>
</mgrwt>
</event>
<event>
11    1  0.7076004E-016  0.2642333E+04  0.7818608E-02  0.8353962E-01
         -1   -1    0    0    0  501 -0.00000000000E+00  0.00000000000E+00  0.77088194158E+03  0.77088194158E+03  0.00000000000E+00 0.  1.
          1   -1    0    0  501    0  0.00000000000E+00 -0.00000000000E+00 -0.22642647550E+04  0.22642647550E+04  0.00000000000E+00 0. -1.
    9900016    2    1    2    0    0 -0.59228352026E+03  0.42783386857E+03 -0.71527638800E+03  0.19677708505E+04  0.16812674449E+04 0.  0.
        -24    2    3    3    0    0 -0.18119880206E+03  0.22939979316E+03  0.21661449388E+03  0.37265207047E+03  0.80563364498E+02 0.  0.
        -15    1    3    3    0    0  0.71282890037E+02 -0.44096145467E+03 -0.14763557269E+03  0.47045139732E+03  0.00000000000E+00 0.  1.
        -15    1    4    4    0    0 -0.15076507185E+02  0.84370940464E+01 -0.10930089951E+01  0.17311276484E+02  0.00000000000E+00 0. -1.
         15    1    4    4    0    0 -0.12830742680E+03  0.14878908171E+03  0.13964293780E+03  0.24104177373E+03  0.00000000000E+00 0. -1.
         15    1    4    4    0    0 -0.13348077803E+02  0.32646505845E+02  0.45369204810E+02  0.57465905283E+02  0.00000000000E+00 0.  1.
        -16    1    4    4    0    0 -0.24466790275E+02  0.39527111560E+02  0.32695360268E+02  0.56833114974E+02  0.00000000000E+00 0.  1.
         16    1    1    2    0    0  0.59228352026E+03 -0.42783386857E+03 -0.77810642539E+03  0.10673758460E+04  0.00000000000E+00 0. -1.
    9900018    1    3    3    0    0 -0.48236760824E+03  0.63939553008E+03 -0.78425530919E+03  0.11246673827E+04  0.91187600000E+02 0.  0.
<mgrwt>
<rscale>  0 0.26423329E+04</rscale>
<asrwt>0</asrwt>
<pdfrwt beam="1">  1        1 0.34834843E+00 0.26423329E+04</pdfrwt>
<pdfrwt beam="2">  1       -1 0.11859722E+00 0.26423329E+04</pdfrwt>
<totfact> 0.11006076E+00</totfact>
</mgrwt>
</event>
