<event>
11    1  0.2619784E-011  0.5275646E+04  0.7818608E-02  0.7787338E-01
         -2   -1    0    0    0  501 -0.00000000000E+00  0.00000000000E+00  0.22975538816E+04  0.22975538816E+04  0.00000000000E+00 0.  1.
          2   -1    0    0  501    0  0.00000000000E+00 -0.00000000000E+00 -0.30284863260E+04  0.30284863260E+04  0.00000000000E+00 0. -1.
    9900016    2    1    2    0    0  0.26168606832E+03 -0.18697585408E+03  0.57121910842E+03  0.96629434274E+03  0.70992529088E+03 0.  0.
         23    2    3    3    0    0  0.26341074064E+03  0.20979797911E+03  0.40915846954E+03  0.53769651275E+03  0.91139872216E+02 0.  0.
        -15    1    4    4    0    0  0.14844493835E+03  0.13715637738E+03  0.30722249582E+03  0.36774098699E+03  0.00000000000E+00 0.  1.
        -15    1    1    2    0    0 -0.78528806474E+02 -0.30919665722E+03  0.33191937605E+03  0.46036921973E+03  0.00000000000E+00 0.  1.
         15    1    1    2    0    0  0.22420205266E+03 -0.37429330675E+03 -0.77687456536E+02  0.44316744104E+03  0.00000000000E+00 0. -1.
         15    1    4    4    0    0  0.11496580229E+03  0.72641601732E+02  0.10193597373E+03  0.16995552577E+03  0.00000000000E+00 0. -1.
        -16    1    3    3    0    0 -0.17246723251E+01 -0.39677383319E+03  0.16206063887E+03  0.42859782998E+03  0.00000000000E+00 0.  1.
         16    1    1    2    0    0 -0.10626284673E+04  0.16363631750E+04 -0.14652423766E+04  0.24400407624E+04  0.00000000000E+00 0. -1.
    9900018    1    1    2    0    0  0.65526915284E+03 -0.76589735693E+03 -0.91141095687E+02  0.10161684416E+04  0.91187600000E+02 0.  0.
<mgrwt>
<rscale>  0 0.52756461E+04</rscale>
<asrwt>0</asrwt>
<pdfrwt beam="1">  1        2 0.46592097E+00 0.52756461E+04</pdfrwt>
<pdfrwt beam="2">  1       -2 0.35346983E+00 0.52756461E+04</pdfrwt>
<totfact> 0.17597964E-02</totfact>
</mgrwt>
</event>
<event>
11    1  0.2619784E-011  0.4246249E+04  0.7818608E-02  0.7956633E-01
         -2   -1    0    0    0  501 -0.00000000000E+00  0.00000000000E+00  0.24974888321E+04  0.24974888321E+04  0.00000000000E+00 0.  1.
          2   -1    0    0  501    0  0.00000000000E+00 -0.00000000000E+00 -0.18048758481E+04  0.18048758481E+04  0.00000000000E+00 0. -1.
    9900016    2    1    2    0    0  0.37758059996E+03 -0.28928758398E+02 -0.17862476209E+02  0.80642228893E+03  0.71175407093E+03 0.  0.
         23    2    3    3    0    0  0.23370020294E+03  0.13958586485E+02 -0.35661821675E+03  0.43588707502E+03  0.89500629385E+02 0.  0.
        -15    1    1    2    0    0  0.39210363263E+03  0.90762901698E+03  0.68689198479E+03  0.12038921422E+04  0.00000000000E+00 0.  1.
        -15    1    4    4    0    0  0.13204467201E+03 -0.14941751841E+02 -0.26315323857E+03  0.29480277869E+03  0.00000000000E+00 0. -1.
         15    1    4    4    0    0  0.10165553093E+03  0.28900338326E+02 -0.93464978179E+02  0.14108429633E+03  0.00000000000E+00 0.  1.
         15    1    1    2    0    0 -0.45841567758E+03  0.44854551721E+03 -0.23711754549E+03  0.68378559859E+03  0.00000000000E+00 0. -1.
        -16    1    1    2    0    0 -0.33295277927E+03 -0.14173280199E+04  0.22286383400E+03  0.14728694978E+04  0.00000000000E+00 0.  1.
         16    1    3    3    0    0  0.14388039702E+03 -0.42887344883E+02  0.33875574054E+03  0.37053521391E+03  0.00000000000E+00 0. -1.
    9900018    1    1    2    0    0  0.21684224260E+02  0.90082244069E+02  0.37837186922E+02  0.13539515274E+03  0.91187600000E+02 0.  0.
<mgrwt>
<rscale>  0 0.42462488E+04</rscale>
<asrwt>0</asrwt>
<pdfrwt beam="1">  1        2 0.27767321E+00 0.42462488E+04</pdfrwt>
<pdfrwt beam="2">  1       -2 0.38422905E+00 0.42462488E+04</pdfrwt>
<totfact> 0.62334301E-02</totfact>
</mgrwt>
</event>
<event>
11    1  0.2619784E-011  0.1747350E+04  0.7818608E-02  0.9431549E-01
         -2   -1    0    0    0  501 -0.00000000000E+00  0.00000000000E+00  0.50525766413E+03  0.50525766413E+03  0.00000000000E+00 0.  1.
          2   -1    0    0  501    0  0.00000000000E+00 -0.00000000000E+00 -0.17316551246E+04  0.17316551246E+04  0.00000000000E+00 0. -1.
    9900016    2    1    2    0    0 -0.29043929509E+03  0.36155622041E+03 -0.13542363547E+03  0.85116846896E+03  0.70076409502E+03 0.  0.
         23    2    3    3    0    0 -0.21526733533E+03 -0.17282514110E+03  0.14471060187E+02  0.29109464985E+03  0.91203774775E+02 0.  0.
        -15    1    1    2    0    0  0.21066884266E+03 -0.46265127497E+03 -0.72170670288E+03  0.88277297675E+03  0.00000000000E+00 0.  1.
        -15    1    4    4    0    0 -0.59853689356E+02 -0.52114819040E+02  0.46105412233E+02  0.91783045985E+02  0.00000000000E+00 0.  1.
         15    1    1    2    0    0 -0.66648055644E+02  0.12082901133E+02 -0.76944378717E+02  0.10251047379E+03  0.00000000000E+00 0. -1.
         15    1    4    4    0    0 -0.15541364598E+03 -0.12071032206E+03 -0.31634352046E+02  0.19931160387E+03  0.00000000000E+00 0. -1.
        -16    1    1    2    0    0  0.32834156186E+01  0.47932368930E-01  0.27463816440E+02  0.27659434721E+02  0.00000000000E+00 0.  1.
         16    1    3    3    0    0 -0.75171959759E+02  0.53438136151E+03 -0.14989469566E+03  0.56007381911E+03  0.00000000000E+00 0. -1.
    9900018    1    1    2    0    0  0.14313509246E+03  0.88964221057E+02 -0.31978655981E+03  0.37280143448E+03  0.91187600000E+02 0.  0.
<mgrwt>
<rscale>  0 0.89524212E+03</rscale>
<asrwt>0</asrwt>
<pdfrwt beam="1">  1        2 0.26640848E+00 0.17473500E+04</pdfrwt>
<pdfrwt beam="2">  1       -2 0.77731949E-01 0.17473500E+04</pdfrwt>
<totfact> 0.13121946E+01</totfact>
</mgrwt>
</event>
<event>
11    1  0.2619785E-011  0.3067254E+04  0.7818608E-02  0.8663485E-01
          3   -1    0    0  501    0  0.00000000000E+00  0.00000000000E+00  0.16668122225E+04  0.16668122225E+04  0.00000000000E+00 0. -1.
         -3   -1    0    0    0  501 -0.00000000000E+00 -0.00000000000E+00 -0.20443532649E+04  0.20443532649E+04  0.00000000000E+00 0.  1.
    9900016    2    1    2    0    0  0.49139643879E+03 -0.74290162757E+03  0.30651871017E+02  0.11428628795E+04  0.71541787494E+03 0.  0.
         23    2    3    3    0    0  0.14985908711E+03 -0.41037374506E+03 -0.32146397959E+03  0.55023472668E+03  0.92492203131E+02 0.  0.
        -15    1    4    4    0    0  0.14485491927E+02 -0.14164962253E+03 -0.13521020999E+03  0.19635744428E+03  0.00000000000E+00 0. -1.
        -15    1    1    2    0    0  0.49042989806E+02  0.59863438810E+02 -0.18670919974E+03  0.20211177952E+03  0.00000000000E+00 0.  1.
         15    1    1    2    0    0  0.26328411207E+03  0.20731267800E+03 -0.28565176819E+03  0.44033396734E+03  0.00000000000E+00 0. -1.
         15    1    4    4    0    0  0.13537359519E+03 -0.26872412253E+03 -0.18625376960E+03  0.35387728239E+03  0.00000000000E+00 0.  1.
        -16    1    3    3    0    0  0.34153735167E+03 -0.33252788251E+03  0.35211585061E+03  0.59262815279E+03  0.00000000000E+00 0.  1.
         16    1    1    2    0    0 -0.11925224301E+04  0.77794164185E+03  0.57659089262E+02  0.14250008824E+04  0.00000000000E+00 0. -1.
    9900018    1    1    2    0    0  0.38879888943E+03 -0.30221613109E+03  0.65089652387E+01  0.50085597864E+03  0.91187600000E+02 0.  0.
<mgrwt>
<rscale>  0 0.18827623E+04</rscale>
<asrwt>0</asrwt>
<pdfrwt beam="1">  1        3 0.25643265E+00 0.30672545E+04</pdfrwt>
<pdfrwt beam="2">  1       -3 0.31451589E+00 0.30672545E+04</pdfrwt>
<totfact> 0.45860941E-03</totfact>
</mgrwt>
</event>
<event>
11    1  0.2619784E-011  0.2042637E+04  0.7818608E-02  0.8866031E-01
          2   -1    0    0  501    0  0.00000000000E+00  0.00000000000E+00  0.27409410906E+04  0.27409410906E+04  0.00000000000E+00 0. -1.
         -2   -1    0    0    0  501 -0.00000000000E+00 -0.00000000000E+00 -0.13014746306E+04  0.13014746306E+04  0.00000000000E+00 0.  1.
    9900016    2    1    2    0    0 -0.56817327724E+03  0.12316662681E+03  0.15047803905E+04  0.17608208867E+04  0.70578699373E+03 0.  0.
         23    2    3    3    0    0 -0.10292093569E+03 -0.81996010365E+02 -0.13503700240E+02  0.15965317869E+03  0.89390843088E+02 0.  0.
        -15    1    4    4    0    0 -0.71287335461E+02 -0.53847637569E+02 -0.51191779165E+02  0.10296625915E+03  0.00000000000E+00 0. -1.
        -15    1    1    2    0    0 -0.14627794086E+03 -0.16871957300E+02 -0.61732363418E+03  0.63464192127E+03  0.00000000000E+00 0.  1.
         15    1    4    4    0    0 -0.31633600225E+02 -0.28148372796E+02  0.37688078925E+02  0.56686919544E+02  0.00000000000E+00 0.  1.
         15    1    1    2    0    0 -0.90878998933E+02  0.32877466408E+03 -0.17413189980E+03  0.38298001347E+03  0.00000000000E+00 0. -1.
        -16    1    1    2    0    0  0.77613905762E+03 -0.48792157869E+03  0.69449042433E+03  0.11501201038E+04  0.00000000000E+00 0.  1.
         16    1    3    3    0    0 -0.46525234155E+03  0.20516263718E+03  0.15182840907E+04  0.16011677080E+04  0.00000000000E+00 0. -1.
    9900018    1    1    2    0    0  0.29191159410E+02  0.52852245094E+02  0.31651179086E+02  0.11385279588E+03  0.91187600000E+02 0.  0.
<mgrwt>
<rscale>  0 0.15280199E+04</rscale>
<asrwt>0</asrwt>
<pdfrwt beam="1">  1        2 0.42168324E+00 0.20426367E+04</pdfrwt>
<pdfrwt beam="2">  1       -2 0.20022687E+00 0.20426367E+04</pdfrwt>
<totfact> 0.29653928E-01</totfact>
</mgrwt>
</event>
