<event>
11    1  0.1074250E-015  0.1079952E+04  0.7818608E-02  0.9224955E-01
         -2   -1    0    0    0  501 -0.00000000000E+00  0.00000000000E+00  0.22466760352E+03  0.22466760352E+03  0.00000000000E+00 0. -1.
          2   -1    0    0  501    0  0.00000000000E+00 -0.00000000000E+00 -0.12978020447E+04  0.12978020447E+04  0.00000000000E+00 0.  1.
    9900016    2    1    2    0    0 -0.11981802049E+03 -0.98877420330E+02 -0.10429380848E+04  0.13642137725E+04  0.86557857296E+03 0.  0.
         23    2    3    3    0    0 -0.21373139852E+03 -0.82978517325E+02 -0.23017563595E+03  0.34259585644E+03  0.10874075784E+03 0.  0.
        -15    1    4    4    0    0 -0.17816902370E+03 -0.45152373983E+02 -0.22483651006E+03  0.29040384663E+03  0.00000000000E+00 0.  1.
        -15    1    3    3    0    0 -0.48885027729E+01 -0.12937734990E+03 -0.15784861030E+03  0.20415332449E+03  0.00000000000E+00 0. -1.
         15    1    4    4    0    0 -0.35562374818E+02 -0.37826143342E+02 -0.53391258903E+01  0.52192009811E+02  0.00000000000E+00 0. -1.
         15    1    3    3    0    0  0.49329105423E+02 -0.50441400900E+01 -0.89880146321E+02  0.10265108228E+03  0.00000000000E+00 0.  1.
        -16    1    3    3    0    0 -0.10004705910E+03 -0.23783178349E+02 -0.44985498088E+03  0.46145916117E+03  0.00000000000E+00 0.  1.
         16    1    1    2    0    0  0.11981802049E+03  0.98877420330E+02 -0.30196356419E+02  0.15825587580E+03  0.00000000000E+00 0. -1.
    9900018    1    3    3    0    0  0.14951983447E+03  0.14230576534E+03 -0.11517871134E+03  0.25335434808E+03  0.91187600000E+02 0.  0.
<mgrwt>
<rscale>  0 0.10799520E+04</rscale>
<asrwt>0</asrwt>
<pdfrwt beam="1">  1        2 0.19966185E+00 0.10799520E+04</pdfrwt>
<pdfrwt beam="2">  1       -2 0.34564247E-01 0.10799520E+04</pdfrwt>
<totfact> 0.12918962E+02</totfact>
</mgrwt>
</event>
<event>
11    1  0.1074250E-015  0.1420599E+04  0.7818608E-02  0.8939042E-01
         -1   -1    0    0    0  501 -0.00000000000E+00  0.00000000000E+00  0.29338828259E+03  0.29338828259E+03  0.00000000000E+00 0.  1.
          1   -1    0    0  501    0  0.00000000000E+00 -0.00000000000E+00 -0.17196495843E+04  0.17196495843E+04  0.00000000000E+00 0. -1.
    9900016    2    1    2    0    0 -0.44249402796E+03  0.20091795663E+02 -0.61554081720E+03  0.10892021948E+04  0.78183519903E+03 0.  0.
         23    2    3    3    0    0 -0.20907261875E+01 -0.14072245106E+02  0.85021536419E+02  0.10993116689E+03  0.68218769999E+02 0.  0.
        -15    1    3    3    0    0 -0.52250463081E+02  0.47517926799E+02 -0.50113602722E+02  0.86599292360E+02  0.00000000000E+00 0.  1.
        -15    1    4    4    0    0 -0.19896764757E+02  0.60299601043E+01  0.22027182075E-01  0.20790434143E+02  0.00000000000E+00 0. -1.
         15    1    3    3    0    0  0.28667619968E+02 -0.38987275218E+02  0.22543826149E+02  0.53385992180E+02  0.00000000000E+00 0. -1.
         15    1    4    4    0    0  0.17806038570E+02 -0.20102205210E+02  0.84999509237E+02  0.89140732746E+02  0.00000000000E+00 0.  1.
        -16    1    3    3    0    0 -0.25878268577E+03 -0.57661892158E+02 -0.53109305392E+03  0.59359346710E+03  0.00000000000E+00 0.  1.
         16    1    1    2    0    0  0.44249402796E+03 -0.20091795663E+02 -0.81072048450E+03  0.92383567209E+03  0.00000000000E+00 0. -1.
    9900018    1    3    3    0    0 -0.15803777289E+03  0.83295281346E+02 -0.14189952313E+03  0.24569227626E+03  0.91187600000E+02 0.  0.
<mgrwt>
<rscale>  0 0.14205985E+04</rscale>
<asrwt>0</asrwt>
<pdfrwt beam="1">  1        1 0.26456148E+00 0.14205985E+04</pdfrwt>
<pdfrwt beam="2">  1       -1 0.45136658E-01 0.14205985E+04</pdfrwt>
<totfact> 0.21910175E+01</totfact>
</mgrwt>
</event>
<event>
10    1  0.1074250E-015  0.1970285E+04  0.7818608E-02  0.9456197E-01
         -2   -1    0    0    0  501 -0.00000000000E+00  0.00000000000E+00  0.85902472443E+03  0.85902472443E+03  0.00000000000E+00 0.  1.
          2   -1    0    0  501    0  0.00000000000E+00 -0.00000000000E+00 -0.12690175500E+04  0.12690175500E+04  0.00000000000E+00 0. -1.
         23    2    1    2    0    0 -0.10035401704E+03 -0.33321015177E+03  0.43026970911E+03  0.55858601136E+03  0.76068229396E+02 0.  0.
        -15    1    1    2    0    0 -0.37833236254E+02  0.16230310859E+02  0.25660696822E+02  0.48510288780E+02  0.00000000000E+00 0. -1.
        -15    1    3    3    0    0 -0.46279189795E+02 -0.60051472901E+02  0.69495581785E+02  0.10284735628E+03  0.00000000000E+00 0. -1.
         15    1    1    2    0    0 -0.66129888915E+01  0.33597674763E+02  0.39990252852E+02  0.52647466176E+02  0.00000000000E+00 0.  1.
         15    1    3    3    0    0 -0.54074827245E+02 -0.27315867887E+03  0.36077412733E+03  0.45573865508E+03  0.00000000000E+00 0.  1.
        -16    1    1    2    0    0  0.12028011208E+03 -0.73820235541E+02  0.28512210706E+02  0.14397804936E+03  0.00000000000E+00 0.  1.
         16    1    1    2    0    0 -0.40228950553E+03  0.19868513581E+03 -0.61269746921E+03  0.75941478668E+03  0.00000000000E+00 0. -1.
    9900018    1    1    2    0    0  0.42680963563E+03  0.15851726588E+03 -0.32172822587E+03  0.56490567210E+03  0.91187600000E+02 0.  0.
<mgrwt>
<rscale>  0 0.87591732E+03</rscale>
<asrwt>0</asrwt>
<pdfrwt beam="1">  1        2 0.19523347E+00 0.19702852E+04</pdfrwt>
<pdfrwt beam="2">  1       -2 0.13215765E+00 0.19702852E+04</pdfrwt>
<totfact> 0.66614235E+00</totfact>
</mgrwt>
</event>
<event>
11    1  0.1074250E-015  0.1407180E+04  0.7818608E-02  0.8948638E-01
         -2   -1    0    0    0  501 -0.00000000000E+00  0.00000000000E+00  0.35644337962E+03  0.35644337962E+03  0.00000000000E+00 0.  1.
          2   -1    0    0  501    0  0.00000000000E+00 -0.00000000000E+00 -0.13888286124E+04  0.13888286124E+04  0.00000000000E+00 0. -1.
    9900016    2    1    2    0    0  0.39910685807E+03 -0.12528671187E+03 -0.93909243930E+03  0.13166852567E+04  0.82266786218E+03 0.  0.
         23    2    3    3    0    0 -0.20216392928E+02 -0.20067724096E+03 -0.34081379538E+03  0.40940643141E+03  0.10382449314E+03 0.  0.
        -15    1    4    4    0    0  0.31841973963E+02 -0.17906771932E+02 -0.62658856743E+02  0.72530656382E+02  0.00000000000E+00 0. -1.
        -15    1    3    3    0    0  0.13596340861E+03  0.12220353762E+02 -0.11859819472E+03  0.18083394958E+03  0.00000000000E+00 0.  1.
         15    1    4    4    0    0 -0.52058366891E+02 -0.18277046903E+03 -0.27815493864E+03  0.33687577503E+03  0.00000000000E+00 0. -1.
         15    1    3    3    0    0 -0.40685350284E+02 -0.10190516065E+03 -0.84747614336E+02  0.13864385176E+03  0.00000000000E+00 0.  1.
        -16    1    1    2    0    0 -0.39910685807E+03  0.12528671187E+03 -0.93292793472E+02  0.42858673526E+03  0.00000000000E+00 0.  1.
         16    1    3    3    0    0  0.22169367890E+02  0.10766654764E+03 -0.14151583845E+03  0.17919346775E+03  0.00000000000E+00 0. -1.
    9900018    1    3    3    0    0  0.30187582478E+03  0.57408788339E+02 -0.25341699641E+03  0.40860755625E+03  0.91187600000E+02 0.  0.
<mgrwt>
<rscale>  0 0.14071798E+04</rscale>
<asrwt>0</asrwt>
<pdfrwt beam="1">  1        2 0.21366594E+00 0.14071798E+04</pdfrwt>
<pdfrwt beam="2">  1       -2 0.54837443E-01 0.14071798E+04</pdfrwt>
<totfact> 0.44682903E+01</totfact>
</mgrwt>
</event>
<event>
10    1  0.1074250E-015  0.1217497E+04  0.7818608E-02  0.9097678E-01
          1   -1    0    0  501    0  0.00000000000E+00  0.00000000000E+00  0.27543318800E+03  0.27543318800E+03  0.00000000000E+00 0. -1.
         -1   -1    0    0    0  501 -0.00000000000E+00 -0.00000000000E+00 -0.13454258421E+04  0.13454258421E+04  0.00000000000E+00 0.  1.
         23    2    1    2    0    0 -0.91021355976E+02  0.37761494663E+02 -0.18988074045E+03  0.23920690878E+03  0.10702537968E+03 0.  0.
        -15    1    3    3    0    0  0.18092809343E+02  0.26254091735E+02 -0.68678489399E+02  0.75718967167E+02  0.00000000000E+00 0. -1.
        -15    1    1    2    0    0 -0.56736869072E+02  0.48945044818E+02 -0.10638200266E+03  0.13012232789E+03  0.00000000000E+00 0.  1.
         15    1    3    3    0    0 -0.10911416532E+03  0.11507402928E+02 -0.12120225105E+03  0.16348794162E+03  0.00000000000E+00 0. -1.
         15    1    1    2    0    0  0.85981368611E+01 -0.14799230891E+02  0.23952865345E+02  0.29439513425E+02  0.00000000000E+00 0.  1.
        -16    1    1    2    0    0 -0.14143512867E+03 -0.31393959793E+01 -0.53604473918E+03  0.55439851535E+03  0.00000000000E+00 0.  1.
         16    1    1    2    0    0 -0.11313670601E+03 -0.14508593124E+03 -0.16047960918E+03  0.24413837604E+03  0.00000000000E+00 0. -1.
    9900018    1    1    2    0    0  0.39373192287E+03  0.76318018627E+02 -0.10115842796E+03  0.42355338860E+03  0.91187600000E+02 0.  0.
<mgrwt>
<rscale>  0 0.12174973E+04</rscale>
<asrwt>0</asrwt>
<pdfrwt beam="1">  1        1 0.42374337E-01 0.12174973E+04</pdfrwt>
<pdfrwt beam="2">  1       -1 0.20698859E+00 0.12174973E+04</pdfrwt>
<totfact> 0.13063382E+01</totfact>
</mgrwt>
</event>
<event>
11    1  0.1074250E-015  0.1791530E+04  0.7818608E-02  0.8710817E-01
          1   -1    0    0  501    0  0.00000000000E+00  0.00000000000E+00  0.80709172193E+03  0.80709172193E+03  0.00000000000E+00 0. -1.
         -1   -1    0    0    0  501 -0.00000000000E+00 -0.00000000000E+00 -0.99418060811E+03  0.99418060811E+03  0.00000000000E+00 0.  1.
    9900016    2    1    2    0    0  0.28044781685E+03  0.19335258067E+03 -0.49203666064E+02  0.73391762199E+03  0.64821129015E+03 0.  0.
         23    2    3    3    0    0  0.72575006073E+02 -0.10768337956E+02  0.16034515586E+02  0.98301556121E+02  0.63427136439E+02 0.  0.
        -15    1    4    4    0    0  0.11384874187E+02  0.19052141298E+02  0.20327400610E+02  0.30096555681E+02  0.00000000000E+00 0. -1.
        -15    1    3    3    0    0 -0.89257138538E+02  0.15156828268E+03  0.65212079474E+02  0.18759636565E+03  0.00000000000E+00 0.  1.
         15    1    3    3    0    0 -0.54171871421E+02  0.45943052352E+02  0.55645652302E+01  0.71248298918E+02  0.00000000000E+00 0.  1.
         15    1    4    4    0    0  0.61190131886E+02 -0.29820479254E+02 -0.42928850241E+01  0.68205000440E+02  0.00000000000E+00 0. -1.
        -16    1    3    3    0    0  0.35130182074E+03  0.66095835871E+01 -0.13601482635E+03  0.37677140130E+03  0.00000000000E+00 0.  1.
         16    1    1    2    0    0  0.18310405732E+03 -0.37458078753E+03  0.19642125054E+03  0.46088954193E+03  0.00000000000E+00 0. -1.
    9900018    1    1    2    0    0 -0.46355187417E+03  0.18122820686E+03 -0.33430647066E+03  0.60646516613E+03  0.91187600000E+02 0.  0.
<mgrwt>
<rscale>  0 0.17915300E+04</rscale>
<asrwt>0</asrwt>
<pdfrwt beam="1">  1        1 0.12416796E+00 0.17915300E+04</pdfrwt>
<pdfrwt beam="2">  1       -1 0.15295086E+00 0.17915300E+04</pdfrwt>
<totfact> 0.68122333E+00</totfact>
</mgrwt>
</event>
<event>
10    1  0.1074250E-015  0.1799965E+04  0.7818608E-02  0.8706318E-01
          2   -1    0    0  501    0  0.00000000000E+00  0.00000000000E+00  0.25418150938E+04  0.25418150938E+04  0.00000000000E+00 0. -1.
         -2   -1    0    0    0  501 -0.00000000000E+00 -0.00000000000E+00 -0.31865768062E+03  0.31865768062E+03  0.00000000000E+00 0.  1.
    9900016    2    1    2    0    0 -0.40254637093E+03 -0.60752210995E+03  0.11689760161E+04  0.15789014292E+04  0.77155563779E+03 0.  0.
        -15    1    3    3    0    0 -0.10172334417E+03 -0.18304541045E+03  0.17383404049E+03  0.27216086175E+03  0.00000000000E+00 0.  1.
        -15    1    3    3    0    0 -0.31214273397E+02 -0.67730144593E+02  0.13624165461E+02  0.75811089128E+02  0.00000000000E+00 0.  1.
         15    1    3    3    0    0 -0.20889849130E+03 -0.78287315744E+02  0.68092292131E+03  0.71653576899E+03  0.00000000000E+00 0. -1.
         15    1    3    3    0    0 -0.29472334240E+02 -0.21252648351E+02  0.50317163809E+02  0.62065372965E+02  0.00000000000E+00 0. -1.
        -16    1    1    2    0    0  0.40254637093E+03  0.60752210995E+03  0.10541813971E+04  0.12815713452E+04  0.00000000000E+00 0.  1.
         16    1    3    3    0    0  0.76969140667E+02 -0.66041084418E+02 -0.73694332339E+01  0.10168570201E+03  0.00000000000E+00 0. -1.
    9900018    1    3    3    0    0 -0.10820706850E+03 -0.19116550640E+03  0.25764715827E+03  0.35064263441E+03  0.91187600000E+02 0.  0.
<mgrwt>
<rscale>  0 0.17999654E+04</rscale>
<asrwt>0</asrwt>
<pdfrwt beam="1">  1        2 0.39104846E+00 0.17999654E+04</pdfrwt>
<pdfrwt beam="2">  1       -2 0.49024260E-01 0.17999654E+04</pdfrwt>
<totfact> 0.12258048E+01</totfact>
</mgrwt>
</event>
<event>
11    1  0.1074250E-015  0.1213194E+04  0.7818608E-02  0.9101386E-01
         -2   -1    0    0    0  501 -0.00000000000E+00  0.00000000000E+00  0.17696100034E+03  0.17696100034E+03  0.00000000000E+00 0.  1.
          2   -1    0    0  501    0  0.00000000000E+00 -0.00000000000E+00 -0.20793274284E+04  0.20793274284E+04  0.00000000000E+00 0. -1.
    9900016    2    1    2    0    0 -0.13067090443E+03  0.24788667177E+03 -0.98550882500E+03  0.12975650319E+04  0.79619387125E+03 0.  0.
         23    2    3    3    0    0  0.38224390474E+02 -0.46507355740E+02 -0.16872926489E+03  0.19369703965E+03  0.73654193193E+02 0.  0.
        -15    1    3    3    0    0  0.30030360954E+02  0.51742601659E+02 -0.78326451175E+02  0.98560399548E+02  0.00000000000E+00 0.  1.
        -15    1    4    4    0    0 -0.22040374706E+02 -0.11090336785E+02 -0.53645811886E+02  0.59047835016E+02  0.00000000000E+00 0. -1.
         15    1    3    3    0    0 -0.18525706945E+01  0.11017685586E+03 -0.42550613751E+03  0.43954276771E+03  0.00000000000E+00 0.  1.
         15    1    4    4    0    0  0.60264765181E+02 -0.35417018955E+02 -0.11508345300E+03  0.13464920464E+03  0.00000000000E+00 0. -1.
        -16    1    3    3    0    0 -0.27637932871E+03  0.10985926173E+03 -0.32699360040E+03  0.44201742661E+03  0.00000000000E+00 0.  1.
         16    1    1    2    0    0  0.13067090443E+03 -0.24788667177E+03 -0.91685760305E+03  0.95872339680E+03  0.00000000000E+00 0. -1.
    9900018    1    3    3    0    0  0.79306243545E+02  0.22615308270E+02  0.14046628968E+02  0.12374739841E+03  0.91187600000E+02 0.  0.
<mgrwt>
<rscale>  0 0.12131939E+04</rscale>
<asrwt>0</asrwt>
<pdfrwt beam="1">  1        2 0.31989653E+00 0.12131939E+04</pdfrwt>
<pdfrwt beam="2">  1       -2 0.27224769E-01 0.12131939E+04</pdfrwt>
<totfact> 0.73170188E+01</totfact>
</mgrwt>
</event>
<event>
10    1  0.1074250E-015  0.1633079E+04  0.7818608E-02  0.9503558E-01
         -1   -1    0    0    0  501 -0.00000000000E+00  0.00000000000E+00  0.17402549928E+04  0.17402549928E+04  0.00000000000E+00 0.  1.
          1   -1    0    0  501    0  0.00000000000E+00 -0.00000000000E+00 -0.50207067929E+03  0.50207067929E+03  0.00000000000E+00 0. -1.
         23    2    1    2    0    0 -0.65124145220E+01  0.30430613346E+02  0.38128098389E+03  0.39808296335E+03  0.11012004023E+03 0.  0.
        -15    1    1    2    0    0  0.14401051101E+02 -0.15212145302E+02  0.24104042916E+02  0.31934378378E+02  0.00000000000E+00 0. -1.
        -15    1    3    3    0    0  0.50049861266E+02  0.27382677661E+02  0.16875111842E+03  0.17813404957E+03  0.00000000000E+00 0.  1.
         15    1    1    2    0    0  0.84784992975E+02  0.70238154106E+02  0.86147543012E+02  0.13979732649E+03  0.00000000000E+00 0. -1.
         15    1    3    3    0    0 -0.56562275788E+02  0.30479356857E+01  0.21252986548E+03  0.21994891378E+03  0.00000000000E+00 0.  1.
        -16    1    1    2    0    0 -0.34217022021E+01  0.36555060493E+03  0.83308016999E+03  0.90975904637E+03  0.00000000000E+00 0.  1.
         16    1    1    2    0    0  0.12243804253E+02  0.14378751095E+03  0.11227001688E+02  0.14474392773E+03  0.00000000000E+00 0. -1.
    9900018    1    1    2    0    0 -0.10149573160E+03 -0.59479473803E+03 -0.97655427953E+02  0.61800802982E+03  0.91187600000E+02 0.  0.
<mgrwt>
<rscale>  0 0.84022005E+03</rscale>
<asrwt>0</asrwt>
<pdfrwt beam="1">  1        1 0.77241644E-01 0.16330793E+04</pdfrwt>
<pdfrwt beam="2">  1       -1 0.26773153E+00 0.16330793E+04</pdfrwt>
<totfact> 0.22454866E+00</totfact>
</mgrwt>
</event>
