<event>
12    1  0.2296003E-010  0.2132715E+04  0.7818608E-02  0.9044070E-01
          2   -1    0    0  501    0  0.00000000000E+00  0.00000000000E+00  0.93315086967E+03  0.93315086967E+03  0.00000000000E+00 0. -1.
         -2   -1    0    0    0  501 -0.00000000000E+00 -0.00000000000E+00 -0.15941351878E+04  0.15941351878E+04  0.00000000000E+00 0.  1.
         23    2    1    2    0    0 -0.22168366849E+03  0.14047211381E+03 -0.20677780067E+03  0.34674100856E+03  0.92715718900E+02 0.  0.
    9900016    2    1    2    0    0 -0.14891462010E+03 -0.49551901575E+02 -0.35626531553E+03  0.80560534139E+03  0.70529712604E+03 0.  0.
         23    2    4    4    0    0  0.20280903865E+03  0.18113556812E+03 -0.64308719477E+02  0.29358493675E+03  0.90082759096E+02 0.  0.
        -15    1    5    5    0    0  0.77897604324E+02  0.66674375397E+02  0.19805082719E+02  0.10443060086E+03  0.00000000000E+00 0.  1.
        -15    1    3    3    0    0 -0.15813304683E+03  0.12348310604E+03 -0.10742250714E+03  0.22758236535E+03  0.00000000000E+00 0.  1.
         15    1    5    5    0    0  0.12491143432E+03  0.11446119273E+03 -0.84113802196E+02  0.18915433589E+03  0.00000000000E+00 0. -1.
         15    1    3    3    0    0 -0.63550621662E+02  0.16989007770E+02 -0.99355293537E+02  0.11915864321E+03  0.00000000000E+00 0. -1.
        -16    1    4    4    0    0 -0.35172365874E+03 -0.23068746970E+03 -0.29195659606E+03  0.51202040465E+03  0.00000000000E+00 0.  1.
         16    1    1    2    0    0  0.31422620918E+03  0.44608316690E+03  0.36616886422E+03  0.65712094735E+03  0.00000000000E+00 0. -1.
    9900018    1    1    2    0    0  0.56372079413E+02 -0.53700337913E+03 -0.46411006611E+03  0.71781876013E+03  0.91187600000E+02 0.  0.
<mgrwt>
<rscale>  0 0.12818668E+04</rscale>
<asrwt>0</asrwt>
<pdfrwt beam="1">  1        2 0.14356167E+00 0.21327150E+04</pdfrwt>
<pdfrwt beam="2">  1       -2 0.24525156E+00 0.21327150E+04</pdfrwt>
<totfact> 0.17431680E+00</totfact>
</mgrwt>
</event>
<event>
12    1  0.2296003E-010  0.1885098E+04  0.7818608E-02  0.9063387E-01
          2   -1    0    0  501    0  0.00000000000E+00  0.00000000000E+00  0.39328462322E+04  0.39328462322E+04  0.00000000000E+00 0. -1.
         -2   -1    0    0    0  501 -0.00000000000E+00 -0.00000000000E+00 -0.36254097946E+03  0.36254097946E+03  0.00000000000E+00 0.  1.
         23    2    1    2    0    0  0.29675902581E+03  0.20861493619E+03  0.12557830584E+04  0.13103230364E+04  0.91483653378E+02 0.  0.
    9900016    2    1    2    0    0 -0.73123313200E+02  0.24354254502E+02  0.38142015260E+03  0.81000057212E+03  0.71040794293E+03 0.  0.
         23    2    4    4    0    0 -0.98813124752E+02  0.19161300191E+03  0.53340932647E+03  0.58254472151E+03  0.91396208228E+02 0.  0.
        -15    1    3    3    0    0  0.17332385956E+03  0.17352194884E+03  0.85674375062E+03  0.89115704634E+03  0.00000000000E+00 0. -1.
        -15    1    5    5    0    0 -0.27210343340E+02  0.35052139737E+02  0.39202541727E+02  0.59210595020E+02  0.00000000000E+00 0.  1.
         15    1    5    5    0    0 -0.71602781411E+02  0.15656086217E+03  0.49420678474E+03  0.52333412649E+03  0.00000000000E+00 0. -1.
         15    1    3    3    0    0  0.12343516625E+03  0.35092987356E+02  0.39903930778E+03  0.41916599001E+03  0.00000000000E+00 0.  1.
        -16    1    4    4    0    0  0.25689811552E+02 -0.16725874741E+03 -0.15198917387E+03  0.22745585060E+03  0.00000000000E+00 0.  1.
         16    1    1    2    0    0 -0.28104602126E+03 -0.27341578000E+03  0.20025919607E+04  0.20406169694E+04  0.00000000000E+00 0. -1.
    9900018    1    1    2    0    0  0.57410308652E+02  0.40446589304E+02 -0.69489918891E+02  0.13444663383E+03  0.91187600000E+02 0.  0.
<mgrwt>
<rscale>  0 0.12581985E+04</rscale>
<asrwt>0</asrwt>
<pdfrwt beam="1">  1        2 0.60505324E+00 0.18850982E+04</pdfrwt>
<pdfrwt beam="2">  1       -2 0.55775538E-01 0.18850982E+04</pdfrwt>
<totfact> 0.11005059E+00</totfact>
</mgrwt>
</event>
<event>
12    1  0.2296003E-010  0.1970807E+04  0.7818608E-02  0.9259124E-01
          1   -1    0    0  501    0  0.00000000000E+00  0.00000000000E+00  0.14946761165E+04  0.14946761165E+04  0.00000000000E+00 0. -1.
         -1   -1    0    0    0  501 -0.00000000000E+00 -0.00000000000E+00 -0.92458742811E+03  0.92458742811E+03  0.00000000000E+00 0.  1.
         23    2    1    2    0    0 -0.70168984831E+02  0.10689339699E+03 -0.24155244132E+03  0.28786929441E+03  0.90395044131E+02 0.  0.
    9900016    2    1    2    0    0 -0.59345840586E+02  0.32618859737E+02  0.32091252926E+03  0.76413992996E+03  0.69017321183E+03 0.  0.
         23    2    4    4    0    0 -0.23281074694E+03  0.19903415598E+03  0.39916930904E+03  0.51133912272E+03  0.91192773913E+02 0.  0.
        -15    1    3    3    0    0 -0.90665751103E+02  0.77860235534E+02 -0.16788565033E+03  0.20607786462E+03  0.00000000000E+00 0. -1.
        -15    1    5    5    0    0 -0.12299702935E+03  0.14222617469E+03  0.29417600018E+03  0.34913618128E+03  0.00000000000E+00 0.  1.
         15    1    5    5    0    0 -0.10981371758E+03  0.56807981288E+02  0.10499330886E+03  0.16220294144E+03  0.00000000000E+00 0. -1.
         15    1    3    3    0    0  0.20496766272E+02  0.29033161459E+02 -0.73666790993E+02  0.81791429791E+02  0.00000000000E+00 0.  1.
        -16    1    1    2    0    0  0.13719904385E+03  0.81786711173E+02 -0.40748170977E+03  0.43766881035E+03  0.00000000000E+00 0.  1.
         16    1    4    4    0    0  0.17346490635E+03 -0.16641529624E+03 -0.78256779781E+02  0.25280080724E+03  0.00000000000E+00 0. -1.
    9900018    1    1    2    0    0 -0.76842184309E+01 -0.22129896790E+03  0.89821031026E+03  0.92958550993E+03  0.91187600000E+02 0.  0.
<mgrwt>
<rscale>  0 0.10463468E+04</rscale>
<asrwt>0</asrwt>
<pdfrwt beam="1">  1        1 0.22995017E+00 0.19708070E+04</pdfrwt>
<pdfrwt beam="2">  1       -1 0.14224422E+00 0.19708070E+04</pdfrwt>
<totfact> 0.24408731E+00</totfact>
</mgrwt>
</event>
