<event>
13    1  0.1190415E-010  0.5169380E+04  0.7818608E-02  0.7802897E-01
         -3   -1    0    0    0  501 -0.00000000000E+00  0.00000000000E+00  0.34675493351E+04  0.34675493351E+04  0.00000000000E+00 0.  1.
          3   -1    0    0  501    0  0.00000000000E+00 -0.00000000000E+00 -0.19266117439E+04  0.19266117439E+04  0.00000000000E+00 0. -1.
    9900016    2    1    2    0    0  0.69119887539E+03  0.47404258083E+03 -0.13376697914E+03  0.23612624864E+04  0.22034506283E+04 0.  0.
         23    2    3    3    0    0  0.39005407014E+03 -0.21073817847E+03  0.94468640290E+03  0.10487555039E+04  0.10441719012E+03 0.  0.
    9900016    2    1    2    0    0 -0.39619102648E+03 -0.26618177215E+03  0.15415949873E+04  0.26375897435E+04  0.20862752658E+04 0.  0.
        -24    2    5    5    0    0  0.20381645556E+03 -0.22796242855E+03  0.19075868246E+04  0.19337291595E+04  0.83144165878E+02 0.  0.
        -15    1    5    5    0    0 -0.60000748204E+03 -0.38219343602E+02 -0.36599183732E+03  0.70386058400E+03  0.00000000000E+00 0.  1.
        -15    1    4    4    0    0  0.66103267021E+02 -0.57589910527E+02  0.11192516702E+03  0.14217412816E+03  0.00000000000E+00 0.  1.
         15    1    4    4    0    0  0.32395080312E+03 -0.15314826794E+03  0.83276123588E+03  0.90658137572E+03  0.00000000000E+00 0. -1.
         15    1    6    6    0    0  0.10683920276E+03 -0.17315044461E+03  0.11243535656E+04  0.11426139471E+04  0.00000000000E+00 0. -1.
        -16    1    6    6    0    0  0.96977252795E+02 -0.54811983944E+02  0.78323325907E+03  0.79111521238E+03  0.00000000000E+00 0.  1.
         16    1    3    3    0    0  0.30114480524E+03  0.68478075929E+03 -0.10784533820E+04  0.13125069825E+04  0.00000000000E+00 0. -1.
    9900018    1    1    2    0    0 -0.29500784890E+03 -0.20786080867E+03  0.13310958305E+03  0.39530884912E+03  0.91187600000E+02 0.  0.
<mgrwt>
<rscale>  0 0.51693796E+04</rscale>
<asrwt>0</asrwt>
<pdfrwt beam="1">  1        3 0.29640181E+00 0.51693796E+04</pdfrwt>
<pdfrwt beam="2">  1       -3 0.53346913E+00 0.51693796E+04</pdfrwt>
<totfact> 0.15097004E-04</totfact>
</mgrwt>
</event>
<event>
11    1  0.1190415E-010  0.5758618E+04  0.7818608E-02  0.7721072E-01
         -1   -1    0    0    0  501 -0.00000000000E+00  0.00000000000E+00  0.21700522967E+04  0.21700522967E+04  0.00000000000E+00 0.  1.
          1   -1    0    0  501    0  0.00000000000E+00 -0.00000000000E+00 -0.38203776621E+04  0.38203776621E+04  0.00000000000E+00 0. -1.
    9900016    2    1    2    0    0 -0.32233465686E+03  0.45783959285E+03 -0.24942221457E+04  0.33677389933E+04  0.21924883332E+04 0.  0.
        -24    2    1    2    0    0 -0.80977959763E+03 -0.27943715753E+03 -0.29470403408E+03  0.90933475040E+03  0.78810524859E+02 0.  0.
        -15    1    3    3    0    0 -0.97735637440E+02 -0.39931257190E+03 -0.65193159037E+03  0.77072536187E+03  0.00000000000E+00 0.  1.
        -15    1    1    2    0    0  0.52384786847E+03  0.73053406196E+01  0.87299718407E+03  0.10181326243E+04  0.00000000000E+00 0.  1.
         15    1    3    3    0    0 -0.79376369677E+02 -0.32401780349E+03 -0.11983177517E+04  0.12438864816E+04  0.00000000000E+00 0. -1.
         15    1    4    4    0    0 -0.19273451880E+03 -0.98848663050E+02 -0.90566876973E+02  0.23477651528E+03  0.00000000000E+00 0. -1.
        -16    1    4    4    0    0 -0.61704507883E+03 -0.18058849448E+03 -0.20413715711E+03  0.67455823512E+03  0.00000000000E+00 0.  1.
         16    1    3    3    0    0 -0.14522264975E+03  0.11811699682E+04 -0.64397280367E+03  0.13531271499E+04  0.00000000000E+00 0. -1.
    9900018    1    1    2    0    0  0.60826638602E+03 -0.18570777593E+03  0.26560363034E+03  0.69522359083E+03  0.91187600000E+02 0.  0.
<mgrwt>
<rscale>  0 0.57586177E+04</rscale>
<asrwt>0</asrwt>
<pdfrwt beam="1">  1        1 0.58775041E+00 0.57586177E+04</pdfrwt>
<pdfrwt beam="2">  1       -1 0.33385420E+00 0.57586177E+04</pdfrwt>
<totfact> 0.18467176E-03</totfact>
</mgrwt>
</event>
<event>
13    1  0.1190415E-010  0.5899668E+04  0.7818608E-02  0.7702968E-01
         -2   -1    0    0    0  501 -0.00000000000E+00  0.00000000000E+00  0.20522368653E+04  0.20522368653E+04  0.00000000000E+00 0.  1.
          2   -1    0    0  501    0  0.00000000000E+00 -0.00000000000E+00 -0.42400174507E+04  0.42400174507E+04  0.00000000000E+00 0. -1.
    9900016    2    1    2    0    0 -0.13193019612E+04  0.21288061576E+03 -0.25680237797E+04  0.36367365374E+04  0.22011884716E+04 0.  0.
         23    2    3    3    0    0  0.41986887413E+03  0.54590092730E+03 -0.29853277677E+03  0.75815926118E+03  0.10670497940E+03 0.  0.
    9900016    2    1    2    0    0  0.13193019612E+04 -0.21288061576E+03  0.38024319433E+03  0.26555177787E+04  0.22630320291E+04 0.  0.
        -24    2    5    5    0    0 -0.56111976969E+03  0.79481242106E+02  0.46830410971E+03  0.73880117902E+03  0.73114835508E+02 0.  0.
        -15    1    4    4    0    0  0.38840876968E+03  0.44366432509E+03 -0.24483025077E+03  0.63846789850E+03  0.00000000000E+00 0.  1.
        -15    1    5    5    0    0  0.15059801469E+04 -0.22185754183E+03 -0.90587251968E+02  0.15249272186E+04  0.00000000000E+00 0.  1.
         15    1    4    4    0    0  0.31460104449E+02  0.10223660221E+03 -0.53702526002E+02  0.11969136269E+03  0.00000000000E+00 0. -1.
         15    1    6    6    0    0 -0.15960180528E+03  0.54464696037E+02  0.15233377735E+03  0.22725474491E+03  0.00000000000E+00 0. -1.
        -16    1    6    6    0    0 -0.40151796441E+03  0.25016546070E+02  0.31597033236E+03  0.51154643411E+03  0.00000000000E+00 0.  1.
         16    1    3    3    0    0 -0.17391708353E+04 -0.33302031154E+03 -0.22694910030E+04  0.28785772762E+04  0.00000000000E+00 0. -1.
    9900018    1    5    5    0    0  0.37444158393E+03 -0.70504316035E+02  0.25263365941E+01  0.39178938108E+03  0.91187600000E+02 0.  0.
<mgrwt>
<rscale>  0 0.58996678E+04</rscale>
<asrwt>0</asrwt>
<pdfrwt beam="1">  1        2 0.65231038E+00 0.58996678E+04</pdfrwt>
<pdfrwt beam="2">  1       -2 0.31572875E+00 0.58996678E+04</pdfrwt>
<totfact> 0.36731068E-03</totfact>
</mgrwt>
</event>
<event>
12    1  0.1190415E-010  0.5761420E+04  0.7818608E-02  0.7720708E-01
          1   -1    0    0  501    0  0.00000000000E+00  0.00000000000E+00  0.35320058745E+04  0.35320058745E+04  0.00000000000E+00 0. -1.
         -1   -1    0    0    0  501 -0.00000000000E+00 -0.00000000000E+00 -0.23495119236E+04  0.23495119236E+04  0.00000000000E+00 0.  1.
    9900016    2    1    2    0    0 -0.90122664474E+03  0.15835658627E+03  0.21306250928E+04  0.31949250845E+04  0.21978846047E+04 0.  0.
    9900016    2    1    2    0    0  0.90122664474E+03 -0.15835658627E+03 -0.94813114198E+03  0.26865927136E+04  0.23412692013E+04 0.  0.
        -24    2    4    4    0    0 -0.38307537081E+03  0.13896242534E+03  0.10242895798E+03  0.42784187528E+03  0.80620614191E+02 0.  0.
        -15    1    3    3    0    0  0.12606288640E+03 -0.17603673828E+03 -0.78156032975E+02  0.23019372286E+03  0.00000000000E+00 0.  1.
        -15    1    4    4    0    0  0.82183157266E+03  0.43283436004E+03 -0.10334085597E+04  0.13894912624E+04  0.00000000000E+00 0.  1.
         15    1    3    3    0    0  0.21996284275E+03 -0.30932882104E+03  0.40367771834E+02  0.38170345652E+03  0.00000000000E+00 0. -1.
         15    1    5    5    0    0 -0.14335505299E+03  0.11314799443E+02  0.33949894781E+02  0.14775415818E+03  0.00000000000E+00 0. -1.
        -16    1    5    5    0    0 -0.23972031782E+03  0.12764762590E+03  0.68479063200E+02  0.28008771710E+03  0.00000000000E+00 0.  1.
         16    1    3    3    0    0 -0.12472523739E+04  0.64372214559E+03  0.21684133540E+04  0.25830279051E+04  0.00000000000E+00 0. -1.
    9900018    1    4    4    0    0  0.46247044289E+03 -0.73015337165E+03 -0.17151540314E+02  0.86925957597E+03  0.91187600000E+02 0.  0.
<mgrwt>
<rscale>  0 0.57614199E+04</rscale>
<asrwt>0</asrwt>
<pdfrwt beam="1">  1        1 0.54338552E+00 0.57614199E+04</pdfrwt>
<pdfrwt beam="2">  1       -1 0.36146337E+00 0.57614199E+04</pdfrwt>
<totfact> 0.20879492E-03</totfact>
</mgrwt>
</event>
