<event>
11    1  0.8514742E-013  0.6278142E+04  0.7818608E-02  0.7656841E-01
          2   -1    0    0  501    0  0.00000000000E+00  0.00000000000E+00  0.43757117233E+04  0.43757117233E+04  0.00000000000E+00 0.  1.
         -2   -1    0    0    0  501 -0.00000000000E+00 -0.00000000000E+00 -0.22519229164E+04  0.22519229164E+04  0.00000000000E+00 0. -1.
    9900016    2    1    2    0    0  0.12080132751E+04 -0.60482251809E+03  0.45152168569E+03  0.25094909514E+04  0.20660509798E+04 0.  0.
         24    2    3    3    0    0  0.12011121522E+04  0.45881763688E+02  0.10704492479E+04  0.16114180060E+04  0.77658608350E+02 0.  0.
        -15    1    1    2    0    0  0.33360423277E+03  0.10677256661E+04  0.21053759752E+03  0.11382688444E+04  0.00000000000E+00 0.  1.
        -15    1    4    4    0    0  0.15164936914E+03  0.28124047570E+02  0.15522020366E+03  0.21881911442E+03  0.00000000000E+00 0.  1.
         15    1    1    2    0    0 -0.15664850585E+04 -0.10425100940E+04  0.80635078611E+03  0.20471698330E+04  0.00000000000E+00 0. -1.
         15    1    3    3    0    0  0.69011229059E+01 -0.65070428178E+03 -0.61892756224E+03  0.89807294533E+03  0.00000000000E+00 0. -1.
        -16    1    1    2    0    0  0.78173224982E+02  0.29039558073E+03  0.51034073245E+03  0.59235826120E+03  0.00000000000E+00 0.  1.
         16    1    4    4    0    0  0.10494627830E+04  0.17757716118E+02  0.91522904427E+03  0.13925988916E+04  0.00000000000E+00 0. -1.
    9900018    1    1    2    0    0 -0.53305674312E+02  0.28921136527E+03  0.14503800509E+03  0.34034674970E+03  0.91187600000E+02 0.  0.
<mgrwt>
<rscale>  0 0.62781416E+04</rscale>
<asrwt>0</asrwt>
<pdfrwt beam="1">  1        2 0.67318642E+00 0.62781416E+04</pdfrwt>
<pdfrwt beam="2">  1       -2 0.34644968E+00 0.62781416E+04</pdfrwt>
<totfact> 0.17276438E-03</totfact>
</mgrwt>
</event>
<event>
10    1  0.8514742E-013  0.6442438E+04  0.7818608E-02  0.7637841E-01
          2   -1    0    0  501    0  0.00000000000E+00  0.00000000000E+00  0.25467939923E+04  0.25467939923E+04  0.00000000000E+00 0. -1.
         -2   -1    0    0    0  501 -0.00000000000E+00 -0.00000000000E+00 -0.40742408391E+04  0.40742408391E+04  0.00000000000E+00 0.  1.
         24    2    1    2    0    0 -0.67282123057E+03  0.75968442785E+03 -0.22832523235E+03  0.10431269302E+04  0.78565530197E+02 0.  0.
        -15    1    1    2    0    0  0.77707249759E+03  0.86681999975E+02  0.52341559661E+03  0.94091408875E+03  0.00000000000E+00 0.  1.
        -15    1    3    3    0    0 -0.19781571534E+03  0.26034299209E+03 -0.45615648235E+02  0.33013681729E+03  0.00000000000E+00 0.  1.
         15    1    1    2    0    0  0.86809311565E+02  0.30501862067E+03  0.81583875204E+03  0.87530856552E+03  0.00000000000E+00 0. -1.
         15    1    1    2    0    0  0.24906477761E+03 -0.80463050560E+03  0.48213451958E+02  0.84367532318E+03  0.00000000000E+00 0. -1.
        -16    1    1    2    0    0 -0.63392160312E+03 -0.45709830921E+03 -0.13501957351E+04  0.15600717889E+04  0.00000000000E+00 0.  1.
         16    1    3    3    0    0 -0.47500551523E+03  0.49934143576E+03 -0.18270958412E+03  0.71299011290E+03  0.00000000000E+00 0. -1.
    9900018    1    1    2    0    0  0.19379624693E+03  0.11034376631E+03 -0.13363936800E+04  0.13579381349E+04  0.91187600000E+02 0.  0.
<mgrwt>
<rscale>  0 0.64424381E+04</rscale>
<asrwt>0</asrwt>
<pdfrwt beam="1">  1        2 0.39181446E+00 0.64424381E+04</pdfrwt>
<pdfrwt beam="2">  1       -2 0.62680628E+00 0.64424381E+04</pdfrwt>
<totfact> 0.88043185E-04</totfact>
</mgrwt>
</event>
<event>
11    1  0.8514742E-013  0.3417063E+04  0.7818608E-02  0.8514008E-01
          3   -1    0    0  501    0  0.00000000000E+00  0.00000000000E+00  0.19807701491E+04  0.19807701491E+04  0.00000000000E+00 0. -1.
         -3   -1    0    0    0  501 -0.00000000000E+00 -0.00000000000E+00 -0.20506006874E+04  0.20506006874E+04  0.00000000000E+00 0.  1.
    9900016    2    1    2    0    0 -0.42451099508E+03  0.17416848807E+03  0.92261946134E+03  0.25070595443E+04  0.22855145244E+04 0.  0.
         24    2    3    3    0    0  0.15389765127E+03 -0.46789853748E+03  0.12287312035E+04  0.13259634794E+04  0.76060830242E+02 0.  0.
        -15    1    1    2    0    0  0.69132922478E+02 -0.92974252648E+01 -0.26289592480E+03  0.27199277631E+03  0.00000000000E+00 0.  1.
        -15    1    4    4    0    0  0.14088795496E+03 -0.33429045861E+03  0.85131305198E+03  0.92538286079E+03  0.00000000000E+00 0.  1.
         15    1    1    2    0    0  0.82255862364E+02 -0.30611172707E+03  0.12759423598E+03  0.34168802349E+03  0.00000000000E+00 0. -1.
         15    1    3    3    0    0 -0.31400955440E+03  0.53722063236E+02 -0.41232420802E+03  0.52105595943E+03  0.00000000000E+00 0. -1.
        -16    1    1    2    0    0  0.27312221023E+03  0.14124066426E+03 -0.85714831083E+03  0.91063049242E+03  0.00000000000E+00 0.  1.
         16    1    4    4    0    0  0.13009696308E+02 -0.13360807887E+03  0.37741815152E+03  0.40058061864E+03  0.00000000000E+00 0. -1.
    9900018    1    3    3    0    0 -0.26439909195E+03  0.58834496232E+03  0.10621246587E+03  0.66004010546E+03  0.91187600000E+02 0.  0.
<mgrwt>
<rscale>  0 0.22106511E+04</rscale>
<asrwt>0</asrwt>
<pdfrwt beam="1">  1        3 0.30473387E+00 0.34170629E+04</pdfrwt>
<pdfrwt beam="2">  1       -3 0.31547703E+00 0.34170629E+04</pdfrwt>
<totfact> 0.23572752E-03</totfact>
</mgrwt>
</event>
<event>
11    1  0.8514742E-013  0.3639126E+04  0.7818608E-02  0.8275221E-01
         -2   -1    0    0    0  501 -0.00000000000E+00  0.00000000000E+00  0.16044502790E+04  0.16044502790E+04  0.00000000000E+00 0.  1.
          2   -1    0    0  501    0  0.00000000000E+00 -0.00000000000E+00 -0.40559761418E+04  0.40559761418E+04  0.00000000000E+00 0. -1.
    9900016    2    1    2    0    0  0.68576823285E+03 -0.12845182176E+04 -0.86482656685E+03  0.28436907718E+04  0.22843789296E+04 0.  0.
        -24    2    3    3    0    0 -0.13099338583E+03 -0.41388965964E+03  0.45650181728E+03  0.63491030755E+03  0.79077632528E+02 0.  0.
        -15    1    1    2    0    0  0.44301202997E+03  0.12470716371E+03 -0.28897922832E+03  0.54343401603E+03  0.00000000000E+00 0.  1.
        -15    1    3    3    0    0  0.44475546294E+03  0.27422410959E+03 -0.62683686512E+03  0.81604579502E+03  0.00000000000E+00 0.  1.
         15    1    4    4    0    0 -0.10703190203E+03 -0.20752524221E+03  0.23885572730E+03  0.33402786211E+03  0.00000000000E+00 0. -1.
         15    1    1    2    0    0 -0.49844020421E+03  0.83545438194E+03 -0.24342096543E+03  0.10028361920E+04  0.00000000000E+00 0. -1.
        -16    1    4    4    0    0 -0.23961483802E+02 -0.20636441743E+03  0.21764608999E+03  0.30088244544E+03  0.00000000000E+00 0.  1.
         16    1    1    2    0    0 -0.63034005861E+03  0.32435667197E+03 -0.10542991022E+04  0.12704654411E+04  0.00000000000E+00 0. -1.
    9900018    1    3    3    0    0  0.37200615575E+03 -0.11448526676E+04 -0.69449151901E+03  0.13927346692E+04  0.91187600000E+02 0.  0.
<mgrwt>
<rscale>  0 0.28921366E+04</rscale>
<asrwt>0</asrwt>
<pdfrwt beam="1">  1        2 0.62399633E+00 0.36391260E+04</pdfrwt>
<pdfrwt beam="2">  1       -2 0.24683850E+00 0.36391260E+04</pdfrwt>
<totfact> 0.16041562E-02</totfact>
</mgrwt>
</event>
