<event>
12    1  0.2206705E-014  0.2790209E+04  0.7818608E-02  0.8867508E-01
          2   -1    0    0  501    0  0.00000000000E+00  0.00000000000E+00  0.22165717145E+04  0.22165717145E+04  0.00000000000E+00 0. -1.
         -2   -1    0    0    0  501 -0.00000000000E+00 -0.00000000000E+00 -0.10631097084E+04  0.10631097084E+04  0.00000000000E+00 0.  1.
         23    2    1    2    0    0  0.23387653264E+03 -0.40812629399E+02  0.23356383730E+03  0.34174339844E+03  0.76632767422E+02 0.  0.
    9900016    2    1    2    0    0  0.20552618866E+03 -0.19633081735E+03  0.10047554009E+04  0.24314673780E+04  0.21958400193E+04 0.  0.
         24    2    4    4    0    0  0.38533946860E+03 -0.48549628779E+03  0.17864253918E+03  0.65007090255E+03  0.80534899357E+02 0.  0.
        -15    1    3    3    0    0  0.80807889861E+02  0.14168224048E+02  0.48243991668E+02  0.95174242149E+02  0.00000000000E+00 0.  1.
        -15    1    5    5    0    0  0.62677403969E+02 -0.98476274385E+02  0.40528611625E+01  0.11680093865E+03  0.00000000000E+00 0.  1.
         15    1    3    3    0    0  0.15306864278E+03 -0.54980853447E+02  0.18531984563E+03  0.24656915629E+03  0.00000000000E+00 0. -1.
         15    1    4    4    0    0 -0.48337334467E+03  0.71290067681E+02 -0.31222134930E+03  0.57983983569E+03  0.00000000000E+00 0. -1.
        -16    1    1    2    0    0 -0.43940272131E+03  0.23714344675E+03 -0.84857232141E+02  0.50647064641E+03  0.00000000000E+00 0.  1.
         16    1    5    5    0    0  0.32266206463E+03 -0.38702001340E+03  0.17458967802E+03  0.53326996390E+03  0.00000000000E+00 0. -1.
    9900018    1    4    4    0    0  0.30356006474E+03  0.21787540276E+03  0.11383342111E+04  0.12015566397E+04  0.91187600000E+02 0.  0.
<mgrwt>
<rscale>  0 0.15257494E+04</rscale>
<asrwt>0</asrwt>
<pdfrwt beam="1">  1        2 0.34101103E+00 0.27902092E+04</pdfrwt>
<pdfrwt beam="2">  1       -2 0.16355534E+00 0.27902092E+04</pdfrwt>
<totfact> 0.10339787E+00</totfact>
</mgrwt>
</event>
<event>
12    1  0.2206705E-014  0.3127102E+04  0.7818608E-02  0.8753144E-01
          2   -1    0    0  501    0  0.00000000000E+00  0.00000000000E+00  0.22218319199E+04  0.22218319199E+04  0.00000000000E+00 0. -1.
         -2   -1    0    0    0  501 -0.00000000000E+00 -0.00000000000E+00 -0.13183081151E+04  0.13183081151E+04  0.00000000000E+00 0.  1.
         23    2    1    2    0    0  0.48798163563E+02 -0.24968373241E+03  0.16428402157E+03  0.32684829391E+03  0.12295259449E+03 0.  0.
    9900016    2    1    2    0    0  0.35749265199E+02 -0.58277932748E+03  0.59349125134E+03  0.23639474950E+04  0.22124886755E+04 0.  0.
         24    2    4    4    0    0 -0.35488649907E+03  0.11191077208E+02  0.12068902267E+04  0.12604598484E+04  0.78136692564E+02 0.  0.
        -15    1    5    5    0    0 -0.68690165828E+02  0.11583009720E+02  0.14799088000E+03  0.16356590585E+03  0.00000000000E+00 0.  1.
        -15    1    3    3    0    0 -0.52556809310E+01 -0.45423482950E+02  0.93384597370E+02  0.10397883444E+03  0.00000000000E+00 0. -1.
         15    1    3    3    0    0  0.54053844494E+02 -0.20426024946E+03  0.70899424203E+02  0.22286945947E+03  0.00000000000E+00 0.  1.
         15    1    4    4    0    0  0.34382307373E+02 -0.17859798855E+03 -0.50696598181E+03  0.53860364953E+03  0.00000000000E+00 0. -1.
        -16    1    1    2    0    0 -0.84547428762E+02  0.83246305989E+03  0.14574853195E+03  0.84934424608E+03  0.00000000000E+00 0.  1.
         16    1    5    5    0    0 -0.28619633324E+03 -0.39193251185E+00  0.10588993467E+04  0.10968939426E+04  0.00000000000E+00 0. -1.
    9900018    1    4    4    0    0  0.35625345689E+03 -0.41537241614E+03 -0.10643299358E+03  0.56488399708E+03  0.91187600000E+02 0.  0.
<mgrwt>
<rscale>  0 0.17144882E+04</rscale>
<asrwt>0</asrwt>
<pdfrwt beam="1">  1        2 0.34182030E+00 0.31271022E+04</pdfrwt>
<pdfrwt beam="2">  1       -2 0.20281663E+00 0.31271022E+04</pdfrwt>
<totfact> 0.53632512E-01</totfact>
</mgrwt>
</event>
<event>
12    1  0.2206705E-014  0.3085395E+04  0.7818608E-02  0.8219757E-01
         -1   -1    0    0    0  501 -0.00000000000E+00  0.00000000000E+00  0.87053308788E+03  0.87053308788E+03  0.00000000000E+00 0.  1.
          1   -1    0    0  501    0  0.00000000000E+00 -0.00000000000E+00 -0.27338607076E+04  0.27338607076E+04  0.00000000000E+00 0. -1.
         23    2    1    2    0    0 -0.43786220887E+03  0.29374115654E+02  0.12481858934E+03  0.46964198801E+03  0.11134524701E+03 0.  0.
    9900016    2    1    2    0    0  0.33417438414E+03 -0.12349434171E+03 -0.19926997291E+04  0.29946428624E+04  0.22068326378E+04 0.  0.
        -24    2    4    4    0    0  0.16889383581E+02  0.61444975813E+03 -0.17201788948E+04  0.18284463673E+04  0.79793053982E+02 0.  0.
        -15    1    4    4    0    0  0.40695768864E+03 -0.36740757466E+03  0.17096202456E+03  0.57430906323E+03  0.00000000000E+00 0.  1.
        -15    1    3    3    0    0 -0.31678841726E+03 -0.23057714344E+02  0.62463643680E+02  0.32371015784E+03  0.00000000000E+00 0. -1.
         15    1    3    3    0    0 -0.12107379160E+03  0.52431829998E+02  0.62354945660E+02  0.14593183017E+03  0.00000000000E+00 0.  1.
         15    1    5    5    0    0  0.39236626230E+02  0.46486679917E+03 -0.13604771823E+04  0.14382415713E+04  0.00000000000E+00 0. -1.
        -16    1    5    5    0    0 -0.22347242649E+02  0.14958295895E+03 -0.35970171247E+03  0.39020479600E+03  0.00000000000E+00 0.  1.
         16    1    1    2    0    0  0.10368782473E+03  0.94120226061E+02  0.45535200533E+01  0.14010894509E+03  0.00000000000E+00 0. -1.
    9900018    1    4    4    0    0 -0.89672688083E+02 -0.37053652518E+03 -0.44348285889E+03  0.59188743187E+03  0.91187600000E+02 0.  0.
<mgrwt>
<rscale>  0 0.30853954E+04</rscale>
<asrwt>0</asrwt>
<pdfrwt beam="1">  1        1 0.42059396E+00 0.30853954E+04</pdfrwt>
<pdfrwt beam="2">  1       -1 0.13392817E+00 0.30853954E+04</pdfrwt>
<totfact> 0.36868854E-01</totfact>
</mgrwt>
</event>
<event>
11    1  0.2206705E-014  0.4273550E+04  0.7818608E-02  0.7951527E-01
         -1   -1    0    0    0  501 -0.00000000000E+00  0.00000000000E+00  0.19788127323E+04  0.19788127323E+04  0.00000000000E+00 0.  1.
          1   -1    0    0  501    0  0.00000000000E+00 -0.00000000000E+00 -0.23073470096E+04  0.23073470096E+04  0.00000000000E+00 0. -1.
    9900016    2    1    2    0    0  0.48130713116E+03  0.75116079680E+03 -0.13731445906E+04  0.27408803268E+04  0.21979535486E+04 0.  0.
         24    2    3    3    0    0  0.56354605982E+03  0.64081809585E+03 -0.12347764594E+04  0.15030986424E+04  0.80003941322E+02 0.  0.
        -15    1    4    4    0    0  0.55847449471E+02  0.10516605172E+03 -0.17367499159E+03  0.21057501930E+03  0.00000000000E+00 0.  1.
        -15    1    1    2    0    0  0.10942783935E+02 -0.36276721510E+03  0.32259521456E+03  0.48557951906E+03  0.00000000000E+00 0.  1.
         15    1    1    2    0    0 -0.79402632753E+02 -0.31333641803E+03  0.46934412200E+03  0.56988454428E+03  0.00000000000E+00 0. -1.
         15    1    3    3    0    0  0.96278308201E+02 -0.29264338135E+03  0.41982416700E+03  0.52073216962E+03  0.00000000000E+00 0. -1.
        -16    1    1    2    0    0 -0.41284728234E+03 -0.75057163671E+02  0.25267097672E+03  0.48981535177E+03  0.00000000000E+00 0.  1.
         16    1    4    4    0    0  0.50769861035E+03  0.53565204413E+03 -0.10611014678E+04  0.12925236231E+04  0.00000000000E+00 0. -1.
    9900018    1    3    3    0    0 -0.17851723687E+03  0.40298608229E+03 -0.55819229825E+03  0.71704951475E+03  0.91187600000E+02 0.  0.
<mgrwt>
<rscale>  0 0.42735501E+04</rscale>
<asrwt>0</asrwt>
<pdfrwt beam="1">  1        1 0.35497646E+00 0.42735501E+04</pdfrwt>
<pdfrwt beam="2">  1       -1 0.30443273E+00 0.42735501E+04</pdfrwt>
<totfact> 0.43522635E-02</totfact>
</mgrwt>
</event>
<event>
11    1  0.2206705E-014  0.2726835E+04  0.7818608E-02  0.8826181E-01
         -1   -1    0    0    0  501 -0.00000000000E+00  0.00000000000E+00  0.15762029430E+04  0.15762029430E+04  0.00000000000E+00 0.  1.
          1   -1    0    0  501    0  0.00000000000E+00 -0.00000000000E+00 -0.15210765555E+04  0.15210765555E+04  0.00000000000E+00 0. -1.
    9900016    2    1    2    0    0 -0.43029662615E+03 -0.29935012303E+03  0.18769238611E+03  0.22553304214E+04  0.21855253819E+04 0.  0.
        -24    2    3    3    0    0 -0.11810981951E+04 -0.12109598566E+02 -0.36308555468E+03  0.12383195574E+04  0.80402844000E+02 0.  0.
        -15    1    1    2    0    0  0.44216973081E+02  0.83074675207E+02  0.13707550522E+03  0.16627157454E+03  0.00000000000E+00 0.  1.
        -15    1    3    3    0    0  0.62984216826E+03 -0.16699322680E+03  0.48656488352E+03  0.81322400395E+03  0.00000000000E+00 0.  1.
         15    1    4    4    0    0 -0.81160039789E+03  0.67157183827E+01 -0.28483733878E+03  0.86015848324E+03  0.00000000000E+00 0. -1.
         15    1    1    2    0    0  0.36199884333E+02  0.19120472137E+03  0.50202734936E+02  0.20097261429E+03  0.00000000000E+00 0. -1.
        -16    1    4    4    0    0 -0.36949779721E+03 -0.18825316949E+02 -0.78248215898E+02  0.37816107413E+03  0.00000000000E+00 0.  1.
         16    1    1    2    0    0  0.34987976874E+03  0.25070726452E+02 -0.31984423883E+03  0.47470488833E+03  0.00000000000E+00 0. -1.
    9900018    1    3    3    0    0  0.12095940069E+03 -0.12024729767E+03  0.64213057259E+02  0.20378686004E+03  0.91187600000E+02 0.  0.
<mgrwt>
<rscale>  0 0.15908631E+04</rscale>
<asrwt>0</asrwt>
<pdfrwt beam="1">  1        1 0.23401178E+00 0.27268349E+04</pdfrwt>
<pdfrwt beam="2">  1       -1 0.24249276E+00 0.27268349E+04</pdfrwt>
<totfact> 0.42505015E-01</totfact>
</mgrwt>
</event>
<event>
11    1  0.2206705E-014  0.2709734E+04  0.7818608E-02  0.9034166E-01
         -2   -1    0    0    0  501 -0.00000000000E+00  0.00000000000E+00  0.91729027192E+03  0.91729027192E+03  0.00000000000E+00 0. -1.
          2   -1    0    0  501    0  0.00000000000E+00 -0.00000000000E+00 -0.22520616017E+04  0.22520616017E+04  0.00000000000E+00 0.  1.
    9900016    2    1    2    0    0  0.59749720161E+02 -0.31113593943E+03 -0.12896056671E+04  0.25667265041E+04  0.21965032594E+04 0.  0.
        -24    2    3    3    0    0 -0.20378017521E+03  0.24160035111E+03 -0.12970230518E+04  0.13373620628E+04  0.79821054371E+02 0.  0.
        -15    1    1    2    0    0 -0.56447887420E+02 -0.52781547816E+02 -0.15039218052E+03  0.16908596555E+03  0.00000000000E+00 0.  1.
        -15    1    3    3    0    0 -0.28632100081E+03 -0.35508430726E+03  0.32313045503E+03  0.55899720190E+03  0.00000000000E+00 0.  1.
         15    1    1    2    0    0  0.46638939814E+02  0.35482922728E+01 -0.16963844524E+02  0.49754930470E+02  0.00000000000E+00 0. -1.
         15    1    4    4    0    0 -0.46626043857E+02  0.11149313844E+03 -0.43016919512E+03  0.44682238565E+03  0.00000000000E+00 0. -1.
        -16    1    4    4    0    0 -0.15715413135E+03  0.13010721267E+03 -0.86685385663E+03  0.89053967713E+03  0.00000000000E+00 0.  1.
         16    1    1    2    0    0 -0.49940772555E+02  0.36036919498E+03  0.12219036236E+03  0.38378447351E+03  0.00000000000E+00 0. -1.
    9900018    1    3    3    0    0  0.54985089618E+03 -0.19765198329E+03 -0.31571307041E+03  0.67036723946E+03  0.91187600000E+02 0.  0.
<mgrwt>
<rscale>  0 0.12942138E+04</rscale>
<asrwt>0</asrwt>
<pdfrwt beam="1">  1        2 0.34647101E+00 0.27097337E+04</pdfrwt>
<pdfrwt beam="2">  1       -2 0.14112158E+00 0.27097337E+04</pdfrwt>
<totfact> 0.14798784E+00</totfact>
</mgrwt>
</event>
<event>
11    1  0.2206705E-014  0.3314710E+04  0.7818608E-02  0.8159162E-01
          2   -1    0    0  501    0  0.00000000000E+00  0.00000000000E+00  0.22815520265E+04  0.22815520265E+04  0.00000000000E+00 0. -1.
         -2   -1    0    0    0  501 -0.00000000000E+00 -0.00000000000E+00 -0.12039285259E+04  0.12039285259E+04  0.00000000000E+00 0.  1.
    9900016    2    1    2    0    0  0.66954366285E+03 -0.62546906745E+02  0.73551590604E+03  0.24160371098E+04  0.22009204520E+04 0.  0.
         24    2    3    3    0    0 -0.11974247881E+03  0.88218541789E+03  0.14930412346E+03  0.90632975329E+03  0.80947684647E+02 0.  0.
        -15    1    4    4    0    0 -0.31944883361E+02  0.50384385301E+03  0.66634204818E+02  0.50923395511E+03  0.00000000000E+00 0.  1.
        -15    1    1    2    0    0 -0.36745709199E+03  0.24855420275E+02  0.10271460436E+03  0.38235166577E+03  0.00000000000E+00 0.  1.
         15    1    3    3    0    0  0.22134434858E+03 -0.67073152805E+03  0.50309527321E+03  0.86716720262E+03  0.00000000000E+00 0. -1.
         15    1    1    2    0    0 -0.12716169207E+03  0.20900284804E+03  0.34293713186E+03  0.42125783414E+03  0.00000000000E+00 0. -1.
        -16    1    1    2    0    0 -0.17492487880E+03 -0.17131136157E+03 -0.10354414164E+03  0.26583394270E+03  0.00000000000E+00 0.  1.
         16    1    4    4    0    0 -0.87797595445E+02  0.37834156488E+03  0.82669918640E+02  0.39709579818E+03  0.00000000000E+00 0. -1.
    9900018    1    3    3    0    0  0.56794179308E+03 -0.27400079659E+03  0.83116509371E+02  0.64254015391E+03  0.91187600000E+02 0.  0.
<mgrwt>
<rscale>  0 0.33147100E+04</rscale>
<asrwt>0</asrwt>
<pdfrwt beam="1">  1        2 0.35100800E+00 0.33147100E+04</pdfrwt>
<pdfrwt beam="2">  1       -2 0.18521977E+00 0.33147100E+04</pdfrwt>
<totfact> 0.64688406E-01</totfact>
</mgrwt>
</event>
<event>
12    1  0.2206705E-014  0.3739590E+04  0.7818608E-02  0.8535534E-01
          1   -1    0    0  501    0  0.00000000000E+00  0.00000000000E+00  0.36470715434E+04  0.36470715434E+04  0.00000000000E+00 0. -1.
         -1   -1    0    0    0  501 -0.00000000000E+00 -0.00000000000E+00 -0.12965252149E+04  0.12965252149E+04  0.00000000000E+00 0.  1.
         23    2    1    2    0    0 -0.34041612054E+03  0.21243345387E+03 -0.15337005491E+03  0.44313799239E+03  0.10880165030E+03 0.  0.
    9900016    2    1    2    0    0  0.10168536285E+04  0.73026830745E+03  0.20665702374E+04  0.32604886193E+04  0.21892442504E+04 0.  0.
         24    2    4    4    0    0 -0.13159700004E+03  0.92106782964E+03  0.10446180608E+04  0.14011595684E+04  0.79608578551E+02 0.  0.
        -15    1    3    3    0    0  0.41812434672E+00  0.18391061987E+02  0.66347134435E+01  0.19555700230E+02  0.00000000000E+00 0.  1.
        -15    1    5    5    0    0 -0.98022336855E+02  0.42842465390E+03  0.51573312844E+03  0.67759628272E+03  0.00000000000E+00 0.  1.
         15    1    3    3    0    0 -0.34083424488E+03  0.19404239188E+03 -0.16000476835E+03  0.42358229216E+03  0.00000000000E+00 0. -1.
         15    1    4    4    0    0 -0.95736834334E+02  0.23024284632E+02 -0.11956639820E+03  0.15489281039E+03  0.00000000000E+00 0. -1.
        -16    1    1    2    0    0 -0.67643750796E+03 -0.94270176132E+03  0.43734614601E+03  0.12399701466E+04  0.00000000000E+00 0.  1.
         16    1    5    5    0    0 -0.33574663189E+02  0.49264317574E+03  0.52888493239E+03  0.72356328564E+03  0.00000000000E+00 0. -1.
    9900018    1    4    4    0    0  0.12441874629E+04 -0.21382380682E+03  0.11415185748E+04  0.17044362406E+04  0.91187600000E+02 0.  0.
<mgrwt>
<rscale>  0 0.21593662E+04</rscale>
<asrwt>0</asrwt>
<pdfrwt beam="1">  1        1 0.56108793E+00 0.37395898E+04</pdfrwt>
<pdfrwt beam="2">  1       -1 0.19946542E+00 0.37395898E+04</pdfrwt>
<totfact> 0.22657400E-02</totfact>
</mgrwt>
</event>
<event>
12    1  0.2206705E-014  0.2878687E+04  0.7818608E-02  0.8279247E-01
         -2   -1    0    0    0  501 -0.00000000000E+00  0.00000000000E+00  0.70101584767E+03  0.70101584767E+03  0.00000000000E+00 0.  1.
          2   -1    0    0  501    0  0.00000000000E+00 -0.00000000000E+00 -0.29552974021E+04  0.29552974021E+04  0.00000000000E+00 0. -1.
         23    2    1    2    0    0 -0.11883076674E+03 -0.42838709968E+03 -0.29322058385E+03  0.54515910447E+03  0.11654990389E+03 0.  0.
    9900016    2    1    2    0    0  0.71222836083E+01  0.37855044198E+03 -0.16204116817E+04  0.27492088239E+04  0.21883930121E+04 0.  0.
        -24    2    4    4    0    0  0.15994336853E+03  0.20658584583E+03  0.48585762212E+03  0.55669319019E+03  0.74766878977E+02 0.  0.
        -15    1    3    3    0    0 -0.33511748726E+02 -0.31923941116E+03 -0.20872038055E+03  0.38288514752E+03  0.00000000000E+00 0. -1.
        -15    1    4    4    0    0  0.17558331094E+03 -0.57262978349E+02 -0.88370299230E+03  0.90279539563E+03  0.00000000000E+00 0.  1.
         15    1    5    5    0    0  0.86883941370E+02  0.13078560401E+03  0.35904131747E+03  0.39187288900E+03  0.00000000000E+00 0. -1.
         15    1    3    3    0    0 -0.85319018011E+02 -0.10914768852E+03 -0.84500203301E+02  0.16227395694E+03  0.00000000000E+00 0.  1.
        -16    1    5    5    0    0  0.73059427161E+02  0.75800241819E+02  0.12681630465E+03  0.16482030119E+03  0.00000000000E+00 0.  1.
         16    1    1    2    0    0  0.11170848313E+03  0.49836657696E+02 -0.34064928890E+03  0.36194532140E+03  0.00000000000E+00 0. -1.
    9900018    1    4    4    0    0 -0.32840439587E+03  0.22922757450E+03 -0.12225663115E+04  0.12897202381E+04  0.91187600000E+02 0.  0.
<mgrwt>
<rscale>  0 0.28786874E+04</rscale>
<asrwt>0</asrwt>
<pdfrwt beam="1">  1        2 0.45466114E+00 0.28786874E+04</pdfrwt>
<pdfrwt beam="2">  1       -2 0.10784859E+00 0.28786874E+04</pdfrwt>
<totfact> 0.11058196E+00</totfact>
</mgrwt>
</event>
<event>
11    1  0.2206705E-014  0.3248647E+04  0.7818608E-02  0.8864013E-01
         -2   -1    0    0    0  501 -0.00000000000E+00  0.00000000000E+00  0.13593693476E+04  0.13593693476E+04  0.00000000000E+00 0.  1.
          2   -1    0    0  501    0  0.00000000000E+00 -0.00000000000E+00 -0.22036914544E+04  0.22036914544E+04  0.00000000000E+00 0. -1.
    9900016    2    1    2    0    0 -0.27254753969E+03 -0.70496493227E+03 -0.28637630966E+03  0.23459424505E+04  0.22023117112E+04 0.  0.
        -24    2    3    3    0    0 -0.59955328910E+03 -0.10451424341E+04  0.55296510469E+03  0.13281156438E+04  0.79585817121E+02 0.  0.
        -15    1    1    2    0    0  0.41796971900E+02 -0.97824424808E+01  0.10730116968E+03  0.11556913107E+03  0.00000000000E+00 0.  1.
        -15    1    3    3    0    0  0.35844005817E+03  0.21703488173E+03 -0.59653591507E+03  0.72899829435E+03  0.00000000000E+00 0.  1.
         15    1    4    4    0    0 -0.32743849497E+03 -0.60056780609E+03  0.27349733120E+03  0.73668069601E+03  0.00000000000E+00 0. -1.
         15    1    1    2    0    0 -0.49486256877E+02 -0.41993616076E+02 -0.18760469446E+02  0.67559667144E+02  0.00000000000E+00 0. -1.
        -16    1    4    4    0    0 -0.27211479414E+03 -0.44457462803E+03  0.27946777349E+03  0.59143494781E+03  0.00000000000E+00 0.  1.
         16    1    1    2    0    0  0.28023682467E+03  0.75674099082E+03 -0.64648649731E+03  0.10339895533E+04  0.00000000000E+00 0. -1.
    9900018    1    3    3    0    0 -0.31434308758E+02  0.12314262012E+03 -0.24280549928E+03  0.28882851232E+03  0.91187600000E+02 0.  0.
<mgrwt>
<rscale>  0 0.15311282E+04</rscale>
<asrwt>0</asrwt>
<pdfrwt beam="1">  1        2 0.33902945E+00 0.32486470E+04</pdfrwt>
<pdfrwt beam="2">  1       -2 0.20913375E+00 0.32486470E+04</pdfrwt>
<totfact> 0.49607845E-01</totfact>
</mgrwt>
</event>
<event>
11    1  0.2206705E-014  0.4046385E+04  0.7818608E-02  0.8282138E-01
         -1   -1    0    0    0  501 -0.00000000000E+00  0.00000000000E+00  0.20565082429E+04  0.20565082429E+04  0.00000000000E+00 0.  1.
          1   -1    0    0  501    0  0.00000000000E+00 -0.00000000000E+00 -0.31755875776E+04  0.31755875776E+04  0.00000000000E+00 0. -1.
    9900016    2    1    2    0    0 -0.14830809830E+04 -0.13562187768E+03 -0.11083305963E+04  0.28661571381E+04  0.21836981325E+04 0.  0.
         24    2    3    3    0    0  0.19630764397E+03  0.10227366162E+03  0.35347441125E+03  0.42485312412E+03  0.80990275481E+02 0.  0.
        -15    1    4    4    0    0  0.12514918044E+03  0.22378443536E+02  0.21620174209E+03  0.25081129437E+03  0.00000000000E+00 0.  1.
        -15    1    1    2    0    0  0.35277450741E+03 -0.12309304249E+02  0.44424584659E+02  0.35577368617E+03  0.00000000000E+00 0.  1.
         15    1    3    3    0    0 -0.65847405409E+03 -0.43575518225E+03 -0.22132729612E+03  0.82003440829E+03  0.00000000000E+00 0. -1.
         15    1    1    2    0    0  0.22211009731E+03 -0.51625740070E+03 -0.54513570191E+03  0.78296074780E+03  0.00000000000E+00 0. -1.
        -16    1    1    2    0    0  0.90819637824E+03  0.66418858263E+03  0.48996237882E+03  0.12272042484E+04  0.00000000000E+00 0.  1.
         16    1    4    4    0    0  0.71158463526E+02  0.79895218080E+02  0.13727266916E+03  0.17404182975E+03  0.00000000000E+00 0. -1.
    9900018    1    3    3    0    0 -0.10209145728E+04  0.19785964296E+03 -0.12404777114E+04  0.16212696057E+04  0.91187600000E+02 0.  0.
<mgrwt>
<rscale>  0 0.28690761E+04</rscale>
<asrwt>0</asrwt>
<pdfrwt beam="1">  1        1 0.48855193E+00 0.40463846E+04</pdfrwt>
<pdfrwt beam="2">  1       -1 0.31638589E+00 0.40463846E+04</pdfrwt>
<totfact> 0.86276253E-03</totfact>
</mgrwt>
</event>
<event>
12    1  0.2206705E-014  0.3091935E+04  0.7818608E-02  0.8217955E-01
          1   -1    0    0  501    0  0.00000000000E+00  0.00000000000E+00  0.17502688721E+04  0.17502688721E+04  0.00000000000E+00 0. -1.
         -1   -1    0    0    0  501 -0.00000000000E+00 -0.00000000000E+00 -0.13655134231E+04  0.13655134231E+04  0.00000000000E+00 0.  1.
         23    2    1    2    0    0  0.14800162662E+03  0.81688041418E+02  0.64845370788E+03  0.67452941635E+03  0.76943516074E+02 0.  0.
    9900016    2    1    2    0    0 -0.14870088293E+03 -0.21514754305E+03 -0.11658284651E+03  0.22426203738E+04  0.22242648590E+04 0.  0.
         24    2    4    4    0    0 -0.23699740720E+03 -0.11268516191E+04  0.31386384458E+03  0.11962592605E+04  0.81014584925E+02 0.  0.
        -15    1    5    5    0    0 -0.17036612786E+03 -0.91729990755E+03  0.27751611470E+03  0.97338529464E+03  0.00000000000E+00 0.  1.
        -15    1    3    3    0    0  0.73880829147E+02  0.82881422695E+02  0.36245167941E+03  0.37907641320E+03  0.00000000000E+00 0. -1.
         15    1    3    3    0    0  0.74120797475E+02 -0.11933812771E+01  0.28600202848E+03  0.29545300315E+03  0.00000000000E+00 0.  1.
         15    1    4    4    0    0  0.54759212090E+02  0.36074818011E+03 -0.29882511372E+03  0.47162937710E+03  0.00000000000E+00 0. -1.
        -16    1    1    2    0    0  0.69925630556E+00  0.13345950163E+03 -0.14711541233E+03  0.19863250509E+03  0.00000000000E+00 0.  1.
         16    1    5    5    0    0 -0.66631279335E+02 -0.20955171153E+03  0.36347729880E+02  0.22287396586E+03  0.00000000000E+00 0. -1.
    9900018    1    4    4    0    0  0.33537312179E+02  0.55095589592E+03 -0.13162157737E+03  0.57473173619E+03  0.91187600000E+02 0.  0.
<mgrwt>
<rscale>  0 0.30919351E+04</rscale>
<asrwt>0</asrwt>
<pdfrwt beam="1">  1        1 0.26927213E+00 0.30919351E+04</pdfrwt>
<pdfrwt beam="2">  1       -1 0.21007899E+00 0.30919351E+04</pdfrwt>
<totfact> 0.47754942E-01</totfact>
</mgrwt>
</event>
<event>
12    1  0.2206705E-014  0.3295736E+04  0.7818608E-02  0.8163981E-01
         -1   -1    0    0    0  501 -0.00000000000E+00  0.00000000000E+00  0.12108062659E+04  0.12108062659E+04  0.00000000000E+00 0.  1.
          1   -1    0    0  501    0  0.00000000000E+00 -0.00000000000E+00 -0.22426944094E+04  0.22426944094E+04  0.00000000000E+00 0. -1.
         23    2    1    2    0    0 -0.92388054138E+02 -0.37595291226E+03  0.27845538265E+03  0.48832787499E+03  0.10512168463E+03 0.  0.
    9900016    2    1    2    0    0  0.30980756341E+03  0.43510858315E+03 -0.72520873881E+03  0.23381533782E+04  0.21577148328E+04 0.  0.
        -24    2    4    4    0    0  0.11758672955E+04  0.44091173728E+03 -0.52857532949E+03  0.13649695565E+04  0.81749340215E+02 0.  0.
        -15    1    4    4    0    0 -0.53454403129E+03  0.67871159856E+02 -0.28647448636E+03  0.61025523108E+03  0.00000000000E+00 0.  1.
        -15    1    3    3    0    0  0.13434022673E+01 -0.13024578508E+03  0.48498151833E+02  0.13898863260E+03  0.00000000000E+00 0.  1.
         15    1    5    5    0    0  0.77514655176E+03  0.25537678868E+03 -0.36541952010E+03  0.89420406316E+03  0.00000000000E+00 0. -1.
         15    1    3    3    0    0 -0.93731456405E+02 -0.24570712718E+03  0.22995723082E+03  0.34933924239E+03  0.00000000000E+00 0. -1.
        -16    1    5    5    0    0  0.40072074370E+03  0.18553494860E+03 -0.16315580940E+03  0.47076549334E+03  0.00000000000E+00 0.  1.
         16    1    1    2    0    0 -0.21741950927E+03 -0.59155670890E+02 -0.58513478735E+03  0.62701942217E+03  0.00000000000E+00 0. -1.
    9900018    1    4    4    0    0 -0.33151570077E+03 -0.73674313986E+02  0.89841077047E+02  0.36292859066E+03  0.91187600000E+02 0.  0.
<mgrwt>
<rscale>  0 0.32957357E+04</rscale>
<asrwt>0</asrwt>
<pdfrwt beam="1">  1        1 0.34502990E+00 0.32957357E+04</pdfrwt>
<pdfrwt beam="2">  1       -1 0.18627789E+00 0.32957357E+04</pdfrwt>
<totfact> 0.31732938E-01</totfact>
</mgrwt>
</event>
<event>
12    1  0.2206705E-014  0.3240556E+04  0.7818608E-02  0.8860751E-01
         -2   -1    0    0    0  501 -0.00000000000E+00  0.00000000000E+00  0.23589484893E+04  0.23589484893E+04  0.00000000000E+00 0.  1.
          2   -1    0    0  501    0  0.00000000000E+00 -0.00000000000E+00 -0.12583662370E+04  0.12583662370E+04  0.00000000000E+00 0. -1.
         23    2    1    2    0    0 -0.79356425609E+02 -0.96518385062E+02  0.19101901112E+03  0.25152965282E+03  0.10566769940E+03 0.  0.
    9900016    2    1    2    0    0  0.89873680314E+03  0.27212132836E+03  0.60623032628E+03  0.24745884320E+04  0.22077805236E+04 0.  0.
         24    2    4    4    0    0  0.75533598838E+03  0.62415097561E+03 -0.23035742498E+03  0.10097910651E+04  0.80725189053E+02 0.  0.
        -15    1    3    3    0    0 -0.65291103268E+02 -0.38908398120E+01  0.10845683876E+03  0.12665288261E+03  0.00000000000E+00 0.  1.
        -15    1    5    5    0    0  0.39074428608E+03  0.27413541983E+03 -0.96800729258E+02  0.48703357861E+03  0.00000000000E+00 0.  1.
         15    1    4    4    0    0  0.60258458931E+03 -0.33393031325E+03  0.29704555847E+03  0.75023576640E+03  0.00000000000E+00 0. -1.
         15    1    3    3    0    0 -0.14065322341E+02 -0.92627545250E+02  0.82562172362E+02  0.12487677020E+03  0.00000000000E+00 0. -1.
        -16    1    1    2    0    0 -0.81938037753E+03 -0.17560294330E+03  0.30333291489E+03  0.89119664162E+03  0.00000000000E+00 0.  1.
         16    1    5    5    0    0  0.36459170231E+03  0.35001555578E+03 -0.13355669572E+03  0.52275748646E+03  0.00000000000E+00 0. -1.
    9900018    1    4    4    0    0 -0.45918377456E+03 -0.18099334004E+02  0.53954219279E+03  0.71456160049E+03  0.91187600000E+02 0.  0.
<mgrwt>
<rscale>  0 0.15361682E+04</rscale>
<asrwt>0</asrwt>
<pdfrwt beam="1">  1        2 0.19359481E+00 0.32405561E+04</pdfrwt>
<pdfrwt beam="2">  1       -2 0.36291515E+00 0.32405561E+04</pdfrwt>
<totfact> 0.18768744E-01</totfact>
</mgrwt>
</event>
<event>
12    1  0.2206705E-014  0.2969905E+04  0.7818608E-02  0.8252377E-01
          1   -1    0    0  501    0  0.00000000000E+00  0.00000000000E+00  0.13748259716E+04  0.13748259716E+04  0.00000000000E+00 0. -1.
         -1   -1    0    0    0  501 -0.00000000000E+00 -0.00000000000E+00 -0.16039000015E+04  0.16039000015E+04  0.00000000000E+00 0.  1.
         23    2    1    2    0    0 -0.33268436376E+03 -0.26454850720E+03  0.29569364631E+03  0.52906885469E+03  0.10869370718E+03 0.  0.
    9900016    2    1    2    0    0  0.37981633812E+03  0.37623219405E+03 -0.53941213571E+03  0.23275541737E+04  0.22001663266E+04 0.  0.
        -24    2    4    4    0    0 -0.34580588868E+03  0.49922350687E+03 -0.91841771224E+03  0.11039303177E+04  0.79782390214E+02 0.  0.
        -15    1    4    4    0    0  0.50942157897E+03 -0.28069650086E+03  0.62145885673E+03  0.85118269562E+03  0.00000000000E+00 0.  1.
        -15    1    3    3    0    0 -0.24049035129E+03 -0.24718611000E+03  0.22959094259E+03  0.41430493958E+03  0.00000000000E+00 0.  1.
         15    1    5    5    0    0 -0.13648642641E+03  0.23594586333E+03 -0.35236417821E+03  0.44548794496E+03  0.00000000000E+00 0. -1.
         15    1    3    3    0    0 -0.92194012476E+02 -0.17362397201E+02  0.66102703712E+02  0.11476391511E+03  0.00000000000E+00 0. -1.
        -16    1    5    5    0    0 -0.20931946227E+03  0.26327764354E+03 -0.56605353403E+03  0.65844237277E+03  0.00000000000E+00 0.  1.
         16    1    1    2    0    0 -0.47131974359E+02 -0.11168368685E+03  0.14644459538E+02  0.12210294472E+03  0.00000000000E+00 0. -1.
    9900018    1    4    4    0    0  0.21620064783E+03  0.15770518804E+03 -0.24245328020E+03  0.37244116036E+03  0.91187600000E+02 0.  0.
<mgrwt>
<rscale>  0 0.29699046E+04</rscale>
<asrwt>0</asrwt>
<pdfrwt beam="1">  1        1 0.21151169E+00 0.29699046E+04</pdfrwt>
<pdfrwt beam="2">  1       -1 0.24675385E+00 0.29699046E+04</pdfrwt>
<totfact> 0.49994604E-01</totfact>
</mgrwt>
</event>
<event>
12    1  0.2206705E-014  0.3062255E+04  0.7818608E-02  0.8829491E-01
         -2   -1    0    0    0  501 -0.00000000000E+00  0.00000000000E+00  0.25539815551E+04  0.25539815551E+04  0.00000000000E+00 0.  1.
          2   -1    0    0  501    0  0.00000000000E+00 -0.00000000000E+00 -0.13469810628E+04  0.13469810628E+04  0.00000000000E+00 0. -1.
         23    2    1    2    0    0 -0.11818660004E+03  0.14658044598E+03  0.77833583574E+03  0.80885043442E+03  0.11392301123E+03 0.  0.
    9900016    2    1    2    0    0  0.37570404692E+03  0.28440154241E+03  0.93027261801E+03  0.23824141796E+04  0.21420673218E+04 0.  0.
        -24    2    4    4    0    0  0.78501498309E+03  0.16925128494E+03  0.10963423040E+04  0.13615114329E+04  0.82779304293E+02 0.  0.
        -15    1    3    3    0    0 -0.26796420571E+02  0.10479197874E+03  0.53053302454E+03  0.54144685528E+03  0.00000000000E+00 0.  1.
        -15    1    4    4    0    0 -0.12477758802E+03  0.50089073348E+03 -0.12588386735E+03  0.53132637937E+03  0.00000000000E+00 0.  1.
         15    1    3    3    0    0 -0.91390179470E+02  0.41788467239E+02  0.24780281120E+03  0.26740357914E+03  0.00000000000E+00 0. -1.
         15    1    5    5    0    0  0.64268091616E+03  0.10533360186E+03  0.88871521694E+03  0.11017933856E+04  0.00000000000E+00 0. -1.
        -16    1    5    5    0    0  0.14233406693E+03  0.63917683085E+02  0.20762708703E+03  0.25971804729E+03  0.00000000000E+00 0.  1.
         16    1    1    2    0    0 -0.25751744688E+03 -0.43098198839E+03 -0.50160796151E+03  0.70969800395E+03  0.00000000000E+00 0. -1.
    9900018    1    4    4    0    0 -0.28453334814E+03 -0.38574047602E+03 -0.40185818609E+02  0.48957636734E+03  0.91187600000E+02 0.  0.
<mgrwt>
<rscale>  0 0.15855244E+04</rscale>
<asrwt>0</asrwt>
<pdfrwt beam="1">  1        2 0.20722786E+00 0.30622548E+04</pdfrwt>
<pdfrwt beam="2">  1       -2 0.39292024E+00 0.30622548E+04</pdfrwt>
<totfact> 0.10685995E-01</totfact>
</mgrwt>
</event>
<event>
12    1  0.2206705E-014  0.2705992E+04  0.7818608E-02  0.8778214E-01
          2   -1    0    0  501    0  0.00000000000E+00  0.00000000000E+00  0.36057717441E+04  0.36057717441E+04  0.00000000000E+00 0. -1.
         -2   -1    0    0    0  501 -0.00000000000E+00 -0.00000000000E+00 -0.76266734915E+03  0.76266734915E+03  0.00000000000E+00 0.  1.
         23    2    1    2    0    0  0.25646640590E+03  0.27497990951E+03 -0.62197646295E+02  0.39815280451E+03  0.11518741489E+03 0.  0.
    9900016    2    1    2    0    0 -0.36901174096E+03  0.15243552093E+03  0.26483977743E+04  0.34590620669E+04  0.21889936863E+04 0.  0.
        -24    2    4    4    0    0 -0.63726685974E+03  0.54137775947E+03  0.11789439814E+04  0.14475907015E+04  0.80068713070E+02 0.  0.
        -15    1    3    3    0    0  0.16736408225E+03  0.18782433395E+03 -0.95582514207E+02  0.26911843763E+03  0.00000000000E+00 0.  1.
        -15    1    4    4    0    0  0.68800847154E+03 -0.44257148400E+03  0.13211012238E+04  0.15538769639E+04  0.00000000000E+00 0.  1.
         15    1    5    5    0    0 -0.43251954219E+02  0.61745117661E+02  0.85644616959E+02  0.11409728968E+03  0.00000000000E+00 0. -1.
         15    1    3    3    0    0  0.89102323653E+02  0.87155575555E+02  0.33384867913E+02  0.12903436688E+03  0.00000000000E+00 0. -1.
        -16    1    5    5    0    0 -0.59401490552E+03  0.47963264181E+03  0.10932993644E+04  0.13334934118E+04  0.00000000000E+00 0.  1.
         16    1    1    2    0    0  0.11254533506E+03 -0.42741543044E+03  0.25690426689E+03  0.51122422182E+03  0.00000000000E+00 0. -1.
    9900018    1    4    4    0    0 -0.41975335276E+03  0.53629245458E+02  0.14835256909E+03  0.45759440148E+03  0.91187600000E+02 0.  0.
<mgrwt>
<rscale>  0 0.16707679E+04</rscale>
<asrwt>0</asrwt>
<pdfrwt beam="1">  1        2 0.55473410E+00 0.27059921E+04</pdfrwt>
<pdfrwt beam="2">  1       -2 0.11733344E+00 0.27059921E+04</pdfrwt>
<totfact> 0.33128186E-01</totfact>
</mgrwt>
</event>
<event>
12    1  0.2206705E-014  0.2729073E+04  0.7818608E-02  0.8831774E-01
          2   -1    0    0  501    0  0.00000000000E+00  0.00000000000E+00  0.51646975218E+04  0.51646975218E+04  0.00000000000E+00 0. -1.
         -2   -1    0    0    0  501 -0.00000000000E+00 -0.00000000000E+00 -0.45615021497E+03  0.45615021497E+03  0.00000000000E+00 0.  1.
         23    2    1    2    0    0 -0.22868703359E+03 -0.17472224660E+03  0.26593833328E+03  0.40696121052E+03  0.10985721172E+03 0.  0.
    9900016    2    1    2    0    0  0.33203527951E+03 -0.21304958709E+03  0.31941351082E+04  0.39024999137E+04  0.22071177889E+04 0.  0.
        -24    2    4    4    0    0 -0.14133256367E+03 -0.89600959952E+03  0.24682824314E+04  0.26310853715E+04  0.85930060120E+02 0.  0.
        -15    1    3    3    0    0 -0.23318840072E+03 -0.13781856645E+03  0.23424877801E+03  0.35811070563E+03  0.00000000000E+00 0. -1.
        -15    1    4    4    0    0  0.36974104521E+03  0.75725215517E+03  0.72953673535E+03  0.11146134376E+04  0.00000000000E+00 0.  1.
         15    1    3    3    0    0  0.45013671223E+01 -0.36903680154E+02  0.31689555272E+02  0.48850504892E+02  0.00000000000E+00 0.  1.
         15    1    5    5    0    0  0.17026175044E+01 -0.65587059071E+02  0.23964378753E+03  0.24846268558E+03  0.00000000000E+00 0. -1.
        -16    1    5    5    0    0 -0.14303518118E+03 -0.83042254044E+03  0.22286386438E+04  0.23826226859E+04  0.00000000000E+00 0.  1.
         16    1    1    2    0    0 -0.10334824592E+03  0.38777183369E+03  0.12484738654E+04  0.13113866126E+04  0.00000000000E+00 0. -1.
    9900018    1    4    4    0    0  0.10362679797E+03 -0.74292142738E+02 -0.36840585622E+01  0.15680110462E+03  0.91187600000E+02 0.  0.
<mgrwt>
<rscale>  0 0.15818537E+04</rscale>
<asrwt>0</asrwt>
<pdfrwt beam="1">  1        2 0.79456881E+00 0.27290728E+04</pdfrwt>
<pdfrwt beam="2">  1       -2 0.70176960E-01 0.27290728E+04</pdfrwt>
<totfact> 0.33423804E-02</totfact>
</mgrwt>
</event>
<event>
11    1  0.2206705E-014  0.3742953E+04  0.7818608E-02  0.8058509E-01
         -2   -1    0    0    0  501 -0.00000000000E+00  0.00000000000E+00  0.22825043767E+04  0.22825043767E+04  0.00000000000E+00 0.  1.
          2   -1    0    0  501    0  0.00000000000E+00 -0.00000000000E+00 -0.15344652136E+04  0.15344652136E+04  0.00000000000E+00 0. -1.
    9900016    2    1    2    0    0  0.87286450253E+03  0.42802628485E+02  0.16065352797E+03  0.23645386281E+04  0.21912345523E+04 0.  0.
        -24    2    3    3    0    0  0.11995457600E+04  0.65114284107E+03  0.47318752085E+03  0.14467743659E+04  0.79703237937E+02 0.  0.
        -15    1    1    2    0    0 -0.36333206156E+03 -0.48762636112E+03  0.20591497057E+03  0.64202073963E+03  0.00000000000E+00 0.  1.
        -15    1    3    3    0    0 -0.13232467897E+03 -0.63182145555E+03 -0.25671537427E+03  0.69470206258E+03  0.00000000000E+00 0.  1.
         15    1    1    2    0    0 -0.20579214739E+03  0.31811908231E+03  0.26040779530E+03  0.45974164300E+03  0.00000000000E+00 0. -1.
         15    1    4    4    0    0  0.99564861378E+03  0.54497271684E+03  0.42429362793E+03  0.12117493581E+04  0.00000000000E+00 0. -1.
        -16    1    4    4    0    0  0.20389714617E+03  0.10617012423E+03  0.48893892916E+02  0.23502500774E+03  0.00000000000E+00 0.  1.
         16    1    1    2    0    0 -0.30374029358E+03  0.12670465032E+03  0.12106286928E+03  0.35066857954E+03  0.00000000000E+00 0. -1.
    9900018    1    3    3    0    0 -0.19435657845E+03  0.23481242965E+02 -0.55818618611E+02  0.22306219970E+03  0.91187600000E+02 0.  0.
<mgrwt>
<rscale>  0 0.37429526E+04</rscale>
<asrwt>0</asrwt>
<pdfrwt beam="1">  1        2 0.23607157E+00 0.37429526E+04</pdfrwt>
<pdfrwt beam="2">  1       -2 0.35115452E+00 0.37429526E+04</pdfrwt>
<totfact> 0.14953968E-01</totfact>
</mgrwt>
</event>
<event>
11    1  0.2206705E-014  0.2938250E+04  0.7818608E-02  0.8619019E-01
         -1   -1    0    0    0  501 -0.00000000000E+00  0.00000000000E+00  0.19669001193E+04  0.19669001193E+04  0.00000000000E+00 0.  1.
          1   -1    0    0  501    0  0.00000000000E+00 -0.00000000000E+00 -0.16562354915E+04  0.16562354915E+04  0.00000000000E+00 0. -1.
    9900016    2    1    2    0    0  0.33061379464E+03  0.24147018632E+03  0.44379790239E+03  0.22763257676E+04  0.21947867983E+04 0.  0.
        -24    2    3    3    0    0  0.14590614318E+03  0.79935059358E+03  0.86166135292E+03  0.11869916500E+04  0.78986808222E+02 0.  0.
        -15    1    1    2    0    0 -0.45472152343E+03  0.17086186178E+03  0.31727713626E+03  0.58019843233E+03  0.00000000000E+00 0.  1.
        -15    1    3    3    0    0 -0.71286084055E+02 -0.21303109049E+03 -0.57946390388E+03  0.62148400397E+03  0.00000000000E+00 0.  1.
         15    1    1    2    0    0 -0.10335628155E+03 -0.12943574800E+01  0.16030536916E+02  0.10460006888E+03  0.00000000000E+00 0. -1.
         15    1    4    4    0    0  0.22766326732E+02  0.25794761132E+03  0.31553684582E+03  0.40818963349E+03  0.00000000000E+00 0. -1.
        -16    1    4    4    0    0  0.12313981645E+03  0.54140298226E+03  0.54612450710E+03  0.77880201647E+03  0.00000000000E+00 0.  1.
         16    1    1    2    0    0  0.22746401034E+03 -0.41103769062E+03 -0.46644094777E+03  0.66201134195E+03  0.00000000000E+00 0. -1.
    9900018    1    3    3    0    0  0.25599373551E+03 -0.34484931678E+03  0.16160045335E+03  0.46785011362E+03  0.91187600000E+02 0.  0.
<mgrwt>
<rscale>  0 0.19736945E+04</rscale>
<asrwt>0</asrwt>
<pdfrwt beam="1">  1        1 0.25480546E+00 0.29382499E+04</pdfrwt>
<pdfrwt beam="2">  1       -1 0.30260002E+00 0.29382499E+04</pdfrwt>
<totfact> 0.13586271E-01</totfact>
</mgrwt>
</event>
<event>
11    1  0.2206705E-014  0.2959531E+04  0.7818608E-02  0.8820101E-01
          2   -1    0    0  501    0  0.00000000000E+00  0.00000000000E+00  0.31814405252E+04  0.31814405252E+04  0.00000000000E+00 0.  1.
         -2   -1    0    0    0  501 -0.00000000000E+00 -0.00000000000E+00 -0.95738401326E+03  0.95738401326E+03  0.00000000000E+00 0. -1.
    9900016    2    1    2    0    0  0.15475376795E+03  0.45150270027E+03  0.16437081787E+04  0.27872750934E+04  0.21998460066E+04 0.  0.
         24    2    3    3    0    0 -0.82460748369E+02 -0.31800718758E+03 -0.34795189159E+03  0.48521606071E+03  0.80223190776E+02 0.  0.
        -15    1    4    4    0    0 -0.19018349380E+02 -0.16802817346E+03 -0.22348452259E+03  0.28025077436E+03  0.00000000000E+00 0.  1.
        -15    1    1    2    0    0  0.61977327359E+02  0.55054483701E+01 -0.14362486328E+02  0.63857498243E+02  0.00000000000E+00 0.  1.
         15    1    3    3    0    0  0.52318478383E+02  0.88643820381E+03  0.17564138323E+04  0.19681207948E+04  0.00000000000E+00 0. -1.
         15    1    1    2    0    0  0.56962381443E+02  0.17228321929E+03 -0.17804611210E+03  0.25421769919E+03  0.00000000000E+00 0. -1.
        -16    1    1    2    0    0 -0.27369347675E+03 -0.62929136793E+03  0.77275693162E+03  0.10334742475E+04  0.00000000000E+00 0.  1.
         16    1    4    4    0    0 -0.63442398990E+02 -0.14997901411E+03 -0.12446736900E+03  0.20496528635E+03  0.00000000000E+00 0. -1.
    9900018    1    3    3    0    0  0.18489603793E+03 -0.11692831597E+03  0.23524623796E+03  0.33393823798E+03  0.91187600000E+02 0.  0.
<mgrwt>
<rscale>  0 0.16007273E+04</rscale>
<asrwt>0</asrwt>
<pdfrwt beam="1">  1        2 0.48945238E+00 0.29595307E+04</pdfrwt>
<pdfrwt beam="2">  1       -2 0.14728985E+00 0.29595307E+04</pdfrwt>
<totfact> 0.35411895E-01</totfact>
</mgrwt>
</event>
<event>
12    1  0.2206705E-014  0.2892886E+04  0.7818608E-02  0.8274997E-01
          1   -1    0    0  501    0  0.00000000000E+00  0.00000000000E+00  0.12956848808E+04  0.12956848808E+04  0.00000000000E+00 0. -1.
         -1   -1    0    0    0  501 -0.00000000000E+00 -0.00000000000E+00 -0.16147423124E+04  0.16147423124E+04  0.00000000000E+00 0.  1.
         23    2    1    2    0    0  0.11729232881E+03 -0.13923473490E+03 -0.35045423908E+03  0.40862315932E+03  0.10493288734E+03 0.  0.
    9900016    2    1    2    0    0 -0.70842149606E+02  0.30091765601E+03 -0.18663475365E+03  0.22264193070E+04  0.21969388598E+04 0.  0.
        -24    2    4    4    0    0 -0.84728042048E+03 -0.91903138381E+02 -0.48824588290E+03  0.98556138047E+03  0.81344297448E+02 0.  0.
        -15    1    4    4    0    0  0.51747843273E+03 -0.17975871025E+03  0.25470718883E+03  0.60412984887E+03  0.00000000000E+00 0.  1.
        -15    1    3    3    0    0  0.59577287518E+02 -0.89191690910E+02 -0.99513935898E+02  0.14631347974E+03  0.00000000000E+00 0.  1.
         15    1    3    3    0    0  0.57715041292E+02 -0.50043043992E+02 -0.25094030318E+03  0.26230967958E+03  0.00000000000E+00 0. -1.
         15    1    5    5    0    0 -0.33238503055E+03 -0.74992459804E+02 -0.20509194931E+03  0.39770137696E+03  0.00000000000E+00 0. -1.
        -16    1    5    5    0    0 -0.51489538992E+03 -0.16910678578E+02 -0.28315393359E+03  0.58786000351E+03  0.00000000000E+00 0.  1.
         16    1    1    2    0    0 -0.46450179203E+02 -0.16168292111E+03  0.21803156117E+03  0.27538472687E+03  0.00000000000E+00 0. -1.
    9900018    1    4    4    0    0  0.25895983814E+03  0.57257950464E+03  0.46903940418E+02  0.63672807770E+03  0.91187600000E+02 0.  0.
<mgrwt>
<rscale>  0 0.28928859E+04</rscale>
<asrwt>0</asrwt>
<pdfrwt beam="1">  1        1 0.19933614E+00 0.28928859E+04</pdfrwt>
<pdfrwt beam="2">  1       -1 0.24842189E+00 0.28928859E+04</pdfrwt>
<totfact> 0.55863021E-01</totfact>
</mgrwt>
</event>
<event>
12    1  0.2206705E-014  0.3325195E+04  0.7818608E-02  0.8652250E-01
         -1   -1    0    0    0  501 -0.00000000000E+00  0.00000000000E+00  0.18102667349E+04  0.18102667349E+04  0.00000000000E+00 0.  1.
          1   -1    0    0  501    0  0.00000000000E+00 -0.00000000000E+00 -0.18806850630E+04  0.18806850630E+04  0.00000000000E+00 0. -1.
         23    2    1    2    0    0  0.85807894866E+02 -0.32642375284E+03 -0.73053138247E+02  0.36575619029E+03  0.12052123665E+03 0.  0.
    9900016    2    1    2    0    0  0.71647101449E+03 -0.22560278628E+03  0.19284832675E+03  0.23329426508E+04  0.22002735292E+04 0.  0.
         24    2    4    4    0    0  0.14850156356E+03 -0.89963892468E+03  0.75349711362E+03  0.11855879813E+04  0.80362006129E+02 0.  0.
        -15    1    3    3    0    0  0.10572867911E+03 -0.20349452357E+03 -0.19348473427E+02  0.23013678136E+03  0.00000000000E+00 0.  1.
        -15    1    5    5    0    0  0.84535707480E+02 -0.32077260281E+03  0.24413525518E+03  0.41187785978E+03  0.00000000000E+00 0.  1.
         15    1    3    3    0    0 -0.19920784246E+02 -0.12292922927E+03 -0.53704664820E+02  0.13561940893E+03  0.00000000000E+00 0. -1.
         15    1    4    4    0    0  0.37720427796E+03  0.62236841686E+03 -0.25296448843E+03  0.77046514913E+03  0.00000000000E+00 0. -1.
        -16    1    1    2    0    0 -0.80227890935E+03  0.55202653913E+03 -0.19021351663E+03  0.99225295676E+03  0.00000000000E+00 0.  1.
         16    1    5    5    0    0  0.63965856079E+02 -0.57886632187E+03  0.50936185844E+03  0.77371012153E+03  0.00000000000E+00 0. -1.
    9900018    1    4    4    0    0  0.19076517297E+03  0.51667721535E+02 -0.30768429845E+03  0.37688952038E+03  0.91187600000E+02 0.  0.
<mgrwt>
<rscale>  0 0.19052444E+04</rscale>
<asrwt>0</asrwt>
<pdfrwt beam="1">  1        1 0.28933616E+00 0.33251946E+04</pdfrwt>
<pdfrwt beam="2">  1       -1 0.27850257E+00 0.33251946E+04</pdfrwt>
<totfact> 0.13362444E-01</totfact>
</mgrwt>
</event>
<event>
12    1  0.2206705E-014  0.3081266E+04  0.7818608E-02  0.8754504E-01
          2   -1    0    0  501    0  0.00000000000E+00  0.00000000000E+00  0.12827313607E+04  0.12827313607E+04  0.00000000000E+00 0.  1.
         -2   -1    0    0    0  501 -0.00000000000E+00 -0.00000000000E+00 -0.22685655925E+04  0.22685655925E+04  0.00000000000E+00 0. -1.
         23    2    1    2    0    0  0.26616172402E+02  0.28253752509E+03 -0.24437703044E+03  0.38207620049E+03  0.75671766587E+02 0.  0.
    9900016    2    1    2    0    0  0.25638803739E+03  0.47508560133E+03 -0.45522869489E+03  0.23113099518E+04  0.22007906248E+04 0.  0.
        -24    2    4    4    0    0  0.47250388736E+03  0.61277927153E+03  0.56819139094E+03  0.96355974894E+03  0.82750068568E+02 0.  0.
        -15    1    3    3    0    0  0.19838438485E+02  0.11640468687E+03 -0.14995030448E+03  0.19086306238E+03  0.00000000000E+00 0.  1.
        -15    1    4    4    0    0 -0.44353802808E+03  0.16741234292E+03 -0.45081695165E+03  0.65420852853E+03  0.00000000000E+00 0.  1.
         15    1    3    3    0    0  0.67777339169E+01  0.16613283822E+03 -0.94426725961E+02  0.19121313811E+03  0.00000000000E+00 0. -1.
         15    1    5    5    0    0  0.40568369122E+03  0.48416036104E+03  0.43724717929E+03  0.76822887756E+03  0.00000000000E+00 0. -1.
        -16    1    5    5    0    0  0.66820196142E+02  0.12861891049E+03  0.13094421165E+03  0.19533087138E+03  0.00000000000E+00 0.  1.
         16    1    1    2    0    0 -0.28300420979E+03 -0.75762312642E+03 -0.28622850645E+03  0.85791080093E+03  0.00000000000E+00 0. -1.
    9900018    1    4    4    0    0  0.22742217810E+03 -0.30510601312E+03 -0.57260313418E+03  0.69354167431E+03  0.91187600000E+02 0.  0.
<mgrwt>
<rscale>  0 0.17120814E+04</rscale>
<asrwt>0</asrwt>
<pdfrwt beam="1">  1        2 0.19734329E+00 0.30812662E+04</pdfrwt>
<pdfrwt beam="2">  1       -2 0.34901009E+00 0.30812662E+04</pdfrwt>
<totfact> 0.22451202E-01</totfact>
</mgrwt>
</event>
<event>
12    1  0.2206705E-014  0.3064149E+04  0.7818608E-02  0.8788196E-01
          2   -1    0    0  501    0  0.00000000000E+00  0.00000000000E+00  0.23114660852E+04  0.23114660852E+04  0.00000000000E+00 0. -1.
         -2   -1    0    0    0  501 -0.00000000000E+00 -0.00000000000E+00 -0.13511265716E+04  0.13511265716E+04  0.00000000000E+00 0.  1.
         23    2    1    2    0    0 -0.10835015641E+03 -0.22314712174E+03  0.50068516449E+03  0.56415939434E+03  0.77818981906E+02 0.  0.
    9900016    2    1    2    0    0  0.91939148195E+02  0.48693765930E+03  0.10487722728E+04  0.24527439434E+04  0.21611266692E+04 0.  0.
         24    2    4    4    0    0  0.43241180531E+03  0.98345045325E+02  0.99589618940E+03  0.10932488581E+04  0.82049547890E+02 0.  0.
        -15    1    5    5    0    0  0.31914843029E+02  0.29069546211E+02  0.72852043474E+02  0.84681851425E+02  0.00000000000E+00 0.  1.
        -15    1    3    3    0    0 -0.39013199737E+02 -0.51434131641E+02  0.20820649617E+03  0.21798496439E+03  0.00000000000E+00 0.  1.
         15    1    3    3    0    0 -0.69336956673E+02 -0.17171299010E+03  0.29247866832E+03  0.34617442995E+03  0.00000000000E+00 0. -1.
         15    1    4    4    0    0  0.29030616668E+03  0.59342176344E+03 -0.11198954805E+03  0.67005128058E+03  0.00000000000E+00 0. -1.
        -16    1    1    2    0    0  0.16411008216E+02 -0.26379053756E+03 -0.58911792361E+03  0.64568931911E+03  0.00000000000E+00 0.  1.
         16    1    5    5    0    0  0.40049696228E+03  0.69275499115E+02  0.92304414593E+03  0.10085670067E+04  0.00000000000E+00 0. -1.
    9900018    1    4    4    0    0 -0.63077882380E+03 -0.20482914946E+03  0.16486563145E+03  0.68944380470E+03  0.91187600000E+02 0.  0.
<mgrwt>
<rscale>  0 0.16537423E+04</rscale>
<asrwt>0</asrwt>
<pdfrwt beam="1">  1        2 0.35561017E+00 0.30641486E+04</pdfrwt>
<pdfrwt beam="2">  1       -2 0.20786563E+00 0.30641486E+04</pdfrwt>
<totfact> 0.44222856E-01</totfact>
</mgrwt>
</event>
<event>
12    1  0.2206705E-014  0.2620840E+04  0.7818608E-02  0.8920405E-01
         -2   -1    0    0    0  501 -0.00000000000E+00  0.00000000000E+00  0.81244343858E+03  0.81244343858E+03  0.00000000000E+00 0.  1.
          2   -1    0    0  501    0  0.00000000000E+00 -0.00000000000E+00 -0.26806730036E+04  0.26806730036E+04  0.00000000000E+00 0. -1.
         23    2    1    2    0    0  0.20843256169E+03  0.59998957258E+02 -0.45357549854E+03  0.51485404312E+03  0.11090511794E+03 0.  0.
    9900016    2    1    2    0    0 -0.83688483718E+02  0.32451186800E+03 -0.12420134182E+04  0.25387007388E+04  0.21886279710E+04 0.  0.
         24    2    4    4    0    0 -0.40695990056E+03  0.93065148634E+02 -0.14792720632E+04  0.15390969489E+04  0.79347958015E+02 0.  0.
        -15    1    5    5    0    0 -0.23628439271E+03  0.89502687439E+02 -0.94638254025E+03  0.97953098868E+03  0.00000000000E+00 0.  1.
        -15    1    3    3    0    0  0.59440392541E+01  0.30680274411E+02 -0.25270826920E+02  0.40189868547E+02  0.00000000000E+00 0.  1.
         15    1    3    3    0    0  0.20248852244E+03  0.29318682847E+02 -0.42830467162E+03  0.47466417457E+03  0.00000000000E+00 0. -1.
         15    1    4    4    0    0  0.53285891475E+03  0.15442872227E+03 -0.12089760001E+03  0.56780549749E+03  0.00000000000E+00 0. -1.
        -16    1    1    2    0    0 -0.12474407798E+03 -0.38451082526E+03 -0.17264064824E+03  0.43956166024E+03  0.00000000000E+00 0.  1.
         16    1    5    5    0    0 -0.17067550785E+03  0.35624611958E+01 -0.53288952295E+03  0.55956596017E+03  0.00000000000E+00 0. -1.
    9900018    1    4    4    0    0 -0.20958749790E+03  0.77017997091E+02  0.35815624500E+03  0.43179829247E+03  0.91187600000E+02 0.  0.
<mgrwt>
<rscale>  0 0.14471129E+04</rscale>
<asrwt>0</asrwt>
<pdfrwt beam="1">  1        2 0.41241123E+00 0.26208397E+04</pdfrwt>
<pdfrwt beam="2">  1       -2 0.12499130E+00 0.26208397E+04</pdfrwt>
<totfact> 0.11429947E+00</totfact>
</mgrwt>
</event>
<event>
12    1  0.2206705E-014  0.2891114E+04  0.7818608E-02  0.8760917E-01
          1   -1    0    0  501    0  0.00000000000E+00  0.00000000000E+00  0.18385419358E+04  0.18385419358E+04  0.00000000000E+00 0. -1.
         -1   -1    0    0    0  501 -0.00000000000E+00 -0.00000000000E+00 -0.14251355532E+04  0.14251355532E+04  0.00000000000E+00 0.  1.
         23    2    1    2    0    0  0.28796906010E+03  0.17659526849E+03  0.41120201412E+02  0.34869208004E+03  0.76047533081E+02 0.  0.
    9900016    2    1    2    0    0 -0.59564541611E+03 -0.50162779054E+03  0.59950446111E+03  0.24130501271E+04  0.22038560332E+04 0.  0.
         24    2    4    4    0    0 -0.18707854178E+03 -0.94333328922E+03  0.30760832337E+03  0.10128936887E+04  0.80340952262E+02 0.  0.
        -15    1    5    5    0    0 -0.55636228580E+02 -0.39758853343E+03  0.94357549408E+02  0.41240196287E+03  0.00000000000E+00 0.  1.
        -15    1    3    3    0    0  0.20139977298E+03  0.12765267980E+03 -0.62731222615E+01  0.23852971991E+03  0.00000000000E+00 0. -1.
         15    1    3    3    0    0  0.86569287122E+02  0.48942588690E+02  0.47393323674E+02  0.11016236013E+03  0.00000000000E+00 0.  1.
         15    1    4    4    0    0 -0.69607225806E+03  0.56476941436E+02  0.50972525634E+03  0.86459590001E+03  0.00000000000E+00 0. -1.
        -16    1    1    2    0    0  0.30767635601E+03  0.32503252205E+03 -0.22721827997E+03  0.50193528188E+03  0.00000000000E+00 0.  1.
         16    1    5    5    0    0 -0.13144231320E+03 -0.54574475579E+03  0.21325077397E+03  0.60049172581E+03  0.00000000000E+00 0. -1.
    9900018    1    4    4    0    0  0.28750538373E+03  0.38522855725E+03 -0.21782911861E+03  0.53556053841E+03  0.91187600000E+02 0.  0.
<mgrwt>
<rscale>  0 0.17007843E+04</rscale>
<asrwt>0</asrwt>
<pdfrwt beam="1">  1        1 0.28285261E+00 0.28911145E+04</pdfrwt>
<pdfrwt beam="2">  1       -1 0.21925162E+00 0.28911145E+04</pdfrwt>
<totfact> 0.36261871E-01</totfact>
</mgrwt>
</event>
<event>
12    1  0.2206705E-014  0.3850892E+04  0.7818608E-02  0.8035321E-01
          1   -1    0    0  501    0  0.00000000000E+00  0.00000000000E+00  0.26021887077E+04  0.26021887077E+04  0.00000000000E+00 0. -1.
         -1   -1    0    0    0  501 -0.00000000000E+00 -0.00000000000E+00 -0.14247017755E+04  0.14247017755E+04  0.00000000000E+00 0.  1.
         23    2    1    2    0    0  0.16481596192E+03 -0.33486487192E+03 -0.18246901661E+03  0.42883503779E+03  0.10632856559E+03 0.  0.
    9900016    2    1    2    0    0 -0.35758500435E+03  0.25701749777E+03  0.19360044572E+04  0.29856405522E+04  0.22298007130E+04 0.  0.
         24    2    4    4    0    0 -0.90566506415E+03  0.71315585556E+03  0.63556085882E+03  0.13188613691E+04  0.81469152916E+02 0.  0.
        -15    1    5    5    0    0 -0.51737281196E+03  0.38881807126E+03  0.31351393816E+03  0.71912801956E+03  0.00000000000E+00 0.  1.
        -15    1    3    3    0    0  0.18375786598E+02  0.40649704286E+01 -0.74640770266E+01  0.20246134533E+02  0.00000000000E+00 0. -1.
         15    1    4    4    0    0  0.67795265052E+03 -0.14677059546E+03  0.82737408108E+03  0.10796801721E+04  0.00000000000E+00 0. -1.
         15    1    3    3    0    0  0.14644017532E+03 -0.33892984235E+03 -0.17500493959E+03  0.40858890325E+03  0.00000000000E+00 0.  1.
        -16    1    1    2    0    0  0.19276904243E+03  0.77847374150E+02 -0.57604850841E+03  0.61241489321E+03  0.00000000000E+00 0.  1.
         16    1    5    5    0    0 -0.38829225218E+03  0.32433778430E+03  0.32204692066E+03  0.59973334953E+03  0.00000000000E+00 0. -1.
    9900018    1    4    4    0    0 -0.12987259072E+03 -0.30936776233E+03  0.47306951727E+03  0.58709901103E+03  0.91187600000E+02 0.  0.
<mgrwt>
<rscale>  0 0.38508923E+04</rscale>
<asrwt>0</asrwt>
<pdfrwt beam="1">  1        1 0.40033672E+00 0.38508923E+04</pdfrwt>
<pdfrwt beam="2">  1       -1 0.21918489E+00 0.38508923E+04</pdfrwt>
<totfact> 0.10151371E-01</totfact>
</mgrwt>
</event>
<event>
12    1  0.2206705E-014  0.2828265E+04  0.7818608E-02  0.8294547E-01
         -2   -1    0    0    0  501 -0.00000000000E+00  0.00000000000E+00  0.79807971625E+03  0.79807971625E+03  0.00000000000E+00 0.  1.
          2   -1    0    0  501    0  0.00000000000E+00 -0.00000000000E+00 -0.25057276223E+04  0.25057276223E+04  0.00000000000E+00 0. -1.
         23    2    1    2    0    0  0.13489752002E+03 -0.20073064215E+03 -0.28561571594E+03  0.39090820936E+03  0.11288383121E+03 0.  0.
    9900016    2    1    2    0    0  0.56681611122E+02  0.68470803553E+02 -0.15151933021E+04  0.26621518039E+04  0.21870849156E+04 0.  0.
         24    2    4    4    0    0 -0.88440488109E+02  0.81667341194E+03 -0.37982081715E+03  0.90854689901E+03  0.80102639463E+02 0.  0.
        -15    1    5    5    0    0 -0.65403096430E+01  0.43160352178E+03 -0.20067891414E+03  0.47602143044E+03  0.00000000000E+00 0.  1.
        -15    1    3    3    0    0  0.46901521587E+02 -0.77613103556E+02 -0.33133932266E+02  0.96547418599E+02  0.00000000000E+00 0.  1.
         15    1    4    4    0    0  0.39873534639E+03 -0.50907592202E+02 -0.94249853615E+01  0.40208244149E+03  0.00000000000E+00 0. -1.
         15    1    3    3    0    0  0.87995998438E+02 -0.12311753859E+03 -0.25248178368E+03  0.29436079076E+03  0.00000000000E+00 0. -1.
        -16    1    1    2    0    0 -0.19157913115E+03  0.13225983859E+03  0.93161111969E+02  0.25074732537E+03  0.00000000000E+00 0.  1.
         16    1    5    5    0    0 -0.81900178466E+02  0.38506989016E+03 -0.17914190302E+03  0.43252546856E+03  0.00000000000E+00 0. -1.
    9900018    1    4    4    0    0 -0.25361324716E+03 -0.69729501618E+03 -0.11259474996E+04  0.13515224634E+04  0.91187600000E+02 0.  0.
<mgrwt>
<rscale>  0 0.28282648E+04</rscale>
<asrwt>0</asrwt>
<pdfrwt beam="1">  1        2 0.38549656E+00 0.28282648E+04</pdfrwt>
<pdfrwt beam="2">  1       -2 0.12278149E+00 0.28282648E+04</pdfrwt>
<totfact> 0.15036820E+00</totfact>
</mgrwt>
</event>
<event>
12    1  0.2206705E-014  0.2725297E+04  0.7818608E-02  0.8756522E-01
          2   -1    0    0  501    0  0.00000000000E+00  0.00000000000E+00  0.23439976033E+04  0.23439976033E+04  0.00000000000E+00 0. -1.
         -2   -1    0    0    0  501 -0.00000000000E+00 -0.00000000000E+00 -0.13867523574E+04  0.13867523574E+04  0.00000000000E+00 0.  1.
         23    2    1    2    0    0 -0.29692727911E+03 -0.27823477463E+03  0.91268867729E+03  0.10050890060E+04  0.10780950505E+03 0.  0.
    9900016    2    1    2    0    0  0.29921602458E+03 -0.21057289245E+03  0.11231375512E+03  0.22321741666E+04  0.21991170860E+04 0.  0.
         24    2    4    4    0    0  0.10523545577E+04  0.85124161850E+02  0.23151121725E+03  0.10840072545E+04  0.82328888994E+02 0.  0.
        -15    1    3    3    0    0 -0.11183089705E+03 -0.13053730787E+03  0.26904825629E+03  0.31926963917E+03  0.00000000000E+00 0.  1.
        -15    1    5    5    0    0  0.25118230573E+03  0.55232123102E+02  0.62094161337E+02  0.26457290679E+03  0.00000000000E+00 0.  1.
         15    1    4    4    0    0 -0.76807997790E+03 -0.35510251606E+03 -0.33175286435E+03  0.90890297193E+03  0.00000000000E+00 0. -1.
         15    1    3    3    0    0 -0.18509638206E+03 -0.14769746675E+03  0.64364042100E+03  0.68581936680E+03  0.00000000000E+00 0. -1.
        -16    1    1    2    0    0 -0.22887454663E+01  0.48880766707E+03 -0.67757186555E+02  0.49348678815E+03  0.00000000000E+00 0.  1.
         16    1    5    5    0    0  0.80117225198E+03  0.29892038748E+02  0.16941705591E+03  0.81943434768E+03  0.00000000000E+00 0. -1.
    9900018    1    4    4    0    0  0.14941444774E+02  0.59405461762E+02  0.21255540223E+03  0.23926394018E+03  0.91187600000E+02 0.  0.
<mgrwt>
<rscale>  0 0.17085171E+04</rscale>
<asrwt>0</asrwt>
<pdfrwt beam="1">  1        2 0.36061501E+00 0.27252967E+04</pdfrwt>
<pdfrwt beam="2">  1       -2 0.21334652E+00 0.27252967E+04</pdfrwt>
<totfact> 0.39712841E-01</totfact>
</mgrwt>
</event>
<event>
12    1  0.2206705E-014  0.3239739E+04  0.7818608E-02  0.8178400E-01
          1   -1    0    0  501    0  0.00000000000E+00  0.00000000000E+00  0.22477299353E+04  0.22477299353E+04  0.00000000000E+00 0. -1.
         -1   -1    0    0    0  501 -0.00000000000E+00 -0.00000000000E+00 -0.11673898155E+04  0.11673898155E+04  0.00000000000E+00 0.  1.
         23    2    1    2    0    0 -0.20492400578E+03 -0.41592245873E+03  0.21006956346E+02  0.47007261306E+03  0.74442121874E+02 0.  0.
    9900016    2    1    2    0    0  0.35281227950E+03  0.69625490956E+03  0.11686527527E+04  0.26097741190E+04  0.21990735077E+04 0.  0.
         24    2    4    4    0    0 -0.22887231809E+03  0.10894567700E+04  0.66888134610E+02  0.11181013420E+04  0.79862360954E+02 0.  0.
        -15    1    3    3    0    0 -0.14853236109E+03 -0.36218815838E+03  0.23198644780E+02  0.39214831567E+03  0.00000000000E+00 0.  1.
        -15    1    5    5    0    0 -0.26366912664E+02  0.86432749858E+02  0.25963942975E+02  0.94021065014E+02  0.00000000000E+00 0.  1.
         15    1    3    3    0    0 -0.56391644693E+02 -0.53734300348E+02 -0.21916884348E+01  0.77924297387E+02  0.00000000000E+00 0. -1.
         15    1    4    4    0    0  0.20011789619E+03  0.19086746141E+03  0.17191603763E+03  0.32562660241E+03  0.00000000000E+00 0. -1.
        -16    1    1    2    0    0 -0.14788827372E+03 -0.28033245083E+03 -0.10931958925E+03  0.33527301873E+03  0.00000000000E+00 0.  1.
         16    1    5    5    0    0 -0.20250540542E+03  0.10030240202E+04  0.40924191634E+02  0.10240802770E+04  0.00000000000E+00 0. -1.
    9900018    1    4    4    0    0  0.38156670140E+03 -0.58406932189E+03  0.92984858044E+03  0.11660461746E+04  0.91187600000E+02 0.  0.
<mgrwt>
<rscale>  0 0.32397389E+04</rscale>
<asrwt>0</asrwt>
<pdfrwt beam="1">  1        1 0.34580461E+00 0.32397389E+04</pdfrwt>
<pdfrwt beam="2">  1       -1 0.17959843E+00 0.32397389E+04</pdfrwt>
<totfact> 0.35300866E-01</totfact>
</mgrwt>
</event>
<event>
11    1  0.2206705E-014  0.3615171E+04  0.7818608E-02  0.8219171E-01
         -2   -1    0    0    0  501 -0.00000000000E+00  0.00000000000E+00  0.16844918872E+04  0.16844918872E+04  0.00000000000E+00 0.  1.
          2   -1    0    0  501    0  0.00000000000E+00 -0.00000000000E+00 -0.45780700778E+04  0.45780700778E+04  0.00000000000E+00 0. -1.
    9900016    2    1    2    0    0 -0.85259569342E+03 -0.19106196692E+03 -0.49596847474E+03  0.24097372577E+04  0.21903024520E+04 0.  0.
         24    2    3    3    0    0 -0.57039342306E+03 -0.46326520203E+03 -0.38696443132E+02  0.74017296934E+03  0.79970652994E+02 0.  0.
        -15    1    4    4    0    0 -0.33135323839E+03 -0.31253142994E+03 -0.44739880612E+01  0.45551166820E+03  0.00000000000E+00 0.  1.
        -15    1    1    2    0    0  0.63416815731E+02 -0.15998205212E+02 -0.12408593403E+03  0.14026743782E+03  0.00000000000E+00 0.  1.
         15    1    3    3    0    0 -0.27037059984E+03 -0.31106385781E+03  0.43523770970E+03  0.59941041769E+03  0.00000000000E+00 0. -1.
         15    1    1    2    0    0  0.16443774694E+04  0.81503417677E+03 -0.11058589976E+04  0.21427043879E+04  0.00000000000E+00 0. -1.
        -16    1    1    2    0    0 -0.85519859171E+03 -0.60797400464E+03 -0.11676647842E+04  0.15698528816E+04  0.00000000000E+00 0.  1.
         16    1    4    4    0    0 -0.23904018467E+03 -0.15073377209E+03 -0.34222455070E+02  0.28466130114E+03  0.00000000000E+00 0. -1.
    9900018    1    3    3    0    0 -0.11831670518E+02  0.58326709292E+03 -0.89250974131E+03  0.10701538706E+04  0.91187600000E+02 0.  0.
<mgrwt>
<rscale>  0 0.30875220E+04</rscale>
<asrwt>0</asrwt>
<pdfrwt beam="1">  1        2 0.70431848E+00 0.36151711E+04</pdfrwt>
<pdfrwt beam="2">  1       -2 0.25915260E+00 0.36151711E+04</pdfrwt>
<totfact> 0.44535332E-03</totfact>
</mgrwt>
</event>
<event>
12    1  0.2206705E-014  0.2876531E+04  0.7818608E-02  0.8956628E-01
         -1   -1    0    0    0  501 -0.00000000000E+00  0.00000000000E+00  0.21048698154E+04  0.21048698154E+04  0.00000000000E+00 0.  1.
          1   -1    0    0  501    0  0.00000000000E+00 -0.00000000000E+00 -0.10981506121E+04  0.10981506121E+04  0.00000000000E+00 0. -1.
         23    2    1    2    0    0  0.61588411551E+02 -0.10300733659E+03  0.93590840473E+02  0.18503549394E+03  0.10523898882E+03 0.  0.
    9900016    2    1    2    0    0 -0.22994466192E+03 -0.47931872207E+03  0.92885843038E+03  0.24116064209E+04  0.21611215979E+04 0.  0.
        -24    2    4    4    0    0  0.28485107493E+03 -0.60780130380E+03 -0.43387908143E+03  0.80318803327E+03  0.79356157287E+02 0.  0.
        -15    1    4    4    0    0 -0.33664263361E+03 -0.18972519332E+03  0.32578141521E+03  0.50542797928E+03  0.00000000000E+00 0.  1.
        -15    1    3    3    0    0 -0.65630170879E+01 -0.89757249789E+02  0.48265197976E+02  0.10212231107E+03  0.00000000000E+00 0.  1.
         15    1    5    5    0    0  0.19349309547E+03 -0.48274142639E+03 -0.31595040599E+03  0.60852569526E+03  0.00000000000E+00 0. -1.
         15    1    3    3    0    0  0.68151428639E+02 -0.13250086804E+02  0.45325642497E+02  0.82913182870E+02  0.00000000000E+00 0. -1.
        -16    1    5    5    0    0  0.91357979462E+02 -0.12505987741E+03 -0.11792867544E+03  0.19466233801E+03  0.00000000000E+00 0.  1.
         16    1    1    2    0    0  0.16835625036E+03  0.58232605866E+03 -0.15730067563E+02  0.60637851269E+03  0.00000000000E+00 0. -1.
    9900018    1    4    4    0    0 -0.17815310323E+03  0.31820777505E+03  0.10369560966E+04  0.11029904084E+04  0.91187600000E+02 0.  0.
<mgrwt>
<rscale>  0 0.13961251E+04</rscale>
<asrwt>0</asrwt>
<pdfrwt beam="1">  1        1 0.16894625E+00 0.28765308E+04</pdfrwt>
<pdfrwt beam="2">  1       -1 0.32382612E+00 0.28765308E+04</pdfrwt>
<totfact> 0.25139796E-01</totfact>
</mgrwt>
</event>
<event>
12    1  0.2206705E-014  0.2757297E+04  0.7818608E-02  0.8316650E-01
         -2   -1    0    0    0  501 -0.00000000000E+00  0.00000000000E+00  0.94574985314E+03  0.94574985314E+03  0.00000000000E+00 0.  1.
          2   -1    0    0  501    0  0.00000000000E+00 -0.00000000000E+00 -0.20096975231E+04  0.20096975231E+04  0.00000000000E+00 0. -1.
         23    2    1    2    0    0 -0.57833024620E+02 -0.24694459521E+03  0.85796242236E+02  0.28864801831E+03  0.10784429264E+03 0.  0.
    9900016    2    1    2    0    0  0.58154490643E+02  0.16755533109E+03 -0.90833714116E+03  0.24126734291E+04  0.22281068151E+04 0.  0.
        -24    2    4    4    0    0  0.74804033957E+03  0.57275171712E+03 -0.70938487786E+03  0.11819321466E+04  0.78280362722E+02 0.  0.
        -15    1    3    3    0    0 -0.38485573524E+02 -0.23339087842E+03  0.43944874909E+02  0.24059009441E+03  0.00000000000E+00 0. -1.
        -15    1    4    4    0    0 -0.66611291807E+03  0.12199500356E+03 -0.77663102710E+02  0.68163095443E+03  0.00000000000E+00 0.  1.
         15    1    3    3    0    0 -0.19347451096E+02 -0.13553716792E+02  0.41851367327E+02  0.48057923904E+02  0.00000000000E+00 0.  1.
         15    1    5    5    0    0  0.50065221243E+03  0.33625637949E+03 -0.44735193844E+03  0.75089596310E+03  0.00000000000E+00 0. -1.
        -16    1    5    5    0    0  0.24738812714E+03  0.23649533762E+03 -0.26203293942E+03  0.43103618352E+03  0.00000000000E+00 0.  1.
         16    1    1    2    0    0 -0.32146602246E+00  0.79389264119E+02 -0.24140677101E+03  0.25412592879E+03  0.00000000000E+00 0. -1.
    9900018    1    4    4    0    0 -0.23772930853E+02 -0.52719138959E+03 -0.12128916059E+03  0.54911032805E+03  0.91187600000E+02 0.  0.
<mgrwt>
<rscale>  0 0.27572966E+04</rscale>
<asrwt>0</asrwt>
<pdfrwt beam="1">  1        2 0.30918423E+00 0.27572966E+04</pdfrwt>
<pdfrwt beam="2">  1       -2 0.14549998E+00 0.27572966E+04</pdfrwt>
<totfact> 0.18711676E+00</totfact>
</mgrwt>
</event>
<event>
11    1  0.2206705E-014  0.2761688E+04  0.7818608E-02  0.8891508E-01
         -2   -1    0    0    0  501 -0.00000000000E+00  0.00000000000E+00  0.16286657631E+04  0.16286657631E+04  0.00000000000E+00 0.  1.
          2   -1    0    0  501    0  0.00000000000E+00 -0.00000000000E+00 -0.13785004488E+04  0.13785004488E+04  0.00000000000E+00 0. -1.
    9900016    2    1    2    0    0  0.68016141939E+02 -0.12283057833E+03 -0.26719717722E+03  0.22381638547E+04  0.22177171962E+04 0.  0.
        -24    2    3    3    0    0  0.98239279892E+03  0.20898001667E+03  0.38004066189E+02  0.10081052554E+04  0.77869366502E+02 0.  0.
        -15    1    3    3    0    0 -0.84853581662E+03 -0.20064014723E+03 -0.47063612816E+03  0.99084199845E+03  0.00000000000E+00 0.  1.
        -15    1    1    2    0    0  0.20049958450E+02 -0.14345323913E+03 -0.22343199550E+02  0.14656074241E+03  0.00000000000E+00 0.  1.
         15    1    1    2    0    0 -0.56285204461E+02  0.26713540361E+02  0.66681578265E+02  0.91258261871E+02  0.00000000000E+00 0. -1.
         15    1    4    4    0    0  0.27801235046E+03  0.59557919527E+02  0.45934210235E+02  0.28800688265E+03  0.00000000000E+00 0. -1.
        -16    1    4    4    0    0  0.70438044846E+03  0.14942209715E+03 -0.79301440461E+01  0.72009837278E+03  0.00000000000E+00 0.  1.
         16    1    1    2    0    0 -0.31780895928E+02  0.23957027710E+03  0.47302411284E+03  0.53118335284E+03  0.00000000000E+00 0. -1.
    9900018    1    3    3    0    0 -0.65840840359E+02 -0.13117044777E+03  0.16543488475E+03  0.23921660083E+03  0.91187600000E+02 0.  0.
<mgrwt>
<rscale>  0 0.14894367E+04</rscale>
<asrwt>0</asrwt>
<pdfrwt beam="1">  1        2 0.21207699E+00 0.27616878E+04</pdfrwt>
<pdfrwt beam="2">  1       -2 0.25056397E+00 0.27616878E+04</pdfrwt>
<totfact> 0.82166348E-01</totfact>
</mgrwt>
</event>
<event>
12    1  0.2206705E-014  0.3453907E+04  0.7818608E-02  0.8124801E-01
         -2   -1    0    0    0  501 -0.00000000000E+00  0.00000000000E+00  0.12846479441E+04  0.12846479441E+04  0.00000000000E+00 0.  1.
          2   -1    0    0  501    0  0.00000000000E+00 -0.00000000000E+00 -0.23215455802E+04  0.23215455802E+04  0.00000000000E+00 0. -1.
         23    2    1    2    0    0 -0.49682779241E+03  0.12589475949E+03 -0.23513468042E+03  0.57372714176E+03  0.10576941658E+03 0.  0.
    9900016    2    1    2    0    0  0.12942719881E+03  0.17651691187E+03 -0.13355590753E+03  0.22121392073E+04  0.21972284979E+04 0.  0.
         24    2    4    4    0    0 -0.12127517075E+03 -0.88741585125E+03  0.20651387276E+03  0.92249512218E+03  0.78324394159E+02 0.  0.
        -15    1    5    5    0    0  0.99140551476E+01 -0.12343396188E+03  0.32888357526E+02  0.12812445316E+03  0.00000000000E+00 0.  1.
        -15    1    3    3    0    0 -0.92264136257E+02 -0.88767981357E+01 -0.15197793633E+02  0.93927851651E+02  0.00000000000E+00 0.  1.
         15    1    3    3    0    0 -0.40456365615E+03  0.13477155763E+03 -0.21993688679E+03  0.47979929011E+03  0.00000000000E+00 0. -1.
         15    1    4    4    0    0  0.29189844248E+03  0.20316654423E+03 -0.21099385776E+03  0.41352116443E+03  0.00000000000E+00 0. -1.
        -16    1    1    2    0    0  0.36740059359E+03 -0.30241167136E+03 -0.66820704821E+03  0.82032717523E+03  0.00000000000E+00 0.  1.
         16    1    5    5    0    0 -0.13118922590E+03 -0.76398188937E+03  0.17362551523E+03  0.79437066903E+03  0.00000000000E+00 0. -1.
    9900018    1    4    4    0    0 -0.41196072917E+02  0.86076621889E+03 -0.12907592252E+03  0.87612292070E+03  0.91187600000E+02 0.  0.
<mgrwt>
<rscale>  0 0.34539072E+04</rscale>
<asrwt>0</asrwt>
<pdfrwt beam="1">  1        2 0.35716086E+00 0.34539072E+04</pdfrwt>
<pdfrwt beam="2">  1       -2 0.19763815E+00 0.34539072E+04</pdfrwt>
<totfact> 0.50113924E-01</totfact>
</mgrwt>
</event>
<event>
11    1  0.2206705E-014  0.3217991E+04  0.7818608E-02  0.8546374E-01
         -1   -1    0    0    0  501 -0.00000000000E+00  0.00000000000E+00  0.12021214382E+04  0.12021214382E+04  0.00000000000E+00 0.  1.
          1   -1    0    0  501    0  0.00000000000E+00 -0.00000000000E+00 -0.32243214909E+04  0.32243214909E+04  0.00000000000E+00 0. -1.
    9900016    2    1    2    0    0  0.63579345564E+03  0.92592482762E+02 -0.11811543013E+04  0.25821343038E+04  0.22044240502E+04 0.  0.
         24    2    3    3    0    0  0.50792138702E+03 -0.85256514034E+03 -0.43893950701E+03  0.10878801574E+04  0.77226239751E+02 0.  0.
        -15    1    4    4    0    0  0.18711995832E+02 -0.22049030625E+02 -0.40766368514E+00  0.28921699970E+02  0.00000000000E+00 0.  1.
        -15    1    1    2    0    0 -0.21694038458E+02 -0.87283892758E+02  0.56092172145E+02  0.10599736325E+03  0.00000000000E+00 0.  1.
         15    1    1    2    0    0  0.23396834497E+03 -0.23655401154E+03 -0.78444475581E+03  0.85208717966E+03  0.00000000000E+00 0. -1.
         15    1    3    3    0    0  0.13549936044E+03  0.32984360974E+03 -0.79362143155E+03  0.87005279161E+03  0.00000000000E+00 0. -1.
        -16    1    1    2    0    0 -0.84806776215E+03  0.23124542153E+03 -0.11269316764E+03  0.88622408239E+03  0.00000000000E+00 0.  1.
         16    1    4    4    0    0  0.48920939118E+03 -0.83051610971E+03 -0.43853184332E+03  0.10589584574E+04  0.00000000000E+00 0. -1.
    9900018    1    3    3    0    0 -0.76272918189E+01  0.61531401335E+03  0.51406637227E+02  0.62420135482E+03  0.91187600000E+02 0.  0.
<mgrwt>
<rscale>  0 0.21340894E+04</rscale>
<asrwt>0</asrwt>
<pdfrwt beam="1">  1        1 0.49604945E+00 0.32179914E+04</pdfrwt>
<pdfrwt beam="2">  1       -1 0.18494176E+00 0.32179914E+04</pdfrwt>
<totfact> 0.63862828E-02</totfact>
</mgrwt>
</event>
<event>
12    1  0.2206705E-014  0.2708682E+04  0.7818608E-02  0.8926080E-01
          1   -1    0    0  501    0  0.00000000000E+00  0.00000000000E+00  0.23809802931E+04  0.23809802931E+04  0.00000000000E+00 0. -1.
         -1   -1    0    0    0  501 -0.00000000000E+00 -0.00000000000E+00 -0.90082937376E+03  0.90082937376E+03  0.00000000000E+00 0.  1.
         23    2    1    2    0    0  0.20512404532E+03 -0.30618289188E+02  0.62720726741E+02  0.22467618514E+03  0.59431851794E+02 0.  0.
    9900016    2    1    2    0    0  0.16089968200E+03  0.15627966747E+03  0.84315048690E+03  0.23646298129E+04  0.21977851047E+04 0.  0.
        -24    2    4    4    0    0  0.15405882086E+03 -0.94473882550E+03  0.71193160406E+02  0.96306947191E+03  0.78541536440E+02 0.  0.
        -15    1    3    3    0    0  0.52874124860E+02  0.17859457945E+02  0.12543511032E+02  0.57201162460E+02  0.00000000000E+00 0. -1.
        -15    1    4    4    0    0 -0.16724553044E+03  0.65896166403E+03  0.52127074264E+03  0.85669406981E+03  0.00000000000E+00 0.  1.
         15    1    5    5    0    0  0.30458724968E+02 -0.42946103761E+03  0.32187608466E+02  0.43174131015E+03  0.00000000000E+00 0. -1.
         15    1    3    3    0    0  0.15224992046E+03 -0.48477747133E+02  0.50177215709E+02  0.16747502268E+03  0.00000000000E+00 0.  1.
        -16    1    5    5    0    0  0.12360009589E+03 -0.51527778788E+03  0.39005551940E+02  0.53132816176E+03  0.00000000000E+00 0.  1.
         16    1    1    2    0    0 -0.36602372732E+03 -0.12566137829E+03  0.57427970566E+03  0.69250366879E+03  0.00000000000E+00 0. -1.
    9900018    1    4    4    0    0  0.17408639158E+03  0.44205682894E+03  0.25068658385E+03  0.54486627118E+03  0.91187600000E+02 0.  0.
<mgrwt>
<rscale>  0 0.14389748E+04</rscale>
<asrwt>0</asrwt>
<pdfrwt beam="1">  1        1 0.36630466E+00 0.27086817E+04</pdfrwt>
<pdfrwt beam="2">  1       -1 0.13858914E+00 0.27086817E+04</pdfrwt>
<totfact> 0.61049181E-01</totfact>
</mgrwt>
</event>
<event>
12    1  0.2206705E-014  0.2812390E+04  0.7818608E-02  0.9044445E-01
          2   -1    0    0  501    0  0.00000000000E+00  0.00000000000E+00  0.17121339483E+04  0.17121339483E+04  0.00000000000E+00 0.  1.
         -2   -1    0    0    0  501 -0.00000000000E+00 -0.00000000000E+00 -0.12779332373E+04  0.12779332373E+04  0.00000000000E+00 0. -1.
         23    2    1    2    0    0 -0.15500103191E+02  0.94183285585E+02 -0.58931836901E+02  0.13477106471E+03  0.74696278350E+02 0.  0.
    9900016    2    1    2    0    0 -0.28842678154E+03 -0.41135916497E+03  0.89042018018E+02  0.22584198808E+04  0.22000285239E+04 0.  0.
         24    2    4    4    0    0 -0.35251333220E+03 -0.10975803738E+04  0.36076544978E+03  0.12106916669E+04  0.81696242705E+02 0.  0.
        -15    1    5    5    0    0 -0.10698936305E+03 -0.22707050246E+03  0.87835711337E+02  0.26593767894E+03  0.00000000000E+00 0.  1.
        -15    1    3    3    0    0 -0.22897065121E+02  0.21804673082E+02 -0.53076097281E+02  0.61780186646E+02  0.00000000000E+00 0. -1.
         15    1    4    4    0    0 -0.31501383119E+03  0.22719604837E+03 -0.21202665729E+03  0.44250091711E+03  0.00000000000E+00 0. -1.
         15    1    3    3    0    0  0.73969619304E+01  0.72378612504E+02 -0.58557396196E+01  0.72990878062E+02  0.00000000000E+00 0.  1.
        -16    1    1    2    0    0  0.30392688473E+03  0.31717587938E+03  0.40409052986E+03  0.59687624014E+03  0.00000000000E+00 0.  1.
         16    1    5    5    0    0 -0.24552396914E+03 -0.87050987138E+03  0.27292973844E+03  0.94475398794E+03  0.00000000000E+00 0. -1.
    9900018    1    4    4    0    0  0.37910038185E+03  0.45902516050E+03 -0.59696774470E+02  0.60522729678E+03  0.91187600000E+02 0.  0.
<mgrwt>
<rscale>  0 0.12814020E+04</rscale>
<asrwt>0</asrwt>
<pdfrwt beam="1">  1        2 0.26340522E+00 0.28123898E+04</pdfrwt>
<pdfrwt beam="2">  1       -2 0.19660511E+00 0.28123898E+04</pdfrwt>
<totfact> 0.11693242E+00</totfact>
</mgrwt>
</event>
<event>
12    1  0.2206705E-014  0.2704931E+04  0.7818608E-02  0.8852917E-01
         -1   -1    0    0    0  501 -0.00000000000E+00  0.00000000000E+00  0.13515168173E+04  0.13515168173E+04  0.00000000000E+00 0. -1.
          1   -1    0    0  501    0  0.00000000000E+00 -0.00000000000E+00 -0.16783510116E+04  0.16783510116E+04  0.00000000000E+00 0.  1.
         23    2    1    2    0    0  0.12169542055E+03 -0.25233782537E+03  0.62492382987E+02  0.29706178137E+03  0.76526142713E+02 0.  0.
    9900016    2    1    2    0    0 -0.33354449260E+03  0.33735680052E+02 -0.71846617292E+03  0.22844760344E+04  0.21424861926E+04 0.  0.
        -24    2    4    4    0    0  0.27456820395E+03 -0.69584423113E+03 -0.52694611398E+03  0.91848408760E+03  0.79711476693E+02 0.  0.
        -15    1    3    3    0    0  0.56935372359E+02 -0.91243450067E+02  0.60557773850E+02  0.12342709500E+03  0.00000000000E+00 0. -1.
        -15    1    4    4    0    0 -0.51573327379E+03  0.88262508838E+03  0.83363341577E+02  0.10256496980E+04  0.00000000000E+00 0.  1.
         15    1    5    5    0    0  0.20639102489E+03 -0.41768643424E+03 -0.32761946648E+03  0.56955572802E+03  0.00000000000E+00 0. -1.
         15    1    3    3    0    0  0.64760048193E+02 -0.16109437531E+03  0.19346091373E+01  0.17363468637E+03  0.00000000000E+00 0.  1.
        -16    1    5    5    0    0  0.68177179059E+02 -0.27815779689E+03 -0.19932664750E+03  0.34892835958E+03  0.00000000000E+00 0.  1.
         16    1    1    2    0    0  0.21184907205E+03  0.21860214532E+03  0.32913959568E+03  0.44833001317E+03  0.00000000000E+00 0. -1.
    9900018    1    4    4    0    0 -0.92379422764E+02 -0.15304517720E+03 -0.27488340051E+03  0.34034224875E+03  0.91187600000E+02 0.  0.
<mgrwt>
<rscale>  0 0.15483589E+04</rscale>
<asrwt>0</asrwt>
<pdfrwt beam="1">  1        1 0.25820785E+00 0.27049314E+04</pdfrwt>
<pdfrwt beam="2">  1       -1 0.20792566E+00 0.27049314E+04</pdfrwt>
<totfact> 0.56581613E-01</totfact>
</mgrwt>
</event>
<event>
12    1  0.2206705E-014  0.3054275E+04  0.7818608E-02  0.8802580E-01
          1   -1    0    0  501    0  0.00000000000E+00  0.00000000000E+00  0.34314634988E+04  0.34314634988E+04  0.00000000000E+00 0. -1.
         -1   -1    0    0    0  501 -0.00000000000E+00 -0.00000000000E+00 -0.84312904741E+03  0.84312904741E+03  0.00000000000E+00 0.  1.
         23    2    1    2    0    0  0.23092576756E+03 -0.43548375149E+02 -0.32975405230E+02  0.24968778367E+03  0.77675226844E+02 0.  0.
    9900016    2    1    2    0    0  0.55430582671E+03  0.13432987618E+03  0.18453580328E+04  0.29172355111E+04  0.21862335861E+04 0.  0.
        -24    2    4    4    0    0 -0.80548836880E+03  0.76160841551E+02  0.42041526164E+03  0.91569214135E+03  0.84445955810E+02 0.  0.
        -15    1    3    3    0    0  0.15012179008E+03 -0.78256760922E+01  0.11521994211E+02  0.15076653944E+03  0.00000000000E+00 0. -1.
        -15    1    4    4    0    0  0.11102129767E+04 -0.42794189473E+02  0.10306278388E+04  0.15154530472E+04  0.00000000000E+00 0.  1.
         15    1    5    5    0    0 -0.24030732852E+03  0.59232676066E+02  0.11272874849E+03  0.27196303571E+03  0.00000000000E+00 0. -1.
         15    1    3    3    0    0  0.80803977477E+02 -0.35722699057E+02 -0.44497399442E+02  0.98921244235E+02  0.00000000000E+00 0.  1.
        -16    1    5    5    0    0 -0.56518104028E+03  0.16928165485E+02  0.30768651315E+03  0.64372910565E+03  0.00000000000E+00 0.  1.
         16    1    1    2    0    0 -0.78523159427E+03 -0.90781501026E+02  0.77595182384E+03  0.11076692514E+04  0.00000000000E+00 0. -1.
    9900018    1    4    4    0    0  0.24958121885E+03  0.10096322410E+03  0.39431493236E+03  0.48609032257E+03  0.91187600000E+02 0.  0.
<mgrwt>
<rscale>  0 0.16295781E+04</rscale>
<asrwt>0</asrwt>
<pdfrwt beam="1">  1        1 0.52791745E+00 0.30542745E+04</pdfrwt>
<pdfrwt beam="2">  1       -1 0.12971216E+00 0.30542745E+04</pdfrwt>
<totfact> 0.12083743E-01</totfact>
</mgrwt>
</event>
<event>
12    1  0.2206705E-014  0.3022233E+04  0.7818608E-02  0.8676709E-01
          2   -1    0    0  501    0  0.00000000000E+00  0.00000000000E+00  0.15341140789E+04  0.15341140789E+04  0.00000000000E+00 0. -1.
         -2   -1    0    0    0  501 -0.00000000000E+00 -0.00000000000E+00 -0.20620598113E+04  0.20620598113E+04  0.00000000000E+00 0.  1.
         23    2    1    2    0    0  0.84492111271E+02  0.40822264444E+03 -0.37356850059E+03  0.57000107801E+03  0.10753213475E+03 0.  0.
    9900016    2    1    2    0    0 -0.23257232062E+03  0.54441828504E+02  0.44168318141E+03  0.22572292648E+04  0.22006694718E+04 0.  0.
        -24    2    4    4    0    0  0.58413043155E+03  0.30376944854E+03 -0.40836218735E+03  0.77893123232E+03  0.80560224001E+02 0.  0.
        -15    1    3    3    0    0  0.78054647092E+02  0.19909437248E+03 -0.24152336018E+03  0.32259049985E+03  0.00000000000E+00 0.  1.
        -15    1    4    4    0    0 -0.74823770432E+03 -0.47121295990E+03  0.85326644547E+03  0.12288063081E+04  0.00000000000E+00 0.  1.
         15    1    5    5    0    0  0.15302334080E+03  0.92500780625E+02 -0.15197817119E+03  0.23466977173E+03  0.00000000000E+00 0. -1.
         15    1    3    3    0    0  0.64374641786E+01  0.20912827196E+03 -0.13204514041E+03  0.24741057816E+03  0.00000000000E+00 0. -1.
        -16    1    5    5    0    0  0.43110709075E+03  0.21126866792E+03 -0.25638401616E+03  0.54426146059E+03  0.00000000000E+00 0.  1.
         16    1    1    2    0    0  0.14808020934E+03 -0.46266447294E+03 -0.59606041320E+03  0.76894354741E+03  0.00000000000E+00 0. -1.
    9900018    1    4    4    0    0 -0.68465047841E+02  0.22188533986E+03 -0.32210767116E+01  0.24949172441E+03  0.91187600000E+02 0.  0.
<mgrwt>
<rscale>  0 0.18567111E+04</rscale>
<asrwt>0</asrwt>
<pdfrwt beam="1">  1        2 0.23601755E+00 0.30222325E+04</pdfrwt>
<pdfrwt beam="2">  1       -2 0.31723997E+00 0.30222325E+04</pdfrwt>
<totfact> 0.25376964E-01</totfact>
</mgrwt>
</event>
<event>
11    1  0.2206705E-014  0.3042950E+04  0.7818608E-02  0.8538246E-01
          1   -1    0    0  501    0  0.00000000000E+00  0.00000000000E+00  0.39835454243E+04  0.39835454243E+04  0.00000000000E+00 0. -1.
         -1   -1    0    0    0  501 -0.00000000000E+00 -0.00000000000E+00 -0.90927148320E+03  0.90927148320E+03  0.00000000000E+00 0.  1.
    9900016    2    1    2    0    0 -0.21515708035E+03  0.30322398746E+03  0.21661119263E+04  0.31156927105E+04  0.22084525879E+04 0.  0.
        -24    2    3    3    0    0 -0.71132035077E+03  0.59607271672E+03  0.96385463135E+02  0.93647209424E+03  0.80065602779E+02 0.  0.
        -15    1    1    2    0    0  0.60134893335E+03  0.27432053813E+03  0.42879929900E+03  0.78787126874E+03  0.00000000000E+00 0.  1.
        -15    1    3    3    0    0  0.32059680411E+03 -0.33169175469E+03  0.16549594869E+04  0.17180490779E+04  0.00000000000E+00 0.  1.
         15    1    1    2    0    0  0.79914157676E+02  0.11764216674E+02  0.14686296472E+03  0.16761085823E+03  0.00000000000E+00 0. -1.
         15    1    4    4    0    0 -0.54752052924E+03  0.43077889973E+03  0.99531642713E+02  0.70374408579E+03  0.00000000000E+00 0. -1.
        -16    1    4    4    0    0 -0.16379982153E+03  0.16529381699E+03 -0.31461795779E+01  0.23272800844E+03  0.00000000000E+00 0.  1.
         16    1    1    2    0    0 -0.46610601068E+03 -0.58930874227E+03  0.33249975110E+03  0.82164207012E+03  0.00000000000E+00 0. -1.
    9900018    1    3    3    0    0  0.17556646631E+03  0.38843025439E+02  0.41476697627E+03  0.46117153827E+03  0.91187600000E+02 0.  0.
<mgrwt>
<rscale>  0 0.21530065E+04</rscale>
<asrwt>0</asrwt>
<pdfrwt beam="1">  1        1 0.61285313E+00 0.30429500E+04</pdfrwt>
<pdfrwt beam="2">  1       -1 0.13988792E+00 0.30429500E+04</pdfrwt>
<totfact> 0.34578771E-02</totfact>
</mgrwt>
</event>
<event>
11    1  0.2206705E-014  0.3032896E+04  0.7818608E-02  0.8234399E-01
          1   -1    0    0  501    0  0.00000000000E+00  0.00000000000E+00  0.20833024561E+04  0.20833024561E+04  0.00000000000E+00 0. -1.
         -1   -1    0    0    0  501 -0.00000000000E+00 -0.00000000000E+00 -0.11038311355E+04  0.11038311355E+04  0.00000000000E+00 0.  1.
    9900016    2    1    2    0    0 -0.22901787273E+03 -0.35872496958E+03  0.59912592038E+03  0.23165662962E+04  0.21969057209E+04 0.  0.
         24    2    3    3    0    0 -0.43486558451E+03  0.16591986281E+03  0.72389406304E+03  0.86431395657E+03  0.79865659465E+02 0.  0.
        -15    1    1    2    0    0  0.96273420044E+02  0.29256572061E+03  0.39419271389E+02  0.31051111291E+03  0.00000000000E+00 0.  1.
        -15    1    4    4    0    0 -0.29251207379E+03  0.10290187912E+03  0.54610509988E+03  0.62799911636E+03  0.00000000000E+00 0.  1.
         15    1    1    2    0    0 -0.13035254690E+03  0.11820809660E+03  0.12754164694E+03  0.21732881146E+03  0.00000000000E+00 0. -1.
         15    1    3    3    0    0  0.28008861084E+03  0.13516786764E+02 -0.63953449526E+03  0.69830989115E+03  0.00000000000E+00 0. -1.
        -16    1    1    2    0    0  0.26309699959E+03 -0.52048847629E+02  0.21338448190E+03  0.34272737102E+03  0.00000000000E+00 0.  1.
         16    1    4    4    0    0 -0.14235351072E+03  0.63017983692E+02  0.17778896316E+03  0.23631484021E+03  0.00000000000E+00 0. -1.
    9900018    1    3    3    0    0 -0.74240899063E+02 -0.53816161916E+03  0.51476635260E+03  0.75394244846E+03  0.91187600000E+02 0.  0.
<mgrwt>
<rscale>  0 0.30328957E+04</rscale>
<asrwt>0</asrwt>
<pdfrwt beam="1">  1        1 0.32050807E+00 0.30328957E+04</pdfrwt>
<pdfrwt beam="2">  1       -1 0.16982017E+00 0.30328957E+04</pdfrwt>
<totfact> 0.54791822E-01</totfact>
</mgrwt>
</event>
<event>
11    1  0.2206705E-014  0.3416542E+04  0.7818608E-02  0.8453395E-01
         -2   -1    0    0    0  501 -0.00000000000E+00  0.00000000000E+00  0.30532245209E+04  0.30532245209E+04  0.00000000000E+00 0. -1.
          2   -1    0    0  501    0  0.00000000000E+00 -0.00000000000E+00 -0.14440525578E+04  0.14440525578E+04  0.00000000000E+00 0.  1.
    9900016    2    1    2    0    0 -0.22972177635E+03 -0.21616040752E+03  0.54518038717E+02  0.22320312879E+04  0.22089576812E+04 0.  0.
        -24    2    3    3    0    0 -0.43829819935E+03 -0.86003608060E+03 -0.18883083513E+03  0.98664005326E+03  0.77679720129E+02 0.  0.
        -15    1    3    3    0    0  0.12680310506E+03  0.86140242739E+03 -0.35136129408E+02  0.87139412263E+03  0.00000000000E+00 0.  1.
        -15    1    1    2    0    0 -0.24344934842E+03  0.18611378161E+03 -0.12452167282E+03  0.33077420086E+03  0.00000000000E+00 0.  1.
         15    1    1    2    0    0 -0.24126743142E+03 -0.28046290711E+02  0.46014188237E+03  0.52031444319E+03  0.00000000000E+00 0. -1.
         15    1    4    4    0    0 -0.34818547083E+03 -0.73913495707E+03 -0.14702226206E+03  0.83016212416E+03  0.00000000000E+00 0. -1.
        -16    1    4    4    0    0 -0.90112728518E+02 -0.12090112353E+03 -0.41808573072E+02  0.15647792910E+03  0.00000000000E+00 0.  1.
         16    1    1    2    0    0  0.71443855620E+03  0.58092916617E+02  0.12190337149E+04  0.14141571467E+04  0.00000000000E+00 0. -1.
    9900018    1    3    3    0    0  0.81773317933E+02 -0.21752675430E+03  0.27848500326E+03  0.37399711201E+03  0.91187600000E+02 0.  0.
<mgrwt>
<rscale>  0 0.23632426E+04</rscale>
<asrwt>0</asrwt>
<pdfrwt beam="1">  1        2 0.22216193E+00 0.34165415E+04</pdfrwt>
<pdfrwt beam="2">  1       -2 0.46972685E+00 0.34165415E+04</pdfrwt>
<totfact> 0.28344285E-02</totfact>
</mgrwt>
</event>
<event>
12    1  0.2206705E-014  0.3152409E+04  0.7818608E-02  0.8779183E-01
          2   -1    0    0  501    0  0.00000000000E+00  0.00000000000E+00  0.26863709454E+04  0.26863709454E+04  0.00000000000E+00 0. -1.
         -2   -1    0    0    0  501 -0.00000000000E+00 -0.00000000000E+00 -0.10825641721E+04  0.10825641721E+04  0.00000000000E+00 0.  1.
         23    2    1    2    0    0  0.69120059181E+02 -0.20688115996E+03  0.19857555074E+03  0.31750702888E+03  0.11747794306E+03 0.  0.
    9900016    2    1    2    0    0 -0.74808169241E+03  0.57662625282E+03  0.10005880931E+04  0.25788248596E+04  0.21810632890E+04 0.  0.
         24    2    4    4    0    0 -0.13829342467E+04  0.64789402916E+03  0.34741837189E+03  0.15683303565E+04  0.81772723537E+02 0.  0.
        -15    1    3    3    0    0  0.20679634219E+00  0.14611510715E+02  0.19981506126E+02  0.24754789378E+02  0.00000000000E+00 0. -1.
        -15    1    5    5    0    0 -0.76971873500E+03  0.40496393987E+03  0.19228695480E+03  0.89075080499E+03  0.00000000000E+00 0.  1.
         15    1    4    4    0    0  0.64583304357E+03 -0.66068811521E+02  0.45729635052E+03  0.79409404998E+03  0.00000000000E+00 0. -1.
         15    1    3    3    0    0  0.68913262839E+02 -0.22149267068E+03  0.17859404462E+03  0.29275223950E+03  0.00000000000E+00 0.  1.
        -16    1    1    2    0    0  0.67896163322E+03 -0.36974509286E+03  0.40464312944E+03  0.87260322902E+03  0.00000000000E+00 0.  1.
         16    1    5    5    0    0 -0.61321551169E+03  0.24293008928E+03  0.15513141709E+03  0.67757955151E+03  0.00000000000E+00 0. -1.
    9900018    1    4    4    0    0 -0.10980489283E+02 -0.51989648114E+01  0.19587337065E+03  0.21640045310E+03  0.91187600000E+02 0.  0.
<mgrwt>
<rscale>  0 0.16691059E+04</rscale>
<asrwt>0</asrwt>
<pdfrwt beam="1">  1        2 0.41328784E+00 0.31524088E+04</pdfrwt>
<pdfrwt beam="2">  1       -2 0.16654833E+00 0.31524088E+04</pdfrwt>
<totfact> 0.51135305E-01</totfact>
</mgrwt>
</event>
<event>
12    1  0.2206705E-014  0.3099045E+04  0.7818608E-02  0.8817249E-01
          2   -1    0    0  501    0  0.00000000000E+00  0.00000000000E+00  0.41104220342E+04  0.41104220342E+04  0.00000000000E+00 0. -1.
         -2   -1    0    0    0  501 -0.00000000000E+00 -0.00000000000E+00 -0.71280437101E+03  0.71280437101E+03  0.00000000000E+00 0.  1.
         23    2    1    2    0    0  0.18345499569E+03 -0.65454537284E+02 -0.18523027709E+01  0.22317446858E+03  0.10891914664E+03 0.  0.
    9900016    2    1    2    0    0 -0.81870288498E+03  0.33520593410E+03  0.22537742974E+04  0.32625452032E+04  0.21867933573E+04 0.  0.
        -24    2    4    4    0    0 -0.73175612909E+03  0.83895243389E+03  0.23517514718E+04  0.26031117368E+04  0.78406062618E+02 0.  0.
        -15    1    4    4    0    0  0.79891300424E+02 -0.24302658826E+03  0.10684069701E+03  0.27723541805E+03  0.00000000000E+00 0.  1.
        -15    1    3    3    0    0  0.86555470118E+02 -0.75889450025E+02 -0.34861705123E+02  0.12027633398E+03  0.00000000000E+00 0. -1.
         15    1    5    5    0    0 -0.16393065908E+03  0.19387422701E+03  0.61571628665E+03  0.66600827512E+03  0.00000000000E+00 0. -1.
         15    1    3    3    0    0  0.96899525569E+02  0.10434912740E+02  0.33009402352E+02  0.10289813459E+03  0.00000000000E+00 0.  1.
        -16    1    5    5    0    0 -0.56782547001E+03  0.64507820688E+03  0.17360351851E+04  0.19371034617E+04  0.00000000000E+00 0.  1.
         16    1    1    2    0    0  0.63524788929E+03 -0.26975139681E+03  0.11456956685E+04  0.13375067334E+04  0.00000000000E+00 0. -1.
    9900018    1    4    4    0    0 -0.16683805632E+03 -0.26071991153E+03 -0.20481787140E+03  0.38219804832E+03  0.91187600000E+02 0.  0.
<mgrwt>
<rscale>  0 0.16053818E+04</rscale>
<asrwt>0</asrwt>
<pdfrwt beam="1">  1        2 0.63237261E+00 0.30990453E+04</pdfrwt>
<pdfrwt beam="2">  1       -2 0.10966221E+00 0.30990453E+04</pdfrwt>
<totfact> 0.15430180E-01</totfact>
</mgrwt>
</event>
<event>
12    1  0.2206705E-014  0.2605259E+04  0.7818608E-02  0.8366417E-01
          1   -1    0    0  501    0  0.00000000000E+00  0.00000000000E+00  0.29209077635E+04  0.29209077635E+04  0.00000000000E+00 0. -1.
         -1   -1    0    0    0  501 -0.00000000000E+00 -0.00000000000E+00 -0.58093041061E+03  0.58093041061E+03  0.00000000000E+00 0.  1.
         23    2    1    2    0    0  0.90245886978E+02 -0.68182478788E+02  0.14687837750E+03  0.21857192723E+03  0.11578971917E+03 0.  0.
    9900016    2    1    2    0    0 -0.10829655411E+03  0.41894463064E+02  0.16781971338E+04  0.27673778938E+04  0.21973965272E+04 0.  0.
         24    2    4    4    0    0 -0.22387586915E+03 -0.34282276881E+03  0.14503613037E+04  0.15090566528E+04  0.77821683504E+02 0.  0.
        -15    1    5    5    0    0 -0.37523109277E+02 -0.10354789096E+03  0.47654640853E+03  0.48910799312E+03  0.00000000000E+00 0.  1.
        -15    1    3    3    0    0  0.87205910989E+02  0.60474598357E+01  0.74576400677E+02  0.11490466579E+03  0.00000000000E+00 0. -1.
         15    1    3    3    0    0  0.30399759890E+01 -0.74229938624E+02  0.72301976821E+02  0.10366726144E+03  0.00000000000E+00 0.  1.
         15    1    4    4    0    0  0.53059693050E+03  0.50476827935E+03  0.33288254420E+03  0.80444695706E+03  0.00000000000E+00 0. -1.
        -16    1    1    2    0    0  0.18050667133E+02  0.26288015723E+02  0.51490184152E+03  0.51588835299E+03  0.00000000000E+00 0.  1.
         16    1    5    5    0    0 -0.18635275988E+03 -0.23927487785E+03  0.97381489517E+03  0.10199486597E+04  0.00000000000E+00 0. -1.
    9900018    1    4    4    0    0 -0.41501761546E+03 -0.12005104748E+03 -0.10504671408E+03  0.45387428400E+03  0.91187600000E+02 0.  0.
<mgrwt>
<rscale>  0 0.26052594E+04</rscale>
<asrwt>0</asrwt>
<pdfrwt beam="1">  1        1 0.44937042E+00 0.26052594E+04</pdfrwt>
<pdfrwt beam="2">  1       -1 0.89373911E-01 0.26052594E+04</pdfrwt>
<totfact> 0.73662850E-01</totfact>
</mgrwt>
</event>
<event>
12    1  0.2206705E-014  0.2695654E+04  0.7818608E-02  0.8787942E-01
          4   -1    0    0  501    0  0.00000000000E+00  0.00000000000E+00  0.20446030911E+04  0.20446030911E+04  0.00000000000E+00 0. -1.
         -4   -1    0    0    0  501 -0.00000000000E+00 -0.00000000000E+00 -0.13476835359E+04  0.13476835359E+04  0.00000000000E+00 0.  1.
         23    2    1    2    0    0  0.33374889598E+03  0.16928839646E+03 -0.33264360546E+03  0.50671005913E+03  0.77823062279E+02 0.  0.
    9900016    2    1    2    0    0 -0.23131428889E+03 -0.55824878805E+03  0.81682918849E+03  0.24305614276E+04  0.22080015672E+04 0.  0.
        -24    2    4    4    0    0  0.69998259517E+03 -0.64699898474E+03  0.84071296741E+03  0.12735317846E+04  0.80632456437E+02 0.  0.
        -15    1    4    4    0    0  0.42188341196E+02 -0.13652780791E+03 -0.55171178576E+02  0.15317818843E+03  0.00000000000E+00 0.  1.
        -15    1    3    3    0    0  0.16557084485E+03  0.41342567069E+02 -0.13925616442E+03  0.22026164406E+03  0.00000000000E+00 0.  1.
         15    1    5    5    0    0  0.40421300194E+03 -0.37523293261E+03  0.43299014274E+03  0.70119067903E+03  0.00000000000E+00 0. -1.
         15    1    3    3    0    0  0.16817805113E+03  0.12794582939E+03 -0.19338744104E+03  0.28644841506E+03  0.00000000000E+00 0. -1.
        -16    1    5    5    0    0  0.29576959323E+03 -0.27176605213E+03  0.40772282467E+03  0.57234110557E+03  0.00000000000E+00 0.  1.
         16    1    1    2    0    0 -0.10243460709E+03  0.38896039159E+03  0.21273397219E+03  0.45501514027E+03  0.00000000000E+00 0. -1.
    9900018    1    4    4    0    0 -0.97348522526E+03  0.22527800460E+03  0.31287399658E+02  0.10038514546E+04  0.91187600000E+02 0.  0.
<mgrwt>
<rscale>  0 0.16541719E+04</rscale>
<asrwt>0</asrwt>
<pdfrwt beam="1">  1        4 0.31455432E+00 0.26956542E+04</pdfrwt>
<pdfrwt beam="2">  1       -4 0.20733593E+00 0.26956542E+04</pdfrwt>
<totfact> 0.49930748E-03</totfact>
</mgrwt>
</event>
<event>
11    1  0.2206705E-014  0.5858717E+04  0.7818608E-02  0.7708170E-01
         -2   -1    0    0    0  501 -0.00000000000E+00  0.00000000000E+00  0.35642548118E+04  0.35642548118E+04  0.00000000000E+00 0.  1.
          2   -1    0    0  501    0  0.00000000000E+00 -0.00000000000E+00 -0.24075552924E+04  0.24075552924E+04  0.00000000000E+00 0. -1.
    9900016    2    1    2    0    0 -0.70868695520E+03  0.85899864121E+03 -0.82457936947E+03  0.25822037608E+04  0.21789284659E+04 0.  0.
         24    2    3    3    0    0 -0.44090649700E+03  0.18692081381E+03  0.30676736329E+03  0.57385453122E+03  0.76582492090E+02 0.  0.
        -15    1    4    4    0    0 -0.88781363457E+02  0.57226737622E+01  0.56523949382E+02  0.10540320842E+03  0.00000000000E+00 0.  1.
        -15    1    1    2    0    0  0.75433179312E+03 -0.40799962800E+03  0.19187413203E+03  0.87880363740E+03  0.00000000000E+00 0.  1.
         15    1    3    3    0    0 -0.56923619160E+03  0.31760860154E+03 -0.13401257477E+04  0.14902490011E+04  0.00000000000E+00 0. -1.
         15    1    1    2    0    0  0.32394272271E+03 -0.53476470308E+03 -0.55210363698E+02  0.62766261599E+03  0.00000000000E+00 0. -1.
        -16    1    1    2    0    0 -0.36958756063E+03  0.83765689865E+02  0.18446151206E+04  0.18831400901E+04  0.00000000000E+00 0.  1.
         16    1    4    4    0    0 -0.35212513354E+03  0.18119814005E+03  0.25024341391E+03  0.46845132280E+03  0.00000000000E+00 0. -1.
    9900018    1    3    3    0    0  0.30145573339E+03  0.35446922587E+03  0.20877901494E+03  0.51810022848E+03  0.91187600000E+02 0.  0.
<mgrwt>
<rscale>  0 0.58587168E+04</rscale>
<asrwt>0</asrwt>
<pdfrwt beam="1">  1        2 0.37039312E+00 0.58587168E+04</pdfrwt>
<pdfrwt beam="2">  1       -2 0.54834689E+00 0.58587168E+04</pdfrwt>
<totfact> 0.23719248E-03</totfact>
</mgrwt>
</event>
<event>
12    1  0.3212271E-014  0.3219915E+04  0.7818608E-02  0.8850564E-01
          1   -1    0    0  501    0  0.00000000000E+00  0.00000000000E+00  0.20986844369E+04  0.20986844369E+04  0.00000000000E+00 0. -1.
         -1   -1    0    0    0  501 -0.00000000000E+00 -0.00000000000E+00 -0.15300814023E+04  0.15300814023E+04  0.00000000000E+00 0.  1.
         23    2    1    2    0    0 -0.85965056200E+02  0.94013420232E+02  0.36279237070E+03  0.40228001441E+03  0.11824716355E+03 0.  0.
    9900016    2    1    2    0    0 -0.54489068827E+03 -0.17163263228E+03  0.75815982731E+03  0.23844090405E+04  0.21872897672E+04 0.  0.
         24    2    4    4    0    0 -0.30799663692E+03  0.76889987597E+03 -0.29470531890E+03  0.88275972497E+03  0.79652742707E+02 0.  0.
        -15    1    3    3    0    0 -0.26936916116E+01  0.80729221164E+02  0.24075323809E+03  0.25394208941E+03  0.00000000000E+00 0.  1.
        -15    1    5    5    0    0 -0.97694716124E+02  0.29189493516E+03 -0.14585901599E+03  0.34061967541E+03  0.00000000000E+00 0.  1.
         15    1    3    3    0    0 -0.83271364588E+02  0.13284199069E+02  0.12203913261E+03  0.14833792500E+03  0.00000000000E+00 0. -1.
         15    1    4    4    0    0 -0.27908526608E+03 -0.44334749025E+03  0.33202509687E+03  0.62023080205E+03  0.00000000000E+00 0. -1.
        -16    1    1    2    0    0  0.63085574447E+03  0.77619212051E+02 -0.55234916337E+03  0.84207678432E+03  0.00000000000E+00 0.  1.
         16    1    5    5    0    0 -0.21030192080E+03  0.47700494081E+03 -0.14884630291E+03  0.54214004956E+03  0.00000000000E+00 0. -1.
    9900018    1    4    4    0    0  0.42191214737E+02 -0.49718501800E+03  0.72084004935E+03  0.88141851346E+03  0.91187600000E+02 0.  0.
<mgrwt>
<rscale>  0 0.15520431E+04</rscale>
<asrwt>0</asrwt>
<pdfrwt beam="1">  1        1 0.32287453E+00 0.32199150E+04</pdfrwt>
<pdfrwt beam="2">  1       -1 0.23539714E+00 0.32199150E+04</pdfrwt>
<totfact> 0.18316692E-01</totfact>
</mgrwt>
</event>
<event>
11    1  0.2206705E-014  0.5043625E+04  0.7818608E-02  0.7821813E-01
          1   -1    0    0  501    0  0.00000000000E+00  0.00000000000E+00  0.20638014431E+04  0.20638014431E+04  0.00000000000E+00 0. -1.
         -1   -1    0    0    0  501 -0.00000000000E+00 -0.00000000000E+00 -0.30814682474E+04  0.30814682474E+04  0.00000000000E+00 0.  1.
    9900016    2    1    2    0    0  0.21956206222E+03  0.48126676667E+03  0.77604133934E+03  0.23912540043E+04  0.21990976224E+04 0.  0.
        -24    2    3    3    0    0  0.48996411576E+03 -0.31479157763E+03  0.38902667583E+03  0.70460310145E+03  0.77234732962E+02 0.  0.
        -15    1    1    2    0    0 -0.36840051315E+03  0.32368867520E+03  0.18815009347E+03  0.52525589403E+03  0.00000000000E+00 0.  1.
        -15    1    3    3    0    0 -0.30214586881E+02 -0.28649158544E+03  0.49090711865E+03  0.56919254118E+03  0.00000000000E+00 0.  1.
         15    1    4    4    0    0  0.36449467646E+03 -0.19920482249E+03  0.25249330856E+03  0.48609855106E+03  0.00000000000E+00 0. -1.
         15    1    1    2    0    0  0.23058605877E+03 -0.30410659874E+02 -0.34532507324E+03  0.41634618401E+03  0.00000000000E+00 0. -1.
        -16    1    4    4    0    0  0.12546943930E+03 -0.11558675514E+03  0.13653336727E+03  0.21850455039E+03  0.00000000000E+00 0.  1.
         16    1    1    2    0    0 -0.81747607834E+02 -0.77454478200E+03 -0.16365331638E+04  0.18124136082E+04  0.00000000000E+00 0. -1.
    9900018    1    3    3    0    0 -0.24018746666E+03  0.10825499297E+04 -0.10389245514E+03  0.11174583617E+04  0.91187600000E+02 0.  0.
<mgrwt>
<rscale>  0 0.50436251E+04</rscale>
<asrwt>0</asrwt>
<pdfrwt beam="1">  1        1 0.31750791E+00 0.50436251E+04</pdfrwt>
<pdfrwt beam="2">  1       -1 0.47407204E+00 0.50436251E+04</pdfrwt>
<totfact> 0.43137643E-03</totfact>
</mgrwt>
</event>
<event>
11    1  0.2206705E-014  0.3472168E+04  0.7818608E-02  0.8120418E-01
          2   -1    0    0  501    0  0.00000000000E+00  0.00000000000E+00  0.14177199470E+04  0.14177199470E+04  0.00000000000E+00 0.  1.
         -2   -1    0    0    0  501 -0.00000000000E+00 -0.00000000000E+00 -0.21259404955E+04  0.21259404955E+04  0.00000000000E+00 0. -1.
    9900016    2    1    2    0    0 -0.52309054420E+03  0.54152055501E+03 -0.24532732651E+03  0.23277831012E+04  0.21889541887E+04 0.  0.
        -24    2    3    3    0    0 -0.24783311001E+03  0.12430985532E+04  0.19545572891E+03  0.12849052971E+04  0.77867948380E+02 0.  0.
        -15    1    3    3    0    0 -0.35768888371E+03 -0.56199789796E+03 -0.12708019954E+03  0.67818312568E+03  0.00000000000E+00 0.  1.
        -15    1    1    2    0    0  0.39334352309E+02 -0.78620027006E+02  0.67468524710E+02  0.11081652289E+03  0.00000000000E+00 0.  1.
         15    1    4    4    0    0 -0.10134493436E+03  0.69108738320E+03  0.92390623065E+02  0.70456269711E+03  0.00000000000E+00 0. -1.
         15    1    1    2    0    0  0.35675503067E+03 -0.45220059714E+03 -0.17129544877E+02  0.57624036067E+03  0.00000000000E+00 0. -1.
        -16    1    4    4    0    0 -0.14648817565E+03  0.55201116996E+03  0.10306510585E+03  0.58034260003E+03  0.00000000000E+00 0.  1.
         16    1    1    2    0    0  0.12700116122E+03 -0.10699930867E+02 -0.51323220187E+03  0.52882045773E+03  0.00000000000E+00 0. -1.
    9900018    1    3    3    0    0  0.82431449512E+02 -0.13958010018E+03 -0.31370285588E+03  0.36469467835E+03  0.91187600000E+02 0.  0.
<mgrwt>
<rscale>  0 0.34721683E+04</rscale>
<asrwt>0</asrwt>
<pdfrwt beam="1">  1        2 0.21811076E+00 0.34721683E+04</pdfrwt>
<pdfrwt beam="2">  1       -2 0.32706777E+00 0.34721683E+04</pdfrwt>
<totfact> 0.25197471E-01</totfact>
</mgrwt>
</event>
<event>
12    1  0.2206705E-014  0.3011747E+04  0.7818608E-02  0.8732812E-01
         -2   -1    0    0    0  501 -0.00000000000E+00  0.00000000000E+00  0.23732804616E+04  0.23732804616E+04  0.00000000000E+00 0. -1.
          2   -1    0    0  501    0  0.00000000000E+00 -0.00000000000E+00 -0.14097330659E+04  0.14097330659E+04  0.00000000000E+00 0.  1.
         23    2    1    2    0    0 -0.29341728760E+03  0.14392778449E+03  0.67479126971E+03  0.75745577163E+03  0.10764328351E+03 0.  0.
    9900016    2    1    2    0    0  0.39047580827E+03  0.30884710189E+03  0.74898635600E+03  0.23726892248E+04  0.21956356043E+04 0.  0.
         24    2    4    4    0    0 -0.10225604601E+03  0.55911991398E+03 -0.15986624230E+03  0.59573816093E+03  0.79217193849E+02 0.  0.
        -15    1    5    5    0    0  0.77196945271E+01  0.54812935151E+02  0.11765778298E+00  0.55354000639E+02  0.00000000000E+00 0.  1.
        -15    1    3    3    0    0 -0.15668228613E+03  0.30933802327E+02  0.39631697491E+03  0.42728606754E+03  0.00000000000E+00 0. -1.
         15    1    4    4    0    0  0.37019786415E+03 -0.27016687499E+03  0.12883228528E+04  0.13674108278E+04  0.00000000000E+00 0. -1.
         15    1    3    3    0    0 -0.13673500147E+03  0.11299398217E+03  0.27847429480E+03  0.33016970409E+03  0.00000000000E+00 0.  1.
        -16    1    1    2    0    0 -0.97058520668E+02 -0.45277488638E+03 -0.46023023009E+03  0.65286853107E+03  0.00000000000E+00 0.  1.
         16    1    5    5    0    0 -0.10997574053E+03  0.50430697883E+03 -0.15998390009E+03  0.54038416029E+03  0.00000000000E+00 0. -1.
    9900018    1    4    4    0    0  0.12253399012E+03  0.19894062895E+02 -0.37947025453E+03  0.40954023604E+03  0.91187600000E+02 0.  0.
<mgrwt>
<rscale>  0 0.17509792E+04</rscale>
<asrwt>0</asrwt>
<pdfrwt beam="1">  1        2 0.21688201E+00 0.30117469E+04</pdfrwt>
<pdfrwt beam="2">  1       -2 0.36512007E+00 0.30117469E+04</pdfrwt>
<totfact> 0.14922215E-01</totfact>
</mgrwt>
</event>
<event>
11    1  0.2206705E-014  0.2876743E+04  0.7818608E-02  0.8678193E-01
         -2   -1    0    0    0  501 -0.00000000000E+00  0.00000000000E+00  0.20509952925E+04  0.20509952925E+04  0.00000000000E+00 0.  1.
          2   -1    0    0  501    0  0.00000000000E+00 -0.00000000000E+00 -0.30924847890E+04  0.30924847890E+04  0.00000000000E+00 0. -1.
    9900016    2    1    2    0    0  0.61238209819E+03 -0.96157132694E+02  0.45084454065E+03  0.23276609041E+04  0.21978367674E+04 0.  0.
         24    2    3    3    0    0 -0.38355864578E+02 -0.56693474289E+03  0.79773576419E+03  0.98266113317E+03  0.79714353228E+02 0.  0.
        -15    1    1    2    0    0 -0.94329042152E+02  0.25688858731E+03 -0.96778373964E+03  0.10057311177E+04  0.00000000000E+00 0. -1.
        -15    1    4    4    0    0 -0.48973670825E+02 -0.55636475533E+03  0.77144146300E+03  0.95239807446E+03  0.00000000000E+00 0.  1.
         15    1    1    2    0    0 -0.16449882263E+03  0.13978193594E+03 -0.10713846579E+04  0.10929153387E+04  0.00000000000E+00 0.  1.
         15    1    3    3    0    0  0.70042843997E+03  0.33853769418E+03 -0.63980777565E+03  0.10072545655E+04  0.00000000000E+00 0. -1.
        -16    1    1    2    0    0 -0.35355423341E+03 -0.30051339055E+03  0.54683436044E+03  0.71717272091E+03  0.00000000000E+00 0.  1.
         16    1    4    4    0    0  0.10617806247E+02 -0.10569987563E+02  0.26294301199E+02  0.30263058704E+02  0.00000000000E+00 0. -1.
    9900018    1    3    3    0    0 -0.49690477200E+02  0.13223991602E+03  0.29291655211E+03  0.33774520545E+03  0.91187600000E+02 0.  0.
<mgrwt>
<rscale>  0 0.18538165E+04</rscale>
<asrwt>0</asrwt>
<pdfrwt beam="1">  1        2 0.47576689E+00 0.28767427E+04</pdfrwt>
<pdfrwt beam="2">  1       -2 0.31553774E+00 0.28767427E+04</pdfrwt>
<totfact> 0.31687777E-02</totfact>
</mgrwt>
</event>
<event>
11    1  0.2206705E-014  0.3203742E+04  0.7818608E-02  0.8582233E-01
         -2   -1    0    0    0  501 -0.00000000000E+00  0.00000000000E+00  0.20358451119E+04  0.20358451119E+04  0.00000000000E+00 0.  1.
          2   -1    0    0  501    0  0.00000000000E+00 -0.00000000000E+00 -0.23723314351E+04  0.23723314351E+04  0.00000000000E+00 0. -1.
    9900016    2    1    2    0    0 -0.24609698607E+03  0.39845850048E+02 -0.18677094878E+03  0.22156733278E+04  0.21936666770E+04 0.  0.
        -24    2    3    3    0    0  0.20569683984E+03 -0.23077052464E+03  0.38357250004E+03  0.49893748381E+03  0.79022306954E+02 0.  0.
        -15    1    3    3    0    0 -0.83864021261E+03  0.35253908830E+03  0.11833446819E+03  0.91738991784E+03  0.00000000000E+00 0.  1.
        -15    1    1    2    0    0 -0.26440620127E+02 -0.11734335501E+03  0.14541924856E+03  0.18872023529E+03  0.00000000000E+00 0. -1.
         15    1    4    4    0    0  0.67128653266E+02 -0.13368139746E+03  0.19066504510E+03  0.24234300390E+03  0.00000000000E+00 0. -1.
         15    1    1    2    0    0 -0.28686473072E+03 -0.30242065871E+03  0.69164304156E+03  0.80753930275E+03  0.00000000000E+00 0.  1.
        -16    1    4    4    0    0  0.13856818658E+03 -0.97089127186E+02  0.19290745494E+03  0.25659447991E+03  0.00000000000E+00 0.  1.
         16    1    1    2    0    0  0.55940233692E+03  0.37991816367E+03 -0.98677766446E+03  0.11962436812E+04  0.00000000000E+00 0. -1.
    9900018    1    3    3    0    0  0.38684638670E+03 -0.81922713607E+02 -0.68867791702E+03  0.79934592617E+03  0.91187600000E+02 0.  0.
<mgrwt>
<rscale>  0 0.20530045E+04</rscale>
<asrwt>0</asrwt>
<pdfrwt beam="1">  1        2 0.36497407E+00 0.32037418E+04</pdfrwt>
<pdfrwt beam="2">  1       -2 0.31320694E+00 0.32037418E+04</pdfrwt>
<totfact> 0.88101789E-02</totfact>
</mgrwt>
</event>
<event>
12    1  0.2206705E-014  0.3018787E+04  0.7818608E-02  0.8803650E-01
          1   -1    0    0  501    0  0.00000000000E+00  0.00000000000E+00  0.21506702947E+04  0.21506702947E+04  0.00000000000E+00 0. -1.
         -1   -1    0    0    0  501 -0.00000000000E+00 -0.00000000000E+00 -0.14272855045E+04  0.14272855045E+04  0.00000000000E+00 0.  1.
         23    2    1    2    0    0  0.24073328784E+03  0.36167567882E+02  0.48713202881E+03  0.54993812200E+03  0.76640170234E+02 0.  0.
    9900016    2    1    2    0    0 -0.84455305756E+03 -0.16967428594E+03  0.71876676135E+02  0.23881412395E+04  0.22262059862E+04 0.  0.
        -24    2    4    4    0    0 -0.15120876330E+03 -0.70754178554E+03 -0.45825249870E+03  0.86022928814E+03  0.80744084724E+02 0.  0.
        -15    1    3    3    0    0  0.20557698464E+03  0.50621066403E+02  0.44732221552E+03  0.49489549753E+03  0.00000000000E+00 0.  1.
        -15    1    4    4    0    0 -0.35615863656E+03  0.82154393133E+03  0.59239350694E+03  0.10736449472E+04  0.00000000000E+00 0.  1.
         15    1    3    3    0    0  0.35156303199E+02 -0.14453498521E+02  0.39809813289E+02  0.55042624467E+02  0.00000000000E+00 0. -1.
         15    1    5    5    0    0 -0.73708517253E+02 -0.41122372362E+03 -0.30822973497E+03  0.51917575628E+03  0.00000000000E+00 0. -1.
        -16    1    5    5    0    0 -0.77500246051E+02 -0.29631806192E+03 -0.15002276372E+03  0.34105353186E+03  0.00000000000E+00 0.  1.
         16    1    1    2    0    0  0.60381976972E+03  0.13350671806E+03  0.16437608533E+03  0.63987643769E+03  0.00000000000E+00 0. -1.
    9900018    1    4    4    0    0 -0.33718565770E+03 -0.28367643173E+03 -0.62264332108E+02  0.45426700422E+03  0.91187600000E+02 0.  0.
<mgrwt>
<rscale>  0 0.16277984E+04</rscale>
<asrwt>0</asrwt>
<pdfrwt beam="1">  1        1 0.33087235E+00 0.30187871E+04</pdfrwt>
<pdfrwt beam="2">  1       -1 0.21958239E+00 0.30187871E+04</pdfrwt>
<totfact> 0.21805106E-01</totfact>
</mgrwt>
</event>
<event>
12    1  0.2206705E-014  0.2989185E+04  0.7818608E-02  0.8246826E-01
         -2   -1    0    0    0  501 -0.00000000000E+00  0.00000000000E+00  0.10230681006E+04  0.10230681006E+04  0.00000000000E+00 0.  1.
          2   -1    0    0  501    0  0.00000000000E+00 -0.00000000000E+00 -0.21834394044E+04  0.21834394044E+04  0.00000000000E+00 0. -1.
         23    2    1    2    0    0  0.19898912228E+03  0.27971839147E+03  0.11377282757E+03  0.36836132097E+03  0.70048248906E+02 0.  0.
    9900016    2    1    2    0    0  0.36702192995E+02 -0.75146287946E+02 -0.12339065660E+04  0.25234730151E+04  0.21996355672E+04 0.  0.
         24    2    4    4    0    0 -0.84431951288E+03 -0.12351659452E+03 -0.13409579953E+04  0.15917649068E+04  0.86112624904E+02 0.  0.
        -15    1    3    3    0    0  0.58837803290E+02  0.12680125354E+03  0.70129771775E+02  0.15639255060E+03  0.00000000000E+00 0.  1.
        -15    1    5    5    0    0 -0.73788913799E+03 -0.78638892632E+02 -0.11534428986E+04  0.13715301585E+04  0.00000000000E+00 0.  1.
         15    1    4    4    0    0  0.45652871192E+03  0.13127986602E+03 -0.74832743879E+01  0.47508827330E+03  0.00000000000E+00 0. -1.
         15    1    3    3    0    0  0.14015131899E+03  0.15291713794E+03  0.43643055791E+02  0.21196877036E+03  0.00000000000E+00 0. -1.
        -16    1    1    2    0    0 -0.23569131528E+03 -0.20457210353E+03 -0.40237565425E+02  0.31467316904E+03  0.00000000000E+00 0.  1.
         16    1    5    5    0    0 -0.10643037489E+03 -0.44877701890E+02 -0.18751509675E+03  0.22023474824E+03  0.00000000000E+00 0. -1.
    9900018    1    4    4    0    0  0.42449299395E+03 -0.82909559442E+02  0.11453470375E+03  0.45661983501E+03  0.91187600000E+02 0.  0.
<mgrwt>
<rscale>  0 0.29891853E+04</rscale>
<asrwt>0</asrwt>
<pdfrwt beam="1">  1        2 0.33591375E+00 0.29891853E+04</pdfrwt>
<pdfrwt beam="2">  1       -2 0.15739510E+00 0.29891853E+04</pdfrwt>
<totfact> 0.11905315E+00</totfact>
</mgrwt>
</event>
<event>
11    1  0.2206705E-014  0.3022547E+04  0.7818608E-02  0.8825848E-01
         -1   -1    0    0    0  501 -0.00000000000E+00  0.00000000000E+00  0.85443710436E+03  0.85443710436E+03  0.00000000000E+00 0.  1.
          1   -1    0    0  501    0  0.00000000000E+00 -0.00000000000E+00 -0.31703026832E+04  0.31703026832E+04  0.00000000000E+00 0. -1.
    9900016    2    1    2    0    0  0.12051725269E+03 -0.49190633280E+03 -0.97882879268E+03  0.24307770899E+04  0.21665814564E+04 0.  0.
        -24    2    3    3    0    0 -0.84426879248E+03 -0.12402506400E+03 -0.37980267462E+03  0.93738513496E+03  0.79175811593E+02 0.  0.
        -15    1    3    3    0    0  0.87618342732E+03 -0.25829159226E+03 -0.45080626609E+02  0.91457323810E+03  0.00000000000E+00 0.  1.
        -15    1    1    2    0    0  0.16714406432E+03 -0.61836479048E+01 -0.22489000805E+03  0.28026931951E+03  0.00000000000E+00 0.  1.
         15    1    1    2    0    0  0.13758414710E+02 -0.61267250603E+02 -0.12186392365E+03  0.13709042949E+03  0.00000000000E+00 0. -1.
         15    1    4    4    0    0 -0.28796813916E+03 -0.51265371992E+02 -0.90675942480E+02  0.30622853245E+03  0.00000000000E+00 0. -1.
        -16    1    4    4    0    0 -0.55630065331E+03 -0.72759692005E+02 -0.28912673214E+03  0.63115660251E+03  0.00000000000E+00 0.  1.
         16    1    1    2    0    0 -0.30141973172E+03  0.55935723131E+03 -0.99028285445E+03  0.11766029486E+04  0.00000000000E+00 0. -1.
    9900018    1    3    3    0    0  0.88602617845E+02 -0.10958967654E+03 -0.55394549146E+03  0.57881871686E+03  0.91187600000E+02 0.  0.
<mgrwt>
<rscale>  0 0.15914009E+04</rscale>
<asrwt>0</asrwt>
<pdfrwt beam="1">  1        1 0.48773887E+00 0.30225469E+04</pdfrwt>
<pdfrwt beam="2">  1       -1 0.13145186E+00 0.30225469E+04</pdfrwt>
<totfact> 0.18573284E-01</totfact>
</mgrwt>
</event>
<event>
11    1  0.2206705E-014  0.3087641E+04  0.7818608E-02  0.8219138E-01
         -2   -1    0    0    0  501 -0.00000000000E+00  0.00000000000E+00  0.16856163310E+04  0.16856163310E+04  0.00000000000E+00 0. -1.
          2   -1    0    0  501    0  0.00000000000E+00 -0.00000000000E+00 -0.14139531210E+04  0.14139531210E+04  0.00000000000E+00 0.  1.
    9900016    2    1    2    0    0  0.43187344446E+03 -0.40752463653E+03  0.49587277496E+03  0.23280649076E+04  0.21957698886E+04 0.  0.
         24    2    3    3    0    0 -0.32921634563E+03 -0.49412172400E+02  0.94910250371E+03  0.10090317597E+04  0.80774776084E+02 0.  0.
        -15    1    1    2    0    0 -0.29700283993E+03  0.10817364790E+03 -0.14118186474E+02  0.31640409007E+03  0.00000000000E+00 0.  1.
        -15    1    4    4    0    0 -0.16466670625E+03 -0.63056619762E+02  0.53080542535E+03  0.55932607755E+03  0.00000000000E+00 0.  1.
         15    1    3    3    0    0 -0.62837599702E+02 -0.38405076825E+03 -0.36519278252E+02  0.39086725907E+03  0.00000000000E+00 0. -1.
         15    1    1    2    0    0 -0.18629516924E+02  0.67522771535E+02  0.51349256752E+02  0.86851193116E+02  0.00000000000E+00 0. -1.
        -16    1    1    2    0    0 -0.11624108761E+03  0.23182821709E+03 -0.26144063524E+03  0.36824926129E+03  0.00000000000E+00 0.  1.
         16    1    4    4    0    0 -0.16454963939E+03  0.13644447362E+02  0.41829707836E+03  0.44970568212E+03  0.00000000000E+00 0. -1.
    9900018    1    3    3    0    0  0.82392738980E+03  0.25938304115E+02 -0.41671045051E+03  0.92816588885E+03  0.91187600000E+02 0.  0.
<mgrwt>
<rscale>  0 0.30876415E+04</rscale>
<asrwt>0</asrwt>
<pdfrwt beam="1">  1        2 0.21753125E+00 0.30876415E+04</pdfrwt>
<pdfrwt beam="2">  1       -2 0.25932559E+00 0.30876415E+04</pdfrwt>
<totfact> 0.68008972E-01</totfact>
</mgrwt>
</event>
<event>
11    1  0.2206705E-014  0.2558643E+04  0.7818608E-02  0.8772869E-01
         -2   -1    0    0    0  501 -0.00000000000E+00  0.00000000000E+00  0.21478190355E+04  0.21478190355E+04  0.00000000000E+00 0. -1.
          2   -1    0    0  501    0  0.00000000000E+00 -0.00000000000E+00 -0.12466427877E+04  0.12466427877E+04  0.00000000000E+00 0.  1.
    9900016    2    1    2    0    0 -0.22007023269E+03  0.84230312671E+02 -0.66015894988E+01  0.22154946511E+04  0.22029179093E+04 0.  0.
        -24    2    3    3    0    0  0.36645335732E+03 -0.73985472666E+03  0.42286962361E+03  0.93079142069E+03  0.76686834553E+02 0.  0.
        -15    1    3    3    0    0 -0.37551227871E+03  0.89241578695E+03 -0.30888666429E+03  0.10162806599E+04  0.00000000000E+00 0.  1.
        -15    1    1    2    0    0  0.10353969886E+03 -0.73771167592E+01  0.26743488732E+03  0.28687333450E+03  0.00000000000E+00 0.  1.
         15    1    1    2    0    0  0.34848593281E+03  0.52741007334E+02  0.40777854449E+03  0.53898738442E+03  0.00000000000E+00 0. -1.
         15    1    4    4    0    0  0.30072094483E+03 -0.53196000616E+03  0.31709479476E+03  0.68845017516E+03  0.00000000000E+00 0. -1.
        -16    1    4    4    0    0  0.65732412485E+02 -0.20789472050E+03  0.10577482885E+03  0.24234124552E+03  0.00000000000E+00 0.  1.
         16    1    1    2    0    0 -0.23195539899E+03 -0.12959420325E+03  0.23256440549E+03  0.35310645326E+03  0.00000000000E+00 0. -1.
    9900018    1    3    3    0    0 -0.21101131130E+03 -0.68330747613E+02 -0.12058454883E+03  0.26842257054E+03  0.91187600000E+02 0.  0.
<mgrwt>
<rscale>  0 0.16799744E+04</rscale>
<asrwt>0</asrwt>
<pdfrwt beam="1">  1        2 0.19179120E+00 0.25586427E+04</pdfrwt>
<pdfrwt beam="2">  1       -2 0.33043370E+00 0.25586427E+04</pdfrwt>
<totfact> 0.31851260E-01</totfact>
</mgrwt>
</event>
<event>
12    1  0.2206705E-014  0.2475854E+04  0.7818608E-02  0.8992919E-01
         -2   -1    0    0    0  501 -0.00000000000E+00  0.00000000000E+00  0.68525552894E+03  0.68525552894E+03  0.00000000000E+00 0.  1.
          2   -1    0    0  501    0  0.00000000000E+00 -0.00000000000E+00 -0.26664526323E+04  0.26664526323E+04  0.00000000000E+00 0. -1.
         23    2    1    2    0    0  0.41582029402E+02  0.18270010269E+03 -0.24745766900E+03  0.32917492502E+03  0.10960128022E+03 0.  0.
    9900016    2    1    2    0    0 -0.91619074505E+02  0.44705944123E+02 -0.13353291532E+04  0.25610703795E+04  0.21830219571E+04 0.  0.
         24    2    4    4    0    0 -0.10778876661E+03  0.59268972142E+03 -0.14165333351E+04  0.15414102487E+04  0.80494354558E+02 0.  0.
        -15    1    3    3    0    0  0.50097169662E+02  0.44685804893E+02 -0.13564510435E+03  0.15134775156E+03  0.00000000000E+00 0.  1.
        -15    1    5    5    0    0 -0.73643662437E+02  0.36562108245E+03 -0.77631339700E+03  0.86125760102E+03  0.00000000000E+00 0.  1.
         15    1    3    3    0    0 -0.85151402592E+01  0.13801429780E+03 -0.11181256464E+03  0.17782717346E+03  0.00000000000E+00 0. -1.
         15    1    4    4    0    0 -0.15149301306E+03 -0.63466152666E+03 -0.18747013440E+03  0.67888912034E+03  0.00000000000E+00 0. -1.
        -16    1    1    2    0    0  0.50037045103E+02 -0.22740604681E+03 -0.39841028118E+03  0.46146285675E+03  0.00000000000E+00 0.  1.
         16    1    5    5    0    0 -0.34145104176E+02  0.22706863896E+03 -0.64021993811E+03  0.68015264764E+03  0.00000000000E+00 0. -1.
    9900018    1    4    4    0    0  0.16766270517E+03  0.86677749366E+02  0.26867431631E+03  0.34077101047E+03  0.91187600000E+02 0.  0.
<mgrwt>
<rscale>  0 0.13472415E+04</rscale>
<asrwt>0</asrwt>
<pdfrwt beam="1">  1        2 0.41022348E+00 0.24758543E+04</pdfrwt>
<pdfrwt beam="2">  1       -2 0.10542393E+00 0.24758543E+04</pdfrwt>
<totfact> 0.17967757E+00</totfact>
</mgrwt>
</event>
<event>
12    1  0.2206705E-014  0.2530561E+04  0.7818608E-02  0.9182519E-01
          1   -1    0    0  501    0  0.00000000000E+00  0.00000000000E+00  0.66527950181E+03  0.66527950181E+03  0.00000000000E+00 0. -1.
         -1   -1    0    0    0  501 -0.00000000000E+00 -0.00000000000E+00 -0.25971066621E+04  0.25971066621E+04  0.00000000000E+00 0.  1.
         23    2    1    2    0    0 -0.21136587758E+02  0.58077802812E+02 -0.74137130382E+02  0.12315797026E+03  0.76496960823E+02 0.  0.
    9900016    2    1    2    0    0 -0.21839981348E+03 -0.21484096727E+03 -0.17372432733E+04  0.28286484158E+04  0.22111948240E+04 0.  0.
        -24    2    4    4    0    0  0.74028062351E+03 -0.56912317357E+03 -0.11897255348E+04  0.15145225856E+04  0.80095105993E+02 0.  0.
        -15    1    4    4    0    0 -0.49080921786E+03  0.23229079873E+03  0.43919159732E+02  0.54477664791E+03  0.00000000000E+00 0.  1.
        -15    1    3    3    0    0 -0.22691702346E+02  0.74663644800E+02 -0.72330896281E+02  0.10640174701E+03  0.00000000000E+00 0.  1.
         15    1    3    3    0    0  0.15551145878E+01 -0.16585841988E+02 -0.18062341007E+01  0.16756223246E+02  0.00000000000E+00 0. -1.
         15    1    5    5    0    0  0.35832045614E+03 -0.23237704020E+03 -0.50950541627E+03  0.66482208696E+03  0.00000000000E+00 0. -1.
        -16    1    5    5    0    0  0.38196016737E+03 -0.33674613337E+03 -0.68022011853E+03  0.84970049867E+03  0.00000000000E+00 0.  1.
         16    1    1    2    0    0  0.23953640123E+03  0.15676316446E+03 -0.12044675658E+03  0.31057977787E+03  0.00000000000E+00 0. -1.
    9900018    1    4    4    0    0 -0.46787121912E+03  0.12199140757E+03 -0.59143689828E+03  0.76934918226E+03  0.91187600000E+02 0.  0.
<mgrwt>
<rscale>  0 0.11235691E+04</rscale>
<asrwt>0</asrwt>
<pdfrwt beam="1">  1        1 0.10235069E+00 0.25305615E+04</pdfrwt>
<pdfrwt beam="2">  1       -1 0.39955487E+00 0.25305615E+04</pdfrwt>
<totfact> 0.18726529E-01</totfact>
</mgrwt>
</event>
<event>
11    1  0.2206705E-014  0.4451988E+04  0.7818608E-02  0.8269039E-01
          2   -1    0    0  501    0  0.00000000000E+00  0.00000000000E+00  0.21090770253E+04  0.21090770253E+04  0.00000000000E+00 0.  1.
         -2   -1    0    0    0  501 -0.00000000000E+00 -0.00000000000E+00 -0.33203560340E+04  0.33203560340E+04  0.00000000000E+00 0. -1.
    9900016    2    1    2    0    0  0.13183692449E+03 -0.10460929282E+04  0.17998511389E+03  0.24455957475E+04  0.21992845495E+04 0.  0.
        -24    2    3    3    0    0  0.10091386881E+04 -0.23135162553E+03  0.38576356229E+03  0.11077047317E+04  0.79446713365E+02 0.  0.
        -15    1    1    2    0    0 -0.31718207668E+02 -0.32446981514E+03 -0.24268061361E+03  0.40642414527E+03  0.00000000000E+00 0. -1.
        -15    1    3    3    0    0 -0.88721304530E+03 -0.57438398605E+03 -0.22251775325E+03  0.10800824513E+04  0.00000000000E+00 0.  1.
         15    1    4    4    0    0  0.13809313636E+03 -0.54281931267E+01  0.60408283451E+02  0.15082552934E+03  0.00000000000E+00 0. -1.
         15    1    1    2    0    0 -0.14778128494E+03 -0.45083800158E+03 -0.13902284549E+03  0.49439009235E+03  0.00000000000E+00 0.  1.
        -16    1    4    4    0    0  0.87104555172E+03 -0.22592343241E+03  0.32535527883E+03  0.95687920238E+03  0.00000000000E+00 0.  1.
         16    1    1    2    0    0  0.47662568116E+02  0.18214007449E+04 -0.10095606635E+04  0.20830230741E+04  0.00000000000E+00 0. -1.
    9900018    1    3    3    0    0  0.99112817132E+01 -0.24035731663E+03  0.16739304858E+02  0.25780856441E+03  0.91187600000E+02 0.  0.
<mgrwt>
<rscale>  0 0.29129356E+04</rscale>
<asrwt>0</asrwt>
<pdfrwt beam="1">  1        2 0.32447339E+00 0.44519875E+04</pdfrwt>
<pdfrwt beam="2">  1       -2 0.51082400E+00 0.44519875E+04</pdfrwt>
<totfact> 0.61082234E-03</totfact>
</mgrwt>
</event>
<event>
12    1  0.2206705E-014  0.2957946E+04  0.7818608E-02  0.8625868E-01
         -2   -1    0    0    0  501 -0.00000000000E+00  0.00000000000E+00  0.16807870767E+04  0.16807870767E+04  0.00000000000E+00 0.  1.
          2   -1    0    0  501    0  0.00000000000E+00 -0.00000000000E+00 -0.29447937537E+04  0.29447937537E+04  0.00000000000E+00 0. -1.
         23    2    1    2    0    0  0.45217063527E+03 -0.32924698080E+03  0.82634310188E+03  0.10035635062E+04  0.10693423787E+03 0.  0.
    9900016    2    1    2    0    0  0.13682587929E+03  0.17344588036E+03 -0.11247365981E+04  0.24802644210E+04  0.21995168534E+04 0.  0.
        -24    2    4    4    0    0  0.53494147681E+03 -0.19379604476E+03 -0.96675444749E+03  0.11244729307E+04  0.78140384343E+02 0.  0.
        -15    1    3    3    0    0  0.12376298890E+03 -0.99051098420E+02  0.32455363996E+03  0.36119726290E+03  0.00000000000E+00 0.  1.
        -15    1    4    4    0    0 -0.64792978943E+02 -0.11807199133E+03  0.47073981036E+03  0.48962750568E+03  0.00000000000E+00 0.  1.
         15    1    5    5    0    0  0.97847447362E+02 -0.48114022394E+02 -0.24544619528E+03  0.26857571909E+03  0.00000000000E+00 0. -1.
         15    1    3    3    0    0  0.32840764637E+03 -0.23019588238E+03  0.50178946192E+03  0.64236624332E+03  0.00000000000E+00 0. -1.
        -16    1    5    5    0    0  0.43709402944E+03 -0.14568202237E+03 -0.72130825220E+03  0.85589721165E+03  0.00000000000E+00 0.  1.
         16    1    1    2    0    0 -0.58899651456E+03  0.15580110044E+03 -0.96561318081E+03  0.11417529032E+04  0.00000000000E+00 0. -1.
    9900018    1    4    4    0    0 -0.33332261857E+03  0.48531391645E+03 -0.62872196100E+03  0.86616398458E+03  0.91187600000E+02 0.  0.
<mgrwt>
<rscale>  0 0.19593434E+04</rscale>
<asrwt>0</asrwt>
<pdfrwt beam="1">  1        2 0.45304519E+00 0.29579465E+04</pdfrwt>
<pdfrwt beam="2">  1       -2 0.25858263E+00 0.29579465E+04</pdfrwt>
<totfact> 0.88190916E-02</totfact>
</mgrwt>
</event>
<event>
12    1  0.2206705E-014  0.4007551E+04  0.7818608E-02  0.8375142E-01
         -1   -1    0    0    0  501 -0.00000000000E+00  0.00000000000E+00  0.21892792908E+04  0.21892792908E+04  0.00000000000E+00 0.  1.
          1   -1    0    0  501    0  0.00000000000E+00 -0.00000000000E+00 -0.25211808970E+04  0.25211808970E+04  0.00000000000E+00 0. -1.
         23    2    1    2    0    0  0.17215188193E+03 -0.65659183006E+03 -0.10991145690E+03  0.69676541403E+03  0.11248294127E+03 0.  0.
    9900016    2    1    2    0    0 -0.94760698451E+03  0.46167716121E+03 -0.12282710029E+04  0.27284230124E+04  0.21964830252E+04 0.  0.
         24    2    4    4    0    0 -0.41707149009E+03 -0.74860439488E+03 -0.28032072996E+03  0.90507147455E+03  0.78851090798E+02 0.  0.
        -15    1    5    5    0    0 -0.17973197208E+03 -0.24555445285E+03 -0.10305181275E+03  0.32127907995E+03  0.00000000000E+00 0.  1.
        -15    1    3    3    0    0  0.18268207538E+03 -0.52252828152E+03 -0.86142258887E+02  0.56020445770E+03  0.00000000000E+00 0.  1.
         15    1    4    4    0    0 -0.18292249864E+03  0.61725307687E+03  0.62341912435E+01  0.64381741710E+03  0.00000000000E+00 0. -1.
         15    1    3    3    0    0 -0.10530193452E+02 -0.13406354854E+03 -0.23769198012E+02  0.13656095633E+03  0.00000000000E+00 0. -1.
        -16    1    1    2    0    0  0.77545510258E+03  0.19491466886E+03  0.10062808536E+04  0.12852717614E+04  0.00000000000E+00 0.  1.
         16    1    5    5    0    0 -0.23733951801E+03 -0.50304994202E+03 -0.17726891721E+03  0.58379239460E+03  0.00000000000E+00 0. -1.
    9900018    1    4    4    0    0 -0.34761299578E+03  0.59302847921E+03 -0.95418446421E+03  0.11795341208E+04  0.91187600000E+02 0.  0.
<mgrwt>
<rscale>  0 0.25796632E+04</rscale>
<asrwt>0</asrwt>
<pdfrwt beam="1">  1        1 0.38787398E+00 0.40075511E+04</pdfrwt>
<pdfrwt beam="2">  1       -1 0.33681220E+00 0.40075511E+04</pdfrwt>
<totfact> 0.19003045E-02</totfact>
</mgrwt>
</event>
<event>
11    1  0.2481412E-014  0.3030514E+04  0.7818608E-02  0.8702885E-01
         -2   -1    0    0    0  501 -0.00000000000E+00  0.00000000000E+00  0.13046162827E+04  0.13046162827E+04  0.00000000000E+00 0.  1.
          2   -1    0    0  501    0  0.00000000000E+00 -0.00000000000E+00 -0.22334225893E+04  0.22334225893E+04  0.00000000000E+00 0. -1.
    9900016    2    1    2    0    0 -0.52818121547E+03 -0.38881292447E+03 -0.54988683017E+03  0.23511540568E+04  0.21898399453E+04 0.  0.
        -24    2    3    3    0    0 -0.77181776606E+03 -0.76834612414E+03  0.39413794368E+03  0.11608369802E+04  0.78353975406E+02 0.  0.
        -15    1    1    2    0    0  0.81476584299E+02 -0.28000228729E+03 -0.62182740195E+02  0.29817177575E+03  0.00000000000E+00 0.  1.
        -15    1    3    3    0    0  0.11438928943E+03  0.39476030964E+03 -0.94596964993E+03  0.10313967181E+04  0.00000000000E+00 0.  1.
         15    1    1    2    0    0  0.87619059407E+02  0.24437492974E+02 -0.17370961391E+02  0.92606916231E+02  0.00000000000E+00 0. -1.
         15    1    4    4    0    0 -0.56619178323E+03 -0.58929847546E+03  0.32565527787E+03  0.87971426530E+03  0.00000000000E+00 0. -1.
        -16    1    4    4    0    0 -0.20562598283E+03 -0.17904764868E+03  0.68482665810E+02  0.28112271489E+03  0.00000000000E+00 0.  1.
         16    1    1    2    0    0  0.35908557177E+03  0.64437771878E+03 -0.29936577482E+03  0.79610612323E+03  0.00000000000E+00 0. -1.
    9900018    1    3    3    0    0  0.12924726116E+03 -0.15227109970E+02  0.19448760773E+01  0.15892035846E+03  0.91187600000E+02 0.  0.
<mgrwt>
<rscale>  0 0.18064343E+04</rscale>
<asrwt>0</asrwt>
<pdfrwt beam="1">  1        2 0.34360347E+00 0.30305143E+04</pdfrwt>
<pdfrwt beam="2">  1       -2 0.20071020E+00 0.30305143E+04</pdfrwt>
<totfact> 0.54813017E-01</totfact>
</mgrwt>
</event>
