<event>
13    1  0.9612119E-010  0.6867377E+04  0.7818608E-02  0.7591270E-01
          1   -1    0    0  501    0  0.00000000000E+00  0.00000000000E+00  0.27426858673E+04  0.27426858673E+04  0.00000000000E+00 0. -1.
         -1   -1    0    0    0  501 -0.00000000000E+00 -0.00000000000E+00 -0.42987852020E+04  0.42987852020E+04  0.00000000000E+00 0.  1.
    9900016    2    1    2    0    0  0.39090940297E+03  0.14608467207E+04  0.87964513984E+03  0.28549651628E+04  0.22561398906E+04 0.  0.
         23    2    3    3    0    0  0.44098044593E+03 -0.51648424872E+03 -0.42281179103E+01  0.68849872926E+03  0.11310566006E+03 0.  0.
    9900016    2    1    2    0    0  0.86949315741E+02 -0.51042304601E+03 -0.12029394708E+04  0.25556234852E+04  0.21945514709E+04 0.  0.
        -24    2    5    5    0    0 -0.46636671695E+03 -0.11678948484E+03  0.51542150485E+03  0.70795726665E+03  0.66381211911E+02 0.  0.
        -15    1    4    4    0    0  0.34285852906E+03 -0.45690094403E+03 -0.25251328101E+02  0.57179373307E+03  0.00000000000E+00 0.  1.
        -15    1    5    5    0    0  0.55331603270E+03 -0.39363356117E+03 -0.17183609757E+04  0.18476662186E+04  0.00000000000E+00 0.  1.
         15    1    4    4    0    0  0.98121916877E+02 -0.59583304684E+02  0.21023210191E+02  0.11670499619E+03  0.00000000000E+00 0. -1.
         15    1    6    6    0    0 -0.21024423636E+03 -0.21485206261E+02  0.20588046138E+03  0.29504409397E+03  0.00000000000E+00 0. -1.
        -16    1    6    6    0    0 -0.25612248060E+03 -0.95304278578E+02  0.30954104346E+03  0.41291317268E+03  0.00000000000E+00 0.  1.
         16    1    3    3    0    0 -0.50071042964E+02  0.19773309694E+04  0.88387325775E+03  0.21664664336E+04  0.00000000000E+00 0. -1.
    9900018    1    1    2    0    0 -0.47785871871E+03 -0.95042367469E+03 -0.12328050037E+04  0.16308824212E+04  0.91187600000E+02 0.  0.
<mgrwt>
<rscale>  0 0.68673772E+04</rscale>
<asrwt>0</asrwt>
<pdfrwt beam="1">  1        1 0.42195168E+00 0.68673772E+04</pdfrwt>
<pdfrwt beam="2">  1       -1 0.66135156E+00 0.68673772E+04</pdfrwt>
<totfact> 0.15845782E-04</totfact>
</mgrwt>
</event>
<event>
13    1  0.9612119E-010  0.5995543E+04  0.7818608E-02  0.7690955E-01
         -2   -1    0    0    0  501 -0.00000000000E+00  0.00000000000E+00  0.27570541352E+04  0.27570541352E+04  0.00000000000E+00 0.  1.
          2   -1    0    0  501    0  0.00000000000E+00 -0.00000000000E+00 -0.32595060694E+04  0.32595060694E+04  0.00000000000E+00 0. -1.
    9900016    2    1    2    0    0 -0.43623478241E+03  0.78709599213E+03 -0.37993921419E+03  0.24029658806E+04  0.21954658573E+04 0.  0.
         23    2    3    3    0    0 -0.12504473467E+03  0.32882814825E+03  0.91839675705E+03  0.99139761911E+03  0.12510994790E+03 0.  0.
    9900016    2    1    2    0    0  0.12989212931E+04 -0.96431775655E+03 -0.18997286007E+02  0.27221538082E+04  0.21892133741E+04 0.  0.
        -24    2    5    5    0    0 -0.91317340399E+02 -0.83936232016E+03 -0.76408582598E+03  0.11398977444E+04  0.51689041204E+02 0.  0.
        -15    1    5    5    0    0  0.13902386335E+04 -0.12495543639E+03  0.74508853997E+03  0.15822560639E+04  0.00000000000E+00 0.  1.
        -15    1    4    4    0    0 -0.98739774375E+02  0.27408793440E+03  0.59673925939E+03  0.66405683682E+03  0.00000000000E+00 0. -1.
         15    1    4    4    0    0 -0.26304960292E+02  0.54740213845E+02  0.32165749767E+03  0.32734078229E+03  0.00000000000E+00 0.  1.
         15    1    6    6    0    0 -0.77363545877E+02 -0.74970270941E+03 -0.66005315470E+03  0.10018530021E+04  0.00000000000E+00 0. -1.
        -16    1    6    6    0    0 -0.13953794522E+02 -0.89659610754E+02 -0.10403267128E+03  0.13804474230E+03  0.00000000000E+00 0.  1.
         16    1    3    3    0    0 -0.31119004774E+03  0.45826784389E+03 -0.12983359712E+04  0.14115682615E+04  0.00000000000E+00 0. -1.
    9900018    1    1    2    0    0 -0.86268651073E+03  0.17722176442E+03 -0.10351543398E+03  0.89144051571E+03  0.91187600000E+02 0.  0.
<mgrwt>
<rscale>  0 0.59955432E+04</rscale>
<asrwt>0</asrwt>
<pdfrwt beam="1">  1        2 0.50146247E+00 0.59955432E+04</pdfrwt>
<pdfrwt beam="2">  1       -2 0.42416218E+00 0.59955432E+04</pdfrwt>
<totfact> 0.41125900E-03</totfact>
</mgrwt>
</event>
<event>
13    1  0.9612119E-010  0.6242551E+04  0.7818608E-02  0.7661035E-01
         -2   -1    0    0    0  501 -0.00000000000E+00  0.00000000000E+00  0.34366268186E+04  0.34366268186E+04  0.00000000000E+00 0.  1.
          2   -1    0    0  501    0  0.00000000000E+00 -0.00000000000E+00 -0.28348618262E+04  0.28348618262E+04  0.00000000000E+00 0. -1.
    9900016    2    1    2    0    0  0.97522538030E+03 -0.31621785613E+03  0.19318107073E+04  0.31057567287E+04  0.22051698289E+04 0.  0.
         23    2    3    3    0    0  0.35235116220E+03  0.74416448921E+03  0.17017011927E+02  0.83005509936E+03  0.10377745791E+03 0.  0.
    9900016    2    1    2    0    0 -0.35881451639E+03  0.25704912692E+03 -0.10748407709E+04  0.24897821889E+04  0.22020241949E+04 0.  0.
         24    2    5    5    0    0  0.48694355665E+03  0.62932282979E+03 -0.13107404524E+04  0.15360825047E+04  0.91365618085E+02 0.  0.
        -15    1    6    6    0    0  0.13744309018E+03  0.24738332363E+03 -0.44585880021E+03  0.52809012638E+03  0.00000000000E+00 0.  1.
        -15    1    4    4    0    0  0.34228155462E+03  0.67763463534E+03  0.36354174202E+02  0.76004406953E+03  0.00000000000E+00 0. -1.
         15    1    5    5    0    0 -0.84575807304E+03 -0.37227370287E+03  0.23589968154E+03  0.95369968424E+03  0.00000000000E+00 0. -1.
         15    1    4    4    0    0  0.10069607582E+02  0.66529853876E+02 -0.19337162275E+02  0.70011029834E+02  0.00000000000E+00 0.  1.
        -16    1    3    3    0    0  0.62287421810E+03 -0.10603823453E+04  0.19147936954E+04  0.22757016294E+04  0.00000000000E+00 0.  1.
         16    1    6    6    0    0  0.34950046647E+03  0.38193950616E+03 -0.86488165221E+03  0.10079923783E+04  0.00000000000E+00 0. -1.
    9900018    1    1    2    0    0 -0.61641086391E+03  0.59168729213E+02 -0.25520494405E+03  0.67594972707E+03  0.91187600000E+02 0.  0.
<mgrwt>
<rscale>  0 0.62425515E+04</rscale>
<asrwt>0</asrwt>
<pdfrwt beam="1">  1        2 0.43613259E+00 0.62425515E+04</pdfrwt>
<pdfrwt beam="2">  1       -2 0.52871182E+00 0.62425515E+04</pdfrwt>
<totfact> 0.16468350E-03</totfact>
</mgrwt>
</event>
<event>
12    1  0.9612119E-010  0.5394622E+04  0.7818608E-02  0.7770358E-01
          2   -1    0    0  501    0  0.00000000000E+00  0.00000000000E+00  0.26727679441E+04  0.26727679441E+04  0.00000000000E+00 0. -1.
         -2   -1    0    0    0  501 -0.00000000000E+00 -0.00000000000E+00 -0.27220790960E+04  0.27220790960E+04  0.00000000000E+00 0.  1.
    9900016    2    1    2    0    0 -0.64584646232E+02  0.28242308150E+03 -0.60977268373E+03  0.23098445390E+04  0.22089873460E+04 0.  0.
         23    2    3    3    0    0 -0.91063473799E+01 -0.28341639850E+03 -0.13471591646E+04  0.13787210343E+04  0.75007299364E+02 0.  0.
    9900016    2    1    2    0    0  0.72829523569E+03 -0.44596071196E+02  0.52374474944E+03  0.23731480680E+04  0.21966156765E+04 0.  0.
        -15    1    5    5    0    0  0.41082568703E+03 -0.27536951693E+03 -0.80839919299E+03  0.94768949093E+03  0.00000000000E+00 0.  1.
        -15    1    4    4    0    0  0.25665599031E+02 -0.21261059419E+03 -0.95729870470E+03  0.98096014076E+03  0.00000000000E+00 0.  1.
         15    1    5    5    0    0  0.27703218223E+02  0.20739245137E+03  0.44148830347E+03  0.48856014910E+03  0.00000000000E+00 0. -1.
         15    1    4    4    0    0 -0.34771946411E+02 -0.70805804308E+02 -0.38986045994E+03  0.39776089351E+03  0.00000000000E+00 0. -1.
        -16    1    5    5    0    0  0.28976633043E+03  0.23380994366E+02  0.89065563896E+03  0.93689842799E+03  0.00000000000E+00 0.  1.
         16    1    3    3    0    0 -0.55478298852E+02  0.56583947999E+03  0.73738648091E+03  0.93112350469E+03  0.00000000000E+00 0. -1.
    9900018    1    1    2    0    0 -0.66371058946E+03 -0.23782701030E+03  0.36716782386E+02  0.71185443307E+03  0.91187600000E+02 0.  0.
<mgrwt>
<rscale>  0 0.53946217E+04</rscale>
<asrwt>0</asrwt>
<pdfrwt beam="1">  1        2 0.41119507E+00 0.53946217E+04</pdfrwt>
<pdfrwt beam="2">  1       -2 0.41878140E+00 0.53946217E+04</pdfrwt>
<totfact> 0.10882540E-02</totfact>
</mgrwt>
</event>
<event>
12    1  0.9612119E-010  0.6615966E+04  0.7818608E-02  0.7618392E-01
          2   -1    0    0  501    0  0.00000000000E+00  0.00000000000E+00  0.27178209961E+04  0.27178209961E+04  0.00000000000E+00 0.  1.
         -2   -1    0    0    0  501 -0.00000000000E+00 -0.00000000000E+00 -0.40262961280E+04  0.40262961280E+04  0.00000000000E+00 0. -1.
    9900016    2    1    2    0    0  0.63007458390E+02  0.19084230776E+04  0.30464449783E+03  0.29273721843E+04  0.21978742121E+04 0.  0.
         23    2    3    3    0    0 -0.41803705503E+03  0.12531185069E+03  0.88352156367E+03  0.99191664909E+03  0.11327067570E+03 0.  0.
    9900016    2    1    2    0    0  0.50304465675E+03 -0.17577361489E+04 -0.14143325469E+04  0.31914825707E+04  0.22005758679E+04 0.  0.
        -15    1    4    4    0    0 -0.15773014750E+03 -0.86125005033E+01  0.32283904723E+03  0.35941344578E+03  0.00000000000E+00 0. -1.
        -15    1    5    5    0    0  0.35305352501E+03 -0.36214041718E+03 -0.14437114839E+04  0.15297370107E+04  0.00000000000E+00 0.  1.
         15    1    5    5    0    0  0.79788089965E+02 -0.13334312108E+04  0.30535630097E+03  0.13702727479E+04  0.00000000000E+00 0. -1.
         15    1    4    4    0    0 -0.26030690754E+03  0.13392435119E+03  0.56068251644E+03  0.63250320331E+03  0.00000000000E+00 0.  1.
        -16    1    3    3    0    0  0.48104451343E+03  0.17831112269E+04 -0.57887706584E+03  0.19354555352E+04  0.00000000000E+00 0.  1.
         16    1    5    5    0    0  0.70203041772E+02 -0.62164520917E+02 -0.27597736403E+03  0.29147281210E+03  0.00000000000E+00 0. -1.
    9900018    1    1    2    0    0 -0.56605211514E+03 -0.15068692869E+03 -0.19878708275E+03  0.62526236909E+03  0.91187600000E+02 0.  0.
<mgrwt>
<rscale>  0 0.66159662E+04</rscale>
<asrwt>0</asrwt>
<pdfrwt beam="1">  1        2 0.41812631E+00 0.66159662E+04</pdfrwt>
<pdfrwt beam="2">  1       -2 0.61943017E+00 0.66159662E+04</pdfrwt>
<totfact> 0.73273245E-04</totfact>
</mgrwt>
</event>
<event>
13    1  0.9612119E-010  0.6284969E+04  0.7818608E-02  0.7656039E-01
          1   -1    0    0  501    0  0.00000000000E+00  0.00000000000E+00  0.21967655861E+04  0.21967655861E+04  0.00000000000E+00 0. -1.
         -1   -1    0    0    0  501 -0.00000000000E+00 -0.00000000000E+00 -0.44953406371E+04  0.44953406371E+04  0.00000000000E+00 0.  1.
    9900016    2    1    2    0    0 -0.53619172525E+03 -0.10787992697E+04 -0.20955886879E+04  0.32679566113E+04  0.21992587465E+04 0.  0.
         23    2    3    3    0    0  0.57793787675E+03 -0.13732985446E+03  0.12471489700E+03  0.61138034869E+03  0.73215073094E+02 0.  0.
    9900016    2    1    2    0    0  0.46663974301E+03  0.47799016922E+03 -0.92254234054E+03  0.24797529599E+04  0.22026945137E+04 0.  0.
         24    2    5    5    0    0  0.35649721324E+00 -0.70034435492E+03  0.25641629555E+03  0.74890467607E+03  0.68018781674E+02 0.  0.
        -15    1    4    4    0    0  0.31441331980E+02 -0.31662301713E+01  0.24078011051E+02  0.39728239155E+02  0.00000000000E+00 0. -1.
        -15    1    6    6    0    0  0.21189098403E+01 -0.34895120539E+03  0.91627681219E+02  0.36078673131E+03  0.00000000000E+00 0.  1.
         15    1    5    5    0    0  0.46628324580E+03  0.11783345241E+04 -0.11789586361E+04  0.17308482839E+04  0.00000000000E+00 0. -1.
         15    1    4    4    0    0  0.54649654477E+03 -0.13416362429E+03  0.10063688595E+03  0.57165210954E+03  0.00000000000E+00 0.  1.
        -16    1    3    3    0    0 -0.11141296020E+04 -0.94146941520E+03 -0.22203035849E+04  0.26565762626E+04  0.00000000000E+00 0.  1.
         16    1    6    6    0    0 -0.17624126271E+01 -0.35139314953E+03  0.16478861433E+03  0.38811794477E+03  0.00000000000E+00 0. -1.
    9900018    1    1    2    0    0  0.69551982242E+02  0.60080910044E+03  0.71955597734E+03  0.94439665201E+03  0.91187600000E+02 0.  0.
<mgrwt>
<rscale>  0 0.62849692E+04</rscale>
<asrwt>0</asrwt>
<pdfrwt beam="1">  1        1 0.33796394E+00 0.62849692E+04</pdfrwt>
<pdfrwt beam="2">  1       -1 0.69159086E+00 0.62849692E+04</pdfrwt>
<totfact> 0.31274730E-04</totfact>
</mgrwt>
</event>
<event>
13    1  0.9612119E-010  0.6291794E+04  0.7818608E-02  0.7655239E-01
          2   -1    0    0  501    0  0.00000000000E+00  0.00000000000E+00  0.21601347306E+04  0.21601347306E+04  0.00000000000E+00 0. -1.
         -2   -1    0    0    0  501 -0.00000000000E+00 -0.00000000000E+00 -0.45815048629E+04  0.45815048629E+04  0.00000000000E+00 0.  1.
    9900016    2    1    2    0    0 -0.14612978861E+04 -0.80575930403E+02  0.19363672750E+03  0.26439017587E+04  0.21933621076E+04 0.  0.
         23    2    3    3    0    0  0.24786241180E+03  0.81288568957E+02 -0.66652496768E+03  0.72366552795E+03  0.10673639107E+03 0.  0.
    9900016    2    1    2    0    0  0.97725200316E+03  0.55459841055E+02 -0.13970148422E+04  0.27836788680E+04  0.21998000589E+04 0.  0.
        -24    2    5    5    0    0  0.11164943027E+04 -0.60117014658E+03 -0.40820758942E+02  0.12704658129E+04  0.66723116717E+02 0.  0.
        -15    1    4    4    0    0  0.11393186486E+03 -0.17576293128E+02 -0.26344195182E+03  0.28756052909E+03  0.00000000000E+00 0.  1.
        -15    1    5    5    0    0 -0.13924229950E+03  0.65662998763E+03 -0.13561940833E+04  0.15132130551E+04  0.00000000000E+00 0.  1.
         15    1    4    4    0    0  0.13393054694E+03  0.98864862085E+02 -0.40308301586E+03  0.43610499886E+03  0.00000000000E+00 0. -1.
         15    1    6    6    0    0  0.93914796798E+03 -0.51390038884E+03 -0.11291913372E+02  0.10706166553E+04  0.00000000000E+00 0. -1.
        -16    1    6    6    0    0  0.17734633468E+03 -0.87269757737E+02 -0.29528845570E+02  0.19984915752E+03  0.00000000000E+00 0.  1.
         16    1    3    3    0    0 -0.17091602979E+04 -0.16186449936E+03  0.86016169518E+03  0.19202362308E+04  0.00000000000E+00 0. -1.
    9900018    1    1    2    0    0  0.48404588295E+03  0.25116089348E+02 -0.12179920177E+04  0.13140589668E+04  0.91187600000E+02 0.  0.
<mgrwt>
<rscale>  0 0.62917939E+04</rscale>
<asrwt>0</asrwt>
<pdfrwt beam="1">  1        2 0.33232842E+00 0.62917939E+04</pdfrwt>
<pdfrwt beam="2">  1       -2 0.70484689E+00 0.62917939E+04</pdfrwt>
<totfact> 0.79789753E-04</totfact>
</mgrwt>
</event>
<event>
12    1  0.9612119E-010  0.5936258E+04  0.7818608E-02  0.7698356E-01
          2   -1    0    0  501    0  0.00000000000E+00  0.00000000000E+00  0.34205147608E+04  0.34205147608E+04  0.00000000000E+00 0.  1.
         -2   -1    0    0    0  501 -0.00000000000E+00 -0.00000000000E+00 -0.25755739352E+04  0.25755739352E+04  0.00000000000E+00 0. -1.
    9900016    2    1    2    0    0 -0.42611944635E+03 -0.14950483190E+04 -0.73827223680E+03  0.27861030246E+04  0.21910218870E+04 0.  0.
         23    2    3    3    0    0  0.21887411287E+03  0.30915113113E+03  0.39691245678E+03  0.55904293653E+03  0.10728097394E+03 0.  0.
    9900016    2    1    2    0    0  0.43013247780E+03  0.12699667264E+04  0.14298475599E+04  0.29227331980E+04  0.21679658363E+04 0.  0.
        -15    1    4    4    0    0  0.16020400350E+03  0.21224849053E+03  0.34181936742E+03  0.43307646486E+03  0.00000000000E+00 0. -1.
        -15    1    5    5    0    0  0.26560373853E+03  0.16407460608E+04  0.17440835827E+04  0.24092365026E+04  0.00000000000E+00 0.  1.
         15    1    5    5    0    0  0.89723439609E+02 -0.21062052027E+03 -0.18884195243E+03  0.29677025149E+03  0.00000000000E+00 0. -1.
         15    1    4    4    0    0  0.58670109375E+02  0.96902640602E+02  0.55093089353E+02  0.12596647167E+03  0.00000000000E+00 0.  1.
        -16    1    5    5    0    0  0.74805299665E+02 -0.16015881416E+03 -0.12539407033E+03  0.21672644390E+03  0.00000000000E+00 0.  1.
         16    1    3    3    0    0 -0.64499355923E+03 -0.18041994501E+04 -0.11351846936E+04  0.22270600881E+04  0.00000000000E+00 0. -1.
    9900018    1    1    2    0    0 -0.40130314508E+01  0.22508159264E+03  0.15336550240E+03  0.28725247343E+03  0.91187600000E+02 0.  0.
<mgrwt>
<rscale>  0 0.59362576E+04</rscale>
<asrwt>0</asrwt>
<pdfrwt beam="1">  1        2 0.52623304E+00 0.59362576E+04</pdfrwt>
<pdfrwt beam="2">  1       -2 0.39624214E+00 0.59362576E+04</pdfrwt>
<totfact> 0.49007111E-03</totfact>
</mgrwt>
</event>
