<event>
11    1  0.4929160E-011  0.1719243E+04  0.7818608E-02  0.9322601E-01
         -2   -1    0    0    0  501 -0.00000000000E+00  0.00000000000E+00  0.39438351455E+03  0.39438351455E+03  0.00000000000E+00 0.  1.
          2   -1    0    0  501    0  0.00000000000E+00 -0.00000000000E+00 -0.23649310736E+04  0.23649310736E+04  0.00000000000E+00 0. -1.
         23    2    1    2    0    0  0.48334592896E+02 -0.15478817187E+03 -0.34942741076E+03  0.39630200287E+03  0.93059932639E+02 0.  0.
    9900016    2    1    2    0    0  0.66904625832E+02 -0.38564609093E+03 -0.10528078069E+04  0.13223975321E+04  0.69794829200E+03 0.  0.
        -15    1    4    4    0    0 -0.63888932338E+02 -0.47032811322E+03 -0.45966215912E+03  0.66074172737E+03  0.00000000000E+00 0. -1.
        -15    1    3    3    0    0 -0.25256233610E+02 -0.45551950874E+02 -0.13442338450E+03  0.14416138132E+03  0.00000000000E+00 0.  1.
         15    1    4    4    0    0 -0.19587385159E+02 -0.32993111017E+02  0.17012333343E+00  0.38369779435E+02  0.00000000000E+00 0.  1.
         15    1    3    3    0    0  0.73590826506E+02 -0.10923622099E+03 -0.21500402626E+03  0.25214062154E+03  0.00000000000E+00 0. -1.
        -16    1    1    2    0    0 -0.35328689535E+03  0.50210003069E+03 -0.39844538215E+03  0.73189807611E+03  0.00000000000E+00 0.  1.
         16    1    4    4    0    0  0.15038094333E+03  0.11767513331E+03 -0.59331577111E+03  0.62328602532E+03  0.00000000000E+00 0. -1.
    9900018    1    1    2    0    0  0.23804767662E+03  0.38334232103E+02 -0.16986695926E+03  0.30871697708E+03  0.91187600000E+02 0.  0.
<mgrwt>
<rscale>  0 0.98728577E+03</rscale>
<asrwt>0</asrwt>
<pdfrwt beam="1">  1        2 0.36383555E+00 0.17192434E+04</pdfrwt>
<pdfrwt beam="2">  1       -2 0.60674386E-01 0.17192434E+04</pdfrwt>
<totfact> 0.99747975E+00</totfact>
</mgrwt>
</event>
<event>
12    1  0.4929160E-011  0.3293058E+04  0.7818608E-02  0.8914791E-01
          2   -1    0    0  501    0  0.00000000000E+00  0.00000000000E+00  0.26814416971E+04  0.26814416971E+04  0.00000000000E+00 0. -1.
         -2   -1    0    0    0  501 -0.00000000000E+00 -0.00000000000E+00 -0.11057534715E+04  0.11057534715E+04  0.00000000000E+00 0.  1.
         23    2    1    2    0    0  0.63696546253E+02 -0.59079231795E+02 -0.21234028925E+02  0.12736064620E+03  0.90676593359E+02 0.  0.
    9900016    2    1    2    0    0  0.10934699059E+04  0.47421649279E+03 -0.11123612207E+02  0.13820132534E+04  0.69948493959E+03 0.  0.
         23    2    4    4    0    0  0.32664779242E+03  0.44988022909E+03  0.18441252918E+03  0.59027921343E+03  0.73010739424E+02 0.  0.
        -15    1    5    5    0    0  0.31078820096E+03  0.39643501295E+03  0.17754627858E+03  0.53410926446E+03  0.00000000000E+00 0.  1.
        -15    1    3    3    0    0 -0.16472941047E+02 -0.31280479474E+02 -0.23546822698E+02  0.42476805931E+02  0.00000000000E+00 0. -1.
         15    1    3    3    0    0  0.80169487300E+02 -0.27798752321E+02  0.23127937738E+01  0.84883840274E+02  0.00000000000E+00 0.  1.
         15    1    5    5    0    0  0.15859591458E+02  0.53445216146E+02  0.68662506033E+01  0.56169948971E+02  0.00000000000E+00 0. -1.
        -16    1    1    2    0    0 -0.70975420629E+03  0.14572350709E+03  0.30215878842E+03  0.78503904825E+03  0.00000000000E+00 0.  1.
         16    1    4    4    0    0  0.76682211352E+03  0.24336263697E+02 -0.19553614139E+03  0.79173404001E+03  0.00000000000E+00 0. -1.
    9900018    1    1    2    0    0 -0.44741224591E+03 -0.56086076808E+03  0.13058870782E+04  0.14927822207E+04  0.91187600000E+02 0.  0.
<mgrwt>
<rscale>  0 0.14552176E+04</rscale>
<asrwt>0</asrwt>
<pdfrwt beam="1">  1        2 0.41252949E+00 0.32930576E+04</pdfrwt>
<pdfrwt beam="2">  1       -2 0.17011592E+00 0.32930576E+04</pdfrwt>
<totfact> 0.48152946E-01</totfact>
</mgrwt>
</event>
<event>
11    1  0.4929160E-011  0.1716661E+04  0.7818608E-02  0.9153389E-01
         -2   -1    0    0    0  501 -0.00000000000E+00  0.00000000000E+00  0.64447891941E+03  0.64447891941E+03  0.00000000000E+00 0.  1.
          2   -1    0    0  501    0  0.00000000000E+00 -0.00000000000E+00 -0.17020495596E+04  0.17020495596E+04  0.00000000000E+00 0. -1.
         23    2    1    2    0    0  0.29132287295E+03  0.17537214642E+03 -0.32969148574E+03  0.48192878469E+03  0.89075651545E+02 0.  0.
    9900016    2    1    2    0    0  0.18871458822E+03  0.17798121541E+03 -0.19137941775E+03  0.76815731231E+03  0.69724390716E+03 0.  0.
        -15    1    3    3    0    0  0.17536775200E+03  0.15263592978E+03 -0.23422619826E+03  0.33002043490E+03  0.00000000000E+00 0. -1.
        -15    1    4    4    0    0  0.25128071318E+02 -0.94967690408E+02  0.38030541988E+02  0.10534042108E+03  0.00000000000E+00 0.  1.
         15    1    3    3    0    0  0.11595512095E+03  0.22736216643E+02 -0.95465287483E+02  0.15190834979E+03  0.00000000000E+00 0.  1.
         15    1    4    4    0    0 -0.22966288011E+02 -0.12090536886E+03  0.62753304974E+02  0.13814317171E+03  0.00000000000E+00 0. -1.
        -16    1    4    4    0    0  0.18655280491E+03  0.39385427468E+03 -0.29216326472E+03  0.52467371951E+03  0.00000000000E+00 0.  1.
         16    1    1    2    0    0 -0.54001328013E+03 -0.13202268372E+03 -0.62297595079E+03  0.83495111653E+03  0.00000000000E+00 0. -1.
    9900018    1    1    2    0    0  0.59975818966E+02 -0.22133067810E+03  0.86476214093E+02  0.26149126549E+03  0.91187600000E+02 0.  0.
<mgrwt>
<rscale>  0 0.11547756E+04</rscale>
<asrwt>0</asrwt>
<pdfrwt beam="1">  1        2 0.26185377E+00 0.17166607E+04</pdfrwt>
<pdfrwt beam="2">  1       -2 0.99150604E-01 0.17166607E+04</pdfrwt>
<totfact> 0.77611127E+00</totfact>
</mgrwt>
</event>
<event>
12    1  0.4929160E-011  0.1362410E+04  0.7818608E-02  0.9668905E-01
         -2   -1    0    0    0  501 -0.00000000000E+00  0.00000000000E+00  0.70463628463E+03  0.70463628463E+03  0.00000000000E+00 0.  1.
          2   -1    0    0  501    0  0.00000000000E+00 -0.00000000000E+00 -0.80855667743E+03  0.80855667743E+03  0.00000000000E+00 0. -1.
         23    2    1    2    0    0 -0.57696884988E+02 -0.29023977410E+02 -0.10130809585E+03  0.15078014074E+03  0.91104328962E+02 0.  0.
    9900016    2    1    2    0    0  0.34302866744E+03  0.33619137131E+03 -0.32108868267E+02  0.85013189047E+03  0.70071388380E+03 0.  0.
         23    2    4    4    0    0  0.41635728445E+03  0.48642122201E+03 -0.12246662341E+03  0.66010395035E+03  0.10382753914E+03 0.  0.
        -15    1    3    3    0    0 -0.56321196129E+02 -0.48181143597E+02 -0.10752257939E+03  0.13059328012E+03  0.00000000000E+00 0. -1.
        -15    1    5    5    0    0  0.37918492573E+03  0.45313715559E+03 -0.83363427663E+02  0.59671094405E+03  0.00000000000E+00 0.  1.
         15    1    3    3    0    0 -0.13756888583E+01  0.19157166187E+02  0.62144835462E+01  0.20186860625E+02  0.00000000000E+00 0.  1.
         15    1    5    5    0    0  0.37172358718E+02  0.33284066418E+02 -0.39103195747E+02  0.63393006298E+02  0.00000000000E+00 0. -1.
        -16    1    1    2    0    0 -0.29835410067E+02 -0.21923290646E+03  0.48371963989E+02  0.22647972507E+03  0.00000000000E+00 0.  1.
         16    1    4    4    0    0 -0.73328617009E+02 -0.15022985070E+03  0.90357755143E+02  0.19002794012E+03  0.00000000000E+00 0. -1.
    9900018    1    1    2    0    0 -0.25549637238E+03 -0.87934487444E+02 -0.18875392674E+02  0.28580120578E+03  0.91187600000E+02 0.  0.
<mgrwt>
<rscale>  0 0.72898736E+03</rscale>
<asrwt>0</asrwt>
<pdfrwt beam="1">  1        2 0.12439333E+00 0.13624103E+04</pdfrwt>
<pdfrwt beam="2">  1       -2 0.10840558E+00 0.13624103E+04</pdfrwt>
<totfact> 0.22482013E+01</totfact>
</mgrwt>
</event>
<event>
12    1  0.4929160E-011  0.1567971E+04  0.7818608E-02  0.9343571E-01
          2   -1    0    0  501    0  0.00000000000E+00  0.00000000000E+00  0.10382598630E+04  0.10382598630E+04  0.00000000000E+00 0. -1.
         -2   -1    0    0    0  501 -0.00000000000E+00 -0.00000000000E+00 -0.97878989255E+03  0.97878989255E+03  0.00000000000E+00 0.  1.
         23    2    1    2    0    0  0.19760034281E+03 -0.68857625505E+02 -0.33008884871E+03  0.40141119198E+03  0.91569803603E+02 0.  0.
    9900016    2    1    2    0    0  0.10178776123E+02 -0.79069999766E+02 -0.14618914664E+02  0.71253135773E+03  0.70790645620E+03 0.  0.
         23    2    4    4    0    0  0.13856052111E+03 -0.15700273731E+03 -0.30544289512E+03  0.38521809550E+03  0.10606008387E+03 0.  0.
        -15    1    5    5    0    0  0.85775143234E+02 -0.11898605022E+03 -0.12267085709E+03  0.19121504785E+03  0.00000000000E+00 0. -1.
        -15    1    3    3    0    0  0.11429610531E+03 -0.28395979863E+02 -0.25947309400E+03  0.28494950056E+03  0.00000000000E+00 0.  1.
         15    1    3    3    0    0  0.83304237497E+02 -0.40461645641E+02 -0.70615754711E+02  0.11646169141E+03  0.00000000000E+00 0. -1.
         15    1    5    5    0    0  0.52785377874E+02 -0.38016687091E+02 -0.18277203802E+03  0.19400304765E+03  0.00000000000E+00 0.  1.
        -16    1    4    4    0    0 -0.12838174498E+03  0.77932737543E+02  0.29082398045E+03  0.32731326223E+03  0.00000000000E+00 0.  1.
         16    1    1    2    0    0  0.26420530730E+03  0.10026842232E+03  0.29368041378E+03  0.40756151236E+03  0.00000000000E+00 0. -1.
    9900018    1    1    2    0    0 -0.47198442623E+03  0.47659202953E+02  0.11049732009E+03  0.49554569352E+03  0.91187600000E+02 0.  0.
<mgrwt>
<rscale>  0 0.96868692E+03</rscale>
<asrwt>0</asrwt>
<pdfrwt beam="1">  1        2 0.15973229E+00 0.15679706E+04</pdfrwt>
<pdfrwt beam="2">  1       -2 0.15058306E+00 0.15679706E+04</pdfrwt>
<totfact> 0.67071721E+00</totfact>
</mgrwt>
</event>
<event>
12    1  0.4929160E-011  0.1607653E+04  0.7818608E-02  0.9529541E-01
         -2   -1    0    0    0  501 -0.00000000000E+00  0.00000000000E+00  0.55992233305E+03  0.55992233305E+03  0.00000000000E+00 0. -1.
          2   -1    0    0  501    0  0.00000000000E+00 -0.00000000000E+00 -0.13408331142E+04  0.13408331142E+04  0.00000000000E+00 0.  1.
         23    2    1    2    0    0  0.54001757897E+02  0.14821689134E+01 -0.12017017559E+03  0.16261703915E+03  0.95315495279E+02 0.  0.
    9900016    2    1    2    0    0  0.58267003626E+02  0.34637383492E+03 -0.28160722129E+03  0.83225410633E+03  0.69998170918E+03 0.  0.
         23    2    4    4    0    0  0.13935260741E+03 -0.16016415274E+03 -0.21993028417E+03  0.31557272224E+03  0.78390739979E+02 0.  0.
        -15    1    3    3    0    0  0.74798561859E+02 -0.60614995996E+01 -0.52933038103E+02  0.91833943379E+02  0.00000000000E+00 0. -1.
        -15    1    5    5    0    0  0.12155355728E+03 -0.12472342488E+03 -0.21329034396E+03  0.27536152750E+03  0.00000000000E+00 0. -1.
         15    1    5    5    0    0  0.17799050128E+02 -0.35440727858E+02 -0.66399402112E+01  0.40211194742E+02  0.00000000000E+00 0.  1.
         15    1    3    3    0    0 -0.20796803962E+02  0.75436685130E+01 -0.67237137490E+02  0.70783095776E+02  0.00000000000E+00 0.  1.
        -16    1    1    2    0    0 -0.26996618780E+03 -0.50565554360E+03 -0.32477484443E+03  0.65882317119E+03  0.00000000000E+00 0.  1.
         16    1    4    4    0    0 -0.81085603785E+02  0.50653798766E+03 -0.61676937119E+02  0.51668138408E+03  0.00000000000E+00 0. -1.
    9900018    1    1    2    0    0  0.15769742628E+03  0.15779953976E+03 -0.54358539874E+02  0.24706113060E+03  0.91187600000E+02 0.  0.
<mgrwt>
<rscale>  0 0.82140498E+03</rscale>
<asrwt>0</asrwt>
<pdfrwt beam="1">  1        2 0.20628202E+00 0.16076526E+04</pdfrwt>
<pdfrwt beam="2">  1       -2 0.86141898E-01 0.16076526E+04</pdfrwt>
<totfact> 0.17476477E+01</totfact>
</mgrwt>
</event>
<event>
12    1  0.5548313E-011  0.1851567E+04  0.7818608E-02  0.9160376E-01
          2   -1    0    0  501    0  0.00000000000E+00  0.00000000000E+00  0.27083247467E+04  0.27083247467E+04  0.00000000000E+00 0.  1.
         -2   -1    0    0    0  501 -0.00000000000E+00 -0.00000000000E+00 -0.43641054549E+03  0.43641054549E+03  0.00000000000E+00 0. -1.
         23    2    1    2    0    0 -0.25691657273E+03  0.62429549119E+01  0.99761611564E+02  0.29051938990E+03  0.91673534539E+02 0.  0.
    9900016    2    1    2    0    0  0.51023957768E+03  0.36752938506E+03  0.63974847071E+03  0.11491775788E+04  0.71826786534E+03 0.  0.
         23    2    4    4    0    0  0.39264683906E+03 -0.10023851262E+03  0.11337959894E+03  0.43524547600E+03  0.11119528449E+03 0.  0.
        -15    1    3    3    0    0 -0.71555802931E+02 -0.37007716718E+02  0.45844422892E+02  0.92690426367E+02  0.00000000000E+00 0. -1.
        -15    1    5    5    0    0  0.27486921826E+03 -0.52430162754E+02  0.26068909051E+02  0.28103664731E+03  0.00000000000E+00 0.  1.
         15    1    5    5    0    0  0.11777762080E+03 -0.47808349864E+02  0.87310689891E+02  0.15420882869E+03  0.00000000000E+00 0. -1.
         15    1    3    3    0    0 -0.18536076980E+03  0.43250671630E+02  0.53917188672E+02  0.19782896353E+03  0.00000000000E+00 0.  1.
        -16    1    4    4    0    0  0.11759273862E+03  0.46776789767E+03  0.52636887177E+03  0.71393210282E+03  0.00000000000E+00 0.  1.
         16    1    1    2    0    0 -0.19428347914E+03 -0.24833811510E+03  0.15039920522E+04  0.15366879914E+04  0.00000000000E+00 0. -1.
    9900018    1    1    2    0    0 -0.59039525803E+02 -0.12543422487E+03  0.28412066664E+02  0.16835033205E+03  0.91187600000E+02 0.  0.
<mgrwt>
<rscale>  0 0.11471946E+04</rscale>
<asrwt>0</asrwt>
<pdfrwt beam="1">  1        2 0.41666533E+00 0.18515673E+04</pdfrwt>
<pdfrwt beam="2">  1       -2 0.67140086E-01 0.18515673E+04</pdfrwt>
<totfact> 0.50007342E+00</totfact>
</mgrwt>
</event>
<event>
12    1  0.4929160E-011  0.1326277E+04  0.7818608E-02  0.9740909E-01
          2   -1    0    0  501    0  0.00000000000E+00  0.00000000000E+00  0.98852240101E+03  0.98852240101E+03  0.00000000000E+00 0. -1.
         -2   -1    0    0    0  501 -0.00000000000E+00 -0.00000000000E+00 -0.51098481071E+03  0.51098481071E+03  0.00000000000E+00 0.  1.
         23    2    1    2    0    0 -0.13188925516E+02  0.56772460839E+01  0.28774791410E+02  0.99365257751E+02  0.94017482140E+02 0.  0.
    9900016    2    1    2    0    0  0.16695530995E+02 -0.19308396458E+03  0.61581171071E+03  0.96100570120E+03  0.71186216120E+03 0.  0.
         23    2    4    4    0    0 -0.33214733906E+03 -0.17409855020E+03  0.26140917929E+03  0.46335828764E+03  0.75723072260E+02 0.  0.
        -15    1    5    5    0    0 -0.78808343919E+02 -0.46492921555E+02  0.10558140926E+03  0.13971320914E+03  0.00000000000E+00 0.  1.
        -15    1    3    3    0    0  0.35074472209E+02 -0.10469644208E+02  0.31652374620E+02  0.48391165202E+02  0.00000000000E+00 0.  1.
         15    1    3    3    0    0 -0.48263397725E+02  0.16146890292E+02 -0.28775832106E+01  0.50974092549E+02  0.00000000000E+00 0. -1.
         15    1    5    5    0    0 -0.25333899515E+03 -0.12760562864E+03  0.15582777003E+03  0.32364507850E+03  0.00000000000E+00 0. -1.
        -16    1    1    2    0    0  0.15820485389E+02  0.24940053670E+03 -0.20256788858E+03  0.32169032461E+03  0.00000000000E+00 0.  1.
         16    1    4    4    0    0  0.34884287006E+03 -0.18985414386E+02  0.35440253142E+03  0.49764741356E+03  0.00000000000E+00 0. -1.
    9900018    1    1    2    0    0 -0.19327090868E+02 -0.61993818200E+02  0.35518976765E+02  0.11744592816E+03  0.91187600000E+02 0.  0.
<mgrwt>
<rscale>  0 0.68632439E+03</rscale>
<asrwt>0</asrwt>
<pdfrwt beam="1">  1        2 0.15208037E+00 0.13262765E+04</pdfrwt>
<pdfrwt beam="2">  1       -2 0.78613048E-01 0.13262765E+04</pdfrwt>
<totfact> 0.35977472E+01</totfact>
</mgrwt>
</event>
<event>
12    1  0.4929160E-011  0.1301727E+04  0.7818608E-02  0.9544688E-01
         -2   -1    0    0    0  501 -0.00000000000E+00  0.00000000000E+00  0.98190888288E+03  0.98190888288E+03  0.00000000000E+00 0.  1.
          2   -1    0    0  501    0  0.00000000000E+00 -0.00000000000E+00 -0.63658666875E+03  0.63658666875E+03  0.00000000000E+00 0. -1.
         23    2    1    2    0    0 -0.17294690945E+03 -0.16378605315E+02  0.24396814609E+03  0.31282908219E+03  0.90347585255E+02 0.  0.
    9900016    2    1    2    0    0  0.10444475336E+03  0.10072180686E+03 -0.23358147864E+03  0.76308611462E+03  0.71181916403E+03 0.  0.
         23    2    4    4    0    0  0.52278671747E+01 -0.25993662561E+03 -0.27651888530E+03  0.38657301218E+03  0.73359524852E+02 0.  0.
        -15    1    5    5    0    0  0.14561688534E+02 -0.14552198561E+03 -0.10441587107E+03  0.17969798329E+03  0.00000000000E+00 0. -1.
        -15    1    3    3    0    0 -0.13080115593E+03 -0.51667188159E+02  0.18173996129E+03  0.22979959585E+03  0.00000000000E+00 0.  1.
         15    1    3    3    0    0 -0.42145753520E+02  0.35288582845E+02  0.62228184799E+02  0.83029486343E+02  0.00000000000E+00 0. -1.
         15    1    5    5    0    0 -0.93338213594E+01 -0.11441464000E+03 -0.17210301423E+03  0.20687502889E+03  0.00000000000E+00 0.  1.
        -16    1    4    4    0    0  0.99216886182E+02  0.36065843247E+03  0.42937406662E+02  0.37651310244E+03  0.00000000000E+00 0.  1.
         16    1    1    2    0    0 -0.11400981973E+03  0.24470173606E+02 -0.20654914212E+02  0.11842150933E+03  0.00000000000E+00 0. -1.
    9900018    1    1    2    0    0  0.18251197582E+03 -0.10881337515E+03  0.35559046089E+03  0.42415884548E+03  0.91187600000E+02 0.  0.
<mgrwt>
<rscale>  0 0.81067839E+03</rscale>
<asrwt>0</asrwt>
<pdfrwt beam="1">  1        2 0.97936410E-01 0.13017267E+04</pdfrwt>
<pdfrwt beam="2">  1       -2 0.15106291E+00 0.13017267E+04</pdfrwt>
<totfact> 0.13209220E+01</totfact>
</mgrwt>
</event>
<event>
12    1  0.4929160E-011  0.1619744E+04  0.7818608E-02  0.9486008E-01
          2   -1    0    0  501    0  0.00000000000E+00  0.00000000000E+00  0.75476562366E+03  0.75476562366E+03  0.00000000000E+00 0. -1.
         -2   -1    0    0    0  501 -0.00000000000E+00 -0.00000000000E+00 -0.10190918992E+04  0.10190918992E+04  0.00000000000E+00 0.  1.
         23    2    1    2    0    0 -0.77320623356E+02 -0.29807166440E+02 -0.68573560192E+02  0.14232749981E+03  0.93208572984E+02 0.  0.
    9900016    2    1    2    0    0  0.27005150014E+03 -0.18846138311E+03  0.28589912180E+03  0.81439091435E+03  0.68778539376E+03 0.  0.
         23    2    4    4    0    0  0.13432042956E+03 -0.18091286682E+03  0.50056860841E+03  0.56029862383E+03  0.11222376291E+03 0.  0.
        -15    1    5    5    0    0  0.11391337563E+03 -0.86644325117E+02  0.20994187357E+03  0.25408480179E+03  0.00000000000E+00 0.  1.
        -15    1    3    3    0    0 -0.71316427809E+02  0.73522596716E+01 -0.75430623911E+02  0.10406664990E+03  0.00000000000E+00 0. -1.
         15    1    5    5    0    0  0.20407053933E+02 -0.94268541704E+02  0.29062673484E+03  0.30621382204E+03  0.00000000000E+00 0. -1.
         15    1    3    3    0    0 -0.60041955469E+01 -0.37159426111E+02  0.68570637191E+01  0.38260849911E+02  0.00000000000E+00 0.  1.
        -16    1    4    4    0    0  0.13573107058E+03 -0.75485162868E+01 -0.21466948661E+03  0.25409229052E+03  0.00000000000E+00 0.  1.
         16    1    1    2    0    0 -0.92311030247E+02  0.28843763458E+03  0.92907559712E+01  0.30299160631E+03  0.00000000000E+00 0. -1.
    9900018    1    1    2    0    0 -0.10041984654E+03 -0.70169085037E+02 -0.49094259312E+03  0.51414750239E+03  0.91187600000E+02 0.  0.
<mgrwt>
<rscale>  0 0.85323333E+03</rscale>
<asrwt>0</asrwt>
<pdfrwt beam="1">  1        2 0.11611779E+00 0.16197441E+04</pdfrwt>
<pdfrwt beam="2">  1       -2 0.15678337E+00 0.16197441E+04</pdfrwt>
<totfact> 0.94368705E+00</totfact>
</mgrwt>
</event>
<event>
11    1  0.4929160E-011  0.1129382E+04  0.7818608E-02  0.9894606E-01
          2   -1    0    0  501    0  0.00000000000E+00  0.00000000000E+00  0.82745156271E+03  0.82745156271E+03  0.00000000000E+00 0. -1.
         -2   -1    0    0    0  501 -0.00000000000E+00 -0.00000000000E+00 -0.80448541720E+03  0.80448541720E+03  0.00000000000E+00 0.  1.
         23    2    1    2    0    0 -0.11923418634E+02 -0.17436222835E+02 -0.41146842508E+03  0.42187998150E+03  0.90720803405E+02 0.  0.
    9900016    2    1    2    0    0 -0.60302079663E+02  0.19185520859E+03  0.29581436004E+03  0.79187419889E+03  0.70647990020E+03 0.  0.
        -15    1    3    3    0    0 -0.29818727623E+02 -0.48533726452E+02 -0.26880103065E+03  0.27477021891E+03  0.00000000000E+00 0.  1.
        -15    1    4    4    0    0 -0.10598367510E+03  0.97319502171E+02  0.55097661423E+02  0.15407588126E+03  0.00000000000E+00 0. -1.
         15    1    3    3    0    0  0.17895308989E+02  0.31097503618E+02 -0.14266739443E+03  0.14710976259E+03  0.00000000000E+00 0. -1.
         15    1    4    4    0    0 -0.12245435538E+03  0.71156309986E+02 -0.15333718091E+03  0.20873567173E+03  0.00000000000E+00 0.  1.
        -16    1    4    4    0    0  0.16813595082E+03  0.23379396432E+02  0.39405387953E+03  0.42906264590E+03  0.00000000000E+00 0.  1.
         16    1    1    2    0    0  0.17060601511E+03 -0.80756841034E+02  0.16713059003E+03  0.25211250244E+03  0.00000000000E+00 0. -1.
    9900018    1    1    2    0    0 -0.98380516810E+02 -0.93662144722E+02 -0.28510379477E+02  0.16607029708E+03  0.91187600000E+02 0.  0.
<mgrwt>
<rscale>  0 0.60523431E+03</rscale>
<asrwt>0</asrwt>
<pdfrwt beam="1">  1        2 0.12730024E+00 0.11293824E+04</pdfrwt>
<pdfrwt beam="2">  1       -2 0.12376699E+00 0.11293824E+04</pdfrwt>
<totfact> 0.15918821E+01</totfact>
</mgrwt>
</event>
<event>
12    1  0.4929160E-011  0.2162852E+04  0.7818608E-02  0.9244666E-01
          1   -1    0    0  501    0  0.00000000000E+00  0.00000000000E+00  0.31795537575E+04  0.31795537575E+04  0.00000000000E+00 0. -1.
         -1   -1    0    0    0  501 -0.00000000000E+00 -0.00000000000E+00 -0.41155292120E+03  0.41155292120E+03  0.00000000000E+00 0.  1.
         23    2    1    2    0    0 -0.69006614983E+02 -0.51109400343E+02  0.14792739401E+03  0.19364962665E+03  0.90794164389E+02 0.  0.
    9900016    2    1    2    0    0 -0.23965993942E+03  0.43252158613E+02  0.92808276498E+03  0.11858864276E+04  0.69690843351E+03 0.  0.
         23    2    4    4    0    0  0.97731964736E+02 -0.82871072175E+02  0.77629576627E+03  0.79501604074E+03  0.11400103846E+03 0.  0.
        -15    1    3    3    0    0  0.16471353882E+02 -0.16369427661E+02  0.53647494651E+01  0.23833677800E+02  0.00000000000E+00 0.  1.
        -15    1    5    5    0    0 -0.58342720060E+01  0.13952280238E+02  0.17679522234E+02  0.23265217818E+02  0.00000000000E+00 0.  1.
         15    1    5    5    0    0  0.10356623674E+03 -0.96823352414E+02  0.75861624404E+03  0.77175082292E+03  0.00000000000E+00 0. -1.
         15    1    3    3    0    0 -0.85477968864E+02 -0.34739972683E+02  0.14256264455E+03  0.16981594885E+03  0.00000000000E+00 0. -1.
        -16    1    4    4    0    0 -0.33739190416E+03  0.12612323079E+03  0.15178699871E+03  0.39087038685E+03  0.00000000000E+00 0.  1.
         16    1    1    2    0    0  0.82755813171E+03  0.21781698526E+03  0.97155052932E+03  0.12946841821E+04  0.00000000000E+00 0. -1.
    9900018    1    1    2    0    0 -0.51889157730E+03 -0.20995974353E+03  0.72044014795E+03  0.91688644230E+03  0.91187600000E+02 0.  0.
<mgrwt>
<rscale>  0 0.10604059E+04</rscale>
<asrwt>0</asrwt>
<pdfrwt beam="1">  1        1 0.48916210E+00 0.21628522E+04</pdfrwt>
<pdfrwt beam="2">  1       -1 0.63315836E-01 0.21628522E+04</pdfrwt>
<totfact> 0.10178137E+00</totfact>
</mgrwt>
</event>
<event>
12    1  0.4929160E-011  0.1520842E+04  0.7818608E-02  0.9178265E-01
          1   -1    0    0  501    0  0.00000000000E+00  0.00000000000E+00  0.22547375684E+04  0.22547375684E+04  0.00000000000E+00 0. -1.
         -1   -1    0    0    0  501 -0.00000000000E+00 -0.00000000000E+00 -0.53482192857E+03  0.53482192857E+03  0.00000000000E+00 0.  1.
         23    2    1    2    0    0 -0.28426638597E+03 -0.35054579625E+03  0.10125102841E+04  0.11122455564E+04  0.90682792404E+02 0.  0.
    9900016    2    1    2    0    0  0.30571835668E+03 -0.16418005304E+01  0.12975118121E+03  0.74735921335E+03  0.66951028045E+03 0.  0.
         23    2    4    4    0    0  0.20307157322E+03 -0.20526497015E+03 -0.18453581359E+03  0.35906155373E+03  0.10723787136E+03 0.  0.
        -15    1    5    5    0    0  0.82315971567E+02 -0.51108876173E+02 -0.11702246246E+03  0.15192857900E+03  0.00000000000E+00 0.  1.
        -15    1    3    3    0    0 -0.84965275969E+02 -0.13438348830E+03  0.45462735218E+03  0.48162646252E+03  0.00000000000E+00 0. -1.
         15    1    3    3    0    0 -0.19930111000E+03 -0.21616230794E+03  0.55788293189E+03  0.63061909384E+03  0.00000000000E+00 0.  1.
         15    1    5    5    0    0  0.12075560165E+03 -0.15415609397E+03 -0.67513351134E+02  0.20713297473E+03  0.00000000000E+00 0. -1.
        -16    1    1    2    0    0 -0.76929615543E+02  0.33990677677E+03  0.69091905716E+03  0.77383714449E+03  0.00000000000E+00 0.  1.
         16    1    4    4    0    0  0.10264678346E+03  0.20362316962E+03  0.31428699480E+03  0.38829765961E+03  0.00000000000E+00 0. -1.
    9900018    1    1    2    0    0  0.55477644834E+02  0.12280820004E+02 -0.11326488263E+03  0.15611758276E+03  0.91187600000E+02 0.  0.
<mgrwt>
<rscale>  0 0.11280614E+04</rscale>
<asrwt>0</asrwt>
<pdfrwt beam="1">  1        1 0.34688270E+00 0.15208418E+04</pdfrwt>
<pdfrwt beam="2">  1       -1 0.82280299E-01 0.15208418E+04</pdfrwt>
<totfact> 0.28123304E+00</totfact>
</mgrwt>
</event>
<event>
12    1  0.4929160E-011  0.3598209E+04  0.7818608E-02  0.8856904E-01
         -1   -1    0    0    0  501 -0.00000000000E+00  0.00000000000E+00  0.10345579887E+04  0.10345579887E+04  0.00000000000E+00 0.  1.
          1   -1    0    0  501    0  0.00000000000E+00 -0.00000000000E+00 -0.33575735572E+04  0.33575735572E+04  0.00000000000E+00 0. -1.
         23    2    1    2    0    0 -0.60815241772E+01  0.76420272199E+02 -0.13197114161E+03  0.17931963655E+03  0.94138764039E+02 0.  0.
    9900016    2    1    2    0    0 -0.38974372007E+02 -0.39006708299E+03 -0.52747317258E+03  0.96098197297E+03  0.70113270761E+03 0.  0.
         23    2    4    4    0    0 -0.28734927243E+01 -0.29321284412E+03 -0.69650957876E+03  0.76284736296E+03  0.10405996803E+03 0.  0.
        -15    1    5    5    0    0 -0.14030488166E+02 -0.64172453128E+02 -0.27776028342E+03  0.28542202680E+03  0.00000000000E+00 0. -1.
        -15    1    3    3    0    0  0.22634462916E+02  0.82558343228E+02 -0.69406116173E+02  0.11020620631E+03  0.00000000000E+00 0. -1.
         15    1    3    3    0    0 -0.28715987093E+02 -0.61380710284E+01 -0.62565025441E+02  0.69113430237E+02  0.00000000000E+00 0.  1.
         15    1    5    5    0    0  0.11156995442E+02 -0.22904039099E+03 -0.41874929534E+03  0.47742533615E+03  0.00000000000E+00 0.  1.
        -16    1    1    2    0    0 -0.36500900114E+03 -0.96573914856E+03  0.95149171611E+02  0.10367917046E+04  0.00000000000E+00 0.  1.
         16    1    4    4    0    0 -0.36100879283E+02 -0.96854238869E+02  0.16903640618E+03  0.19813461002E+03  0.00000000000E+00 0. -1.
    9900018    1    1    2    0    0  0.41006489732E+03  0.12793859593E+04 -0.17587204259E+04  0.22150382317E+04  0.91187600000E+02 0.  0.
<mgrwt>
<rscale>  0 0.15421402E+04</rscale>
<asrwt>0</asrwt>
<pdfrwt beam="1">  1        1 0.51654977E+00 0.35982091E+04</pdfrwt>
<pdfrwt beam="2">  1       -1 0.15916277E+00 0.35982091E+04</pdfrwt>
<totfact> 0.77002260E-02</totfact>
</mgrwt>
</event>
<event>
12    1  0.4929160E-011  0.1629892E+04  0.7818608E-02  0.9367700E-01
         -1   -1    0    0    0  501 -0.00000000000E+00  0.00000000000E+00  0.51179689040E+03  0.51179689040E+03  0.00000000000E+00 0.  1.
          1   -1    0    0  501    0  0.00000000000E+00 -0.00000000000E+00 -0.16607897700E+04  0.16607897700E+04  0.00000000000E+00 0. -1.
         23    2    1    2    0    0 -0.63204689435E+02 -0.14958379422E+03 -0.24801000409E+03  0.31024413704E+03  0.91500372574E+02 0.  0.
    9900016    2    1    2    0    0 -0.16755003080E+03  0.44525025580E+03 -0.35156437384E+03  0.92149290290E+03  0.70656270637E+03 0.  0.
         23    2    4    4    0    0  0.82669850007E+02  0.37946490732E+03 -0.48465886340E+03  0.63054300347E+03  0.10891439467E+03 0.  0.
        -15    1    5    5    0    0  0.27741900172E+02  0.19912850632E+03 -0.33127103898E+03  0.38750777582E+03  0.00000000000E+00 0.  1.
        -15    1    3    3    0    0 -0.81665724242E+02 -0.14579849782E+03 -0.21598855173E+03  0.27308889938E+03  0.00000000000E+00 0. -1.
         15    1    3    3    0    0  0.18461034807E+02 -0.37852963970E+01 -0.32021452356E+02  0.37155237665E+02  0.00000000000E+00 0.  1.
         15    1    5    5    0    0  0.54927949835E+02  0.18033640100E+03 -0.15338782442E+03  0.24303522766E+03  0.00000000000E+00 0. -1.
        -16    1    1    2    0    0  0.80496765945E+02 -0.49247332993E+03 -0.33758635072E+03  0.60247344690E+03  0.00000000000E+00 0.  1.
         16    1    4    4    0    0 -0.25021988081E+03  0.65785348478E+02  0.13309448957E+03  0.29094989943E+03  0.00000000000E+00 0. -1.
    9900018    1    1    2    0    0  0.15025795429E+03  0.19680686835E+03 -0.21183215092E+03  0.33837617353E+03  0.91187600000E+02 0.  0.
<mgrwt>
<rscale>  0 0.94782202E+03</rscale>
<asrwt>0</asrwt>
<pdfrwt beam="1">  1        1 0.25550613E+00 0.16298925E+04</pdfrwt>
<pdfrwt beam="2">  1       -1 0.78737981E-01 0.16298925E+04</pdfrwt>
<totfact> 0.77960076E+00</totfact>
</mgrwt>
</event>
<event>
12    1  0.4929160E-011  0.1039476E+04  0.7818608E-02  0.9793139E-01
          1   -1    0    0  501    0  0.00000000000E+00  0.00000000000E+00  0.48726975431E+03  0.48726975431E+03  0.00000000000E+00 0. -1.
         -1   -1    0    0    0  501 -0.00000000000E+00 -0.00000000000E+00 -0.82753894257E+03  0.82753894257E+03  0.00000000000E+00 0.  1.
         23    2    1    2    0    0  0.13034940185E+03  0.47960878834E+02 -0.20906359282E+03  0.26708491716E+03  0.91299258868E+02 0.  0.
    9900016    2    1    2    0    0 -0.15556124279E+03 -0.18389770610E+02 -0.68085986466E+02  0.73308547339E+03  0.71291032103E+03 0.  0.
         23    2    4    4    0    0  0.12865137381E+03  0.88513696860E+01  0.25301997890E+03  0.30340194781E+03  0.10679002519E+03 0.  0.
        -15    1    3    3    0    0 -0.17037731982E+01  0.31942360383E+02 -0.54192428707E+02  0.62928821371E+02  0.00000000000E+00 0. -1.
        -15    1    5    5    0    0  0.97354350692E+02 -0.37688389679E+02  0.12007342384E+03  0.15910974649E+03  0.00000000000E+00 0. -1.
         15    1    3    3    0    0  0.13205317505E+03  0.16018518451E+02 -0.15487116412E+03  0.20415609579E+03  0.00000000000E+00 0.  1.
         15    1    5    5    0    0  0.31297023122E+02  0.46539759365E+02  0.13294655507E+03  0.14429220132E+03  0.00000000000E+00 0.  1.
        -16    1    4    4    0    0 -0.28421261661E+03 -0.27241140296E+02 -0.32110596537E+03  0.42968352559E+03  0.00000000000E+00 0.  1.
         16    1    1    2    0    0 -0.98191361151E+02 -0.60040855616E+02  0.45957695553E+02  0.12392964750E+03  0.00000000000E+00 0. -1.
    9900018    1    1    2    0    0  0.12340320209E+03  0.30469747392E+02 -0.10907730453E+03  0.19070865882E+03  0.91187600000E+02 0.  0.
<mgrwt>
<rscale>  0 0.65732036E+03</rscale>
<asrwt>0</asrwt>
<pdfrwt beam="1">  1        1 0.74964578E-01 0.10394759E+04</pdfrwt>
<pdfrwt beam="2">  1       -1 0.12731368E+00 0.10394759E+04</pdfrwt>
<totfact> 0.24547334E+01</totfact>
</mgrwt>
</event>
<event>
12    1  0.4929160E-011  0.2088628E+04  0.7818608E-02  0.8967907E-01
         -2   -1    0    0    0  501 -0.00000000000E+00  0.00000000000E+00  0.90061963887E+03  0.90061963887E+03  0.00000000000E+00 0.  1.
          2   -1    0    0  501    0  0.00000000000E+00 -0.00000000000E+00 -0.17334481029E+04  0.17334481029E+04  0.00000000000E+00 0. -1.
         23    2    1    2    0    0  0.97388204543E+02  0.37587023203E+03 -0.43320009866E+02  0.40120157029E+03  0.91231480506E+02 0.  0.
    9900016    2    1    2    0    0  0.29460431137E+03 -0.43839323596E+03 -0.75664889663E+03  0.11790052690E+04  0.73386343542E+03 0.  0.
         23    2    4    4    0    0  0.33471823523E+03 -0.51035863823E+02 -0.70087767615E+03  0.78560307060E+03  0.10630950677E+03 0.  0.
        -15    1    3    3    0    0  0.11236237660E+03  0.34780296246E+03 -0.49362416944E+02  0.36882089499E+03  0.00000000000E+00 0. -1.
        -15    1    5    5    0    0  0.12012966292E+03  0.13875852213E+02 -0.33882265177E+03  0.35975611815E+03  0.00000000000E+00 0.  1.
         15    1    5    5    0    0  0.21458857231E+03 -0.64911716036E+02 -0.36205502437E+03  0.42584695246E+03  0.00000000000E+00 0. -1.
         15    1    3    3    0    0 -0.14974172052E+02  0.28067269567E+02  0.60424070786E+01  0.32380675300E+02  0.00000000000E+00 0.  1.
        -16    1    4    4    0    0 -0.40113923859E+02 -0.38735737214E+03 -0.55771220489E+02  0.39340219835E+03  0.00000000000E+00 0.  1.
         16    1    1    2    0    0  0.12550976221E+03 -0.32730326034E+03 -0.16327960760E+03  0.38670448006E+03  0.00000000000E+00 0. -1.
    9900018    1    1    2    0    0 -0.51750227813E+03  0.38982626427E+03  0.13042005007E+03  0.66715642246E+03  0.91187600000E+02 0.  0.
<mgrwt>
<rscale>  0 0.13807017E+04</rscale>
<asrwt>0</asrwt>
<pdfrwt beam="1">  1        2 0.26668432E+00 0.20886282E+04</pdfrwt>
<pdfrwt beam="2">  1       -2 0.13855687E+00 0.20886282E+04</pdfrwt>
<totfact> 0.31580346E+00</totfact>
</mgrwt>
</event>
<event>
12    1  0.4929160E-011  0.1597821E+04  0.7818608E-02  0.9407665E-01
          2   -1    0    0  501    0  0.00000000000E+00  0.00000000000E+00  0.11628033145E+04  0.11628033145E+04  0.00000000000E+00 0. -1.
         -2   -1    0    0    0  501 -0.00000000000E+00 -0.00000000000E+00 -0.68451061166E+03  0.68451061166E+03  0.00000000000E+00 0.  1.
         23    2    1    2    0    0 -0.13270268908E+03 -0.57174351733E+02 -0.22369556618E+02  0.17288983004E+03  0.92258257527E+02 0.  0.
    9900016    2    1    2    0    0 -0.41284352050E+02  0.24637563111E+03  0.18507642305E+03  0.76528900911E+03  0.69929152416E+03 0.  0.
         23    2    4    4    0    0  0.15473605604E+03 -0.67701465974E+02  0.31345601160E+03  0.37343477338E+03  0.11257052557E+03 0.  0.
        -15    1    5    5    0    0  0.79757414281E+02  0.19143011843E+02  0.17751017479E+03  0.19554427168E+03  0.00000000000E+00 0.  1.
        -15    1    3    3    0    0 -0.93335790740E+02 -0.39200374953E+01  0.18272225846E+02  0.95188291110E+02  0.00000000000E+00 0. -1.
         15    1    5    5    0    0  0.74978641756E+02 -0.86844477817E+02  0.13594583681E+03  0.17789050169E+03  0.00000000000E+00 0. -1.
         15    1    3    3    0    0 -0.39366898341E+02 -0.53254314238E+02 -0.40641782464E+02  0.77701538928E+02  0.00000000000E+00 0.  1.
        -16    1    4    4    0    0 -0.19602040809E+03  0.31407709709E+03 -0.12837958855E+03  0.39185423573E+03  0.00000000000E+00 0.  1.
         16    1    1    2    0    0 -0.30305667839E+02  0.30661742723E+03  0.98672971663E+02  0.32352594258E+03  0.00000000000E+00 0. -1.
    9900018    1    1    2    0    0  0.20429270897E+03 -0.49581870661E+03  0.21691286474E+03  0.58560914444E+03  0.91187600000E+02 0.  0.
<mgrwt>
<rscale>  0 0.91447544E+03</rscale>
<asrwt>0</asrwt>
<pdfrwt beam="1">  1        2 0.17889282E+00 0.15978214E+04</pdfrwt>
<pdfrwt beam="2">  1       -2 0.10530932E+00 0.15978214E+04</pdfrwt>
<totfact> 0.13892059E+01</totfact>
</mgrwt>
</event>
