<event>
11    1  0.8567317E-016  0.2843436E+04  0.7818608E-02  0.8531079E-01
          1   -1    0    0  501    0  0.00000000000E+00  0.00000000000E+00  0.12561554125E+04  0.12561554125E+04  0.00000000000E+00 0. -1.
         -1   -1    0    0    0  501 -0.00000000000E+00 -0.00000000000E+00 -0.29214485747E+04  0.29214485747E+04  0.00000000000E+00 0.  1.
    9900016    2    1    2    0    0 -0.12329992167E+03 -0.18098724127E+03 -0.11815832945E+04  0.25532300363E+04  0.22527506041E+04 0.  0.
        -24    2    3    3    0    0  0.43877828665E+03 -0.61579198084E+03  0.31654671100E+03  0.82339232499E+03  0.77762150892E+02 0.  0.
        -15    1    3    3    0    0 -0.58997868933E+03  0.39836163580E+03 -0.14534125950E+04  0.16183865478E+04  0.00000000000E+00 0.  1.
        -15    1    1    2    0    0 -0.52220563244E+03  0.59079983215E+02  0.19527243164E+03  0.56064292516E+03  0.00000000000E+00 0.  1.
         15    1    1    2    0    0  0.70406108060E+02  0.54678652624E+02 -0.42013895794E+03  0.42949216417E+03  0.00000000000E+00 0. -1.
         15    1    4    4    0    0  0.36708811618E+03 -0.53885176515E+03  0.29683462814E+03  0.71639772913E+03  0.00000000000E+00 0. -1.
        -16    1    4    4    0    0  0.71690170477E+02 -0.76940215687E+02  0.19712082865E+02  0.10699459586E+03  0.00000000000E+00 0.  1.
         16    1    1    2    0    0  0.57509944605E+03  0.67228605428E+02 -0.25884334131E+03  0.63423886161E+03  0.00000000000E+00 0. -1.
    9900018    1    3    3    0    0  0.27900481007E+02  0.36443103766E+02 -0.44717410538E+02  0.11145116353E+03  0.91187600000E+02 0.  0.
<mgrwt>
<rscale>  0 0.21698587E+04</rscale>
<asrwt>0</asrwt>
<pdfrwt beam="1">  1        1 0.19325468E+00 0.28434361E+04</pdfrwt>
<pdfrwt beam="2">  1       -1 0.44945362E+00 0.28434361E+04</pdfrwt>
<totfact> 0.26610941E-02</totfact>
</mgrwt>
</event>
<event>
11    1  0.8567317E-016  0.6586928E+04  0.7818608E-02  0.7621604E-01
          2   -1    0    0  501    0  0.00000000000E+00  0.00000000000E+00  0.26837313180E+04  0.26837313180E+04  0.00000000000E+00 0. -1.
         -2   -1    0    0    0  501 -0.00000000000E+00 -0.00000000000E+00 -0.40417253356E+04  0.40417253356E+04  0.00000000000E+00 0.  1.
    9900016    2    1    2    0    0  0.51768766668E+03  0.13421821293E+03 -0.14852980176E+04  0.27420118324E+04  0.22419865385E+04 0.  0.
        -24    2    3    3    0    0  0.89337119170E+03  0.74165813952E+03 -0.14671982187E+04  0.18727967951E+04  0.80798146555E+02 0.  0.
        -15    1    1    2    0    0  0.27350229965E+03 -0.47898532086E+03 -0.23627487301E+03  0.60004688244E+03  0.00000000000E+00 0.  1.
        -15    1    3    3    0    0 -0.42419374237E+03 -0.58213022436E+03  0.79766805699E+02  0.72469212254E+03  0.00000000000E+00 0.  1.
         15    1    4    4    0    0  0.67651252799E+03  0.56461030556E+03 -0.10560878430E+04  0.13754183109E+04  0.00000000000E+00 0. -1.
         15    1    1    2    0    0 -0.13969663536E+03  0.12614927148E+04  0.13747285978E+04  0.18710311961E+04  0.00000000000E+00 0. -1.
        -16    1    4    4    0    0  0.21685866370E+03  0.17704783395E+03 -0.41111037568E+03  0.49737848418E+03  0.00000000000E+00 0.  1.
         16    1    1    2    0    0 -0.65149333097E+03 -0.91672560686E+03 -0.10111497248E+04  0.15123667427E+04  0.00000000000E+00 0. -1.
    9900018    1    3    3    0    0  0.48510217357E+02 -0.25309702233E+02 -0.97866604587E+02  0.14452291480E+03  0.91187600000E+02 0.  0.
<mgrwt>
<rscale>  0 0.65869279E+04</rscale>
<asrwt>0</asrwt>
<pdfrwt beam="1">  1        2 0.41288174E+00 0.65869279E+04</pdfrwt>
<pdfrwt beam="2">  1       -2 0.62180390E+00 0.65869279E+04</pdfrwt>
<totfact> 0.75435180E-04</totfact>
</mgrwt>
</event>
<event>
11    1  0.8567317E-016  0.4498021E+04  0.7818608E-02  0.7910983E-01
          2   -1    0    0  501    0  0.00000000000E+00  0.00000000000E+00  0.46320362741E+04  0.46320362741E+04  0.00000000000E+00 0. -1.
         -2   -1    0    0    0  501 -0.00000000000E+00 -0.00000000000E+00 -0.10919705956E+04  0.10919705956E+04  0.00000000000E+00 0.  1.
    9900016    2    1    2    0    0  0.25207178286E+03  0.66577940535E+03  0.12677709526E+04  0.26798390349E+04  0.22511089855E+04 0.  0.
        -24    2    3    3    0    0 -0.36507374173E+03  0.45050518257E+03 -0.48202252715E+03  0.75841018439E+03  0.81280592260E+02 0.  0.
        -15    1    3    3    0    0  0.54635965453E+03  0.19682786019E+03  0.16961395854E+04  0.17928021563E+04  0.00000000000E+00 0.  1.
        -15    1    1    2    0    0 -0.75514250374E+03  0.18566433505E+03  0.58057064304E+03  0.97045026551E+03  0.00000000000E+00 0.  1.
         15    1    4    4    0    0 -0.26231076488E+03  0.26497184904E+03 -0.32340002892E+03  0.49356316400E+03  0.00000000000E+00 0. -1.
         15    1    1    2    0    0  0.38596235597E+03 -0.39388010346E+03  0.14324215673E+04  0.15349071707E+04  0.00000000000E+00 0. -1.
        -16    1    4    4    0    0 -0.10276297685E+03  0.18553333352E+03 -0.15862249823E+03  0.26484702038E+03  0.00000000000E+00 0.  1.
         16    1    1    2    0    0  0.11710836491E+03 -0.45756363695E+03  0.25930251558E+03  0.53881039854E+03  0.00000000000E+00 0. -1.
    9900018    1    3    3    0    0  0.70785870053E+02  0.18446362592E+02  0.53653894393E+02  0.12862669423E+03  0.91187600000E+02 0.  0.
<mgrwt>
<rscale>  0 0.44980206E+04</rscale>
<asrwt>0</asrwt>
<pdfrwt beam="1">  1        2 0.71262095E+00 0.44980206E+04</pdfrwt>
<pdfrwt beam="2">  1       -2 0.16799548E+00 0.44980206E+04</pdfrwt>
<totfact> 0.14964848E-02</totfact>
</mgrwt>
</event>
<event>
11    1  0.8567317E-016  0.3331176E+04  0.7818608E-02  0.8298420E-01
         -1   -1    0    0    0  501 -0.00000000000E+00  0.00000000000E+00  0.11435915977E+04  0.11435915977E+04  0.00000000000E+00 0.  1.
          1   -1    0    0  501    0  0.00000000000E+00 -0.00000000000E+00 -0.55343654317E+04  0.55343654317E+04  0.00000000000E+00 0. -1.
    9900016    2    1    2    0    0  0.23482803206E+03  0.30984031936E+03 -0.25842445275E+04  0.34433432285E+04  0.22421301441E+04 0.  0.
        -24    2    3    3    0    0  0.50040360229E+03  0.39122977525E+03 -0.27775244365E+04  0.28502869266E+04  0.77647061781E+02 0.  0.
        -15    1    1    2    0    0 -0.69542816974E+03 -0.54528609771E+03 -0.48576527294E+03  0.10084270762E+04  0.00000000000E+00 0.  1.
        -15    1    3    3    0    0 -0.28358853700E+03 -0.13515297172E+03  0.30517518562E+03  0.43797337591E+03  0.00000000000E+00 0.  1.
         15    1    1    2    0    0 -0.35796696669E+03  0.65697413157E+03 -0.10048115799E+04  0.12527576262E+04  0.00000000000E+00 0. -1.
         15    1    4    4    0    0  0.28064090598E+03  0.26002244559E+03 -0.15712628177E+04  0.16171696981E+04  0.00000000000E+00 0. -1.
        -16    1    4    4    0    0  0.21976269631E+03  0.13120732966E+03 -0.12062616188E+04  0.12331172284E+04  0.00000000000E+00 0.  1.
         16    1    1    2    0    0  0.81856710438E+03 -0.42152835322E+03 -0.31595245371E+03  0.97342909857E+03  0.00000000000E+00 0. -1.
    9900018    1    3    3    0    0  0.18012966771E+02  0.53763515838E+02 -0.11189527663E+03  0.15508292599E+03  0.91187600000E+02 0.  0.
<mgrwt>
<rscale>  0 0.28156702E+04</rscale>
<asrwt>0</asrwt>
<pdfrwt beam="1">  1        1 0.85144085E+00 0.33311763E+04</pdfrwt>
<pdfrwt beam="2">  1       -1 0.17593717E+00 0.33311763E+04</pdfrwt>
<totfact> 0.23029533E-04</totfact>
</mgrwt>
</event>
<event>
11    1  0.8567317E-016  0.3914683E+04  0.7818608E-02  0.8101930E-01
         -2   -1    0    0    0  501 -0.00000000000E+00  0.00000000000E+00  0.30629400024E+04  0.30629400024E+04  0.00000000000E+00 0.  1.
          2   -1    0    0  501    0  0.00000000000E+00 -0.00000000000E+00 -0.36106337877E+04  0.36106337877E+04  0.00000000000E+00 0. -1.
    9900016    2    1    2    0    0  0.65821732654E+03 -0.19601721061E+02  0.83673549554E+03  0.24784518230E+04  0.22380712395E+04 0.  0.
        -24    2    3    3    0    0  0.22952464493E+03  0.76324895736E+03  0.11906054891E+04  0.14349700732E+04  0.79794402743E+02 0.  0.
        -15    1    3    3    0    0  0.38171414988E+03 -0.76977942929E+03 -0.37573861404E+03  0.93778759218E+03  0.00000000000E+00 0.  1.
        -15    1    1    2    0    0  0.48138528558E+03  0.10212779265E+04  0.33360615752E+03  0.11772992247E+04  0.00000000000E+00 0.  1.
         15    1    1    2    0    0 -0.11044374927E+04  0.29332802506E+03 -0.10857107119E+04  0.15762586258E+04  0.00000000000E+00 0. -1.
         15    1    4    4    0    0  0.14856515572E+03  0.35807799518E+03  0.58991073862E+03  0.70589385580E+03  0.00000000000E+00 0. -1.
        -16    1    4    4    0    0  0.80959489206E+02  0.40517096218E+03  0.60069475051E+03  0.72907621739E+03  0.00000000000E+00 0.  1.
         16    1    1    2    0    0 -0.35165119447E+02 -0.12950042305E+04 -0.63232472636E+03  0.14415641165E+04  0.00000000000E+00 0. -1.
    9900018    1    3    3    0    0  0.46978531729E+02 -0.13071249134E+02  0.21868620463E+02  0.10569415761E+03  0.91187600000E+02 0.  0.
<mgrwt>
<rscale>  0 0.35504784E+04</rscale>
<asrwt>0</asrwt>
<pdfrwt beam="1">  1        2 0.55548212E+00 0.39146828E+04</pdfrwt>
<pdfrwt beam="2">  1       -2 0.47122154E+00 0.39146828E+04</pdfrwt>
<totfact> 0.12537157E-03</totfact>
</mgrwt>
</event>
<event>
11    1  0.8567317E-016  0.3749542E+04  0.7818608E-02  0.8217504E-01
         -2   -1    0    0    0  501 -0.00000000000E+00  0.00000000000E+00  0.26758539140E+04  0.26758539140E+04  0.00000000000E+00 0. -1.
          2   -1    0    0  501    0  0.00000000000E+00 -0.00000000000E+00 -0.28278133475E+04  0.28278133475E+04  0.00000000000E+00 0.  1.
    9900016    2    1    2    0    0 -0.66182080595E+03 -0.65629292741E+03 -0.10672265888E+03  0.23522987923E+04  0.21571260271E+04 0.  0.
        -24    2    3    3    0    0 -0.12195805554E+04  0.19839341738E+03  0.26475126236E+03  0.12662152043E+04  0.80442734238E+02 0.  0.
        -15    1    1    2    0    0 -0.96384275594E+03  0.88395370302E+03 -0.32713847957E+03  0.13481048149E+04  0.00000000000E+00 0.  1.
        -15    1    3    3    0    0  0.55775974944E+03 -0.85468634478E+03 -0.37147392124E+03  0.10860835880E+04  0.00000000000E+00 0.  1.
         15    1    1    2    0    0  0.12831701925E+04 -0.11117499850E+03  0.17938750457E+03  0.13004097431E+04  0.00000000000E+00 0. -1.
         15    1    4    4    0    0 -0.40542976279E+03  0.65319798814E+02  0.12693245722E+03  0.42982766008E+03  0.00000000000E+00 0. -1.
        -16    1    4    4    0    0 -0.81415079259E+03  0.13307361856E+03  0.13781880514E+03  0.83638754420E+03  0.00000000000E+00 0.  1.
         16    1    1    2    0    0  0.37052681508E+03 -0.13522078913E+03  0.92395922359E+02  0.40510713272E+03  0.00000000000E+00 0. -1.
    9900018    1    1    2    0    0 -0.28033445672E+02  0.18735012019E+02  0.10118278000E+02  0.97746778438E+02  0.91187600000E+02 0.  0.
<mgrwt>
<rscale>  0 0.30935717E+04</rscale>
<asrwt>0</asrwt>
<pdfrwt beam="1">  1        2 0.43504820E+00 0.37495416E+04</pdfrwt>
<pdfrwt beam="2">  1       -2 0.41166984E+00 0.37495416E+04</pdfrwt>
<totfact> 0.10546581E-02</totfact>
</mgrwt>
</event>
<event>
11    1  0.8567317E-016  0.2946059E+04  0.7818608E-02  0.8508579E-01
          2   -1    0    0  501    0  0.00000000000E+00  0.00000000000E+00  0.24710634856E+04  0.24710634856E+04  0.00000000000E+00 0. -1.
         -2   -1    0    0    0  501 -0.00000000000E+00 -0.00000000000E+00 -0.16273166460E+04  0.16273166460E+04  0.00000000000E+00 0.  1.
    9900016    2    1    2    0    0 -0.62668284370E+03 -0.16273011445E+03  0.56237900017E+03  0.23109003333E+04  0.21458745849E+04 0.  0.
        -24    2    3    3    0    0  0.24273917838E+03 -0.99239287390E+03  0.12656808766E+03  0.10325552710E+04  0.79906081898E+02 0.  0.
        -15    1    3    3    0    0 -0.86942202208E+03  0.82966275946E+03  0.43581091251E+03  0.12783450623E+04  0.00000000000E+00 0.  1.
        -15    1    1    2    0    0  0.26628922475E+03  0.28625732266E+02 -0.46083596664E+03  0.53300954205E+03  0.00000000000E+00 0.  1.
         15    1    4    4    0    0  0.20405279302E+03 -0.72905779477E+03  0.68784422376E+02  0.76019346697E+03  0.00000000000E+00 0. -1.
         15    1    1    2    0    0  0.16713431207E+03 -0.30925799568E+03  0.26883434923E+03  0.44254524457E+03  0.00000000000E+00 0. -1.
        -16    1    4    4    0    0  0.38686385366E+02 -0.26333507913E+03  0.57783665283E+02  0.27236180402E+03  0.00000000000E+00 0.  1.
         16    1    1    2    0    0  0.28042164247E+03  0.42595611824E+03  0.45465482849E+03  0.68321733387E+03  0.00000000000E+00 0. -1.
    9900018    1    1    2    0    0 -0.87162335592E+02  0.17406259621E+02  0.18714628305E+02  0.12870767781E+03  0.91187600000E+02 0.  0.
<mgrwt>
<rscale>  0 0.22238186E+04</rscale>
<asrwt>0</asrwt>
<pdfrwt beam="1">  1        2 0.38016361E+00 0.29460589E+04</pdfrwt>
<pdfrwt beam="2">  1       -2 0.25035641E+00 0.29460589E+04</pdfrwt>
<totfact> 0.19232413E-01</totfact>
</mgrwt>
</event>
<event>
11    1  0.8567317E-016  0.3489731E+04  0.7818608E-02  0.8202967E-01
          1   -1    0    0  501    0  0.00000000000E+00  0.00000000000E+00  0.20531303816E+04  0.20531303816E+04  0.00000000000E+00 0. -1.
         -1   -1    0    0    0  501 -0.00000000000E+00 -0.00000000000E+00 -0.43733162820E+04  0.43733162820E+04  0.00000000000E+00 0.  1.
    9900016    2    1    2    0    0 -0.10293492567E+04 -0.79042427270E+03 -0.10880647978E+04  0.28231449524E+04  0.22587456685E+04 0.  0.
         24    2    3    3    0    0 -0.11429227949E+04 -0.13995745235E+04 -0.56102157989E+03  0.18936974276E+04  0.79141468319E+02 0.  0.
        -15    1    4    4    0    0 -0.80932681225E+03 -0.99519289495E+03 -0.36052560116E+03  0.13324404288E+04  0.00000000000E+00 0.  1.
        -15    1    1    2    0    0  0.93083562722E+03 -0.79394502936E+02 -0.15574731545E+03  0.94710911635E+03  0.00000000000E+00 0.  1.
         15    1    1    2    0    0 -0.44997981227E+03  0.12885291261E+04  0.15053196859E+02  0.13649233455E+04  0.00000000000E+00 0. -1.
         15    1    3    3    0    0  0.14138417272E+03  0.63961142348E+03 -0.39926787007E+03  0.76714215724E+03  0.00000000000E+00 0. -1.
        -16    1    1    2    0    0  0.54849344175E+03 -0.41871035046E+03 -0.10914269840E+04  0.12912692495E+04  0.00000000000E+00 0.  1.
         16    1    4    4    0    0 -0.33359598266E+03 -0.40438162858E+03 -0.20049597874E+03  0.56125699877E+03  0.00000000000E+00 0. -1.
    9900018    1    3    3    0    0 -0.27810634516E+02 -0.30461172647E+02 -0.12777534788E+03  0.16230536760E+03  0.91187600000E+02 0.  0.
<mgrwt>
<rscale>  0 0.31469584E+04</rscale>
<asrwt>0</asrwt>
<pdfrwt beam="1">  1        1 0.31586621E+00 0.34897306E+04</pdfrwt>
<pdfrwt beam="2">  1       -1 0.67281789E+00 0.34897306E+04</pdfrwt>
<totfact> 0.51637199E-04</totfact>
</mgrwt>
</event>
<event>
11    1  0.8567317E-016  0.4282091E+04  0.7818608E-02  0.7949938E-01
          2   -1    0    0  501    0  0.00000000000E+00  0.00000000000E+00  0.24786403242E+04  0.24786403242E+04  0.00000000000E+00 0. -1.
         -2   -1    0    0    0  501 -0.00000000000E+00 -0.00000000000E+00 -0.18494313099E+04  0.18494313099E+04  0.00000000000E+00 0.  1.
    9900016    2    1    2    0    0 -0.63207444744E+03 -0.29214340373E+03  0.17010942272E+03  0.22757064830E+04  0.21598696501E+04 0.  0.
         24    2    3    3    0    0  0.60446827075E+03  0.66084338253E+02 -0.52993303719E+03  0.81029716995E+03  0.77481930868E+02 0.  0.
        -15    1    4    4    0    0  0.46872904484E+03  0.81207728315E+02 -0.42746695213E+03  0.63955422583E+03  0.00000000000E+00 0.  1.
        -15    1    1    2    0    0  0.51293355650E+03  0.57115429508E+03 -0.24339809660E+03  0.80533266144E+03  0.00000000000E+00 0.  1.
         15    1    1    2    0    0  0.42229898812E+03 -0.39844568869E+03  0.57564032542E+03  0.81759231066E+03  0.00000000000E+00 0. -1.
         15    1    3    3    0    0 -0.12365427182E+04 -0.35822774198E+03  0.70004245991E+03  0.14654093130E+04  0.00000000000E+00 0. -1.
        -16    1    1    2    0    0 -0.27803549453E+03  0.14261476192E+03  0.10485420816E+03  0.32960144342E+03  0.00000000000E+00 0.  1.
         16    1    4    4    0    0  0.13573922591E+03 -0.15123390062E+02 -0.10246608506E+03  0.17074294412E+03  0.00000000000E+00 0. -1.
    9900018    1    1    2    0    0 -0.25122602646E+02 -0.23179964575E+02  0.22003154524E+02  0.99838735590E+02  0.91187600000E+02 0.  0.
<mgrwt>
<rscale>  0 0.42820906E+04</rscale>
<asrwt>0</asrwt>
<pdfrwt beam="1">  1        2 0.38132928E+00 0.42820906E+04</pdfrwt>
<pdfrwt beam="2">  1       -2 0.28452789E+00 0.42820906E+04</pdfrwt>
<totfact> 0.10914993E-01</totfact>
</mgrwt>
</event>
<event>
11    1  0.8567317E-016  0.3828667E+04  0.7818608E-02  0.8040031E-01
         -2   -1    0    0    0  501 -0.00000000000E+00  0.00000000000E+00  0.15660986687E+04  0.15660986687E+04  0.00000000000E+00 0. -1.
          2   -1    0    0  501    0  0.00000000000E+00 -0.00000000000E+00 -0.23400009078E+04  0.23400009078E+04  0.00000000000E+00 0.  1.
    9900016    2    1    2    0    0  0.21909860146E+03 -0.26585459090E+03  0.80579565312E+02  0.22750542979E+04  0.22473753873E+04 0.  0.
        -24    2    3    3    0    0  0.18414680096E+02 -0.11027780988E+04 -0.45267612698E+03  0.11948346089E+04  0.79091283228E+02 0.  0.
        -15    1    1    2    0    0 -0.49190151412E+01 -0.22248000173E+03 -0.93889802207E+03  0.96490986301E+03  0.00000000000E+00 0.  1.
        -15    1    3    3    0    0  0.21694524590E+03  0.80421811644E+03  0.51777501486E+03  0.98077672513E+03  0.00000000000E+00 0.  1.
         15    1    1    2    0    0  0.41117673422E+02  0.24646968389E+02  0.12636504818E+03  0.13515273405E+03  0.00000000000E+00 0. -1.
         15    1    4    4    0    0 -0.19180117972E+02 -0.31931330113E+03 -0.15970767348E+03  0.35754076994E+03  0.00000000000E+00 0. -1.
        -16    1    4    4    0    0  0.37594798068E+02 -0.78346479765E+03 -0.29296845350E+03  0.83729383895E+03  0.00000000000E+00 0.  1.
         16    1    1    2    0    0 -0.25529725974E+03  0.46368762424E+03 -0.41948830494E+02  0.53098268153E+03  0.00000000000E+00 0. -1.
    9900018    1    3    3    0    0 -0.16261324534E+02  0.32705391436E+02  0.15480677428E+02  0.99442963914E+02  0.91187600000E+02 0.  0.
<mgrwt>
<rscale>  0 0.38286668E+04</rscale>
<asrwt>0</asrwt>
<pdfrwt beam="1">  1        2 0.36000014E+00 0.38286668E+04</pdfrwt>
<pdfrwt beam="2">  1       -2 0.24093826E+00 0.38286668E+04</pdfrwt>
<totfact> 0.25155197E-01</totfact>
</mgrwt>
</event>
<event>
11    1  0.8567317E-016  0.3626726E+04  0.7818608E-02  0.8210711E-01
          1   -1    0    0  501    0  0.00000000000E+00  0.00000000000E+00  0.37400954404E+04  0.37400954404E+04  0.00000000000E+00 0. -1.
         -1   -1    0    0    0  501 -0.00000000000E+00 -0.00000000000E+00 -0.29484756291E+04  0.29484756291E+04  0.00000000000E+00 0.  1.
    9900016    2    1    2    0    0 -0.80488007618E+03 -0.79814954278E+03  0.13239320244E+04  0.27685374287E+04  0.21510762095E+04 0.  0.
        -24    2    3    3    0    0 -0.12564606444E+04 -0.28976189716E+03  0.13362645503E+02  0.12920635532E+04  0.81205648630E+02 0.  0.
        -15    1    1    2    0    0  0.39698479443E+02  0.67582351123E+03 -0.18282221088E+04  0.19495408348E+04  0.00000000000E+00 0.  1.
        -15    1    3    3    0    0  0.45158056822E+03 -0.50838764563E+03  0.13105693789E+04  0.14764738754E+04  0.00000000000E+00 0.  1.
         15    1    4    4    0    0 -0.54785076187E+03 -0.10956821852E+03 -0.30980304386E+02  0.55955824634E+03  0.00000000000E+00 0. -1.
         15    1    1    2    0    0 -0.16453969199E+03  0.21941121506E+03  0.40617244104E+03  0.49009248453E+03  0.00000000000E+00 0. -1.
        -16    1    4    4    0    0 -0.70860988253E+03 -0.18019367864E+03  0.44342949889E+02  0.73250530691E+03  0.00000000000E+00 0.  1.
         16    1    1    2    0    0  0.10242909052E+04 -0.10083413166E+02  0.79390139198E+03  0.12959756764E+04  0.00000000000E+00 0. -1.
    9900018    1    1    2    0    0 -0.94569616473E+02 -0.87001770335E+02  0.95836062676E+02  0.18442464506E+03  0.91187600000E+02 0.  0.
<mgrwt>
<rscale>  0 0.31183824E+04</rscale>
<asrwt>0</asrwt>
<pdfrwt beam="1">  1        1 0.57539930E+00 0.36267257E+04</pdfrwt>
<pdfrwt beam="2">  1       -1 0.45361164E+00 0.36267257E+04</pdfrwt>
<totfact> 0.36460945E-04</totfact>
</mgrwt>
</event>
<event>
11    1  0.8567317E-016  0.5449192E+04  0.7818608E-02  0.7762719E-01
          1   -1    0    0  501    0  0.00000000000E+00  0.00000000000E+00  0.25377875514E+04  0.25377875514E+04  0.00000000000E+00 0. -1.
         -1   -1    0    0    0  501 -0.00000000000E+00 -0.00000000000E+00 -0.29251556079E+04  0.29251556079E+04  0.00000000000E+00 0.  1.
    9900016    2    1    2    0    0 -0.16431270677E+04 -0.49462143655E+02  0.23486726361E+03  0.27257940602E+04  0.21615914421E+04 0.  0.
        -24    2    3    3    0    0 -0.79709459997E+03 -0.96088082745E+03 -0.42083389057E+03  0.13199494894E+04  0.80707652747E+02 0.  0.
        -15    1    3    3    0    0 -0.84603246778E+03  0.91141868380E+03  0.65570115418E+03  0.14058445708E+04  0.00000000000E+00 0.  1.
        -15    1    1    2    0    0  0.15885197823E+04 -0.39145256408E+02 -0.10510689278E+04  0.19051701606E+04  0.00000000000E+00 0.  1.
         15    1    4    4    0    0 -0.55949281381E+03 -0.66317220975E+03 -0.25364383349E+03  0.90397167143E+03  0.00000000000E+00 0. -1.
         15    1    1    2    0    0  0.21966921546E+03 -0.16888930767E+03  0.30768396848E+03  0.41406229836E+03  0.00000000000E+00 0. -1.
        -16    1    4    4    0    0 -0.23760178616E+03 -0.29770861770E+03 -0.16719005708E+03  0.41597781795E+03  0.00000000000E+00 0.  1.
         16    1    1    2    0    0 -0.90536666985E+02  0.25618682305E+03  0.12714206209E+03  0.29998946702E+03  0.00000000000E+00 0. -1.
    9900018    1    1    2    0    0 -0.74525263002E+02  0.13098846795E+01 -0.59924228612E+01  0.11792717307E+03  0.91187600000E+02 0.  0.
<mgrwt>
<rscale>  0 0.54491920E+04</rscale>
<asrwt>0</asrwt>
<pdfrwt beam="1">  1        1 0.39042885E+00 0.54491920E+04</pdfrwt>
<pdfrwt beam="2">  1       -1 0.45002394E+00 0.54491920E+04</pdfrwt>
<totfact> 0.28840708E-03</totfact>
</mgrwt>
</event>
<event>
11    1  0.8567317E-016  0.5901719E+04  0.7818608E-02  0.7871174E-01
          2   -1    0    0  501    0  0.00000000000E+00  0.00000000000E+00  0.37547951969E+04  0.37547951969E+04  0.00000000000E+00 0. -1.
         -2   -1    0    0    0  501 -0.00000000000E+00 -0.00000000000E+00 -0.46429578312E+04  0.46429578312E+04  0.00000000000E+00 0.  1.
    9900016    2    1    2    0    0  0.43352447356E+03  0.92853640755E+03 -0.19221379007E+04  0.31296853467E+04  0.22472634315E+04 0.  0.
         24    2    3    3    0    0  0.23206487062E+03  0.13087259167E+04 -0.31437480203E+03  0.13682279118E+04  0.81230987115E+02 0.  0.
        -15    1    1    2    0    0  0.28950719485E+03 -0.30077395193E+02 -0.19223393218E+03  0.34881649940E+03  0.00000000000E+00 0.  1.
        -15    1    4    4    0    0  0.18143107715E+03  0.91509975807E+03 -0.18746430633E+03  0.95156064921E+03  0.00000000000E+00 0.  1.
         15    1    1    2    0    0 -0.13043835963E+04  0.16325134162E+04  0.10962490766E+03  0.20924947409E+04  0.00000000000E+00 0. -1.
         15    1    3    3    0    0  0.14738650281E+03 -0.47338887689E+03 -0.15111423481E+04  0.15903996372E+04  0.00000000000E+00 0. -1.
        -16    1    1    2    0    0  0.58135192790E+03 -0.25309724286E+04  0.11165842909E+04  0.28267564411E+04  0.00000000000E+00 0.  1.
         16    1    4    4    0    0  0.50633793472E+02  0.39362615861E+03 -0.12691049570E+03  0.41666726257E+03  0.00000000000E+00 0. -1.
    9900018    1    3    3    0    0  0.54073100130E+02  0.93199367763E+02 -0.96620750577E+02  0.17105779767E+03  0.91187600000E+02 0.  0.
<mgrwt>
<rscale>  0 0.47323566E+04</rscale>
<asrwt>0</asrwt>
<pdfrwt beam="1">  1        2 0.57766080E+00 0.59017186E+04</pdfrwt>
<pdfrwt beam="2">  1       -2 0.71430120E+00 0.59017186E+04</pdfrwt>
<totfact> 0.68162575E-05</totfact>
</mgrwt>
</event>
<event>
11    1  0.8567317E-016  0.3262548E+04  0.7818608E-02  0.8382899E-01
         -1   -1    0    0    0  501 -0.00000000000E+00  0.00000000000E+00  0.18908825229E+04  0.18908825229E+04  0.00000000000E+00 0.  1.
          1   -1    0    0  501    0  0.00000000000E+00 -0.00000000000E+00 -0.37983025435E+04  0.37983025435E+04  0.00000000000E+00 0. -1.
    9900016    2    1    2    0    0 -0.89935598642E+03  0.88081396232E+02 -0.16703611364E+04  0.28664171402E+04  0.21470075392E+04 0.  0.
        -24    2    3    3    0    0 -0.11439019432E+04 -0.86737578774E+02  0.19423451810E+02  0.11501023808E+04  0.79518253140E+02 0.  0.
        -15    1    1    2    0    0  0.45548220857E+03  0.48140235714E+01  0.96156890561E+03  0.10640028089E+04  0.00000000000E+00 0.  1.
        -15    1    3    3    0    0  0.24454595679E+03  0.17481897501E+03 -0.16897845882E+04  0.17163147594E+04  0.00000000000E+00 0.  1.
         15    1    1    2    0    0 -0.35322749353E+03  0.17967956825E+02 -0.17751686818E+03  0.39573317797E+03  0.00000000000E+00 0. -1.
         15    1    4    4    0    0 -0.35203016850E+03 -0.61427577287E+02  0.18455315691E+02  0.35782563556E+03  0.00000000000E+00 0. -1.
        -16    1    4    4    0    0 -0.79187177471E+03 -0.25310001487E+02  0.96813611907E+00  0.79227674523E+03  0.00000000000E+00 0.  1.
         16    1    1    2    0    0  0.79821738828E+03 -0.13145636600E+03 -0.90231063916E+03  0.12118565363E+04  0.00000000000E+00 0. -1.
    9900018    1    1    2    0    0 -0.11161168963E+01  0.20592989373E+02 -0.11880028249E+03  0.15117540290E+03  0.91187600000E+02 0.  0.
<mgrwt>
<rscale>  0 0.25571625E+04</rscale>
<asrwt>0</asrwt>
<pdfrwt beam="1">  1        1 0.58435423E+00 0.32625477E+04</pdfrwt>
<pdfrwt beam="2">  1       -1 0.29090501E+00 0.32625477E+04</pdfrwt>
<totfact> 0.42540576E-03</totfact>
</mgrwt>
</event>
<event>
11    1  0.8567317E-016  0.3764325E+04  0.7818608E-02  0.8053854E-01
          1   -1    0    0  501    0  0.00000000000E+00  0.00000000000E+00  0.12874574753E+04  0.12874574753E+04  0.00000000000E+00 0. -1.
         -1   -1    0    0    0  501 -0.00000000000E+00 -0.00000000000E+00 -0.27515752676E+04  0.27515752676E+04  0.00000000000E+00 0.  1.
    9900016    2    1    2    0    0  0.68983853616E+02 -0.34638855458E+03 -0.12606436408E+04  0.26078684209E+04  0.22554404246E+04 0.  0.
        -24    2    3    3    0    0 -0.54715198279E+03 -0.87576917412E+02  0.45331354746E+03  0.72025000409E+03  0.78878941032E+02 0.  0.
        -15    1    3    3    0    0  0.56362977234E+03 -0.28988787751E+03 -0.16317506020E+04  0.17505209307E+04  0.00000000000E+00 0.  1.
        -15    1    1    2    0    0 -0.12788412416E+03 -0.35321942217E+03 -0.18028669133E+02  0.37608954029E+03  0.00000000000E+00 0.  1.
         15    1    1    2    0    0  0.24871468805E+03  0.15826082063E+03  0.20683015284E+03  0.36011691924E+03  0.00000000000E+00 0. -1.
         15    1    4    4    0    0 -0.14107292829E+03 -0.57780609554E+02  0.11794812944E+03  0.19274836232E+03  0.00000000000E+00 0. -1.
        -16    1    4    4    0    0 -0.40607905450E+03 -0.29796307858E+02  0.33536541803E+03  0.52750164177E+03  0.00000000000E+00 0.  1.
         16    1    1    2    0    0 -0.18981441750E+03  0.54134715612E+03 -0.39227563529E+03  0.69495786244E+03  0.00000000000E+00 0. -1.
    9900018    1    3    3    0    0  0.52506064069E+02  0.31076240341E+02 -0.82206586238E+02  0.13709748609E+03  0.91187600000E+02 0.  0.
<mgrwt>
<rscale>  0 0.37643253E+04</rscale>
<asrwt>0</asrwt>
<pdfrwt beam="1">  1        1 0.19807038E+00 0.37643253E+04</pdfrwt>
<pdfrwt beam="2">  1       -1 0.42331927E+00 0.37643253E+04</pdfrwt>
<totfact> 0.36422660E-02</totfact>
</mgrwt>
</event>
<event>
11    1  0.9128483E-016  0.3914380E+04  0.7818608E-02  0.8044860E-01
          2   -1    0    0  501    0  0.00000000000E+00  0.00000000000E+00  0.31143670111E+04  0.31143670111E+04  0.00000000000E+00 0. -1.
         -2   -1    0    0    0  501 -0.00000000000E+00 -0.00000000000E+00 -0.44112793452E+04  0.44112793452E+04  0.00000000000E+00 0.  1.
    9900016    2    1    2    0    0  0.13538290854E+03 -0.53794597955E+03 -0.10975637074E+04  0.25630835182E+04  0.22487855880E+04 0.  0.
        -24    2    3    3    0    0 -0.11222439018E+03 -0.12147600711E+04 -0.11535618278E+04  0.16808830815E+04  0.80166695743E+02 0.  0.
        -15    1    1    2    0    0 -0.12892678505E+04  0.22334490291E+04 -0.88743928489E+03  0.27272797143E+04  0.00000000000E+00 0.  1.
        -15    1    3    3    0    0  0.21901980536E+03  0.73433322839E+03  0.71333314580E+02  0.76961250459E+03  0.00000000000E+00 0.  1.
         15    1    4    4    0    0  0.70882334306E+01 -0.18740300447E+03 -0.19900697746E+03  0.27344817830E+03  0.00000000000E+00 0. -1.
         15    1    1    2    0    0  0.18788417085E+03 -0.75525080460E+03  0.27334760950E+03  0.82487766071E+03  0.00000000000E+00 0. -1.
        -16    1    4    4    0    0 -0.11931262361E+03 -0.10273570666E+04 -0.95455485033E+03  0.14074349032E+04  0.00000000000E+00 0.  1.
         16    1    1    2    0    0  0.96600077108E+03 -0.94025224496E+03  0.41474304867E+03  0.14104054631E+04  0.00000000000E+00 0. -1.
    9900018    1    3    3    0    0  0.28587493355E+02 -0.57519136824E+02 -0.15335194183E+02  0.11258793209E+03  0.91187600000E+02 0.  0.
<mgrwt>
<rscale>  0 0.38060376E+04</rscale>
<asrwt>0</asrwt>
<pdfrwt beam="1">  1        2 0.47913339E+00 0.39143800E+04</pdfrwt>
<pdfrwt beam="2">  1       -2 0.67865836E+00 0.39143800E+04</pdfrwt>
<totfact> 0.28772783E-04</totfact>
</mgrwt>
</event>
<event>
11    1  0.8567317E-016  0.3170647E+04  0.7818608E-02  0.8256222E-01
          2   -1    0    0  501    0  0.00000000000E+00  0.00000000000E+00  0.20739643030E+04  0.20739643030E+04  0.00000000000E+00 0.  1.
         -2   -1    0    0    0  501 -0.00000000000E+00 -0.00000000000E+00 -0.52242352638E+04  0.52242352638E+04  0.00000000000E+00 0. -1.
    9900016    2    1    2    0    0  0.29724174019E+03  0.86297158349E+03 -0.23732425884E+04  0.33262408521E+04  0.21444172208E+04 0.  0.
        -24    2    3    3    0    0  0.84368208420E+03  0.76182345997E+03 -0.25076962421E+04  0.27544841054E+04  0.80422638500E+02 0.  0.
        -15    1    3    3    0    0 -0.54644034401E+03  0.10114812352E+03  0.13445365366E+03  0.57175674674E+03  0.00000000000E+00 0.  1.
        -15    1    1    2    0    0 -0.37078105960E+03 -0.81533418305E+03  0.12167117155E+04  0.15108394431E+04  0.00000000000E+00 0.  1.
         15    1    4    4    0    0  0.27838484836E+03  0.30291560161E+03 -0.89258111437E+03  0.98283113058E+03  0.00000000000E+00 0. -1.
         15    1    1    2    0    0 -0.35905346441E+03  0.51397158369E+03 -0.70202446776E+03  0.94123564131E+03  0.00000000000E+00 0. -1.
        -16    1    4    4    0    0  0.56529723584E+03  0.45890785835E+03 -0.16151151277E+04  0.17716529748E+04  0.00000000000E+00 0.  1.
         16    1    1    2    0    0  0.44186027324E+03 -0.53756045262E+03 -0.12047265772E+04  0.13912504689E+04  0.00000000000E+00 0. -1.
    9900018    1    1    2    0    0 -0.92674894215E+01 -0.24048531509E+02 -0.86989042843E+02  0.12863316134E+03  0.91187600000E+02 0.  0.
<mgrwt>
<rscale>  0 0.29566394E+04</rscale>
<asrwt>0</asrwt>
<pdfrwt beam="1">  1        2 0.31907143E+00 0.31706472E+04</pdfrwt>
<pdfrwt beam="2">  1       -2 0.80372849E+00 0.31706472E+04</pdfrwt>
<totfact> 0.35312031E-04</totfact>
</mgrwt>
</event>
<event>
11    1  0.8567318E-016  0.2677154E+04  0.7818608E-02  0.8675853E-01
          1   -1    0    0  501    0  0.00000000000E+00  0.00000000000E+00  0.27762442375E+04  0.27762442375E+04  0.00000000000E+00 0. -1.
         -1   -1    0    0    0  501 -0.00000000000E+00 -0.00000000000E+00 -0.10150139483E+04  0.10150139483E+04  0.00000000000E+00 0.  1.
    9900016    2    1    2    0    0  0.17993980636E+03 -0.45587002159E+03  0.10075864767E+04  0.24224767487E+04  0.21477819441E+04 0.  0.
        -24    2    3    3    0    0  0.71507113530E+03 -0.10334400913E+04  0.10417581284E+04  0.16343648109E+04  0.81013493481E+02 0.  0.
        -15    1    1    2    0    0  0.26658720578E+03  0.44483928210E+02  0.58875526165E+02  0.27661143457E+03  0.00000000000E+00 0.  1.
        -15    1    3    3    0    0 -0.53513132894E+03  0.57757006975E+03 -0.34171651692E+02  0.78811193777E+03  0.00000000000E+00 0.  1.
         15    1    1    2    0    0 -0.15078709283E+03  0.14624234215E+03  0.57071368266E+03  0.60814281018E+03  0.00000000000E+00 0. -1.
         15    1    4    4    0    0  0.15006079605E+03 -0.18057947750E+03  0.16423611600E+03  0.28653218320E+03  0.00000000000E+00 0. -1.
        -16    1    4    4    0    0  0.56501033925E+03 -0.85286061383E+03  0.87752201237E+03  0.13478326277E+04  0.00000000000E+00 0.  1.
         16    1    1    2    0    0 -0.25504226936E+03  0.25820674493E+03  0.67808538544E+02  0.36920899256E+03  0.00000000000E+00 0. -1.
    9900018    1    1    2    0    0 -0.40697649958E+02  0.69370062961E+01  0.56246065178E+02  0.11481819982E+03  0.91187600000E+02 0.  0.
<mgrwt>
<rscale>  0 0.18583851E+04</rscale>
<asrwt>0</asrwt>
<pdfrwt beam="1">  1        1 0.42711450E+00 0.26771540E+04</pdfrwt>
<pdfrwt beam="2">  1       -1 0.15615599E+00 0.26771540E+04</pdfrwt>
<totfact> 0.23239206E-01</totfact>
</mgrwt>
</event>
