<event>
12    1  0.6396508E-008  0.4855208E+04  0.7818608E-02  0.7851239E-01
         -2   -1    0    0    0  501 -0.00000000000E+00  0.00000000000E+00  0.18230977336E+04  0.18230977336E+04  0.00000000000E+00 0.  1.
          2   -1    0    0  501    0  0.00000000000E+00 -0.00000000000E+00 -0.32325540424E+04  0.32325540424E+04  0.00000000000E+00 0. -1.
    9900016    2    1    2    0    0  0.14161477801E+04 -0.31440022304E+03 -0.65080148585E+02  0.23543071060E+04  0.18531606752E+04 0.  0.
         23    2    3    3    0    0 -0.39998634106E+03  0.97423894209E+02 -0.23809775558E+03  0.48404580286E+03  0.90162685524E+02 0.  0.
    9900016    2    1    2    0    0 -0.14161477801E+04  0.31440022304E+03 -0.13443761602E+04  0.27013446700E+04  0.18399982964E+04 0.  0.
        -15    1    5    5    0    0 -0.12178066314E+03  0.23238994629E+02  0.68515799166E+02  0.14165096372E+03  0.00000000000E+00 0.  1.
        -15    1    4    4    0    0 -0.76431324825E+02 -0.45446265734E+01 -0.76668246232E+02  0.10835322342E+03  0.00000000000E+00 0.  1.
         15    1    5    5    0    0 -0.63946630053E+03 -0.82937130836E+02 -0.13668932113E+04  0.15113546137E+04  0.00000000000E+00 0. -1.
         15    1    4    4    0    0 -0.32355501623E+03  0.10196852078E+03 -0.16142950935E+03  0.37569257944E+03  0.00000000000E+00 0. -1.
        -16    1    3    3    0    0  0.18161341212E+04 -0.41182411725E+03  0.17301760699E+03  0.18702613031E+04  0.00000000000E+00 0.  1.
         16    1    5    5    0    0 -0.41677171000E+03  0.76050561315E+02  0.30496662074E+03  0.52200286004E+03  0.00000000000E+00 0. -1.
    9900018    1    5    5    0    0 -0.23812910645E+03  0.29804779793E+03 -0.35096536883E+03  0.52633623256E+03  0.91187600000E+02 0.  0.
<mgrwt>
<rscale>  0 0.48552083E+04</rscale>
<asrwt>0</asrwt>
<pdfrwt beam="1">  1        2 0.49731600E+00 0.48552083E+04</pdfrwt>
<pdfrwt beam="2">  1       -2 0.28047658E+00 0.48552083E+04</pdfrwt>
<totfact> 0.37992763E-02</totfact>
</mgrwt>
</event>
<event>
13    1  0.6396508E-008  0.4385139E+04  0.7818608E-02  0.7931060E-01
         -1   -1    0    0    0  501 -0.00000000000E+00  0.00000000000E+00  0.20016449254E+04  0.20016449254E+04  0.00000000000E+00 0.  1.
          1   -1    0    0  501    0  0.00000000000E+00 -0.00000000000E+00 -0.24017046691E+04  0.24017046691E+04  0.00000000000E+00 0. -1.
    9900016    2    1    2    0    0  0.11602629761E+04 -0.63342867461E+02  0.15827883705E+02  0.21834600668E+04  0.18485196372E+04 0.  0.
         23    2    3    3    0    0  0.19846497884E+03  0.23975432777E+03 -0.81465057595E+03  0.87708425213E+03  0.93545384258E+02 0.  0.
    9900016    2    1    2    0    0 -0.11602629761E+04  0.63342867461E+02 -0.41588762747E+03  0.22198895277E+04  0.18451895577E+04 0.  0.
         24    2    5    5    0    0 -0.14544244394E+04  0.31326772249E+03 -0.55202499391E+03  0.15881026571E+04  0.62059162889E+02 0.  0.
        -15    1    6    6    0    0 -0.56806292629E+03  0.15222592134E+03 -0.22680852446E+03  0.63032557152E+03  0.00000000000E+00 0.  1.
        -15    1    4    4    0    0  0.81194359467E+02  0.15474497438E+03 -0.36491693940E+03  0.40460215492E+03  0.00000000000E+00 0. -1.
         15    1    5    5    0    0  0.16660092275E+03 -0.21977976477E+03 -0.14266120195E+03  0.31050157972E+03  0.00000000000E+00 0. -1.
         15    1    4    4    0    0  0.11727061938E+03  0.85009353387E+02 -0.44973363655E+03  0.47248209720E+03  0.00000000000E+00 0.  1.
        -16    1    3    3    0    0  0.96179799727E+03 -0.30309719523E+03  0.83047845966E+03  0.13063758147E+04  0.00000000000E+00 0.  1.
         16    1    6    6    0    0 -0.88636151314E+03  0.16104180115E+03 -0.32521646945E+03  0.95777708560E+03  0.00000000000E+00 0. -1.
    9900018    1    5    5    0    0  0.12756054056E+03 -0.30145090259E+02  0.27879856839E+03  0.32128529084E+03  0.91187600000E+02 0.  0.
<mgrwt>
<rscale>  0 0.43851385E+04</rscale>
<asrwt>0</asrwt>
<pdfrwt beam="1">  1        1 0.36949303E+00 0.43851385E+04</pdfrwt>
<pdfrwt beam="2">  1       -1 0.30794537E+00 0.43851385E+04</pdfrwt>
<totfact> 0.35242672E-02</totfact>
</mgrwt>
</event>
<event>
13    1  0.6396508E-008  0.5312186E+04  0.7818608E-02  0.7782075E-01
          2   -1    0    0  501    0  0.00000000000E+00  0.00000000000E+00  0.27136440343E+04  0.27136440343E+04  0.00000000000E+00 0. -1.
         -2   -1    0    0    0  501 -0.00000000000E+00 -0.00000000000E+00 -0.25997628066E+04  0.25997628066E+04  0.00000000000E+00 0.  1.
    9900016    2    1    2    0    0 -0.82652323742E+03 -0.29275711000E+03  0.17501909602E+04  0.26790800016E+04  0.18290581921E+04 0.  0.
         23    2    3    3    0    0 -0.61175020176E+01  0.22986753397E+03 -0.31248512602E+03  0.39854613294E+03  0.91189687431E+02 0.  0.
    9900016    2    1    2    0    0  0.82652323742E+03  0.29275711000E+03 -0.16363097325E+04  0.26343268393E+04  0.18690427946E+04 0.  0.
        -24    2    5    5    0    0  0.74986683853E+03  0.51446557306E+03 -0.37911852374E+03  0.99067629881E+03  0.10360295647E+03 0.  0.
        -15    1    5    5    0    0  0.33821689339E+02 -0.63169937370E+03 -0.68302914010E+03  0.93097626803E+03  0.00000000000E+00 0.  1.
        -15    1    4    4    0    0  0.15996971840E+02  0.33795002991E+02 -0.10842353719E+03  0.11468944481E+03  0.00000000000E+00 0. -1.
         15    1    4    4    0    0 -0.22114473858E+02  0.19607253098E+03 -0.20406158883E+03  0.28385668813E+03  0.00000000000E+00 0.  1.
         15    1    6    6    0    0  0.13507077115E+03  0.11244860910E+03 -0.33732532249E+02  0.17896001408E+03  0.00000000000E+00 0. -1.
        -16    1    6    6    0    0  0.61479606738E+03  0.40201696397E+03 -0.34538599149E+03  0.81171628474E+03  0.00000000000E+00 0.  1.
         16    1    3    3    0    0 -0.82040573540E+03 -0.52262464397E+03  0.20626760862E+04  0.22805338686E+04  0.00000000000E+00 0. -1.
    9900018    1    5    5    0    0  0.42834709550E+02  0.40999091063E+03 -0.57416206870E+03  0.71267427249E+03  0.91187600000E+02 0.  0.
<mgrwt>
<rscale>  0 0.53121863E+04</rscale>
<asrwt>0</asrwt>
<pdfrwt beam="1">  1        2 0.41748370E+00 0.53121863E+04</pdfrwt>
<pdfrwt beam="2">  1       -2 0.39996351E+00 0.53121863E+04</pdfrwt>
<totfact> 0.13758562E-02</totfact>
</mgrwt>
</event>
<event>
13    1  0.6396508E-008  0.4159744E+04  0.7818608E-02  0.7973074E-01
         -1   -1    0    0    0  501 -0.00000000000E+00  0.00000000000E+00  0.25611539273E+04  0.25611539273E+04  0.00000000000E+00 0.  1.
          1   -1    0    0  501    0  0.00000000000E+00 -0.00000000000E+00 -0.16890304772E+04  0.16890304772E+04  0.00000000000E+00 0. -1.
    9900016    2    1    2    0    0 -0.20166293572E+03 -0.73788038794E+02  0.14285614260E+04  0.23133084494E+04  0.18067915264E+04 0.  0.
         23    2    3    3    0    0 -0.35344711335E+03  0.26587759234E+03 -0.30119938133E+03  0.54399117200E+03  0.97926359347E+02 0.  0.
    9900016    2    1    2    0    0  0.20166293572E+03  0.73788038794E+02 -0.55643797592E+03  0.19368759551E+04  0.18427568017E+04 0.  0.
         24    2    5    5    0    0 -0.42357155054E+03 -0.22031613845E+03  0.46609120886E+03  0.67066103447E+03  0.67772773974E+02 0.  0.
        -15    1    6    6    0    0 -0.25083962376E+03 -0.14565529136E+03  0.32395390196E+03  0.43483572915E+03  0.00000000000E+00 0.  1.
        -15    1    4    4    0    0 -0.28632282002E+03  0.19558236074E+03 -0.18674921659E+03  0.39383814822E+03  0.00000000000E+00 0. -1.
         15    1    4    4    0    0 -0.67124293333E+02  0.70295231602E+02 -0.11445016474E+03  0.15015302378E+03  0.00000000000E+00 0.  1.
         15    1    5    5    0    0  0.53194480643E+03  0.22162581347E+03 -0.91846520903E+03  0.10842793083E+04  0.00000000000E+00 0. -1.
        -16    1    3    3    0    0  0.15178417763E+03 -0.33966563113E+03  0.17297608073E+04  0.17693172774E+04  0.00000000000E+00 0.  1.
         16    1    6    6    0    0 -0.17273192678E+03 -0.74660847095E+02  0.14213730690E+03  0.23582530532E+03  0.00000000000E+00 0. -1.
    9900018    1    5    5    0    0  0.93289679832E+02  0.72478363782E+02 -0.10406397576E+03  0.18193561230E+03  0.91187600000E+02 0.  0.
<mgrwt>
<rscale>  0 0.41597438E+04</rscale>
<asrwt>0</asrwt>
<pdfrwt beam="1">  1        1 0.25985084E+00 0.41597438E+04</pdfrwt>
<pdfrwt beam="2">  1       -1 0.39402368E+00 0.41597438E+04</pdfrwt>
<totfact> 0.29421280E-02</totfact>
</mgrwt>
</event>
<event>
13    1  0.6396508E-008  0.4196258E+04  0.7818608E-02  0.7966084E-01
          2   -1    0    0  501    0  0.00000000000E+00  0.00000000000E+00  0.15056313928E+04  0.15056313928E+04  0.00000000000E+00 0. -1.
         -2   -1    0    0    0  501 -0.00000000000E+00 -0.00000000000E+00 -0.29237874740E+04  0.29237874740E+04  0.00000000000E+00 0.  1.
    9900016    2    1    2    0    0 -0.60100119497E+03 -0.35035594319E+02  0.14135905906E+03  0.19427060795E+04  0.18416553963E+04 0.  0.
         23    2    3    3    0    0  0.18852449409E+03  0.34820822485E+02  0.85201039318E+03  0.87816108220E+03  0.92147716507E+02 0.  0.
    9900016    2    1    2    0    0  0.60100119497E+03  0.35035594319E+02 -0.15595151403E+04  0.24867127872E+04  0.18409842705E+04 0.  0.
         24    2    5    5    0    0 -0.49112206112E+03  0.10857572744E+03 -0.90034243532E+03  0.10334157918E+04  0.65894843464E+02 0.  0.
        -15    1    6    6    0    0 -0.99933691963E+02 -0.45387964832E+01 -0.17326829000E+03  0.20007309610E+03  0.00000000000E+00 0.  1.
        -15    1    4    4    0    0  0.18926728425E+03  0.11771051897E+02  0.75640385344E+03  0.77981244671E+03  0.00000000000E+00 0.  1.
         15    1    5    5    0    0  0.53805331933E+03 -0.28382397974E+02 -0.70589254138E+03  0.88802658459E+03  0.00000000000E+00 0. -1.
         15    1    4    4    0    0 -0.74279016243E+00  0.23049770588E+02  0.95606539746E+02  0.98348635494E+02  0.00000000000E+00 0. -1.
        -16    1    3    3    0    0 -0.78952568906E+03 -0.69856416804E+02 -0.71065133412E+03  0.10645449973E+04  0.00000000000E+00 0.  1.
         16    1    6    6    0    0 -0.39118836916E+03  0.11311452392E+03 -0.72707414532E+03  0.83334269570E+03  0.00000000000E+00 0. -1.
    9900018    1    5    5    0    0  0.55406993676E+03 -0.45157735144E+02  0.46719836421E+02  0.56527041085E+03  0.91187600000E+02 0.  0.
<mgrwt>
<rscale>  0 0.41962584E+04</rscale>
<asrwt>0</asrwt>
<pdfrwt beam="1">  1        2 0.23163560E+00 0.41962584E+04</pdfrwt>
<pdfrwt beam="2">  1       -2 0.44981345E+00 0.41962584E+04</pdfrwt>
<totfact> 0.34074919E-02</totfact>
</mgrwt>
</event>
<event>
12    1  0.6396508E-008  0.4650184E+04  0.7818608E-02  0.7884859E-01
          1   -1    0    0  501    0  0.00000000000E+00  0.00000000000E+00  0.23309920069E+04  0.23309920069E+04  0.00000000000E+00 0. -1.
         -1   -1    0    0    0  501 -0.00000000000E+00 -0.00000000000E+00 -0.23192072482E+04  0.23192072482E+04  0.00000000000E+00 0.  1.
    9900016    2    1    2    0    0  0.11323129285E+03  0.32375809735E+02  0.14303852478E+04  0.23407330635E+04  0.18490970226E+04 0.  0.
         23    2    3    3    0    0 -0.34190388805E+01  0.82317141382E+03  0.12842226031E+04  0.15281270667E+04  0.91223743971E+02 0.  0.
    9900016    2    1    2    0    0 -0.11323129285E+03 -0.32375809735E+02 -0.14186004891E+04  0.23094661916E+04  0.18186085955E+04 0.  0.
        -15    1    4    4    0    0  0.14054994677E+02  0.76046932823E+03  0.12120710111E+04  0.14309532760E+04  0.00000000000E+00 0.  1.
        -15    1    5    5    0    0 -0.13500446098E+03 -0.17275342642E+03 -0.43998990144E+03  0.49159034184E+03  0.00000000000E+00 0.  1.
         15    1    4    4    0    0 -0.17474033558E+02  0.62702085595E+02  0.72151591966E+02  0.97173790756E+02  0.00000000000E+00 0. -1.
         15    1    5    5    0    0  0.96164978267E+02 -0.91655664249E+01  0.96547664715E+02  0.13657658004E+03  0.00000000000E+00 0. -1.
        -16    1    3    3    0    0  0.11665033173E+03 -0.79079560409E+03  0.14616264471E+03  0.81260599680E+03  0.00000000000E+00 0.  1.
         16    1    5    5    0    0 -0.34436065987E+03 -0.34712235810E+03 -0.98763647295E+03  0.11020453703E+04  0.00000000000E+00 0. -1.
    9900018    1    5    5    0    0  0.26996884973E+03  0.49666554120E+03 -0.87521779433E+02  0.57925389935E+03  0.91187600000E+02 0.  0.
<mgrwt>
<rscale>  0 0.46501843E+04</rscale>
<asrwt>0</asrwt>
<pdfrwt beam="1">  1        1 0.35861416E+00 0.46501843E+04</pdfrwt>
<pdfrwt beam="2">  1       -1 0.35680111E+00 0.46501843E+04</pdfrwt>
<totfact> 0.18421105E-02</totfact>
</mgrwt>
</event>
<event>
12    1  0.6396508E-008  0.5253336E+04  0.7818608E-02  0.7790573E-01
         -2   -1    0    0    0  501 -0.00000000000E+00  0.00000000000E+00  0.21241333657E+04  0.21241333657E+04  0.00000000000E+00 0.  1.
          2   -1    0    0  501    0  0.00000000000E+00 -0.00000000000E+00 -0.32480937524E+04  0.32480937524E+04  0.00000000000E+00 0. -1.
    9900016    2    1    2    0    0  0.38837360991E+03 -0.17497805865E+04 -0.11120056501E+04  0.28020307433E+04  0.18445198721E+04 0.  0.
         23    2    3    3    0    0 -0.28019522987E+03 -0.13470016066E+03  0.38321652692E+03  0.50177892358E+03  0.90959779671E+02 0.  0.
    9900016    2    1    2    0    0 -0.38837360991E+03  0.17497805865E+04 -0.11954736681E+02  0.25701963748E+04  0.18420641486E+04 0.  0.
        -15    1    4    4    0    0 -0.71430282171E+02  0.12608009958E+01  0.57501754357E+02  0.91707832731E+02  0.00000000000E+00 0.  1.
        -15    1    5    5    0    0 -0.65702784429E+03  0.11981454448E+04  0.51506253802E+03  0.14603176069E+04  0.00000000000E+00 0.  1.
         15    1    5    5    0    0  0.13634186383E+03  0.47875618673E+02 -0.33406946171E+03  0.36398294458E+03  0.00000000000E+00 0. -1.
         15    1    4    4    0    0 -0.20876494770E+03 -0.13596096165E+03  0.32571477256E+03  0.41007109084E+03  0.00000000000E+00 0. -1.
        -16    1    5    5    0    0  0.66950421522E+02  0.21369268526E+02 -0.23840605326E+03  0.24854868901E+03  0.00000000000E+00 0.  1.
         16    1    3    3    0    0  0.66856883979E+03 -0.16150804258E+04 -0.14952221770E+04  0.23002518197E+04  0.00000000000E+00 0. -1.
    9900018    1    5    5    0    0  0.65361949023E+02  0.48239025445E+03  0.45458240271E+02  0.49734713428E+03  0.91187600000E+02 0.  0.
<mgrwt>
<rscale>  0 0.52533358E+04</rscale>
<asrwt>0</asrwt>
<pdfrwt beam="1">  1        2 0.49970673E+00 0.52533358E+04</pdfrwt>
<pdfrwt beam="2">  1       -2 0.32678975E+00 0.52533358E+04</pdfrwt>
<totfact> 0.18680831E-02</totfact>
</mgrwt>
</event>
<event>
13    1  0.6396508E-008  0.5700194E+04  0.7818608E-02  0.7728727E-01
          2   -1    0    0  501    0  0.00000000000E+00  0.00000000000E+00  0.24814617563E+04  0.24814617563E+04  0.00000000000E+00 0. -1.
         -2   -1    0    0    0  501 -0.00000000000E+00 -0.00000000000E+00 -0.32734954220E+04  0.32734954220E+04  0.00000000000E+00 0.  1.
    9900016    2    1    2    0    0 -0.81362058808E+03 -0.15945509389E+04 -0.16476282524E+04  0.30515731229E+04  0.18419686502E+04 0.  0.
         23    2    3    3    0    0  0.50873320105E+03 -0.12550342161E+03 -0.64100279442E+03  0.83346244840E+03  0.95992144208E+02 0.  0.
    9900016    2    1    2    0    0  0.81362058808E+03  0.15945509389E+04  0.85559458675E+03  0.27033840554E+04  0.18362113430E+04 0.  0.
         24    2    5    5    0    0  0.13447717960E+03 -0.12238625492E+03 -0.21353280216E+03  0.29734593938E+03  0.98771670244E+02 0.  0.
        -15    1    6    6    0    0  0.34348614134E+02 -0.93295279443E+02 -0.13049953297E+03  0.16405476087E+03  0.00000000000E+00 0.  1.
        -15    1    4    4    0    0  0.38874979568E+03 -0.13681242617E+03 -0.50152966099E+03  0.64913484304E+03  0.00000000000E+00 0.  1.
         15    1    5    5    0    0 -0.22055605417E+03  0.61054638997E+03  0.50359637563E+02  0.65111286305E+03  0.00000000000E+00 0. -1.
         15    1    4    4    0    0  0.11998340537E+03  0.11309004561E+02 -0.13947313343E+03  0.18432760536E+03  0.00000000000E+00 0. -1.
        -16    1    3    3    0    0 -0.13223537891E+04 -0.14690475173E+04 -0.10066254580E+04  0.22181106745E+04  0.00000000000E+00 0.  1.
         16    1    6    6    0    0  0.10012856546E+03 -0.29090975478E+02 -0.83033269182E+02  0.13329117850E+03  0.00000000000E+00 0. -1.
    9900018    1    5    5    0    0  0.89969946265E+03  0.11063908039E+04  0.10187677513E+04  0.17549252530E+04  0.91187600000E+02 0.  0.
<mgrwt>
<rscale>  0 0.57001943E+04</rscale>
<asrwt>0</asrwt>
<pdfrwt beam="1">  1        2 0.38176335E+00 0.57001943E+04</pdfrwt>
<pdfrwt beam="2">  1       -2 0.50361468E+00 0.57001943E+04</pdfrwt>
<totfact> 0.38933254E-03</totfact>
</mgrwt>
</event>
<event>
13    1  0.6396508E-008  0.4252452E+04  0.7818608E-02  0.7955469E-01
         -2   -1    0    0    0  501 -0.00000000000E+00  0.00000000000E+00  0.15962447949E+04  0.15962447949E+04  0.00000000000E+00 0.  1.
          2   -1    0    0  501    0  0.00000000000E+00 -0.00000000000E+00 -0.28321708056E+04  0.28321708056E+04  0.00000000000E+00 0. -1.
    9900016    2    1    2    0    0  0.13554135460E+03  0.10227881884E+04 -0.39964407638E+03  0.21512402772E+04  0.18448989688E+04 0.  0.
         23    2    3    3    0    0 -0.36861251983E+02 -0.25280301176E+03 -0.76641476415E+03  0.81281721022E+03  0.89510400962E+02 0.  0.
    9900016    2    1    2    0    0 -0.13554135460E+03 -0.10227881884E+04 -0.83628193434E+03  0.22771753233E+04  0.18497818364E+04 0.  0.
         24    2    5    5    0    0 -0.82939408645E+03  0.13432152571E+02 -0.18696425104E+03  0.85247757103E+03  0.60724003270E+02 0.  0.
        -15    1    4    4    0    0 -0.52405202013E+02 -0.90749628079E+02 -0.36206154771E+03  0.37692222609E+03  0.00000000000E+00 0.  1.
        -15    1    6    6    0    0 -0.33333465050E+03 -0.13787400600E+02 -0.51835292800E+02  0.33762253956E+03  0.00000000000E+00 0.  1.
         15    1    5    5    0    0  0.18047169443E+03 -0.27099818000E+03 -0.71899250392E+02  0.33343597326E+03  0.00000000000E+00 0. -1.
         15    1    4    4    0    0  0.15543950030E+02 -0.16205338369E+03 -0.40435321644E+03  0.43589498413E+03  0.00000000000E+00 0. -1.
        -16    1    3    3    0    0  0.17240260659E+03  0.12755912002E+04  0.36677068777E+03  0.13384230670E+04  0.00000000000E+00 0.  1.
         16    1    6    6    0    0 -0.49605943595E+03  0.27219553171E+02 -0.13512895824E+03  0.51485503146E+03  0.00000000000E+00 0. -1.
    9900018    1    5    5    0    0  0.51338103742E+03 -0.76522216101E+03 -0.57741843291E+03  0.10912617790E+04  0.91187600000E+02 0.  0.
<mgrwt>
<rscale>  0 0.42524524E+04</rscale>
<asrwt>0</asrwt>
<pdfrwt beam="1">  1        2 0.43571858E+00 0.42524524E+04</pdfrwt>
<pdfrwt beam="2">  1       -2 0.24557613E+00 0.42524524E+04</pdfrwt>
<totfact> 0.11689415E-01</totfact>
</mgrwt>
</event>
<event>
13    1  0.6396508E-008  0.4042391E+04  0.7818608E-02  0.7996049E-01
          2   -1    0    0  501    0  0.00000000000E+00  0.00000000000E+00  0.20531205220E+04  0.20531205220E+04  0.00000000000E+00 0. -1.
         -2   -1    0    0    0  501 -0.00000000000E+00 -0.00000000000E+00 -0.19897672363E+04  0.19897672363E+04  0.00000000000E+00 0.  1.
    9900016    2    1    2    0    0 -0.13465962704E+03 -0.74669822604E+03  0.36341943470E+03  0.20230553294E+04  0.18398336132E+04 0.  0.
         23    2    3    3    0    0  0.42045763109E+02 -0.10566057274E+03 -0.72938959486E+03  0.74384242959E+03  0.91435092502E+02 0.  0.
    9900016    2    1    2    0    0  0.13465962704E+03  0.74669822604E+03 -0.30006614900E+03  0.20198324290E+04  0.18476990803E+04 0.  0.
        -24    2    5    5    0    0 -0.39947737259E+03  0.31593636739E+03 -0.50989444584E+03  0.72687528819E+03  0.94643432054E+02 0.  0.
        -15    1    4    4    0    0 -0.74122848908E+01  0.14276176011E+02 -0.89451830249E+02  0.90886638752E+02  0.00000000000E+00 0.  1.
        -15    1    5    5    0    0  0.26911206306E+02 -0.18816976022E+03  0.41963380171E+03  0.46067841194E+03  0.00000000000E+00 0.  1.
         15    1    6    6    0    0 -0.29261310084E+03  0.27930597342E+03 -0.38450509527E+03  0.55810251913E+03  0.00000000000E+00 0. -1.
         15    1    4    4    0    0  0.49458048000E+02 -0.11993674875E+03 -0.63993776462E+03  0.65295579084E+03  0.00000000000E+00 0. -1.
        -16    1    6    6    0    0 -0.10686427175E+03  0.36630393967E+02 -0.12538935057E+03  0.16877276906E+03  0.00000000000E+00 0.  1.
         16    1    3    3    0    0 -0.17670539015E+03 -0.64103765330E+03  0.10928090296E+04  0.12792128998E+04  0.00000000000E+00 0. -1.
    9900018    1    5    5    0    0  0.50722579332E+03  0.61893161888E+03 -0.20980550487E+03  0.83227872887E+03  0.91187600000E+02 0.  0.
<mgrwt>
<rscale>  0 0.40423913E+04</rscale>
<asrwt>0</asrwt>
<pdfrwt beam="1">  1        2 0.31586470E+00 0.40423913E+04</pdfrwt>
<pdfrwt beam="2">  1       -2 0.30611804E+00 0.40423913E+04</pdfrwt>
<totfact> 0.14304602E-01</totfact>
</mgrwt>
</event>
<event>
12    1  0.6396508E-008  0.4612061E+04  0.7818608E-02  0.7891307E-01
         -2   -1    0    0    0  501 -0.00000000000E+00  0.00000000000E+00  0.14078549182E+04  0.14078549182E+04  0.00000000000E+00 0.  1.
          2   -1    0    0  501    0  0.00000000000E+00 -0.00000000000E+00 -0.37772197860E+04  0.37772197860E+04  0.00000000000E+00 0. -1.
    9900016    2    1    2    0    0  0.68205718354E+03 -0.10861525778E+04 -0.17383535057E+04  0.28533012139E+04  0.18640079084E+04 0.  0.
         23    2    3    3    0    0 -0.24432457365E+03  0.27219124997E+03  0.95820730141E+02  0.39007644907E+03  0.95892908705E+02 0.  0.
    9900016    2    1    2    0    0 -0.68205718354E+03  0.10861525778E+04 -0.63101136207E+03  0.23317734904E+04  0.18422982515E+04 0.  0.
        -15    1    4    4    0    0 -0.88971897053E+02  0.98756314946E+02  0.83367741542E+02  0.15690439298E+03  0.00000000000E+00 0. -1.
        -15    1    5    5    0    0  0.54386915037E+03  0.31214767651E+03  0.49761140972E+01  0.62710014064E+03  0.00000000000E+00 0.  1.
         15    1    4    4    0    0 -0.15535267660E+03  0.17343493503E+03  0.12452988599E+02  0.23317205609E+03  0.00000000000E+00 0.  1.
         15    1    5    5    0    0 -0.38311428948E+02  0.14587112288E+03 -0.38303451190E+01  0.15086690036E+03  0.00000000000E+00 0. -1.
        -16    1    5    5    0    0 -0.27161473620E+03  0.37438768712E+03 -0.16792522848E+03  0.49207681062E+03  0.00000000000E+00 0.  1.
         16    1    3    3    0    0  0.92638175719E+03 -0.13583438278E+04 -0.18341742358E+04  0.24632247648E+04  0.00000000000E+00 0. -1.
    9900018    1    5    5    0    0 -0.91600016876E+03  0.25374609132E+03 -0.46423190257E+03  0.10617296387E+04  0.91187600000E+02 0.  0.
<mgrwt>
<rscale>  0 0.46120613E+04</rscale>
<asrwt>0</asrwt>
<pdfrwt beam="1">  1        2 0.58111073E+00 0.46120613E+04</pdfrwt>
<pdfrwt beam="2">  1       -2 0.21659307E+00 0.46120613E+04</pdfrwt>
<totfact> 0.39743012E-02</totfact>
</mgrwt>
</event>
<event>
13    1  0.6396508E-008  0.6201290E+04  0.7818608E-02  0.7665933E-01
         -2   -1    0    0    0  501 -0.00000000000E+00  0.00000000000E+00  0.25756668339E+04  0.25756668339E+04  0.00000000000E+00 0.  1.
          2   -1    0    0  501    0  0.00000000000E+00 -0.00000000000E+00 -0.37326255767E+04  0.37326255767E+04  0.00000000000E+00 0. -1.
    9900016    2    1    2    0    0  0.63759419296E+03 -0.42022259967E+03 -0.29878002757E+04  0.36041616348E+04  0.18654536216E+04 0.  0.
         23    2    3    3    0    0  0.23719156147E+03  0.26663315890E+03  0.12675456628E+03  0.38973400862E+03  0.92047809032E+02 0.  0.
    9900016    2    1    2    0    0 -0.63759419296E+03  0.42022259967E+03  0.18308415330E+04  0.27041307758E+04  0.18377239035E+04 0.  0.
        -24    2    5    5    0    0 -0.10030633037E+04  0.35821167189E+03  0.79838290178E+03  0.13329116832E+04  0.69186011354E+02 0.  0.
        -15    1    4    4    0    0  0.11476962792E+02  0.43770406916E+02 -0.64387865770E+01  0.45705876745E+02  0.00000000000E+00 0.  1.
        -15    1    5    5    0    0  0.53611530624E+02 -0.62840221912E+02 -0.13207488033E+03  0.15577825176E+03  0.00000000000E+00 0.  1.
         15    1    6    6    0    0 -0.84385841051E+03  0.27390579350E+03  0.66236966665E+03  0.11071833525E+04  0.00000000000E+00 0. -1.
         15    1    4    4    0    0  0.22571459867E+03  0.22286275198E+03  0.13319335286E+03  0.34402813187E+03  0.00000000000E+00 0. -1.
        -16    1    6    6    0    0 -0.15920489317E+03  0.84305878392E+02  0.13601323513E+03  0.22572833068E+03  0.00000000000E+00 0.  1.
         16    1    3    3    0    0  0.40040263150E+03 -0.68685575857E+03 -0.31145548420E+04  0.32144276262E+04  0.00000000000E+00 0. -1.
    9900018    1    5    5    0    0  0.31185758009E+03  0.12485114969E+03  0.11645335115E+04  0.12154408409E+04  0.91187600000E+02 0.  0.
<mgrwt>
<rscale>  0 0.62012902E+04</rscale>
<asrwt>0</asrwt>
<pdfrwt beam="1">  1        2 0.57425008E+00 0.62012902E+04</pdfrwt>
<pdfrwt beam="2">  1       -2 0.39625644E+00 0.62012902E+04</pdfrwt>
<totfact> 0.28664478E-03</totfact>
</mgrwt>
</event>
