<event>
10    1  0.3444984E-012  0.4351919E+04  0.7818608E-02  0.8256634E-01
         -2   -1    0    0    0  501 -0.00000000000E+00  0.00000000000E+00  0.17402027004E+04  0.17402027004E+04  0.00000000000E+00 0.  1.
          2   -1    0    0  501    0  0.00000000000E+00 -0.00000000000E+00 -0.40743436248E+04  0.40743436248E+04  0.00000000000E+00 0. -1.
        -24    2    1    2    0    0 -0.88568602097E+03 -0.25567898511E+03 -0.72164537684E+03  0.11734969573E+04  0.80694409092E+02 0.  0.
        -15    1    1    2    0    0 -0.59205163076E+03  0.98740223291E+03  0.53416572402E+03  0.12691813597E+04  0.00000000000E+00 0.  1.
        -15    1    1    2    0    0  0.50447295946E+03 -0.46700530453E+03 -0.61049994342E+03  0.91940040363E+03  0.00000000000E+00 0.  1.
         15    1    1    2    0    0  0.33993405771E+03 -0.25674713982E+03  0.59030358056E+02  0.43006841383E+03  0.00000000000E+00 0. -1.
         15    1    3    3    0    0 -0.84155062150E+03 -0.24463973457E+03 -0.70600537485E+03  0.11253886607E+04  0.00000000000E+00 0. -1.
        -16    1    3    3    0    0 -0.44135399476E+02 -0.11039250542E+02 -0.15640001987E+02  0.48108296598E+02  0.00000000000E+00 0.  1.
         16    1    1    2    0    0  0.19279573767E+03 -0.42245225687E+02 -0.15571637309E+04  0.15696221649E+04  0.00000000000E+00 0. -1.
    9900018    1    1    2    0    0  0.44053489689E+03  0.34274422242E+02 -0.38027955335E+02  0.45277702590E+03  0.91187600000E+02 0.  0.
<mgrwt>
<rscale>  0 0.29552236E+04</rscale>
<asrwt>0</asrwt>
<pdfrwt beam="1">  1        2 0.62682209E+00 0.43519188E+04</pdfrwt>
<pdfrwt beam="2">  1       -2 0.26772349E+00 0.43519188E+04</pdfrwt>
<totfact> 0.10996379E-02</totfact>
</mgrwt>
</event>
<event>
10    1  0.3444984E-012  0.5748439E+04  0.7818608E-02  0.7722399E-01
         -2   -1    0    0    0  501 -0.00000000000E+00  0.00000000000E+00  0.25818622927E+04  0.25818622927E+04  0.00000000000E+00 0. -1.
          2   -1    0    0  501    0  0.00000000000E+00 -0.00000000000E+00 -0.31996821364E+04  0.31996821364E+04  0.00000000000E+00 0.  1.
         24    2    1    2    0    0  0.13176135247E+04 -0.25548055582E+03 -0.39322370871E+03  0.14008451630E+04  0.79790793714E+02 0.  0.
        -15    1    3    3    0    0  0.67691735062E+03 -0.15343163123E+03 -0.23803181164E+03  0.73376938366E+03  0.00000000000E+00 0.  1.
        -15    1    1    2    0    0 -0.44283348354E+03  0.10210139358E+04  0.33271175808E+03  0.11615799866E+04  0.00000000000E+00 0.  1.
         15    1    1    2    0    0 -0.33386674695E+03 -0.36978611920E+03  0.34230499332E+03  0.60446793722E+03  0.00000000000E+00 0. -1.
         15    1    1    2    0    0  0.33173535040E+03 -0.41378267407E+03 -0.13360313224E+03  0.54691337615E+03  0.00000000000E+00 0. -1.
        -16    1    1    2    0    0 -0.11255159390E+04 -0.57877501738E+03 -0.52615657406E+03  0.13706229934E+04  0.00000000000E+00 0.  1.
         16    1    3    3    0    0  0.64069617404E+03 -0.10204892459E+03 -0.15519189707E+03  0.66707577932E+03  0.00000000000E+00 0. -1.
    9900018    1    1    2    0    0  0.25286729443E+03  0.59681043063E+03 -0.23985318010E+03  0.69711497265E+03  0.91187600000E+02 0.  0.
<mgrwt>
<rscale>  0 0.57484393E+04</rscale>
<asrwt>0</asrwt>
<pdfrwt beam="1">  1        2 0.49225879E+00 0.57484393E+04</pdfrwt>
<pdfrwt beam="2">  1       -2 0.39720958E+00 0.57484393E+04</pdfrwt>
<totfact> 0.68931828E-03</totfact>
</mgrwt>
</event>
<event>
10    1  0.3444984E-012  0.6165860E+04  0.7818608E-02  0.7670171E-01
         -2   -1    0    0    0  501 -0.00000000000E+00  0.00000000000E+00  0.23373056073E+04  0.23373056073E+04  0.00000000000E+00 0.  1.
          2   -1    0    0  501    0  0.00000000000E+00 -0.00000000000E+00 -0.40664159187E+04  0.40664159187E+04  0.00000000000E+00 0. -1.
         24    2    1    2    0    0 -0.53794821350E+03  0.58663982033E+03 -0.12989844387E+04  0.15254534272E+04  0.78185852120E+02 0.  0.
        -15    1    1    2    0    0  0.84795520211E+03 -0.36375442597E+03 -0.52690712356E+03  0.10625330226E+04  0.00000000000E+00 0.  1.
        -15    1    3    3    0    0 -0.71114828550E+02  0.86499122211E+02 -0.23773731492E+03  0.26278974084E+03  0.00000000000E+00 0.  1.
         15    1    1    2    0    0  0.21966299649E+03  0.11590054248E+03  0.66203345617E+03  0.70708773491E+03  0.00000000000E+00 0. -1.
         15    1    1    2    0    0 -0.44882090162E+03 -0.92601531717E+03 -0.11932460426E+04  0.15756841966E+04  0.00000000000E+00 0. -1.
        -16    1    1    2    0    0 -0.54636292120E+03  0.50938831993E+03  0.72678465104E+03  0.10422115098E+04  0.00000000000E+00 0.  1.
         16    1    3    3    0    0 -0.46683338495E+03  0.50014069812E+03 -0.10612471238E+04  0.12626636864E+04  0.00000000000E+00 0. -1.
    9900018    1    1    2    0    0  0.46551383773E+03  0.77841060395E+02 -0.98790813749E+02  0.49075163482E+03  0.91187600000E+02 0.  0.
<mgrwt>
<rscale>  0 0.61658598E+04</rscale>
<asrwt>0</asrwt>
<pdfrwt beam="1">  1        2 0.62560244E+00 0.61658598E+04</pdfrwt>
<pdfrwt beam="2">  1       -2 0.35958548E+00 0.61658598E+04</pdfrwt>
<totfact> 0.26978298E-03</totfact>
</mgrwt>
</event>
<event>
10    1  0.3444984E-012  0.5603625E+04  0.7818608E-02  0.8270192E-01
         -2   -1    0    0    0  501 -0.00000000000E+00  0.00000000000E+00  0.36013608331E+04  0.36013608331E+04  0.00000000000E+00 0.  1.
          2   -1    0    0  501    0  0.00000000000E+00 -0.00000000000E+00 -0.27379049027E+04  0.27379049027E+04  0.00000000000E+00 0. -1.
         24    2    1    2    0    0  0.34441796754E+03 -0.20191118470E+03 -0.42602379000E+03  0.58918952654E+03  0.79095926983E+02 0.  0.
        -15    1    3    3    0    0  0.17249425376E+03 -0.10536891604E+03 -0.15855535508E+03  0.25689818347E+03  0.00000000000E+00 0.  1.
        -15    1    1    2    0    0  0.12720277474E+03 -0.37391861139E+03  0.84726111565E+02  0.40394824894E+03  0.00000000000E+00 0.  1.
         15    1    1    2    0    0 -0.49919676294E+03  0.75837249635E+03  0.82195089785E+03  0.12247161017E+04  0.00000000000E+00 0. -1.
         15    1    1    2    0    0 -0.60188192138E+02  0.78710993530E+03  0.29484606856E+02  0.78995823356E+03  0.00000000000E+00 0. -1.
        -16    1    1    2    0    0  0.96462838240E+03 -0.16808926873E+04  0.82259445741E+03  0.21053669000E+04  0.00000000000E+00 0.  1.
         16    1    3    3    0    0  0.17192371379E+03 -0.96542268666E+02 -0.26746843492E+03  0.33229134307E+03  0.00000000000E+00 0. -1.
    9900018    1    1    2    0    0 -0.87686416960E+03  0.71124005171E+03 -0.46927635331E+03  0.12260867250E+04  0.91187600000E+02 0.  0.
<mgrwt>
<rscale>  0 0.29090428E+04</rscale>
<asrwt>0</asrwt>
<pdfrwt beam="1">  1        2 0.42121614E+00 0.56036255E+04</pdfrwt>
<pdfrwt beam="2">  1       -2 0.55405551E+00 0.56036255E+04</pdfrwt>
<totfact> 0.14120609E-03</totfact>
</mgrwt>
</event>
