<event>
11    1  0.1307116E-011  0.2200214E+04  0.7818608E-02  0.8518339E-01
          1   -1    0    0  501    0  0.00000000000E+00  0.00000000000E+00  0.97230565673E+03  0.97230565673E+03  0.00000000000E+00 0. -1.
         -1   -1    0    0    0  501 -0.00000000000E+00 -0.00000000000E+00 -0.12447064404E+04  0.12447064404E+04  0.00000000000E+00 0.  1.
    9900016    2    1    2    0    0  0.53518055246E+02 -0.32436828105E+01  0.36921141690E+02  0.18117990606E+04  0.18106291618E+04 0.  0.
         24    2    3    3    0    0 -0.10399424956E+03  0.38525950151E+03  0.64310935714E+03  0.76114544185E+03  0.80703475562E+02 0.  0.
        -15    1    3    3    0    0 -0.44385352036E+02 -0.81780784974E+02 -0.26376686025E+03  0.27969825318E+03  0.00000000000E+00 0.  1.
        -15    1    4    4    0    0 -0.31317326066E+02  0.19617810973E+03  0.38305396303E+03  0.43150546259E+03  0.00000000000E+00 0.  1.
         15    1    3    3    0    0  0.35335097934E+03 -0.30976253230E+03 -0.39160231639E+03  0.61168792306E+03  0.00000000000E+00 0. -1.
         15    1    3    3    0    0 -0.15145332250E+03  0.30401329584E+01  0.49180961187E+02  0.15926744252E+03  0.00000000000E+00 0. -1.
        -16    1    1    2    0    0 -0.48974721627E+02 -0.40126428480E+01 -0.30974994001E+03  0.31362342068E+03  0.00000000000E+00 0.  1.
         16    1    4    4    0    0 -0.72676923493E+02  0.18908139177E+03  0.26005539411E+03  0.32963997926E+03  0.00000000000E+00 0. -1.
    9900018    1    1    2    0    0 -0.45433336198E+01  0.72563256585E+01  0.42801462808E+00  0.91589615856E+02  0.91187600000E+02 0.  0.
<mgrwt>
<rscale>  0 0.22002137E+04</rscale>
<asrwt>0</asrwt>
<pdfrwt beam="1">  1        1 0.14958548E+00 0.22002137E+04</pdfrwt>
<pdfrwt beam="2">  1       -1 0.19149330E+00 0.22002137E+04</pdfrwt>
<totfact> 0.25019792E+00</totfact>
</mgrwt>
</event>
<event>
11    1  0.1307116E-011  0.2880218E+04  0.7818608E-02  0.8278788E-01
          2   -1    0    0  501    0  0.00000000000E+00  0.00000000000E+00  0.12014285246E+04  0.12014285246E+04  0.00000000000E+00 0. -1.
         -2   -1    0    0    0  501 -0.00000000000E+00 -0.00000000000E+00 -0.17262071238E+04  0.17262071238E+04  0.00000000000E+00 0.  1.
    9900016    2    1    2    0    0  0.20886095645E+03  0.50620882303E+03  0.11488781364E+03  0.18811565524E+04  0.17960179546E+04 0.  0.
         24    2    3    3    0    0 -0.37586636502E+03 -0.28465473185E+02  0.66477640762E+03  0.76869952394E+03  0.82978783231E+02 0.  0.
        -15    1    3    3    0    0  0.12689977720E+03  0.18845396172E+03 -0.72438474715E+01  0.22731238960E+03  0.00000000000E+00 0.  1.
        -15    1    4    4    0    0 -0.23619939433E+03 -0.55750169931E+02  0.39230601680E+03  0.46130493835E+03  0.00000000000E+00 0.  1.
         15    1    3    3    0    0  0.38028995745E+03  0.17702354237E+03 -0.14110824722E+03  0.44257126401E+03  0.00000000000E+00 0. -1.
         15    1    3    3    0    0  0.77537586818E+02  0.16919679213E+03 -0.40153649929E+03  0.44257337482E+03  0.00000000000E+00 0. -1.
        -16    1    1    2    0    0 -0.25022284804E+03 -0.57484363541E+03 -0.67381629603E+03  0.92037225059E+03  0.00000000000E+00 0.  1.
         16    1    4    4    0    0 -0.13966697068E+03  0.27284696745E+02  0.27247039082E+03  0.30739458559E+03  0.00000000000E+00 0. -1.
    9900018    1    1    2    0    0  0.41361891590E+02  0.68634812382E+02  0.34149883174E+02  0.12610684542E+03  0.91187600000E+02 0.  0.
<mgrwt>
<rscale>  0 0.28802184E+04</rscale>
<asrwt>0</asrwt>
<pdfrwt beam="1">  1        2 0.18483516E+00 0.28802184E+04</pdfrwt>
<pdfrwt beam="2">  1       -2 0.26557033E+00 0.28802184E+04</pdfrwt>
<totfact> 0.84294793E-01</totfact>
</mgrwt>
</event>
<event>
11    1  0.1307116E-011  0.2531127E+04  0.7818608E-02  0.8391980E-01
          2   -1    0    0  501    0  0.00000000000E+00  0.00000000000E+00  0.35668707185E+04  0.35668707185E+04  0.00000000000E+00 0. -1.
         -2   -1    0    0    0  501 -0.00000000000E+00 -0.00000000000E+00 -0.44903534159E+03  0.44903534159E+03  0.00000000000E+00 0.  1.
    9900016    2    1    2    0    0  0.53248374977E+02  0.49749717694E+03  0.25879978788E+04  0.31952811530E+04  0.18060315045E+04 0.  0.
         24    2    3    3    0    0 -0.62779003474E+03  0.43008771166E+03  0.19617814523E+04  0.21056741962E+04  0.78623065426E+02 0.  0.
        -15    1    4    4    0    0 -0.28163390344E+03  0.16878679389E+03  0.93838689051E+03  0.99417131000E+03  0.00000000000E+00 0.  1.
        -15    1    3    3    0    0  0.97672238950E+00  0.25741550498E+02 -0.29544188414E+02  0.39197454990E+02  0.00000000000E+00 0.  1.
         15    1    3    3    0    0  0.49190624703E+03  0.80314192505E+02  0.16764330848E+03  0.52585777950E+03  0.00000000000E+00 0. -1.
         15    1    3    3    0    0  0.18815544030E+03 -0.38646277725E+02  0.48811730645E+03  0.52455172228E+03  0.00000000000E+00 0. -1.
        -16    1    1    2    0    0 -0.40863453840E+02 -0.51038693175E+03  0.35635000390E+03  0.62381885771E+03  0.00000000000E+00 0.  1.
         16    1    4    4    0    0 -0.34615613130E+03  0.26130091777E+03  0.10233945618E+04  0.11115028862E+04  0.00000000000E+00 0. -1.
    9900018    1    1    2    0    0 -0.12384921137E+02  0.12889754805E+02  0.17348749419E+03  0.19680604941E+03  0.91187600000E+02 0.  0.
<mgrwt>
<rscale>  0 0.25311270E+04</rscale>
<asrwt>0</asrwt>
<pdfrwt beam="1">  1        2 0.54874932E+00 0.25311270E+04</pdfrwt>
<pdfrwt beam="2">  1       -2 0.69082362E-01 0.25311270E+04</pdfrwt>
<totfact> 0.12426881E+00</totfact>
</mgrwt>
</event>
<event>
11    1  0.1307116E-011  0.2402909E+04  0.7818608E-02  0.8438415E-01
         -2   -1    0    0    0  501 -0.00000000000E+00  0.00000000000E+00  0.91294352382E+03  0.91294352382E+03  0.00000000000E+00 0.  1.
          2   -1    0    0  501    0  0.00000000000E+00 -0.00000000000E+00 -0.15811417254E+04  0.15811417254E+04  0.00000000000E+00 0. -1.
    9900016    2    1    2    0    0  0.38204221892E+03  0.11010516086E+03 -0.63399967905E+03  0.19493437808E+04  0.17999739385E+04 0.  0.
         24    2    3    3    0    0  0.69748814522E+03 -0.23787296732E+03 -0.80647016073E+03  0.10955256025E+04  0.81908267014E+02 0.  0.
        -15    1    4    4    0    0  0.41643175916E+03 -0.99743507141E+02 -0.45702214540E+03  0.62628541308E+03  0.00000000000E+00 0.  1.
        -15    1    3    3    0    0 -0.51618529201E+02  0.52322978155E+02  0.12141279454E+03  0.14192685890E+03  0.00000000000E+00 0.  1.
         15    1    3    3    0    0 -0.17562226782E+03  0.39707866576E+03  0.22742776419E+03  0.49014083250E+03  0.00000000000E+00 0. -1.
         15    1    3    3    0    0 -0.88205129273E+02 -0.10142351574E+03 -0.17637007705E+03  0.22175048693E+03  0.00000000000E+00 0. -1.
        -16    1    1    2    0    0 -0.42566912557E+03 -0.88250858428E+02  0.32934074487E+01  0.43473355634E+03  0.00000000000E+00 0.  1.
         16    1    4    4    0    0  0.28105638606E+03 -0.13812946018E+03 -0.34944801533E+03  0.46924018938E+03  0.00000000000E+00 0. -1.
    9900018    1    1    2    0    0  0.43626906643E+02 -0.21854302431E+02 -0.37491930009E+02  0.11000791211E+03  0.91187600000E+02 0.  0.
<mgrwt>
<rscale>  0 0.24029092E+04</rscale>
<asrwt>0</asrwt>
<pdfrwt beam="1">  1        2 0.24325257E+00 0.24029092E+04</pdfrwt>
<pdfrwt beam="2">  1       -2 0.14045285E+00 0.24029092E+04</pdfrwt>
<totfact> 0.36592956E+00</totfact>
</mgrwt>
</event>
