<event>
12    1  0.4802791E-014  0.1747118E+04  0.7818608E-02  0.9143234E-01
          2   -1    0    0  501    0  0.00000000000E+00  0.00000000000E+00  0.39597531725E+04  0.39597531725E+04  0.00000000000E+00 0. -1.
         -2   -1    0    0    0  501 -0.00000000000E+00 -0.00000000000E+00 -0.31984448281E+03  0.31984448281E+03  0.00000000000E+00 0.  1.
         23    2    1    2    0    0  0.85022443373E+02 -0.32790869159E+03  0.13814652826E+04  0.14242540885E+04  0.72804229367E+02 0.  0.
    9900016    2    1    2    0    0 -0.64003481783E+03  0.47044291006E+03  0.17605496951E+04  0.20962303422E+04  0.81466884014E+03 0.  0.
         23    2    4    4    0    0 -0.19388086871E+03  0.47013104459E+03  0.86920419554E+03  0.10126268568E+04  0.10622724306E+03 0.  0.
        -15    1    5    5    0    0 -0.16855092270E+03  0.27372170218E+03  0.53293170861E+03  0.62237383447E+03  0.00000000000E+00 0.  1.
        -15    1    3    3    0    0 -0.11452533736E+02 -0.51479863298E+02  0.25190970027E+03  0.25737100447E+03  0.00000000000E+00 0. -1.
         15    1    5    5    0    0 -0.25329946017E+02  0.19640934241E+03  0.33627248693E+03  0.39025302231E+03  0.00000000000E+00 0. -1.
         15    1    3    3    0    0  0.96474977109E+02 -0.27642882829E+03  0.11295555823E+04  0.11668830841E+04  0.00000000000E+00 0.  1.
        -16    1    1    2    0    0  0.55501237445E+03 -0.14253421846E+03  0.49789371197E+03  0.75911322452E+03  0.00000000000E+00 0.  1.
         16    1    4    4    0    0 -0.43340032680E+02 -0.16000456937E+03  0.17279979627E+03  0.23945686510E+03  0.00000000000E+00 0. -1.
    9900018    1    4    4    0    0 -0.40281391643E+03  0.16031643483E+03  0.71854570331E+03  0.84414662037E+03  0.91187600000E+02 0.  0.
<mgrwt>
<rscale>  0 0.11659057E+04</rscale>
<asrwt>0</asrwt>
<pdfrwt beam="1">  1        2 0.60919276E+00 0.17471177E+04</pdfrwt>
<pdfrwt beam="2">  1       -2 0.49206846E-01 0.17471177E+04</pdfrwt>
<totfact> 0.13777889E+00</totfact>
</mgrwt>
</event>
<event>
11    1  0.4802791E-014  0.1328144E+04  0.7818608E-02  0.9562433E-01
         -2   -1    0    0    0  501 -0.00000000000E+00  0.00000000000E+00  0.23482963614E+03  0.23482963614E+03  0.00000000000E+00 0.  1.
          2   -1    0    0  501    0  0.00000000000E+00 -0.00000000000E+00 -0.26932482929E+04  0.26932482929E+04  0.00000000000E+00 0. -1.
         23    2    1    2    0    0 -0.12813717641E+03 -0.26671491595E+03 -0.32145805565E+03  0.44373646726E+03  0.77529274867E+02 0.  0.
         23    2    1    2    0    0 -0.10380532545E+03 -0.88007866076E+02 -0.71880979675E+03  0.73942439680E+03  0.10742432034E+03 0.  0.
        -15    1    3    3    0    0 -0.11088583444E+03 -0.26077555923E+03 -0.27967107306E+03  0.39814001266E+03  0.00000000000E+00 0.  1.
        -15    1    4    4    0    0 -0.85961745669E+02 -0.16712551006E+02 -0.52291160228E+03  0.53019362018E+03  0.00000000000E+00 0. -1.
         15    1    3    3    0    0 -0.17251341971E+02 -0.59393567211E+01 -0.41786982595E+02  0.45596454604E+02  0.00000000000E+00 0. -1.
         15    1    4    4    0    0 -0.17843579783E+02 -0.71295315070E+02 -0.19589819447E+03  0.20923077663E+03  0.00000000000E+00 0.  1.
        -16    1    1    2    0    0  0.87219783040E+02 -0.12832823768E+02 -0.32286269286E+03  0.33468237235E+03  0.00000000000E+00 0.  1.
         16    1    1    2    0    0 -0.13282085955E+03 -0.14170572715E+03 -0.63549572361E+03  0.66451238406E+03  0.00000000000E+00 0. -1.
    9900018    1    1    2    0    0  0.27754357837E+03  0.50926133294E+03 -0.45979238784E+03  0.74572230853E+03  0.91187600000E+02 0.  0.
<mgrwt>
<rscale>  0 0.79833292E+03</rscale>
<asrwt>0</asrwt>
<pdfrwt beam="1">  1        2 0.41434591E+00 0.13281436E+04</pdfrwt>
<pdfrwt beam="2">  1       -2 0.36127634E-01 0.13281436E+04</pdfrwt>
<totfact> 0.18990890E+01</totfact>
</mgrwt>
</event>
<event>
12    1  0.4802791E-014  0.8105585E+03  0.7818608E-02  0.9544859E-01
         -2   -1    0    0    0  501 -0.00000000000E+00  0.00000000000E+00  0.10970940710E+04  0.10970940710E+04  0.00000000000E+00 0. -1.
          2   -1    0    0  501    0  0.00000000000E+00 -0.00000000000E+00 -0.14971483209E+03  0.14971483209E+03  0.00000000000E+00 0.  1.
         23    2    1    2    0    0 -0.44626918610E+01  0.18624537910E+02  0.21830584039E+03  0.24525120418E+03  0.11010869252E+03 0.  0.
    9900016    2    1    2    0    0  0.99005463763E+02 -0.16450366986E+02  0.64545831147E+03  0.87532558921E+03  0.58267122706E+03 0.  0.
         23    2    4    4    0    0 -0.35673220844E+02 -0.62726226479E+01  0.37700639983E+02  0.11693901247E+03  0.10460148136E+03 0.  0.
        -15    1    3    3    0    0  0.68837525452E+01  0.63233945011E+02  0.10249389995E+03  0.12062718341E+03  0.00000000000E+00 0.  1.
        -15    1    5    5    0    0  0.90174380988E+01 -0.27612616301E+02 -0.24099737170E+02  0.37743451094E+02  0.00000000000E+00 0.  1.
         15    1    5    5    0    0 -0.44690658943E+02  0.21339993653E+02  0.61800377152E+02  0.79195561378E+02  0.00000000000E+00 0. -1.
         15    1    3    3    0    0 -0.11346444406E+02 -0.44609407101E+02  0.11581194044E+03  0.12462402077E+03  0.00000000000E+00 0. -1.
        -16    1    1    2    0    0 -0.94542771902E+02 -0.21741709241E+01  0.83615087028E+02  0.12623210969E+03  0.00000000000E+00 0.  1.
         16    1    4    4    0    0 -0.59599747329E+02  0.15111571424E+03  0.35162887355E+03  0.38733829360E+03  0.00000000000E+00 0. -1.
    9900018    1    4    4    0    0  0.19427843194E+03 -0.16129345858E+03  0.25612879794E+03  0.37104828314E+03  0.91187600000E+02 0.  0.
<mgrwt>
<rscale>  0 0.81055846E+03</rscale>
<asrwt>0</asrwt>
<pdfrwt beam="1">  1        2 0.23033052E-01 0.81055846E+03</pdfrwt>
<pdfrwt beam="2">  1       -2 0.16878370E+00 0.81055846E+03</pdfrwt>
<totfact> 0.52874930E+01</totfact>
</mgrwt>
</event>
<event>
12    1  0.4802791E-014  0.1768890E+04  0.7818608E-02  0.9400977E-01
          1   -1    0    0  501    0  0.00000000000E+00  0.00000000000E+00  0.78803266524E+03  0.78803266524E+03  0.00000000000E+00 0. -1.
         -1   -1    0    0    0  501 -0.00000000000E+00 -0.00000000000E+00 -0.12362401394E+04  0.12362401394E+04  0.00000000000E+00 0.  1.
         23    2    1    2    0    0  0.54439809856E+02 -0.23757034947E+02  0.10952948411E+03  0.16953772089E+03  0.11497061064E+03 0.  0.
    9900016    2    1    2    0    0 -0.72711846334E+02  0.46374316123E+03 -0.40689786776E+03  0.85602017671E+03  0.58894816067E+03 0.  0.
         23    2    4    4    0    0 -0.15168714593E+03  0.12465569027E+03 -0.45825297566E+03  0.50409012967E+03  0.74585774582E+02 0.  0.
        -15    1    3    3    0    0  0.65765557331E+02 -0.58866911346E+02  0.95572858977E+02  0.13009455467E+03  0.00000000000E+00 0.  1.
        -15    1    5    5    0    0 -0.15660992426E+03  0.11246563936E+03 -0.39575018881E+03  0.44021971827E+03  0.00000000000E+00 0.  1.
         15    1    5    5    0    0  0.49227783312E+01  0.12190050911E+02 -0.62502786848E+02  0.63870411392E+02  0.00000000000E+00 0. -1.
         15    1    3    3    0    0 -0.11325747475E+02  0.35109876399E+02  0.13956625128E+02  0.39443166222E+02  0.00000000000E+00 0. -1.
        -16    1    1    2    0    0  0.14844289646E+03 -0.61910202726E+03 -0.31308138804E+03  0.70946639752E+03  0.00000000000E+00 0.  1.
         16    1    4    4    0    0  0.78975299591E+02  0.33908747095E+03  0.51355107896E+02  0.35193004704E+03  0.00000000000E+00 0. -1.
    9900018    1    1    2    0    0 -0.13017085998E+03  0.17911590098E+03  0.16224229752E+03  0.28924850954E+03  0.91187600000E+02 0.  0.
<mgrwt>
<rscale>  0 0.91995286E+03</rscale>
<asrwt>0</asrwt>
<pdfrwt beam="1">  1        1 0.12123579E+00 0.17688900E+04</pdfrwt>
<pdfrwt beam="2">  1       -1 0.19019079E+00 0.17688900E+04</pdfrwt>
<totfact> 0.37544733E+00</totfact>
</mgrwt>
</event>
