<event>
13    1  0.5754654E-011  0.5052469E+04  0.7818608E-02  0.7820464E-01
          2   -1    0    0  501    0  0.00000000000E+00  0.00000000000E+00  0.13419322443E+04  0.13419322443E+04  0.00000000000E+00 0. -1.
         -2   -1    0    0    0  501 -0.00000000000E+00 -0.00000000000E+00 -0.47557241123E+04  0.47557241123E+04  0.00000000000E+00 0.  1.
    9900016    2    1    2    0    0  0.56177875742E+03  0.98491861943E+03 -0.19403232211E+04  0.31479113623E+04  0.22042757729E+04 0.  0.
         23    2    3    3    0    0 -0.43847862461E+03 -0.50194792863E+03 -0.40575649896E+03  0.78863562872E+03  0.11442286105E+03 0.  0.
    9900016    2    1    2    0    0 -0.56177875742E+03 -0.98491861943E+03 -0.14734686469E+04  0.29497449943E+04  0.22900274275E+04 0.  0.
         23    2    5    5    0    0  0.25330430088E+03 -0.71667140779E+02 -0.15420726582E+04  0.15670427126E+04  0.91299135046E+02 0.  0.
        -15    1    6    6    0    0  0.67220395097E+02 -0.62296510842E+02 -0.45891157047E+03  0.46797357435E+03  0.00000000000E+00 0.  1.
        -15    1    4    4    0    0 -0.10513757950E+03 -0.67646284550E+02 -0.10920248024E+03  0.16599732567E+03  0.00000000000E+00 0.  1.
         15    1    6    6    0    0  0.18608390579E+03 -0.93706299364E+01 -0.10831610877E+04  0.10990691382E+04  0.00000000000E+00 0. -1.
         15    1    4    4    0    0 -0.33334104511E+03 -0.43430164408E+03 -0.29655401872E+03  0.62263830305E+03  0.00000000000E+00 0. -1.
        -16    1    3    3    0    0  0.10002573820E+04  0.14868665481E+04 -0.15345667222E+04  0.23592757335E+04  0.00000000000E+00 0.  1.
         16    1    5    5    0    0 -0.89328910439E+02  0.83817543193E+02  0.79539660566E+02  0.14605338883E+03  0.00000000000E+00 0. -1.
    9900018    1    5    5    0    0 -0.72575414786E+03 -0.99706902184E+03 -0.10935649284E+02  0.12366488929E+04  0.91187600000E+02 0.  0.
<mgrwt>
<rscale>  0 0.50524685E+04</rscale>
<asrwt>0</asrwt>
<pdfrwt beam="1">  1        2 0.20645112E+00 0.50524685E+04</pdfrwt>
<pdfrwt beam="2">  1       -2 0.73164986E+00 0.50524685E+04</pdfrwt>
<totfact> 0.19646894E-03</totfact>
</mgrwt>
</event>
<event>
13    1  0.5754654E-011  0.6773028E+04  0.7818608E-02  0.7601307E-01
         -2   -1    0    0    0  501 -0.00000000000E+00  0.00000000000E+00  0.33121220696E+04  0.33121220696E+04  0.00000000000E+00 0.  1.
          2   -1    0    0  501    0  0.00000000000E+00 -0.00000000000E+00 -0.34625763836E+04  0.34625763836E+04  0.00000000000E+00 0. -1.
    9900016    2    1    2    0    0  0.14304384467E+04  0.82794912729E+03  0.19403760712E+04  0.33660122232E+04  0.21984824497E+04 0.  0.
         23    2    3    3    0    0 -0.37490026725E+03  0.12790839451E+03 -0.22438616121E+03  0.46161892639E+03  0.76368292468E+02 0.  0.
    9900016    2    1    2    0    0 -0.14304384467E+04 -0.82794912729E+03 -0.20908303851E+04  0.34086862300E+04  0.21250685185E+04 0.  0.
         23    2    5    5    0    0 -0.36637492770E+03 -0.44711780849E+02  0.37561415548E+03  0.53475478300E+03  0.92988994778E+02 0.  0.
        -15    1    6    6    0    0 -0.14467933375E+03  0.22252581542E+02  0.17679910117E+03  0.22953258848E+03  0.00000000000E+00 0.  1.
        -15    1    4    4    0    0 -0.30230558703E+03  0.73672282137E+02 -0.15584934108E+03  0.34800185376E+03  0.00000000000E+00 0.  1.
         15    1    4    4    0    0 -0.72594680221E+02  0.54236112370E+02 -0.68536820121E+02  0.11361707263E+03  0.00000000000E+00 0. -1.
         15    1    6    6    0    0 -0.22169559395E+03 -0.66964362391E+02  0.19881505431E+03  0.30522219452E+03  0.00000000000E+00 0. -1.
        -16    1    3    3    0    0  0.18053387140E+04  0.70004073279E+03  0.21647622324E+04  0.29043932968E+04  0.00000000000E+00 0.  1.
         16    1    5    5    0    0 -0.15861907265E+03 -0.40872284292E+03 -0.43978206812E+03  0.62098521720E+03  0.00000000000E+00 0. -1.
    9900018    1    5    5    0    0 -0.90544444635E+03 -0.37451450352E+03 -0.20266624725E+04  0.22529462298E+04  0.91187600000E+02 0.  0.
<mgrwt>
<rscale>  0 0.67730276E+04</rscale>
<asrwt>0</asrwt>
<pdfrwt beam="1">  1        2 0.53270406E+00 0.67730276E+04</pdfrwt>
<pdfrwt beam="2">  1       -2 0.50955724E+00 0.67730276E+04</pdfrwt>
<totfact> 0.80061269E-04</totfact>
</mgrwt>
</event>
<event>
13    1  0.5754654E-011  0.5088004E+04  0.7818608E-02  0.7815073E-01
          2   -1    0    0  501    0  0.00000000000E+00  0.00000000000E+00  0.26778069271E+04  0.26778069271E+04  0.00000000000E+00 0. -1.
         -2   -1    0    0    0  501 -0.00000000000E+00 -0.00000000000E+00 -0.24168833039E+04  0.24168833039E+04  0.00000000000E+00 0.  1.
    9900016    2    1    2    0    0 -0.72205058145E+03 -0.24151397262E+03  0.10287999984E+04  0.25350475366E+04  0.21882300005E+04 0.  0.
         23    2    3    3    0    0  0.45222254398E+03  0.71408374121E+02 -0.42889202777E+03  0.63723199994E+03  0.11185644855E+03 0.  0.
    9900016    2    1    2    0    0  0.72205058145E+03  0.24151397262E+03 -0.76787637519E+03  0.25596426943E+04  0.23200108952E+04 0.  0.
         23    2    5    5    0    0  0.20809156952E+03 -0.31371442932E+03  0.61090474624E+03  0.72341375413E+03  0.91673367018E+02 0.  0.
        -15    1    6    6    0    0  0.14200064274E+03 -0.24870566560E+03  0.51958519849E+03  0.59328531849E+03  0.00000000000E+00 0. -1.
        -15    1    4    4    0    0  0.25327481881E+03  0.71022750444E+02 -0.30543226350E+03  0.40308960854E+03  0.00000000000E+00 0. -1.
         15    1    4    4    0    0  0.19894772518E+03  0.38562367651E+00 -0.12345976427E+03  0.23414239140E+03  0.00000000000E+00 0.  1.
         15    1    6    6    0    0  0.66090926775E+02 -0.65008763719E+02  0.91319547750E+02  0.13012843565E+03  0.00000000000E+00 0.  1.
        -16    1    5    5    0    0 -0.27755647726E+03  0.15526698939E+03 -0.42284339614E+03  0.52909542969E+03  0.00000000000E+00 0.  1.
         16    1    3    3    0    0 -0.11742731254E+04 -0.31292234674E+03  0.14576920262E+04  0.18978155367E+04  0.00000000000E+00 0. -1.
    9900018    1    5    5    0    0  0.79151548919E+03  0.39996141254E+03 -0.95593772529E+03  0.13071335105E+04  0.91187600000E+02 0.  0.
<mgrwt>
<rscale>  0 0.50880043E+04</rscale>
<asrwt>0</asrwt>
<pdfrwt beam="1">  1        2 0.41197030E+00 0.50880043E+04</pdfrwt>
<pdfrwt beam="2">  1       -2 0.37182820E+00 0.50880043E+04</pdfrwt>
<totfact> 0.22370646E-02</totfact>
</mgrwt>
</event>
<event>
13    1  0.5754654E-011  0.5434494E+04  0.7818608E-02  0.7764768E-01
         -2   -1    0    0    0  501 -0.00000000000E+00  0.00000000000E+00  0.18949477030E+04  0.18949477030E+04  0.00000000000E+00 0.  1.
          2   -1    0    0  501    0  0.00000000000E+00 -0.00000000000E+00 -0.38963771572E+04  0.38963771572E+04  0.00000000000E+00 0. -1.
    9900016    2    1    2    0    0 -0.90036671033E+03 -0.76527661581E+03 -0.22121418932E+04  0.33398560669E+04  0.22056197044E+04 0.  0.
         23    2    3    3    0    0  0.58070025479E+02 -0.42235023488E+03  0.36361460825E+03  0.57024941000E+03  0.10591013883E+03 0.  0.
    9900016    2    1    2    0    0  0.90036671033E+03  0.76527661581E+03  0.21071243907E+03  0.24514687932E+04  0.21375198246E+04 0.  0.
         23    2    5    5    0    0 -0.18534508025E+03 -0.57633513566E+02  0.57589519849E+03  0.61442282490E+03  0.90474899544E+02 0.  0.
        -15    1    6    6    0    0 -0.16655295011E+03 -0.24002301886E+02  0.39293399619E+03  0.42744955381E+03  0.00000000000E+00 0. -1.
        -15    1    4    4    0    0  0.63958606625E+02 -0.22103756095E+03  0.24678197950E+03  0.33741614087E+03  0.00000000000E+00 0. -1.
         15    1    6    6    0    0 -0.18792130137E+02 -0.33631211680E+02  0.18296120230E+03  0.18697327109E+03  0.00000000000E+00 0.  1.
         15    1    4    4    0    0 -0.58885811461E+01 -0.20131267393E+03  0.11683262875E+03  0.23283326912E+03  0.00000000000E+00 0.  1.
        -16    1    5    5    0    0  0.85093452611E+03  0.98973510263E+03 -0.61702382118E+03  0.14437394284E+04  0.00000000000E+00 0.  1.
         16    1    3    3    0    0 -0.95843673581E+03 -0.34292638093E+03 -0.25757565015E+04  0.27696066569E+04  0.00000000000E+00 0. -1.
    9900018    1    5    5    0    0  0.23477726447E+03 -0.16682497325E+03  0.25184106175E+03  0.39330653998E+03  0.91187600000E+02 0.  0.
<mgrwt>
<rscale>  0 0.54344939E+04</rscale>
<asrwt>0</asrwt>
<pdfrwt beam="1">  1        2 0.59944263E+00 0.54344939E+04</pdfrwt>
<pdfrwt beam="2">  1       -2 0.29153042E+00 0.54344939E+04</pdfrwt>
<totfact> 0.10378416E-02</totfact>
</mgrwt>
</event>
<event>
13    1  0.5754654E-011  0.5274541E+04  0.7818608E-02  0.7787498E-01
         -2   -1    0    0    0  501 -0.00000000000E+00  0.00000000000E+00  0.25223372383E+04  0.25223372383E+04  0.00000000000E+00 0.  1.
          2   -1    0    0  501    0  0.00000000000E+00 -0.00000000000E+00 -0.27574408240E+04  0.27574408240E+04  0.00000000000E+00 0. -1.
    9900016    2    1    2    0    0  0.14463262383E+04 -0.13641830792E+03  0.33014283037E+03  0.26525894769E+04  0.21947134442E+04 0.  0.
         23    2    3    3    0    0  0.58796791327E+03  0.67072680527E+02 -0.93281784194E+03  0.11120515006E+04  0.12768869302E+03 0.  0.
    9900016    2    1    2    0    0 -0.14463262383E+04  0.13641830792E+03 -0.56524641598E+03  0.26271885854E+04  0.21147450934E+04 0.  0.
         23    2    5    5    0    0 -0.11757464894E+03 -0.36884469515E+03 -0.45048609612E+03  0.60133188301E+03  0.93766217363E+02 0.  0.
        -15    1    6    6    0    0  0.56696513642E+01 -0.12430472409E+03 -0.14515269089E+03  0.19118868442E+03  0.00000000000E+00 0.  1.
        -15    1    4    4    0    0  0.30045737360E+03  0.83317401442E+02 -0.56022702690E+03  0.64114798947E+03  0.00000000000E+00 0. -1.
         15    1    4    4    0    0  0.28751053967E+03 -0.16244720915E+02 -0.37259081504E+03  0.47090351117E+03  0.00000000000E+00 0.  1.
         15    1    6    6    0    0 -0.12324430031E+03 -0.24453997105E+03 -0.30533340523E+03  0.41014319859E+03  0.00000000000E+00 0. -1.
        -16    1    3    3    0    0  0.85835832503E+03 -0.20349098845E+03  0.12629606723E+04  0.15405379763E+04  0.00000000000E+00 0.  1.
         16    1    5    5    0    0 -0.52380098889E+03 -0.15174134620E+03  0.56153394869E+03  0.78276004474E+03  0.00000000000E+00 0. -1.
    9900018    1    5    5    0    0 -0.80495060047E+03  0.65700434926E+03 -0.67629426856E+03  0.12430966576E+04  0.91187600000E+02 0.  0.
<mgrwt>
<rscale>  0 0.52745410E+04</rscale>
<asrwt>0</asrwt>
<pdfrwt beam="1">  1        2 0.42422166E+00 0.52745410E+04</pdfrwt>
<pdfrwt beam="2">  1       -2 0.38805188E+00 0.52745410E+04</pdfrwt>
<totfact> 0.15526806E-02</totfact>
</mgrwt>
</event>
