<event>
11    1  0.1019737E-013  0.2843620E+04  0.7818608E-02  0.8289853E-01
          1   -1    0    0  501    0  0.00000000000E+00  0.00000000000E+00  0.16943360001E+04  0.16943360001E+04  0.00000000000E+00 0. -1.
         -1   -1    0    0    0  501 -0.00000000000E+00 -0.00000000000E+00 -0.11931181750E+04  0.11931181750E+04  0.00000000000E+00 0.  1.
    9900016    2    1    2    0    0  0.14075455436E+03  0.42961929730E+03  0.54508706699E+02  0.22518964502E+04  0.22053756683E+04 0.  0.
         24    2    3    3    0    0  0.78810337586E+02  0.78967795718E+02 -0.38297522855E+03  0.40746760427E+03  0.83143495061E+02 0.  0.
        -15    1    4    4    0    0  0.35597228240E+02  0.90497003664E+01 -0.15262419605E+03  0.15698154336E+03  0.00000000000E+00 0.  1.
        -15    1    4    4    0    0  0.42719268340E+02  0.48045987518E+02 -0.12370509281E+03  0.13941414129E+03  0.00000000000E+00 0. -1.
         15    1    3    3    0    0  0.79167638360E+03 -0.15019659243E+03 -0.88797388569E+02  0.81067594570E+03  0.00000000000E+00 0. -1.
         15    1    4    4    0    0 -0.67352141825E+01  0.21512773312E+02 -0.64908666914E+02  0.68711698903E+02  0.00000000000E+00 0.  1.
        -16    1    1    2    0    0 -0.14075455436E+03 -0.42961929730E+03  0.44670911835E+03  0.63555772484E+03  0.00000000000E+00 0.  1.
         16    1    4    4    0    0  0.72290551880E+01  0.35933452147E+00 -0.41737272775E+02  0.42360220714E+02  0.00000000000E+00 0. -1.
    9900018    1    3    3    0    0 -0.72973216682E+03  0.50084809402E+03  0.52628132382E+03  0.10337529002E+04  0.91187600000E+02 0.  0.
<mgrwt>
<rscale>  0 0.28436196E+04</rscale>
<asrwt>0</asrwt>
<pdfrwt beam="1">  1        1 0.26066708E+00 0.28436196E+04</pdfrwt>
<pdfrwt beam="2">  1       -1 0.18355664E+00 0.28436196E+04</pdfrwt>
<totfact> 0.81401575E-01</totfact>
</mgrwt>
</event>
<event>
11    1  0.1019737E-013  0.4159506E+04  0.7818608E-02  0.7973120E-01
         -2   -1    0    0    0  501 -0.00000000000E+00  0.00000000000E+00  0.11282935526E+04  0.11282935526E+04  0.00000000000E+00 0.  1.
          2   -1    0    0  501    0  0.00000000000E+00 -0.00000000000E+00 -0.38335526352E+04  0.38335526352E+04  0.00000000000E+00 0. -1.
    9900016    2    1    2    0    0  0.46326710275E+03 -0.13214845894E+04 -0.10606349291E+04  0.28018168976E+04  0.21827261730E+04 0.  0.
         24    2    3    3    0    0  0.30160521477E+02 -0.26480671920E+03  0.29829560972E+03  0.40789384783E+03  0.79780102354E+02 0.  0.
        -15    1    4    4    0    0 -0.26362728832E+00 -0.15239795702E+02  0.28611220772E+02  0.32417939886E+02  0.00000000000E+00 0.  1.
        -15    1    4    4    0    0 -0.13067481300E+02 -0.60956294267E+02  0.41274661008E+02  0.74766479920E+02  0.00000000000E+00 0.  1.
         15    1    3    3    0    0 -0.32370176604E+03  0.28266879867E+03 -0.29456684363E+03  0.52101257993E+03  0.00000000000E+00 0. -1.
         15    1    4    4    0    0  0.71171155310E+01 -0.15242796728E+02  0.10294859120E+02  0.19722583752E+02  0.00000000000E+00 0. -1.
        -16    1    1    2    0    0 -0.46326710275E+03  0.13214845894E+04 -0.16446241535E+04  0.21600292902E+04  0.00000000000E+00 0.  1.
         16    1    4    4    0    0  0.36374514534E+02 -0.17336783250E+03  0.21811486882E+03  0.28098684428E+03  0.00000000000E+00 0. -1.
    9900018    1    3    3    0    0  0.75680834731E+03 -0.13393466688E+04 -0.10643636952E+04  0.18729104698E+04  0.91187600000E+02 0.  0.
<mgrwt>
<rscale>  0 0.41595061E+04</rscale>
<asrwt>0</asrwt>
<pdfrwt beam="1">  1        2 0.58977733E+00 0.41595061E+04</pdfrwt>
<pdfrwt beam="2">  1       -2 0.17358362E+00 0.41595061E+04</pdfrwt>
<totfact> 0.72260858E-02</totfact>
</mgrwt>
</event>
<event>
11    1  0.1019737E-013  0.5538697E+04  0.7818608E-02  0.7750387E-01
          2   -1    0    0  501    0  0.00000000000E+00  0.00000000000E+00  0.20046781347E+04  0.20046781347E+04  0.00000000000E+00 0. -1.
         -2   -1    0    0    0  501 -0.00000000000E+00 -0.00000000000E+00 -0.38256973066E+04  0.38256973066E+04  0.00000000000E+00 0.  1.
    9900016    2    1    2    0    0 -0.32283543711E+02  0.22151594239E+04 -0.28561463756E+03  0.31349273182E+04  0.21995954329E+04 0.  0.
         24    2    3    3    0    0 -0.85516604394E+02 -0.14910921184E+03  0.49683044216E+03  0.53187396871E+03  0.80639839107E+02 0.  0.
        -15    1    4    4    0    0 -0.13459534398E+02 -0.11474914215E+02  0.19047286941E+02  0.25992919464E+02  0.00000000000E+00 0. -1.
        -15    1    4    4    0    0 -0.43531421721E+02 -0.42333926058E+02  0.14094678411E+03  0.15347032913E+03  0.00000000000E+00 0.  1.
         15    1    4    4    0    0 -0.72285704620E+01 -0.34786704418E+02  0.77478084284E+02  0.85236263289E+02  0.00000000000E+00 0.  1.
         15    1    3    3    0    0  0.20523726077E+03  0.15058546355E+04 -0.81775728003E+03  0.17258179178E+04  0.00000000000E+00 0. -1.
        -16    1    1    2    0    0  0.32283543711E+02 -0.22151594239E+04 -0.15354045343E+04  0.26954481231E+04  0.00000000000E+00 0.  1.
         16    1    4    4    0    0 -0.21297077813E+02 -0.60513667148E+02  0.25935828682E+03  0.26717445682E+03  0.00000000000E+00 0. -1.
    9900018    1    3    3    0    0 -0.15200420009E+03  0.85841400024E+03  0.35312200317E+02  0.87723543165E+03  0.91187600000E+02 0.  0.
<mgrwt>
<rscale>  0 0.55386972E+04</rscale>
<asrwt>0</asrwt>
<pdfrwt beam="1">  1        2 0.30841203E+00 0.55386972E+04</pdfrwt>
<pdfrwt beam="2">  1       -2 0.58856881E+00 0.55386972E+04</pdfrwt>
<totfact> 0.26600536E-03</totfact>
</mgrwt>
</event>
<event>
12    1  0.1019737E-013  0.2638574E+04  0.7818608E-02  0.8355215E-01
          2   -1    0    0  501    0  0.00000000000E+00  0.00000000000E+00  0.79591716640E+03  0.79591716640E+03  0.00000000000E+00 0. -1.
         -2   -1    0    0    0  501 -0.00000000000E+00 -0.00000000000E+00 -0.21868086939E+04  0.21868086939E+04  0.00000000000E+00 0.  1.
    9900016    2    1    2    0    0 -0.99487673975E+02  0.38711594421E+03 -0.11897086692E+04  0.25352539685E+04  0.22028048973E+04 0.  0.
        -24    2    3    3    0    0  0.57069025959E+02  0.66230012591E+02  0.60615183258E+03  0.61806597207E+03  0.83319946008E+02 0.  0.
        -24    2    4    4    0    0  0.40314576300E+02  0.45622893620E+02  0.45393543479E+03  0.46108980615E+03  0.53288994107E+02 0.  0.
        -15    1    4    4    0    0  0.51732175076E+01  0.24583853867E+02  0.84260795167E+02  0.87926160228E+02  0.00000000000E+00 0.  1.
        -15    1    3    3    0    0 -0.24944968218E+03  0.10358588315E+03 -0.31555954975E+03  0.41537092889E+03  0.00000000000E+00 0.  1.
         15    1    5    5    0    0  0.31808932261E+02  0.35319042386E+01  0.11247373768E+03  0.11693854876E+03  0.00000000000E+00 0. -1.
         15    1    4    4    0    0  0.11581232151E+02 -0.39767348966E+01  0.67955602620E+02  0.69050005692E+02  0.00000000000E+00 0. -1.
        -16    1    5    5    0    0  0.85056440396E+01  0.42090989382E+02  0.34146169711E+03  0.34415125739E+03  0.00000000000E+00 0.  1.
         16    1    1    2    0    0  0.99487673975E+02 -0.38711594421E+03 -0.20118285829E+03  0.44747189186E+03  0.00000000000E+00 0. -1.
    9900018    1    3    3    0    0  0.92892982241E+02  0.21730004847E+03 -0.14803009521E+04  0.15018170675E+04  0.91187600000E+02 0.  0.
<mgrwt>
<rscale>  0 0.26385743E+04</rscale>
<asrwt>0</asrwt>
<pdfrwt beam="1">  1        2 0.12244880E+00 0.26385743E+04</pdfrwt>
<pdfrwt beam="2">  1       -2 0.33643210E+00 0.26385743E+04</pdfrwt>
<totfact> 0.57895626E-01</totfact>
</mgrwt>
</event>
