<event>
11    1  0.1440454E-011  0.4345418E+04  0.7818608E-02  0.7938273E-01
         -2   -1    0    0    0  501 -0.00000000000E+00  0.00000000000E+00  0.17286598286E+04  0.17286598286E+04  0.00000000000E+00 0.  1.
          2   -1    0    0  501    0  0.00000000000E+00 -0.00000000000E+00 -0.27308234802E+04  0.27308234802E+04  0.00000000000E+00 0. -1.
    9900016    2    1    2    0    0 -0.63125398620E+03 -0.18483175681E+03  0.33151361526E+02  0.22977440918E+04  0.22013369858E+04 0.  0.
        -24    2    3    3    0    0 -0.89668437179E+03 -0.53693568915E+03  0.41114107340E+03  0.11260034275E+04  0.80647006909E+02 0.  0.
        -15    1    3    3    0    0 -0.25218632411E+03  0.50244098118E+03 -0.20418059956E+03  0.59810918641E+03  0.00000000000E+00 0.  1.
        -15    1    1    2    0    0 -0.33343279949E+03 -0.34825363986E+03 -0.29048577844E+03  0.56288543854E+03  0.00000000000E+00 0.  1.
         15    1    4    4    0    0 -0.63577127038E+03 -0.37550278690E+03  0.25077528165E+03  0.77980490707E+03  0.00000000000E+00 0. -1.
         15    1    1    2    0    0  0.79062341302E+03 -0.26433949868E+02 -0.60642117906E+03  0.99676014233E+03  0.00000000000E+00 0. -1.
        -16    1    4    4    0    0 -0.26091310140E+03 -0.16143290225E+03  0.16036579175E+03  0.34619852047E+03  0.00000000000E+00 0.  1.
         16    1    1    2    0    0  0.17406337266E+03  0.55951934653E+03 -0.13840805564E+03  0.60209363617E+03  0.00000000000E+00 0. -1.
    9900018    1    3    3    0    0  0.51761670969E+03 -0.15033704884E+03 -0.17380911231E+03  0.57363147780E+03  0.91187600000E+02 0.  0.
<mgrwt>
<rscale>  0 0.43454182E+04</rscale>
<asrwt>0</asrwt>
<pdfrwt beam="1">  1        2 0.42012669E+00 0.43454182E+04</pdfrwt>
<pdfrwt beam="2">  1       -2 0.26594767E+00 0.43454182E+04</pdfrwt>
<totfact> 0.10018253E-01</totfact>
</mgrwt>
</event>
<event>
11    1  0.1440454E-011  0.3437864E+04  0.7818608E-02  0.8280692E-01
          2   -1    0    0  501    0  0.00000000000E+00  0.00000000000E+00  0.20116696663E+04  0.20116696663E+04  0.00000000000E+00 0.  1.
         -2   -1    0    0    0  501 -0.00000000000E+00 -0.00000000000E+00 -0.33368611822E+04  0.33368611822E+04  0.00000000000E+00 0. -1.
    9900016    2    1    2    0    0 -0.13113229366E+03 -0.82438689893E+02 -0.11299970683E+04  0.24736579390E+04  0.21950167217E+04 0.  0.
         24    2    3    3    0    0  0.81210920939E+03 -0.24698847819E+03 -0.41249557852E+03  0.94704567377E+03  0.78855751687E+02 0.  0.
        -15    1    1    2    0    0 -0.99116880711E+02 -0.25337373707E+03  0.27860122300E+03  0.38941115564E+03  0.00000000000E+00 0.  1.
        -15    1    4    4    0    0  0.22888793323E+03 -0.49235435562E+02 -0.14678901718E+03  0.27633463348E+03  0.00000000000E+00 0.  1.
         15    1    3    3    0    0 -0.69727597761E+03  0.40294186154E+03 -0.95863227797E+02  0.81101522253E+03  0.00000000000E+00 0. -1.
         15    1    1    2    0    0  0.97089559553E+03  0.14725132151E+03 -0.11164747348E+04  0.14868883759E+04  0.00000000000E+00 0. -1.
        -16    1    1    2    0    0 -0.74064642116E+03  0.18856110545E+03  0.64267906419E+03  0.99857337798E+03  0.00000000000E+00 0.  1.
         16    1    4    4    0    0  0.58322127616E+03 -0.19775304263E+03 -0.26570656134E+03  0.67071104029E+03  0.00000000000E+00 0. -1.
    9900018    1    3    3    0    0 -0.24596552544E+03 -0.23839207325E+03 -0.62163826199E+03  0.71559704266E+03  0.91187600000E+02 0.  0.
<mgrwt>
<rscale>  0 0.28738771E+04</rscale>
<asrwt>0</asrwt>
<pdfrwt beam="1">  1        2 0.30948764E+00 0.34378644E+04</pdfrwt>
<pdfrwt beam="2">  1       -2 0.51336326E+00 0.34378644E+04</pdfrwt>
<totfact> 0.70538982E-03</totfact>
</mgrwt>
</event>
<event>
11    1  0.1440454E-011  0.3385144E+04  0.7818608E-02  0.8141562E-01
         -1   -1    0    0    0  501 -0.00000000000E+00  0.00000000000E+00  0.17879541490E+04  0.17879541490E+04  0.00000000000E+00 0.  1.
          1   -1    0    0  501    0  0.00000000000E+00 -0.00000000000E+00 -0.16022786294E+04  0.16022786294E+04  0.00000000000E+00 0. -1.
    9900016    2    1    2    0    0 -0.26881030007E+03  0.26058640565E+03  0.46049111207E+03  0.22692312671E+04  0.21902498093E+04 0.  0.
         24    2    3    3    0    0  0.42410713527E+03 -0.26840701191E+03  0.61210281592E+03  0.79555616049E+03  0.79564822685E+02 0.  0.
        -15    1    1    2    0    0 -0.19884905697E+03  0.14882836450E+03  0.16324510971E+03  0.29722011268E+03  0.00000000000E+00 0.  1.
        -15    1    4    4    0    0  0.20669263978E+03 -0.17384670411E+03  0.35080438289E+03  0.44272817724E+03  0.00000000000E+00 0.  1.
         15    1    1    2    0    0  0.12915069754E+03 -0.31996732694E+03 -0.18277240949E+03  0.39046734391E+03  0.00000000000E+00 0. -1.
         15    1    3    3    0    0 -0.60846767377E+03  0.30365199992E+03 -0.63221402644E+03  0.92851064738E+03  0.00000000000E+00 0. -1.
        -16    1    1    2    0    0  0.33850865950E+03 -0.89447443204E+02 -0.25528829264E+03  0.43331405471E+03  0.00000000000E+00 0.  1.
         16    1    4    4    0    0  0.21741449549E+03 -0.94560307800E+02  0.26129843303E+03  0.35282798325E+03  0.00000000000E+00 0. -1.
    9900018    1    3    3    0    0 -0.84449761573E+02  0.22534141763E+03  0.48060232259E+03  0.54516445922E+03  0.91187600000E+02 0.  0.
<mgrwt>
<rscale>  0 0.33851444E+04</rscale>
<asrwt>0</asrwt>
<pdfrwt beam="1">  1        1 0.24650440E+00 0.33851444E+04</pdfrwt>
<pdfrwt beam="2">  1       -1 0.27506987E+00 0.33851444E+04</pdfrwt>
<totfact> 0.21938097E-01</totfact>
</mgrwt>
</event>
<event>
11    1  0.1440454E-011  0.8016694E+04  0.7818608E-02  0.7480800E-01
          2   -1    0    0  501    0  0.00000000000E+00  0.00000000000E+00  0.41625984893E+04  0.41625984893E+04  0.00000000000E+00 0.  1.
         -2   -1    0    0    0  501 -0.00000000000E+00 -0.00000000000E+00 -0.38598111854E+04  0.38598111854E+04  0.00000000000E+00 0. -1.
    9900016    2    1    2    0    0 -0.65444013484E+02 -0.17088177277E+04  0.30372156630E+03  0.28037139113E+04  0.22009597817E+04 0.  0.
        -24    2    3    3    0    0  0.86843565460E+03 -0.10645839205E+04  0.32459055586E+03  0.14139324292E+04  0.79539144085E+02 0.  0.
        -15    1    1    2    0    0  0.51102655747E+03 -0.86969566190E+03  0.15411807911E+04  0.18419437879E+04  0.00000000000E+00 0.  1.
        -15    1    3    3    0    0 -0.10327025963E+04 -0.67243430404E+03  0.53616661571E+02  0.12334979903E+04  0.00000000000E+00 0.  1.
         15    1    1    2    0    0  0.35414868759E+03  0.19629200602E+04 -0.10046084054E+04  0.22333191674E+04  0.00000000000E+00 0. -1.
         15    1    4    4    0    0  0.38283606007E+03 -0.52563643383E+03  0.17149327605E+03  0.67250803207E+03  0.00000000000E+00 0. -1.
        -16    1    4    4    0    0  0.48559959452E+03 -0.53894748669E+03  0.15309727981E+03  0.74142439715E+03  0.00000000000E+00 0.  1.
         16    1    1    2    0    0 -0.79973123157E+03  0.61559332945E+03 -0.53750664812E+03  0.11434328082E+04  0.00000000000E+00 0. -1.
    9900018    1    3    3    0    0  0.98822928246E+02  0.28200496825E+02 -0.74485651131E+02  0.15628349173E+03  0.91187600000E+02 0.  0.
<mgrwt>
<rscale>  0 0.80166936E+04</rscale>
<asrwt>0</asrwt>
<pdfrwt beam="1">  1        2 0.64039977E+00 0.80166936E+04</pdfrwt>
<pdfrwt beam="2">  1       -2 0.59381711E+00 0.80166936E+04</pdfrwt>
<totfact> 0.79999340E-05</totfact>
</mgrwt>
</event>
<event>
11    1  0.1440454E-011  0.4067628E+04  0.7818608E-02  0.8067935E-01
          2   -1    0    0  501    0  0.00000000000E+00  0.00000000000E+00  0.34193550885E+04  0.34193550885E+04  0.00000000000E+00 0.  1.
         -2   -1    0    0    0  501 -0.00000000000E+00 -0.00000000000E+00 -0.35704764257E+04  0.35704764257E+04  0.00000000000E+00 0. -1.
    9900016    2    1    2    0    0 -0.11784491706E+04 -0.62083914809E+03 -0.17090909640E+03  0.25813593889E+04  0.22045459125E+04 0.  0.
         24    2    3    3    0    0  0.15532079333E+03  0.61022353453E+02  0.51268809829E+03  0.54551354144E+03  0.82991935232E+02 0.  0.
        -15    1    1    2    0    0 -0.40303900690E+03  0.46135047146E+03  0.78297741096E+03  0.99415206315E+03  0.00000000000E+00 0.  1.
        -15    1    4    4    0    0  0.88947829965E+02  0.54041074540E+02  0.19652355674E+03  0.22238179455E+03  0.00000000000E+00 0.  1.
         15    1    3    3    0    0 -0.10168492158E+04  0.10370729852E+03 -0.58626539771E+03  0.11783228115E+04  0.00000000000E+00 0. -1.
         15    1    1    2    0    0  0.53814173056E+03  0.98182100013E+03 -0.15181245864E+04  0.18863380551E+04  0.00000000000E+00 0. -1.
        -16    1    1    2    0    0  0.10433464469E+04 -0.82233232350E+03  0.75493493460E+03  0.15279820071E+04  0.00000000000E+00 0.  1.
         16    1    4    4    0    0  0.66372963364E+02  0.69812789130E+01  0.31616454154E+03  0.32313174689E+03  0.00000000000E+00 0. -1.
    9900018    1    3    3    0    0 -0.31692074804E+03 -0.78556880006E+03 -0.97331796968E+02  0.85752303600E+03  0.91187600000E+02 0.  0.
<mgrwt>
<rscale>  0 0.37001229E+04</rscale>
<asrwt>0</asrwt>
<pdfrwt beam="1">  1        2 0.52605463E+00 0.40676284E+04</pdfrwt>
<pdfrwt beam="2">  1       -2 0.54930407E+00 0.40676284E+04</pdfrwt>
<totfact> 0.57580645E-04</totfact>
</mgrwt>
</event>
<event>
11    1  0.1440454E-011  0.5051317E+04  0.7818608E-02  0.7820640E-01
         -2   -1    0    0    0  501 -0.00000000000E+00  0.00000000000E+00  0.27334289525E+04  0.27334289525E+04  0.00000000000E+00 0.  1.
          2   -1    0    0  501    0  0.00000000000E+00 -0.00000000000E+00 -0.23336808222E+04  0.23336808222E+04  0.00000000000E+00 0. -1.
    9900016    2    1    2    0    0  0.15009970400E+04 -0.10092476246E+03  0.37153755541E+03  0.26915208279E+04  0.22006967738E+04 0.  0.
        -24    2    3    3    0    0  0.13046796018E+03 -0.25869800944E+03 -0.54952274415E+03  0.62601703663E+03  0.77301585277E+02 0.  0.
        -15    1    3    3    0    0  0.77998038353E+03 -0.26106023479E+03  0.10402294117E+04  0.13261218171E+04  0.00000000000E+00 0.  1.
        -15    1    1    2    0    0 -0.16428022945E+04 -0.31600802690E+02 -0.10523573584E+03  0.16464727601E+04  0.00000000000E+00 0.  1.
         15    1    4    4    0    0  0.65708264437E+02 -0.53718606313E+02 -0.15144817861E+03  0.17360822412E+03  0.00000000000E+00 0. -1.
         15    1    1    2    0    0 -0.17824379422E+03  0.29780809952E+03  0.12471908467E+03  0.36880260899E+03  0.00000000000E+00 0. -1.
        -16    1    4    4    0    0  0.64759695744E+02 -0.20497940312E+03 -0.39807456555E+03  0.45240881251E+03  0.00000000000E+00 0.  1.
         16    1    1    2    0    0  0.32004904881E+03 -0.16528253437E+03  0.87272260805E+01  0.36031357772E+03  0.00000000000E+00 0. -1.
    9900018    1    3    3    0    0  0.59054869624E+03  0.41883348176E+03 -0.11916911211E+03  0.73938197419E+03  0.91187600000E+02 0.  0.
<mgrwt>
<rscale>  0 0.50513169E+04</rscale>
<asrwt>0</asrwt>
<pdfrwt beam="1">  1        2 0.35902782E+00 0.50513169E+04</pdfrwt>
<pdfrwt beam="2">  1       -2 0.42052753E+00 0.50513169E+04</pdfrwt>
<totfact> 0.17132030E-02</totfact>
</mgrwt>
</event>
<event>
11    1  0.1440454E-011  0.3500646E+04  0.7818608E-02  0.8324446E-01
         -2   -1    0    0    0  501 -0.00000000000E+00  0.00000000000E+00  0.21178044334E+04  0.21178044334E+04  0.00000000000E+00 0.  1.
          2   -1    0    0  501    0  0.00000000000E+00 -0.00000000000E+00 -0.27880749998E+04  0.27880749998E+04  0.00000000000E+00 0. -1.
    9900016    2    1    2    0    0  0.95353310588E+03  0.34053926742E+03 -0.77154372441E+03  0.25371490923E+04  0.21946875452E+04 0.  0.
         24    2    3    3    0    0  0.28416476843E+03  0.38848353590E+03 -0.52840568899E+03  0.71910962292E+03  0.78974706945E+02 0.  0.
        -15    1    4    4    0    0  0.64012480974E+02  0.82330524437E+02 -0.70320512211E+02  0.12578110912E+03  0.00000000000E+00 0.  1.
        -15    1    1    2    0    0 -0.16536002076E+03 -0.66760514609E+02  0.89085420239E+02  0.19934170380E+03  0.00000000000E+00 0.  1.
         15    1    3    3    0    0  0.10629812602E+04 -0.13561701899E+03 -0.63732578070E+03  0.12467980134E+04  0.00000000000E+00 0. -1.
         15    1    1    2    0    0 -0.93212506352E+03  0.44782557357E+03 -0.61445102195E+03  0.12028943997E+04  0.00000000000E+00 0. -1.
        -16    1    1    2    0    0  0.14395197840E+03 -0.72160432638E+03  0.62663875970E+03  0.96649423749E+03  0.00000000000E+00 0.  1.
         16    1    4    4    0    0  0.22015228746E+03  0.30615301146E+03 -0.45808517678E+03  0.59332851380E+03  0.00000000000E+00 0. -1.
    9900018    1    3    3    0    0 -0.39361292276E+03  0.87672750514E+02  0.39418774528E+03  0.57124145602E+03  0.91187600000E+02 0.  0.
<mgrwt>
<rscale>  0 0.27327833E+04</rscale>
<asrwt>0</asrwt>
<pdfrwt beam="1">  1        2 0.42893462E+00 0.35006455E+04</pdfrwt>
<pdfrwt beam="2">  1       -2 0.32581607E+00 0.35006455E+04</pdfrwt>
<totfact> 0.40751788E-02</totfact>
</mgrwt>
</event>
<event>
11    1  0.1440454E-011  0.4352875E+04  0.7818608E-02  0.7936913E-01
         -2   -1    0    0    0  501 -0.00000000000E+00  0.00000000000E+00  0.22374228200E+04  0.22374228200E+04  0.00000000000E+00 0.  1.
          2   -1    0    0  501    0  0.00000000000E+00 -0.00000000000E+00 -0.21171147259E+04  0.21171147259E+04  0.00000000000E+00 0. -1.
    9900016    2    1    2    0    0  0.18095303310E+03  0.33575140838E+03  0.11063550093E+03  0.22229086171E+04  0.21871464280E+04 0.  0.
         24    2    3    3    0    0 -0.42930879349E+03  0.44229316929E+03 -0.67431964763E+03  0.91722978908E+03  0.81695844590E+02 0.  0.
        -15    1    1    2    0    0 -0.36243409520E+03  0.27369497161E+03  0.48023620353E+03  0.66097974404E+03  0.00000000000E+00 0.  1.
        -15    1    4    4    0    0 -0.33976935540E+03  0.31515779207E+03 -0.46531721917E+03  0.65672502864E+03  0.00000000000E+00 0.  1.
         15    1    1    2    0    0 -0.42580917316E+03 -0.47989179595E+03 -0.54946366174E+03  0.84470107336E+03  0.00000000000E+00 0. -1.
         15    1    3    3    0    0  0.53419808074E+03  0.28221381566E+03  0.30520523767E+03  0.67687699349E+03  0.00000000000E+00 0. -1.
        -16    1    1    2    0    0  0.60729023526E+03 -0.12955458404E+03  0.78900051342E+02  0.62594811142E+03  0.00000000000E+00 0.  1.
         16    1    4    4    0    0 -0.89539438089E+02  0.12713537722E+03 -0.20900242846E+03  0.26050476045E+03  0.00000000000E+00 0. -1.
    9900018    1    3    3    0    0  0.76063745862E+02 -0.38875557658E+03  0.47974991090E+03  0.62880183456E+03  0.91187600000E+02 0.  0.
<mgrwt>
<rscale>  0 0.43528753E+04</rscale>
<asrwt>0</asrwt>
<pdfrwt beam="1">  1        2 0.32570996E+00 0.43528753E+04</pdfrwt>
<pdfrwt beam="2">  1       -2 0.34421890E+00 0.43528753E+04</pdfrwt>
<totfact> 0.74554431E-02</totfact>
</mgrwt>
</event>
<event>
11    1  0.1440454E-011  0.5150327E+04  0.7818608E-02  0.7805727E-01
         -2   -1    0    0    0  501 -0.00000000000E+00  0.00000000000E+00  0.19946363502E+04  0.19946363502E+04  0.00000000000E+00 0. -1.
          2   -1    0    0  501    0  0.00000000000E+00 -0.00000000000E+00 -0.33246500000E+04  0.33246500000E+04  0.00000000000E+00 0.  1.
    9900016    2    1    2    0    0 -0.48210656457E+03 -0.26290429980E+03 -0.39113984835E+03  0.22987040145E+04  0.21976133316E+04 0.  0.
         24    2    3    3    0    0 -0.71383274154E+03 -0.26994964189E+03 -0.52296291554E+03  0.92858146845E+03  0.79645090649E+02 0.  0.
        -15    1    1    2    0    0  0.14698744636E+03  0.22721692903E+01 -0.77604024135E+03  0.78984107790E+03  0.00000000000E+00 0.  1.
        -15    1    4    4    0    0 -0.37871376450E+03 -0.18528587700E+03 -0.28171009510E+03  0.50706562625E+03  0.00000000000E+00 0.  1.
         15    1    3    3    0    0  0.26322905998E+03 -0.21750163555E+03  0.68498540591E+03  0.76537670842E+03  0.00000000000E+00 0. -1.
         15    1    1    2    0    0  0.86179975245E+03 -0.83680072132E+01  0.75039509498E+03  0.11427430312E+04  0.00000000000E+00 0. -1.
        -16    1    1    2    0    0 -0.52668063423E+03  0.26900013772E+03 -0.91322865503E+03  0.10879982265E+04  0.00000000000E+00 0.  1.
         16    1    4    4    0    0 -0.33511897704E+03 -0.84663764880E+02 -0.24125282044E+03  0.42151584220E+03  0.00000000000E+00 0. -1.
    9900018    1    3    3    0    0 -0.31502883013E+02  0.22454697763E+03 -0.55316233872E+03  0.60474583767E+03  0.91187600000E+02 0.  0.
<mgrwt>
<rscale>  0 0.51503273E+04</rscale>
<asrwt>0</asrwt>
<pdfrwt beam="1">  1        2 0.51148461E+00 0.51503273E+04</pdfrwt>
<pdfrwt beam="2">  1       -2 0.30686714E+00 0.51503273E+04</pdfrwt>
<totfact> 0.22222965E-02</totfact>
</mgrwt>
</event>
<event>
11    1  0.1440454E-011  0.4874388E+04  0.7818608E-02  0.7848182E-01
         -2   -1    0    0    0  501 -0.00000000000E+00  0.00000000000E+00  0.17764825378E+04  0.17764825378E+04  0.00000000000E+00 0.  1.
          2   -1    0    0  501    0  0.00000000000E+00 -0.00000000000E+00 -0.33436378721E+04  0.33436378721E+04  0.00000000000E+00 0. -1.
    9900016    2    1    2    0    0  0.99381010424E+03 -0.35810633051E+03 -0.31091006222E+03  0.24591571451E+04  0.21988383593E+04 0.  0.
        -24    2    3    3    0    0  0.73597472634E+03 -0.36465402047E+02  0.17528403854E+03  0.76168625929E+03  0.80330193950E+02 0.  0.
        -15    1    1    2    0    0 -0.19723715540E+03 -0.57788745879E+03  0.62907685148E+02  0.61385160043E+03  0.00000000000E+00 0.  1.
        -15    1    3    3    0    0  0.31630871065E+03 -0.77683412319E+03  0.20438382999E+03  0.86330481602E+03  0.00000000000E+00 0.  1.
         15    1    1    2    0    0 -0.28201528805E+03  0.22211148165E+03 -0.10757588770E+04  0.11340737606E+04  0.00000000000E+00 0. -1.
         15    1    4    4    0    0  0.23925747437E+03 -0.40161624600E+02  0.32023550145E+02  0.24470922111E+03  0.00000000000E+00 0. -1.
        -16    1    4    4    0    0  0.49671725198E+03  0.36962225534E+01  0.14326048839E+03  0.51697703818E+03  0.00000000000E+00 0.  1.
         16    1    1    2    0    0 -0.51455766079E+03  0.71388230765E+03 -0.24339408026E+03  0.91303790379E+03  0.00000000000E+00 0. -1.
    9900018    1    3    3    0    0 -0.58473332759E+02  0.45519319473E+03 -0.69057793075E+03  0.83416606980E+03  0.91187600000E+02 0.  0.
<mgrwt>
<rscale>  0 0.48743879E+04</rscale>
<asrwt>0</asrwt>
<pdfrwt beam="1">  1        2 0.51440582E+00 0.48743879E+04</pdfrwt>
<pdfrwt beam="2">  1       -2 0.27330501E+00 0.48743879E+04</pdfrwt>
<totfact> 0.35372935E-02</totfact>
</mgrwt>
</event>
<event>
11    1  0.1440454E-011  0.4269056E+04  0.7818608E-02  0.7952365E-01
         -2   -1    0    0    0  501 -0.00000000000E+00  0.00000000000E+00  0.14059793597E+04  0.14059793597E+04  0.00000000000E+00 0. -1.
          2   -1    0    0  501    0  0.00000000000E+00 -0.00000000000E+00 -0.32405957387E+04  0.32405957387E+04  0.00000000000E+00 0.  1.
    9900016    2    1    2    0    0 -0.82050616430E+03  0.56325850521E+03 -0.58889705168E+03  0.24922681914E+04  0.22077387732E+04 0.  0.
        -24    2    3    3    0    0 -0.75134202415E+03  0.72866369618E+03  0.36388217135E+03  0.11109064503E+04  0.78976498787E+02 0.  0.
        -15    1    1    2    0    0  0.79415351964E+03 -0.16782217846E+02 -0.12664322014E+04  0.14949287529E+04  0.00000000000E+00 0.  1.
        -15    1    3    3    0    0  0.28800169792E+03 -0.10962593970E+03  0.49389152697E+02  0.31209311601E+03  0.00000000000E+00 0.  1.
         15    1    1    2    0    0  0.17749562111E+03 -0.33159192268E+03 -0.67762735994E+02  0.38216447649E+03  0.00000000000E+00 0. -1.
         15    1    4    4    0    0 -0.57238762900E+03  0.58636191689E+03  0.30925664697E+03  0.87583535502E+03  0.00000000000E+00 0. -1.
        -16    1    4    4    0    0 -0.17895439515E+03  0.14230177929E+03  0.54625524378E+02  0.23507109530E+03  0.00000000000E+00 0.  1.
         16    1    1    2    0    0 -0.15114297646E+03 -0.21488436468E+03  0.88475610035E+02  0.27721367767E+03  0.00000000000E+00 0. -1.
    9900018    1    3    3    0    0 -0.35716583807E+03 -0.55779251271E+02 -0.10021683757E+04  0.10692686250E+04  0.91187600000E+02 0.  0.
<mgrwt>
<rscale>  0 0.42690564E+04</rscale>
<asrwt>0</asrwt>
<pdfrwt beam="1">  1        2 0.49855319E+00 0.42690564E+04</pdfrwt>
<pdfrwt beam="2">  1       -2 0.21630452E+00 0.42690564E+04</pdfrwt>
<totfact> 0.98120280E-02</totfact>
</mgrwt>
</event>
<event>
11    1  0.1440454E-011  0.4588910E+04  0.7818608E-02  0.7895254E-01
         -2   -1    0    0    0  501 -0.00000000000E+00  0.00000000000E+00  0.13273002344E+04  0.13273002344E+04  0.00000000000E+00 0.  1.
          2   -1    0    0  501    0  0.00000000000E+00 -0.00000000000E+00 -0.39663396100E+04  0.39663396100E+04  0.00000000000E+00 0. -1.
    9900016    2    1    2    0    0 -0.32174913874E+03 -0.10136240094E+04 -0.12723823838E+04  0.27600717727E+04  0.22063732955E+04 0.  0.
        -24    2    3    3    0    0  0.12038709937E+03 -0.73915751304E+03  0.15505501964E+03  0.76913900009E+03  0.81767105596E+02 0.  0.
        -15    1    3    3    0    0 -0.25644659651E+03 -0.54718915498E+03 -0.15205141050E+04  0.16361980234E+04  0.00000000000E+00 0.  1.
        -15    1    1    2    0    0  0.64295728878E+03  0.47850200805E+03 -0.15316611976E+04  0.17286828140E+04  0.00000000000E+00 0.  1.
         15    1    1    2    0    0 -0.28726481789E+03  0.13281613651E+03  0.23621748474E+03  0.39491758864E+03  0.00000000000E+00 0. -1.
         15    1    4    4    0    0  0.74589772517E+02 -0.63656250327E+03  0.13584270355E+03  0.65515547379E+03  0.00000000000E+00 0. -1.
        -16    1    4    4    0    0  0.45797326849E+02 -0.10259500978E+03  0.19212316091E+02  0.11398352630E+03  0.00000000000E+00 0.  1.
         16    1    1    2    0    0 -0.33943332150E+02  0.40230586488E+03 -0.71213278936E+02  0.40996766922E+03  0.00000000000E+00 0. -1.
    9900018    1    3    3    0    0 -0.18568964160E+03  0.27272265859E+03  0.93076701628E+02  0.35473474919E+03  0.91187600000E+02 0.  0.
<mgrwt>
<rscale>  0 0.45889099E+04</rscale>
<asrwt>0</asrwt>
<pdfrwt beam="1">  1        2 0.61020608E+00 0.45889099E+04</pdfrwt>
<pdfrwt beam="2">  1       -2 0.20420004E+00 0.45889099E+04</pdfrwt>
<totfact> 0.34063305E-02</totfact>
</mgrwt>
</event>
<event>
11    1  0.1440454E-011  0.4646331E+04  0.7818608E-02  0.7885508E-01
          2   -1    0    0  501    0  0.00000000000E+00  0.00000000000E+00  0.27033025045E+04  0.27033025045E+04  0.00000000000E+00 0. -1.
         -2   -1    0    0    0  501 -0.00000000000E+00 -0.00000000000E+00 -0.19964834473E+04  0.19964834473E+04  0.00000000000E+00 0.  1.
    9900016    2    1    2    0    0 -0.11271551232E+04  0.54969967978E+03  0.69755479000E+03  0.25940471927E+04  0.21609835130E+04 0.  0.
        -24    2    3    3    0    0  0.12010595604E+03 -0.34955948916E+03  0.86487248003E+03  0.94385604152E+03  0.79009766806E+02 0.  0.
        -15    1    1    2    0    0  0.54435914360E+03 -0.83121144851E+03 -0.49615673740E+03  0.11105903193E+04  0.00000000000E+00 0.  1.
        -15    1    3    3    0    0 -0.11117220131E+04  0.51976268694E+03 -0.15361602066E+03  0.12368011024E+04  0.00000000000E+00 0.  1.
         15    1    4    4    0    0  0.68529430604E+02 -0.15785573405E+03  0.31034534498E+03  0.35486469081E+03  0.00000000000E+00 0. -1.
         15    1    1    2    0    0 -0.32476114846E+02  0.15546643700E+03  0.29097169343E+03  0.33149515449E+03  0.00000000000E+00 0. -1.
        -16    1    4    4    0    0  0.51576525433E+02 -0.19170375511E+03  0.55452713505E+03  0.58899135071E+03  0.00000000000E+00 0.  1.
         16    1    1    2    0    0  0.61527209446E+03  0.12604533173E+03  0.21444931123E+03  0.66365328520E+03  0.00000000000E+00 0. -1.
    9900018    1    3    3    0    0 -0.13553906613E+03  0.37949648200E+03 -0.13701669369E+02  0.41339004879E+03  0.91187600000E+02 0.  0.
<mgrwt>
<rscale>  0 0.46463313E+04</rscale>
<asrwt>0</asrwt>
<pdfrwt beam="1">  1        2 0.41589269E+00 0.46463313E+04</pdfrwt>
<pdfrwt beam="2">  1       -2 0.30715130E+00 0.46463313E+04</pdfrwt>
<totfact> 0.56865268E-02</totfact>
</mgrwt>
</event>
<event>
11    1  0.1440454E-011  0.4352133E+04  0.7818608E-02  0.7937048E-01
          2   -1    0    0  501    0  0.00000000000E+00  0.00000000000E+00  0.24134619706E+04  0.24134619706E+04  0.00000000000E+00 0. -1.
         -2   -1    0    0    0  501 -0.00000000000E+00 -0.00000000000E+00 -0.19620222102E+04  0.19620222102E+04  0.00000000000E+00 0.  1.
    9900016    2    1    2    0    0  0.49414788639E+02 -0.20390009734E+03 -0.84877432630E+02  0.21998507615E+04  0.21881778088E+04 0.  0.
         24    2    3    3    0    0  0.33438359646E+03  0.30062349612E+03  0.68793210235E+03  0.82553030659E+03  0.77864200082E+02 0.  0.
        -15    1    1    2    0    0 -0.62398935226E+03  0.12239395491E+03  0.62288008536E+03  0.89012504327E+03  0.00000000000E+00 0.  1.
        -15    1    4    4    0    0  0.23072583178E+03  0.20279130988E+03  0.53164868155E+03  0.61401062320E+03  0.00000000000E+00 0.  1.
         15    1    1    2    0    0  0.71424410665E+03 -0.31347826203E+03  0.16439411764E+03  0.79714408394E+03  0.00000000000E+00 0. -1.
         15    1    3    3    0    0  0.24394628859E+03 -0.37816786798E+03 -0.67962010832E+03  0.81510994334E+03  0.00000000000E+00 0. -1.
        -16    1    1    2    0    0 -0.13966954303E+03  0.39498440447E+03 -0.25095700994E+03  0.48836429216E+03  0.00000000000E+00 0.  1.
         16    1    4    4    0    0  0.10365776468E+03  0.97832186237E+02  0.15628342080E+03  0.21151968338E+03  0.00000000000E+00 0. -1.
    9900018    1    3    3    0    0 -0.52891509641E+03 -0.12635572548E+03 -0.93189426651E+02  0.55921051153E+03  0.91187600000E+02 0.  0.
<mgrwt>
<rscale>  0 0.43521333E+04</rscale>
<asrwt>0</asrwt>
<pdfrwt beam="1">  1        2 0.37130184E+00 0.43521333E+04</pdfrwt>
<pdfrwt beam="2">  1       -2 0.30184957E+00 0.43521333E+04</pdfrwt>
<totfact> 0.92733397E-02</totfact>
</mgrwt>
</event>
<event>
11    1  0.1440454E-011  0.5269354E+04  0.7818608E-02  0.7788249E-01
          2   -1    0    0  501    0  0.00000000000E+00  0.00000000000E+00  0.38631307215E+04  0.38631307215E+04  0.00000000000E+00 0. -1.
         -2   -1    0    0    0  501 -0.00000000000E+00 -0.00000000000E+00 -0.17968646934E+04  0.17968646934E+04  0.00000000000E+00 0.  1.
    9900016    2    1    2    0    0 -0.10530791464E+04  0.14399506718E+03  0.35199790696E+03  0.24593476507E+04  0.21896981692E+04 0.  0.
        -24    2    3    3    0    0 -0.13594831257E+04 -0.65924276246E+03  0.37722152221E+03  0.15593684576E+04  0.80861120326E+02 0.  0.
        -15    1    1    2    0    0 -0.18560831374E+03 -0.27208022471E+03 -0.13250353588E+03  0.35501448116E+03  0.00000000000E+00 0.  1.
        -15    1    3    3    0    0  0.23459275180E+03  0.54612053890E+03 -0.11199508425E+03  0.60483411039E+03  0.00000000000E+00 0.  1.
         15    1    1    2    0    0  0.44314117968E+03 -0.25694835941E+03  0.18925266282E+04  0.19606258193E+04  0.00000000000E+00 0. -1.
         15    1    4    4    0    0 -0.10016212454E+04 -0.47754980615E+03  0.24074840074E+03  0.11354552959E+04  0.00000000000E+00 0. -1.
        -16    1    4    4    0    0 -0.35786188031E+03 -0.18169295631E+03  0.13647312147E+03  0.42391316167E+03  0.00000000000E+00 0.  1.
         16    1    1    2    0    0  0.79554628048E+03  0.38503351694E+03 -0.45754971181E+02  0.88500746378E+03  0.00000000000E+00 0. -1.
    9900018    1    3    3    0    0  0.71811227514E+02  0.25711729074E+03  0.86771468991E+02  0.29514508266E+03  0.91187600000E+02 0.  0.
<mgrwt>
<rscale>  0 0.52693541E+04</rscale>
<asrwt>0</asrwt>
<pdfrwt beam="1">  1        2 0.59432780E+00 0.52693541E+04</pdfrwt>
<pdfrwt beam="2">  1       -2 0.27644072E+00 0.52693541E+04</pdfrwt>
<totfact> 0.13803302E-02</totfact>
</mgrwt>
</event>
<event>
11    1  0.1440454E-011  0.4872896E+04  0.7818608E-02  0.7848419E-01
         -2   -1    0    0    0  501 -0.00000000000E+00  0.00000000000E+00  0.15833266070E+04  0.15833266070E+04  0.00000000000E+00 0.  1.
          2   -1    0    0  501    0  0.00000000000E+00 -0.00000000000E+00 -0.37492449828E+04  0.37492449828E+04  0.00000000000E+00 0. -1.
    9900016    2    1    2    0    0 -0.20844946180E+03  0.12652737784E+04 -0.94561224154E+03  0.27447512110E+04  0.22349737776E+04 0.  0.
         24    2    3    3    0    0  0.11858739845E+03  0.47034403019E+03 -0.15037705078E+04  0.15820884883E+04  0.79948525479E+02 0.  0.
        -15    1    4    4    0    0  0.50038114012E+02  0.16343744128E+03 -0.65502434533E+03  0.67695827275E+03  0.00000000000E+00 0.  1.
        -15    1    1    2    0    0  0.53486400208E+01 -0.58302616257E+03 -0.79181450344E+02  0.58840276705E+03  0.00000000000E+00 0.  1.
         15    1    1    2    0    0 -0.29909768110E+03 -0.56277808471E+03 -0.13095691624E+04  0.14564168313E+04  0.00000000000E+00 0. -1.
         15    1    3    3    0    0  0.37433940481E+02  0.58589364310E+03  0.36518914907E+03  0.69140131294E+03  0.00000000000E+00 0. -1.
        -16    1    1    2    0    0  0.50219850288E+03 -0.11946953113E+03  0.16844447851E+03  0.54300078039E+03  0.00000000000E+00 0.  1.
         16    1    4    4    0    0  0.68549284438E+02  0.30690658891E+03 -0.84874616247E+03  0.90513021550E+03  0.00000000000E+00 0. -1.
    9900018    1    3    3    0    0 -0.36447080073E+03  0.20903610512E+03  0.19296911719E+03  0.47126140985E+03  0.91187600000E+02 0.  0.
<mgrwt>
<rscale>  0 0.48728962E+04</rscale>
<asrwt>0</asrwt>
<pdfrwt beam="1">  1        2 0.57680691E+00 0.48728962E+04</pdfrwt>
<pdfrwt beam="2">  1       -2 0.24358871E+00 0.48728962E+04</pdfrwt>
<totfact> 0.27681252E-02</totfact>
</mgrwt>
</event>
<event>
11    1  0.1440454E-011  0.3675018E+04  0.7818608E-02  0.8160192E-01
         -2   -1    0    0    0  501 -0.00000000000E+00  0.00000000000E+00  0.31833739757E+04  0.31833739757E+04  0.00000000000E+00 0.  1.
          2   -1    0    0  501    0  0.00000000000E+00 -0.00000000000E+00 -0.29758537738E+04  0.29758537738E+04  0.00000000000E+00 0. -1.
    9900016    2    1    2    0    0 -0.98401873006E+03  0.43465972609E+03 -0.86848693149E+01  0.24450977963E+04  0.21957244517E+04 0.  0.
        -24    2    3    3    0    0 -0.40207719932E+03 -0.54998285438E+03  0.58140834728E+03  0.89917937683E+03  0.79628331108E+02 0.  0.
        -15    1    1    2    0    0  0.10424741722E+04  0.76037561152E+03  0.38434525192E+03  0.13463449569E+04  0.00000000000E+00 0.  1.
        -15    1    3    3    0    0 -0.19113076455E+03  0.79484928895E+03 -0.12710566596E+02  0.81760499008E+03  0.00000000000E+00 0.  1.
         15    1    4    4    0    0 -0.24636762109E+03 -0.39226303177E+03  0.36938652415E+03  0.59246408755E+03  0.00000000000E+00 0. -1.
         15    1    1    2    0    0  0.73634878047E+03 -0.37396607509E+03 -0.72284140571E+03  0.10975244187E+04  0.00000000000E+00 0. -1.
        -16    1    4    4    0    0 -0.15570957823E+03 -0.15771982261E+03  0.21202182314E+03  0.30671528929E+03  0.00000000000E+00 0.  1.
         16    1    1    2    0    0 -0.79480422261E+03 -0.82106926252E+03  0.55470122500E+03  0.12702605777E+04  0.00000000000E+00 0. -1.
    9900018    1    3    3    0    0 -0.39081076620E+03  0.18979329152E+03 -0.57738265000E+03  0.72831342937E+03  0.91187600000E+02 0.  0.
<mgrwt>
<rscale>  0 0.33106439E+04</rscale>
<asrwt>0</asrwt>
<pdfrwt beam="1">  1        2 0.45782366E+00 0.36750175E+04</pdfrwt>
<pdfrwt beam="2">  1       -2 0.48974984E+00 0.36750175E+04</pdfrwt>
<totfact> 0.26026030E-03</totfact>
</mgrwt>
</event>
