<event>
11    1  0.1875766E-010  0.3229459E+04  0.7818608E-02  0.8181080E-01
          2   -1    0    0  501    0  0.00000000000E+00  0.00000000000E+00  0.39016962224E+04  0.39016962224E+04  0.00000000000E+00 0. -1.
         -2   -1    0    0    0  501 -0.00000000000E+00 -0.00000000000E+00 -0.66826088500E+03  0.66826088500E+03  0.00000000000E+00 0.  1.
    9900016    2    1    2    0    0  0.77440927656E+03 -0.30835619658E+03  0.27269437219E+04  0.35945971594E+04  0.21886327706E+04 0.  0.
        -24    2    3    3    0    0 -0.11571826172E+03  0.34942089692E+03  0.54924298233E+03  0.66435189794E+03  0.64883829735E+02 0.  0.
        -15    1    3    3    0    0  0.76341909588E+03 -0.22179344193E+03  0.38710111194E+03  0.88422187131E+03  0.00000000000E+00 0.  1.
        -15    1    3    3    0    0 -0.45382570968E+02 -0.14647709130E+03  0.80083595427E+03  0.81538539456E+03  0.00000000000E+00 0.  1.
         15    1    4    4    0    0 -0.14176280037E+02  0.33164496315E+02  0.25534977232E+02  0.44191467432E+02  0.00000000000E+00 0. -1.
         15    1    3    3    0    0  0.47834126247E+02 -0.24410069653E+03  0.10343919742E+04  0.10638796972E+04  0.00000000000E+00 0. -1.
        -16    1    4    4    0    0 -0.10154198168E+03  0.31625640061E+03  0.52370800510E+03  0.62016043051E+03  0.00000000000E+00 0.  1.
         16    1    1    2    0    0 -0.77440927656E+03  0.30835619658E+03  0.50649161557E+03  0.97535994803E+03  0.00000000000E+00 0. -1.
    9900018    1    3    3    0    0  0.12425688711E+03 -0.45405863731E+02 -0.44628300907E+02  0.16675829842E+03  0.91187600000E+02 0.  0.
<mgrwt>
<rscale>  0 0.32294588E+04</rscale>
<asrwt>0</asrwt>
<pdfrwt beam="1">  1        2 0.60026094E+00 0.32294588E+04</pdfrwt>
<pdfrwt beam="2">  1       -2 0.10280937E+00 0.32294588E+04</pdfrwt>
<totfact> 0.26571499E-01</totfact>
</mgrwt>
</event>
<event>
10    1  0.1875766E-010  0.3426595E+04  0.7818608E-02  0.8131410E-01
         -1   -1    0    0    0  501 -0.00000000000E+00  0.00000000000E+00  0.13189655040E+04  0.13189655040E+04  0.00000000000E+00 0.  1.
          1   -1    0    0  501    0  0.00000000000E+00 -0.00000000000E+00 -0.22255230308E+04  0.22255230308E+04  0.00000000000E+00 0. -1.
    9900016    2    1    2    0    0  0.58377659043E+03 -0.71686022205E+03 -0.10421084375E+04  0.26101129492E+04  0.22072643535E+04 0.  0.
        -15    1    3    3    0    0  0.43920282116E+02  0.16406311171E+03 -0.17559748030E+02  0.17074554330E+03  0.00000000000E+00 0.  1.
        -15    1    3    3    0    0 -0.67116584417E+02  0.71173367929E+00 -0.13937244333E+03  0.15469266443E+03  0.00000000000E+00 0.  1.
         15    1    3    3    0    0  0.56747219239E+03 -0.58278343800E+03 -0.52197773029E+03  0.96649985808E+03  0.00000000000E+00 0. -1.
         15    1    3    3    0    0 -0.25401114954E+03 -0.93770333320E+02 -0.46117152931E+03  0.53478380580E+03  0.00000000000E+00 0. -1.
        -16    1    1    2    0    0 -0.58377659043E+03  0.71686022205E+03  0.13555091077E+03  0.93437558556E+03  0.00000000000E+00 0.  1.
         16    1    3    3    0    0  0.41853718349E+03 -0.17385689168E+03 -0.16027335575E+03  0.48071523932E+03  0.00000000000E+00 0. -1.
    9900018    1    3    3    0    0 -0.12502533363E+03 -0.31224404443E+02  0.25824636917E+03  0.30267583826E+03  0.91187600000E+02 0.  0.
<mgrwt>
<rscale>  0 0.34265949E+04</rscale>
<asrwt>0</asrwt>
<pdfrwt beam="1">  1        1 0.34238816E+00 0.34265949E+04</pdfrwt>
<pdfrwt beam="2">  1       -1 0.20291777E+00 0.34265949E+04</pdfrwt>
<totfact> 0.24687184E-01</totfact>
</mgrwt>
</event>
<event>
11    1  0.1875766E-010  0.2496059E+04  0.7818608E-02  0.8404391E-01
          2   -1    0    0  501    0  0.00000000000E+00  0.00000000000E+00  0.20654284876E+04  0.20654284876E+04  0.00000000000E+00 0.  1.
         -2   -1    0    0    0  501 -0.00000000000E+00 -0.00000000000E+00 -0.75411817624E+03  0.75411817624E+03  0.00000000000E+00 0. -1.
    9900016    2    1    2    0    0 -0.81051542543E+01  0.88124301171E+02  0.85760633032E+03  0.23572925255E+04  0.21939707945E+04 0.  0.
         24    2    3    3    0    0  0.35404917368E+03 -0.69140511237E+03  0.26382693897E+03  0.82658162278E+03  0.10119623806E+03 0.  0.
        -15    1    3    3    0    0 -0.55132916302E+02  0.64751862136E+02  0.31000132435E+03  0.32145491629E+03  0.00000000000E+00 0. -1.
        -15    1    4    4    0    0  0.23155214945E+03 -0.34314403286E+03  0.14898075518E+03  0.43995396420E+03  0.00000000000E+00 0.  1.
         15    1    3    3    0    0  0.82625977489E+02  0.18711098140E+03  0.88668954287E+02  0.22293441854E+03  0.00000000000E+00 0. -1.
         15    1    3    3    0    0 -0.92535126152E+02  0.32107331317E+01  0.34610276437E+03  0.35827389227E+03  0.00000000000E+00 0.  1.
        -16    1    1    2    0    0  0.81051542543E+01 -0.88124301171E+02  0.45370398107E+03  0.46225413835E+03  0.00000000000E+00 0.  1.
         16    1    4    4    0    0  0.12249702423E+03 -0.34826107951E+03  0.11484618379E+03  0.38662765858E+03  0.00000000000E+00 0. -1.
    9900018    1    3    3    0    0 -0.29711226297E+03  0.52445583688E+03 -0.15099365165E+03  0.62804767564E+03  0.91187600000E+02 0.  0.
<mgrwt>
<rscale>  0 0.24960586E+04</rscale>
<asrwt>0</asrwt>
<pdfrwt beam="1">  1        2 0.31775823E+00 0.24960586E+04</pdfrwt>
<pdfrwt beam="2">  1       -2 0.11601818E+00 0.24960586E+04</pdfrwt>
<totfact> 0.31626152E+00</totfact>
</mgrwt>
</event>
<event>
11    1  0.1875766E-010  0.2824183E+04  0.7818608E-02  0.8295800E-01
          1   -1    0    0  501    0  0.00000000000E+00  0.00000000000E+00  0.30487215663E+04  0.30487215663E+04  0.00000000000E+00 0. -1.
         -1   -1    0    0    0  501 -0.00000000000E+00 -0.00000000000E+00 -0.65404547171E+03  0.65404547171E+03  0.00000000000E+00 0.  1.
    9900016    2    1    2    0    0 -0.45817278260E+03  0.46496991823E+02  0.23263380944E+04  0.32371981911E+04  0.22035242068E+04 0.  0.
         24    2    3    3    0    0 -0.58239575105E+03 -0.36806859595E+03  0.53231253843E+03  0.87581989412E+03  0.95102819155E+02 0.  0.
        -15    1    3    3    0    0  0.33923480514E+03 -0.14419498008E+03  0.47082464861E+03  0.59795342213E+03  0.00000000000E+00 0.  1.
        -15    1    4    4    0    0 -0.13576477209E+03 -0.12087582007E+03  0.10376284518E+03  0.20930782416E+03  0.00000000000E+00 0.  1.
         15    1    3    3    0    0 -0.14694769475E+03 -0.10477352466E+03  0.36822710230E+03  0.41007598727E+03  0.00000000000E+00 0. -1.
         15    1    3    3    0    0  0.25464338161E+03  0.63940163785E+02  0.18346646979E+03  0.32029914436E+03  0.00000000000E+00 0. -1.
        -16    1    1    2    0    0  0.45817278260E+03 -0.46496991823E+02  0.68338000173E+02  0.46556884693E+03  0.00000000000E+00 0.  1.
         16    1    4    4    0    0 -0.44663097896E+03 -0.24719277588E+03  0.42854969325E+03  0.66651206996E+03  0.00000000000E+00 0. -1.
    9900018    1    3    3    0    0 -0.32270752355E+03  0.59959392873E+03  0.77150733525E+03  0.10330497432E+04  0.91187600000E+02 0.  0.
<mgrwt>
<rscale>  0 0.28241831E+04</rscale>
<asrwt>0</asrwt>
<pdfrwt beam="1">  1        1 0.46903408E+00 0.28241831E+04</pdfrwt>
<pdfrwt beam="2">  1       -1 0.10062238E+00 0.28241831E+04</pdfrwt>
<totfact> 0.44668031E-01</totfact>
</mgrwt>
</event>
<event>
11    1  0.1875766E-010  0.4042640E+04  0.7818608E-02  0.7995999E-01
         -2   -1    0    0    0  501 -0.00000000000E+00  0.00000000000E+00  0.21269912541E+04  0.21269912541E+04  0.00000000000E+00 0.  1.
          2   -1    0    0  501    0  0.00000000000E+00 -0.00000000000E+00 -0.19208989226E+04  0.19208989226E+04  0.00000000000E+00 0. -1.
    9900016    2    1    2    0    0  0.12495601035E+04  0.43330749052E+02 -0.53591507757E+03  0.25939806193E+04  0.22086766347E+04 0.  0.
         24    2    3    3    0    0  0.27849649399E+03  0.20114819269E+03  0.26394860995E+03  0.43829387060E+03  0.66421048801E+02 0.  0.
        -15    1    3    3    0    0  0.39914845967E+03 -0.19746184464E+03  0.40096480041E+03  0.59923571666E+03  0.00000000000E+00 0.  1.
        -15    1    4    4    0    0  0.58084285369E+02  0.31599099986E+02  0.21986430577E+02  0.69682784504E+02  0.00000000000E+00 0.  1.
         15    1    3    3    0    0  0.41250962188E+03  0.21830421374E+03 -0.80696620829E+03  0.93220994373E+03  0.00000000000E+00 0. -1.
         15    1    3    3    0    0 -0.78318342741E+01 -0.25135995272E+03 -0.10937199842E+03  0.27423602517E+03  0.00000000000E+00 0. -1.
        -16    1    1    2    0    0 -0.12495601035E+04 -0.43330749052E+02  0.74200740904E+03  0.14539095575E+04  0.00000000000E+00 0.  1.
         16    1    4    4    0    0  0.22041220862E+03  0.16954909270E+03  0.24196217937E+03  0.36861108610E+03  0.00000000000E+00 0. -1.
    9900018    1    3    3    0    0  0.16723736228E+03  0.72700139984E+02 -0.28449028123E+03  0.35000506311E+03  0.91187600000E+02 0.  0.
<mgrwt>
<rscale>  0 0.40426403E+04</rscale>
<asrwt>0</asrwt>
<pdfrwt beam="1">  1        2 0.29552291E+00 0.40426403E+04</pdfrwt>
<pdfrwt beam="2">  1       -2 0.32722942E+00 0.40426403E+04</pdfrwt>
<totfact> 0.12552370E-01</totfact>
</mgrwt>
</event>
<event>
11    1  0.1875766E-010  0.2875261E+04  0.7818608E-02  0.8280276E-01
          2   -1    0    0  501    0  0.00000000000E+00  0.00000000000E+00  0.13117507159E+04  0.13117507159E+04  0.00000000000E+00 0.  1.
         -2   -1    0    0    0  501 -0.00000000000E+00 -0.00000000000E+00 -0.15755902185E+04  0.15755902185E+04  0.00000000000E+00 0. -1.
    9900016    2    1    2    0    0  0.26158905757E+03  0.95224270798E+02 -0.74282138219E+03  0.23333371999E+04  0.21943523842E+04 0.  0.
         24    2    3    3    0    0 -0.17801759449E+03  0.69343521952E+03 -0.22608161043E+03  0.75379026823E+03  0.67410728288E+02 0.  0.
        -15    1    3    3    0    0  0.23752547974E+03 -0.82232607869E+01  0.17609638128E+03  0.29579707748E+03  0.00000000000E+00 0.  1.
        -15    1    4    4    0    0 -0.43089642832E+01  0.46558132664E+02 -0.31234963737E+02  0.56230328561E+02  0.00000000000E+00 0.  1.
         15    1    3    3    0    0  0.27804231981E+03 -0.21508958550E+03 -0.15811985411E+03  0.38545161779E+03  0.00000000000E+00 0. -1.
         15    1    3    3    0    0 -0.61653713712E+02 -0.21389983414E+03  0.94832529497E+02  0.24196596477E+03  0.00000000000E+00 0. -1.
        -16    1    1    2    0    0 -0.26158905757E+03 -0.95224270798E+02  0.47898187966E+03  0.55400373449E+03  0.00000000000E+00 0.  1.
         16    1    4    4    0    0 -0.17370863020E+03  0.64687708686E+03 -0.19484664670E+03  0.69755993967E+03  0.00000000000E+00 0. -1.
    9900018    1    3    3    0    0 -0.14307433783E+02 -0.16099826830E+03 -0.62954882843E+03  0.65633227166E+03  0.91187600000E+02 0.  0.
<mgrwt>
<rscale>  0 0.28752611E+04</rscale>
<asrwt>0</asrwt>
<pdfrwt beam="1">  1        2 0.20180780E+00 0.28752611E+04</pdfrwt>
<pdfrwt beam="2">  1       -2 0.24239850E+00 0.28752611E+04</pdfrwt>
<totfact> 0.10074295E+00</totfact>
</mgrwt>
</event>
<event>
10    1  0.1875766E-010  0.3013677E+04  0.7818608E-02  0.8239836E-01
         -1   -1    0    0    0  501 -0.00000000000E+00  0.00000000000E+00  0.95521983459E+03  0.95521983459E+03  0.00000000000E+00 0.  1.
          1   -1    0    0  501    0  0.00000000000E+00 -0.00000000000E+00 -0.23770052450E+04  0.23770052450E+04  0.00000000000E+00 0. -1.
    9900016    2    1    2    0    0  0.33992103026E+03  0.37179522690E+02 -0.17685758392E+04  0.28452012350E+04  0.22023580420E+04 0.  0.
        -15    1    3    3    0    0  0.45593603818E+02  0.20528972198E+03 -0.18626123305E+03  0.28091972803E+03  0.00000000000E+00 0.  1.
        -15    1    3    3    0    0  0.14686735845E+03 -0.29788149795E+03 -0.91460900720E+03  0.97304318705E+03  0.00000000000E+00 0.  1.
         15    1    3    3    0    0  0.50969052628E+02 -0.60345742695E+03 -0.14475911743E+03  0.62266677489E+03  0.00000000000E+00 0. -1.
         15    1    3    3    0    0 -0.10845819504E+02  0.11981394789E+03  0.61242731343E+01  0.12045962241E+03  0.00000000000E+00 0. -1.
        -16    1    1    2    0    0 -0.33992103026E+03 -0.37179522690E+02  0.34679042876E+03  0.48702384459E+03  0.00000000000E+00 0.  1.
         16    1    3    3    0    0  0.10910883877E+03  0.48773075154E+03 -0.45575077106E+03  0.67638361158E+03  0.00000000000E+00 0. -1.
    9900018    1    3    3    0    0 -0.17720039034E+01  0.12568402619E+03 -0.73319983586E+02  0.17172831107E+03  0.91187600000E+02 0.  0.
<mgrwt>
<rscale>  0 0.30136772E+04</rscale>
<asrwt>0</asrwt>
<pdfrwt beam="1">  1        1 0.36569311E+00 0.30136772E+04</pdfrwt>
<pdfrwt beam="2">  1       -1 0.14695690E+00 0.30136772E+04</pdfrwt>
<totfact> 0.51622117E-01</totfact>
</mgrwt>
</event>
<event>
11    1  0.1875766E-010  0.2679170E+04  0.7818608E-02  0.8341795E-01
         -2   -1    0    0    0  501 -0.00000000000E+00  0.00000000000E+00  0.18600217110E+04  0.18600217110E+04  0.00000000000E+00 0. -1.
          2   -1    0    0  501    0  0.00000000000E+00 -0.00000000000E+00 -0.96476748214E+03  0.96476748214E+03  0.00000000000E+00 0.  1.
    9900016    2    1    2    0    0  0.32104063450E+03  0.16505488529E+03  0.48938401627E+03  0.22816125795E+04  0.21990791353E+04 0.  0.
        -24    2    3    3    0    0 -0.18538731158E+03  0.51144398275E+03 -0.22405257224E+02  0.55317181181E+03  0.97742800476E+02 0.  0.
        -15    1    3    3    0    0  0.12443742278E+03  0.83517401852E+01 -0.11052620005E+03  0.16664472584E+03  0.00000000000E+00 0.  1.
        -15    1    3    3    0    0  0.18799371763E+03  0.27674321673E+03  0.28439596992E+03  0.43910080116E+03  0.00000000000E+00 0.  1.
         15    1    4    4    0    0 -0.12161275914E+03  0.32640107435E+03  0.32660670480E+02  0.34984860142E+03  0.00000000000E+00 0. -1.
         15    1    3    3    0    0 -0.24912330121E+03  0.11760168506E+02  0.20982567613E+03  0.32592565890E+03  0.00000000000E+00 0. -1.
        -16    1    4    4    0    0 -0.63774552444E+02  0.18504290840E+03 -0.55065927704E+02  0.20332321039E+03  0.00000000000E+00 0.  1.
         16    1    1    2    0    0 -0.32104063450E+03 -0.16505488529E+03  0.40587021256E+03  0.54317661364E+03  0.00000000000E+00 0. -1.
    9900018    1    3    3    0    0  0.44312010689E+03 -0.64324422288E+03  0.12809382750E+03  0.79676958177E+03  0.91187600000E+02 0.  0.
<mgrwt>
<rscale>  0 0.26791704E+04</rscale>
<asrwt>0</asrwt>
<pdfrwt beam="1">  1        2 0.14842577E+00 0.26791704E+04</pdfrwt>
<pdfrwt beam="2">  1       -2 0.28615718E+00 0.26791704E+04</pdfrwt>
<totfact> 0.90112870E-01</totfact>
</mgrwt>
</event>
<event>
11    1  0.1875766E-010  0.2832997E+04  0.7818608E-02  0.8293097E-01
         -2   -1    0    0    0  501 -0.00000000000E+00  0.00000000000E+00  0.18544361417E+04  0.18544361417E+04  0.00000000000E+00 0.  1.
          2   -1    0    0  501    0  0.00000000000E+00 -0.00000000000E+00 -0.10819828335E+04  0.10819828335E+04  0.00000000000E+00 0. -1.
    9900016    2    1    2    0    0  0.40950301174E+03 -0.65679028227E+02  0.10139850741E+04  0.24564772649E+04  0.21986605857E+04 0.  0.
        -24    2    3    3    0    0  0.16007163323E+03 -0.10969518020E+03  0.38364565714E+03  0.44128386596E+03  0.99456019408E+02 0.  0.
        -15    1    3    3    0    0 -0.15814656042E+03  0.41668127526E+03  0.42075578752E+03  0.61291847130E+03  0.00000000000E+00 0.  1.
        -15    1    3    3    0    0 -0.10048922517E+02 -0.46850991017E+02 -0.23401886472E+03  0.23887407823E+03  0.00000000000E+00 0.  1.
         15    1    3    3    0    0  0.91116049742E+02  0.18690533660E+03 -0.18926621280E+03  0.28117154670E+03  0.00000000000E+00 0. -1.
         15    1    4    4    0    0  0.71401634528E+02  0.63911437907E+01  0.11577585136E+03  0.13617300720E+03  0.00000000000E+00 0. -1.
        -16    1    4    4    0    0  0.88669998700E+02 -0.11608632400E+03  0.26786980578E+03  0.30511085876E+03  0.00000000000E+00 0.  1.
         16    1    1    2    0    0 -0.40950301174E+03  0.65679028227E+02 -0.24153176583E+03  0.47994171029E+03  0.00000000000E+00 0. -1.
    9900018    1    3    3    0    0  0.32651081172E+03 -0.51271946887E+03  0.63286870696E+03  0.88222930271E+03  0.91187600000E+02 0.  0.
<mgrwt>
<rscale>  0 0.28329970E+04</rscale>
<asrwt>0</asrwt>
<pdfrwt beam="1">  1        2 0.16645890E+00 0.28329970E+04</pdfrwt>
<pdfrwt beam="2">  1       -2 0.28529787E+00 0.28329970E+04</pdfrwt>
<totfact> 0.75831119E-01</totfact>
</mgrwt>
</event>
<event>
11    1  0.1875766E-010  0.3251387E+04  0.7818608E-02  0.8175376E-01
         -2   -1    0    0    0  501 -0.00000000000E+00  0.00000000000E+00  0.10819092392E+04  0.10819092392E+04  0.00000000000E+00 0.  1.
          2   -1    0    0  501    0  0.00000000000E+00 -0.00000000000E+00 -0.24427927537E+04  0.24427927537E+04  0.00000000000E+00 0. -1.
    9900016    2    1    2    0    0 -0.64053269394E+01 -0.14358380323E+03 -0.45707057323E+02  0.22016953979E+04  0.21965236519E+04 0.  0.
        -24    2    3    3    0    0 -0.12174706296E+03 -0.91901589001E+03 -0.23553253725E+03  0.96253207495E+03  0.10760978475E+03 0.  0.
        -15    1    3    3    0    0 -0.18596573442E+03  0.34109527356E+03  0.46668614171E+03  0.60722746553E+03  0.00000000000E+00 0.  1.
        -15    1    3    3    0    0  0.43521662725E+02  0.35347593438E+02 -0.26616734964E+02  0.62064789280E+02  0.00000000000E+00 0. -1.
         15    1    4    4    0    0 -0.90248741225E+02 -0.65531451870E+03 -0.21752262134E+03  0.69634621023E+03  0.00000000000E+00 0. -1.
         15    1    3    3    0    0  0.10324000861E+03  0.17900250435E+03 -0.18772259627E+03  0.27917766582E+03  0.00000000000E+00 0.  1.
        -16    1    4    4    0    0 -0.31498321731E+02 -0.26370137131E+03 -0.18009915903E+02  0.26618586471E+03  0.00000000000E+00 0.  1.
         16    1    1    2    0    0  0.64053269394E+01  0.14358380323E+03 -0.13151764572E+04  0.13230065950E+04  0.00000000000E+00 0. -1.
    9900018    1    3    3    0    0  0.15454579911E+03  0.21998671543E+03 -0.62521330551E+02  0.29069340232E+03  0.91187600000E+02 0.  0.
<mgrwt>
<rscale>  0 0.32513874E+04</rscale>
<asrwt>0</asrwt>
<pdfrwt beam="1">  1        2 0.37581427E+00 0.32513874E+04</pdfrwt>
<pdfrwt beam="2">  1       -2 0.16644758E+00 0.32513874E+04</pdfrwt>
<totfact> 0.71179702E-01</totfact>
</mgrwt>
</event>
<event>
10    1  0.1875766E-010  0.3065303E+04  0.7818608E-02  0.8225325E-01
         -2   -1    0    0    0  501 -0.00000000000E+00  0.00000000000E+00  0.85271822268E+03  0.85271822268E+03  0.00000000000E+00 0.  1.
          2   -1    0    0  501    0  0.00000000000E+00 -0.00000000000E+00 -0.27547435254E+04  0.27547435254E+04  0.00000000000E+00 0. -1.
    9900016    2    1    2    0    0 -0.63862314045E+03 -0.36642692846E+03 -0.15410608977E+04  0.27874596072E+04  0.22029421603E+04 0.  0.
        -15    1    3    3    0    0 -0.14401599990E+02  0.11640745748E+03  0.22815913178E+03  0.25654374218E+03  0.00000000000E+00 0.  1.
        -15    1    3    3    0    0 -0.10532514295E+02  0.20555911090E+03 -0.27996458836E+03  0.34748475170E+03  0.00000000000E+00 0.  1.
         15    1    3    3    0    0 -0.48490212348E+03 -0.36889460071E+03 -0.94200377600E+03  0.11218664848E+04  0.00000000000E+00 0. -1.
         15    1    3    3    0    0 -0.37037872674E+02  0.10636122957E+03 -0.96107262123E+02  0.14805782992E+03  0.00000000000E+00 0. -1.
        -16    1    3    3    0    0 -0.29413370196E+03 -0.36618547890E+03 -0.49182733523E+03  0.68007394250E+03  0.00000000000E+00 0.  1.
         16    1    1    2    0    0  0.63862314045E+03  0.36642692846E+03 -0.36096440497E+03  0.82000214089E+03  0.00000000000E+00 0. -1.
    9900018    1    3    3    0    0  0.20238467196E+03 -0.59674646800E+02  0.40682932191E+02  0.23343285604E+03  0.91187600000E+02 0.  0.
<mgrwt>
<rscale>  0 0.30653026E+04</rscale>
<asrwt>0</asrwt>
<pdfrwt beam="1">  1        2 0.42380669E+00 0.30653026E+04</pdfrwt>
<pdfrwt beam="2">  1       -2 0.13118742E+00 0.30653026E+04</pdfrwt>
<totfact> 0.88943795E-01</totfact>
</mgrwt>
</event>
<event>
11    1  0.1875766E-010  0.3195492E+04  0.7818608E-02  0.8190009E-01
          2   -1    0    0  501    0  0.00000000000E+00  0.00000000000E+00  0.10290871961E+04  0.10290871961E+04  0.00000000000E+00 0. -1.
         -2   -1    0    0    0  501 -0.00000000000E+00 -0.00000000000E+00 -0.24806374926E+04  0.24806374926E+04  0.00000000000E+00 0.  1.
    9900016    2    1    2    0    0  0.83062247285E+03 -0.11791378294E+03 -0.10822110375E+04  0.25930738060E+04  0.22020476109E+04 0.  0.
        -24    2    3    3    0    0  0.48541394837E+03  0.86885302687E+02 -0.51917867481E+02  0.50037644726E+03  0.67122029979E+02 0.  0.
        -15    1    3    3    0    0  0.28348604709E+03  0.27701176763E+03 -0.27030514252E+03  0.47975486279E+03  0.00000000000E+00 0.  1.
        -15    1    3    3    0    0  0.26082014861E+02 -0.29214677361E+03 -0.79760688924E+03  0.84982748755E+03  0.00000000000E+00 0.  1.
         15    1    3    3    0    0 -0.86370862535E+02  0.21163076988E+03  0.20046656939E+03  0.30403018616E+03  0.00000000000E+00 0. -1.
         15    1    4    4    0    0  0.15731210245E+03  0.46785971780E+02 -0.43226490764E+02  0.16971904500E+03  0.00000000000E+00 0. -1.
        -16    1    4    4    0    0  0.32810184593E+03  0.40099330908E+02 -0.86913767178E+01  0.33065740226E+03  0.00000000000E+00 0.  1.
         16    1    1    2    0    0 -0.83062247285E+03  0.11791378294E+03 -0.36933925896E+03  0.91665088274E+03  0.00000000000E+00 0. -1.
    9900018    1    3    3    0    0  0.12201132507E+03 -0.40129484953E+03 -0.16284770770E+03  0.45908482222E+03  0.91187600000E+02 0.  0.
<mgrwt>
<rscale>  0 0.31954920E+04</rscale>
<asrwt>0</asrwt>
<pdfrwt beam="1">  1        2 0.15832111E+00 0.31954920E+04</pdfrwt>
<pdfrwt beam="2">  1       -2 0.38163654E+00 0.31954920E+04</pdfrwt>
<totfact> 0.19850373E-01</totfact>
</mgrwt>
</event>
<event>
10    1  0.1875766E-010  0.2791068E+04  0.7818608E-02  0.8306047E-01
         -1   -1    0    0    0  501 -0.00000000000E+00  0.00000000000E+00  0.11508013666E+04  0.11508013666E+04  0.00000000000E+00 0. -1.
          1   -1    0    0  501    0  0.00000000000E+00 -0.00000000000E+00 -0.16923126276E+04  0.16923126276E+04  0.00000000000E+00 0.  1.
    9900016    2    1    2    0    0  0.34101821615E+03  0.38322886464E+03 -0.60429404547E+03  0.23262973298E+04  0.21870825743E+04 0.  0.
        -15    1    3    3    0    0  0.37236341061E+03 -0.16360352543E+03 -0.42920850271E+00  0.40671956840E+03  0.00000000000E+00 0.  1.
        -15    1    3    3    0    0  0.47350076150E+03  0.99100153249E+02 -0.54748493657E+03  0.73059124501E+03  0.00000000000E+00 0.  1.
         15    1    3    3    0    0 -0.24917710618E+03 -0.42407231007E+02  0.60024429026E+02  0.25978940618E+03  0.00000000000E+00 0. -1.
         15    1    3    3    0    0  0.12795262916E+03  0.95781309291E+02  0.76386127324E+02  0.17714619659E+03  0.00000000000E+00 0. -1.
        -16    1    1    2    0    0 -0.34101821615E+03 -0.38322886464E+03  0.62782784475E+02  0.51681666427E+03  0.00000000000E+00 0.  1.
         16    1    3    3    0    0  0.50042203369E+02 -0.43621765352E+02 -0.10301790598E+03  0.12255516914E+03  0.00000000000E+00 0. -1.
    9900018    1    3    3    0    0 -0.43366368231E+03  0.43797992389E+03 -0.89772550765E+02  0.62949574451E+03  0.91187600000E+02 0.  0.
<mgrwt>
<rscale>  0 0.27910684E+04</rscale>
<asrwt>0</asrwt>
<pdfrwt beam="1">  1        1 0.26035579E+00 0.27910684E+04</pdfrwt>
<pdfrwt beam="2">  1       -1 0.17704636E+00 0.27910684E+04</pdfrwt>
<totfact> 0.91356799E-01</totfact>
</mgrwt>
</event>
<event>
11    1  0.1875766E-010  0.5437732E+04  0.7818608E-02  0.7764316E-01
          2   -1    0    0  501    0  0.00000000000E+00  0.00000000000E+00  0.39329357019E+04  0.39329357019E+04  0.00000000000E+00 0.  1.
         -2   -1    0    0    0  501 -0.00000000000E+00 -0.00000000000E+00 -0.18795711058E+04  0.18795711058E+04  0.00000000000E+00 0. -1.
    9900016    2    1    2    0    0  0.35332049857E+02  0.48070666698E+03 -0.11668482677E+04  0.25564204849E+04  0.22229312995E+04 0.  0.
         24    2    3    3    0    0  0.39725088528E+03  0.21194179857E+03  0.55661854804E+02  0.45781795757E+03  0.61412118962E+02 0.  0.
        -15    1    3    3    0    0 -0.74293653036E+02  0.39068054006E+03 -0.29363810765E+03  0.49434215835E+03  0.00000000000E+00 0.  1.
        -15    1    4    4    0    0  0.38333795950E+03  0.19936521650E+03  0.41019485016E+02  0.43402428376E+03  0.00000000000E+00 0.  1.
         15    1    3    3    0    0 -0.15638983768E+03  0.14035423074E+03 -0.95691340258E+03  0.97971442342E+03  0.00000000000E+00 0. -1.
         15    1    3    3    0    0 -0.32498326571E+03 -0.17412382599E+03  0.10007921210E+03  0.38203282380E+03  0.00000000000E+00 0. -1.
        -16    1    1    2    0    0 -0.35332049857E+02 -0.48070666698E+03  0.32202128638E+04  0.32560863229E+04  0.00000000000E+00 0.  1.
         16    1    4    4    0    0  0.13912925786E+02  0.12576582068E+02  0.14642369788E+02  0.23793673812E+02  0.00000000000E+00 0. -1.
    9900018    1    3    3    0    0  0.19374792100E+03 -0.88146076399E+02 -0.72037824372E+02  0.24251312173E+03  0.91187600000E+02 0.  0.
<mgrwt>
<rscale>  0 0.54377320E+04</rscale>
<asrwt>0</asrwt>
<pdfrwt beam="1">  1        2 0.60506703E+00 0.54377320E+04</pdfrwt>
<pdfrwt beam="2">  1       -2 0.28916479E+00 0.54377320E+04</pdfrwt>
<totfact> 0.10035550E-02</totfact>
</mgrwt>
</event>
<event>
11    1  0.1875766E-010  0.2720668E+04  0.7818608E-02  0.8328330E-01
          1   -1    0    0  501    0  0.00000000000E+00  0.00000000000E+00  0.14551161413E+04  0.14551161413E+04  0.00000000000E+00 0. -1.
         -1   -1    0    0    0  501 -0.00000000000E+00 -0.00000000000E+00 -0.12717252842E+04  0.12717252842E+04  0.00000000000E+00 0.  1.
    9900016    2    1    2    0    0 -0.14539199019E+03 -0.28052255914E+03  0.51489656675E+03  0.22688809768E+04  0.21869775206E+04 0.  0.
        -24    2    3    3    0    0  0.24818579906E+03 -0.44908039645E+03  0.11899850627E+03  0.53519391645E+03  0.94881454364E+02 0.  0.
        -15    1    3    3    0    0 -0.18256648596E+03  0.16553953822E+03  0.61092866614E+02  0.25390194734E+03  0.00000000000E+00 0.  1.
        -15    1    3    3    0    0  0.30203360559E+03 -0.19631875411E+03 -0.26164594164E+03  0.44522348421E+03  0.00000000000E+00 0.  1.
         15    1    3    3    0    0 -0.28481727123E+03  0.10159283627E+00  0.65368943937E+03  0.71304331667E+03  0.00000000000E+00 0. -1.
         15    1    4    4    0    0  0.18889621707E+03 -0.33129650981E+03  0.12989574734E+03  0.40287971333E+03  0.00000000000E+00 0. -1.
        -16    1    4    4    0    0  0.59289581988E+02 -0.11778388663E+03 -0.10897241075E+02  0.13231420312E+03  0.00000000000E+00 0.  1.
         16    1    1    2    0    0  0.14539199019E+03  0.28052255914E+03 -0.33150570962E+03  0.45796044863E+03  0.00000000000E+00 0. -1.
    9900018    1    3    3    0    0 -0.22822763764E+03  0.19923546035E+03 -0.57238303861E+02  0.32151831218E+03  0.91187600000E+02 0.  0.
<mgrwt>
<rscale>  0 0.27206676E+04</rscale>
<asrwt>0</asrwt>
<pdfrwt beam="1">  1        1 0.22386402E+00 0.27206676E+04</pdfrwt>
<pdfrwt beam="2">  1       -1 0.19565004E+00 0.27206676E+04</pdfrwt>
<totfact> 0.98849078E-01</totfact>
</mgrwt>
</event>
<event>
11    1  0.1875766E-010  0.2376733E+04  0.7818608E-02  0.8448266E-01
         -1   -1    0    0    0  501 -0.00000000000E+00  0.00000000000E+00  0.14707430639E+04  0.14707430639E+04  0.00000000000E+00 0.  1.
          1   -1    0    0  501    0  0.00000000000E+00 -0.00000000000E+00 -0.96020472990E+03  0.96020472990E+03  0.00000000000E+00 0. -1.
    9900016    2    1    2    0    0 -0.29606483727E+02  0.15846913107E+03  0.42417267431E+03  0.22480597500E+04  0.22017859052E+04 0.  0.
         24    2    3    3    0    0 -0.29909079912E+03  0.40591802796E+03  0.30388021992E+03  0.59199612927E+03  0.62381707767E+02 0.  0.
        -15    1    3    3    0    0 -0.33356639596E+03 -0.45781421122E+03  0.11333825458E+03  0.57767287669E+03  0.00000000000E+00 0.  1.
        -15    1    4    4    0    0 -0.24122265796E+03  0.33533968357E+03  0.21991030002E+03  0.46797608288E+03  0.00000000000E+00 0.  1.
         15    1    3    3    0    0  0.36743997208E+03  0.35959433465E+03 -0.16560346336E+03  0.54013398862E+03  0.00000000000E+00 0. -1.
         15    1    3    3    0    0  0.99788003933E+01 -0.15348945472E+03  0.24056553288E+03  0.28553522511E+03  0.00000000000E+00 0. -1.
        -16    1    1    2    0    0  0.29606483727E+02 -0.15846913107E+03  0.86365659659E+02  0.18288804376E+03  0.00000000000E+00 0.  1.
         16    1    4    4    0    0 -0.57868141158E+02  0.70578344399E+02  0.83969919899E+02  0.12402004639E+03  0.00000000000E+00 0. -1.
    9900018    1    3    3    0    0  0.22563193889E+03  0.42604344029E+01 -0.68007869706E+02  0.25272153031E+03  0.91187600000E+02 0.  0.
<mgrwt>
<rscale>  0 0.23767326E+04</rscale>
<asrwt>0</asrwt>
<pdfrwt beam="1">  1        1 0.14772380E+00 0.23767326E+04</pdfrwt>
<pdfrwt beam="2">  1       -1 0.22626816E+00 0.23767326E+04</pdfrwt>
<totfact> 0.14596227E+00</totfact>
</mgrwt>
</event>
<event>
11    1  0.1875766E-010  0.3131591E+04  0.7818608E-02  0.8207121E-01
          1   -1    0    0  501    0  0.00000000000E+00  0.00000000000E+00  0.17043174510E+04  0.17043174510E+04  0.00000000000E+00 0. -1.
         -1   -1    0    0    0  501 -0.00000000000E+00 -0.00000000000E+00 -0.14385317929E+04  0.14385317929E+04  0.00000000000E+00 0.  1.
    9900016    2    1    2    0    0 -0.45554821878E+03 -0.52656803868E+03 -0.17193560015E+03  0.23204150648E+04  0.22067999781E+04 0.  0.
        -24    2    3    3    0    0  0.24999745728E+03  0.39776305406E+03  0.39368350121E+03  0.62167543101E+03  0.10382420996E+03 0.  0.
        -15    1    3    3    0    0 -0.37815205533E+00 -0.31240431518E+02 -0.26747613210E+02  0.41128364578E+02  0.00000000000E+00 0. -1.
        -15    1    3    3    0    0 -0.54871684618E+03 -0.42409704094E+03  0.22951948100E+03  0.73049823380E+03  0.00000000000E+00 0.  1.
         15    1    3    3    0    0 -0.90577859217E+01  0.71915162390E+01 -0.12029565251E+02  0.16687475296E+02  0.00000000000E+00 0.  1.
         15    1    4    4    0    0  0.12511121519E+03  0.16827590807E+03  0.23942516573E+03  0.31826719496E+03  0.00000000000E+00 0. -1.
        -16    1    4    4    0    0  0.12488624209E+03  0.22948714599E+03  0.15425833548E+03  0.30340823605E+03  0.00000000000E+00 0.  1.
         16    1    1    2    0    0  0.45554821878E+03  0.52656803868E+03  0.43772125830E+03  0.82243417911E+03  0.00000000000E+00 0. -1.
    9900018    1    3    3    0    0 -0.14739289190E+03 -0.47618513652E+03 -0.75636140390E+03  0.91042556013E+03  0.91187600000E+02 0.  0.
<mgrwt>
<rscale>  0 0.31315905E+04</rscale>
<asrwt>0</asrwt>
<pdfrwt beam="1">  1        1 0.26220269E+00 0.31315905E+04</pdfrwt>
<pdfrwt beam="2">  1       -1 0.22131258E+00 0.31315905E+04</pdfrwt>
<totfact> 0.42964504E-01</totfact>
</mgrwt>
</event>
<event>
11    1  0.1875766E-010  0.2995934E+04  0.7818608E-02  0.8244893E-01
         -1   -1    0    0    0  501 -0.00000000000E+00  0.00000000000E+00  0.76543110483E+03  0.76543110483E+03  0.00000000000E+00 0.  1.
          1   -1    0    0  501    0  0.00000000000E+00 -0.00000000000E+00 -0.29315571134E+04  0.29315571134E+04  0.00000000000E+00 0. -1.
    9900016    2    1    2    0    0 -0.18292397858E+03 -0.18165695474E+03 -0.24621859781E+04  0.33044172862E+04  0.21886875928E+04 0.  0.
         24    2    3    3    0    0 -0.30220592551E+02  0.50763176487E+03 -0.10428343250E+04  0.11614535108E+04  0.53549375140E+02 0.  0.
        -15    1    3    3    0    0 -0.11333885377E+03 -0.27537494962E+03 -0.73723063616E+02  0.30677703428E+03  0.00000000000E+00 0.  1.
        -15    1    4    4    0    0 -0.35769020703E+02  0.27953748685E+03 -0.53383228308E+03  0.60365348989E+03  0.00000000000E+00 0.  1.
         15    1    3    3    0    0 -0.15555307481E+03 -0.26094899522E+03 -0.61776519001E+03  0.68842208504E+03  0.00000000000E+00 0. -1.
         15    1    3    3    0    0  0.28060399253E+03  0.10367255645E+03  0.53707522168E+02  0.30392613826E+03  0.00000000000E+00 0. -1.
        -16    1    1    2    0    0  0.18292397858E+03  0.18165695474E+03  0.29605996955E+03  0.39257093208E+03  0.00000000000E+00 0.  1.
         16    1    4    4    0    0  0.55484281522E+01  0.22809427802E+03 -0.50900204187E+03  0.55780002093E+03  0.00000000000E+00 0. -1.
    9900018    1    3    3    0    0 -0.16441544997E+03 -0.25663733122E+03 -0.78157092171E+03  0.84383851774E+03  0.91187600000E+02 0.  0.
<mgrwt>
<rscale>  0 0.29959339E+04</rscale>
<asrwt>0</asrwt>
<pdfrwt beam="1">  1        1 0.45100879E+00 0.29959339E+04</pdfrwt>
<pdfrwt beam="2">  1       -1 0.11775863E+00 0.29959339E+04</pdfrwt>
<totfact> 0.36968748E-01</totfact>
</mgrwt>
</event>
<event>
11    1  0.1875766E-010  0.3278883E+04  0.7818608E-02  0.8168289E-01
         -2   -1    0    0    0  501 -0.00000000000E+00  0.00000000000E+00  0.11841912939E+04  0.11841912939E+04  0.00000000000E+00 0.  1.
          2   -1    0    0  501    0  0.00000000000E+00 -0.00000000000E+00 -0.22697083989E+04  0.22697083989E+04  0.00000000000E+00 0. -1.
    9900016    2    1    2    0    0 -0.79291205273E+03  0.21043992842E+02 -0.33163903414E+03  0.23596033350E+04  0.21974055331E+04 0.  0.
        -24    2    3    3    0    0 -0.22266354842E+03  0.13226269986E+03 -0.90543744368E+03  0.94414170096E+03  0.67187122941E+02 0.  0.
        -15    1    3    3    0    0 -0.61245781694E+02 -0.15454168132E+03 -0.20321346528E+02  0.16747278634E+03  0.00000000000E+00 0.  1.
        -15    1    3    3    0    0 -0.33164785772E+03  0.29821279965E+02 -0.92311351255E+01  0.33311383058E+03  0.00000000000E+00 0.  1.
         15    1    4    4    0    0 -0.12419244737E+03  0.47853120346E+02 -0.36966213773E+03  0.39289156415E+03  0.00000000000E+00 0. -1.
         15    1    3    3    0    0  0.64761034288E+02 -0.12060447363E+03  0.60820948404E+03  0.62342458012E+03  0.00000000000E+00 0. -1.
        -16    1    4    4    0    0 -0.98471101046E+02  0.84409579519E+02 -0.53577530595E+03  0.55125013680E+03  0.00000000000E+00 0.  1.
         16    1    1    2    0    0  0.79291205273E+03 -0.21043992842E+02 -0.75387807078E+03  0.10942963578E+04  0.00000000000E+00 0. -1.
    9900018    1    3    3    0    0 -0.24211589919E+03  0.13410616796E+03 -0.48585928486E+01  0.29145043702E+03  0.91187600000E+02 0.  0.
<mgrwt>
<rscale>  0 0.32788833E+04</rscale>
<asrwt>0</asrwt>
<pdfrwt beam="1">  1        2 0.34918591E+00 0.32788833E+04</pdfrwt>
<pdfrwt beam="2">  1       -2 0.18218328E+00 0.32788833E+04</pdfrwt>
<totfact> 0.69113860E-01</totfact>
</mgrwt>
</event>
<event>
11    1  0.1875766E-010  0.2630727E+04  0.7818608E-02  0.8357838E-01
          1   -1    0    0  501    0  0.00000000000E+00  0.00000000000E+00  0.18970922591E+04  0.18970922591E+04  0.00000000000E+00 0. -1.
         -1   -1    0    0    0  501 -0.00000000000E+00 -0.00000000000E+00 -0.91201716627E+03  0.91201716627E+03  0.00000000000E+00 0.  1.
    9900016    2    1    2    0    0  0.12245796197E+02 -0.15096657604E+03  0.44825648449E+03  0.22513325122E+04  0.22010505078E+04 0.  0.
        -24    2    3    3    0    0 -0.64501575342E+03  0.89269000226E+02  0.51247833394E+03  0.83369008096E+03  0.91601483424E+02 0.  0.
        -15    1    3    3    0    0  0.51422129697E+03 -0.19911175950E+03  0.19497753097E+03  0.58488056269E+03  0.00000000000E+00 0.  1.
        -15    1    3    3    0    0 -0.49129632111E+02  0.14570923278E+03  0.52938562744E+02  0.16262654364E+03  0.00000000000E+00 0.  1.
         15    1    4    4    0    0 -0.50065157456E+03  0.10634955476E+03  0.41074224938E+03  0.65625560747E+03  0.00000000000E+00 0. -1.
         15    1    3    3    0    0  0.86159478175E+02 -0.32325232018E+03 -0.33501486349E+03  0.47344532624E+03  0.00000000000E+00 0. -1.
        -16    1    4    4    0    0 -0.14436417886E+03 -0.17080554529E+02  0.10173608457E+03  0.17743447349E+03  0.00000000000E+00 0.  1.
         16    1    1    2    0    0 -0.12245796197E+02  0.15096657604E+03  0.53681860838E+03  0.55777691321E+03  0.00000000000E+00 0. -1.
    9900018    1    3    3    0    0  0.10601040658E+03  0.13641927063E+03  0.22876920325E+02  0.19668999868E+03  0.91187600000E+02 0.  0.
<mgrwt>
<rscale>  0 0.26307267E+04</rscale>
<asrwt>0</asrwt>
<pdfrwt beam="1">  1        1 0.29186035E+00 0.26307267E+04</pdfrwt>
<pdfrwt beam="2">  1       -1 0.14031033E+00 0.26307267E+04</pdfrwt>
<totfact> 0.12810828E+00</totfact>
</mgrwt>
</event>
<event>
11    1  0.1875766E-010  0.4080338E+04  0.7818608E-02  0.7988533E-01
          1   -1    0    0  501    0  0.00000000000E+00  0.00000000000E+00  0.22643942338E+04  0.22643942338E+04  0.00000000000E+00 0.  1.
         -1   -1    0    0    0  501 -0.00000000000E+00 -0.00000000000E+00 -0.18381466494E+04  0.18381466494E+04  0.00000000000E+00 0. -1.
    9900016    2    1    2    0    0  0.70808578784E+03 -0.80066015865E+03 -0.70074691327E+03  0.25492995077E+04  0.22057741432E+04 0.  0.
         24    2    3    3    0    0  0.21898826906E+03  0.18716451648E+03 -0.40744739922E+03  0.50316005803E+03  0.64577415983E+02 0.  0.
        -15    1    3    3    0    0 -0.27006636823E+03  0.18502341259E+03 -0.37847162484E+03  0.50041010908E+03  0.00000000000E+00 0.  1.
        -15    1    4    4    0    0  0.11060887443E+03  0.11393372898E+03 -0.27134642794E+03  0.31439481812E+03  0.00000000000E+00 0.  1.
         15    1    3    3    0    0 -0.36565608761E+02 -0.10470756108E+03  0.10590163022E+03  0.15334885841E+03  0.00000000000E+00 0. -1.
         15    1    3    3    0    0  0.29447503338E+03 -0.57657461470E+03 -0.16888002600E+03  0.66908466937E+03  0.00000000000E+00 0. -1.
        -16    1    1    2    0    0 -0.70808578784E+03  0.80066015865E+03  0.11269944977E+04  0.15532413755E+04  0.00000000000E+00 0.  1.
         16    1    4    4    0    0  0.10837939463E+03  0.73230787497E+02 -0.13610097128E+03  0.18876523991E+03  0.00000000000E+00 0. -1.
    9900018    1    3    3    0    0  0.50125446241E+03 -0.49156591193E+03  0.14815050656E+03  0.72329581282E+03  0.91187600000E+02 0.  0.
<mgrwt>
<rscale>  0 0.40803376E+04</rscale>
<asrwt>0</asrwt>
<pdfrwt beam="1">  1        1 0.34836835E+00 0.40803376E+04</pdfrwt>
<pdfrwt beam="2">  1       -1 0.28279179E+00 0.40803376E+04</pdfrwt>
<totfact> 0.65352998E-02</totfact>
</mgrwt>
</event>
<event>
11    1  0.1875766E-010  0.2639737E+04  0.7818608E-02  0.8354827E-01
         -1   -1    0    0    0  501 -0.00000000000E+00  0.00000000000E+00  0.22612307546E+04  0.22612307546E+04  0.00000000000E+00 0.  1.
          1   -1    0    0  501    0  0.00000000000E+00 -0.00000000000E+00 -0.77040055719E+03  0.77040055719E+03  0.00000000000E+00 0. -1.
    9900016    2    1    2    0    0  0.20508202969E+03  0.18724501823E+03  0.15891592861E+04  0.27370333733E+04  0.22110642492E+04 0.  0.
        -24    2    3    3    0    0  0.11646471537E+03 -0.38659842244E+03 -0.95301573212E+01  0.40974586602E+03  0.69126555453E+02 0.  0.
        -15    1    3    3    0    0  0.34690726354E+03  0.30733376951E+03  0.17909836299E+03  0.49686509135E+03  0.00000000000E+00 0.  1.
        -15    1    3    3    0    0  0.10009149592E+02 -0.11180009149E+03  0.40469153986E+03  0.41996986316E+03  0.00000000000E+00 0.  1.
         15    1    4    4    0    0  0.20597552559E+02 -0.10469169819E+03  0.26143887408E+02  0.10985496662E+03  0.00000000000E+00 0. -1.
         15    1    3    3    0    0  0.31386024439E+03  0.13738357265E+03  0.34005683938E+03  0.48272264610E+03  0.00000000000E+00 0. -1.
        -16    1    4    4    0    0  0.95867162807E+02 -0.28190672425E+03 -0.35674044729E+02  0.29989089941E+03  0.00000000000E+00 0.  1.
         16    1    1    2    0    0 -0.20508202969E+03 -0.18724501823E+03 -0.98329088629E+02  0.29459793859E+03  0.00000000000E+00 0. -1.
    9900018    1    3    3    0    0 -0.58215934320E+03  0.24092619000E+03  0.67484270118E+03  0.92772990662E+03  0.91187600000E+02 0.  0.
<mgrwt>
<rscale>  0 0.26397374E+04</rscale>
<asrwt>0</asrwt>
<pdfrwt beam="1">  1        1 0.11852316E+00 0.26397374E+04</pdfrwt>
<pdfrwt beam="2">  1       -1 0.34788165E+00 0.26397374E+04</pdfrwt>
<totfact> 0.33075996E-01</totfact>
</mgrwt>
</event>
<event>
10    1  0.1875766E-010  0.2404728E+04  0.7818608E-02  0.8437736E-01
          1   -1    0    0  501    0  0.00000000000E+00  0.00000000000E+00  0.62634420599E+03  0.62634420599E+03  0.00000000000E+00 0. -1.
         -1   -1    0    0    0  501 -0.00000000000E+00 -0.00000000000E+00 -0.23081224528E+04  0.23081224528E+04  0.00000000000E+00 0.  1.
    9900016    2    1    2    0    0  0.90083977143E+02  0.40476088466E+02 -0.17517406102E+04  0.28134370385E+04  0.21993361197E+04 0.  0.
        -15    1    3    3    0    0 -0.67492083324E+02 -0.53502050927E+01 -0.85291998057E+02  0.10889688213E+03  0.00000000000E+00 0.  1.
        -15    1    3    3    0    0 -0.38212565223E+02 -0.44636419371E+02 -0.20943575077E+03  0.21752228340E+03  0.00000000000E+00 0.  1.
         15    1    3    3    0    0 -0.25460634486E+03 -0.62263989501E+02 -0.76940589945E+03  0.81282632422E+03  0.00000000000E+00 0. -1.
         15    1    3    3    0    0  0.61333129531E+03 -0.21846902201E+03 -0.47623808202E+03  0.80666393384E+03  0.00000000000E+00 0. -1.
        -16    1    3    3    0    0 -0.12803966412E+03  0.51046162443E+03  0.77853115523E+02  0.53200219285E+03  0.00000000000E+00 0.  1.
         16    1    1    2    0    0 -0.90083977143E+02 -0.40476088466E+02  0.69962363443E+02  0.12102962023E+03  0.00000000000E+00 0. -1.
    9900018    1    3    3    0    0 -0.34896660640E+02 -0.13926589998E+03 -0.28922199543E+03  0.33552542207E+03  0.91187600000E+02 0.  0.
<mgrwt>
<rscale>  0 0.24047279E+04</rscale>
<asrwt>0</asrwt>
<pdfrwt beam="1">  1        1 0.96360646E-01 0.24047279E+04</pdfrwt>
<pdfrwt beam="2">  1       -1 0.35509577E+00 0.24047279E+04</pdfrwt>
<totfact> 0.41435616E-01</totfact>
</mgrwt>
</event>
<event>
11    1  0.1875766E-010  0.2844002E+04  0.7818608E-02  0.8289736E-01
          1   -1    0    0  501    0  0.00000000000E+00  0.00000000000E+00  0.35614604295E+04  0.35614604295E+04  0.00000000000E+00 0. -1.
         -1   -1    0    0    0  501 -0.00000000000E+00 -0.00000000000E+00 -0.56776904630E+03  0.56776904630E+03  0.00000000000E+00 0.  1.
    9900016    2    1    2    0    0 -0.17824762743E+03 -0.18957521300E+03  0.16313355223E+04  0.27422455286E+04  0.21888225087E+04 0.  0.
        -24    2    3    3    0    0  0.34350160826E+03  0.62879628507E+03  0.30606540397E+03  0.78492314656E+03  0.95132494486E+02 0.  0.
        -15    1    3    3    0    0 -0.32966454480E+03 -0.11896188646E+03  0.44392998798E+03  0.56560098723E+03  0.00000000000E+00 0.  1.
        -15    1    3    3    0    0 -0.14232002997E+03 -0.45861858487E+03  0.20392593237E+03  0.52170085606E+03  0.00000000000E+00 0.  1.
         15    1    4    4    0    0  0.73281867378E+02  0.20390517042E+03  0.12291992512E+03  0.24911214062E+03  0.00000000000E+00 0. -1.
         15    1    3    3    0    0  0.14766378145E+03 -0.24587739842E+03  0.54361466527E+03  0.61463582039E+03  0.00000000000E+00 0. -1.
        -16    1    4    4    0    0  0.27021974088E+03  0.42489111465E+03  0.18314547885E+03  0.53581100594E+03  0.00000000000E+00 0.  1.
         16    1    1    2    0    0  0.17824762743E+03  0.18957521300E+03  0.13623558609E+04  0.13869839472E+04  0.00000000000E+00 0. -1.
    9900018    1    3    3    0    0 -0.19742844236E+03  0.50863716827E+01  0.13379953273E+03  0.25538471838E+03  0.91187600000E+02 0.  0.
<mgrwt>
<rscale>  0 0.28440021E+04</rscale>
<asrwt>0</asrwt>
<pdfrwt beam="1">  1        1 0.54791698E+00 0.28440021E+04</pdfrwt>
<pdfrwt beam="2">  1       -1 0.87349086E-01 0.28440021E+04</pdfrwt>
<totfact> 0.24840763E-01</totfact>
</mgrwt>
</event>
<event>
10    1  0.1875766E-010  0.2657129E+04  0.7818608E-02  0.8349051E-01
         -2   -1    0    0    0  501 -0.00000000000E+00  0.00000000000E+00  0.16170150662E+04  0.16170150662E+04  0.00000000000E+00 0. -1.
          2   -1    0    0  501    0  0.00000000000E+00 -0.00000000000E+00 -0.10915688587E+04  0.10915688587E+04  0.00000000000E+00 0.  1.
    9900016    2    1    2    0    0  0.83211577342E+01  0.34033908763E+03  0.21890674635E+03  0.22504721727E+04  0.22137761631E+04 0.  0.
        -15    1    3    3    0    0  0.20492610710E+02 -0.83666653043E+02  0.18893396670E+03  0.20764416606E+03  0.00000000000E+00 0.  1.
        -15    1    3    3    0    0 -0.19127273779E+03  0.24382507772E+03 -0.20674997597E+03  0.37253386599E+03  0.00000000000E+00 0.  1.
         15    1    3    3    0    0 -0.11743909876E+03 -0.53642196522E+03  0.54672215510E+03  0.77488423753E+03  0.00000000000E+00 0. -1.
         15    1    3    3    0    0  0.27420922285E+03  0.27537059543E+03 -0.14457819060E+03  0.41463540119E+03  0.00000000000E+00 0. -1.
        -16    1    3    3    0    0  0.68576508172E+00  0.10994800565E+02 -0.54354625503E+01  0.12284142882E+02  0.00000000000E+00 0.  1.
         16    1    1    2    0    0 -0.83211577342E+01 -0.34033908763E+03  0.30653946115E+03  0.45811175217E+03  0.00000000000E+00 0. -1.
    9900018    1    3    3    0    0  0.21645395643E+02  0.43023723218E+03 -0.15998574633E+03  0.46849035906E+03  0.91187600000E+02 0.  0.
<mgrwt>
<rscale>  0 0.26571287E+04</rscale>
<asrwt>0</asrwt>
<pdfrwt beam="1">  1        2 0.16793367E+00 0.26571287E+04</pdfrwt>
<pdfrwt beam="2">  1       -2 0.24877155E+00 0.26571287E+04</pdfrwt>
<totfact> 0.12693096E+00</totfact>
</mgrwt>
</event>
<event>
11    1  0.1875766E-010  0.2625818E+04  0.7818608E-02  0.8359484E-01
          1   -1    0    0  501    0  0.00000000000E+00  0.00000000000E+00  0.15559849955E+04  0.15559849955E+04  0.00000000000E+00 0. -1.
         -1   -1    0    0    0  501 -0.00000000000E+00 -0.00000000000E+00 -0.11078064665E+04  0.11078064665E+04  0.00000000000E+00 0.  1.
    9900016    2    1    2    0    0 -0.18274490157E+03 -0.20900670197E+02  0.72669464179E+03  0.23300194409E+04  0.22061443641E+04 0.  0.
         24    2    3    3    0    0  0.90226849165E+01 -0.13375428184E+03  0.14773701041E+03  0.21057718347E+03  0.67415941730E+02 0.  0.
        -15    1    3    3    0    0 -0.11630297911E+01 -0.31480472512E+03  0.39448642787E+03  0.50470081173E+03  0.00000000000E+00 0.  1.
        -15    1    4    4    0    0  0.28146545724E+02 -0.38616510654E+02  0.24441016943E+02  0.53673328949E+02  0.00000000000E+00 0.  1.
         15    1    3    3    0    0 -0.26001842526E+03  0.52613358923E+03 -0.44754420260E+02  0.58858227405E+03  0.00000000000E+00 0. -1.
         15    1    3    3    0    0 -0.59274949255E+02  0.15327191896E+03 -0.34360352930E+03  0.38087949025E+03  0.00000000000E+00 0. -1.
        -16    1    1    2    0    0  0.18274490157E+03  0.20900670197E+02 -0.27851611280E+03  0.33377202123E+03  0.00000000000E+00 0.  1.
         16    1    4    4    0    0 -0.19123860807E+02 -0.95137771186E+02  0.12329599346E+03  0.15690385452E+03  0.00000000000E+00 0. -1.
    9900018    1    3    3    0    0  0.12868881781E+03 -0.25174717143E+03  0.57282915308E+03  0.64527968135E+03  0.91187600000E+02 0.  0.
<mgrwt>
<rscale>  0 0.26258182E+04</rscale>
<asrwt>0</asrwt>
<pdfrwt beam="1">  1        1 0.23938231E+00 0.26258182E+04</pdfrwt>
<pdfrwt beam="2">  1       -1 0.17043176E+00 0.26258182E+04</pdfrwt>
<totfact> 0.12844615E+00</totfact>
</mgrwt>
</event>
<event>
11    1  0.1875766E-010  0.2757939E+04  0.7818608E-02  0.8316447E-01
          2   -1    0    0  501    0  0.00000000000E+00  0.00000000000E+00  0.29597621243E+04  0.29597621243E+04  0.00000000000E+00 0. -1.
         -2   -1    0    0    0  501 -0.00000000000E+00 -0.00000000000E+00 -0.64246971494E+03  0.64246971494E+03  0.00000000000E+00 0.  1.
    9900016    2    1    2    0    0  0.16294232305E+03  0.41142094648E+03  0.15778085056E+04  0.27404581800E+04  0.21965459158E+04 0.  0.
        -24    2    3    3    0    0 -0.47252146963E+03 -0.11230269343E+03  0.99514257671E+02  0.50414498081E+03  0.91491201684E+02 0.  0.
        -15    1    3    3    0    0 -0.83207592844E+02  0.35332208861E+03  0.62148433120E+03  0.71972409695E+03  0.00000000000E+00 0.  1.
        -15    1    3    3    0    0  0.63843195256E+03  0.35193870707E+03  0.52928388839E+03  0.90088714392E+03  0.00000000000E+00 0.  1.
         15    1    4    4    0    0 -0.16641046489E+03 -0.73991445001E+02  0.77340153435E+01  0.18228272478E+03  0.00000000000E+00 0. -1.
         15    1    3    3    0    0  0.24961445749E+03 -0.58999601993E+02  0.58632856961E+02  0.26310861320E+03  0.00000000000E+00 0. -1.
        -16    1    4    4    0    0 -0.30611100474E+03 -0.38311248424E+02  0.91780242327E+02  0.32186225604E+03  0.00000000000E+00 0.  1.
         16    1    1    2    0    0 -0.16294232305E+03 -0.41142094648E+03  0.73948390381E+03  0.86177365928E+03  0.00000000000E+00 0. -1.
    9900018    1    3    3    0    0 -0.16937502451E+03 -0.12253755377E+03  0.26889317133E+03  0.35259334508E+03  0.91187600000E+02 0.  0.
<mgrwt>
<rscale>  0 0.27579395E+04</rscale>
<asrwt>0</asrwt>
<pdfrwt beam="1">  1        2 0.45534801E+00 0.27579395E+04</pdfrwt>
<pdfrwt beam="2">  1       -2 0.98841496E-01 0.27579395E+04</pdfrwt>
<totfact> 0.13673361E+00</totfact>
</mgrwt>
</event>
<event>
11    1  0.1875766E-010  0.3557868E+04  0.7818608E-02  0.8100211E-01
          1   -1    0    0  501    0  0.00000000000E+00  0.00000000000E+00  0.19046903197E+04  0.19046903197E+04  0.00000000000E+00 0. -1.
         -1   -1    0    0    0  501 -0.00000000000E+00 -0.00000000000E+00 -0.16614803818E+04  0.16614803818E+04  0.00000000000E+00 0.  1.
    9900016    2    1    2    0    0 -0.50981459432E+03 -0.85992467696E+03 -0.28595107960E+03  0.24350682513E+04  0.22019100794E+04 0.  0.
         24    2    3    3    0    0  0.62672323974E+02  0.15738891481E+03 -0.70284607108E+03  0.72628499529E+03  0.69269069964E+02 0.  0.
        -15    1    3    3    0    0 -0.19305397246E+03 -0.59278743309E+03 -0.86914992950E+02  0.62946087496E+03  0.00000000000E+00 0.  1.
        -15    1    4    4    0    0  0.64513229835E+02  0.68473035484E+02 -0.35739668705E+03  0.36957124526E+03  0.00000000000E+00 0.  1.
         15    1    3    3    0    0 -0.20253374822E+02  0.10744923829E+03 -0.50839993898E+02  0.12058292988E+03  0.00000000000E+00 0. -1.
         15    1    3    3    0    0 -0.12749916476E+01 -0.38004623858E+03  0.30953299206E+03  0.49015042817E+03  0.00000000000E+00 0. -1.
        -16    1    1    2    0    0  0.50981459432E+03  0.85992467696E+03  0.52916101750E+03  0.11311024503E+04  0.00000000000E+00 0.  1.
         16    1    4    4    0    0 -0.18409058605E+01  0.88915879322E+02 -0.34544938404E+03  0.35671375003E+03  0.00000000000E+00 0. -1.
    9900018    1    3    3    0    0 -0.35790457936E+03 -0.15192915839E+03  0.24511698627E+03  0.46858902297E+03  0.91187600000E+02 0.  0.
<mgrwt>
<rscale>  0 0.35578677E+04</rscale>
<asrwt>0</asrwt>
<pdfrwt beam="1">  1        1 0.29302928E+00 0.35578677E+04</pdfrwt>
<pdfrwt beam="2">  1       -1 0.25561237E+00 0.35578677E+04</pdfrwt>
<totfact> 0.17995253E-01</totfact>
</mgrwt>
</event>
<event>
11    1  0.1875766E-010  0.2747551E+04  0.7818608E-02  0.8319739E-01
         -2   -1    0    0    0  501 -0.00000000000E+00  0.00000000000E+00  0.12199750574E+04  0.12199750574E+04  0.00000000000E+00 0.  1.
          2   -1    0    0  501    0  0.00000000000E+00 -0.00000000000E+00 -0.15469656540E+04  0.15469656540E+04  0.00000000000E+00 0. -1.
    9900016    2    1    2    0    0  0.44061060224E+03  0.92385544448E+02 -0.73101455313E+02  0.22500920994E+04  0.22033832716E+04 0.  0.
        -24    2    3    3    0    0  0.79137959237E+03 -0.42641967587E+03  0.68590999565E+03  0.11349601587E+04  0.97706911387E+02 0.  0.
        -15    1    3    3    0    0 -0.28520912775E+03  0.28504071025E+03 -0.63599969154E+03  0.75305249531E+03  0.00000000000E+00 0.  1.
        -15    1    3    3    0    0 -0.14163872449E+02  0.28570018373E+02  0.28129292280E+02  0.42521974516E+02  0.00000000000E+00 0.  1.
         15    1    4    4    0    0  0.14324310279E+03 -0.11546355854E+03  0.16577375810E+03  0.24765168831E+03  0.00000000000E+00 0. -1.
         15    1    3    3    0    0 -0.54394891334E+02 -0.39042672302E+00 -0.46164443007E+02  0.71345023894E+02  0.00000000000E+00 0. -1.
        -16    1    4    4    0    0  0.64813648958E+03 -0.31095611733E+03  0.52013623754E+03  0.88730847039E+03  0.00000000000E+00 0.  1.
         16    1    1    2    0    0 -0.44061060224E+03 -0.92385544448E+02 -0.25388914127E+03  0.51684861196E+03  0.00000000000E+00 0. -1.
    9900018    1    3    3    0    0  0.29989014021E+01  0.20558491842E+03 -0.10497660869E+03  0.24821244702E+03  0.91187600000E+02 0.  0.
<mgrwt>
<rscale>  0 0.27475513E+04</rscale>
<asrwt>0</asrwt>
<pdfrwt beam="1">  1        2 0.23799471E+00 0.27475513E+04</pdfrwt>
<pdfrwt beam="2">  1       -2 0.18768847E+00 0.27475513E+04</pdfrwt>
<totfact> 0.16770186E+00</totfact>
</mgrwt>
</event>
<event>
11    1  0.1875766E-010  0.3782512E+04  0.7818608E-02  0.8049918E-01
         -1   -1    0    0    0  501 -0.00000000000E+00  0.00000000000E+00  0.20603689149E+04  0.20603689149E+04  0.00000000000E+00 0.  1.
          1   -1    0    0  501    0  0.00000000000E+00 -0.00000000000E+00 -0.17360235649E+04  0.17360235649E+04  0.00000000000E+00 0. -1.
    9900016    2    1    2    0    0 -0.13426765922E+03  0.63837281073E+03 -0.84406513208E+03  0.24582106146E+04  0.22146796221E+04 0.  0.
         24    2    3    3    0    0  0.69012572022E+02 -0.95887281581E+02 -0.69186980938E+03  0.70826994585E+03  0.94896665932E+02 0.  0.
        -15    1    4    4    0    0  0.66008364065E+02 -0.13075087993E+02 -0.35806736007E+03  0.36433541744E+03  0.00000000000E+00 0.  1.
        -15    1    3    3    0    0 -0.24843330576E+03  0.47216248814E+03  0.25096820155E+03  0.58961136421E+03  0.00000000000E+00 0.  1.
         15    1    3    3    0    0  0.28009992480E+02  0.61045059557E+03 -0.89530709779E+02  0.61761657791E+03  0.00000000000E+00 0. -1.
         15    1    3    3    0    0 -0.78060263208E+02 -0.24915476184E+03 -0.11721880978E+03  0.28620228756E+03  0.00000000000E+00 0. -1.
        -16    1    1    2    0    0  0.13426765922E+03 -0.63837281073E+03  0.11684104821E+04  0.13381818652E+04  0.00000000000E+00 0.  1.
         16    1    4    4    0    0  0.30042079564E+01 -0.82812193588E+02 -0.33380244931E+03  0.34393452841E+03  0.00000000000E+00 0. -1.
    9900018    1    3    3    0    0  0.95203345248E+02 -0.99198229563E+02 -0.19641400470E+03  0.25651043903E+03  0.91187600000E+02 0.  0.
<mgrwt>
<rscale>  0 0.37825119E+04</rscale>
<asrwt>0</asrwt>
<pdfrwt beam="1">  1        1 0.26708055E+00 0.37825119E+04</pdfrwt>
<pdfrwt beam="2">  1       -1 0.31697983E+00 0.37825119E+04</pdfrwt>
<totfact> 0.91895714E-02</totfact>
</mgrwt>
</event>
<event>
11    1  0.1875766E-010  0.2915980E+04  0.7818608E-02  0.8268139E-01
          2   -1    0    0  501    0  0.00000000000E+00  0.00000000000E+00  0.15458357431E+04  0.15458357431E+04  0.00000000000E+00 0. -1.
         -2   -1    0    0    0  501 -0.00000000000E+00 -0.00000000000E+00 -0.13751360290E+04  0.13751360290E+04  0.00000000000E+00 0.  1.
    9900016    2    1    2    0    0  0.11005156552E+03 -0.44491254695E+03  0.53082183994E+03  0.23380940260E+04  0.22304379227E+04 0.  0.
         24    2    3    3    0    0  0.12619331855E+03 -0.58586536808E+01 -0.86349847913E+02  0.16234437123E+03  0.54224728367E+02 0.  0.
        -15    1    4    4    0    0  0.12335751995E+02  0.15835091818E+02 -0.48421027659E+01  0.20648652967E+02  0.00000000000E+00 0.  1.
        -15    1    3    3    0    0  0.18317439196E+03 -0.15643720534E+03 -0.60968569861E+03  0.65554718226E+03  0.00000000000E+00 0.  1.
         15    1    3    3    0    0 -0.10511893920E+02 -0.18730397938E+03  0.19593810970E+02  0.18861918787E+03  0.00000000000E+00 0. -1.
         15    1    3    3    0    0  0.63586974478E+02 -0.24586584838E+03  0.56107772511E+03  0.61587460764E+03  0.00000000000E+00 0. -1.
        -16    1    1    2    0    0 -0.11005156552E+03  0.44491254695E+03 -0.36012212585E+03  0.58287774622E+03  0.00000000000E+00 0.  1.
         16    1    4    4    0    0  0.11385756655E+03 -0.21693745499E+02 -0.81507745147E+02  0.14169571826E+03  0.00000000000E+00 0. -1.
    9900018    1    3    3    0    0 -0.25239122555E+03  0.15055313983E+03  0.64618585038E+03  0.71570867695E+03  0.91187600000E+02 0.  0.
<mgrwt>
<rscale>  0 0.29159797E+04</rscale>
<asrwt>0</asrwt>
<pdfrwt beam="1">  1        2 0.23782088E+00 0.29159797E+04</pdfrwt>
<pdfrwt beam="2">  1       -2 0.21155939E+00 0.29159797E+04</pdfrwt>
<totfact> 0.11536182E+00</totfact>
</mgrwt>
</event>
<event>
11    1  0.1875766E-010  0.2906687E+04  0.7818608E-02  0.8270891E-01
          2   -1    0    0  501    0  0.00000000000E+00  0.00000000000E+00  0.87548084412E+03  0.87548084412E+03  0.00000000000E+00 0. -1.
         -2   -1    0    0    0  501 -0.00000000000E+00 -0.00000000000E+00 -0.24126246330E+04  0.24126246330E+04  0.00000000000E+00 0.  1.
    9900016    2    1    2    0    0 -0.15043857606E+03 -0.19465187733E+03 -0.56659781462E+03  0.22868659420E+04  0.22018632189E+04 0.  0.
         24    2    3    3    0    0 -0.45695934550E+03 -0.22377873635E+03  0.15195559270E+03  0.54123319888E+03  0.10466187050E+03 0.  0.
        -15    1    4    4    0    0 -0.15628239720E+03 -0.12725987606E+03  0.35437268447E+02  0.20463397500E+03  0.00000000000E+00 0.  1.
        -15    1    3    3    0    0 -0.10025882642E+03  0.95102023670E+02 -0.87699634331E+02  0.16366872958E+03  0.00000000000E+00 0.  1.
         15    1    3    3    0    0  0.53725599693E+02  0.20162989068E+03  0.11332723669E+03  0.23745339638E+03  0.00000000000E+00 0. -1.
         15    1    3    3    0    0  0.32427462492E+03 -0.37078848936E+03 -0.96456048658E+03  0.10830582018E+04  0.00000000000E+00 0. -1.
        -16    1    1    2    0    0  0.15043857606E+03  0.19465187733E+03 -0.97054597426E+03  0.10012395351E+04  0.00000000000E+00 0.  1.
         16    1    4    4    0    0 -0.30067694830E+03 -0.96518860284E+02  0.11651832425E+03  0.33659922388E+03  0.00000000000E+00 0. -1.
    9900018    1    3    3    0    0  0.28779371243E+02  0.10318343403E+03  0.22037947691E+03  0.26145241537E+03  0.91187600000E+02 0.  0.
<mgrwt>
<rscale>  0 0.29066865E+04</rscale>
<asrwt>0</asrwt>
<pdfrwt beam="1">  1        2 0.13468936E+00 0.29066865E+04</pdfrwt>
<pdfrwt beam="2">  1       -2 0.37117302E+00 0.29066865E+04</pdfrwt>
<totfact> 0.29985548E-01</totfact>
</mgrwt>
</event>
<event>
10    1  0.1875766E-010  0.2827381E+04  0.7818608E-02  0.8294818E-01
          2   -1    0    0  501    0  0.00000000000E+00  0.00000000000E+00  0.15436459185E+04  0.15436459185E+04  0.00000000000E+00 0. -1.
         -2   -1    0    0    0  501 -0.00000000000E+00 -0.00000000000E+00 -0.12946754997E+04  0.12946754997E+04  0.00000000000E+00 0.  1.
    9900016    2    1    2    0    0 -0.20686016654E+03 -0.50891202098E+03  0.15691000963E+03  0.22813136153E+04  0.22086168718E+04 0.  0.
        -15    1    3    3    0    0 -0.14025908422E+03  0.28934832317E+03  0.29429713873E+02  0.32289498430E+03  0.00000000000E+00 0. -1.
        -15    1    3    3    0    0 -0.14332574716E+03 -0.94918283337E+02 -0.10366335563E+02  0.17221849849E+03  0.00000000000E+00 0.  1.
         15    1    3    3    0    0 -0.32230256702E+02  0.32762130811E+02 -0.11991826892E+02  0.47496848048E+02  0.00000000000E+00 0.  1.
         15    1    3    3    0    0  0.72379325096E+02 -0.47176795898E+03  0.15241378463E+03  0.50103266916E+03  0.00000000000E+00 0. -1.
        -16    1    1    2    0    0  0.20686016654E+03  0.50891202098E+03  0.92060409100E+02  0.55700780293E+03  0.00000000000E+00 0.  1.
         16    1    3    3    0    0  0.51366378401E+03  0.18419152261E+03 -0.13785455820E+03  0.56283290524E+03  0.00000000000E+00 0. -1.
    9900018    1    3    3    0    0 -0.47708818756E+03 -0.44852775525E+03  0.13527923179E+03  0.67483771004E+03  0.91187600000E+02 0.  0.
<mgrwt>
<rscale>  0 0.28273808E+04</rscale>
<asrwt>0</asrwt>
<pdfrwt beam="1">  1        2 0.23748399E+00 0.28273808E+04</pdfrwt>
<pdfrwt beam="2">  1       -2 0.19918085E+00 0.28273808E+04</pdfrwt>
<totfact> 0.14024670E+00</totfact>
</mgrwt>
</event>
<event>
10    1  0.1875766E-010  0.2535761E+04  0.7818608E-02  0.8390355E-01
          2   -1    0    0  501    0  0.00000000000E+00  0.00000000000E+00  0.22336436542E+04  0.22336436542E+04  0.00000000000E+00 0.  1.
         -2   -1    0    0    0  501 -0.00000000000E+00 -0.00000000000E+00 -0.71968543531E+03  0.71968543531E+03  0.00000000000E+00 0. -1.
    9900016    2    1    2    0    0 -0.18837570787E+03  0.16603819687E+03  0.11019169624E+04  0.24708023160E+04  0.21971775082E+04 0.  0.
        -15    1    3    3    0    0 -0.90751384694E+03 -0.19434565835E+03  0.70634280394E+03  0.11663068953E+04  0.00000000000E+00 0.  1.
        -15    1    3    3    0    0  0.10393248206E+02 -0.27664237238E+01  0.58187570740E+01  0.12228272256E+02  0.00000000000E+00 0.  1.
         15    1    3    3    0    0  0.66054375261E+03  0.32260732439E+03  0.13811249902E+03  0.74797633468E+03  0.00000000000E+00 0. -1.
         15    1    3    3    0    0  0.70655557496E+02  0.46847287492E+02  0.61121081180E+02  0.10451154345E+03  0.00000000000E+00 0. -1.
        -16    1    1    2    0    0  0.18837570787E+03 -0.16603819687E+03  0.41204125653E+03  0.48252677358E+03  0.00000000000E+00 0.  1.
         16    1    3    3    0    0 -0.14460775774E+03 -0.40677201083E+01  0.23937302735E+03  0.27969160904E+03  0.00000000000E+00 0. -1.
    9900018    1    3    3    0    0  0.12215333849E+03 -0.22366128296E+01 -0.48851206187E+02  0.16008766124E+03  0.91187600000E+02 0.  0.
<mgrwt>
<rscale>  0 0.25357609E+04</rscale>
<asrwt>0</asrwt>
<pdfrwt beam="1">  1        2 0.34363748E+00 0.25357609E+04</pdfrwt>
<pdfrwt beam="2">  1       -2 0.11072084E+00 0.25357609E+04</pdfrwt>
<totfact> 0.28423330E+00</totfact>
</mgrwt>
</event>
<event>
11    1  0.1875766E-010  0.2544860E+04  0.7818608E-02  0.8387176E-01
          1   -1    0    0  501    0  0.00000000000E+00  0.00000000000E+00  0.18683442258E+04  0.18683442258E+04  0.00000000000E+00 0. -1.
         -1   -1    0    0    0  501 -0.00000000000E+00 -0.00000000000E+00 -0.86658470642E+03  0.86658470642E+03  0.00000000000E+00 0.  1.
    9900016    2    1    2    0    0  0.12861691503E+03 -0.29001133075E+03  0.79697361273E+03  0.23573231188E+04  0.21957132017E+04 0.  0.
        -24    2    3    3    0    0 -0.20104537862E+03 -0.11273979834E+02  0.25886250135E+03  0.33312217239E+03  0.58431500506E+02 0.  0.
        -15    1    3    3    0    0  0.44265055500E+03  0.58367518538E+02  0.43652780078E+03  0.62442197424E+03  0.00000000000E+00 0.  1.
        -15    1    3    3    0    0 -0.93802673170E+02  0.11278409620E+03 -0.37338052429E+02  0.15137147687E+03  0.00000000000E+00 0.  1.
         15    1    3    3    0    0 -0.13901407159E+03 -0.22395157487E+03  0.63241667795E+03  0.68514967309E+03  0.00000000000E+00 0. -1.
         15    1    4    4    0    0 -0.81407918977E+02 -0.18558520184E+02  0.67712351030E+02  0.10750176941E+03  0.00000000000E+00 0. -1.
        -16    1    4    4    0    0 -0.11963745964E+03  0.72845403502E+01  0.19115015032E+03  0.22562040298E+03  0.00000000000E+00 0.  1.
         16    1    1    2    0    0 -0.12861691503E+03  0.29001133075E+03  0.20478590661E+03  0.37760581344E+03  0.00000000000E+00 0. -1.
    9900018    1    3    3    0    0  0.11982848341E+03 -0.22593739079E+03 -0.49349531492E+03  0.56325782216E+03  0.91187600000E+02 0.  0.
<mgrwt>
<rscale>  0 0.25448603E+04</rscale>
<asrwt>0</asrwt>
<pdfrwt beam="1">  1        1 0.28743757E+00 0.25448603E+04</pdfrwt>
<pdfrwt beam="2">  1       -1 0.13332072E+00 0.25448603E+04</pdfrwt>
<totfact> 0.15408119E+00</totfact>
</mgrwt>
</event>
<event>
11    1  0.1875766E-010  0.3598421E+04  0.7818608E-02  0.8090854E-01
          1   -1    0    0  501    0  0.00000000000E+00  0.00000000000E+00  0.36375778643E+04  0.36375778643E+04  0.00000000000E+00 0. -1.
         -1   -1    0    0    0  501 -0.00000000000E+00 -0.00000000000E+00 -0.88992126955E+03  0.88992126955E+03  0.00000000000E+00 0.  1.
    9900016    2    1    2    0    0 -0.77999935185E+03 -0.68507173562E+03  0.24100132899E+04  0.34358374311E+04  0.22179027309E+04 0.  0.
        -24    2    3    3    0    0 -0.38447291115E+03 -0.50585518967E+02  0.11073699508E+04  0.11781412211E+04  0.10663120921E+03 0.  0.
        -15    1    3    3    0    0 -0.12231918658E+03 -0.22704950188E+03  0.18500457604E+03  0.31739589295E+03  0.00000000000E+00 0.  1.
        -15    1    3    3    0    0 -0.33969277719E+03 -0.27025600151E+03  0.42042835694E+02  0.43611591264E+03  0.00000000000E+00 0.  1.
         15    1    3    3    0    0  0.42160537693E+02  0.27968016412E+03  0.10371764644E+04  0.10750504749E+04  0.00000000000E+00 0. -1.
         15    1    4    4    0    0 -0.17459917540E+03 -0.42996139127E+02  0.65786174705E+03  0.68199385500E+03  0.00000000000E+00 0. -1.
        -16    1    4    4    0    0 -0.20987373575E+03 -0.75893798397E+01  0.44950820373E+03  0.49614736608E+03  0.00000000000E+00 0.  1.
         16    1    1    2    0    0  0.77999935185E+03  0.68507173562E+03  0.33764330485E+03  0.10916617027E+04  0.00000000000E+00 0. -1.
    9900018    1    3    3    0    0  0.24324985372E+02 -0.41686087739E+03  0.38419462955E+02  0.42913392960E+03  0.91187600000E+02 0.  0.
<mgrwt>
<rscale>  0 0.35984207E+04</rscale>
<asrwt>0</asrwt>
<pdfrwt beam="1">  1        1 0.55962736E+00 0.35984207E+04</pdfrwt>
<pdfrwt beam="2">  1       -1 0.13691097E+00 0.35984207E+04</pdfrwt>
<totfact> 0.69605911E-02</totfact>
</mgrwt>
</event>
<event>
11    1  0.1875766E-010  0.2779870E+04  0.7818608E-02  0.8309545E-01
         -1   -1    0    0    0  501 -0.00000000000E+00  0.00000000000E+00  0.13832063643E+04  0.13832063643E+04  0.00000000000E+00 0.  1.
          1   -1    0    0  501    0  0.00000000000E+00 -0.00000000000E+00 -0.13966967460E+04  0.13966967460E+04  0.00000000000E+00 0. -1.
    9900016    2    1    2    0    0 -0.26859066308E+03 -0.43945188226E+03  0.17394299074E+02  0.22639450068E+04  0.22045148063E+04 0.  0.
         24    2    3    3    0    0  0.43087919010E+02 -0.28087007790E+03  0.10848163062E+03  0.31786209028E+03  0.92322666938E+02 0.  0.
        -15    1    3    3    0    0 -0.10329663621E+03 -0.24686200537E+03 -0.27653327644E+02  0.26902741733E+03  0.00000000000E+00 0.  1.
        -15    1    4    4    0    0  0.64647111471E+02 -0.20621911626E+03  0.53390881780E+02  0.22261212723E+03  0.00000000000E+00 0.  1.
         15    1    3    3    0    0  0.10957004441E+03 -0.38171350933E+02  0.40226724441E+02  0.12280405540E+03  0.00000000000E+00 0. -1.
         15    1    3    3    0    0 -0.84918175284E+03  0.15381148615E+03  0.26253501740E+03  0.90204892217E+03  0.00000000000E+00 0. -1.
        -16    1    1    2    0    0  0.26859066308E+03  0.43945188226E+03 -0.30884680806E+02  0.51595810356E+03  0.00000000000E+00 0.  1.
         16    1    4    4    0    0 -0.21559192461E+02 -0.74650961646E+02  0.55090748839E+02  0.95249963054E+02  0.00000000000E+00 0. -1.
    9900018    1    3    3    0    0  0.53122976255E+03 -0.27359934207E+02 -0.36619574575E+03  0.65220252163E+03  0.91187600000E+02 0.  0.
<mgrwt>
<rscale>  0 0.27798704E+04</rscale>
<asrwt>0</asrwt>
<pdfrwt beam="1">  1        1 0.21487642E+00 0.27798704E+04</pdfrwt>
<pdfrwt beam="2">  1       -1 0.21280098E+00 0.27798704E+04</pdfrwt>
<totfact> 0.82430542E-01</totfact>
</mgrwt>
</event>
<event>
11    1  0.1875766E-010  0.3741977E+04  0.7818608E-02  0.8058722E-01
          1   -1    0    0  501    0  0.00000000000E+00  0.00000000000E+00  0.25434161327E+04  0.25434161327E+04  0.00000000000E+00 0. -1.
         -1   -1    0    0    0  501 -0.00000000000E+00 -0.00000000000E+00 -0.13763370722E+04  0.13763370722E+04  0.00000000000E+00 0.  1.
    9900016    2    1    2    0    0  0.54461385088E+03  0.10880904136E+04  0.62436336907E+03  0.25874299272E+04  0.21964560130E+04 0.  0.
        -24    2    3    3    0    0  0.67061246775E+03  0.86271579119E+03  0.10264591149E+04  0.15005072096E+04  0.62481622222E+02 0.  0.
        -15    1    3    3    0    0  0.26217905346E+03  0.86845095827E+02 -0.10887628330E+03  0.29687366304E+03  0.00000000000E+00 0.  1.
        -15    1    3    3    0    0 -0.28327060486E+03  0.67277078314E+02 -0.13543080624E+03  0.32110737165E+03  0.00000000000E+00 0.  1.
         15    1    4    4    0    0  0.23609259897E+03  0.27060670999E+03  0.36640025231E+03  0.51304663694E+03  0.00000000000E+00 0. -1.
         15    1    3    3    0    0 -0.12458708619E+03  0.21037904879E+03 -0.86377908047E+01  0.24465464975E+03  0.00000000000E+00 0. -1.
        -16    1    4    4    0    0  0.43451986878E+03  0.59210908120E+03  0.66005886260E+03  0.98746057263E+03  0.00000000000E+00 0.  1.
         16    1    1    2    0    0 -0.54461385088E+03 -0.10880904136E+04  0.54271569144E+03  0.13323232777E+04  0.00000000000E+00 0. -1.
    9900018    1    3    3    0    0  0.19680020724E+02 -0.13912660054E+03 -0.14915086550E+03  0.22428703321E+03  0.91187600000E+02 0.  0.
<mgrwt>
<rscale>  0 0.37419770E+04</rscale>
<asrwt>0</asrwt>
<pdfrwt beam="1">  1        1 0.39129479E+00 0.37419770E+04</pdfrwt>
<pdfrwt beam="2">  1       -1 0.21174416E+00 0.37419770E+04</pdfrwt>
<totfact> 0.12639106E-01</totfact>
</mgrwt>
</event>
<event>
11    1  0.1906588E-010  0.2497814E+04  0.7818608E-02  0.8403765E-01
         -2   -1    0    0    0  501 -0.00000000000E+00  0.00000000000E+00  0.79804869941E+03  0.79804869941E+03  0.00000000000E+00 0.  1.
          2   -1    0    0  501    0  0.00000000000E+00 -0.00000000000E+00 -0.19544783004E+04  0.19544783004E+04  0.00000000000E+00 0. -1.
    9900016    2    1    2    0    0 -0.18594578811E+03 -0.12984968100E+03 -0.85614378425E+03  0.23762181539E+04  0.22049929160E+04 0.  0.
         24    2    3    3    0    0 -0.21135916032E+03  0.35320860606E+03 -0.17513149787E+03  0.45151355734E+03  0.61355006886E+02 0.  0.
        -15    1    4    4    0    0 -0.13183895813E+02  0.52456839404E+02 -0.38068607398E+02  0.66141923001E+02  0.00000000000E+00 0.  1.
        -15    1    3    3    0    0 -0.99096044318E+02 -0.23687290392E+02 -0.27743699993E+03  0.29555439881E+03  0.00000000000E+00 0.  1.
         15    1    3    3    0    0  0.44832729763E+03 -0.38172453320E+03 -0.40649268280E+03  0.71550491698E+03  0.00000000000E+00 0. -1.
         15    1    3    3    0    0 -0.87144341515E+02 -0.20103472066E+03  0.38245823212E+03  0.44077590053E+03  0.00000000000E+00 0. -1.
        -16    1    1    2    0    0  0.18594578811E+03  0.12984968100E+03 -0.30028581673E+03  0.37630884589E+03  0.00000000000E+00 0.  1.
         16    1    4    4    0    0 -0.19817526450E+03  0.30075176666E+03 -0.13706289048E+03  0.38537163434E+03  0.00000000000E+00 0. -1.
    9900018    1    3    3    0    0 -0.23667353959E+03  0.12338825720E+03 -0.37954083577E+03  0.47286938024E+03  0.91187600000E+02 0.  0.
<mgrwt>
<rscale>  0 0.24978141E+04</rscale>
<asrwt>0</asrwt>
<pdfrwt beam="1">  1        2 0.30068896E+00 0.24978141E+04</pdfrwt>
<pdfrwt beam="2">  1       -2 0.12277672E+00 0.24978141E+04</pdfrwt>
<totfact> 0.31687082E+00</totfact>
</mgrwt>
</event>
<event>
11    1  0.1875766E-010  0.2932256E+04  0.7818608E-02  0.8263345E-01
         -1   -1    0    0    0  501 -0.00000000000E+00  0.00000000000E+00  0.21998635741E+04  0.21998635741E+04  0.00000000000E+00 0.  1.
          1   -1    0    0  501    0  0.00000000000E+00 -0.00000000000E+00 -0.97711996668E+03  0.97711996668E+03  0.00000000000E+00 0. -1.
    9900016    2    1    2    0    0  0.30405912791E+03  0.16670376179E+03  0.36205895952E+03  0.22490718205E+04  0.21924860926E+04 0.  0.
         24    2    3    3    0    0  0.33964649517E+03  0.17350581948E+03 -0.15871306715E+03  0.41805934750E+03  0.64185428871E+02 0.  0.
        -15    1    4    4    0    0  0.28836105292E+03  0.15616377545E+03 -0.11192898610E+03  0.34650731527E+03  0.00000000000E+00 0.  1.
        -15    1    3    3    0    0 -0.60079435099E+03  0.78720254638E+01 -0.92931778120E+02  0.60799024363E+03  0.00000000000E+00 0.  1.
         15    1    3    3    0    0 -0.79055929412E+02 -0.12797373760E+03  0.21134136708E+03  0.25940757686E+03  0.00000000000E+00 0. -1.
         15    1    3    3    0    0  0.37084037490E+03  0.28443442093E+03  0.41943719403E+03  0.62797538423E+03  0.00000000000E+00 0. -1.
        -16    1    1    2    0    0 -0.30405912791E+03 -0.16670376179E+03  0.86068464791E+03  0.92791172027E+03  0.00000000000E+00 0.  1.
         16    1    4    4    0    0  0.51285442248E+02  0.17342044025E+02 -0.46784081051E+02  0.71552032238E+02  0.00000000000E+00 0. -1.
    9900018    1    3    3    0    0  0.27342253825E+03 -0.17113476648E+03 -0.17074756313E+02  0.33563926829E+03  0.91187600000E+02 0.  0.
<mgrwt>
<rscale>  0 0.29322555E+04</rscale>
<asrwt>0</asrwt>
<pdfrwt beam="1">  1        1 0.15032615E+00 0.29322555E+04</pdfrwt>
<pdfrwt beam="2">  1       -1 0.33844055E+00 0.29322555E+04</pdfrwt>
<totfact> 0.25007506E-01</totfact>
</mgrwt>
</event>
<event>
11    1  0.1875766E-010  0.2830351E+04  0.7818608E-02  0.8293907E-01
         -1   -1    0    0    0  501 -0.00000000000E+00  0.00000000000E+00  0.11921432959E+04  0.11921432959E+04  0.00000000000E+00 0.  1.
          1   -1    0    0  501    0  0.00000000000E+00 -0.00000000000E+00 -0.16799334532E+04  0.16799334532E+04  0.00000000000E+00 0. -1.
    9900016    2    1    2    0    0 -0.51897158043E+03 -0.10147256551E+03 -0.56674096945E+03  0.23374166574E+04  0.22051514962E+04 0.  0.
         24    2    3    3    0    0 -0.44960905957E+03  0.21621104640E+03  0.24610076362E+03  0.55906321937E+03  0.55592934506E+02 0.  0.
        -15    1    4    4    0    0 -0.29974833299E+03  0.12200430966E+03  0.13934398185E+03  0.35235047890E+03  0.00000000000E+00 0.  1.
        -15    1    3    3    0    0 -0.96567283608E+02 -0.24934562873E+01  0.18655977453E+03  0.21008571360E+03  0.00000000000E+00 0.  1.
         15    1    3    3    0    0 -0.23589531084E+03 -0.13475484456E+03 -0.22215534468E+02  0.27257842134E+03  0.00000000000E+00 0. -1.
         15    1    3    3    0    0  0.53630872667E+03 -0.67374114611E+02 -0.64966673334E+03  0.84512317802E+03  0.00000000000E+00 0. -1.
        -16    1    1    2    0    0  0.51897158043E+03  0.10147256551E+03  0.78950812127E+02  0.53466009163E+03  0.00000000000E+00 0.  1.
         16    1    4    4    0    0 -0.14986072659E+03  0.94206736732E+02  0.10675678177E+03  0.20671274047E+03  0.00000000000E+00 0. -1.
    9900018    1    3    3    0    0 -0.27320865308E+03 -0.11306119644E+03 -0.32751923978E+03  0.45056612509E+03  0.91187600000E+02 0.  0.
<mgrwt>
<rscale>  0 0.28303508E+04</rscale>
<asrwt>0</asrwt>
<pdfrwt beam="1">  1        1 0.25845130E+00 0.28303508E+04</pdfrwt>
<pdfrwt beam="2">  1       -1 0.18340666E+00 0.28303508E+04</pdfrwt>
<totfact> 0.83567241E-01</totfact>
</mgrwt>
</event>
<event>
11    1  0.1875766E-010  0.3072196E+04  0.7818608E-02  0.8223410E-01
         -1   -1    0    0    0  501 -0.00000000000E+00  0.00000000000E+00  0.13685950166E+04  0.13685950166E+04  0.00000000000E+00 0.  1.
          1   -1    0    0  501    0  0.00000000000E+00 -0.00000000000E+00 -0.17241015983E+04  0.17241015983E+04  0.00000000000E+00 0. -1.
    9900016    2    1    2    0    0  0.90122529556E+02 -0.65438472879E+03 -0.61847828614E+03  0.23817145047E+04  0.22031130584E+04 0.  0.
         24    2    3    3    0    0  0.76346820429E+02 -0.56956732056E+03  0.38785156346E+03  0.69653800574E+03  0.67086425803E+02 0.  0.
        -15    1    3    3    0    0 -0.43800287979E+03  0.21289266483E+02 -0.11163595929E+03  0.45250673253E+03  0.00000000000E+00 0.  1.
        -15    1    4    4    0    0 -0.68837256431E+01 -0.14490544950E+03  0.11304856704E+03  0.18391561512E+03  0.00000000000E+00 0.  1.
         15    1    3    3    0    0 -0.50527184800E+02  0.39655247754E+02 -0.26490926347E+03  0.27258476287E+03  0.00000000000E+00 0. -1.
         15    1    3    3    0    0  0.20899370288E+03 -0.12778213170E+03  0.15236959227E+02  0.24543595081E+03  0.00000000000E+00 0. -1.
        -16    1    1    2    0    0 -0.90122529556E+02  0.65438472879E+03  0.26297170449E+03  0.71098211016E+03  0.00000000000E+00 0.  1.
         16    1    4    4    0    0  0.83230546072E+02 -0.42466187106E+03  0.27480299642E+03  0.51262239063E+03  0.00000000000E+00 0. -1.
    9900018    1    3    3    0    0  0.29331207084E+03 -0.17979790768E+02 -0.64502158607E+03  0.71464905280E+03  0.91187600000E+02 0.  0.
<mgrwt>
<rscale>  0 0.30721959E+04</rscale>
<asrwt>0</asrwt>
<pdfrwt beam="1">  1        1 0.26524640E+00 0.30721959E+04</pdfrwt>
<pdfrwt beam="2">  1       -1 0.21055308E+00 0.30721959E+04</pdfrwt>
<totfact> 0.49472525E-01</totfact>
</mgrwt>
</event>
<event>
11    1  0.1875766E-010  0.2653627E+04  0.7818608E-02  0.8350210E-01
         -1   -1    0    0    0  501 -0.00000000000E+00  0.00000000000E+00  0.88936393492E+03  0.88936393492E+03  0.00000000000E+00 0.  1.
          1   -1    0    0  501    0  0.00000000000E+00 -0.00000000000E+00 -0.19794306975E+04  0.19794306975E+04  0.00000000000E+00 0. -1.
    9900016    2    1    2    0    0 -0.20686219316E+03 -0.30880518409E+02 -0.13197987292E+04  0.25581141698E+04  0.21813605494E+04 0.  0.
         24    2    3    3    0    0  0.21899815836E+03  0.95723230379E+02 -0.15588249220E+02  0.24529286727E+03  0.52938332225E+02 0.  0.
        -15    1    4    4    0    0  0.94761370331E+02  0.49884218360E+02 -0.32213926790E+02  0.11182973499E+03  0.00000000000E+00 0. -1.
        -15    1    3    3    0    0  0.19094932003E+02  0.19907664396E+03  0.11918039116E+03  0.23280913263E+03  0.00000000000E+00 0.  1.
         15    1    3    3    0    0 -0.37396302630E+01  0.12481936928E+02  0.35209574072E+02  0.37543277565E+02  0.00000000000E+00 0.  1.
         15    1    3    3    0    0 -0.70006616313E+03  0.24698373797E+03 -0.10193729953E+04  0.12610372330E+04  0.00000000000E+00 0. -1.
        -16    1    1    2    0    0  0.20686219316E+03  0.30880518409E+02  0.22973196663E+03  0.31068046264E+03  0.00000000000E+00 0.  1.
         16    1    4    4    0    0  0.12423678803E+03  0.45839012019E+02  0.16625677570E+02  0.13346313228E+03  0.00000000000E+00 0. -1.
    9900018    1    3    3    0    0  0.25885050986E+03 -0.58514606764E+03 -0.43922744991E+03  0.78143165925E+03  0.91187600000E+02 0.  0.
<mgrwt>
<rscale>  0 0.26536272E+04</rscale>
<asrwt>0</asrwt>
<pdfrwt beam="1">  1        1 0.30452780E+00 0.26536272E+04</pdfrwt>
<pdfrwt beam="2">  1       -1 0.13682522E+00 0.26536272E+04</pdfrwt>
<totfact> 0.12003137E+00</totfact>
</mgrwt>
</event>
<event>
11    1  0.1875766E-010  0.3151159E+04  0.7818608E-02  0.8201836E-01
          2   -1    0    0  501    0  0.00000000000E+00  0.00000000000E+00  0.21111527045E+04  0.21111527045E+04  0.00000000000E+00 0.  1.
         -2   -1    0    0    0  501 -0.00000000000E+00 -0.00000000000E+00 -0.11758746872E+04  0.11758746872E+04  0.00000000000E+00 0. -1.
    9900016    2    1    2    0    0  0.12739594980E+03 -0.79344823154E+03  0.64636435740E+03  0.24330596364E+04  0.22036793069E+04 0.  0.
        -24    2    3    3    0    0 -0.32297291278E+02 -0.86530101858E+03  0.20553061444E+03  0.89461721773E+03  0.91149136066E+02 0.  0.
        -15    1    3    3    0    0  0.17888221388E+03  0.27904402209E+02 -0.26550339850E+03  0.32135581015E+03  0.00000000000E+00 0.  1.
        -15    1    3    3    0    0  0.20616973613E+03  0.46330786135E+02  0.22365174114E+03  0.30768913396E+03  0.00000000000E+00 0.  1.
         15    1    4    4    0    0 -0.41011598602E+02 -0.38336019576E+03  0.53816080456E+02  0.38928544981E+03  0.00000000000E+00 0. -1.
         15    1    3    3    0    0  0.49357562595E+02  0.28530557825E+03  0.16779443450E+02  0.29002929454E+03  0.00000000000E+00 0. -1.
        -16    1    4    4    0    0  0.87143073245E+01 -0.48194082281E+03  0.15171453398E+03  0.50533176792E+03  0.00000000000E+00 0.  1.
         16    1    1    2    0    0 -0.12739594980E+03  0.79344823154E+03  0.28891365986E+03  0.85396775526E+03  0.00000000000E+00 0. -1.
    9900018    1    3    3    0    0 -0.27471627153E+03 -0.28768797956E+03  0.46590595687E+03  0.61936818006E+03  0.91187600000E+02 0.  0.
<mgrwt>
<rscale>  0 0.31511592E+04</rscale>
<asrwt>0</asrwt>
<pdfrwt beam="1">  1        2 0.32479272E+00 0.31511592E+04</pdfrwt>
<pdfrwt beam="2">  1       -2 0.18090380E+00 0.31511592E+04</pdfrwt>
<totfact> 0.87531211E-01</totfact>
</mgrwt>
</event>
<event>
10    1  0.1875766E-010  0.2654377E+04  0.7818608E-02  0.8349962E-01
          1   -1    0    0  501    0  0.00000000000E+00  0.00000000000E+00  0.28371742962E+04  0.28371742962E+04  0.00000000000E+00 0. -1.
         -1   -1    0    0    0  501 -0.00000000000E+00 -0.00000000000E+00 -0.62083927708E+03  0.62083927708E+03  0.00000000000E+00 0.  1.
    9900016    2    1    2    0    0  0.37585308620E+03 -0.44835618023E+02  0.15939155520E+04  0.27295344946E+04  0.21832352130E+04 0.  0.
        -15    1    3    3    0    0 -0.36631304923E+02 -0.33832762535E+02  0.85452403834E+02  0.98937463289E+02  0.00000000000E+00 0. -1.
        -15    1    3    3    0    0 -0.38051757193E+03 -0.35480437204E+02  0.42294461030E+02  0.38450137244E+03  0.00000000000E+00 0.  1.
         15    1    3    3    0    0 -0.23477015109E+02 -0.32779426913E+02  0.22171119545E+02  0.46013254710E+02  0.00000000000E+00 0.  1.
         15    1    3    3    0    0  0.11386497587E+04  0.89439940964E+02  0.83747141354E+03  0.14162913346E+04  0.00000000000E+00 0. -1.
        -16    1    1    2    0    0 -0.37585308620E+03  0.44835618023E+02  0.62241946709E+03  0.72847907867E+03  0.00000000000E+00 0.  1.
         16    1    3    3    0    0 -0.83511727266E+02  0.15371011557E+03  0.16203740731E+03  0.23844733084E+03  0.00000000000E+00 0. -1.
    9900018    1    3    3    0    0 -0.23865905326E+03 -0.18589304790E+03  0.44448874679E+03  0.54534373873E+03  0.91187600000E+02 0.  0.
<mgrwt>
<rscale>  0 0.26543769E+04</rscale>
<asrwt>0</asrwt>
<pdfrwt beam="1">  1        1 0.43648835E+00 0.26543769E+04</pdfrwt>
<pdfrwt beam="2">  1       -1 0.95513736E-01 0.26543769E+04</pdfrwt>
<totfact> 0.72660562E-01</totfact>
</mgrwt>
</event>
<event>
11    1  0.1875766E-010  0.3265989E+04  0.7818608E-02  0.8171604E-01
         -2   -1    0    0    0  501 -0.00000000000E+00  0.00000000000E+00  0.13095781327E+04  0.13095781327E+04  0.00000000000E+00 0.  1.
          2   -1    0    0  501    0  0.00000000000E+00 -0.00000000000E+00 -0.20362830661E+04  0.20362830661E+04  0.00000000000E+00 0. -1.
    9900016    2    1    2    0    0 -0.48589101500E+03 -0.57703639290E+03 -0.43517283410E+02  0.23281154337E+04  0.22020823421E+04 0.  0.
        -24    2    3    3    0    0  0.88853627752E+02 -0.54551209940E+03  0.38012721103E+03  0.67406817324E+03  0.66278109957E+02 0.  0.
        -15    1    3    3    0    0 -0.47293810674E+03 -0.20697821155E+03 -0.20395527832E+03  0.55507493946E+03  0.00000000000E+00 0.  1.
        -15    1    3    3    0    0 -0.29617489280E+02 -0.55244551382E+02  0.54316931264E+01  0.62917878372E+02  0.00000000000E+00 0.  1.
         15    1    3    3    0    0  0.36706679691E+03  0.25718872893E+03 -0.35107956378E+03  0.56933376484E+03  0.00000000000E+00 0. -1.
         15    1    4    4    0    0  0.52259051577E+02 -0.23340650256E+03  0.20051854727E+03  0.31211743257E+03  0.00000000000E+00 0. -1.
        -16    1    4    4    0    0  0.36594576176E+02 -0.31210559683E+03  0.17960866376E+03  0.36195074068E+03  0.00000000000E+00 0.  1.
         16    1    1    2    0    0  0.48589101500E+03  0.57703639290E+03 -0.68318764998E+03  0.10177457650E+04  0.00000000000E+00 0. -1.
    9900018    1    3    3    0    0 -0.43925584365E+03 -0.26490259500E+02  0.12595865454E+03  0.46672067779E+03  0.91187600000E+02 0.  0.
<mgrwt>
<rscale>  0 0.32659895E+04</rscale>
<asrwt>0</asrwt>
<pdfrwt beam="1">  1        2 0.31327431E+00 0.32659895E+04</pdfrwt>
<pdfrwt beam="2">  1       -2 0.20147356E+00 0.32659895E+04</pdfrwt>
<totfact> 0.69478958E-01</totfact>
</mgrwt>
</event>
