<event>
11    1  0.8055027E-012  0.4516948E+04  0.7818608E-02  0.8170684E-01
          2   -1    0    0  501    0  0.00000000000E+00  0.00000000000E+00  0.33176203996E+04  0.33176203996E+04  0.00000000000E+00 0. -1.
         -2   -1    0    0    0  501 -0.00000000000E+00 -0.00000000000E+00 -0.28124015778E+04  0.28124015778E+04  0.00000000000E+00 0.  1.
    9900016    2    1    2    0    0  0.23380678074E+03  0.46303068584E+03  0.43323979762E+03  0.22993439045E+04  0.21977767499E+04 0.  0.
        -24    2    3    3    0    0  0.46871764605E+03  0.83841673805E+03  0.11236038181E+04  0.14791608252E+04  0.52842677523E+02 0.  0.
        -15    1    3    3    0    0 -0.23491086531E+03 -0.37538605221E+03 -0.69036402045E+03  0.82018307929E+03  0.00000000000E+00 0.  1.
        -15    1    1    2    0    0  0.69433636003E+03  0.76476445035E+03 -0.62214118886E+03  0.12058305454E+04  0.00000000000E+00 0.  1.
         15    1    4    4    0    0  0.99202111983E+02  0.14812816424E+03  0.23159699943E+03  0.29226731294E+03  0.00000000000E+00 0. -1.
         15    1    1    2    0    0  0.14369884259E+03 -0.14900250997E+03 -0.11857030039E+03  0.23855821401E+03  0.00000000000E+00 0. -1.
        -16    1    4    4    0    0  0.36951553406E+03  0.69028857380E+03  0.89200681864E+03  0.11868935123E+04  0.00000000000E+00 0.  1.
         16    1    1    2    0    0 -0.82474103326E+03 -0.10086489496E+04  0.12920031526E+04  0.18348958067E+04  0.00000000000E+00 0. -1.
    9900018    1    1    2    0    0 -0.24710095010E+03 -0.70143676661E+02 -0.47931263908E+03  0.55139350675E+03  0.91187600000E+02 0.  0.
<mgrwt>
<rscale>  0 0.32695607E+04</rscale>
<asrwt>0</asrwt>
<pdfrwt beam="1">  1        2 0.51040314E+00 0.45169477E+04</pdfrwt>
<pdfrwt beam="2">  1       -2 0.43267717E+00 0.45169477E+04</pdfrwt>
<totfact> 0.35181182E-03</totfact>
</mgrwt>
</event>
<event>
11    1  0.8055027E-012  0.3328587E+04  0.7818608E-02  0.8363656E-01
         -2   -1    0    0    0  501 -0.00000000000E+00  0.00000000000E+00  0.18921726663E+04  0.18921726663E+04  0.00000000000E+00 0.  1.
          2   -1    0    0  501    0  0.00000000000E+00 -0.00000000000E+00 -0.28694061222E+04  0.28694061222E+04  0.00000000000E+00 0. -1.
    9900016    2    1    2    0    0  0.72270563677E+02 -0.86030006809E+02 -0.50116677578E+03  0.22581248848E+04  0.21989396676E+04 0.  0.
        -24    2    3    3    0    0 -0.74498587185E+03 -0.77036829744E+02  0.54338979542E+03  0.93181896642E+03  0.10988855270E+03 0.  0.
        -15    1    1    2    0    0 -0.51631222186E+03  0.38814318917E+03  0.38692500933E+03  0.75295710939E+03  0.00000000000E+00 0.  1.
        -15    1    3    3    0    0  0.81725643553E+03 -0.89931770648E+01 -0.10445565712E+04  0.13263059184E+04  0.00000000000E+00 0.  1.
         15    1    4    4    0    0 -0.30978746737E+03 -0.22247036999E+02  0.16063308204E+03  0.34966582995E+03  0.00000000000E+00 0. -1.
         15    1    1    2    0    0 -0.48571279152E+02  0.41379533641E+03 -0.30234031621E+03  0.51477705505E+03  0.00000000000E+00 0. -1.
        -16    1    4    4    0    0 -0.43519840448E+03 -0.54789792745E+02  0.38275671338E+03  0.58215313646E+03  0.00000000000E+00 0.  1.
         16    1    1    2    0    0  0.31427329781E+03 -0.78718548746E+03 -0.29947811336E+03  0.89895263377E+03  0.00000000000E+00 0. -1.
    9900018    1    1    2    0    0  0.17833963953E+03  0.71276968683E+02 -0.26117325982E+03  0.33676710548E+03  0.91187600000E+02 0.  0.
<mgrwt>
<rscale>  0 0.26134235E+04</rscale>
<asrwt>0</asrwt>
<pdfrwt beam="1">  1        2 0.44144709E+00 0.33285872E+04</pdfrwt>
<pdfrwt beam="2">  1       -2 0.29110349E+00 0.33285872E+04</pdfrwt>
<totfact> 0.60370495E-02</totfact>
</mgrwt>
</event>
<event>
10    1  0.8055027E-012  0.3238421E+04  0.7818608E-02  0.8319248E-01
         -2   -1    0    0    0  501 -0.00000000000E+00  0.00000000000E+00  0.21065710493E+04  0.21065710493E+04  0.00000000000E+00 0. -1.
          2   -1    0    0  501    0  0.00000000000E+00 -0.00000000000E+00 -0.28860554148E+04  0.28860554148E+04  0.00000000000E+00 0.  1.
    9900016    2    1    2    0    0  0.17590388982E+03 -0.36373506010E+02 -0.65140980614E+03  0.23352212190E+04  0.22353206024E+04 0.  0.
        -15    1    1    2    0    0 -0.52616289187E+03  0.53034318426E+03  0.29490436736E+03  0.80316864217E+03  0.00000000000E+00 0.  1.
        -15    1    3    3    0    0 -0.26354461466E+03 -0.70294994489E+03  0.52258143996E+03  0.91470528058E+03  0.00000000000E+00 0.  1.
         15    1    1    2    0    0  0.74843641998E+03  0.19020651860E+02  0.21384674523E+03  0.77862011944E+03  0.00000000000E+00 0. -1.
         15    1    3    3    0    0  0.30542846636E+03  0.49289551278E+03 -0.87433340595E+03  0.10491384272E+04  0.00000000000E+00 0. -1.
        -16    1    3    3    0    0  0.13402003812E+03  0.17368092610E+03 -0.29965784014E+03  0.37137751125E+03  0.00000000000E+00 0.  1.
         16    1    1    2    0    0 -0.39047364077E+03 -0.44170678920E+03 -0.72169180055E+03  0.93188712124E+03  0.00000000000E+00 0. -1.
    9900018    1    1    2    0    0 -0.77037771593E+01 -0.71283540912E+02  0.84866128557E+02  0.14372936220E+03  0.91187600000E+02 0.  0.
<mgrwt>
<rscale>  0 0.27490974E+04</rscale>
<asrwt>0</asrwt>
<pdfrwt beam="1">  1        2 0.44400852E+00 0.32384212E+04</pdfrwt>
<pdfrwt beam="2">  1       -2 0.32408785E+00 0.32384212E+04</pdfrwt>
<totfact> 0.36921077E-02</totfact>
</mgrwt>
</event>
