<event>
12    1  0.3245407E-012  0.1539172E+04  0.7818608E-02  0.9294347E-01
          2   -1    0    0  501    0  0.00000000000E+00  0.00000000000E+00  0.23616103290E+04  0.23616103290E+04  0.00000000000E+00 0. -1.
         -2   -1    0    0    0  501 -0.00000000000E+00 -0.00000000000E+00 -0.41202170508E+03  0.41202170508E+03  0.00000000000E+00 0.  1.
         23    2    1    2    0    0  0.27066055072E+03  0.43858222545E+02 -0.10826713059E+01  0.28884451469E+03  0.90825679666E+02 0.  0.
    9900016    2    1    2    0    0  0.25594888954E+03  0.21538508956E+03  0.16482905287E+04  0.18245158136E+04  0.70717445964E+03 0.  0.
         23    2    4    4    0    0  0.41520024646E+02 -0.16919929693E+03  0.31269551800E+03  0.37388808162E+03  0.10798840712E+03 0.  0.
        -15    1    5    5    0    0  0.28676365160E+02 -0.79260130573E+02  0.24914262846E+03  0.26301435614E+03  0.00000000000E+00 0.  1.
        -15    1    3    3    0    0  0.17106139189E+03 -0.29368886666E+01 -0.33052853831E+02  0.17425015425E+03  0.00000000000E+00 0.  1.
         15    1    5    5    0    0  0.12843659486E+02 -0.89939166354E+02  0.63552889538E+02  0.11087372548E+03  0.00000000000E+00 0. -1.
         15    1    3    3    0    0  0.99599158833E+02  0.46795111211E+02  0.31970182525E+02  0.11459436044E+03  0.00000000000E+00 0. -1.
        -16    1    4    4    0    0  0.13975813574E+03  0.16019517572E+03  0.21740534500E+03  0.30407221982E+03  0.00000000000E+00 0.  1.
         16    1    1    2    0    0 -0.52660944026E+03 -0.25924331210E+03  0.30238076651E+03  0.66027170574E+03  0.00000000000E+00 0. -1.
    9900018    1    4    4    0    0  0.74670729153E+02  0.22438921076E+03  0.11181896657E+04  0.11465555122E+04  0.91187600000E+02 0.  0.
<mgrwt>
<rscale>  0 0.10130494E+04</rscale>
<asrwt>0</asrwt>
<pdfrwt beam="1">  1        2 0.36332466E+00 0.15391720E+04</pdfrwt>
<pdfrwt beam="2">  1       -2 0.63387956E-01 0.15391720E+04</pdfrwt>
<totfact> 0.92369022E+00</totfact>
</mgrwt>
</event>
<event>
12    1  0.3245407E-012  0.1821073E+04  0.7818608E-02  0.9346425E-01
         -1   -1    0    0    0  501 -0.00000000000E+00  0.00000000000E+00  0.94901200185E+03  0.94901200185E+03  0.00000000000E+00 0.  1.
          1   -1    0    0  501    0  0.00000000000E+00 -0.00000000000E+00 -0.11846399047E+04  0.11846399047E+04  0.00000000000E+00 0. -1.
         23    2    1    2    0    0  0.13982797847E+02 -0.11299645608E+03 -0.27675418505E+03  0.31211444737E+03  0.88650051291E+02 0.  0.
    9900016    2    1    2    0    0  0.54184789181E+03  0.60591049616E+03  0.18935731148E+02  0.10782983140E+04  0.70826691634E+03 0.  0.
         23    2    4    4    0    0  0.37707376767E+03  0.42236442013E+02 -0.10986496113E+03  0.40242804318E+03  0.76873122471E+02 0.  0.
        -15    1    5    5    0    0  0.24414729593E+03 -0.99032717096E+01 -0.68242431858E+02  0.25369865275E+03  0.00000000000E+00 0. -1.
        -15    1    3    3    0    0  0.58743577984E+01 -0.12709368802E+03 -0.23365048467E+03  0.26604485073E+03  0.00000000000E+00 0. -1.
         15    1    3    3    0    0  0.81084400485E+01  0.14097231939E+02 -0.43103700371E+02  0.46069596634E+02  0.00000000000E+00 0.  1.
         15    1    5    5    0    0  0.13292647173E+03  0.52139713723E+02 -0.41622529271E+02  0.14872939043E+03  0.00000000000E+00 0.  1.
        -16    1    4    4    0    0  0.23406485759E+03  0.35667342357E+03  0.92511307094E+02  0.43653250805E+03  0.00000000000E+00 0.  1.
         16    1    1    2    0    0 -0.55583068965E+03 -0.49291404008E+03  0.22190551026E+02  0.74323914524E+03  0.00000000000E+00 0. -1.
    9900018    1    4    4    0    0 -0.69290733453E+02  0.20700063058E+03  0.36289385183E+02  0.23933776274E+03  0.91187600000E+02 0.  0.
<mgrwt>
<rscale>  0 0.96618942E+03</rscale>
<asrwt>0</asrwt>
<pdfrwt beam="1">  1        1 0.18225229E+00 0.18210731E+04</pdfrwt>
<pdfrwt beam="2">  1       -1 0.14600185E+00 0.18210731E+04</pdfrwt>
<totfact> 0.38442561E+00</totfact>
</mgrwt>
</event>
<event>
12    1  0.3245407E-012  0.1912385E+04  0.7818608E-02  0.9122449E-01
         -1   -1    0    0    0  501 -0.00000000000E+00  0.00000000000E+00  0.18543382362E+04  0.18543382362E+04  0.00000000000E+00 0.  1.
          1   -1    0    0  501    0  0.00000000000E+00 -0.00000000000E+00 -0.65225988145E+03  0.65225988145E+03  0.00000000000E+00 0. -1.
         23    2    1    2    0    0 -0.25630965873E+03  0.94300783708E+02  0.18597466609E+03  0.34103041129E+03  0.84426808722E+02 0.  0.
    9900016    2    1    2    0    0  0.51448246132E+03  0.44452891319E+03 -0.17396337609E+01  0.98531533198E+03  0.71312349522E+03 0.  0.
         23    2    4    4    0    0  0.23599338792E+03 -0.21698985555E+02  0.14676127738E+03  0.28545119599E+03  0.61479977569E+02 0.  0.
        -15    1    3    3    0    0 -0.24810418004E+03  0.10298805799E+03  0.18929761502E+03  0.32862716153E+03  0.00000000000E+00 0.  1.
        -15    1    5    5    0    0  0.17149962715E+03 -0.43188157211E+02  0.10597332705E+03  0.20617391950E+03  0.00000000000E+00 0.  1.
         15    1    3    3    0    0 -0.82054786861E+01 -0.86872742839E+01 -0.33229489306E+01  0.12403249757E+02  0.00000000000E+00 0. -1.
         15    1    5    5    0    0  0.64493760772E+02  0.21489171656E+02  0.40787950323E+02  0.79277276495E+02  0.00000000000E+00 0. -1.
        -16    1    4    4    0    0 -0.10059967304E+03  0.59324200808E+02 -0.53090760032E+02  0.12828984300E+03  0.00000000000E+00 0.  1.
         16    1    1    2    0    0 -0.25817280259E+03 -0.53882969690E+03  0.10178433224E+04  0.11802523744E+04  0.00000000000E+00 0. -1.
    9900018    1    4    4    0    0  0.37908874644E+03  0.40690369794E+03 -0.95410151105E+02  0.57157429298E+03  0.91187600000E+02 0.  0.
<mgrwt>
<rscale>  0 0.11891026E+04</rscale>
<asrwt>0</asrwt>
<pdfrwt beam="1">  1        1 0.10034767E+00 0.19123851E+04</pdfrwt>
<pdfrwt beam="2">  1       -1 0.28528280E+00 0.19123851E+04</pdfrwt>
<totfact> 0.11574825E+00</totfact>
</mgrwt>
</event>
<event>
12    1  0.3245407E-012  0.1487640E+04  0.7818608E-02  0.9625732E-01
          1   -1    0    0  501    0  0.00000000000E+00  0.00000000000E+00  0.52623531777E+03  0.52623531777E+03  0.00000000000E+00 0. -1.
         -1   -1    0    0    0  501 -0.00000000000E+00 -0.00000000000E+00 -0.11966185606E+04  0.11966185606E+04  0.00000000000E+00 0.  1.
         23    2    1    2    0    0  0.31248873240E+02 -0.28057644621E+02 -0.47386614325E+02  0.11003068578E+03  0.89986316160E+02 0.  0.
    9900016    2    1    2    0    0  0.15504799466E+03 -0.14286037359E+03 -0.95430971267E+03  0.11960644474E+04  0.68950284092E+03 0.  0.
         23    2    4    4    0    0 -0.17294619754E+02 -0.14667622514E+03 -0.17441860132E+03  0.24144621991E+03  0.77855055911E+02 0.  0.
        -15    1    5    5    0    0 -0.37855521998E+02 -0.13841136494E+03 -0.16042937276E+03  0.21524016850E+03  0.00000000000E+00 0.  1.
        -15    1    3    3    0    0  0.63914838338E+01 -0.59104816972E+02 -0.26187653670E+02  0.64961709180E+02  0.00000000000E+00 0.  1.
         15    1    5    5    0    0  0.20560902244E+02 -0.82648602022E+01 -0.13989228557E+02  0.26206051417E+02  0.00000000000E+00 0. -1.
         15    1    3    3    0    0  0.24857389406E+02  0.31047172351E+02 -0.21198960654E+02  0.45068976601E+02  0.00000000000E+00 0. -1.
        -16    1    4    4    0    0 -0.83568606189E+02  0.17600062018E+03 -0.14488541736E+03  0.24279974137E+03  0.00000000000E+00 0.  1.
         16    1    1    2    0    0 -0.18629686790E+03  0.17091801821E+03  0.33131308418E+03  0.41675874518E+03  0.00000000000E+00 0. -1.
    9900018    1    4    4    0    0  0.25591122060E+03 -0.17218476863E+03 -0.63500569399E+03  0.71181848611E+03  0.91187600000E+02 0.  0.
<mgrwt>
<rscale>  0 0.75616230E+03</rscale>
<asrwt>0</asrwt>
<pdfrwt beam="1">  1        1 0.80959281E-01 0.14876404E+04</pdfrwt>
<pdfrwt beam="2">  1       -1 0.18409516E+00 0.14876404E+04</pdfrwt>
<totfact> 0.77592726E+00</totfact>
</mgrwt>
</event>
<event>
12    1  0.3245407E-012  0.2519920E+04  0.7818608E-02  0.8861294E-01
         -2   -1    0    0    0  501 -0.00000000000E+00  0.00000000000E+00  0.35811310731E+03  0.35811310731E+03  0.00000000000E+00 0.  1.
          2   -1    0    0  501    0  0.00000000000E+00 -0.00000000000E+00 -0.57509077281E+04  0.57509077281E+04  0.00000000000E+00 0. -1.
         23    2    1    2    0    0  0.16030534190E+03  0.29376522597E+03 -0.56614962169E+03  0.66416076328E+03  0.92673160728E+02 0.  0.
    9900016    2    1    2    0    0 -0.10270104128E+04 -0.22599751826E+03 -0.13257897738E+04  0.18376787001E+04  0.71660254976E+03 0.  0.
         23    2    4    4    0    0 -0.91740541830E+02 -0.13685666377E+03 -0.61790046213E+03  0.64302338946E+03  0.67320315401E+02 0.  0.
        -15    1    3    3    0    0  0.86911930980E+02  0.13872067500E+03 -0.36348314982E+03  0.39864408891E+03  0.00000000000E+00 0. -1.
        -15    1    5    5    0    0 -0.10127760286E+03 -0.11021054408E+03 -0.51807047410E+03  0.53925924471E+03  0.00000000000E+00 0. -1.
         15    1    3    3    0    0  0.73393410920E+02  0.15504455097E+03 -0.20266647186E+03  0.26551667437E+03  0.00000000000E+00 0.  1.
         15    1    5    5    0    0  0.95370610261E+01 -0.26646119695E+02 -0.99829988024E+02  0.10376414476E+03  0.00000000000E+00 0.  1.
        -16    1    4    4    0    0 -0.26009943231E+03  0.51191266309E+02 -0.16464428693E+03  0.31205768962E+03  0.00000000000E+00 0.  1.
         16    1    1    2    0    0  0.86670507087E+03 -0.67767707706E+02 -0.35008552253E+04  0.36071813720E+04  0.00000000000E+00 0. -1.
    9900018    1    4    4    0    0 -0.67517043864E+03 -0.14033212080E+03 -0.54324502472E+03  0.88259762101E+03  0.91187600000E+02 0.  0.
<mgrwt>
<rscale>  0 0.15353288E+04</rscale>
<asrwt>0</asrwt>
<pdfrwt beam="1">  1        2 0.88475497E+00 0.25199205E+04</pdfrwt>
<pdfrwt beam="2">  1       -2 0.55094328E-01 0.25199205E+04</pdfrwt>
<totfact> 0.49525634E-03</totfact>
</mgrwt>
</event>
<event>
12    1  0.3245407E-012  0.1422591E+04  0.7818608E-02  0.9397091E-01
         -2   -1    0    0    0  501 -0.00000000000E+00  0.00000000000E+00  0.11843915780E+04  0.11843915780E+04  0.00000000000E+00 0.  1.
          2   -1    0    0  501    0  0.00000000000E+00 -0.00000000000E+00 -0.63024704093E+03  0.63024704093E+03  0.00000000000E+00 0. -1.
         23    2    1    2    0    0 -0.21667898458E+03 -0.91731758511E+02 -0.69031837057E+02  0.26154010938E+03  0.90957882594E+02 0.  0.
    9900016    2    1    2    0    0  0.44670919142E+03 -0.34600001271E+03  0.56597340656E+03  0.10553082133E+04  0.68853788390E+03 0.  0.
         23    2    4    4    0    0  0.61921545844E+02  0.14347585353E+03 -0.37785095992E+01  0.17218412643E+03  0.72204555769E+02 0.  0.
        -15    1    5    5    0    0  0.66052406482E+02  0.73787562944E+02 -0.18734521301E+02  0.10078941976E+03  0.00000000000E+00 0.  1.
        -15    1    3    3    0    0 -0.13150072123E+03 -0.36858956299E+02  0.40208371909E+01  0.13662792348E+03  0.00000000000E+00 0.  1.
         15    1    5    5    0    0 -0.41308606387E+01  0.69688290583E+02  0.14956011702E+02  0.71394706667E+02  0.00000000000E+00 0. -1.
         15    1    3    3    0    0 -0.85178263358E+02 -0.54872802212E+02 -0.73052674248E+02  0.12491218590E+03  0.00000000000E+00 0. -1.
        -16    1    4    4    0    0  0.11698605289E+03 -0.32839019151E+03  0.31319203073E+03  0.46863109432E+03  0.00000000000E+00 0.  1.
         16    1    1    2    0    0 -0.23003020683E+03  0.43773177122E+03  0.57202967578E+02  0.49779029630E+03  0.00000000000E+00 0. -1.
    9900018    1    4    4    0    0  0.26780159268E+03 -0.16108567473E+03  0.25655988543E+03  0.41449299252E+03  0.91187600000E+02 0.  0.
<mgrwt>
<rscale>  0 0.92315484E+03</rscale>
<asrwt>0</asrwt>
<pdfrwt beam="1">  1        2 0.96961083E-01 0.14225914E+04</pdfrwt>
<pdfrwt beam="2">  1       -2 0.18221409E+00 0.14225914E+04</pdfrwt>
<totfact> 0.78844112E+00</totfact>
</mgrwt>
</event>
<event>
12    1  0.3245407E-012  0.1029679E+04  0.7818608E-02  0.9901062E-01
          2   -1    0    0  501    0  0.00000000000E+00  0.00000000000E+00  0.22326716999E+04  0.22326716999E+04  0.00000000000E+00 0. -1.
         -2   -1    0    0    0  501 -0.00000000000E+00 -0.00000000000E+00 -0.14919670098E+03  0.14919670098E+03  0.00000000000E+00 0.  1.
         23    2    1    2    0    0 -0.15721611917E+02  0.75753685989E+02  0.16126223830E+03  0.20124010218E+03  0.92229492031E+02 0.  0.
    9900016    2    1    2    0    0 -0.66348066432E+02  0.45228942174E+02  0.93430234759E+03  0.11819595786E+04  0.71948582023E+03 0.  0.
         23    2    4    4    0    0 -0.18159246019E+03  0.13838294923E+02  0.75389966371E+03  0.78284317499E+03  0.10635512999E+03 0.  0.
        -15    1    3    3    0    0  0.12749828945E+02 -0.34623846188E+01 -0.55985542188E+01  0.14348869457E+02  0.00000000000E+00 0.  1.
        -15    1    5    5    0    0 -0.13961728998E+03 -0.37507304588E+02  0.51281357543E+03  0.53280160351E+03  0.00000000000E+00 0. -1.
         15    1    5    5    0    0 -0.41975170207E+02  0.51345599512E+02  0.24108608828E+03  0.25004157148E+03  0.00000000000E+00 0.  1.
         15    1    3    3    0    0 -0.28471440862E+02  0.79216070607E+02  0.16686079252E+03  0.18689123272E+03  0.00000000000E+00 0. -1.
        -16    1    4    4    0    0  0.17226664394E+03 -0.71553068205E+02  0.32659683352E+02  0.18937342237E+03  0.00000000000E+00 0.  1.
         16    1    1    2    0    0  0.82069678349E+02 -0.12098262816E+03  0.98791041299E+03  0.99866872011E+03  0.00000000000E+00 0. -1.
    9900018    1    4    4    0    0 -0.57022250179E+02  0.10294371546E+03  0.14774300053E+03  0.20974298121E+03  0.91187600000E+02 0.  0.
<mgrwt>
<rscale>  0 0.60209850E+03</rscale>
<asrwt>0</asrwt>
<pdfrwt beam="1">  1        2 0.34348793E+00 0.10296785E+04</pdfrwt>
<pdfrwt beam="2">  1       -2 0.22953340E-01 0.10296785E+04</pdfrwt>
<totfact> 0.83098588E+01</totfact>
</mgrwt>
</event>
<event>
12    1  0.3245407E-012  0.1852108E+04  0.7818608E-02  0.9264883E-01
         -2   -1    0    0    0  501 -0.00000000000E+00  0.00000000000E+00  0.72130214079E+03  0.72130214079E+03  0.00000000000E+00 0.  1.
          2   -1    0    0  501    0  0.00000000000E+00 -0.00000000000E+00 -0.14933648716E+04  0.14933648716E+04  0.00000000000E+00 0. -1.
         23    2    1    2    0    0  0.26917901184E+02 -0.15961138476E+03 -0.20886378173E+03  0.27882183252E+03  0.88978466070E+02 0.  0.
    9900016    2    1    2    0    0  0.56807988565E+03 -0.41624790228E+03 -0.13157326169E+03  0.10020695008E+04  0.70061022589E+03 0.  0.
         23    2    4    4    0    0  0.15271407983E+02  0.14068513207E+03  0.50079899187E+02  0.16862952409E+03  0.76827064263E+02 0.  0.
        -15    1    3    3    0    0  0.42219246465E+02 -0.81368087378E+02 -0.16256036518E+03  0.18662556830E+03  0.00000000000E+00 0. -1.
        -15    1    5    5    0    0  0.20474908544E+02  0.27541461104E+01 -0.27379452964E+01  0.20839950698E+02  0.00000000000E+00 0.  1.
         15    1    5    5    0    0 -0.52035005608E+01  0.13793098596E+03  0.52817844484E+02  0.14778957339E+03  0.00000000000E+00 0. -1.
         15    1    3    3    0    0 -0.15301345281E+02 -0.78243297377E+02 -0.46303416544E+02  0.92196264217E+02  0.00000000000E+00 0.  1.
        -16    1    1    2    0    0 -0.59499778683E+03  0.57585928703E+03 -0.43162568739E+03  0.93377567906E+03  0.00000000000E+00 0.  1.
         16    1    4    4    0    0  0.13151046095E+03 -0.13613735432E+03 -0.12834511884E+03  0.22869379115E+03  0.00000000000E+00 0. -1.
    9900018    1    4    4    0    0  0.42129801672E+03 -0.42079568003E+03 -0.53308042044E+02  0.60474618557E+03  0.91187600000E+02 0.  0.
<mgrwt>
<rscale>  0 0.10408111E+04</rscale>
<asrwt>0</asrwt>
<pdfrwt beam="1">  1        2 0.22974844E+00 0.18521079E+04</pdfrwt>
<pdfrwt beam="2">  1       -2 0.11096956E+00 0.18521079E+04</pdfrwt>
<totfact> 0.76924596E+00</totfact>
</mgrwt>
</event>
<event>
12    1  0.3245407E-012  0.1303115E+04  0.7818608E-02  0.9571017E-01
          1   -1    0    0  501    0  0.00000000000E+00  0.00000000000E+00  0.66360303625E+03  0.66360303625E+03  0.00000000000E+00 0. -1.
         -1   -1    0    0    0  501 -0.00000000000E+00 -0.00000000000E+00 -0.90261510254E+03  0.90261510254E+03  0.00000000000E+00 0.  1.
         23    2    1    2    0    0  0.57625682923E+02  0.14242368713E+03  0.11964569357E+03  0.21464718682E+03  0.90294500563E+02 0.  0.
    9900016    2    1    2    0    0 -0.48466340753E+03 -0.14379938148E+03 -0.20065286143E+03  0.89623738336E+03  0.71232225561E+03 0.  0.
         23    2    4    4    0    0 -0.18564938081E+03 -0.29881511225E+03  0.94737330758E+02  0.38028174117E+03  0.10900860943E+03 0.  0.
        -15    1    5    5    0    0 -0.12196282093E+03 -0.19860247614E+03  0.11489804006E+03  0.25984501694E+03  0.00000000000E+00 0. -1.
        -15    1    3    3    0    0  0.66286545416E+02  0.11859537080E+03  0.12926339768E+03  0.18753078163E+03  0.00000000000E+00 0.  1.
         15    1    5    5    0    0 -0.63686559882E+02 -0.10021263610E+03 -0.20160709304E+02  0.12043672423E+03  0.00000000000E+00 0.  1.
         15    1    3    3    0    0 -0.86608624923E+01  0.23828316331E+02 -0.96177041087E+01  0.27116405194E+02  0.00000000000E+00 0. -1.
        -16    1    1    2    0    0  0.42703772460E+03  0.13756943517E+01 -0.15800489843E+03  0.45533356860E+03  0.00000000000E+00 0.  1.
         16    1    4    4    0    0 -0.15151752766E+03  0.12352935084E+03 -0.30596707426E+02  0.19787172666E+03  0.00000000000E+00 0. -1.
    9900018    1    4    4    0    0 -0.14749649905E+03  0.31486379926E+02 -0.26479348476E+03  0.31808391553E+03  0.91187600000E+02 0.  0.
<mgrwt>
<rscale>  0 0.79244522E+03</rscale>
<asrwt>0</asrwt>
<pdfrwt beam="1">  1        1 0.10209278E+00 0.13031150E+04</pdfrwt>
<pdfrwt beam="2">  1       -1 0.13886386E+00 0.13031150E+04</pdfrwt>
<totfact> 0.12375525E+01</totfact>
</mgrwt>
</event>
