<event>
12    1  0.1680055E-009  0.1233606E+04  0.7818608E-02  0.9083939E-01
          1   -1    0    0  501    0  0.00000000000E+00  0.00000000000E+00  0.91379375345E+03  0.91379375345E+03  0.00000000000E+00 0. -1.
         -1   -1    0    0    0  501 -0.00000000000E+00 -0.00000000000E+00 -0.41633697480E+03  0.41633697480E+03  0.00000000000E+00 0.  1.
    9900016    2    1    2    0    0  0.74013544888E+01 -0.36027480848E+03  0.24547345695E+03  0.83597992533E+03  0.71326888325E+03 0.  0.
         23    2    3    3    0    0  0.32391112708E+02  0.22990153521E+02  0.10291654628E+03  0.14268176497E+03  0.90490547654E+02 0.  0.
         23    2    3    3    0    0 -0.58356279856E+02  0.20495939386E+02  0.25069849294E+03  0.27397633637E+03  0.91584712703E+02 0.  0.
        -15    1    5    5    0    0 -0.80535365266E+02  0.59892964761E+00  0.18975492973E+03  0.20613887826E+03  0.00000000000E+00 0.  1.
        -15    1    4    4    0    0 -0.78273536120E+01  0.35272311009E+02  0.54612660342E+01  0.36540782903E+02  0.00000000000E+00 0. -1.
         15    1    4    4    0    0  0.40218466320E+02 -0.12282157488E+02  0.97455280250E+02  0.10614098207E+03  0.00000000000E+00 0.  1.
         15    1    5    5    0    0  0.22179085410E+02  0.19897009739E+02  0.60943563208E+02  0.67837458109E+02  0.00000000000E+00 0. -1.
        -16    1    3    3    0    0  0.33366521637E+02 -0.40376090139E+03 -0.10814158228E+03  0.41932182399E+03  0.00000000000E+00 0.  1.
         16    1    1    2    0    0 -0.82146823293E+01  0.60516682979E+02  0.15431267841E+03  0.16595828585E+03  0.00000000000E+00 0. -1.
    9900018    1    1    2    0    0  0.81332784053E+00  0.29975812550E+03  0.97670643292E+02  0.32819251707E+03  0.91187600000E+02 0.  0.
<mgrwt>
<rscale>  0 0.12336063E+04</rscale>
<asrwt>0</asrwt>
<pdfrwt beam="1">  1        1 0.14058365E+00 0.12336063E+04</pdfrwt>
<pdfrwt beam="2">  1       -1 0.64051842E-01 0.12336063E+04</pdfrwt>
<totfact> 0.43275864E+01</totfact>
</mgrwt>
</event>
<event>
12    1  0.1680055E-009  0.1104329E+04  0.7818608E-02  0.9200983E-01
         -2   -1    0    0    0  501 -0.00000000000E+00  0.00000000000E+00  0.72380435682E+03  0.72380435682E+03  0.00000000000E+00 0.  1.
          2   -1    0    0  501    0  0.00000000000E+00 -0.00000000000E+00 -0.42122662270E+03  0.42122662270E+03  0.00000000000E+00 0. -1.
    9900016    2    1    2    0    0 -0.28060785870E+01  0.13830151133E+03  0.13320463453E+03  0.73530766324E+03  0.70978778719E+03 0.  0.
         23    2    3    3    0    0 -0.89665646795E+02  0.31825875796E+02  0.10862569838E+02  0.13172234151E+03  0.90443160291E+02 0.  0.
         23    2    3    3    0    0  0.31805222414E+03  0.13257028694E+03  0.51639851467E+02  0.36041916878E+03  0.92212822884E+02 0.  0.
        -15    1    5    5    0    0  0.67885852152E+02  0.40345743639E+02  0.50604449082E+02  0.93792740759E+02  0.00000000000E+00 0. -1.
        -15    1    4    4    0    0 -0.91612533908E+02 -0.74798800484E+01  0.72441966297E+01  0.92202404304E+02  0.00000000000E+00 0.  1.
         15    1    5    5    0    0  0.25016637199E+03  0.92224543299E+02  0.10354023853E+01  0.26662642802E+03  0.00000000000E+00 0.  1.
         15    1    4    4    0    0  0.19468871133E+01  0.39305755844E+02  0.36183732081E+01  0.39519937204E+02  0.00000000000E+00 0. -1.
        -16    1    1    2    0    0 -0.74393322843E+02 -0.13015109459E+03  0.23073785856E+03  0.27516110422E+03  0.00000000000E+00 0.  1.
         16    1    3    3    0    0 -0.23119265593E+03 -0.26094651406E+02  0.70702213230E+02  0.24316615296E+03  0.00000000000E+00 0. -1.
    9900018    1    1    2    0    0  0.77199401430E+02 -0.81504167352E+01 -0.61364758970E+02  0.13456221205E+03  0.91187600000E+02 0.  0.
<mgrwt>
<rscale>  0 0.11043291E+04</rscale>
<asrwt>0</asrwt>
<pdfrwt beam="1">  1        2 0.64804096E-01 0.11043291E+04</pdfrwt>
<pdfrwt beam="2">  1       -2 0.11135452E+00 0.11043291E+04</pdfrwt>
<totfact> 0.47472615E+01</totfact>
</mgrwt>
</event>
<event>
12    1  0.1680055E-009  0.1577931E+04  0.7818608E-02  0.8834222E-01
          2   -1    0    0  501    0  0.00000000000E+00  0.00000000000E+00  0.76897941884E+03  0.76897941884E+03  0.00000000000E+00 0. -1.
         -2   -1    0    0    0  501 -0.00000000000E+00 -0.00000000000E+00 -0.80947093765E+03  0.80947093765E+03  0.00000000000E+00 0.  1.
    9900016    2    1    2    0    0  0.17544224836E+03  0.26512047382E+03 -0.14815180590E+02  0.77607067984E+03  0.70781167155E+03 0.  0.
         23    2    3    3    0    0 -0.19683227863E+02  0.37424332909E+02  0.61037203175E+02  0.11642851680E+03  0.89677473205E+02 0.  0.
         23    2    3    3    0    0  0.20478542595E+03  0.25683214820E+03  0.19119510932E+03  0.39083631281E+03  0.91091330847E+02 0.  0.
        -15    1    5    5    0    0  0.28975465901E+02  0.86410990360E+02  0.23682008120E+02  0.94166206188E+02  0.00000000000E+00 0.  1.
        -15    1    4    4    0    0  0.29664131663E+02 -0.27280274597E+00  0.44828314668E+00  0.29668772917E+02  0.00000000000E+00 0. -1.
         15    1    5    5    0    0  0.17580996004E+03  0.17042115784E+03  0.16751310120E+03  0.29667010662E+03  0.00000000000E+00 0. -1.
         15    1    4    4    0    0 -0.49347359526E+02  0.37697135655E+02  0.60588920029E+02  0.86759743885E+02  0.00000000000E+00 0.  1.
        -16    1    1    2    0    0  0.37486031515E+02 -0.27893558088E+03 -0.32092876363E+03  0.42685539960E+03  0.00000000000E+00 0.  1.
         16    1    3    3    0    0 -0.96599497255E+01 -0.29136007292E+02 -0.26704749309E+03  0.26880585022E+03  0.00000000000E+00 0. -1.
    9900018    1    1    2    0    0 -0.21292827987E+03  0.13815107066E+02  0.29525242541E+03  0.37552427705E+03  0.91187600000E+02 0.  0.
<mgrwt>
<rscale>  0 0.15779309E+04</rscale>
<asrwt>0</asrwt>
<pdfrwt beam="1">  1        2 0.11830453E+00 0.15779309E+04</pdfrwt>
<pdfrwt beam="2">  1       -2 0.12453399E+00 0.15779309E+04</pdfrwt>
<totfact> 0.16871688E+01</totfact>
</mgrwt>
</event>
<event>
12    1  0.1680055E-009  0.1077657E+04  0.7818608E-02  0.9227247E-01
          1   -1    0    0  501    0  0.00000000000E+00  0.00000000000E+00  0.11386786423E+04  0.11386786423E+04  0.00000000000E+00 0. -1.
         -1   -1    0    0    0  501 -0.00000000000E+00 -0.00000000000E+00 -0.25497643415E+03  0.25497643415E+03  0.00000000000E+00 0.  1.
    9900016    2    1    2    0    0 -0.31593073728E+02  0.40624619649E+02  0.78338064411E+03  0.10595806953E+04  0.71160208984E+03 0.  0.
         23    2    3    3    0    0 -0.10828161961E+03  0.37797041637E+02  0.32720439441E+03  0.35913760015E+03  0.93613965960E+02 0.  0.
         23    2    3    3    0    0 -0.15017473927E+03  0.54911550951E+02  0.42744886311E+03  0.46591174729E+03  0.93773636736E+02 0.  0.
        -15    1    5    5    0    0 -0.82647353728E+02 -0.16491219727E+02  0.23815317389E+03  0.25262517618E+03  0.00000000000E+00 0. -1.
        -15    1    4    4    0    0 -0.11969779966E+03  0.29196424110E+02  0.32046837670E+03  0.34333653300E+03  0.00000000000E+00 0. -1.
         15    1    5    5    0    0 -0.67527385545E+02  0.71402770678E+02  0.18929568922E+03  0.21328657111E+03  0.00000000000E+00 0.  1.
         15    1    4    4    0    0  0.11416180049E+02  0.86006175265E+01  0.67360177047E+01  0.15801067156E+02  0.00000000000E+00 0.  1.
        -16    1    1    2    0    0  0.45077593736E+02  0.88239361195E+02 -0.54046119727E+02  0.11286787576E+03  0.00000000000E+00 0.  1.
         16    1    3    3    0    0  0.22686328516E+03 -0.52083972939E+02  0.28727386600E+02  0.23453134786E+03  0.00000000000E+00 0. -1.
    9900018    1    1    2    0    0 -0.13484520008E+02 -0.12886398084E+03  0.15436768376E+03  0.22120650538E+03  0.91187600000E+02 0.  0.
<mgrwt>
<rscale>  0 0.10776571E+04</rscale>
<asrwt>0</asrwt>
<pdfrwt beam="1">  1        1 0.17518133E+00 0.10776571E+04</pdfrwt>
<pdfrwt beam="2">  1       -1 0.39227144E-01 0.10776571E+04</pdfrwt>
<totfact> 0.74649535E+01</totfact>
</mgrwt>
</event>
<event>
12    1  0.1680055E-009  0.1387529E+04  0.7818608E-02  0.8962895E-01
          2   -1    0    0  501    0  0.00000000000E+00  0.00000000000E+00  0.38425998093E+03  0.38425998093E+03  0.00000000000E+00 0. -1.
         -2   -1    0    0    0  501 -0.00000000000E+00 -0.00000000000E+00 -0.12525614129E+04  0.12525614129E+04  0.00000000000E+00 0.  1.
    9900016    2    1    2    0    0  0.22783728525E+03  0.21339143653E+03 -0.28711475457E+03  0.83110716212E+03  0.71474365958E+03 0.  0.
         23    2    3    3    0    0  0.34871779910E+02  0.74173073948E+02 -0.68146777483E+02  0.13915307289E+03  0.89453387199E+02 0.  0.
         23    2    3    3    0    0  0.39734400095E+03  0.37036825675E+02 -0.21723420848E+03  0.46344885537E+03  0.91324469139E+02 0.  0.
        -15    1    4    4    0    0  0.61756329871E+02  0.45066933072E+02 -0.24678700679E+02  0.80336237171E+02  0.00000000000E+00 0. -1.
        -15    1    5    5    0    0  0.10437858542E+03 -0.17707515737E+02 -0.24958644422E+02  0.10877214321E+03  0.00000000000E+00 0. -1.
         15    1    5    5    0    0  0.29296541553E+03  0.54744341412E+02 -0.19227556406E+03  0.35467671216E+03  0.00000000000E+00 0.  1.
         15    1    4    4    0    0 -0.26884549961E+02  0.29106140876E+02 -0.43468076804E+02  0.58816835722E+02  0.00000000000E+00 0.  1.
        -16    1    1    2    0    0 -0.30040983311E+03 -0.25888837911E+03 -0.54770711044E+03  0.67620436222E+03  0.00000000000E+00 0.  1.
         16    1    3    3    0    0 -0.20437849561E+03  0.10218153691E+03 -0.17337686055E+01  0.22850523387E+03  0.00000000000E+00 0. -1.
    9900018    1    1    2    0    0  0.72572547858E+02  0.45496942579E+02 -0.33479566930E+02  0.12950986944E+03  0.91187600000E+02 0.  0.
<mgrwt>
<rscale>  0 0.13875291E+04</rscale>
<asrwt>0</asrwt>
<pdfrwt beam="1">  1        2 0.59116919E-01 0.13875291E+04</pdfrwt>
<pdfrwt beam="2">  1       -2 0.19270176E+00 0.13875291E+04</pdfrwt>
<totfact> 0.12037810E+01</totfact>
</mgrwt>
</event>
<event>
12    1  0.1680055E-009  0.1055755E+04  0.7818608E-02  0.9249423E-01
         -1   -1    0    0    0  501 -0.00000000000E+00  0.00000000000E+00  0.35701619194E+03  0.35701619194E+03  0.00000000000E+00 0.  1.
          1   -1    0    0  501    0  0.00000000000E+00 -0.00000000000E+00 -0.78050977748E+03  0.78050977748E+03  0.00000000000E+00 0. -1.
    9900016    2    1    2    0    0 -0.72871418973E+02 -0.57145548205E+02 -0.31908368976E+03  0.77522606914E+03  0.70041787514E+03 0.  0.
         23    2    3    3    0    0  0.11477977212E+03 -0.10146441949E+02  0.29522997497E+02  0.14877311706E+03  0.89355954498E+02 0.  0.
         23    2    3    3    0    0 -0.77599526358E+01  0.12256794345E+03 -0.34654604445E+03  0.37923222425E+03  0.92950531799E+02 0.  0.
        -15    1    5    5    0    0 -0.39665654671E+02  0.50684737206E+02 -0.88234790695E+02  0.10921394158E+03  0.00000000000E+00 0.  1.
        -15    1    4    4    0    0  0.13042297933E+02 -0.33040638514E+02  0.26727810707E+02  0.44454034620E+02  0.00000000000E+00 0.  1.
         15    1    4    4    0    0  0.10173747419E+03  0.22894196565E+02  0.27951867906E+01  0.10431908244E+03  0.00000000000E+00 0. -1.
         15    1    5    5    0    0  0.31905702035E+02  0.71883206244E+02 -0.25831125375E+03  0.27001828267E+03  0.00000000000E+00 0. -1.
        -16    1    1    2    0    0  0.48367810836E+02  0.67585689840E+02  0.10407757640E+03  0.13318938586E+03  0.00000000000E+00 0.  1.
         16    1    3    3    0    0 -0.17989123846E+03 -0.16956704971E+03 -0.20606428130E+01  0.24722072783E+03  0.00000000000E+00 0. -1.
    9900018    1    1    2    0    0  0.24503608137E+02 -0.10440141635E+02 -0.20848747218E+03  0.22911051442E+03  0.91187600000E+02 0.  0.
<mgrwt>
<rscale>  0 0.10557549E+04</rscale>
<asrwt>0</asrwt>
<pdfrwt beam="1">  1        1 0.12007843E+00 0.10557549E+04</pdfrwt>
<pdfrwt beam="2">  1       -1 0.54925569E-01 0.10557549E+04</pdfrwt>
<totfact> 0.76982428E+01</totfact>
</mgrwt>
</event>
<event>
12    1  0.1680055E-009  0.1848071E+04  0.7818608E-02  0.8681145E-01
          2   -1    0    0  501    0  0.00000000000E+00  0.00000000000E+00  0.24941964529E+04  0.24941964529E+04  0.00000000000E+00 0. -1.
         -2   -1    0    0    0  501 -0.00000000000E+00 -0.00000000000E+00 -0.34233140856E+03  0.34233140856E+03  0.00000000000E+00 0.  1.
    9900016    2    1    2    0    0 -0.19905119093E+03 -0.17651083140E+03  0.50262670393E+03  0.90572277655E+03  0.70492743899E+03 0.  0.
         23    2    3    3    0    0 -0.51057602548E+02  0.22936004075E+02 -0.27595007925E+02  0.11266808525E+03  0.93806577122E+02 0.  0.
         23    2    3    3    0    0 -0.21067327223E+03 -0.29344117170E+03  0.56289998680E+03  0.67544709093E+03  0.94241331841E+02 0.  0.
        -15    1    4    4    0    0 -0.37463493627E+02  0.12234843122E+02  0.31903432519E+02  0.50705362118E+02  0.00000000000E+00 0.  1.
        -15    1    5    5    0    0 -0.19049919998E+03 -0.19983065089E+03  0.39052743595E+03  0.47826134326E+03  0.00000000000E+00 0. -1.
         15    1    5    5    0    0 -0.20174072247E+02 -0.93610520811E+02  0.17237255084E+03  0.19718574766E+03  0.00000000000E+00 0.  1.
         15    1    4    4    0    0 -0.13594108921E+02  0.10701160953E+02 -0.59498440444E+02  0.61962723136E+02  0.00000000000E+00 0. -1.
        -16    1    3    3    0    0  0.62679683851E+02  0.93994336229E+02 -0.32678274942E+02  0.11760760037E+03  0.00000000000E+00 0.  1.
         16    1    1    2    0    0  0.31753471862E+03  0.31299963349E+03  0.16688790973E+04  0.17274126633E+04  0.00000000000E+00 0. -1.
    9900018    1    1    2    0    0 -0.11848352770E+03 -0.13648880210E+03 -0.19640756867E+02  0.20339242158E+03  0.91187600000E+02 0.  0.
<mgrwt>
<rscale>  0 0.18480712E+04</rscale>
<asrwt>0</asrwt>
<pdfrwt beam="1">  1        2 0.38372252E+00 0.18480712E+04</pdfrwt>
<pdfrwt beam="2">  1       -2 0.52666372E-01 0.18480712E+04</pdfrwt>
<totfact> 0.11232766E+01</totfact>
</mgrwt>
</event>
<event>
12    1  0.1680055E-009  0.9498818E+03  0.7818608E-02  0.9365289E-01
          1   -1    0    0  501    0  0.00000000000E+00  0.00000000000E+00  0.62191735546E+03  0.62191735546E+03  0.00000000000E+00 0. -1.
         -1   -1    0    0    0  501 -0.00000000000E+00 -0.00000000000E+00 -0.36269912047E+03  0.36269912047E+03  0.00000000000E+00 0.  1.
    9900016    2    1    2    0    0 -0.19323216233E+02 -0.98816311995E+02  0.15687779946E+03  0.71735381289E+03  0.69271047250E+03 0.  0.
         23    2    3    3    0    0  0.56430553072E+02 -0.11429922896E+03  0.39986497227E+02  0.16179960945E+03  0.91276900681E+02 0.  0.
         23    2    3    3    0    0 -0.27715662991E+03 -0.44148049401E+02  0.16796283737E+03  0.33938929854E+03  0.90602060997E+02 0.  0.
        -15    1    5    5    0    0 -0.26926739211E+03 -0.60494655289E+02  0.16320599242E+03  0.32062552570E+03  0.00000000000E+00 0. -1.
        -15    1    4    4    0    0  0.43821124676E+01 -0.96251285921E+02  0.48778528039E+01  0.96474382087E+02  0.00000000000E+00 0.  1.
         15    1    4    4    0    0  0.52048440604E+02 -0.18047943039E+02  0.35108644423E+02  0.65325227367E+02  0.00000000000E+00 0. -1.
         15    1    5    5    0    0 -0.78892377984E+01  0.16346605888E+02  0.47568449551E+01  0.18763772835E+02  0.00000000000E+00 0.  1.
        -16    1    1    2    0    0  0.14281890293E+02  0.10836596904E+03 -0.23186407243E+02  0.11173524563E+03  0.00000000000E+00 0.  1.
         16    1    3    3    0    0  0.20140286060E+03  0.59630966366E+02 -0.51071535143E+02  0.21616490490E+03  0.00000000000E+00 0. -1.
    9900018    1    1    2    0    0  0.50413259399E+01 -0.95496570408E+01  0.12552684277E+03  0.15552741741E+03  0.91187600000E+02 0.  0.
<mgrwt>
<rscale>  0 0.94988184E+03</rscale>
<asrwt>0</asrwt>
<pdfrwt beam="1">  1        1 0.95679593E-01 0.94988184E+03</pdfrwt>
<pdfrwt beam="2">  1       -1 0.55799865E-01 0.94988184E+03</pdfrwt>
<totfact> 0.10616002E+02</totfact>
</mgrwt>
</event>
<event>
12    1  0.1680055E-009  0.1482693E+04  0.7818608E-02  0.8896044E-01
          2   -1    0    0  501    0  0.00000000000E+00  0.00000000000E+00  0.36319201345E+04  0.36319201345E+04  0.00000000000E+00 0. -1.
         -2   -1    0    0    0  501 -0.00000000000E+00 -0.00000000000E+00 -0.15132344056E+03  0.15132344056E+03  0.00000000000E+00 0.  1.
    9900016    2    1    2    0    0 -0.48660009815E+02 -0.14557253340E+03  0.16658915913E+04  0.18174893200E+04  0.71029112013E+03 0.  0.
         23    2    3    3    0    0  0.75197123285E+02 -0.22278691243E+03  0.78037108713E+03  0.82032513624E+03  0.93089633283E+02 0.  0.
         23    2    3    3    0    0  0.52672377194E+02  0.20403398006E+03  0.56488183072E+03  0.60979480174E+03  0.91400072324E+02 0.  0.
        -15    1    4    4    0    0  0.91269037177E+02 -0.15646330424E+03  0.62289895560E+03  0.64870171235E+03  0.00000000000E+00 0.  1.
        -15    1    5    5    0    0 -0.40589832848E+01  0.14601135582E+03  0.40423040810E+03  0.42981160315E+03  0.00000000000E+00 0. -1.
         15    1    5    5    0    0  0.56731360479E+02  0.58022624237E+02  0.16065142262E+03  0.17998319859E+03  0.00000000000E+00 0.  1.
         15    1    4    4    0    0 -0.16071913892E+02 -0.66323608198E+02  0.15747213153E+03  0.17162342390E+03  0.00000000000E+00 0. -1.
        -16    1    1    2    0    0  0.17230346738E+03  0.21933733185E+03  0.20277633576E+03  0.34484140175E+03  0.00000000000E+00 0.  1.
         16    1    3    3    0    0 -0.17652951029E+03 -0.12681960103E+03  0.32063867342E+03  0.38736938199E+03  0.00000000000E+00 0. -1.
    9900018    1    1    2    0    0 -0.12364345757E+03 -0.73764798450E+02  0.16119287669E+04  0.16209128533E+04  0.91187600000E+02 0.  0.
<mgrwt>
<rscale>  0 0.14826930E+04</rscale>
<asrwt>0</asrwt>
<pdfrwt beam="1">  1        2 0.55875688E+00 0.14826930E+04</pdfrwt>
<pdfrwt beam="2">  1       -2 0.23280532E-01 0.14826930E+04</pdfrwt>
<totfact> 0.10511980E+01</totfact>
</mgrwt>
</event>
<event>
12    1  0.1680055E-009  0.1097848E+04  0.7818608E-02  0.9207292E-01
          1   -1    0    0  501    0  0.00000000000E+00  0.00000000000E+00  0.61074299149E+03  0.61074299149E+03  0.00000000000E+00 0. -1.
         -1   -1    0    0    0  501 -0.00000000000E+00 -0.00000000000E+00 -0.49336250477E+03  0.49336250477E+03  0.00000000000E+00 0.  1.
    9900016    2    1    2    0    0 -0.23160100467E+03  0.44911993267E+02  0.11062469998E+01  0.74370283780E+03  0.70529183652E+03 0.  0.
         23    2    3    3    0    0 -0.26017292665E+03  0.30733044510E+01 -0.19943068093E+02  0.27663519223E+03  0.91814523101E+02 0.  0.
         23    2    3    3    0    0  0.13376626997E+03 -0.13220541380E+03  0.11828924047E+03  0.24165069059E+03  0.95031707512E+02 0.  0.
        -15    1    4    4    0    0 -0.22574735426E+03  0.35602554315E+02 -0.17593895087E+02  0.22921377571E+03  0.00000000000E+00 0.  1.
        -15    1    5    5    0    0  0.45147034058E+02 -0.70971142769E+02  0.34292994860E+01  0.84183833871E+02  0.00000000000E+00 0.  1.
         15    1    5    5    0    0  0.88619235908E+02 -0.61234271031E+02  0.11485994099E+03  0.15746685672E+03  0.00000000000E+00 0. -1.
         15    1    4    4    0    0 -0.34425572387E+02 -0.32529249864E+02 -0.23491730058E+01  0.47421416519E+02  0.00000000000E+00 0. -1.
        -16    1    1    2    0    0  0.15208635929E+03  0.96197315201E+01 -0.37846490971E+02  0.15701960640E+03  0.00000000000E+00 0.  1.
         16    1    3    3    0    0 -0.10519434799E+03  0.17404410262E+03 -0.97239925382E+02  0.22541695498E+03  0.00000000000E+00 0. -1.
    9900018    1    1    2    0    0  0.79514645389E+02 -0.54531724787E+02  0.15412073070E+03  0.20338305206E+03  0.91187600000E+02 0.  0.
<mgrwt>
<rscale>  0 0.10978482E+04</rscale>
<asrwt>0</asrwt>
<pdfrwt beam="1">  1        1 0.93960460E-01 0.10978482E+04</pdfrwt>
<pdfrwt beam="2">  1       -1 0.75901924E-01 0.10978482E+04</pdfrwt>
<totfact> 0.58029369E+01</totfact>
</mgrwt>
</event>
<event>
12    1  0.1680055E-009  0.2006492E+04  0.7818608E-02  0.8603591E-01
         -2   -1    0    0    0  501 -0.00000000000E+00  0.00000000000E+00  0.54081427289E+03  0.54081427289E+03  0.00000000000E+00 0.  1.
          2   -1    0    0  501    0  0.00000000000E+00 -0.00000000000E+00 -0.18610875276E+04  0.18610875276E+04  0.00000000000E+00 0. -1.
    9900016    2    1    2    0    0 -0.32962256212E+03 -0.30683202259E+03 -0.11970512466E+04  0.14659784364E+04  0.71649435841E+03 0.  0.
         23    2    3    3    0    0 -0.20625980853E+02 -0.89975485670E+02 -0.17934005089E+03  0.22162677443E+03  0.91839828973E+02 0.  0.
         23    2    3    3    0    0 -0.39464139941E+03  0.58815572412E+02 -0.72944445972E+03  0.83639595632E+03  0.90927829843E+02 0.  0.
        -15    1    5    5    0    0 -0.35703974692E+03  0.27131320398E+02 -0.66570322525E+03  0.75589303049E+03  0.00000000000E+00 0. -1.
        -15    1    4    4    0    0  0.19029522416E+01  0.15432887162E+02 -0.44253557998E+01  0.16167220149E+02  0.00000000000E+00 0. -1.
         15    1    5    5    0    0 -0.37601652491E+02  0.31684252014E+02 -0.63741234468E+02  0.80502925830E+02  0.00000000000E+00 0.  1.
         15    1    4    4    0    0 -0.22528933094E+02 -0.10540837283E+03 -0.17491469509E+03  0.20545955428E+03  0.00000000000E+00 0.  1.
        -16    1    1    2    0    0  0.24129566605E+03 -0.24373884651E+03  0.46148188618E+02  0.34606629287E+03  0.00000000000E+00 0.  1.
         16    1    3    3    0    0  0.85644818152E+02 -0.27567210933E+03 -0.28826673598E+03  0.40795570569E+03  0.00000000000E+00 0. -1.
    9900018    1    1    2    0    0  0.88326896070E+02  0.55057086910E+03 -0.16937019674E+03  0.58985707117E+03  0.91187600000E+02 0.  0.
<mgrwt>
<rscale>  0 0.20064922E+04</rscale>
<asrwt>0</asrwt>
<pdfrwt beam="1">  1        2 0.28632116E+00 0.20064922E+04</pdfrwt>
<pdfrwt beam="2">  1       -2 0.83202196E-01 0.20064922E+04</pdfrwt>
<totfact> 0.93732834E+00</totfact>
</mgrwt>
</event>
<event>
12    1  0.1680055E-009  0.1398421E+04  0.7818608E-02  0.8954962E-01
          2   -1    0    0  501    0  0.00000000000E+00  0.00000000000E+00  0.17686907448E+04  0.17686907448E+04  0.00000000000E+00 0. -1.
         -2   -1    0    0    0  501 -0.00000000000E+00 -0.00000000000E+00 -0.27641657871E+03  0.27641657871E+03  0.00000000000E+00 0.  1.
    9900016    2    1    2    0    0 -0.15005410592E+03 -0.16295669798E+03  0.13256822920E+04  0.15191010755E+04  0.70792896400E+03 0.  0.
         23    2    3    3    0    0 -0.53078954691E+01  0.19785307166E+02  0.68084443230E+02  0.11324209599E+03  0.88139938510E+02 0.  0.
         23    2    3    3    0    0 -0.17556403448E+03 -0.26992462780E+03  0.31572470663E+03  0.45945760382E+03  0.87961152978E+02 0.  0.
        -15    1    5    5    0    0 -0.15364603773E+03 -0.17255672545E+03  0.24737287084E+03  0.33849116035E+03  0.00000000000E+00 0. -1.
        -15    1    4    4    0    0  0.10691803921E+02 -0.32603148955E+02  0.36127868509E+02  0.49824721533E+02  0.00000000000E+00 0. -1.
         15    1    4    4    0    0 -0.15999699390E+02  0.52388456120E+02  0.31956574721E+02  0.63417374458E+02  0.00000000000E+00 0.  1.
         15    1    5    5    0    0 -0.21917996756E+02 -0.97367902349E+02  0.68351835791E+02  0.12096644347E+03  0.00000000000E+00 0.  1.
        -16    1    1    2    0    0  0.11646090577E+03  0.23373486473E+03 -0.61396526829E+02  0.26826230274E+03  0.00000000000E+00 0.  1.
         16    1    3    3    0    0  0.30817824029E+02  0.87182622655E+02  0.94187314214E+03  0.94640137567E+03  0.00000000000E+00 0. -1.
    9900018    1    1    2    0    0  0.33593200157E+02 -0.70778166752E+02  0.22798840091E+03  0.25774394528E+03  0.91187600000E+02 0.  0.
<mgrwt>
<rscale>  0 0.13984212E+04</rscale>
<asrwt>0</asrwt>
<pdfrwt beam="1">  1        2 0.27210626E+00 0.13984212E+04</pdfrwt>
<pdfrwt beam="2">  1       -2 0.42525629E-01 0.13984212E+04</pdfrwt>
<totfact> 0.45825548E+01</totfact>
</mgrwt>
</event>
<event>
12    1  0.1680055E-009  0.1957167E+04  0.7818608E-02  0.8626912E-01
         -1   -1    0    0    0  501 -0.00000000000E+00  0.00000000000E+00  0.73789444643E+03  0.73789444643E+03  0.00000000000E+00 0.  1.
          1   -1    0    0  501    0  0.00000000000E+00 -0.00000000000E+00 -0.12977818650E+04  0.12977818650E+04  0.00000000000E+00 0. -1.
    9900016    2    1    2    0    0 -0.10242540029E+03 -0.41920724878E+03 -0.62805416366E+03  0.10381828535E+04  0.70508575702E+03 0.  0.
         23    2    3    3    0    0  0.52035858882E+02 -0.82956958055E+01 -0.40548193522E+02  0.11426037031E+03  0.92923232010E+02 0.  0.
         23    2    3    3    0    0  0.42529525377E+02  0.41045017150E+02  0.48967242381E+02  0.11883350628E+03  0.90720215098E+02 0.  0.
        -15    1    4    4    0    0 -0.29552670094E+01 -0.40269695096E+02 -0.32211681044E+01  0.40506269517E+02  0.00000000000E+00 0. -1.
        -15    1    5    5    0    0  0.61748403592E+02  0.26314118342E+01  0.43401289019E+02  0.75521265634E+02  0.00000000000E+00 0.  1.
         15    1    4    4    0    0  0.54991125891E+02  0.31973999291E+02 -0.37327025417E+02  0.73754100794E+02  0.00000000000E+00 0.  1.
         15    1    5    5    0    0 -0.19218878215E+02  0.38413605316E+02  0.55659533620E+01  0.43312240649E+02  0.00000000000E+00 0. -1.
        -16    1    3    3    0    0 -0.19699078455E+03 -0.45195657012E+03 -0.63647321252E+03  0.80508897690E+03  0.00000000000E+00 0.  1.
         16    1    1    2    0    0  0.19518543728E+03 -0.21692283137E+03  0.17382712800E+03  0.33965974169E+03  0.00000000000E+00 0. -1.
    9900018    1    1    2    0    0 -0.92760036988E+02  0.63613008015E+03 -0.10566038292E+03  0.65783371626E+03  0.91187600000E+02 0.  0.
<mgrwt>
<rscale>  0 0.19571674E+04</rscale>
<asrwt>0</asrwt>
<pdfrwt beam="1">  1        1 0.19965875E+00 0.19571674E+04</pdfrwt>
<pdfrwt beam="2">  1       -1 0.11352222E+00 0.19571674E+04</pdfrwt>
<totfact> 0.59851971E+00</totfact>
</mgrwt>
</event>
