<event>
11    1  0.1632316E-012  0.3607914E+04  0.7818608E-02  0.8264014E-01
          1   -1    0    0  501    0  0.00000000000E+00  0.00000000000E+00  0.23159228251E+04  0.23159228251E+04  0.00000000000E+00 0. -1.
         -1   -1    0    0    0  501 -0.00000000000E+00 -0.00000000000E+00 -0.31321467131E+04  0.31321467131E+04  0.00000000000E+00 0.  1.
    9900016    2    1    2    0    0 -0.66846414015E+02  0.11330145757E+03 -0.89521919747E+03  0.24253652521E+04  0.22502607696E+04 0.  0.
         24    2    3    3    0    0  0.10311696269E+04  0.35553564048E+03 -0.22503361617E+03  0.11163712343E+04  0.76994891243E+02 0.  0.
        -15    1    1    2    0    0  0.20132098947E+03  0.14733799816E+03 -0.39807939520E+03  0.46979339224E+03  0.00000000000E+00 0.  1.
        -15    1    4    4    0    0  0.39199697455E+03  0.16982464511E+03 -0.10674556448E+03  0.44033697742E+03  0.00000000000E+00 0.  1.
         15    1    3    3    0    0 -0.10980160409E+04 -0.24223418291E+03 -0.67018558130E+03  0.13089940179E+04  0.00000000000E+00 0. -1.
         15    1    1    2    0    0 -0.67144269400E+03 -0.44259090444E+03  0.83465793972E+03  0.11590409295E+04  0.00000000000E+00 0. -1.
        -16    1    1    2    0    0  0.41915265717E+03  0.39163015473E+03 -0.73795839279E+03  0.93469017199E+03  0.00000000000E+00 0.  1.
         16    1    4    4    0    0  0.63917265231E+03  0.18571099538E+03 -0.11828805169E+03  0.67603425685E+03  0.00000000000E+00 0. -1.
    9900018    1    1    2    0    0  0.11781546137E+03 -0.20967870602E+03  0.38037515772E+03  0.45917979235E+03  0.91187600000E+02 0.  0.
<mgrwt>
<rscale>  0 0.29299768E+04</rscale>
<asrwt>0</asrwt>
<pdfrwt beam="1">  1        1 0.35629582E+00 0.36079140E+04</pdfrwt>
<pdfrwt beam="2">  1       -1 0.48186872E+00 0.36079140E+04</pdfrwt>
<totfact> 0.27358433E-03</totfact>
</mgrwt>
</event>
<event>
11    1  0.1632316E-012  0.4124504E+04  0.7818608E-02  0.8073284E-01
         -1   -1    0    0    0  501 -0.00000000000E+00  0.00000000000E+00  0.41991734541E+04  0.41991734541E+04  0.00000000000E+00 0.  1.
          1   -1    0    0  501    0  0.00000000000E+00 -0.00000000000E+00 -0.27008650146E+04  0.27008650146E+04  0.00000000000E+00 0. -1.
    9900016    2    1    2    0    0 -0.75163763485E+03  0.87272549038E+03  0.11871171585E+04  0.27426064556E+04  0.21877006437E+04 0.  0.
         24    2    3    3    0    0 -0.53214383296E+03 -0.70061150842E+03  0.43612706649E+03  0.98546304673E+03  0.83048501763E+02 0.  0.
        -15    1    4    4    0    0 -0.19613613124E+03 -0.32500017091E+03  0.17883023562E+03  0.41961261449E+03  0.00000000000E+00 0.  1.
        -15    1    1    2    0    0  0.14757932373E+04 -0.24563649642E+03  0.11092148151E+03  0.15002021672E+04  0.00000000000E+00 0.  1.
         15    1    3    3    0    0 -0.21949380189E+03  0.15733369988E+04  0.75099009205E+03  0.17571434088E+04  0.00000000000E+00 0. -1.
         15    1    1    2    0    0 -0.84747109741E+03  0.69178789415E+03  0.30335935408E+03  0.11352553233E+04  0.00000000000E+00 0. -1.
        -16    1    1    2    0    0  0.15912425808E+03 -0.13875524941E+04 -0.72713866107E+02  0.13985384370E+04  0.00000000000E+00 0.  1.
         16    1    4    4    0    0 -0.33600770172E+03 -0.37561133751E+03  0.25729683088E+03  0.56585043224E+03  0.00000000000E+00 0. -1.
    9900018    1    1    2    0    0 -0.35808763089E+02  0.68675606021E+02 -0.30375688477E+02  0.12343608557E+03  0.91187600000E+02 0.  0.
<mgrwt>
<rscale>  0 0.36760764E+04</rscale>
<asrwt>0</asrwt>
<pdfrwt beam="1">  1        1 0.41551770E+00 0.41245042E+04</pdfrwt>
<pdfrwt beam="2">  1       -1 0.64602668E+00 0.41245042E+04</pdfrwt>
<totfact> 0.21383310E-04</totfact>
</mgrwt>
</event>
<event>
11    1  0.1632316E-012  0.4282603E+04  0.7818608E-02  0.8156365E-01
         -1   -1    0    0    0  501 -0.00000000000E+00  0.00000000000E+00  0.25154366853E+04  0.25154366853E+04  0.00000000000E+00 0.  1.
          1   -1    0    0  501    0  0.00000000000E+00 -0.00000000000E+00 -0.39796964673E+04  0.39796964673E+04  0.00000000000E+00 0. -1.
    9900016    2    1    2    0    0  0.11742173059E+04 -0.80840943744E+03  0.58220165772E+03  0.26843758099E+04  0.21987729802E+04 0.  0.
        -24    2    3    3    0    0  0.17784106030E+04 -0.67553679020E+03  0.74518351195E+03  0.20446354208E+04  0.78366508588E+02 0.  0.
        -15    1    1    2    0    0  0.42827719353E+03 -0.66875944987E+02 -0.68723337928E+03  0.81251674697E+03  0.00000000000E+00 0.  1.
        -15    1    3    3    0    0 -0.60419329708E+03 -0.13287264724E+03 -0.16298185423E+03  0.63974038909E+03  0.00000000000E+00 0.  1.
         15    1    4    4    0    0  0.86065845380E+03 -0.29181213721E+03  0.37867488615E+03  0.98452118663E+03  0.00000000000E+00 0. -1.
         15    1    1    2    0    0 -0.10566362126E+04 -0.24790498580E+03 -0.88231371915E+03  0.13987188662E+04  0.00000000000E+00 0. -1.
        -16    1    4    4    0    0  0.91775214922E+03 -0.38372465300E+03  0.36650862580E+03  0.10601142342E+04  0.00000000000E+00 0.  1.
         16    1    1    2    0    0 -0.57658472528E+03  0.12161166563E+04 -0.54180622821E+03  0.14508423953E+04  0.00000000000E+00 0. -1.
    9900018    1    1    2    0    0  0.30726438432E+02 -0.92926288050E+02  0.64891886876E+02  0.14867933416E+03  0.91187600000E+02 0.  0.
<mgrwt>
<rscale>  0 0.33257848E+04</rscale>
<asrwt>0</asrwt>
<pdfrwt beam="1">  1        1 0.61226099E+00 0.42826035E+04</pdfrwt>
<pdfrwt beam="2">  1       -1 0.38699026E+00 0.42826035E+04</pdfrwt>
<totfact> 0.63003709E-04</totfact>
</mgrwt>
</event>
<event>
11    1  0.1632316E-012  0.3667457E+04  0.7818608E-02  0.8255577E-01
          5   -1    0    0  501    0  0.00000000000E+00  0.00000000000E+00  0.43964888061E+04  0.43964888061E+04  0.00000000000E+00 0. -1.
         -5   -1    0    0    0  501 -0.00000000000E+00 -0.00000000000E+00 -0.18181182912E+04  0.18181182912E+04  0.00000000000E+00 0.  1.
    9900016    2    1    2    0    0 -0.53457014749E+02 -0.18688703814E+03  0.21090118340E+04  0.30517960626E+04  0.21972127512E+04 0.  0.
        -24    2    3    3    0    0 -0.34657926055E+03 -0.59716648801E+03  0.23798007393E+04  0.24794530630E+04  0.86665646582E+02 0.  0.
        -15    1    1    2    0    0  0.84588801731E+03  0.27858822530E+03 -0.44757502488E+02  0.89170688633E+03  0.00000000000E+00 0.  1.
        -15    1    3    3    0    0  0.29312224580E+03  0.41027944987E+03 -0.27078890532E+03  0.57234299962E+03  0.00000000000E+00 0.  1.
         15    1    1    2    0    0  0.21237962259E+03 -0.61286247439E+03 -0.21737629356E+03  0.68407453513E+03  0.00000000000E+00 0. -1.
         15    1    4    4    0    0 -0.23538859644E+03 -0.39535710201E+03  0.14350946825E+04  0.15070540061E+04  0.00000000000E+00 0. -1.
        -16    1    4    4    0    0 -0.11119066411E+03 -0.20180938600E+03  0.94470605680E+03  0.97239905687E+03  0.00000000000E+00 0.  1.
         16    1    1    2    0    0 -0.80250145372E+03  0.62188717987E+03  0.84243859269E+03  0.13192630633E+04  0.00000000000E+00 0. -1.
    9900018    1    1    2    0    0 -0.20230917143E+03 -0.10072589264E+03 -0.11094611577E+03  0.26776654998E+03  0.91187600000E+02 0.  0.
<mgrwt>
<rscale>  0 0.29588592E+04</rscale>
<asrwt>0</asrwt>
<pdfrwt beam="1">  1        5 0.67638289E+00 0.36674567E+04</pdfrwt>
<pdfrwt beam="2">  1       -5 0.27971051E+00 0.36674567E+04</pdfrwt>
<totfact> 0.42491476E-07</totfact>
</mgrwt>
</event>
<event>
11    1  0.1632316E-012  0.4591011E+04  0.7818608E-02  0.8202099E-01
         -2   -1    0    0    0  501 -0.00000000000E+00  0.00000000000E+00  0.23675836161E+04  0.23675836161E+04  0.00000000000E+00 0.  1.
          2   -1    0    0  501    0  0.00000000000E+00 -0.00000000000E+00 -0.33648964037E+04  0.33648964037E+04  0.00000000000E+00 0. -1.
    9900016    2    1    2    0    0  0.20201079720E+03  0.19400889080E+03 -0.11379298955E+04  0.24889368610E+04  0.21957856087E+04 0.  0.
         24    2    3    3    0    0 -0.50412847723E+03 -0.50198839748E+03 -0.13001777871E+04  0.14842631436E+04  0.80230471009E+02 0.  0.
        -15    1    4    4    0    0 -0.25059787918E+03 -0.21014293154E+03 -0.65552325713E+03  0.73257770192E+03  0.00000000000E+00 0.  1.
        -15    1    1    2    0    0 -0.11887911828E+03 -0.24459183362E+03  0.41329489086E+01  0.27198251985E+03  0.00000000000E+00 0.  1.
         15    1    3    3    0    0  0.70613927443E+03  0.69599728828E+03  0.16224789168E+03  0.10046737174E+04  0.00000000000E+00 0. -1.
         15    1    1    2    0    0 -0.70700036895E+03  0.62065920709E+02 -0.44058639307E+03  0.83535505623E+03  0.00000000000E+00 0. -1.
        -16    1    1    2    0    0  0.86958290700E+02 -0.33902226407E+03  0.11977777412E+04  0.12478659212E+04  0.00000000000E+00 0.  1.
         16    1    4    4    0    0 -0.25353059805E+03 -0.29184546594E+03 -0.64465453002E+03  0.75168544166E+03  0.00000000000E+00 0. -1.
    9900018    1    1    2    0    0  0.53691039933E+03  0.32753928618E+03 -0.62070718921E+03  0.88833966141E+03  0.91187600000E+02 0.  0.
<mgrwt>
<rscale>  0 0.31501826E+04</rscale>
<asrwt>0</asrwt>
<pdfrwt beam="1">  1        2 0.51767637E+00 0.45910107E+04</pdfrwt>
<pdfrwt beam="2">  1       -2 0.36424363E+00 0.45910107E+04</pdfrwt>
<totfact> 0.92187119E-03</totfact>
</mgrwt>
</event>
<event>
11    1  0.1632316E-012  0.4159429E+04  0.7818608E-02  0.8114598E-01
         -2   -1    0    0    0  501 -0.00000000000E+00  0.00000000000E+00  0.36516816829E+04  0.36516816829E+04  0.00000000000E+00 0.  1.
          2   -1    0    0  501    0  0.00000000000E+00 -0.00000000000E+00 -0.27110322675E+04  0.27110322675E+04  0.00000000000E+00 0. -1.
    9900016    2    1    2    0    0  0.83895983598E+03  0.97038934425E+03  0.10772809144E+04  0.27594440265E+04  0.21928265050E+04 0.  0.
        -24    2    3    3    0    0 -0.46266471796E+03  0.46279702062E+03 -0.36328331794E+03  0.75268002591E+03  0.79452682568E+02 0.  0.
        -15    1    3    3    0    0  0.13016245539E+04  0.50759232363E+03  0.14405642323E+04  0.20067640006E+04  0.00000000000E+00 0.  1.
        -15    1    1    2    0    0  0.80729756475E+03 -0.42956566702E+03 -0.80473826848E+03  0.12181378005E+04  0.00000000000E+00 0.  1.
         15    1    1    2    0    0 -0.22143758405E+03 -0.41544463564E+03  0.72062266349E+03  0.86077051068E+03  0.00000000000E+00 0. -1.
         15    1    4    4    0    0 -0.29165672792E+03  0.27469906600E+03 -0.26375747193E+03  0.47967825446E+03  0.00000000000E+00 0. -1.
        -16    1    4    4    0    0 -0.17100799004E+03  0.18809795462E+03 -0.99525846008E+02  0.27300177145E+03  0.00000000000E+00 0.  1.
         16    1    1    2    0    0 -0.80880739508E+03 -0.15437555393E+03  0.20711594371E+03  0.84905725845E+03  0.00000000000E+00 0. -1.
    9900018    1    1    2    0    0 -0.61601242160E+03  0.28996512347E+02 -0.25963183772E+03  0.67530435423E+03  0.91187600000E+02 0.  0.
<mgrwt>
<rscale>  0 0.34965936E+04</rscale>
<asrwt>0</asrwt>
<pdfrwt beam="1">  1        2 0.41708189E+00 0.41594287E+04</pdfrwt>
<pdfrwt beam="2">  1       -2 0.56179718E+00 0.41594287E+04</pdfrwt>
<totfact> 0.14278196E-03</totfact>
</mgrwt>
</event>
<event>
11    1  0.1632316E-012  0.3420229E+04  0.7818608E-02  0.8338900E-01
         -2   -1    0    0    0  501 -0.00000000000E+00  0.00000000000E+00  0.23733684930E+04  0.23733684930E+04  0.00000000000E+00 0.  1.
          2   -1    0    0  501    0  0.00000000000E+00 -0.00000000000E+00 -0.31445948890E+04  0.31445948890E+04  0.00000000000E+00 0. -1.
    9900016    2    1    2    0    0  0.95593191364E+03 -0.73971618094E+03 -0.14627714414E+04  0.28948555100E+04  0.21862072825E+04 0.  0.
        -24    2    3    3    0    0  0.13358469424E+03 -0.82069101413E+03 -0.18140442909E+04  0.19969666039E+04  0.75764874631E+02 0.  0.
        -15    1    3    3    0    0  0.82234721939E+03  0.80974833190E+02  0.35127284959E+03  0.89788890611E+03  0.00000000000E+00 0.  1.
        -15    1    1    2    0    0 -0.97841073316E+03  0.21160281856E+03  0.51942824228E+03  0.11277717032E+04  0.00000000000E+00 0.  1.
         15    1    4    4    0    0  0.34950632830E+02 -0.22589891315E+03 -0.42117339174E+03  0.47920652292E+03  0.00000000000E+00 0. -1.
         15    1    1    2    0    0 -0.16857039233E+03  0.56282719375E+03 -0.46050531334E+03  0.74649552631E+03  0.00000000000E+00 0. -1.
        -16    1    4    4    0    0  0.98634061414E+02 -0.59479210098E+03 -0.13928708992E+04  0.15177600809E+04  0.00000000000E+00 0.  1.
         16    1    1    2    0    0  0.87140517119E+02 -0.14431740835E+03  0.50135483266E+03  0.52894012167E+03  0.00000000000E+00 0. -1.
    9900018    1    1    2    0    0  0.10390869473E+03  0.10960357698E+03  0.13126728369E+03  0.21990052089E+03  0.91187600000E+02 0.  0.
<mgrwt>
<rscale>  0 0.26880267E+04</rscale>
<asrwt>0</asrwt>
<pdfrwt beam="1">  1        2 0.48378383E+00 0.34202289E+04</pdfrwt>
<pdfrwt beam="2">  1       -2 0.36513362E+00 0.34202289E+04</pdfrwt>
<totfact> 0.13678301E-02</totfact>
</mgrwt>
</event>
<event>
11    1  0.1632316E-012  0.4234610E+04  0.7818608E-02  0.8226868E-01
          3   -1    0    0  501    0  0.00000000000E+00  0.00000000000E+00  0.31397472905E+04  0.31397472905E+04  0.00000000000E+00 0. -1.
         -3   -1    0    0    0  501 -0.00000000000E+00 -0.00000000000E+00 -0.23382585842E+04  0.23382585842E+04  0.00000000000E+00 0.  1.
    9900016    2    1    2    0    0 -0.65789165903E+03 -0.11925280478E+04  0.33858324485E+02  0.25864513750E+04  0.21985540133E+04 0.  0.
         24    2    3    3    0    0 -0.73889641388E+03 -0.82615397538E+03  0.10341383070E+04  0.15181107109E+04  0.81974330598E+02 0.  0.
        -15    1    4    4    0    0 -0.29172657045E+03 -0.38709313720E+03  0.44855543387E+03  0.66041461676E+03  0.00000000000E+00 0.  1.
        -15    1    1    2    0    0 -0.64578391439E+03  0.10737021688E+04  0.87131463927E+03  0.15261266042E+04  0.00000000000E+00 0.  1.
         15    1    1    2    0    0  0.38474943740E+03  0.15317853908E+03  0.21777617515E+02  0.41469272847E+03  0.00000000000E+00 0. -1.
         15    1    3    3    0    0  0.81004754847E+02 -0.36637407244E+03 -0.10002799825E+04  0.10683406642E+04  0.00000000000E+00 0. -1.
        -16    1    1    2    0    0  0.73508213781E+03 -0.44538852047E+02 -0.84992527570E+02  0.74131854719E+03  0.00000000000E+00 0.  1.
         16    1    4    4    0    0 -0.44716984343E+03 -0.43906083817E+03  0.58558287315E+03  0.85769609409E+03  0.00000000000E+00 0. -1.
    9900018    1    1    2    0    0  0.18384399821E+03  0.10186191968E+02 -0.40469347478E+02  0.20941661983E+03  0.91187600000E+02 0.  0.
<mgrwt>
<rscale>  0 0.30597651E+04</rscale>
<asrwt>0</asrwt>
<pdfrwt beam="1">  1        3 0.48303805E+00 0.42346104E+04</pdfrwt>
<pdfrwt beam="2">  1       -3 0.35973209E+00 0.42346104E+04</pdfrwt>
<totfact> 0.13931725E-04</totfact>
</mgrwt>
</event>
<event>
11    1  0.1632316E-012  0.3213504E+04  0.7818608E-02  0.8470513E-01
          2   -1    0    0  501    0  0.00000000000E+00  0.00000000000E+00  0.16087968450E+04  0.16087968450E+04  0.00000000000E+00 0.  1.
         -2   -1    0    0    0  501 -0.00000000000E+00 -0.00000000000E+00 -0.28035746740E+04  0.28035746740E+04  0.00000000000E+00 0. -1.
    9900016    2    1    2    0    0 -0.21262912649E+03 -0.40005652424E+03 -0.31938396753E+03  0.22816416339E+04  0.22132839987E+04 0.  0.
        -24    2    3    3    0    0 -0.55130367217E+03 -0.44531784124E+03 -0.11670216695E+04  0.13677276836E+04  0.80596035282E+02 0.  0.
        -15    1    1    2    0    0  0.13991403265E+03  0.24918520674E+03  0.49897509876E+03  0.57501769796E+03  0.00000000000E+00 0.  1.
        -15    1    3    3    0    0  0.33867454568E+03  0.45261317001E+02  0.84763770195E+03  0.91391395026E+03  0.00000000000E+00 0.  1.
         15    1    1    2    0    0 -0.17183672601E+03 -0.13956951154E+02 -0.27505085331E+03  0.32461612529E+03  0.00000000000E+00 0. -1.
         15    1    4    4    0    0 -0.34370304507E+03 -0.32556029386E+03 -0.78916494150E+03  0.92027310784E+03  0.00000000000E+00 0. -1.
        -16    1    4    4    0    0 -0.20760062711E+03 -0.11975754738E+03 -0.37785672798E+03  0.44745457581E+03  0.00000000000E+00 0.  1.
         16    1    1    2    0    0  0.31726391360E+03  0.34493796618E+02 -0.94645462861E+03  0.99881058109E+03  0.00000000000E+00 0. -1.
    9900018    1    1    2    0    0 -0.72712093742E+02  0.13033447203E+03 -0.15286347835E+03  0.23228548079E+03  0.91187600000E+02 0.  0.
<mgrwt>
<rscale>  0 0.23188819E+04</rscale>
<asrwt>0</asrwt>
<pdfrwt beam="1">  1        2 0.24750721E+00 0.32135044E+04</pdfrwt>
<pdfrwt beam="2">  1       -2 0.43131918E+00 0.32135044E+04</pdfrwt>
<totfact> 0.41407013E-02</totfact>
</mgrwt>
</event>
<event>
11    1  0.1632316E-012  0.4410104E+04  0.7818608E-02  0.8261110E-01
         -2   -1    0    0    0  501 -0.00000000000E+00  0.00000000000E+00  0.21031058424E+04  0.21031058424E+04  0.00000000000E+00 0. -1.
          2   -1    0    0  501    0  0.00000000000E+00 -0.00000000000E+00 -0.33203925240E+04  0.33203925240E+04  0.00000000000E+00 0.  1.
    9900016    2    1    2    0    0  0.80699426358E+03  0.26961802178E+03 -0.58000322550E+03  0.24208079779E+04  0.21908842748E+04 0.  0.
         24    2    3    3    0    0  0.58071055348E+03 -0.80029425228E+03  0.27847610059E+03  0.10305190350E+04  0.82005522261E+02 0.  0.
        -15    1    4    4    0    0  0.30266281197E+03 -0.46541424439E+03  0.12572329128E+03  0.56922890176E+03  0.00000000000E+00 0.  1.
        -15    1    1    2    0    0  0.52338027373E+03  0.53262884610E+03 -0.58434611088E+03  0.94819870066E+03  0.00000000000E+00 0.  1.
         15    1    1    2    0    0 -0.20828261610E+03 -0.29983614335E+03  0.24496328849E+03  0.43964801118E+03  0.00000000000E+00 0. -1.
         15    1    3    3    0    0  0.22628371010E+03  0.10699122741E+04 -0.85847932609E+03  0.13902889430E+04  0.00000000000E+00 0. -1.
        -16    1    1    2    0    0  0.18012392291E+02 -0.24176980768E+03 -0.36688273526E+03  0.43974996034E+03  0.00000000000E+00 0.  1.
         16    1    4    4    0    0  0.27804774151E+03 -0.33488000789E+03  0.15275280931E+03  0.46129013321E+03  0.00000000000E+00 0. -1.
    9900018    1    1    2    0    0 -0.11401043135E+04 -0.26064091685E+03  0.68982101531E+02  0.11750937162E+04  0.91187600000E+02 0.  0.
<mgrwt>
<rscale>  0 0.29398786E+04</rscale>
<asrwt>0</asrwt>
<pdfrwt beam="1">  1        2 0.51082962E+00 0.44101042E+04</pdfrwt>
<pdfrwt beam="2">  1       -2 0.32355475E+00 0.44101042E+04</pdfrwt>
<totfact> 0.18163725E-02</totfact>
</mgrwt>
</event>
<event>
11    1  0.1632316E-012  0.4442406E+04  0.7818608E-02  0.8141131E-01
          2   -1    0    0  501    0  0.00000000000E+00  0.00000000000E+00  0.51918152225E+04  0.51918152225E+04  0.00000000000E+00 0.  1.
         -2   -1    0    0    0  501 -0.00000000000E+00 -0.00000000000E+00 -0.17234397953E+04  0.17234397953E+04  0.00000000000E+00 0. -1.
    9900016    2    1    2    0    0  0.81885553437E+03  0.16802575994E+04  0.17892226864E+04  0.33976238543E+04  0.22019854785E+04 0.  0.
        -24    2    3    3    0    0  0.96500529129E+03  0.20543198012E+04  0.93951552472E+03  0.24577916656E+04  0.81150432466E+02 0.  0.
        -15    1    1    2    0    0 -0.67772847867E+03 -0.27811576434E+03  0.81750679112E+03  0.10977165493E+04  0.00000000000E+00 0.  1.
        -15    1    3    3    0    0 -0.14614975691E+03 -0.37406220183E+03  0.84970716164E+03  0.93983218865E+03  0.00000000000E+00 0.  1.
         15    1    4    4    0    0  0.72417071123E+03  0.15817455087E+04  0.68749565694E+03  0.18705593687E+04  0.00000000000E+00 0. -1.
         15    1    1    2    0    0 -0.41547406492E+03 -0.12938150366E+02 -0.27478392984E+03  0.49828937622E+03  0.00000000000E+00 0. -1.
        -16    1    4    4    0    0  0.24083458006E+03  0.47257429246E+03  0.25201986778E+03  0.58723229697E+03  0.00000000000E+00 0.  1.
         16    1    1    2    0    0  0.35501294642E+03 -0.13781975996E+04  0.10058510757E+04  0.17427562085E+04  0.00000000000E+00 0. -1.
    9900018    1    1    2    0    0 -0.80665937207E+02 -0.11006085074E+02  0.13057880387E+03  0.17886902959E+03  0.91187600000E+02 0.  0.
<mgrwt>
<rscale>  0 0.33868913E+04</rscale>
<asrwt>0</asrwt>
<pdfrwt beam="1">  1        2 0.79874080E+00 0.44424057E+04</pdfrwt>
<pdfrwt beam="2">  1       -2 0.26514459E+00 0.44424057E+04</pdfrwt>
<totfact> 0.70177700E-04</totfact>
</mgrwt>
</event>
<event>
11    1  0.1632316E-012  0.3498249E+04  0.7818608E-02  0.8335610E-01
          2   -1    0    0  501    0  0.00000000000E+00  0.00000000000E+00  0.12676478061E+04  0.12676478061E+04  0.00000000000E+00 0. -1.
         -2   -1    0    0    0  501 -0.00000000000E+00 -0.00000000000E+00 -0.44334347837E+04  0.44334347837E+04  0.00000000000E+00 0.  1.
    9900016    2    1    2    0    0 -0.65868853758E+03 -0.30459956534E+03 -0.72186148694E+03  0.24327917427E+04  0.22069753448E+04 0.  0.
         24    2    3    3    0    0 -0.40969488834E+02  0.92371041915E+03 -0.13526170264E+03  0.93799357973E+03  0.81343653435E+02 0.  0.
        -15    1    4    4    0    0 -0.61576489626E+02  0.82796461387E+03 -0.12077107478E+03  0.83898910505E+03  0.00000000000E+00 0.  1.
        -15    1    1    2    0    0  0.35915585409E+03 -0.19527828511E+03 -0.10148536293E+04  0.10940998241E+04  0.00000000000E+00 0.  1.
         15    1    1    2    0    0  0.14047545821E+03  0.26370301663E+02  0.30221935697E+03  0.33431315693E+03  0.00000000000E+00 0. -1.
         15    1    3    3    0    0 -0.61771904874E+03 -0.12283099845E+04 -0.58659978430E+03  0.14947981630E+04  0.00000000000E+00 0. -1.
        -16    1    1    2    0    0  0.20194051019E+03  0.18362036664E+03 -0.11566469080E+04  0.11884142706E+04  0.00000000000E+00 0.  1.
         16    1    4    4    0    0  0.20607000792E+02  0.95745805286E+02 -0.14490627865E+02  0.99004474684E+02  0.00000000000E+00 0. -1.
    9900018    1    1    2    0    0 -0.42883284906E+02  0.28988718215E+03 -0.57464431032E+03  0.65146359551E+03  0.91187600000E+02 0.  0.
<mgrwt>
<rscale>  0 0.26981351E+04</rscale>
<asrwt>0</asrwt>
<pdfrwt beam="1">  1        2 0.19502274E+00 0.34982492E+04</pdfrwt>
<pdfrwt beam="2">  1       -2 0.68206689E+00 0.34982492E+04</pdfrwt>
<totfact> 0.35810672E-03</totfact>
</mgrwt>
</event>
<event>
11    1  0.1632316E-012  0.3961539E+04  0.7818608E-02  0.8220343E-01
         -2   -1    0    0    0  501 -0.00000000000E+00  0.00000000000E+00  0.34134432651E+04  0.34134432651E+04  0.00000000000E+00 0.  1.
          2   -1    0    0  501    0  0.00000000000E+00 -0.00000000000E+00 -0.21508184860E+04  0.21508184860E+04  0.00000000000E+00 0. -1.
    9900016    2    1    2    0    0 -0.10562697404E+03 -0.82135023033E+03  0.50616993901E+03  0.24095374243E+04  0.22054227109E+04 0.  0.
         24    2    3    3    0    0  0.22161639828E+03 -0.15340981206E+04  0.18898893102E+03  0.15635459518E+04  0.79926563508E+02 0.  0.
        -15    1    1    2    0    0  0.13058483882E+03  0.55697615279E+03  0.37363603578E+03  0.68328524215E+03  0.00000000000E+00 0.  1.
        -15    1    4    4    0    0  0.16202298791E+03 -0.84671545975E+03  0.11076208802E+03  0.86916440247E+03  0.00000000000E+00 0.  1.
         15    1    3    3    0    0 -0.32724337233E+03  0.71274789029E+03  0.31718100799E+03  0.84599147258E+03  0.00000000000E+00 0. -1.
         15    1    1    2    0    0 -0.11257111071E+03 -0.77230441118E+03 -0.12821728498E+03  0.79092732325E+03  0.00000000000E+00 0. -1.
        -16    1    1    2    0    0  0.16040831855E+03  0.66447812997E+03  0.89966543931E+03  0.11298937634E+04  0.00000000000E+00 0.  1.
         16    1    4    4    0    0  0.59593410370E+02 -0.68738266088E+03  0.78226842997E+02  0.69438154929E+03  0.00000000000E+00 0. -1.
    9900018    1    1    2    0    0 -0.72795072623E+02  0.37220035875E+03 -0.38862935003E+03  0.55061799802E+03  0.91187600000E+02 0.  0.
<mgrwt>
<rscale>  0 0.30832751E+04</rscale>
<asrwt>0</asrwt>
<pdfrwt beam="1">  1        2 0.33089515E+00 0.39615394E+04</pdfrwt>
<pdfrwt beam="2">  1       -2 0.52514512E+00 0.39615394E+04</pdfrwt>
<totfact> 0.48606205E-03</totfact>
</mgrwt>
</event>
