<event>
12    1  0.7905926E-014  0.5243450E+04  0.7818608E-02  0.7792012E-01
          2   -1    0    0  501    0  0.00000000000E+00  0.00000000000E+00  0.18865366383E+04  0.18865366383E+04  0.00000000000E+00 0. -1.
         -2   -1    0    0    0  501 -0.00000000000E+00 -0.00000000000E+00 -0.36434186278E+04  0.36434186278E+04  0.00000000000E+00 0.  1.
    9900016    2    1    2    0    0 -0.89592771462E+03 -0.27792138755E+03 -0.19398460670E+04  0.30782618110E+04  0.21983553503E+04 0.  0.
    9900016    2    1    2    0    0  0.86174004720E+03  0.24743546260E+03  0.16767506824E+03  0.23485085704E+04  0.21641528041E+04 0.  0.
         23    2    4    4    0    0 -0.38034042487E+03 -0.67083184945E+03 -0.92884713877E+02  0.78202519813E+03  0.90893516853E+02 0.  0.
        -15    1    5    5    0    0 -0.33754003507E+03 -0.63855858104E+03 -0.78569169117E+02  0.72654211924E+03  0.00000000000E+00 0.  1.
        -15    1    3    3    0    0  0.11936215732E+03  0.21990222996E+03  0.17736879606E+03  0.30669855747E+03  0.00000000000E+00 0.  1.
         15    1    5    5    0    0 -0.42800389800E+02 -0.32273268411E+02 -0.14315544760E+02  0.55483078886E+02  0.00000000000E+00 0. -1.
         15    1    3    3    0    0 -0.15825776747E+02  0.21810085669E+03  0.96772454415E+02  0.23913039714E+03  0.00000000000E+00 0. -1.
        -16    1    3    3    0    0 -0.99946409519E+03 -0.71592447421E+03 -0.22139873175E+04  0.25324328564E+04  0.00000000000E+00 0.  1.
         16    1    4    4    0    0  0.12420804721E+04  0.91826731205E+03  0.26055978212E+03  0.15664833723E+04  0.00000000000E+00 0. -1.
    9900018    1    1    2    0    0  0.34187667415E+02  0.30485924948E+02  0.15289009296E+02  0.10318488466E+03  0.91187600000E+02 0.  0.
<mgrwt>
<rscale>  0 0.52434503E+04</rscale>
<asrwt>0</asrwt>
<pdfrwt beam="1">  1        2 0.29023641E+00 0.52434503E+04</pdfrwt>
<pdfrwt beam="2">  1       -2 0.56052593E+00 0.52434503E+04</pdfrwt>
<totfact> 0.42244660E-03</totfact>
</mgrwt>
</event>
<event>
13    1  0.7905926E-014  0.4919270E+04  0.7818608E-02  0.7841083E-01
         -1   -1    0    0    0  501 -0.00000000000E+00  0.00000000000E+00  0.23009380813E+04  0.23009380813E+04  0.00000000000E+00 0.  1.
          1   -1    0    0  501    0  0.00000000000E+00 -0.00000000000E+00 -0.26292778617E+04  0.26292778617E+04  0.00000000000E+00 0. -1.
    9900016    2    1    2    0    0  0.22401106956E+03 -0.19551897736E+03  0.87415339334E+03  0.23678382398E+04  0.21803910533E+04 0.  0.
         23    2    3    3    0    0 -0.83753552001E+02 -0.53377154156E+03 -0.60518848630E+03  0.81942412974E+03  0.11522189204E+03 0.  0.
    9900016    2    1    2    0    0 -0.22401106956E+03  0.19551897736E+03 -0.12024931737E+04  0.25623777031E+04  0.22430740136E+04 0.  0.
         23    2    5    5    0    0 -0.67233577247E+01 -0.29744880923E+03  0.58205872202E+03  0.65994139544E+03  0.90605142748E+02 0.  0.
        -15    1    6    6    0    0 -0.48129409271E+02 -0.15997585777E+03  0.32929607986E+03  0.36924872825E+03  0.00000000000E+00 0.  1.
        -15    1    4    4    0    0 -0.11099152002E+03 -0.44256906035E+03 -0.48142574379E+03  0.66329272383E+03  0.00000000000E+00 0. -1.
         15    1    4    4    0    0  0.27237968017E+02 -0.91202481202E+02 -0.12376274251E+03  0.15613140592E+03  0.00000000000E+00 0.  1.
         15    1    6    6    0    0  0.41406051546E+02 -0.13747295146E+03  0.25276264216E+03  0.29069266719E+03  0.00000000000E+00 0. -1.
        -16    1    3    3    0    0  0.30776462156E+03  0.33825256419E+03  0.14793418796E+04  0.15484141101E+04  0.00000000000E+00 0.  1.
         16    1    5    5    0    0 -0.19887001872E+03  0.48712611988E+03 -0.16885498905E+04  0.17686271156E+04  0.00000000000E+00 0. -1.
    9900018    1    5    5    0    0 -0.18417693113E+02  0.58416667065E+01 -0.96002005215E+02  0.13380919209E+03  0.91187600000E+02 0.  0.
<mgrwt>
<rscale>  0 0.49192705E+04</rscale>
<asrwt>0</asrwt>
<pdfrwt beam="1">  1        1 0.40450429E+00 0.49192705E+04</pdfrwt>
<pdfrwt beam="2">  1       -1 0.35399047E+00 0.49192705E+04</pdfrwt>
<totfact> 0.11691121E-02</totfact>
</mgrwt>
</event>
<event>
13    1  0.7905926E-014  0.6126907E+04  0.7818608E-02  0.7674863E-01
         -2   -1    0    0    0  501 -0.00000000000E+00  0.00000000000E+00  0.25957219946E+04  0.25957219946E+04  0.00000000000E+00 0.  1.
          2   -1    0    0  501    0  0.00000000000E+00 -0.00000000000E+00 -0.36154670230E+04  0.36154670230E+04  0.00000000000E+00 0. -1.
    9900016    2    1    2    0    0 -0.10109536992E+04 -0.16489027544E+04  0.33130687085E+03  0.29463300039E+04  0.21977689992E+04 0.  0.
         23    2    3    3    0    0  0.27576935571E+03  0.34461433041E+03  0.34505493182E+03  0.57357725726E+03  0.12296418097E+03 0.  0.
    9900016    2    1    2    0    0  0.10109536992E+04  0.16489027544E+04 -0.13510518992E+04  0.32648590137E+04  0.22567798894E+04 0.  0.
         23    2    5    5    0    0 -0.22012771860E+03  0.73970312371E+02  0.47166945499E+03  0.53325097594E+03  0.89200386576E+02 0.  0.
        -15    1    4    4    0    0  0.98538923777E+02  0.18171849901E+03  0.98452553413E+02  0.22896383482E+03  0.00000000000E+00 0.  1.
        -15    1    6    6    0    0 -0.14399955530E+03  0.35890121509E+02  0.20328800554E+03  0.25169423105E+03  0.00000000000E+00 0.  1.
         15    1    4    4    0    0  0.17723043194E+03  0.16289583140E+03  0.24660237840E+03  0.34461342244E+03  0.00000000000E+00 0. -1.
         15    1    6    6    0    0 -0.76128163293E+02  0.38080190862E+02  0.26838144945E+03  0.28155674489E+03  0.00000000000E+00 0. -1.
        -16    1    3    3    0    0 -0.12867230550E+04 -0.19935170848E+04 -0.13748060970E+02  0.23727527467E+04  0.00000000000E+00 0.  1.
         16    1    5    5    0    0  0.11720878689E+04  0.14905854438E+04 -0.16794097086E+04  0.25329926780E+04  0.00000000000E+00 0. -1.
    9900018    1    5    5    0    0  0.58993548945E+02  0.84346998216E+02 -0.14331164567E+03  0.19861535968E+03  0.91187600000E+02 0.  0.
<mgrwt>
<rscale>  0 0.61269070E+04</rscale>
<asrwt>0</asrwt>
<pdfrwt beam="1">  1        2 0.55622569E+00 0.61269070E+04</pdfrwt>
<pdfrwt beam="2">  1       -2 0.39934185E+00 0.61269070E+04</pdfrwt>
<totfact> 0.33575203E-03</totfact>
</mgrwt>
</event>
<event>
12    1  0.7905926E-014  0.5378168E+04  0.7818608E-02  0.7772679E-01
          2   -1    0    0  501    0  0.00000000000E+00  0.00000000000E+00  0.43654391271E+04  0.43654391271E+04  0.00000000000E+00 0. -1.
         -2   -1    0    0    0  501 -0.00000000000E+00 -0.00000000000E+00 -0.16564591981E+04  0.16564591981E+04  0.00000000000E+00 0.  1.
    9900016    2    1    2    0    0 -0.65852410145E+03  0.71581944689E+03  0.72369559081E+02  0.24164699794E+04  0.22108908466E+04 0.  0.
    9900016    2    1    2    0    0  0.62029755121E+03 -0.71003293184E+03  0.25262280798E+04  0.34571239924E+04  0.21635531357E+04 0.  0.
         23    2    4    4    0    0  0.61277230055E+03  0.67894704889E+03  0.66245430431E+03  0.11326940187E+04  0.87698615497E+02 0.  0.
        -15    1    3    3    0    0  0.64936873097E+02 -0.63208713013E+02  0.13757958805E+03  0.16474307857E+03  0.00000000000E+00 0.  1.
        -15    1    5    5    0    0  0.41804464086E+02  0.24759918415E+02  0.52659852130E+02  0.71650030033E+02  0.00000000000E+00 0. -1.
         15    1    5    5    0    0  0.57096783646E+03  0.65418713047E+03  0.60979445218E+03  0.10610439887E+04  0.00000000000E+00 0.  1.
         15    1    3    3    0    0  0.46520404677E+03 -0.55433700082E+02  0.50738602930E+03  0.69059994422E+03  0.00000000000E+00 0. -1.
        -16    1    3    3    0    0 -0.11886650213E+04  0.83446185999E+03 -0.57259605827E+03  0.15611269566E+04  0.00000000000E+00 0.  1.
         16    1    4    4    0    0  0.75252506632E+01 -0.13889799807E+04  0.18637737755E+04  0.23244299737E+04  0.00000000000E+00 0. -1.
    9900018    1    1    2    0    0  0.38226550238E+02 -0.57865150514E+01  0.11038229007E+03  0.14830435346E+03  0.91187600000E+02 0.  0.
<mgrwt>
<rscale>  0 0.53781676E+04</rscale>
<asrwt>0</asrwt>
<pdfrwt beam="1">  1        2 0.67160601E+00 0.53781676E+04</pdfrwt>
<pdfrwt beam="2">  1       -2 0.25483988E+00 0.53781676E+04</pdfrwt>
<totfact> 0.69472026E-03</totfact>
</mgrwt>
</event>
<event>
13    1  0.7905926E-014  0.6941370E+04  0.7818608E-02  0.7583512E-01
         -2   -1    0    0    0  501 -0.00000000000E+00  0.00000000000E+00  0.31689100960E+04  0.31689100960E+04  0.00000000000E+00 0.  1.
          2   -1    0    0  501    0  0.00000000000E+00 -0.00000000000E+00 -0.38011979979E+04  0.38011979979E+04  0.00000000000E+00 0. -1.
    9900016    2    1    2    0    0  0.11672748624E+04  0.14041862225E+04  0.16391810372E+04  0.32953939323E+04  0.21996447769E+04 0.  0.
         23    2    3    3    0    0 -0.43212600640E+03  0.60018498115E+03 -0.15117730400E+03  0.76361903610E+03  0.11534538583E+03 0.  0.
    9900016    2    1    2    0    0 -0.11672748624E+04 -0.14041862225E+04 -0.22714689391E+04  0.36747141617E+04  0.22382322213E+04 0.  0.
         23    2    5    5    0    0 -0.16555757189E+03  0.22689209524E+03  0.31315745725E+03  0.43034625654E+03  0.90779816005E+02 0.  0.
        -15    1    6    6    0    0 -0.42238766298E+02  0.36318042992E+02  0.11997517226E+03  0.13227681423E+03  0.00000000000E+00 0. -1.
        -15    1    4    4    0    0 -0.74928630963E+02  0.50907173959E+02 -0.40093625165E+02  0.99062297961E+02  0.00000000000E+00 0.  1.
         15    1    6    6    0    0 -0.12331880559E+03  0.19057405225E+03  0.19318228499E+03  0.29806944231E+03  0.00000000000E+00 0.  1.
         15    1    4    4    0    0 -0.35719737544E+03  0.54927780719E+03 -0.11108367884E+03  0.66455673813E+03  0.00000000000E+00 0. -1.
        -16    1    3    3    0    0  0.15994008688E+04  0.80400124137E+03  0.17903583412E+04  0.25317748962E+04  0.00000000000E+00 0.  1.
         16    1    5    5    0    0 -0.93096929815E+03 -0.15585178633E+04 -0.24750825068E+04  0.30694812558E+04  0.00000000000E+00 0. -1.
    9900018    1    5    5    0    0 -0.70747992323E+02 -0.72560454453E+02 -0.10954388959E+03  0.17488664931E+03  0.91187600000E+02 0.  0.
<mgrwt>
<rscale>  0 0.69413701E+04</rscale>
<asrwt>0</asrwt>
<pdfrwt beam="1">  1        2 0.58479969E+00 0.69413701E+04</pdfrwt>
<pdfrwt beam="2">  1       -2 0.48752463E+00 0.69413701E+04</pdfrwt>
<totfact> 0.61160589E-04</totfact>
</mgrwt>
</event>
<event>
12    1  0.7905926E-014  0.4738148E+04  0.7818608E-02  0.7870221E-01
          1   -1    0    0  501    0  0.00000000000E+00  0.00000000000E+00  0.28434097577E+04  0.28434097577E+04  0.00000000000E+00 0. -1.
         -1   -1    0    0    0  501 -0.00000000000E+00 -0.00000000000E+00 -0.19738663915E+04  0.19738663915E+04  0.00000000000E+00 0.  1.
    9900016    2    1    2    0    0  0.66115589588E+03  0.63227842805E+02 -0.24050819342E+02  0.23017217657E+04  0.22036832272E+04 0.  0.
    9900016    2    1    2    0    0 -0.62315077959E+03 -0.96047213719E+02  0.79862271307E+03  0.23746421451E+04  0.21455966812E+04 0.  0.
         23    2    4    4    0    0 -0.22528512229E+03 -0.37006205777E+03 -0.68439705005E+03  0.81492139006E+03  0.89432862753E+02 0.  0.
        -15    1    5    5    0    0 -0.16920269387E+02 -0.73460455885E+02 -0.16657945863E+03  0.18284269231E+03  0.00000000000E+00 0. -1.
        -15    1    3    3    0    0 -0.30111692183E+03  0.13879810819E+03  0.46117242673E+03  0.56799324171E+03  0.00000000000E+00 0.  1.
         15    1    3    3    0    0 -0.26958628413E+03  0.67194247918E+02  0.17546882666E+03  0.32860483970E+03  0.00000000000E+00 0. -1.
         15    1    5    5    0    0 -0.20836485290E+03 -0.29660160189E+03 -0.51781759142E+03  0.63207869775E+03  0.00000000000E+00 0.  1.
        -16    1    3    3    0    0  0.12318591018E+04 -0.14276451330E+03 -0.66069207274E+03  0.14051236843E+04  0.00000000000E+00 0.  1.
         16    1    4    4    0    0 -0.39786565730E+03  0.27401484405E+03  0.14830197631E+04  0.15597207551E+04  0.00000000000E+00 0. -1.
    9900018    1    1    2    0    0 -0.38005116298E+02  0.32819370914E+02  0.94971472483E+02  0.14091223847E+03  0.91187600000E+02 0.  0.
<mgrwt>
<rscale>  0 0.47381477E+04</rscale>
<asrwt>0</asrwt>
<pdfrwt beam="1">  1        1 0.43744766E+00 0.47381477E+04</pdfrwt>
<pdfrwt beam="2">  1       -1 0.30367175E+00 0.47381477E+04</pdfrwt>
<totfact> 0.17878653E-02</totfact>
</mgrwt>
</event>
<event>
12    1  0.7905926E-014  0.5202942E+04  0.7818608E-02  0.7797942E-01
          2   -1    0    0  501    0  0.00000000000E+00  0.00000000000E+00  0.31697831615E+04  0.31697831615E+04  0.00000000000E+00 0. -1.
         -2   -1    0    0    0  501 -0.00000000000E+00 -0.00000000000E+00 -0.21350519795E+04  0.21350519795E+04  0.00000000000E+00 0.  1.
    9900016    2    1    2    0    0 -0.11559822253E+02 -0.10374889731E+03 -0.86403493625E+03  0.23533994440E+04  0.21865578220E+04 0.  0.
    9900016    2    1    2    0    0  0.11559822253E+02  0.10374889731E+03  0.18987661182E+04  0.29514356970E+04  0.22571580447E+04 0.  0.
         23    2    4    4    0    0  0.18741528023E+03 -0.57252264095E+03  0.19119046788E+04  0.20064627803E+04  0.87216548318E+02 0.  0.
        -15    1    5    5    0    0  0.45191060875E+02 -0.60712350972E+02  0.19142318644E+03  0.20584231307E+03  0.00000000000E+00 0.  1.
        -15    1    3    3    0    0  0.95151599367E+03  0.14046347194E+01 -0.10863185851E+03  0.95769804212E+03  0.00000000000E+00 0.  1.
         15    1    5    5    0    0  0.14222421936E+03 -0.51181028998E+03  0.17204814923E+04  0.18006204672E+04  0.00000000000E+00 0. -1.
         15    1    3    3    0    0  0.85570687201E+02 -0.32165105273E+02  0.14726663318E+02  0.92594876304E+02  0.00000000000E+00 0. -1.
        -16    1    4    4    0    0 -0.20636305351E+03  0.67969944782E+03 -0.19726891108E+03  0.73721914822E+03  0.00000000000E+00 0.  1.
         16    1    3    3    0    0 -0.10486465031E+04 -0.72988426756E+02 -0.77012974105E+03  0.13031065256E+04  0.00000000000E+00 0. -1.
    9900018    1    4    4    0    0  0.30507595526E+02 -0.34279095643E+01  0.18413035051E+03  0.20775376849E+03  0.91187600000E+02 0.  0.
<mgrwt>
<rscale>  0 0.52029422E+04</rscale>
<asrwt>0</asrwt>
<pdfrwt beam="1">  1        2 0.48765895E+00 0.52029422E+04</pdfrwt>
<pdfrwt beam="2">  1       -2 0.32846954E+00 0.52029422E+04</pdfrwt>
<totfact> 0.20608337E-02</totfact>
</mgrwt>
</event>
<event>
12    1  0.7905926E-014  0.5238742E+04  0.7818608E-02  0.7792698E-01
          2   -1    0    0  501    0  0.00000000000E+00  0.00000000000E+00  0.36598776639E+04  0.36598776639E+04  0.00000000000E+00 0. -1.
         -2   -1    0    0    0  501 -0.00000000000E+00 -0.00000000000E+00 -0.18746815389E+04  0.18746815389E+04  0.00000000000E+00 0.  1.
    9900016    2    1    2    0    0  0.74497563611E+03 -0.55444135657E+03 -0.19101527867E+03  0.23925112543E+04  0.21966404688E+04 0.  0.
    9900016    2    1    2    0    0 -0.67723051569E+03  0.52101331164E+03  0.18952909476E+04  0.29986250279E+04  0.21609091234E+04 0.  0.
         23    2    4    4    0    0  0.37784962469E+03 -0.33632317773E+03 -0.15649273628E+03  0.53731719584E+03  0.91302648790E+02 0.  0.
        -15    1    5    5    0    0  0.30161459543E+03 -0.29977780850E+03 -0.10392743978E+03  0.43776593219E+03  0.00000000000E+00 0.  1.
        -15    1    3    3    0    0  0.35860872593E+02  0.25069640176E+03  0.21677753337E+03  0.33335744632E+03  0.00000000000E+00 0. -1.
         15    1    3    3    0    0  0.10046163070E+03  0.27002690547E+03  0.46461547259E+03  0.54669425302E+03  0.00000000000E+00 0.  1.
         15    1    5    5    0    0  0.76235029264E+02 -0.36545369235E+02 -0.52565296492E+02  0.99551263652E+02  0.00000000000E+00 0. -1.
        -16    1    3    3    0    0  0.60865313282E+03 -0.10751646638E+04 -0.87240828462E+03  0.15124595550E+04  0.00000000000E+00 0.  1.
         16    1    4    4    0    0 -0.10550801404E+04  0.85733648937E+03  0.20517836839E+04  0.24613078320E+04  0.00000000000E+00 0. -1.
    9900018    1    1    2    0    0 -0.67745120421E+02  0.33428044931E+02  0.80920456113E+02  0.14342292055E+03  0.91187600000E+02 0.  0.
<mgrwt>
<rscale>  0 0.52387423E+04</rscale>
<asrwt>0</asrwt>
<pdfrwt beam="1">  1        2 0.56305810E+00 0.52387423E+04</pdfrwt>
<pdfrwt beam="2">  1       -2 0.28841254E+00 0.52387423E+04</pdfrwt>
<totfact> 0.16652346E-02</totfact>
</mgrwt>
</event>
<event>
13    1  0.7905926E-014  0.5022458E+04  0.7818608E-02  0.7825052E-01
          2   -1    0    0  501    0  0.00000000000E+00  0.00000000000E+00  0.20477862362E+04  0.20477862362E+04  0.00000000000E+00 0. -1.
         -2   -1    0    0    0  501 -0.00000000000E+00 -0.00000000000E+00 -0.30795559233E+04  0.30795559233E+04  0.00000000000E+00 0.  1.
    9900016    2    1    2    0    0 -0.17525758509E+03 -0.18192543691E+03 -0.16841941016E+04  0.27816196791E+04  0.21993376688E+04 0.  0.
         23    2    3    3    0    0  0.47362524976E+03 -0.47317919422E+03  0.24739271996E+03  0.72324523940E+03  0.11688067146E+03 0.  0.
    9900016    2    1    2    0    0  0.17525758509E+03  0.18192543691E+03  0.65242441449E+03  0.23457224804E+04  0.22389605295E+04 0.  0.
         23    2    5    5    0    0  0.15297193182E+03 -0.47414984645E+03 -0.65417631185E+03  0.82725807036E+03  0.90502923586E+02 0.  0.
        -15    1    4    4    0    0  0.11530750331E+03 -0.52763725642E+02  0.56147940769E+02  0.13868100921E+03  0.00000000000E+00 0.  1.
        -15    1    6    6    0    0  0.13619403436E+03 -0.41534195984E+03 -0.51663743043E+03  0.67673628033E+03  0.00000000000E+00 0.  1.
         15    1    6    6    0    0  0.16777897466E+02 -0.58807886614E+02 -0.13753888143E+03  0.15052179003E+03  0.00000000000E+00 0. -1.
         15    1    4    4    0    0  0.35831774646E+03 -0.42041546858E+03  0.19124477919E+03  0.58456423019E+03  0.00000000000E+00 0. -1.
        -16    1    3    3    0    0 -0.64888283485E+03  0.29125375731E+03 -0.19315868216E+04  0.20583744397E+04  0.00000000000E+00 0.  1.
         16    1    5    5    0    0  0.31205768505E+02  0.65674440823E+03  0.12453382760E+04  0.14082451631E+04  0.00000000000E+00 0. -1.
    9900018    1    5    5    0    0 -0.89201152356E+01 -0.66912486158E+00  0.61262450354E+02  0.11021924696E+03  0.91187600000E+02 0.  0.
<mgrwt>
<rscale>  0 0.50224585E+04</rscale>
<asrwt>0</asrwt>
<pdfrwt beam="1">  1        2 0.31504404E+00 0.50224585E+04</pdfrwt>
<pdfrwt beam="2">  1       -2 0.47377783E+00 0.50224585E+04</pdfrwt>
<totfact> 0.11114663E-02</totfact>
</mgrwt>
</event>
<event>
13    1  0.7905926E-014  0.5852199E+04  0.7818608E-02  0.7709002E-01
         -2   -1    0    0    0  501 -0.00000000000E+00  0.00000000000E+00  0.20067579444E+04  0.20067579444E+04  0.00000000000E+00 0.  1.
          2   -1    0    0  501    0  0.00000000000E+00 -0.00000000000E+00 -0.42666117259E+04  0.42666117259E+04  0.00000000000E+00 0. -1.
    9900016    2    1    2    0    0 -0.18423883088E+04 -0.17423478720E+03 -0.15904521860E+04  0.32838189265E+04  0.21975386561E+04 0.  0.
         23    2    3    3    0    0 -0.39925800252E+03 -0.50714128428E+02 -0.17755637680E+04  0.18236310168E+04  0.10499769321E+03 0.  0.
    9900016    2    1    2    0    0  0.17266625617E+04  0.15327109247E+03 -0.62566964777E+03  0.28344392139E+04  0.21535383720E+04 0.  0.
         23    2    5    5    0    0 -0.52862453799E+02 -0.15919827656E+03  0.61390921258E+03  0.64334310958E+03  0.94166369106E+02 0.  0.
        -15    1    6    6    0    0 -0.12374201830E+02 -0.14949468401E+03  0.45611909206E+03  0.48015248365E+03  0.00000000000E+00 0. -1.
        -15    1    4    4    0    0 -0.29328232912E+03  0.64054531027E+01 -0.13400995232E+04  0.13718317267E+04  0.00000000000E+00 0.  1.
         15    1    4    4    0    0 -0.10597567341E+03 -0.57119581531E+02 -0.43546424485E+03  0.45179929005E+03  0.00000000000E+00 0. -1.
         15    1    6    6    0    0 -0.40488251969E+02 -0.97035925517E+01  0.15779012052E+03  0.16319062593E+03  0.00000000000E+00 0.  1.
        -16    1    3    3    0    0 -0.14431303063E+04 -0.12352065877E+03  0.18511158206E+03  0.14601879098E+04  0.00000000000E+00 0.  1.
         16    1    5    5    0    0  0.17795250155E+04  0.31246936903E+03 -0.12395788604E+04  0.21910961044E+04  0.00000000000E+00 0. -1.
    9900018    1    1    2    0    0  0.11572574704E+03  0.20963694735E+02 -0.43731947805E+02  0.15511152980E+03  0.91187600000E+02 0.  0.
<mgrwt>
<rscale>  0 0.58521986E+04</rscale>
<asrwt>0</asrwt>
<pdfrwt beam="1">  1        2 0.65640179E+00 0.58521986E+04</pdfrwt>
<pdfrwt beam="2">  1       -2 0.30873200E+00 0.58521986E+04</pdfrwt>
<totfact> 0.38549277E-03</totfact>
</mgrwt>
</event>
