<event>
13    1  0.9322248E-010  0.4198000E+04  0.7818608E-02  0.7965753E-01
          2   -1    0    0  501    0  0.00000000000E+00  0.00000000000E+00  0.20267031652E+04  0.20267031652E+04  0.00000000000E+00 0. -1.
         -2   -1    0    0    0  501 -0.00000000000E+00 -0.00000000000E+00 -0.21738752998E+04  0.21738752998E+04  0.00000000000E+00 0.  1.
    9900016    2    1    2    0    0 -0.30340262959E+02 -0.94389486180E+01  0.52749306964E+03  0.19954606203E+04  0.19242153007E+04 0.  0.
         24    2    3    3    0    0  0.41639246844E+03  0.58118310628E+03 -0.38837940836E+03  0.81765463417E+03  0.81018795042E+02 0.  0.
    9900016    2    1    2    0    0 -0.54078452640E+02  0.19942592164E+03 -0.58547892800E+03  0.19612101988E+04  0.18603399398E+04 0.  0.
        -24    2    5    5    0    0  0.61907769138E+02 -0.81118653592E+03 -0.75064397204E+02  0.82309186744E+03  0.99946938784E+02 0.  0.
        -15    1    4    4    0    0  0.36256447153E+02  0.64196285505E+02 -0.15017453723E+02  0.75241058931E+02  0.00000000000E+00 0.  1.
        -15    1    5    5    0    0 -0.11598622178E+03  0.10106124576E+04 -0.51041453079E+03  0.11381183314E+04  0.00000000000E+00 0.  1.
         15    1    3    3    0    0 -0.44673273140E+03 -0.59062205490E+03  0.91587247799E+03  0.11778059861E+04  0.00000000000E+00 0. -1.
         15    1    6    6    0    0  0.77195590389E+02 -0.38567904015E+03 -0.51124200814E+02  0.39663732187E+03  0.00000000000E+00 0. -1.
        -16    1    6    6    0    0 -0.15287821251E+02 -0.42550749577E+03 -0.23940196390E+02  0.42645454557E+03  0.00000000000E+00 0.  1.
         16    1    4    4    0    0  0.38013602129E+03  0.51698682077E+03 -0.37336195463E+03  0.74241357524E+03  0.00000000000E+00 0. -1.
    9900018    1    1    2    0    0  0.84418715599E+02 -0.18998697302E+03 -0.89186276152E+02  0.24390764586E+03  0.91187600000E+02 0.  0.
<mgrwt>
<rscale>  0 0.41979995E+04</rscale>
<asrwt>0</asrwt>
<pdfrwt beam="1">  1        2 0.31180049E+00 0.41979995E+04</pdfrwt>
<pdfrwt beam="2">  1       -2 0.33444235E+00 0.41979995E+04</pdfrwt>
<totfact> 0.97626100E-02</totfact>
</mgrwt>
</event>
<event>
12    1  0.9322248E-010  0.4221186E+04  0.7818608E-02  0.7961354E-01
         -1   -1    0    0    0  501 -0.00000000000E+00  0.00000000000E+00  0.24204520741E+04  0.24204520741E+04  0.00000000000E+00 0.  1.
          1   -1    0    0  501    0  0.00000000000E+00 -0.00000000000E+00 -0.18404013277E+04  0.18404013277E+04  0.00000000000E+00 0. -1.
         24    2    1    2    0    0 -0.98906282238E+03  0.77549787124E+03 -0.28979891781E+03  0.12923797979E+04  0.81362855566E+02 0.  0.
    9900016    2    1    2    0    0  0.74374815346E+03 -0.29559875182E+03  0.95800325239E+03  0.22200610001E+04  0.18358542085E+04 0.  0.
        -24    2    4    4    0    0 -0.48597645634E+03 -0.50815974393E+03  0.11748379953E+03  0.71544219722E+03  0.60461995887E+02 0.  0.
        -15    1    3    3    0    0 -0.90218584967E+03  0.69232009553E+03 -0.24032318861E+03  0.11623259685E+04  0.00000000000E+00 0.  1.
        -15    1    4    4    0    0  0.12297246098E+04  0.21256099211E+03  0.84051945286E+03  0.15046188029E+04  0.00000000000E+00 0.  1.
         15    1    5    5    0    0 -0.18501944934E+03 -0.21409605137E+03  0.20952360144E+02  0.28373987602E+03  0.00000000000E+00 0. -1.
         15    1    1    2    0    0  0.29456011801E+03 -0.42319946604E+03  0.10098321238E+03  0.52541513145E+03  0.00000000000E+00 0. -1.
        -16    1    5    5    0    0 -0.30095700700E+03 -0.29406369256E+03  0.96531439391E+02  0.43170232121E+03  0.00000000000E+00 0.  1.
         16    1    3    3    0    0 -0.86876972716E+02  0.83177775717E+02 -0.49475729196E+02  0.13005382940E+03  0.00000000000E+00 0. -1.
    9900018    1    1    2    0    0 -0.49245449079E+02 -0.56699653385E+02 -0.18913680056E+03  0.22299747233E+03  0.91187600000E+02 0.  0.
<mgrwt>
<rscale>  0 0.42211862E+04</rscale>
<asrwt>0</asrwt>
<pdfrwt beam="1">  1        1 0.28313866E+00 0.42211862E+04</pdfrwt>
<pdfrwt beam="2">  1       -1 0.37237724E+00 0.42211862E+04</pdfrwt>
<totfact> 0.32362889E-02</totfact>
</mgrwt>
</event>
<event>
13    1  0.9322248E-010  0.4971048E+04  0.7818608E-02  0.7832989E-01
          1   -1    0    0  501    0  0.00000000000E+00  0.00000000000E+00  0.29212297758E+04  0.29212297758E+04  0.00000000000E+00 0. -1.
         -1   -1    0    0    0  501 -0.00000000000E+00 -0.00000000000E+00 -0.21148047890E+04  0.21148047890E+04  0.00000000000E+00 0.  1.
    9900016    2    1    2    0    0 -0.84721552823E+02 -0.92152088141E+03  0.91030459366E+03  0.21916876166E+04  0.17659166682E+04 0.  0.
         24    2    3    3    0    0  0.14161920297E+03 -0.49428422719E+03 -0.48739310367E+03  0.71272847261E+03  0.77826359758E+02 0.  0.
    9900016    2    1    2    0    0 -0.56364553297E+03  0.76684490438E+03 -0.39097199430E+03  0.21128814649E+04  0.18454434671E+04 0.  0.
        -24    2    5    5    0    0  0.19275179162E+03  0.18199280412E+03  0.64741719616E+03  0.70134294165E+03  0.49580863087E+02 0.  0.
        -15    1    4    4    0    0  0.99279478069E+01 -0.16815354237E+02 -0.43274369447E+02  0.47476218645E+02  0.00000000000E+00 0.  1.
        -15    1    5    5    0    0 -0.75639732459E+03  0.58485210026E+03 -0.10383891905E+04  0.14115385233E+04  0.00000000000E+00 0.  1.
         15    1    3    3    0    0 -0.22634075579E+03 -0.42723665422E+03  0.13976976973E+04  0.14789591440E+04  0.00000000000E+00 0. -1.
         15    1    6    6    0    0  0.15654878881E+03  0.15908535216E+03  0.58002757415E+03  0.62148826161E+03  0.00000000000E+00 0. -1.
        -16    1    6    6    0    0  0.36203002816E+02  0.22907451964E+02  0.67389622016E+02  0.79854680037E+02  0.00000000000E+00 0.  1.
         16    1    4    4    0    0  0.13169125516E+03 -0.47746887295E+03 -0.44411873422E+03  0.66525225397E+03  0.00000000000E+00 0. -1.
    9900018    1    1    2    0    0  0.64836708579E+03  0.15467597703E+03  0.28709238746E+03  0.73146548322E+03  0.91187600000E+02 0.  0.
<mgrwt>
<rscale>  0 0.49710485E+04</rscale>
<asrwt>0</asrwt>
<pdfrwt beam="1">  1        1 0.44941996E+00 0.49710485E+04</pdfrwt>
<pdfrwt beam="2">  1       -1 0.32535458E+00 0.49710485E+04</pdfrwt>
<totfact> 0.11142503E-02</totfact>
</mgrwt>
</event>
<event>
13    1  0.9322248E-010  0.5490994E+04  0.7818608E-02  0.7756930E-01
          1   -1    0    0  501    0  0.00000000000E+00  0.00000000000E+00  0.41276330102E+04  0.41276330102E+04  0.00000000000E+00 0. -1.
         -1   -1    0    0    0  501 -0.00000000000E+00 -0.00000000000E+00 -0.18261683307E+04  0.18261683307E+04  0.00000000000E+00 0.  1.
    9900016    2    1    2    0    0 -0.20811648650E+03 -0.16619397734E+04 -0.19739517140E+02  0.24322148982E+04  0.17634974852E+04 0.  0.
         24    2    3    3    0    0  0.52863307298E+02 -0.12286292679E+04 -0.82375105315E+03  0.14823185897E+04  0.79863611993E+02 0.  0.
    9900016    2    1    2    0    0  0.18178575399E+03  0.12745250662E+04  0.19223351316E+04  0.29574985308E+04  0.18422716946E+04 0.  0.
        -24    2    5    5    0    0 -0.39752803318E+02  0.17206932470E+04  0.12846647087E+04  0.21483205861E+04  0.50521197604E+02 0.  0.
        -15    1    4    4    0    0  0.27669255105E+02 -0.10900844137E+04 -0.74896167456E+03  0.13228730878E+04  0.00000000000E+00 0.  1.
        -15    1    5    5    0    0  0.22153855730E+03 -0.44616818076E+03  0.63767042288E+03  0.80917794465E+03  0.00000000000E+00 0.  1.
         15    1    6    6    0    0 -0.46126744384E+02  0.15759899877E+04  0.11637161394E+04  0.19596191903E+04  0.00000000000E+00 0. -1.
         15    1    3    3    0    0 -0.26097979380E+03 -0.43331050547E+03  0.80401153601E+03  0.94989630853E+03  0.00000000000E+00 0. -1.
        -16    1    6    6    0    0  0.63739410664E+01  0.14470325925E+03  0.12094856929E+03  0.18870139580E+03  0.00000000000E+00 0.  1.
         16    1    4    4    0    0  0.25194052193E+02 -0.13854485429E+03 -0.74789378587E+02  0.15944550187E+03  0.00000000000E+00 0. -1.
    9900018    1    1    2    0    0  0.26330732516E+02  0.38741470718E+03  0.39886906515E+03  0.56408791189E+03  0.91187600000E+02 0.  0.
<mgrwt>
<rscale>  0 0.54909936E+04</rscale>
<asrwt>0</asrwt>
<pdfrwt beam="1">  1        1 0.63502046E+00 0.54909936E+04</pdfrwt>
<pdfrwt beam="2">  1       -1 0.28094898E+00 0.54909936E+04</pdfrwt>
<totfact> 0.22376654E-03</totfact>
</mgrwt>
</event>
<event>
13    1  0.9322248E-010  0.5214551E+04  0.7818608E-02  0.7796237E-01
         -2   -1    0    0    0  501 -0.00000000000E+00  0.00000000000E+00  0.22851160166E+04  0.22851160166E+04  0.00000000000E+00 0.  1.
          2   -1    0    0  501    0  0.00000000000E+00 -0.00000000000E+00 -0.29748540470E+04  0.29748540470E+04  0.00000000000E+00 0. -1.
    9900016    2    1    2    0    0  0.15796488616E+04 -0.59063258005E+03 -0.82662030714E+03  0.25883200075E+04  0.17810002691E+04 0.  0.
        -24    2    3    3    0    0  0.13884972055E+04 -0.22267499260E+03 -0.13291874844E+04  0.19367791343E+04  0.82857736667E+02 0.  0.
    9900016    2    1    2    0    0 -0.12480036583E+04  0.31998353033E+03  0.78738538970E+02  0.22301352528E+04  0.18186261016E+04 0.  0.
         24    2    5    5    0    0 -0.14241544327E+04  0.77725263712E+03  0.36262474906E+03  0.16638177521E+04  0.66747983713E+02 0.  0.
        -15    1    6    6    0    0 -0.79663016461E+03  0.47234587011E+03  0.20886249440E+03  0.94939653557E+03  0.00000000000E+00 0.  1.
        -15    1    3    3    0    0  0.19115165610E+03 -0.36795758745E+03  0.50256717723E+03  0.65154087318E+03  0.00000000000E+00 0.  1.
         15    1    4    4    0    0  0.49268321408E+03 -0.69007518804E+02 -0.41805747874E+03  0.64982370118E+03  0.00000000000E+00 0. -1.
         15    1    5    5    0    0  0.17615077441E+03 -0.45726910679E+03 -0.28388621009E+03  0.56631750073E+03  0.00000000000E+00 0. -1.
        -16    1    4    4    0    0  0.89581399140E+03 -0.15366747379E+03 -0.91113000562E+03  0.12869554331E+04  0.00000000000E+00 0.  1.
         16    1    6    6    0    0 -0.62752426810E+03  0.30490676701E+03  0.15376225466E+03  0.71442121650E+03  0.00000000000E+00 0. -1.
    9900018    1    1    2    0    0 -0.33164520328E+03  0.27064904972E+03  0.58143737769E+02  0.44151480338E+03  0.91187600000E+02 0.  0.
<mgrwt>
<rscale>  0 0.52145514E+04</rscale>
<asrwt>0</asrwt>
<pdfrwt beam="1">  1        2 0.45766985E+00 0.52145514E+04</pdfrwt>
<pdfrwt beam="2">  1       -2 0.35155631E+00 0.52145514E+04</pdfrwt>
<totfact> 0.19649176E-02</totfact>
</mgrwt>
</event>
<event>
11    1  0.9322248E-010  0.3887024E+04  0.7818608E-02  0.8630096E-01
          2   -1    0    0  501    0  0.00000000000E+00  0.00000000000E+00  0.46986134733E+04  0.46986134733E+04  0.00000000000E+00 0. -1.
         -2   -1    0    0    0  501 -0.00000000000E+00 -0.00000000000E+00 -0.10677768301E+04  0.10677768301E+04  0.00000000000E+00 0.  1.
         24    2    1    2    0    0  0.11413649223E+03  0.20365388898E+03  0.11018265761E+04  0.11290583516E+04  0.79050060762E+02 0.  0.
    9900016    2    1    2    0    0  0.10251499375E+04  0.46888309082E+02  0.12892555427E+04  0.24753512487E+04  0.18471743400E+04 0.  0.
        -15    1    3    3    0    0  0.93255383310E+02  0.19168532894E+03  0.10559550368E+04  0.10772561773E+04  0.00000000000E+00 0.  1.
        -15    1    4    4    0    0  0.53234017817E+03 -0.88179124000E+03  0.84893676640E+03  0.13347791913E+04  0.00000000000E+00 0.  1.
         15    1    4    4    0    0  0.18031688598E+03  0.36060419350E+03  0.18799782257E+03  0.44485137409E+03  0.00000000000E+00 0. -1.
         15    1    1    2    0    0 -0.14147899430E+04 -0.32215970809E+03  0.11451595465E+04  0.18484609401E+04  0.00000000000E+00 0. -1.
        -16    1    4    4    0    0  0.31249287331E+03  0.56807535558E+03  0.25232095375E+03  0.69572068331E+03  0.00000000000E+00 0.  1.
         16    1    3    3    0    0  0.20881108917E+02  0.11968560044E+02  0.45871539304E+02  0.51802174252E+02  0.00000000000E+00 0. -1.
    9900018    1    1    2    0    0  0.27550351327E+03  0.71617510020E+02  0.94594977831E+02  0.31351976300E+03  0.91187600000E+02 0.  0.
<mgrwt>
<rscale>  0 0.19505499E+04</rscale>
<asrwt>0</asrwt>
<pdfrwt beam="1">  1        2 0.72286360E+00 0.38870240E+04</pdfrwt>
<pdfrwt beam="2">  1       -2 0.16427336E+00 0.38870240E+04</pdfrwt>
<totfact> 0.13996335E-02</totfact>
</mgrwt>
</event>
<event>
13    1  0.9322248E-010  0.5230590E+04  0.7818608E-02  0.7793889E-01
         -1   -1    0    0    0  501 -0.00000000000E+00  0.00000000000E+00  0.22008066091E+04  0.22008066091E+04  0.00000000000E+00 0.  1.
          1   -1    0    0  501    0  0.00000000000E+00 -0.00000000000E+00 -0.31078456654E+04  0.31078456654E+04  0.00000000000E+00 0. -1.
    9900016    2    1    2    0    0 -0.15048014450E+03 -0.12885786043E+04 -0.17386154281E+04  0.28014876924E+04  0.17727014949E+04 0.  0.
        -24    2    3    3    0    0 -0.52645183284E+03 -0.65711733181E+03 -0.18723721700E+04  0.20545011362E+04  0.79010477501E+02 0.  0.
    9900016    2    1    2    0    0  0.18383978878E+03  0.12835960775E+04  0.83914948990E+03  0.24096442152E+04  0.18495397858E+04 0.  0.
         24    2    5    5    0    0 -0.34381858305E+03  0.13846864357E+04  0.18067751357E+02  0.14284113992E+04  0.66820194376E+02 0.  0.
        -15    1    3    3    0    0  0.37597168834E+03 -0.63146127253E+03  0.13375674186E+03  0.74698655619E+03  0.00000000000E+00 0.  1.
        -15    1    6    6    0    0 -0.14935929152E+03  0.51252736284E+03 -0.17436562904E+02  0.53413156558E+03  0.00000000000E+00 0.  1.
         15    1    5    5    0    0  0.52765837183E+03 -0.10109035818E+03  0.82108173854E+03  0.98123281603E+03  0.00000000000E+00 0. -1.
         15    1    4    4    0    0 -0.34992167270E+03 -0.48306665371E+03 -0.13733636002E+04  0.14973062971E+04  0.00000000000E+00 0. -1.
        -16    1    4    4    0    0 -0.17653016014E+03 -0.17405067811E+03 -0.49900856975E+03  0.55719483906E+03  0.00000000000E+00 0.  1.
         16    1    6    6    0    0 -0.19445929154E+03  0.87215907285E+03  0.35504314261E+02  0.89427983358E+03  0.00000000000E+00 0. -1.
    9900018    1    1    2    0    0 -0.33359644274E+02  0.49825268345E+01 -0.75731180657E+01  0.97520366851E+02  0.91187600000E+02 0.  0.
<mgrwt>
<rscale>  0 0.52305897E+04</rscale>
<asrwt>0</asrwt>
<pdfrwt beam="1">  1        1 0.47813010E+00 0.52305897E+04</pdfrwt>
<pdfrwt beam="2">  1       -1 0.33858563E+00 0.52305897E+04</pdfrwt>
<totfact> 0.65252137E-03</totfact>
</mgrwt>
</event>
