<event>
11    1  0.2059453E-017  0.2864489E+04  0.7818608E-02  0.8283522E-01
          2   -1    0    0  501    0  0.00000000000E+00  0.00000000000E+00  0.14735243746E+04  0.14735243746E+04  0.00000000000E+00 0. -1.
         -2   -1    0    0    0  501 -0.00000000000E+00 -0.00000000000E+00 -0.13921209052E+04  0.13921209052E+04  0.00000000000E+00 0.  1.
    9900016    2    1    2    0    0  0.20268940067E+02  0.17241881928E+03 -0.28643987763E+03  0.78093625209E+03  0.70546052133E+03 0.  0.
         24    2    3    3    0    0  0.17548721141E+03 -0.22687276699E+03 -0.11869889053E+03  0.32086721229E+03  0.81236245211E+02 0.  0.
        -15    1    4    4    0    0  0.10893345556E+02 -0.32825780582E+02 -0.16488073129E+01  0.34625357959E+02  0.00000000000E+00 0.  1.
        -15    1    4    4    0    0  0.24647033179E+02 -0.10629633123E+02 -0.12251821458E+02  0.29505465153E+02  0.00000000000E+00 0.  1.
         15    1    3    3    0    0 -0.15521827135E+03  0.39929158627E+03 -0.16774098710E+03  0.46006903980E+03  0.00000000000E+00 0. -1.
         15    1    4    4    0    0  0.84196654337E+02 -0.14003267646E+03 -0.79410633749E+02  0.18167078970E+03  0.00000000000E+00 0. -1.
        -16    1    4    4    0    0  0.55750178342E+02 -0.43384676826E+02 -0.25387628009E+02  0.75065599474E+02  0.00000000000E+00 0.  1.
         16    1    1    2    0    0 -0.98170551978E+03  0.16117188864E+03  0.37434114173E+03  0.10629456221E+04  0.00000000000E+00 0. -1.
    9900018    1    1    2    0    0  0.96143657971E+03 -0.33359070791E+03 -0.64977947514E+01  0.10217634056E+04  0.91187600000E+02 0.  0.
<mgrwt>
<rscale>  0 0.28644888E+04</rscale>
<asrwt>0</asrwt>
<pdfrwt beam="1">  1        2 0.22669606E+00 0.28644888E+04</pdfrwt>
<pdfrwt beam="2">  1       -2 0.21417245E+00 0.28644888E+04</pdfrwt>
<totfact> 0.12244905E+00</totfact>
</mgrwt>
</event>
<event>
11    1  0.2059453E-017  0.3088666E+04  0.7818608E-02  0.8218855E-01
         -2   -1    0    0    0  501 -0.00000000000E+00  0.00000000000E+00  0.14363041095E+04  0.14363041095E+04  0.00000000000E+00 0.  1.
          2   -1    0    0  501    0  0.00000000000E+00 -0.00000000000E+00 -0.16604867829E+04  0.16604867829E+04  0.00000000000E+00 0. -1.
    9900016    2    1    2    0    0  0.45542397838E+03  0.64245781352E+03  0.48075711963E+03  0.11681727555E+04  0.71647549609E+03 0.  0.
         24    2    3    3    0    0  0.19955954714E+02 -0.60770267127E+02  0.30621001089E+03  0.32281553744E+03  0.79712200730E+02 0.  0.
        -15    1    4    4    0    0  0.96767337238E+01 -0.23053749883E+02  0.89396656276E+02  0.92827133493E+02  0.00000000000E+00 0.  1.
        -15    1    4    4    0    0 -0.21070315157E+02  0.31576488708E+00  0.49777668400E+02  0.54054363003E+02  0.00000000000E+00 0.  1.
         15    1    4    4    0    0  0.27588591096E+02 -0.20633957965E+02  0.13455762169E+03  0.13889796304E+03  0.00000000000E+00 0. -1.
         15    1    3    3    0    0  0.43546802366E+03  0.70322808064E+03  0.17454710874E+03  0.84535721811E+03  0.00000000000E+00 0. -1.
        -16    1    4    4    0    0  0.37609450514E+01 -0.17398324166E+02  0.32478064525E+02  0.37036077908E+02  0.00000000000E+00 0.  1.
         16    1    1    2    0    0  0.42642459118E+03 -0.71738754091E+03 -0.61027413436E+03  0.10338845849E+04  0.00000000000E+00 0. -1.
    9900018    1    1    2    0    0 -0.88184856956E+03  0.74929727389E+02 -0.94665658641E+02  0.89473355196E+03  0.91187600000E+02 0.  0.
<mgrwt>
<rscale>  0 0.30886657E+04</rscale>
<asrwt>0</asrwt>
<pdfrwt beam="1">  1        2 0.25545950E+00 0.30886657E+04</pdfrwt>
<pdfrwt beam="2">  1       -2 0.22096986E+00 0.30886657E+04</pdfrwt>
<totfact> 0.85442531E-01</totfact>
</mgrwt>
</event>
<event>
11    1  0.2059453E-017  0.3264856E+04  0.7818608E-02  0.8171896E-01
         -1   -1    0    0    0  501 -0.00000000000E+00  0.00000000000E+00  0.14349933112E+04  0.14349933112E+04  0.00000000000E+00 0.  1.
          1   -1    0    0  501    0  0.00000000000E+00 -0.00000000000E+00 -0.18570265536E+04  0.18570265536E+04  0.00000000000E+00 0. -1.
    9900016    2    1    2    0    0 -0.82318683745E+03 -0.49896629881E+02  0.69026690305E+03  0.12835583627E+04  0.70066213691E+03 0.  0.
         24    2    3    3    0    0  0.23267676185E+02  0.16386577403E+03  0.23637166196E+03  0.29958656495E+03  0.80542974030E+02 0.  0.
        -15    1    4    4    0    0  0.20027495029E+02  0.93635010291E+02  0.84130646824E+02  0.12746207846E+03  0.00000000000E+00 0.  1.
        -15    1    4    4    0    0 -0.14189031713E+02  0.27833755917E+02  0.70235231274E+02  0.76870243277E+02  0.00000000000E+00 0.  1.
         15    1    4    4    0    0  0.92128713882E+01  0.12055777911E+02  0.15480759626E+02  0.21676547208E+02  0.00000000000E+00 0. -1.
         15    1    3    3    0    0 -0.84645451364E+03 -0.21376240391E+03  0.45389524108E+03  0.98397179780E+03  0.00000000000E+00 0. -1.
        -16    1    4    4    0    0  0.82163414804E+01  0.30341229908E+02  0.66525024240E+02  0.73577696007E+02  0.00000000000E+00 0.  1.
         16    1    1    2    0    0  0.10388683626E+04 -0.13406366449E+03 -0.12899729714E+04  0.16617011789E+04  0.00000000000E+00 0. -1.
    9900018    1    1    2    0    0 -0.21568152515E+03  0.18396029437E+03  0.17767282598E+03  0.34676032311E+03  0.91187600000E+02 0.  0.
<mgrwt>
<rscale>  0 0.32648557E+04</rscale>
<asrwt>0</asrwt>
<pdfrwt beam="1">  1        1 0.28569639E+00 0.32648557E+04</pdfrwt>
<pdfrwt beam="2">  1       -1 0.22076820E+00 0.32648557E+04</pdfrwt>
<totfact> 0.33721112E-01</totfact>
</mgrwt>
</event>
<event>
12    1  0.2059453E-017  0.1557562E+04  0.7818608E-02  0.8847052E-01
          1   -1    0    0  501    0  0.00000000000E+00  0.00000000000E+00  0.77008597503E+03  0.77008597503E+03  0.00000000000E+00 0. -1.
         -1   -1    0    0    0  501 -0.00000000000E+00 -0.00000000000E+00 -0.78757392246E+03  0.78757392246E+03  0.00000000000E+00 0.  1.
    9900016    2    1    2    0    0 -0.10957946577E+03 -0.33978239801E+03  0.17345411622E+03  0.81703893585E+03  0.71414743222E+03 0.  0.
        -24    2    3    3    0    0 -0.17663089110E+03  0.16545010794E+03  0.17151509255E+03  0.30737283091E+03  0.80550731223E+02 0.  0.
         23    2    4    4    0    0 -0.12920984696E+03  0.13225196036E+03  0.12454488288E+03  0.23183910260E+03  0.63656704878E+02 0.  0.
        -15    1    5    5    0    0 -0.78577256090E+02  0.96553570475E+02  0.48132724582E+02  0.13346810976E+03  0.00000000000E+00 0.  1.
        -15    1    3    3    0    0  0.67051425332E+02 -0.50523250596E+03  0.19390236721E+01  0.50966610494E+03  0.00000000000E+00 0.  1.
         15    1    4    4    0    0 -0.11782050294E+02  0.23448255087E+01  0.93125393961E+01  0.15199944269E+02  0.00000000000E+00 0. -1.
         15    1    5    5    0    0 -0.50632590867E+02  0.35698389880E+02  0.76412158300E+02  0.98370992848E+02  0.00000000000E+00 0. -1.
        -16    1    1    2    0    0  0.69787635632E+02  0.37412471340E+03 -0.37136381529E+03  0.53174307571E+03  0.00000000000E+00 0.  1.
         16    1    4    4    0    0 -0.35638993847E+02  0.30853322080E+02  0.37657670272E+02  0.60333784036E+02  0.00000000000E+00 0. -1.
    9900018    1    1    2    0    0  0.39791830134E+02 -0.34342315388E+02  0.18042175163E+03  0.20887788592E+03  0.91187600000E+02 0.  0.
<mgrwt>
<rscale>  0 0.15575617E+04</rscale>
<asrwt>0</asrwt>
<pdfrwt beam="1">  1        1 0.11847477E+00 0.15575617E+04</pdfrwt>
<pdfrwt beam="2">  1       -1 0.12116522E+00 0.15575617E+04</pdfrwt>
<totfact> 0.13680451E+01</totfact>
</mgrwt>
</event>
<event>
11    1  0.2059453E-017  0.1947135E+04  0.7818608E-02  0.8631743E-01
         -2   -1    0    0    0  501 -0.00000000000E+00  0.00000000000E+00  0.37121113029E+03  0.37121113029E+03  0.00000000000E+00 0.  1.
          2   -1    0    0  501    0  0.00000000000E+00 -0.00000000000E+00 -0.25533553794E+04  0.25533553794E+04  0.00000000000E+00 0. -1.
    9900016    2    1    2    0    0 -0.49188467071E+03 -0.75634353624E+02 -0.18611218574E+04  0.20502148857E+04  0.70138108381E+03 0.  0.
        -24    2    3    3    0    0 -0.66588632683E+02  0.27795728657E+03 -0.50738337988E+03  0.58784980354E+03  0.80219687049E+02 0.  0.
        -15    1    4    4    0    0  0.46576769483E+01  0.33221294063E+02 -0.35253844156E+02  0.48663968823E+02  0.00000000000E+00 0.  1.
        -15    1    3    3    0    0 -0.42529603803E+03 -0.35359164020E+03 -0.13537384776E+04  0.14623650822E+04  0.00000000000E+00 0.  1.
         15    1    4    4    0    0 -0.18076823826E+02  0.23220035630E+02 -0.34193021920E+02  0.45112130988E+02  0.00000000000E+00 0. -1.
         15    1    4    4    0    0 -0.21800333939E+02  0.12205520670E+03 -0.22219302096E+03  0.25444540987E+03  0.00000000000E+00 0. -1.
        -16    1    1    2    0    0  0.24881048618E+03  0.32456084892E+03 -0.27095339987E+02  0.40985431574E+03  0.00000000000E+00 0.  1.
         16    1    4    4    0    0 -0.31369151867E+02  0.99460750186E+02 -0.21574349284E+03  0.23962829386E+03  0.00000000000E+00 0. -1.
    9900018    1    1    2    0    0  0.24307418453E+03 -0.24892649529E+03 -0.29392705172E+03  0.46449730825E+03  0.91187600000E+02 0.  0.
<mgrwt>
<rscale>  0 0.19471353E+04</rscale>
<asrwt>0</asrwt>
<pdfrwt beam="1">  1        2 0.39282391E+00 0.19471353E+04</pdfrwt>
<pdfrwt beam="2">  1       -2 0.57109404E-01 0.19471353E+04</pdfrwt>
<totfact> 0.86974455E+00</totfact>
</mgrwt>
</event>
<event>
11    1  0.2059453E-017  0.1248240E+04  0.7818608E-02  0.9071649E-01
          2   -1    0    0  501    0  0.00000000000E+00  0.00000000000E+00  0.53418865676E+03  0.53418865676E+03  0.00000000000E+00 0. -1.
         -2   -1    0    0    0  501 -0.00000000000E+00 -0.00000000000E+00 -0.72919133908E+03  0.72919133908E+03  0.00000000000E+00 0.  1.
    9900016    2    1    2    0    0  0.12973345901E+03 -0.73175476968E+02 -0.11994105250E+02  0.71158158812E+03  0.69571479586E+03 0.  0.
         24    2    3    3    0    0 -0.19637740573E+03  0.14105742564E+03  0.14274358514E+03  0.29183430047E+03  0.79562836961E+02 0.  0.
        -15    1    4    4    0    0 -0.47873622459E+02  0.51926817365E+02  0.44462978212E+02  0.83457980568E+02  0.00000000000E+00 0.  1.
        -15    1    4    4    0    0 -0.80804841414E+02  0.32029995676E+02  0.50709903335E+02  0.10063218827E+03  0.00000000000E+00 0.  1.
         15    1    3    3    0    0  0.32611086474E+03 -0.21423290261E+03 -0.15473769039E+03  0.41974728765E+03  0.00000000000E+00 0. -1.
         15    1    4    4    0    0 -0.22414987659E+02  0.14790600731E+02  0.35651586147E+02  0.44634394099E+02  0.00000000000E+00 0. -1.
        -16    1    4    4    0    0 -0.45283954198E+02  0.42310011867E+02  0.11919117449E+02  0.63109737543E+02  0.00000000000E+00 0.  1.
         16    1    1    2    0    0  0.32979043101E+02 -0.18050751684E+03  0.77309961537E+01  0.18365824028E+03  0.00000000000E+00 0. -1.
    9900018    1    1    2    0    0 -0.16271250211E+03  0.25368299381E+03 -0.19073957322E+03  0.36814016743E+03  0.91187600000E+02 0.  0.
<mgrwt>
<rscale>  0 0.12482399E+04</rscale>
<asrwt>0</asrwt>
<pdfrwt beam="1">  1        2 0.82182870E-01 0.12482399E+04</pdfrwt>
<pdfrwt beam="2">  1       -2 0.11218328E+00 0.12482399E+04</pdfrwt>
<totfact> 0.35108786E+01</totfact>
</mgrwt>
</event>
<event>
11    1  0.2059453E-017  0.1610623E+04  0.7818608E-02  0.8814049E-01
          1   -1    0    0  501    0  0.00000000000E+00  0.00000000000E+00  0.70255654466E+03  0.70255654466E+03  0.00000000000E+00 0. -1.
         -1   -1    0    0    0  501 -0.00000000000E+00 -0.00000000000E+00 -0.92309486992E+03  0.92309486992E+03  0.00000000000E+00 0.  1.
    9900016    2    1    2    0    0  0.40657483275E+03 -0.21104540110E+03 -0.32831239323E+03  0.91053405831E+03  0.71515032534E+03 0.  0.
         24    2    3    3    0    0 -0.49251282662E+02  0.14891730349E+03  0.86696401726E+02  0.19668330635E+03  0.81030887945E+02 0.  0.
        -15    1    4    4    0    0 -0.71788091717E+01  0.26273504920E+02  0.37367433873E+02  0.46240214923E+02  0.00000000000E+00 0.  1.
        -15    1    4    4    0    0 -0.63998575865E+01  0.80416219833E+02  0.18164215994E+02  0.82690176756E+02  0.00000000000E+00 0.  1.
         15    1    4    4    0    0 -0.33728777918E+02  0.40153282207E+02  0.19824552814E+02  0.56061835736E+02  0.00000000000E+00 0. -1.
         15    1    3    3    0    0  0.45582611541E+03 -0.35996270459E+03 -0.41500879496E+03  0.71385075196E+03  0.00000000000E+00 0. -1.
        -16    1    4    4    0    0 -0.19438379864E+01  0.20742965297E+01  0.11340199045E+02  0.11691078932E+02  0.00000000000E+00 0.  1.
         16    1    1    2    0    0 -0.41934715042E+02  0.31235259160E+03  0.78207395550E+02  0.32471381018E+03  0.00000000000E+00 0. -1.
    9900018    1    1    2    0    0 -0.36464011770E+03 -0.10130719050E+03  0.29566672413E+02  0.39040354609E+03  0.91187600000E+02 0.  0.
<mgrwt>
<rscale>  0 0.16106227E+04</rscale>
<asrwt>0</asrwt>
<pdfrwt beam="1">  1        1 0.10808562E+00 0.16106227E+04</pdfrwt>
<pdfrwt beam="2">  1       -1 0.14201460E+00 0.16106227E+04</pdfrwt>
<totfact> 0.10487576E+01</totfact>
</mgrwt>
</event>
<event>
11    1  0.2059453E-017  0.2360557E+04  0.7818608E-02  0.8454420E-01
          1   -1    0    0  501    0  0.00000000000E+00  0.00000000000E+00  0.17608365938E+04  0.17608365938E+04  0.00000000000E+00 0. -1.
         -1   -1    0    0    0  501 -0.00000000000E+00 -0.00000000000E+00 -0.79113363898E+03  0.79113363898E+03  0.00000000000E+00 0.  1.
    9900016    2    1    2    0    0 -0.29220452715E+02  0.45438939874E+03 -0.33252595539E+03  0.90133693516E+03  0.70321490253E+03 0.  0.
         24    2    3    3    0    0  0.13757915234E+03  0.18447384915E+03  0.17708782702E+03  0.30101808707E+03  0.79329478012E+02 0.  0.
        -15    1    4    4    0    0  0.16551554591E+02  0.36618659402E+01  0.20922659791E+02  0.26928069263E+02  0.00000000000E+00 0.  1.
        -15    1    4    4    0    0  0.19027342614E+02  0.55148902452E+02  0.37318533209E+02  0.69253982770E+02  0.00000000000E+00 0.  1.
         15    1    4    4    0    0  0.74468435355E+02  0.61467482013E+02  0.61719086206E+02  0.11459949743E+03  0.00000000000E+00 0. -1.
         15    1    3    3    0    0 -0.16679960506E+03  0.26991554959E+03 -0.50961378241E+03  0.60031884810E+03  0.00000000000E+00 0. -1.
        -16    1    4    4    0    0  0.27531819781E+02  0.64195598744E+02  0.57127547817E+02  0.90236537601E+02  0.00000000000E+00 0.  1.
         16    1    1    2    0    0  0.44978811678E+03 -0.22276930313E+03  0.83656460289E+03  0.97558999956E+03  0.00000000000E+00 0. -1.
    9900018    1    1    2    0    0 -0.42056766407E+03 -0.23162009561E+03  0.46566430728E+03  0.67504329803E+03  0.91187600000E+02 0.  0.
<mgrwt>
<rscale>  0 0.23605568E+04</rscale>
<asrwt>0</asrwt>
<pdfrwt beam="1">  1        1 0.27089794E+00 0.23605568E+04</pdfrwt>
<pdfrwt beam="2">  1       -1 0.12171287E+00 0.23605568E+04</pdfrwt>
<totfact> 0.23285393E+00</totfact>
</mgrwt>
</event>
<event>
11    1  0.2059453E-017  0.1629167E+04  0.7818608E-02  0.8802828E-01
         -1   -1    0    0    0  501 -0.00000000000E+00  0.00000000000E+00  0.41067338281E+03  0.41067338281E+03  0.00000000000E+00 0.  1.
          1   -1    0    0  501    0  0.00000000000E+00 -0.00000000000E+00 -0.16157508642E+04  0.16157508642E+04  0.00000000000E+00 0. -1.
    9900016    2    1    2    0    0  0.34665730791E+03  0.15217235534E+03 -0.11752345005E+04  0.14255180182E+04  0.71245896318E+03 0.  0.
        -24    2    3    3    0    0 -0.34619506389E+01  0.23172736286E+03 -0.58505546653E+02  0.25248943765E+03  0.81353926373E+02 0.  0.
        -15    1    4    4    0    0  0.77207530077E+01  0.15762695309E+03 -0.46770666920E+02  0.16460061255E+03  0.00000000000E+00 0.  1.
        -15    1    3    3    0    0  0.35011925855E+03 -0.79555007519E+02 -0.11167289539E+04  0.11730285806E+04  0.00000000000E+00 0.  1.
         15    1    4    4    0    0  0.13574578342E+02  0.25715996961E+02 -0.70364437355E+00  0.29087399201E+02  0.00000000000E+00 0. -1.
         15    1    4    4    0    0 -0.73521991954E+01  0.24182274670E+02 -0.13913385223E+02  0.28851681573E+02  0.00000000000E+00 0. -1.
        -16    1    1    2    0    0 -0.40811190652E+03 -0.20024455298E+03  0.49134911234E+02  0.45723894054E+03  0.00000000000E+00 0.  1.
         16    1    4    4    0    0 -0.17405082793E+02  0.24202138140E+02  0.28821498641E+01  0.29949744330E+02  0.00000000000E+00 0. -1.
    9900018    1    1    2    0    0  0.61454598607E+02  0.48072197639E+02 -0.78977892105E+02  0.14366728824E+03  0.91187600000E+02 0.  0.
<mgrwt>
<rscale>  0 0.16291665E+04</rscale>
<asrwt>0</asrwt>
<pdfrwt beam="1">  1        1 0.24857706E+00 0.16291665E+04</pdfrwt>
<pdfrwt beam="2">  1       -1 0.63180520E-01 0.16291665E+04</pdfrwt>
<totfact> 0.13237447E+01</totfact>
</mgrwt>
</event>
<event>
11    1  0.2059453E-017  0.1833877E+04  0.7818608E-02  0.8688489E-01
          2   -1    0    0  501    0  0.00000000000E+00  0.00000000000E+00  0.13256876320E+04  0.13256876320E+04  0.00000000000E+00 0. -1.
         -2   -1    0    0    0  501 -0.00000000000E+00 -0.00000000000E+00 -0.63421895244E+03  0.63421895244E+03  0.00000000000E+00 0.  1.
    9900016    2    1    2    0    0  0.18056191461E+02 -0.38866254649E+03  0.74917252455E+02  0.80814248812E+03  0.70434159702E+03 0.  0.
         24    2    3    3    0    0 -0.59720924155E+02  0.14921812844E+03 -0.13610780859E+03  0.22513607600E+03  0.79550477820E+02 0.  0.
        -15    1    4    4    0    0 -0.14801982350E+02  0.35099295197E+02 -0.14470255425E+02  0.40748588895E+02  0.00000000000E+00 0.  1.
        -15    1    4    4    0    0 -0.16445417546E+02  0.33299230582E+02 -0.46147352742E+02  0.59235704442E+02  0.00000000000E+00 0.  1.
         15    1    3    3    0    0  0.77777115616E+02 -0.53788067493E+03  0.21102506104E+03  0.58300641211E+03  0.00000000000E+00 0. -1.
         15    1    4    4    0    0  0.13635004776E+02  0.84210694376E+01 -0.10823323594E+02  0.19338358238E+02  0.00000000000E+00 0. -1.
        -16    1    4    4    0    0 -0.42108529036E+02  0.72398533226E+02 -0.64666876829E+02  0.10581342443E+03  0.00000000000E+00 0.  1.
         16    1    1    2    0    0 -0.14139302815E+03  0.31143294682E+03  0.81825205442E+03  0.88685900420E+03  0.00000000000E+00 0. -1.
    9900018    1    1    2    0    0  0.12333683669E+03  0.77229599669E+02 -0.20170062734E+03  0.26490509209E+03  0.91187600000E+02 0.  0.
<mgrwt>
<rscale>  0 0.18338770E+04</rscale>
<asrwt>0</asrwt>
<pdfrwt beam="1">  1        2 0.20395194E+00 0.18338770E+04</pdfrwt>
<pdfrwt beam="2">  1       -2 0.97572146E-01 0.18338770E+04</pdfrwt>
<totfact> 0.13165430E+01</totfact>
</mgrwt>
</event>
<event>
11    1  0.2059453E-017  0.1715973E+04  0.7818608E-02  0.8752306E-01
          2   -1    0    0  501    0  0.00000000000E+00  0.00000000000E+00  0.97237999073E+03  0.97237999073E+03  0.00000000000E+00 0. -1.
         -2   -1    0    0    0  501 -0.00000000000E+00 -0.00000000000E+00 -0.75705077027E+03  0.75705077027E+03  0.00000000000E+00 0.  1.
    9900016    2    1    2    0    0 -0.19064275899E+03  0.53057153116E+02  0.17902140043E+03  0.75432127498E+03  0.70554390439E+03 0.  0.
        -24    2    3    3    0    0 -0.83002645719E+02  0.11872453168E+03 -0.25423757881E+03  0.30308747562E+03  0.78995682015E+02 0.  0.
        -15    1    3    3    0    0 -0.10764011327E+03 -0.65667378561E+02  0.43325897924E+03  0.45123379936E+03  0.00000000000E+00 0.  1.
        -15    1    4    4    0    0 -0.38097555725E+02  0.15998510031E+02 -0.77385695295E+02  0.87726403732E+02  0.00000000000E+00 0.  1.
         15    1    4    4    0    0 -0.16818914388E+02  0.43808445996E+02 -0.36754140347E+02  0.59606397764E+02  0.00000000000E+00 0. -1.
         15    1    4    4    0    0 -0.24166321742E+02  0.28673763841E+02 -0.73896494305E+02  0.82866686370E+02  0.00000000000E+00 0. -1.
        -16    1    1    2    0    0  0.31586401687E+02 -0.49272219446E+03  0.64428479045E+02  0.49791956237E+03  0.00000000000E+00 0.  1.
         16    1    4    4    0    0 -0.39198538636E+01  0.30243811810E+02 -0.66201248864E+02  0.72887987751E+02  0.00000000000E+00 0. -1.
    9900018    1    1    2    0    0  0.15905635731E+03  0.43966504134E+03 -0.28120659008E+02  0.47718992365E+03  0.91187600000E+02 0.  0.
<mgrwt>
<rscale>  0 0.17159732E+04</rscale>
<asrwt>0</asrwt>
<pdfrwt beam="1">  1        2 0.14959692E+00 0.17159732E+04</pdfrwt>
<pdfrwt beam="2">  1       -2 0.11646935E+00 0.17159732E+04</pdfrwt>
<totfact> 0.14259887E+01</totfact>
</mgrwt>
</event>
<event>
11    1  0.2116251E-017  0.1789700E+04  0.7818608E-02  0.8711796E-01
          2   -1    0    0  501    0  0.00000000000E+00  0.00000000000E+00  0.73084867094E+03  0.73084867094E+03  0.00000000000E+00 0. -1.
         -2   -1    0    0    0  501 -0.00000000000E+00 -0.00000000000E+00 -0.10956533854E+04  0.10956533854E+04  0.00000000000E+00 0.  1.
    9900016    2    1    2    0    0  0.27724753941E+03  0.22296266576E+03 -0.18554982525E+03  0.83398924864E+03  0.73111611989E+03 0.  0.
         24    2    3    3    0    0 -0.60258474688E+02 -0.19349595108E+03 -0.20339400008E+03  0.29764374091E+03  0.78427739855E+02 0.  0.
        -15    1    4    4    0    0 -0.10046581092E+02 -0.29180379810E+02 -0.85074544945E+01  0.32012577832E+02  0.00000000000E+00 0.  1.
        -15    1    4    4    0    0 -0.19501915114E+02 -0.48269402545E+02 -0.68569288744E+02  0.86093015245E+02  0.00000000000E+00 0.  1.
         15    1    4    4    0    0 -0.30301284031E+02 -0.34491664358E+02 -0.41822281604E+02  0.62104315170E+02  0.00000000000E+00 0. -1.
         15    1    3    3    0    0  0.33750601410E+03  0.41645861684E+03  0.17844174828E+02  0.53634550773E+03  0.00000000000E+00 0. -1.
        -16    1    4    4    0    0 -0.40869445029E+00 -0.81554504364E+02 -0.84494975236E+02  0.11743383266E+03  0.00000000000E+00 0.  1.
         16    1    1    2    0    0 -0.39523927027E+02  0.32096078535E+03  0.88030966871E+02  0.33515282734E+03  0.00000000000E+00 0. -1.
    9900018    1    1    2    0    0 -0.23772361239E+03 -0.54392345111E+03 -0.26728585612E+03  0.65735998040E+03  0.91187600000E+02 0.  0.
<mgrwt>
<rscale>  0 0.17897003E+04</rscale>
<asrwt>0</asrwt>
<pdfrwt beam="1">  1        2 0.11243826E+00 0.17897003E+04</pdfrwt>
<pdfrwt beam="2">  1       -2 0.16856206E+00 0.17897003E+04</pdfrwt>
<totfact> 0.79903640E+00</totfact>
</mgrwt>
</event>
<event>
11    1  0.2059453E-017  0.1658057E+04  0.7818608E-02  0.8785654E-01
          1   -1    0    0  501    0  0.00000000000E+00  0.00000000000E+00  0.17638601240E+04  0.17638601240E+04  0.00000000000E+00 0. -1.
         -1   -1    0    0    0  501 -0.00000000000E+00 -0.00000000000E+00 -0.38964993990E+03  0.38964993990E+03  0.00000000000E+00 0.  1.
    9900016    2    1    2    0    0 -0.58569641731E+03  0.59666499451E+02  0.97063064685E+03  0.13377586705E+04  0.70772453926E+03 0.  0.
        -24    2    3    3    0    0 -0.22291182898E+03  0.19351858193E+03  0.89213528292E+03  0.94318223978E+03  0.80921253996E+02 0.  0.
        -15    1    4    4    0    0 -0.48016200680E+02  0.82703288367E+02  0.27761734527E+03  0.29362693989E+03  0.00000000000E+00 0.  1.
        -15    1    3    3    0    0 -0.36278458833E+03 -0.13385208248E+03  0.78495363925E+02  0.39457643071E+03  0.00000000000E+00 0.  1.
         15    1    4    4    0    0 -0.98825975180E+02  0.59996232155E+02  0.34947859581E+03  0.36810516184E+03  0.00000000000E+00 0. -1.
         15    1    4    4    0    0 -0.23774196110E+02  0.22788992880E+02  0.66076013114E+02  0.73828111897E+02  0.00000000000E+00 0. -1.
        -16    1    1    2    0    0  0.12765250189E+03 -0.18545507253E+03  0.12160795661E+03  0.25588520918E+03  0.00000000000E+00 0.  1.
         16    1    4    4    0    0 -0.52295457006E+02  0.28030068531E+02  0.19896332873E+03  0.20762202615E+03  0.00000000000E+00 0. -1.
    9900018    1    1    2    0    0  0.45804391542E+03  0.12578857308E+03  0.28197158066E+03  0.55986618424E+03  0.91187600000E+02 0.  0.
<mgrwt>
<rscale>  0 0.16580567E+04</rscale>
<asrwt>0</asrwt>
<pdfrwt beam="1">  1        1 0.27136309E+00 0.16580567E+04</pdfrwt>
<pdfrwt beam="2">  1       -1 0.59946146E-01 0.16580567E+04</pdfrwt>
<totfact> 0.11617090E+01</totfact>
</mgrwt>
</event>
<event>
11    1  0.2059453E-017  0.1500000E+04  0.7818608E-02  0.8884453E-01
          2   -1    0    0  501    0  0.00000000000E+00  0.00000000000E+00  0.18792278804E+04  0.18792278804E+04  0.00000000000E+00 0.  1.
         -2   -1    0    0    0  501 -0.00000000000E+00 -0.00000000000E+00 -0.29932501580E+03  0.29932501580E+03  0.00000000000E+00 0. -1.
    9900016    2    1    2    0    0  0.46250076337E+03  0.14249820216E+03  0.10702377375E+04  0.13778998704E+04  0.72040720726E+03 0.  0.
        -24    2    3    3    0    0 -0.92410377516E+02 -0.12770331946E+03  0.47152138197E+02  0.18306122852E+03  0.80251315111E+02 0.  0.
        -15    1    4    4    0    0 -0.22737871203E+02 -0.53863756973E+02  0.26894604648E+01  0.58528183807E+02  0.00000000000E+00 0.  1.
        -15    1    3    3    0    0  0.55491114089E+03  0.27020152162E+03  0.10230855993E+04  0.11948386418E+04  0.00000000000E+00 0.  1.
         15    1    4    4    0    0 -0.25943925482E+02 -0.31013249628E+01  0.26184396468E+01  0.26259507080E+02  0.00000000000E+00 0. -1.
         15    1    4    4    0    0 -0.85719211542E+01 -0.43743887739E+02  0.19957971239E+02  0.48839801011E+02  0.00000000000E+00 0. -1.
        -16    1    1    2    0    0 -0.26596347536E+03  0.50575554203E+02  0.80254857599E+02  0.28237439523E+03  0.00000000000E+00 0.  1.
         16    1    4    4    0    0 -0.35156659678E+02 -0.26994349786E+02  0.21886266846E+02  0.49433736624E+02  0.00000000000E+00 0. -1.
    9900018    1    1    2    0    0 -0.19653728801E+03 -0.19307375637E+03  0.42941026948E+03  0.51827863057E+03  0.91187600000E+02 0.  0.
<mgrwt>
<rscale>  0 0.14999999E+04</rscale>
<asrwt>0</asrwt>
<pdfrwt beam="1">  1        2 0.28911197E+00 0.14999999E+04</pdfrwt>
<pdfrwt beam="2">  1       -2 0.46050004E-01 0.14999999E+04</pdfrwt>
<totfact> 0.33690931E+01</totfact>
</mgrwt>
</event>
<event>
11    1  0.2059453E-017  0.1218910E+04  0.7818608E-02  0.9096464E-01
          2   -1    0    0  501    0  0.00000000000E+00  0.00000000000E+00  0.17340515367E+04  0.17340515367E+04  0.00000000000E+00 0. -1.
         -2   -1    0    0    0  501 -0.00000000000E+00 -0.00000000000E+00 -0.21420089886E+03  0.21420089886E+03  0.00000000000E+00 0.  1.
    9900016    2    1    2    0    0  0.16921921328E+03 -0.10637908990E+03  0.79203772362E+03  0.10795863582E+04  0.70585501075E+03 0.  0.
        -24    2    3    3    0    0 -0.42372070602E+02  0.19022393917E+03  0.34295827824E+01  0.21088213459E+03  0.80492069501E+02 0.  0.
        -15    1    3    3    0    0  0.21159128388E+03 -0.29660302907E+03  0.78860814083E+03  0.86870422358E+03  0.00000000000E+00 0.  1.
        -15    1    4    4    0    0 -0.34255434158E+02  0.40292339232E+02  0.70184995985E+01  0.53349477099E+02  0.00000000000E+00 0.  1.
         15    1    4    4    0    0 -0.55655544712E+01  0.11218264718E+03 -0.66145060679E+01  0.11251521415E+03  0.00000000000E+00 0. -1.
         15    1    4    4    0    0 -0.10113198251E+02  0.15172886486E+02 -0.65217769137E+01  0.19365609655E+02  0.00000000000E+00 0. -1.
        -16    1    1    2    0    0  0.87002413291E+02 -0.10018352133E+03  0.20368990221E+03  0.24309614173E+03  0.00000000000E+00 0.  1.
         16    1    4    4    0    0  0.75621162793E+01  0.22576066270E+02  0.95473661655E+01  0.25651833688E+02  0.00000000000E+00 0. -1.
    9900018    1    1    2    0    0 -0.25622162657E+03  0.20656261124E+03  0.52412301205E+03  0.62556993569E+03  0.91187600000E+02 0.  0.
<mgrwt>
<rscale>  0 0.12189100E+04</rscale>
<asrwt>0</asrwt>
<pdfrwt beam="1">  1        2 0.26677715E+00 0.12189100E+04</pdfrwt>
<pdfrwt beam="2">  1       -2 0.32953986E-01 0.12189100E+04</pdfrwt>
<totfact> 0.79501179E+01</totfact>
</mgrwt>
</event>
<event>
11    1  0.2059453E-017  0.1434371E+04  0.7818608E-02  0.8929308E-01
          2   -1    0    0  501    0  0.00000000000E+00  0.00000000000E+00  0.12315962461E+04  0.12315962461E+04  0.00000000000E+00 0. -1.
         -2   -1    0    0    0  501 -0.00000000000E+00 -0.00000000000E+00 -0.41763275479E+03  0.41763275479E+03  0.00000000000E+00 0.  1.
    9900016    2    1    2    0    0  0.18615711672E+03  0.15290638990E+03  0.49122581311E+03  0.90094739435E+03  0.71579925380E+03 0.  0.
        -24    2    3    3    0    0  0.56741147360E+02 -0.28085254476E+03  0.14436073903E+03  0.33067492777E+03  0.80051078562E+02 0.  0.
        -15    1    3    3    0    0  0.12941596936E+03  0.43375893466E+03  0.34686507408E+03  0.57027246658E+03  0.00000000000E+00 0.  1.
        -15    1    4    4    0    0  0.56648076912E+02 -0.16356208696E+03  0.10185953071E+03  0.20084054597E+03  0.00000000000E+00 0.  1.
         15    1    4    4    0    0 -0.81783358286E+00 -0.50363916250E+02  0.17055822457E+02  0.53179826923E+02  0.00000000000E+00 0. -1.
         15    1    4    4    0    0  0.11612116386E+02 -0.28295245772E+02  0.30507478122E+01  0.30737098797E+02  0.00000000000E+00 0. -1.
        -16    1    1    2    0    0 -0.28441005765E+02  0.23594018709E+03  0.17130557605E+03  0.29295437030E+03  0.00000000000E+00 0.  1.
         16    1    4    4    0    0 -0.10701212355E+02 -0.38631295785E+02  0.22394638046E+02  0.45917456083E+02  0.00000000000E+00 0. -1.
    9900018    1    1    2    0    0 -0.15771611095E+03 -0.38884657699E+03  0.15143210213E+03  0.45532723622E+03  0.91187600000E+02 0.  0.
<mgrwt>
<rscale>  0 0.14343708E+04</rscale>
<asrwt>0</asrwt>
<pdfrwt beam="1">  1        2 0.18947634E+00 0.14343708E+04</pdfrwt>
<pdfrwt beam="2">  1       -2 0.64251194E-01 0.14343708E+04</pdfrwt>
<totfact> 0.39413742E+01</totfact>
</mgrwt>
</event>
<event>
11    1  0.2059453E-017  0.1915705E+04  0.7818608E-02  0.8647078E-01
          1   -1    0    0  501    0  0.00000000000E+00  0.00000000000E+00  0.10592937148E+04  0.10592937148E+04  0.00000000000E+00 0. -1.
         -1   -1    0    0    0  501 -0.00000000000E+00 -0.00000000000E+00 -0.86612529184E+03  0.86612529184E+03  0.00000000000E+00 0.  1.
    9900016    2    1    2    0    0  0.27138221580E+03  0.52033043805E+03  0.61549873867E+03  0.11088379192E+04  0.71154111754E+03 0.  0.
        -24    2    3    3    0    0  0.51540856637E+02  0.27684819179E+02 -0.14611525104E+03  0.17551814639E+03  0.77679109220E+02 0.  0.
        -15    1    4    4    0    0  0.69717083733E+01 -0.12743833816E+02 -0.21502529393E+02  0.25949350440E+02  0.00000000000E+00 0.  1.
        -15    1    3    3    0    0  0.21984135916E+03  0.49264561887E+03  0.76161398972E+03  0.93331977281E+03  0.00000000000E+00 0.  1.
         15    1    4    4    0    0  0.90951372909E+01  0.55755508148E+01 -0.60322446318E+02  0.61258516298E+02  0.00000000000E+00 0. -1.
         15    1    4    4    0    0  0.18085992721E+02  0.11396857875E+02 -0.46078234357E+01  0.21868322728E+02  0.00000000000E+00 0. -1.
        -16    1    1    2    0    0 -0.66824506396E+02 -0.41607687715E+03 -0.37697003627E+03  0.56541302656E+03  0.00000000000E+00 0.  1.
         16    1    4    4    0    0  0.17388018252E+02  0.23456244305E+02 -0.59682451897E+02  0.66441956926E+02  0.00000000000E+00 0. -1.
    9900018    1    1    2    0    0 -0.20455770940E+03 -0.10425356090E+03 -0.45360279479E+02  0.25116806084E+03  0.91187600000E+02 0.  0.
<mgrwt>
<rscale>  0 0.19157047E+04</rscale>
<asrwt>0</asrwt>
<pdfrwt beam="1">  1        1 0.16296826E+00 0.19157047E+04</pdfrwt>
<pdfrwt beam="2">  1       -1 0.13325005E+00 0.19157047E+04</pdfrwt>
<totfact> 0.60594520E+00</totfact>
</mgrwt>
</event>
<event>
11    1  0.2059453E-017  0.1009991E+04  0.7818608E-02  0.9297654E-01
         -1   -1    0    0    0  501 -0.00000000000E+00  0.00000000000E+00  0.51964255546E+03  0.51964255546E+03  0.00000000000E+00 0.  1.
          1   -1    0    0  501    0  0.00000000000E+00 -0.00000000000E+00 -0.49076125270E+03  0.49076125270E+03  0.00000000000E+00 0. -1.
    9900016    2    1    2    0    0  0.75187280020E+02  0.58376105140E+02  0.56318583250E+02  0.72627118073E+03  0.71780021483E+03 0.  0.
        -24    2    3    3    0    0  0.78207333105E+02 -0.39256839410E+02  0.37470809399E+03  0.39323485668E+03  0.81055600772E+02 0.  0.
        -15    1    3    3    0    0 -0.30200530844E+01  0.97632944550E+02 -0.31838951074E+03  0.33303632404E+03  0.00000000000E+00 0.  1.
        -15    1    4    4    0    0  0.31373851126E+02 -0.20578966599E+02  0.10239221799E+03  0.10905034941E+03  0.00000000000E+00 0.  1.
         15    1    4    4    0    0  0.19350219914E+02 -0.11737998208E+01  0.87221880570E+02  0.89350239322E+02  0.00000000000E+00 0. -1.
         15    1    4    4    0    0  0.26041580944E+02 -0.34148686448E+02  0.14891964018E+03  0.15498824457E+03  0.00000000000E+00 0. -1.
        -16    1    1    2    0    0 -0.14612979415E+03 -0.75550397157E+02 -0.16314071187E+01  0.16451273732E+03  0.00000000000E+00 0.  1.
         16    1    4    4    0    0  0.14416811204E+01  0.16644613457E+02  0.36174355252E+02  0.39846023384E+02  0.00000000000E+00 0. -1.
    9900018    1    1    2    0    0  0.70942514134E+02  0.17174292017E+02 -0.25805873372E+02  0.11961989012E+03  0.91187600000E+02 0.  0.
<mgrwt>
<rscale>  0 0.10099910E+04</rscale>
<asrwt>0</asrwt>
<pdfrwt beam="1">  1        1 0.75501731E-01 0.10099910E+04</pdfrwt>
<pdfrwt beam="2">  1       -1 0.79945008E-01 0.10099910E+04</pdfrwt>
<totfact> 0.71234021E+01</totfact>
</mgrwt>
</event>
<event>
11    1  0.2059453E-017  0.2045024E+04  0.7818608E-02  0.8585855E-01
         -2   -1    0    0    0  501 -0.00000000000E+00  0.00000000000E+00  0.10076609870E+04  0.10076609870E+04  0.00000000000E+00 0.  1.
          2   -1    0    0  501    0  0.00000000000E+00 -0.00000000000E+00 -0.10375814762E+04  0.10375814762E+04  0.00000000000E+00 0. -1.
    9900016    2    1    2    0    0 -0.20391503835E+02 -0.14120773090E+03 -0.26404181508E+03  0.77435764076E+03  0.71383208039E+03 0.  0.
        -24    2    3    3    0    0 -0.10658431883E+03 -0.20479386871E+03 -0.47702979279E+03  0.53595403985E+03  0.79928492684E+02 0.  0.
        -15    1    4    4    0    0 -0.62133962783E+02 -0.10465845267E+03 -0.17828103850E+03  0.21586604581E+03  0.00000000000E+00 0.  1.
        -15    1    3    3    0    0  0.86192814994E+02  0.63586137808E+02  0.21298797771E+03  0.23840360091E+03  0.00000000000E+00 0.  1.
         15    1    4    4    0    0  0.27682225100E+01 -0.25591731790E+02 -0.69545592922E+02  0.74156518842E+02  0.00000000000E+00 0. -1.
         15    1    4    4    0    0 -0.38395921892E+02 -0.68137491448E+02 -0.20345525961E+03  0.21797019801E+03  0.00000000000E+00 0. -1.
        -16    1    1    2    0    0 -0.24559076931E+03  0.61020958597E+03  0.29456858046E+03  0.72072270214E+03  0.00000000000E+00 0.  1.
         16    1    4    4    0    0 -0.88226566630E+01 -0.64061928015E+01 -0.25747901760E+02  0.27961277185E+02  0.00000000000E+00 0. -1.
    9900018    1    1    2    0    0  0.26598227314E+03 -0.46900185507E+03 -0.60447254566E+02  0.55016212035E+03  0.91187600000E+02 0.  0.
<mgrwt>
<rscale>  0 0.20450236E+04</rscale>
<asrwt>0</asrwt>
<pdfrwt beam="1">  1        2 0.15962792E+00 0.20450236E+04</pdfrwt>
<pdfrwt beam="2">  1       -2 0.15502477E+00 0.20450236E+04</pdfrwt>
<totfact> 0.60538426E+00</totfact>
</mgrwt>
</event>
<event>
11    1  0.2059453E-017  0.1134294E+04  0.7818608E-02  0.9172396E-01
         -2   -1    0    0    0  501 -0.00000000000E+00  0.00000000000E+00  0.40823815881E+03  0.40823815881E+03  0.00000000000E+00 0.  1.
          2   -1    0    0  501    0  0.00000000000E+00 -0.00000000000E+00 -0.78791260562E+03  0.78791260562E+03  0.00000000000E+00 0. -1.
    9900016    2    1    2    0    0  0.22625420001E+03 -0.22583344598E+02 -0.39902272142E+03  0.84501710961E+03  0.70931926016E+03 0.  0.
        -24    2    3    3    0    0  0.17669749660E+03  0.29092279204E+03 -0.39488803904E+03  0.52759143302E+03  0.80981976895E+02 0.  0.
        -15    1    4    4    0    0  0.29041121454E+02  0.18704945950E+02 -0.26597299391E+02  0.43596766775E+02  0.00000000000E+00 0.  1.
        -15    1    3    3    0    0  0.49556703417E+02 -0.31350613663E+03 -0.41346823777E+01  0.31742567659E+03  0.00000000000E+00 0.  1.
         15    1    4    4    0    0  0.13870024564E+02  0.58992142117E+02 -0.72238836891E+02  0.94291568914E+02  0.00000000000E+00 0. -1.
         15    1    4    4    0    0  0.67992813138E+02  0.92659377807E+02 -0.15338298945E+03  0.19166409259E+03  0.00000000000E+00 0. -1.
        -16    1    1    2    0    0 -0.21256760960E+03 -0.27248439332E+02  0.81497899870E+02  0.22928012077E+03  0.00000000000E+00 0.  1.
         16    1    4    4    0    0  0.65793537441E+02  0.12056632616E+03 -0.14266891331E+03  0.19803900474E+03  0.00000000000E+00 0. -1.
    9900018    1    1    2    0    0 -0.13686590410E+02  0.49831783930E+02 -0.62149625256E+02  0.12185353405E+03  0.91187600000E+02 0.  0.
<mgrwt>
<rscale>  0 0.11342945E+04</rscale>
<asrwt>0</asrwt>
<pdfrwt beam="1">  1        2 0.12121732E+00 0.11342945E+04</pdfrwt>
<pdfrwt beam="2">  1       -2 0.62805871E-01 0.11342945E+04</pdfrwt>
<totfact> 0.81878343E+01</totfact>
</mgrwt>
</event>
<event>
11    1  0.2059453E-017  0.1892587E+04  0.7818608E-02  0.8658555E-01
          1   -1    0    0  501    0  0.00000000000E+00  0.00000000000E+00  0.26397925304E+04  0.26397925304E+04  0.00000000000E+00 0. -1.
         -1   -1    0    0    0  501 -0.00000000000E+00 -0.00000000000E+00 -0.33922033836E+03  0.33922033836E+03  0.00000000000E+00 0.  1.
    9900016    2    1    2    0    0  0.22624213489E+03 -0.37878655803E+03  0.12201210722E+04  0.14729325291E+04  0.69725895071E+03 0.  0.
         24    2    3    3    0    0 -0.15343060120E+03  0.64670517075E+02  0.99755114031E+02  0.20959352306E+03  0.79089423872E+02 0.  0.
        -15    1    4    4    0    0 -0.42415701931E+02  0.32909941145E+01  0.48060578986E+02  0.64185213757E+02  0.00000000000E+00 0.  1.
        -15    1    4    4    0    0 -0.39076503301E+02  0.31571120260E+02  0.34880811783E+02  0.61158644322E+02  0.00000000000E+00 0.  1.
         15    1    4    4    0    0 -0.62254908171E+02  0.33895213120E+02  0.96687351981E+01  0.71540502543E+02  0.00000000000E+00 0. -1.
         15    1    3    3    0    0  0.37967273610E+03 -0.44345707511E+03  0.11203659582E+04  0.12633390061E+04  0.00000000000E+00 0. -1.
        -16    1    4    4    0    0 -0.96834878006E+01 -0.40868104196E+01  0.71449880644E+01  0.12709162436E+02  0.00000000000E+00 0.  1.
         16    1    1    2    0    0  0.34045905133E+03  0.32369724352E+03  0.54036420762E+03  0.71602077343E+03  0.00000000000E+00 0. -1.
    9900018    1    1    2    0    0 -0.56670118622E+03  0.55089314509E+02  0.54008691226E+03  0.79005956625E+03  0.91187600000E+02 0.  0.
<mgrwt>
<rscale>  0 0.18925869E+04</rscale>
<asrwt>0</asrwt>
<pdfrwt beam="1">  1        1 0.40612191E+00 0.18925869E+04</pdfrwt>
<pdfrwt beam="2">  1       -1 0.52187746E-01 0.18925869E+04</pdfrwt>
<totfact> 0.37503381E+00</totfact>
</mgrwt>
</event>
<event>
11    1  0.2059453E-017  0.2214226E+04  0.7818608E-02  0.8512530E-01
         -2   -1    0    0    0  501 -0.00000000000E+00  0.00000000000E+00  0.67774248938E+03  0.67774248938E+03  0.00000000000E+00 0.  1.
          2   -1    0    0  501    0  0.00000000000E+00 -0.00000000000E+00 -0.18085021751E+04  0.18085021751E+04  0.00000000000E+00 0. -1.
    9900016    2    1    2    0    0  0.61823927209E+03  0.12853264630E+03 -0.63606488131E+03  0.11474140495E+04  0.71640772538E+03 0.  0.
        -24    2    3    3    0    0 -0.74567306190E+01 -0.13281845196E+03  0.69237041105E+02  0.16902216167E+03  0.77963961301E+02 0.  0.
        -15    1    4    4    0    0 -0.66275612768E+01 -0.16350664186E+02  0.17240572185E+01  0.17726848595E+02  0.00000000000E+00 0.  1.
        -15    1    3    3    0    0  0.62569600271E+03  0.26135109826E+03 -0.70530192241E+03  0.97839188780E+03  0.00000000000E+00 0.  1.
         15    1    4    4    0    0 -0.19338763972E+02 -0.94500142497E+02  0.63245948508E+02  0.11534433114E+03  0.00000000000E+00 0. -1.
         15    1    4    4    0    0  0.13399337041E+02 -0.17140964278E+02  0.12526570702E+02  0.25105176022E+02  0.00000000000E+00 0. -1.
        -16    1    1    2    0    0 -0.51938466293E+03 -0.34359056536E+03  0.15468459452E+03  0.64167143342E+03  0.00000000000E+00 0.  1.
         16    1    4    4    0    0  0.51102575887E+01 -0.48266810031E+01 -0.82595353248E+01  0.10845805913E+02  0.00000000000E+00 0. -1.
    9900018    1    1    2    0    0 -0.98854609161E+02  0.21505791906E+03 -0.64937939889E+03  0.69715918154E+03  0.91187600000E+02 0.  0.
<mgrwt>
<rscale>  0 0.22142256E+04</rscale>
<asrwt>0</asrwt>
<pdfrwt beam="1">  1        2 0.27823110E+00 0.22142256E+04</pdfrwt>
<pdfrwt beam="2">  1       -2 0.10426808E+00 0.22142256E+04</pdfrwt>
<totfact> 0.58254058E+00</totfact>
</mgrwt>
</event>
<event>
11    1  0.2059453E-017  0.1205306E+04  0.7818608E-02  0.9108225E-01
         -1   -1    0    0    0  501 -0.00000000000E+00  0.00000000000E+00  0.66391060427E+03  0.66391060427E+03  0.00000000000E+00 0.  1.
          1   -1    0    0  501    0  0.00000000000E+00 -0.00000000000E+00 -0.54704749979E+03  0.54704749979E+03  0.00000000000E+00 0. -1.
    9900016    2    1    2    0    0 -0.37301196315E+02  0.23969070642E+03  0.21360450711E+03  0.78470128480E+03  0.71504280076E+03 0.  0.
         24    2    3    3    0    0  0.31285210851E+03  0.36511576217E+02 -0.41156248196E+01  0.32503711208E+03  0.80141430398E+02 0.  0.
        -15    1    4    4    0    0  0.17214128710E+02  0.13109989326E+02  0.56235766763E+01  0.22356714025E+02  0.00000000000E+00 0.  1.
        -15    1    4    4    0    0  0.16316524314E+03  0.61766751111E+01 -0.24866358022E+02  0.16516471671E+03  0.00000000000E+00 0.  1.
         15    1    4    4    0    0  0.69034836017E+02 -0.47962262869E-01  0.19161056447E+02  0.71644657640E+02  0.00000000000E+00 0. -1.
         15    1    3    3    0    0 -0.35015330482E+03  0.20317913020E+03  0.21772013193E+03  0.45966417271E+03  0.00000000000E+00 0. -1.
        -16    1    4    4    0    0  0.63437900643E+02  0.17272874042E+02 -0.40338999207E+01  0.65871023707E+02  0.00000000000E+00 0.  1.
         16    1    1    2    0    0 -0.98035570030E+02 -0.14110789083E+02 -0.10936732284E+03  0.14755100361E+03  0.00000000000E+00 0. -1.
    9900018    1    1    2    0    0  0.13533676634E+03 -0.22557991733E+03  0.12625920212E+02  0.27870581566E+03  0.91187600000E+02 0.  0.
<mgrwt>
<rscale>  0 0.12053060E+04</rscale>
<asrwt>0</asrwt>
<pdfrwt beam="1">  1        1 0.84161154E-01 0.12053060E+04</pdfrwt>
<pdfrwt beam="2">  1       -1 0.10214009E+00 0.12053060E+04</pdfrwt>
<totfact> 0.35122670E+01</totfact>
</mgrwt>
</event>
<event>
11    1  0.2059453E-017  0.2740442E+04  0.7818608E-02  0.8322001E-01
          2   -1    0    0  501    0  0.00000000000E+00  0.00000000000E+00  0.10550932033E+04  0.10550932033E+04  0.00000000000E+00 0. -1.
         -2   -1    0    0    0  501 -0.00000000000E+00 -0.00000000000E+00 -0.17794688745E+04  0.17794688745E+04  0.00000000000E+00 0.  1.
    9900016    2    1    2    0    0 -0.41164073786E+03  0.31502073348E+03  0.49412810431E+02  0.88828831791E+03  0.71967239095E+03 0.  0.
         24    2    3    3    0    0 -0.39539587901E+02 -0.17672949340E+03  0.16925777718E+03  0.26008423682E+03  0.78733234768E+02 0.  0.
        -15    1    4    4    0    0 -0.35660469965E+02 -0.66264358081E+02  0.53581428072E+02  0.92377506484E+02  0.00000000000E+00 0.  1.
        -15    1    4    4    0    0  0.89609628716E+01 -0.45425849780E+02  0.57015296395E+02  0.73447605181E+02  0.00000000000E+00 0.  1.
         15    1    4    4    0    0 -0.64089435410E+01 -0.36141269225E+02  0.11297707034E+02  0.38404479983E+02  0.00000000000E+00 0. -1.
         15    1    3    3    0    0 -0.37210114996E+03  0.49175022688E+03 -0.11984496674E+03  0.62820408109E+03  0.00000000000E+00 0. -1.
        -16    1    4    4    0    0 -0.64311372661E+01 -0.28898016317E+02  0.47363345674E+02  0.55854645169E+02  0.00000000000E+00 0.  1.
         16    1    1    2    0    0  0.64355351062E+03  0.43340572277E+03  0.84594332231E+02  0.78048564536E+03  0.00000000000E+00 0. -1.
    9900018    1    1    2    0    0 -0.23191277276E+03 -0.74842645625E+03 -0.85838281388E+03  0.11657881146E+04  0.91187600000E+02 0.  0.
<mgrwt>
<rscale>  0 0.27404419E+04</rscale>
<asrwt>0</asrwt>
<pdfrwt beam="1">  1        2 0.16232203E+00 0.27404419E+04</pdfrwt>
<pdfrwt beam="2">  1       -2 0.27376444E+00 0.27404419E+04</pdfrwt>
<totfact> 0.93394786E-01</totfact>
</mgrwt>
</event>
<event>
11    1  0.2059453E-017  0.1844777E+04  0.7818608E-02  0.8682843E-01
         -2   -1    0    0    0  501 -0.00000000000E+00  0.00000000000E+00  0.12563235681E+04  0.12563235681E+04  0.00000000000E+00 0.  1.
          2   -1    0    0  501    0  0.00000000000E+00 -0.00000000000E+00 -0.67721462597E+03  0.67721462597E+03  0.00000000000E+00 0. -1.
    9900016    2    1    2    0    0 -0.68885476138E+02 -0.20230464288E+01 -0.38147469198E+03  0.81428639836E+03  0.71609363661E+03 0.  0.
         24    2    3    3    0    0 -0.99672509004E+02  0.28842454021E+03  0.22098751058E+02  0.31611056003E+03  0.79461984097E+02 0.  0.
        -15    1    4    4    0    0  0.54500652086E+01  0.21309347795E+02  0.57364752812E+01  0.22731006640E+02  0.00000000000E+00 0.  1.
        -15    1    4    4    0    0 -0.95898190752E+02  0.23944134162E+03  0.38742035750E+01  0.25796051736E+03  0.00000000000E+00 0.  1.
         15    1    4    4    0    0 -0.10976663134E+02  0.14066402825E+02  0.12348064002E+02  0.21698513926E+02  0.00000000000E+00 0. -1.
         15    1    3    3    0    0  0.30787032866E+02 -0.29044758664E+03 -0.40357344304E+03  0.49817583834E+03  0.00000000000E+00 0. -1.
        -16    1    4    4    0    0  0.17522796731E+01  0.13607447969E+02  0.14000819975E+00  0.13720522095E+02  0.00000000000E+00 0.  1.
         16    1    1    2    0    0  0.21643862740E+03 -0.14858343271E+03  0.21578384991E+03  0.33983140789E+03  0.00000000000E+00 0. -1.
    9900018    1    1    2    0    0 -0.14755315126E+03  0.15060647914E+03  0.74479978418E+03  0.77942038780E+03  0.91187600000E+02 0.  0.
<mgrwt>
<rscale>  0 0.18447772E+04</rscale>
<asrwt>0</asrwt>
<pdfrwt beam="1">  1        2 0.10418687E+00 0.18447772E+04</pdfrwt>
<pdfrwt beam="2">  1       -2 0.19328055E+00 0.18447772E+04</pdfrwt>
<totfact> 0.59173052E+00</totfact>
</mgrwt>
</event>
<event>
11    1  0.2059453E-017  0.1738227E+04  0.7818608E-02  0.8739857E-01
          2   -1    0    0  501    0  0.00000000000E+00  0.00000000000E+00  0.17677422980E+04  0.17677422980E+04  0.00000000000E+00 0. -1.
         -2   -1    0    0    0  501 -0.00000000000E+00 -0.00000000000E+00 -0.42730133895E+03  0.42730133895E+03  0.00000000000E+00 0.  1.
    9900016    2    1    2    0    0 -0.50471468214E+02 -0.19960180130E+03  0.24435936321E+03  0.75506437405E+03  0.68412167221E+03 0.  0.
        -24    2    3    3    0    0  0.22489582217E+02  0.23168713441E+03  0.19640696797E+03  0.31502699707E+03  0.80508398669E+02 0.  0.
        -15    1    3    3    0    0 -0.72961050430E+02 -0.43128893570E+03  0.47952395246E+02  0.44003737699E+03  0.00000000000E+00 0.  1.
        -15    1    4    4    0    0 -0.67371315660E+01  0.57523227643E+02  0.72084594348E+02  0.92468910465E+02  0.00000000000E+00 0.  1.
         15    1    4    4    0    0  0.31209427569E+02  0.11892869970E+03  0.10248084567E+03  0.16006369892E+03  0.00000000000E+00 0. -1.
         15    1    4    4    0    0 -0.99064660827E+01  0.28242843180E+02  0.15294265499E+02  0.33611171034E+02  0.00000000000E+00 0. -1.
        -16    1    1    2    0    0 -0.18175788529E+03 -0.16625819133E+03 -0.12068982673E+02  0.24662395543E+03  0.00000000000E+00 0.  1.
         16    1    4    4    0    0  0.79237522964E+01  0.26992363881E+02  0.65472624485E+01  0.28883216647E+02  0.00000000000E+00 0. -1.
    9900018    1    1    2    0    0  0.23222935351E+03  0.36585999262E+03  0.11081505785E+04  0.11933553075E+04  0.91187600000E+02 0.  0.
<mgrwt>
<rscale>  0 0.17382274E+04</rscale>
<asrwt>0</asrwt>
<pdfrwt beam="1">  1        2 0.27196035E+00 0.17382274E+04</pdfrwt>
<pdfrwt beam="2">  1       -2 0.65738669E-01 0.17382274E+04</pdfrwt>
<totfact> 0.18174225E+01</totfact>
</mgrwt>
</event>
<event>
11    1  0.2059453E-017  0.1149506E+04  0.7818608E-02  0.9158240E-01
          1   -1    0    0  501    0  0.00000000000E+00  0.00000000000E+00  0.32897834897E+03  0.32897834897E+03  0.00000000000E+00 0. -1.
         -1   -1    0    0    0  501 -0.00000000000E+00 -0.00000000000E+00 -0.10041415977E+04  0.10041415977E+04  0.00000000000E+00 0.  1.
    9900016    2    1    2    0    0  0.23303327701E+03  0.15221632929E+03 -0.42440178531E+03  0.86908907615E+03  0.70549601544E+03 0.  0.
        -24    2    3    3    0    0 -0.15566165141E+03 -0.17342991926E+03 -0.94048069543E+02  0.26389257575E+03  0.80534250687E+02 0.  0.
        -15    1    3    3    0    0  0.38869492842E+03  0.32564624855E+03 -0.33035371577E+03  0.60519650040E+03  0.00000000000E+00 0.  1.
        -15    1    4    4    0    0 -0.63933525244E+02 -0.31246248666E+02 -0.22008221458E+02  0.74486143125E+02  0.00000000000E+00 0.  1.
         15    1    4    4    0    0 -0.23354873709E+02 -0.38733963647E+02 -0.54643683808E+01  0.45559075798E+02  0.00000000000E+00 0. -1.
         15    1    4    4    0    0 -0.54989114598E+02 -0.73437018753E+02 -0.61857164059E+02  0.11064857520E+03  0.00000000000E+00 0. -1.
        -16    1    1    2    0    0 -0.72649371335E+02  0.65793416171E+02 -0.10408349452E+03  0.14296880289E+03  0.00000000000E+00 0.  1.
         16    1    4    4    0    0 -0.13384137860E+02 -0.30012688194E+02 -0.47183156453E+01  0.33198781626E+02  0.00000000000E+00 0. -1.
    9900018    1    1    2    0    0 -0.16038390568E+03 -0.21800974546E+03 -0.14667796888E+03  0.32106206762E+03  0.91187600000E+02 0.  0.
<mgrwt>
<rscale>  0 0.11495057E+04</rscale>
<asrwt>0</asrwt>
<pdfrwt beam="1">  1        1 0.50612054E-01 0.11495057E+04</pdfrwt>
<pdfrwt beam="2">  1       -1 0.15448332E+00 0.11495057E+04</pdfrwt>
<totfact> 0.24855306E+01</totfact>
</mgrwt>
</event>
<event>
11    1  0.2059453E-017  0.1310477E+04  0.7818608E-02  0.9021298E-01
         -2   -1    0    0    0  501 -0.00000000000E+00  0.00000000000E+00  0.50878881251E+03  0.50878881251E+03  0.00000000000E+00 0.  1.
          2   -1    0    0  501    0  0.00000000000E+00 -0.00000000000E+00 -0.84384217600E+03  0.84384217600E+03  0.00000000000E+00 0. -1.
    9900016    2    1    2    0    0 -0.63467609923E+02 -0.18919378031E+03 -0.49519197668E+02  0.73551326018E+03  0.70619061234E+03 0.  0.
         24    2    3    3    0    0  0.73449486750E+02  0.20169861640E+03 -0.19022069955E+03  0.29808890124E+03  0.81215266702E+02 0.  0.
        -15    1    4    4    0    0 -0.56967312091E+01  0.21973674592E+02 -0.35803963474E+02  0.42393618883E+02  0.00000000000E+00 0.  1.
        -15    1    4    4    0    0  0.35879186526E+02  0.44706495445E+02 -0.56590247347E+02  0.80550871228E+02  0.00000000000E+00 0.  1.
         15    1    4    4    0    0  0.37058751621E+02  0.12878518560E+03 -0.82202809607E+02  0.15721411199E+03  0.00000000000E+00 0. -1.
         15    1    3    3    0    0 -0.13691709667E+03 -0.39089239671E+03  0.14070150188E+03  0.43742435894E+03  0.00000000000E+00 0. -1.
        -16    1    4    4    0    0  0.62082798121E+01  0.62332607587E+01 -0.15623679119E+02  0.17930299137E+02  0.00000000000E+00 0.  1.
         16    1    1    2    0    0  0.12419183422E+03  0.33926429151E+03 -0.18808696045E+03  0.40730894401E+03  0.00000000000E+00 0. -1.
    9900018    1    1    2    0    0 -0.60724224299E+02 -0.15007051120E+03 -0.97447205380E+02  0.20980878432E+03  0.91187600000E+02 0.  0.
<mgrwt>
<rscale>  0 0.13104769E+04</rscale>
<asrwt>0</asrwt>
<pdfrwt beam="1">  1        2 0.12982187E+00 0.13104769E+04</pdfrwt>
<pdfrwt beam="2">  1       -2 0.78275203E-01 0.13104769E+04</pdfrwt>
<totfact> 0.45595468E+01</totfact>
</mgrwt>
</event>
<event>
11    1  0.2059453E-017  0.2023174E+04  0.7818608E-02  0.8595862E-01
         -2   -1    0    0    0  501 -0.00000000000E+00  0.00000000000E+00  0.62454960200E+03  0.62454960200E+03  0.00000000000E+00 0. -1.
          2   -1    0    0  501    0  0.00000000000E+00 -0.00000000000E+00 -0.16384744858E+04  0.16384744858E+04  0.00000000000E+00 0.  1.
    9900016    2    1    2    0    0 -0.48302651587E+02  0.68743995845E+03 -0.61225560569E+03  0.11632479257E+04  0.70949416297E+03 0.  0.
         24    2    3    3    0    0 -0.64562695985E+02 -0.74666305875E+02 -0.32454992836E+03  0.34848114682E+03  0.79768757969E+02 0.  0.
        -15    1    4    4    0    0 -0.23814791727E+02  0.82019973135E+01 -0.44462696747E+02  0.51101354844E+02  0.00000000000E+00 0.  1.
        -15    1    4    4    0    0 -0.18299543130E+02 -0.69931506226E+01 -0.54418571840E+02  0.57837344299E+02  0.00000000000E+00 0.  1.
         15    1    3    3    0    0  0.16260044398E+02  0.76210626432E+03 -0.28770567734E+03  0.81476677886E+03  0.00000000000E+00 0. -1.
         15    1    4    4    0    0 -0.96197751177E+00 -0.25477786970E+02 -0.67566488857E+02  0.72216850154E+02  0.00000000000E+00 0. -1.
        -16    1    4    4    0    0 -0.21486383617E+02 -0.50397365596E+02 -0.15810217091E+03  0.16732559753E+03  0.00000000000E+00 0.  1.
         16    1    1    2    0    0  0.12481563021E+03 -0.67423223460E+03 -0.53005449249E+01  0.68570849746E+03  0.00000000000E+00 0. -1.
    9900018    1    1    2    0    0 -0.76512978619E+02 -0.13207723848E+02 -0.39636873320E+03  0.41406766466E+03  0.91187600000E+02 0.  0.
<mgrwt>
<rscale>  0 0.20231743E+04</rscale>
<asrwt>0</asrwt>
<pdfrwt beam="1">  1        2 0.25207300E+00 0.20231743E+04</pdfrwt>
<pdfrwt beam="2">  1       -2 0.96084554E-01 0.20231743E+04</pdfrwt>
<totfact> 0.89321515E+00</totfact>
</mgrwt>
</event>
<event>
11    1  0.2059453E-017  0.2415563E+04  0.7818608E-02  0.8433700E-01
         -2   -1    0    0    0  501 -0.00000000000E+00  0.00000000000E+00  0.47407674237E+03  0.47407674237E+03  0.00000000000E+00 0.  1.
          2   -1    0    0  501    0  0.00000000000E+00 -0.00000000000E+00 -0.30770031612E+04  0.30770031612E+04  0.00000000000E+00 0. -1.
    9900016    2    1    2    0    0  0.27085326918E+03 -0.14870369801E+03 -0.11205987512E+04  0.13839390682E+04  0.75104693609E+03 0.  0.
         24    2    3    3    0    0 -0.83555394248E+02  0.15210104319E+03 -0.24955318327E+02  0.19376112985E+03  0.82488643349E+02 0.  0.
        -15    1    4    4    0    0 -0.24268127895E+02  0.27666617960E+02 -0.12537339345E+02  0.38878897344E+02  0.00000000000E+00 0.  1.
        -15    1    4    4    0    0 -0.19802205221E+02  0.71737976941E+02 -0.23223480171E+01  0.74457088095E+02  0.00000000000E+00 0.  1.
         15    1    4    4    0    0  0.71199148542E+01  0.15364048977E+02  0.69832496897E+01  0.18317012986E+02  0.00000000000E+00 0. -1.
         15    1    3    3    0    0  0.35440866343E+03 -0.30080474121E+03 -0.10956434329E+04  0.11901779384E+04  0.00000000000E+00 0. -1.
        -16    1    4    4    0    0 -0.46604975987E+02  0.37332399315E+02 -0.17078880654E+02  0.62108131430E+02  0.00000000000E+00 0.  1.
         16    1    1    2    0    0  0.62273198814E+03  0.59956394992E+02 -0.88872337830E+03  0.10868390596E+04  0.00000000000E+00 0. -1.
    9900018    1    1    2    0    0 -0.89358525732E+03  0.88747303023E+02 -0.59360428935E+03  0.10803017757E+04  0.91187600000E+02 0.  0.
<mgrwt>
<rscale>  0 0.24155626E+04</rscale>
<asrwt>0</asrwt>
<pdfrwt beam="1">  1        2 0.47338510E+00 0.24155626E+04</pdfrwt>
<pdfrwt beam="2">  1       -2 0.72934884E-01 0.24155626E+04</pdfrwt>
<totfact> 0.23758614E+00</totfact>
</mgrwt>
</event>
<event>
11    1  0.2059453E-017  0.1853165E+04  0.7818608E-02  0.8678527E-01
          2   -1    0    0  501    0  0.00000000000E+00  0.00000000000E+00  0.49269094091E+03  0.49269094091E+03  0.00000000000E+00 0.  1.
         -2   -1    0    0    0  501 -0.00000000000E+00 -0.00000000000E+00 -0.17425832865E+04  0.17425832865E+04  0.00000000000E+00 0. -1.
    9900016    2    1    2    0    0 -0.22798867040E+03 -0.40677815089E+02 -0.24460043625E+03  0.78540738753E+03  0.70950819058E+03 0.  0.
         24    2    3    3    0    0  0.89407101680E+02 -0.30704723394E+03 -0.75959824609E+02  0.33804578957E+03  0.78952056296E+02 0.  0.
        -15    1    4    4    0    0  0.10853851291E+02 -0.17128045247E+02 -0.48373761380E+01  0.20846492025E+02  0.00000000000E+00 0.  1.
        -15    1    4    4    0    0  0.17051245468E+02 -0.95568662209E+02 -0.53017421292E+02  0.11061175855E+03  0.00000000000E+00 0.  1.
         15    1    4    4    0    0  0.19421211193E+02 -0.10562485545E+03 -0.49289862666E+01  0.10750855054E+03  0.00000000000E+00 0. -1.
         15    1    3    3    0    0 -0.31739577208E+03  0.26636941885E+03 -0.16864061164E+03  0.44736159795E+03  0.00000000000E+00 0. -1.
        -16    1    4    4    0    0  0.42080793728E+02 -0.88725671037E+02 -0.13176040913E+02  0.99078988468E+02  0.00000000000E+00 0.  1.
         16    1    1    2    0    0  0.33334095152E+03  0.19391709877E+03 -0.11395553699E+04  0.12030405115E+04  0.00000000000E+00 0. -1.
    9900018    1    1    2    0    0 -0.10535228112E+03 -0.15323928368E+03  0.13426346051E+03  0.24682632846E+03  0.91187600000E+02 0.  0.
<mgrwt>
<rscale>  0 0.18531649E+04</rscale>
<asrwt>0</asrwt>
<pdfrwt beam="1">  1        2 0.75798605E-01 0.18531649E+04</pdfrwt>
<pdfrwt beam="2">  1       -2 0.26808974E+00 0.18531649E+04</pdfrwt>
<totfact> 0.29330630E+00</totfact>
</mgrwt>
</event>
<event>
11    1  0.2059453E-017  0.2919173E+04  0.7818608E-02  0.8267196E-01
          2   -1    0    0  501    0  0.00000000000E+00  0.00000000000E+00  0.25341042375E+04  0.25341042375E+04  0.00000000000E+00 0. -1.
         -2   -1    0    0    0  501 -0.00000000000E+00 -0.00000000000E+00 -0.84068860028E+03  0.84068860028E+03  0.00000000000E+00 0.  1.
    9900016    2    1    2    0    0  0.64574100226E+01 -0.90543549816E+03  0.47398728254E+03  0.12505140908E+04  0.72060142083E+03 0.  0.
         24    2    3    3    0    0  0.17890867285E+03 -0.11326715693E+01 -0.34238184859E+02  0.19894565934E+03  0.79984535397E+02 0.  0.
        -15    1    4    4    0    0  0.71885168957E+02  0.15022690271E+02 -0.76548663884E+01  0.73836005569E+02  0.00000000000E+00 0.  1.
        -15    1    4    4    0    0  0.49203258416E+02 -0.65518314358E+01  0.91898334448E+01  0.50481087277E+02  0.00000000000E+00 0.  1.
         15    1    4    4    0    0  0.58949009767E+02 -0.32799370632E+01 -0.31553235574E+02  0.66942889203E+02  0.00000000000E+00 0. -1.
         15    1    3    3    0    0 -0.17245126283E+03 -0.90430282659E+03  0.50822546740E+03  0.10515684314E+04  0.00000000000E+00 0. -1.
        -16    1    4    4    0    0 -0.11287642872E+01 -0.63235933414E+01 -0.42199163410E+01  0.76856772954E+01  0.00000000000E+00 0.  1.
         16    1    1    2    0    0 -0.67016379867E+03  0.10040048308E+03  0.34775595391E+03  0.76166526606E+03  0.00000000000E+00 0. -1.
    9900018    1    1    2    0    0  0.66370638864E+03  0.80503501507E+03  0.87167240078E+03  0.13626134810E+04  0.91187600000E+02 0.  0.
<mgrwt>
<rscale>  0 0.29191729E+04</rscale>
<asrwt>0</asrwt>
<pdfrwt beam="1">  1        2 0.38986219E+00 0.29191729E+04</pdfrwt>
<pdfrwt beam="2">  1       -2 0.12933671E+00 0.29191729E+04</pdfrwt>
<totfact> 0.12605626E+00</totfact>
</mgrwt>
</event>
<event>
11    1  0.2059453E-017  0.1899157E+04  0.7818608E-02  0.8655276E-01
         -1   -1    0    0    0  501 -0.00000000000E+00  0.00000000000E+00  0.94502488390E+03  0.94502488390E+03  0.00000000000E+00 0.  1.
          1   -1    0    0  501    0  0.00000000000E+00 -0.00000000000E+00 -0.95415402174E+03  0.95415402174E+03  0.00000000000E+00 0. -1.
    9900016    2    1    2    0    0  0.18827796258E+03  0.52006424515E+02  0.54535223043E+03  0.91769205905E+03  0.71175585746E+03 0.  0.
        -24    2    3    3    0    0 -0.69737330003E+02  0.75516259363E+02 -0.13656970700E+03  0.18821133121E+03  0.78779563970E+02 0.  0.
        -15    1    4    4    0    0 -0.37142780175E+02  0.17692075578E+02 -0.40971879044E+02  0.58062815379E+02  0.00000000000E+00 0.  1.
        -15    1    3    3    0    0  0.25801529259E+03 -0.23509834849E+02  0.68192193744E+03  0.72948072785E+03  0.00000000000E+00 0.  1.
         15    1    4    4    0    0 -0.52737080042E+01  0.41612486156E+02 -0.27694162012E+02  0.50263083966E+02  0.00000000000E+00 0. -1.
         15    1    4    4    0    0 -0.13730557851E+02  0.27006837097E+01 -0.62569347371E+01  0.15328768499E+02  0.00000000000E+00 0. -1.
        -16    1    1    2    0    0  0.88332090626E+02 -0.13596927244E+03  0.14602981551E+03  0.21820840566E+03  0.00000000000E+00 0.  1.
         16    1    4    4    0    0 -0.13590283974E+02  0.13511013919E+02 -0.61646731208E+02  0.64556663361E+02  0.00000000000E+00 0. -1.
    9900018    1    1    2    0    0 -0.27661005321E+03  0.83962847926E+02 -0.70051118379E+03  0.76327844092E+03  0.91187600000E+02 0.  0.
<mgrwt>
<rscale>  0 0.18991570E+04</rscale>
<asrwt>0</asrwt>
<pdfrwt beam="1">  1        1 0.14679293E+00 0.18991570E+04</pdfrwt>
<pdfrwt beam="2">  1       -1 0.14538844E+00 0.18991570E+04</pdfrwt>
<totfact> 0.58392830E+00</totfact>
</mgrwt>
</event>
<event>
11    1  0.2059453E-017  0.1717460E+04  0.7818608E-02  0.8751468E-01
         -2   -1    0    0    0  501 -0.00000000000E+00  0.00000000000E+00  0.53074265110E+03  0.53074265110E+03  0.00000000000E+00 0.  1.
          2   -1    0    0  501    0  0.00000000000E+00 -0.00000000000E+00 -0.13894066589E+04  0.13894066589E+04  0.00000000000E+00 0. -1.
    9900016    2    1    2    0    0  0.16495108130E+03  0.30508350525E+03 -0.69039295363E+02  0.78607553709E+03  0.70204239281E+03 0.  0.
         24    2    3    3    0    0 -0.61226371784E+02 -0.18094375951E+03  0.91145488186E+02  0.22657763070E+03  0.80874037910E+02 0.  0.
        -15    1    4    4    0    0 -0.23795963810E+02 -0.58580823097E+02  0.49174995411E+02  0.80100817112E+02  0.00000000000E+00 0.  1.
        -15    1    4    4    0    0 -0.47549302035E+01 -0.42549842612E+02  0.16730590193E+02  0.45967500647E+02  0.00000000000E+00 0.  1.
         15    1    3    3    0    0  0.22617745308E+03  0.48602726476E+03 -0.16018478355E+03  0.55949790639E+03  0.00000000000E+00 0. -1.
         15    1    4    4    0    0 -0.22271398031E+02 -0.38771678175E+02 -0.95361344711E+01  0.45718662048E+02  0.00000000000E+00 0. -1.
        -16    1    4    4    0    0 -0.10404079739E+02 -0.41041415627E+02  0.34776037053E+02  0.54790650890E+02  0.00000000000E+00 0.  1.
         16    1    1    2    0    0 -0.50247762186E+02 -0.35895015516E+03 -0.88137344028E+03  0.95298960788E+03  0.00000000000E+00 0. -1.
    9900018    1    1    2    0    0 -0.11470331911E+03  0.53866649915E+02  0.91748727813E+02  0.18108416507E+03  0.91187600000E+02 0.  0.
<mgrwt>
<rscale>  0 0.17174602E+04</rscale>
<asrwt>0</asrwt>
<pdfrwt beam="1">  1        2 0.21375487E+00 0.17174602E+04</pdfrwt>
<pdfrwt beam="2">  1       -2 0.81652715E-01 0.17174602E+04</pdfrwt>
<totfact> 0.18407109E+01</totfact>
</mgrwt>
</event>
<event>
11    1  0.2059453E-017  0.1761123E+04  0.7818608E-02  0.8727252E-01
         -1   -1    0    0    0  501 -0.00000000000E+00  0.00000000000E+00  0.10098742139E+04  0.10098742139E+04  0.00000000000E+00 0.  1.
          1   -1    0    0  501    0  0.00000000000E+00 -0.00000000000E+00 -0.76780694596E+03  0.76780694596E+03  0.00000000000E+00 0. -1.
    9900016    2    1    2    0    0 -0.44765568487E+02  0.82971281279E+02 -0.27760584478E+03  0.75874815392E+03  0.69981823810E+03 0.  0.
        -24    2    3    3    0    0  0.11960443006E+03  0.35728429661E+03 -0.12826205977E+03  0.40580525071E+03  0.79179904229E+02 0.  0.
        -15    1    4    4    0    0  0.20013003962E+02  0.29298842744E+02 -0.16849353808E+02  0.39279043235E+02  0.00000000000E+00 0. -1.
        -15    1    3    3    0    0 -0.16436999855E+03 -0.27431301533E+03 -0.14934378501E+03  0.35294290321E+03  0.00000000000E+00 0.  1.
         15    1    4    4    0    0  0.13210295583E+02  0.97859740626E+02 -0.41683453373E+02  0.10718465856E+03  0.00000000000E+00 0. -1.
         15    1    4    4    0    0  0.24808741113E+02  0.44682157537E+02  0.21222466197E+01  0.51151468879E+02  0.00000000000E+00 0.  1.
        -16    1    1    2    0    0  0.69159032745E+02 -0.26482949232E+03  0.69645801524E+03  0.74831236714E+03  0.00000000000E+00 0.  1.
         16    1    4    4    0    0  0.61572389401E+02  0.18544355570E+03 -0.71851499204E+02  0.20819008004E+03  0.00000000000E+00 0. -1.
    9900018    1    1    2    0    0 -0.24393464258E+02  0.18185821104E+03 -0.17678490249E+03  0.27062063884E+03  0.91187600000E+02 0.  0.
<mgrwt>
<rscale>  0 0.17611229E+04</rscale>
<asrwt>0</asrwt>
<pdfrwt beam="1">  1        1 0.11812414E+00 0.17611229E+04</pdfrwt>
<pdfrwt beam="2">  1       -1 0.15536526E+00 0.17611229E+04</pdfrwt>
<totfact> 0.70862885E+00</totfact>
</mgrwt>
</event>
<event>
11    1  0.2059453E-017  0.1670984E+04  0.7818608E-02  0.8778089E-01
          1   -1    0    0  501    0  0.00000000000E+00  0.00000000000E+00  0.13880923527E+04  0.13880923527E+04  0.00000000000E+00 0. -1.
         -1   -1    0    0    0  501 -0.00000000000E+00 -0.00000000000E+00 -0.50288209329E+03  0.50288209329E+03  0.00000000000E+00 0.  1.
    9900016    2    1    2    0    0  0.60794953778E+03 -0.22110086828E+03  0.39361630807E+03  0.10380697817E+04  0.71004706841E+03 0.  0.
         24    2    3    3    0    0 -0.11093021131E+03  0.30924690699E+02 -0.59509345014E+02  0.15171328828E+03  0.78827098273E+02 0.  0.
        -15    1    4    4    0    0 -0.74080823078E+02  0.19357852170E+02 -0.52983424308E+02  0.93112502061E+02  0.00000000000E+00 0.  1.
        -15    1    4    4    0    0 -0.11646598498E+02  0.14310609871E+02  0.37068596506E+01  0.18819607327E+02  0.00000000000E+00 0.  1.
         15    1    3    3    0    0  0.71887974909E+03 -0.25202555898E+03  0.45312565308E+03  0.88635649346E+03  0.00000000000E+00 0. -1.
         15    1    4    4    0    0 -0.68014951548E+01 -0.14827721662E+02 -0.28392044603E+01  0.16558464542E+02  0.00000000000E+00 0. -1.
        -16    1    4    4    0    0 -0.18401294578E+02  0.12083950320E+02 -0.73935758963E+01  0.23222714355E+02  0.00000000000E+00 0.  1.
         16    1    1    2    0    0 -0.45580729424E+03  0.67847171146E+02  0.29697298195E+03  0.54823031668E+03  0.00000000000E+00 0. -1.
    9900018    1    1    2    0    0 -0.15214224353E+03  0.15325369713E+03  0.19462096942E+03  0.30467434759E+03  0.91187600000E+02 0.  0.
<mgrwt>
<rscale>  0 0.16709839E+04</rscale>
<asrwt>0</asrwt>
<pdfrwt beam="1">  1        1 0.21355267E+00 0.16709839E+04</pdfrwt>
<pdfrwt beam="2">  1       -1 0.77366477E-01 0.16709839E+04</pdfrwt>
<totfact> 0.12513306E+01</totfact>
</mgrwt>
</event>
<event>
11    1  0.2059453E-017  0.1371404E+04  0.7818608E-02  0.8974782E-01
         -2   -1    0    0    0  501 -0.00000000000E+00  0.00000000000E+00  0.36040718748E+03  0.36040718748E+03  0.00000000000E+00 0.  1.
          2   -1    0    0  501    0  0.00000000000E+00 -0.00000000000E+00 -0.13045999598E+04  0.13045999598E+04  0.00000000000E+00 0. -1.
    9900016    2    1    2    0    0 -0.21454274996E+03  0.80551964973E+02 -0.17324217075E+03  0.76004056294E+03  0.70365587965E+03 0.  0.
        -24    2    3    3    0    0  0.26589557540E+02 -0.11230385133E+03 -0.36895482198E+03  0.39447032694E+03  0.78485785828E+02 0.  0.
        -15    1    4    4    0    0 -0.75631820291E+01 -0.32956171398E+02 -0.39943909615E+02  0.52333802374E+02  0.00000000000E+00 0.  1.
        -15    1    3    3    0    0 -0.24113230750E+03  0.19285581630E+03  0.19571265123E+03  0.36557023600E+03  0.00000000000E+00 0.  1.
         15    1    4    4    0    0  0.13223312219E+02 -0.34281735359E+02 -0.91941533763E+02  0.99011812407E+02  0.00000000000E+00 0. -1.
         15    1    4    4    0    0  0.75661898651E+01 -0.34673365544E+02 -0.13141515244E+03  0.13612285553E+03  0.00000000000E+00 0. -1.
        -16    1    1    2    0    0 -0.53180776797E+01 -0.96023690398E-01  0.48024260533E+02  0.48317913557E+02  0.00000000000E+00 0.  1.
         16    1    4    4    0    0  0.13363237485E+02 -0.10392579027E+02 -0.10565422616E+03  0.10700185663E+03  0.00000000000E+00 0. -1.
    9900018    1    1    2    0    0  0.21986082764E+03 -0.80455941282E+02 -0.81897486210E+03  0.85664867079E+03  0.91187600000E+02 0.  0.
<mgrwt>
<rscale>  0 0.13714040E+04</rscale>
<asrwt>0</asrwt>
<pdfrwt beam="1">  1        2 0.20070768E+00 0.13714040E+04</pdfrwt>
<pdfrwt beam="2">  1       -2 0.55447260E-01 0.13714040E+04</pdfrwt>
<totfact> 0.48977101E+01</totfact>
</mgrwt>
</event>
<event>
11    1  0.2059453E-017  0.1263801E+04  0.7818608E-02  0.9058775E-01
         -1   -1    0    0    0  501 -0.00000000000E+00  0.00000000000E+00  0.92203430130E+03  0.92203430130E+03  0.00000000000E+00 0.  1.
          1   -1    0    0  501    0  0.00000000000E+00 -0.00000000000E+00 -0.43306205212E+03  0.43306205212E+03  0.00000000000E+00 0. -1.
    9900016    2    1    2    0    0 -0.37323896616E+02 -0.13239558958E+03  0.51647826956E+03  0.89400745054E+03  0.71664346316E+03 0.  0.
         24    2    3    3    0    0 -0.32856333790E+03  0.97872314272E+02  0.19099596539E+03  0.40026414676E+03  0.78734182362E+02 0.  0.
        -15    1    4    4    0    0 -0.11365633785E+03  0.23574815901E+02  0.50543367872E+02  0.12660239774E+03  0.00000000000E+00 0.  1.
        -15    1    4    4    0    0 -0.83244187540E+02  0.54959958115E+02  0.61509098326E+02  0.11719027661E+03  0.00000000000E+00 0.  1.
         15    1    4    4    0    0 -0.23987573361E+02 -0.51215379690E+01  0.17255905792E+02  0.29990000193E+02  0.00000000000E+00 0. -1.
         15    1    3    3    0    0  0.29123944128E+03 -0.23026790385E+03  0.32548230417E+03  0.49374330378E+03  0.00000000000E+00 0. -1.
        -16    1    4    4    0    0 -0.10767523914E+03  0.24459078225E+02  0.61687593403E+02  0.12648147221E+03  0.00000000000E+00 0.  1.
         16    1    1    2    0    0 -0.45017147223E+02  0.37839245865E+02 -0.21205653071E+03  0.22005981979E+03  0.00000000000E+00 0. -1.
    9900018    1    1    2    0    0  0.82341043838E+02  0.94556343714E+02  0.18455051033E+03  0.24102908309E+03  0.91187600000E+02 0.  0.
<mgrwt>
<rscale>  0 0.12638007E+04</rscale>
<asrwt>0</asrwt>
<pdfrwt beam="1">  1        1 0.66624931E-01 0.12638007E+04</pdfrwt>
<pdfrwt beam="2">  1       -1 0.14185143E+00 0.12638007E+04</pdfrwt>
<totfact> 0.21518453E+01</totfact>
</mgrwt>
</event>
<event>
11    1  0.2059453E-017  0.1808592E+04  0.7818608E-02  0.8701744E-01
          5   -1    0    0  501    0  0.00000000000E+00  0.00000000000E+00  0.63495635871E+03  0.63495635871E+03  0.00000000000E+00 0. -1.
         -5   -1    0    0    0  501 -0.00000000000E+00 -0.00000000000E+00 -0.12878851756E+04  0.12878851756E+04  0.00000000000E+00 0.  1.
    9900016    2    1    2    0    0 -0.13747114338E+02 -0.26213382402E+03 -0.12640693100E+03  0.74592034691E+03  0.68666973640E+03 0.  0.
        -24    2    3    3    0    0 -0.16105042186E+03 -0.81798637337E+02  0.24005452704E+03  0.31173945812E+03  0.83228951339E+02 0.  0.
        -15    1    3    3    0    0  0.14730330753E+03 -0.18033518668E+03 -0.36646145804E+03  0.43418088880E+03  0.00000000000E+00 0.  1.
        -15    1    4    4    0    0 -0.19302539794E+02 -0.20744339742E+02  0.10357844043E+02  0.30169531104E+02  0.00000000000E+00 0.  1.
         15    1    4    4    0    0 -0.12445350990E+02  0.85848530783E+00  0.37961417517E+02  0.39958640845E+02  0.00000000000E+00 0. -1.
         15    1    4    4    0    0 -0.67208537957E+02 -0.24420519350E+02  0.71040274216E+02  0.10079717208E+03  0.00000000000E+00 0. -1.
        -16    1    1    2    0    0 -0.98997698521E+02  0.42361273377E+03 -0.74896763133E+03  0.86614133102E+03  0.00000000000E+00 0.  1.
         16    1    4    4    0    0 -0.62093993123E+02 -0.37492263553E+02  0.12069499127E+03  0.14081411408E+03  0.00000000000E+00 0. -1.
    9900018    1    1    2    0    0  0.11274481286E+03 -0.16147890975E+03  0.22244574539E+03  0.31077985642E+03  0.91187600000E+02 0.  0.
<mgrwt>
<rscale>  0 0.18085916E+04</rscale>
<asrwt>0</asrwt>
<pdfrwt beam="1">  1        5 0.97685593E-01 0.18085916E+04</pdfrwt>
<pdfrwt beam="2">  1       -5 0.19813618E+00 0.18085916E+04</pdfrwt>
<totfact> 0.88816850E-02</totfact>
</mgrwt>
</event>
<event>
11    1  0.2059453E-017  0.1746921E+04  0.7818608E-02  0.8735047E-01
         -2   -1    0    0    0  501 -0.00000000000E+00  0.00000000000E+00  0.86891425964E+03  0.86891425964E+03  0.00000000000E+00 0.  1.
          2   -1    0    0  501    0  0.00000000000E+00 -0.00000000000E+00 -0.87803087751E+03  0.87803087751E+03  0.00000000000E+00 0. -1.
    9900016    2    1    2    0    0 -0.15504987851E+03 -0.12230579486E+03  0.28330721016E+03  0.79840134818E+03  0.71984898775E+03 0.  0.
        -24    2    3    3    0    0 -0.40010678850E+02 -0.21319364361E+03 -0.19233907244E+03  0.30067250166E+03  0.79732367122E+02 0.  0.
        -15    1    3    3    0    0 -0.11503919966E+03  0.90887848746E+02  0.47564628260E+03  0.49772884652E+03  0.00000000000E+00 0.  1.
        -15    1    4    4    0    0 -0.18452403397E+02 -0.81055284769E+02 -0.82006581784E+02  0.11677127145E+03  0.00000000000E+00 0.  1.
         15    1    4    4    0    0 -0.20769734423E+02 -0.61677872522E+02 -0.31541805721E+02  0.72321693391E+02  0.00000000000E+00 0. -1.
         15    1    4    4    0    0  0.11034872930E+02 -0.58321874243E+01 -0.71945128576E+01  0.14406382127E+02  0.00000000000E+00 0. -1.
        -16    1    1    2    0    0 -0.38308675982E+02  0.33267000798E+03  0.18661692008E+03  0.38335722730E+03  0.00000000000E+00 0.  1.
         16    1    4    4    0    0 -0.11823413959E+02 -0.64628298893E+02 -0.71596172081E+02  0.97173154688E+02  0.00000000000E+00 0. -1.
    9900018    1    1    2    0    0  0.19335855449E+03 -0.21036421311E+03 -0.47904074811E+03  0.56518656167E+03  0.91187600000E+02 0.  0.
<mgrwt>
<rscale>  0 0.17469213E+04</rscale>
<asrwt>0</asrwt>
<pdfrwt beam="1">  1        2 0.13508167E+00 0.17469213E+04</pdfrwt>
<pdfrwt beam="2">  1       -2 0.13367912E+00 0.17469213E+04</pdfrwt>
<totfact> 0.11638920E+01</totfact>
</mgrwt>
</event>
<event>
12    1  0.2059453E-017  0.2550143E+04  0.7818608E-02  0.8385336E-01
          1   -1    0    0  501    0  0.00000000000E+00  0.00000000000E+00  0.14369042151E+04  0.14369042151E+04  0.00000000000E+00 0. -1.
         -1   -1    0    0    0  501 -0.00000000000E+00 -0.00000000000E+00 -0.11314654114E+04  0.11314654114E+04  0.00000000000E+00 0.  1.
    9900016    2    1    2    0    0 -0.83399364587E+03 -0.41705693889E+03  0.41495693231E+03  0.12396800702E+04  0.70365867385E+03 0.  0.
         24    2    3    3    0    0  0.82944288018E+02  0.42536295697E+02 -0.22425679193E+02  0.12464434673E+03  0.79650553787E+02 0.  0.
         23    2    4    4    0    0  0.54422886917E+02  0.34685596972E+02 -0.16016580445E+02  0.89817789003E+02  0.60380154974E+02 0.  0.
        -15    1    4    4    0    0  0.20269381057E+02  0.48382650697E+01  0.39860707395E+01  0.21216629734E+02  0.00000000000E+00 0.  1.
        -15    1    5    5    0    0  0.54309833738E+02  0.16116904550E+02 -0.32220625749E+02  0.65172704230E+02  0.00000000000E+00 0.  1.
         15    1    3    3    0    0 -0.91693793389E+03 -0.45959323458E+03  0.43738261150E+03  0.11150357235E+04  0.00000000000E+00 0. -1.
         15    1    5    5    0    0  0.11305317824E+00  0.18568692422E+02  0.16204045304E+02  0.24645084774E+02  0.00000000000E+00 0. -1.
        -16    1    4    4    0    0  0.82520200442E+01  0.30124336557E+01 -0.10395169488E+02  0.13609927994E+02  0.00000000000E+00 0.  1.
         16    1    1    2    0    0  0.27306028158E+03  0.37595277478E+03  0.36206932939E+03  0.58906417777E+03  0.00000000000E+00 0. -1.
    9900018    1    1    2    0    0  0.56093336428E+03  0.41104164107E+02 -0.47158745798E+03  0.73962537842E+03  0.91187600000E+02 0.  0.
<mgrwt>
<rscale>  0 0.25501431E+04</rscale>
<asrwt>0</asrwt>
<pdfrwt beam="1">  1        1 0.22106219E+00 0.25501431E+04</pdfrwt>
<pdfrwt beam="2">  1       -1 0.17407160E+00 0.25501431E+04</pdfrwt>
<totfact> 0.14710581E+00</totfact>
</mgrwt>
</event>
<event>
11    1  0.2059453E-017  0.2017618E+04  0.7818608E-02  0.8598428E-01
         -2   -1    0    0    0  501 -0.00000000000E+00  0.00000000000E+00  0.13631230966E+04  0.13631230966E+04  0.00000000000E+00 0.  1.
          2   -1    0    0  501    0  0.00000000000E+00 -0.00000000000E+00 -0.74659142379E+03  0.74659142379E+03  0.00000000000E+00 0. -1.
    9900016    2    1    2    0    0  0.11719006863E+03 -0.96110753043E+02  0.33468891464E+03  0.80471763442E+03  0.71594902928E+03 0.  0.
        -24    2    3    3    0    0 -0.17739597791E+03 -0.16874836293E+03 -0.98519209950E+02  0.27582592491E+03  0.80178320967E+02 0.  0.
        -15    1    4    4    0    0 -0.36027308245E+02 -0.23140994533E+02 -0.43102106495E+02  0.60755774636E+02  0.00000000000E+00 0.  1.
        -15    1    3    3    0    0  0.29458604653E+03  0.72637609887E+02  0.43320812459E+03  0.52889170951E+03  0.00000000000E+00 0.  1.
         15    1    4    4    0    0 -0.56793732720E+01 -0.15953190593E+02  0.32987913462E+01  0.17252292463E+02  0.00000000000E+00 0. -1.
         15    1    4    4    0    0 -0.81136548421E+02 -0.72855775116E+02 -0.44575642836E+02  0.11780531139E+03  0.00000000000E+00 0. -1.
        -16    1    1    2    0    0  0.27611591569E+03 -0.31863397887E+03  0.52828508300E+03  0.67590882544E+03  0.00000000000E+00 0.  1.
         16    1    4    4    0    0 -0.54552747969E+02 -0.56798402688E+02 -0.14140251965E+02  0.80012546419E+02  0.00000000000E+00 0. -1.
    9900018    1    1    2    0    0 -0.39330598432E+03  0.41474473192E+03 -0.24644232488E+03  0.62908806048E+03  0.91187600000E+02 0.  0.
<mgrwt>
<rscale>  0 0.20176184E+04</rscale>
<asrwt>0</asrwt>
<pdfrwt beam="1">  1        2 0.11486022E+00 0.20176184E+04</pdfrwt>
<pdfrwt beam="2">  1       -2 0.20971124E+00 0.20176184E+04</pdfrwt>
<totfact> 0.40224105E+00</totfact>
</mgrwt>
</event>
<event>
11    1  0.2059453E-017  0.1376807E+04  0.7818608E-02  0.8970780E-01
         -2   -1    0    0    0  501 -0.00000000000E+00  0.00000000000E+00  0.74170693860E+03  0.74170693860E+03  0.00000000000E+00 0. -1.
          2   -1    0    0  501    0  0.00000000000E+00 -0.00000000000E+00 -0.63893063822E+03  0.63893063822E+03  0.00000000000E+00 0.  1.
    9900016    2    1    2    0    0  0.12064122989E+03 -0.30702212362E+03  0.17367495322E+02  0.78417972530E+03  0.71120975875E+03 0.  0.
         24    2    3    3    0    0  0.31362669411E+03 -0.62155834652E+01 -0.18551065850E+03  0.37322047026E+03  0.80492100663E+02 0.  0.
        -15    1    4    4    0    0  0.64578842983E+02  0.17113574604E+02 -0.49879985009E+02  0.83374542285E+02  0.00000000000E+00 0.  1.
        -15    1    4    4    0    0  0.19456953513E+03 -0.27208873249E+02 -0.10480133734E+03  0.22266779536E+03  0.00000000000E+00 0.  1.
         15    1    4    4    0    0  0.28079369427E+02  0.84308450181E+01 -0.45808460510E+01  0.29673460966E+02  0.00000000000E+00 0. -1.
         15    1    3    3    0    0 -0.19298546422E+03 -0.30080654016E+03  0.20287815382E+03  0.41095925504E+03  0.00000000000E+00 0. -1.
        -16    1    4    4    0    0  0.26398946577E+02 -0.45511298388E+01 -0.26248490103E+02  0.37504671654E+02  0.00000000000E+00 0.  1.
         16    1    1    2    0    0 -0.16882695094E+03 -0.81052092840E+02  0.46979315207E+02  0.19307780084E+03  0.00000000000E+00 0. -1.
    9900018    1    1    2    0    0  0.48185721051E+02  0.38807421646E+03  0.38429489851E+02  0.40338005067E+03  0.91187600000E+02 0.  0.
<mgrwt>
<rscale>  0 0.13768069E+04</rscale>
<asrwt>0</asrwt>
<pdfrwt beam="1">  1        2 0.98297022E-01 0.13768069E+04</pdfrwt>
<pdfrwt beam="2">  1       -2 0.11410876E+00 0.13768069E+04</pdfrwt>
<totfact> 0.26907106E+01</totfact>
</mgrwt>
</event>
<event>
11    1  0.2059453E-017  0.2855423E+04  0.7818608E-02  0.8286265E-01
          3   -1    0    0  501    0  0.00000000000E+00  0.00000000000E+00  0.54376344895E+03  0.54376344895E+03  0.00000000000E+00 0. -1.
         -3   -1    0    0    0  501 -0.00000000000E+00 -0.00000000000E+00 -0.37486166537E+04  0.37486166537E+04  0.00000000000E+00 0.  1.
    9900016    2    1    2    0    0  0.19613020919E+03 -0.70565582619E+03 -0.19046093442E+04  0.21609026754E+04  0.71101787227E+03 0.  0.
         24    2    3    3    0    0 -0.15755085756E+03 -0.26513926836E+03 -0.12790715158E+04  0.13180250393E+04  0.77749323907E+02 0.  0.
        -15    1    4    4    0    0 -0.29907692940E+01 -0.21773657920E+02 -0.10666587715E+03  0.10890659405E+03  0.00000000000E+00 0.  1.
        -15    1    4    4    0    0 -0.22287490204E+02 -0.22323067242E+02 -0.11379283278E+03  0.11808412401E+03  0.00000000000E+00 0.  1.
         15    1    3    3    0    0  0.35368106675E+03 -0.44051655783E+03 -0.62553782834E+03  0.84287763606E+03  0.00000000000E+00 0. -1.
         15    1    4    4    0    0 -0.14610764079E+02 -0.24506627347E+01 -0.41508993758E+02  0.44073537838E+02  0.00000000000E+00 0. -1.
        -16    1    4    4    0    0 -0.11766183398E+03 -0.21859188047E+03 -0.10171038121E+04  0.10469607834E+04  0.00000000000E+00 0.  1.
         16    1    1    2    0    0  0.17984107771E+03  0.18030240387E+03  0.30581180896E+03  0.39796059174E+03  0.00000000000E+00 0. -1.
    9900018    1    1    2    0    0 -0.37597128691E+03  0.52535342232E+03 -0.16060556696E+04  0.17335168355E+04  0.91187600000E+02 0.  0.
<mgrwt>
<rscale>  0 0.28554234E+04</rscale>
<asrwt>0</asrwt>
<pdfrwt beam="1">  1        3 0.83655911E-01 0.28554234E+04</pdfrwt>
<pdfrwt beam="2">  1       -3 0.57671028E+00 0.28554234E+04</pdfrwt>
<totfact> 0.35658478E-03</totfact>
</mgrwt>
</event>
<event>
11    1  0.2059453E-017  0.1989155E+04  0.7818608E-02  0.8611708E-01
          2   -1    0    0  501    0  0.00000000000E+00  0.00000000000E+00  0.19050541332E+04  0.19050541332E+04  0.00000000000E+00 0. -1.
         -2   -1    0    0    0  501 -0.00000000000E+00 -0.00000000000E+00 -0.51924216017E+03  0.51924216017E+03  0.00000000000E+00 0.  1.
    9900016    2    1    2    0    0  0.68801205693E+03 -0.11784734338E+03  0.69984038823E+03  0.12175987902E+04  0.71100046285E+03 0.  0.
        -24    2    3    3    0    0  0.16291443899E+03 -0.30456080847E+02 -0.13455421715E+03  0.22786190672E+03  0.79671349228E+02 0.  0.
        -15    1    4    4    0    0  0.34640273815E+02 -0.12931018038E+02 -0.17912506572E+01  0.37018486954E+02  0.00000000000E+00 0.  1.
        -15    1    3    3    0    0  0.52509761794E+03 -0.87391262537E+02  0.83439460537E+03  0.98973688353E+03  0.00000000000E+00 0.  1.
         15    1    4    4    0    0  0.28396286719E+02 -0.62919583357E+01 -0.13809312775E+02  0.32196815967E+02  0.00000000000E+00 0. -1.
         15    1    4    4    0    0  0.43941077765E+02 -0.19401464634E+02 -0.61633471829E+02  0.78140386452E+02  0.00000000000E+00 0. -1.
        -16    1    1    2    0    0 -0.25997178425E+03 -0.27110819509E+03  0.12510112379E+03  0.39589805913E+03  0.00000000000E+00 0.  1.
         16    1    4    4    0    0  0.55936800696E+02  0.81683601612E+01 -0.57320181884E+02  0.80506217344E+02  0.00000000000E+00 0. -1.
    9900018    1    1    2    0    0 -0.42804027268E+03  0.38895553847E+03  0.56087046101E+03  0.81079944398E+03  0.91187600000E+02 0.  0.
<mgrwt>
<rscale>  0 0.19891550E+04</rscale>
<asrwt>0</asrwt>
<pdfrwt beam="1">  1        2 0.29308525E+00 0.19891550E+04</pdfrwt>
<pdfrwt beam="2">  1       -2 0.79883410E-01 0.19891550E+04</pdfrwt>
<totfact> 0.97285369E+00</totfact>
</mgrwt>
</event>
<event>
11    1  0.2059453E-017  0.3270455E+04  0.7818608E-02  0.8170454E-01
         -1   -1    0    0    0  501 -0.00000000000E+00  0.00000000000E+00  0.21627659310E+04  0.21627659310E+04  0.00000000000E+00 0.  1.
          1   -1    0    0  501    0  0.00000000000E+00 -0.00000000000E+00 -0.12363651003E+04  0.12363651003E+04  0.00000000000E+00 0. -1.
    9900016    2    1    2    0    0 -0.19151644622E+03  0.36617534730E+03  0.15245370546E+04  0.17309453097E+04  0.70795162263E+03 0.  0.
         24    2    3    3    0    0  0.20354625708E+02 -0.19659298170E+03  0.48991884994E+03  0.53426975935E+03  0.79753275752E+02 0.  0.
        -15    1    4    4    0    0  0.26107071417E+02 -0.11341436654E+03  0.25437245905E+03  0.27973155996E+03  0.00000000000E+00 0.  1.
        -15    1    4    4    0    0 -0.74925619238E+01 -0.10201752496E+02  0.18232013474E+02  0.22195056960E+02  0.00000000000E+00 0.  1.
         15    1    4    4    0    0 -0.16742005016E+02 -0.49859674234E+02  0.14104826060E+03  0.15053535686E+03  0.00000000000E+00 0. -1.
         15    1    3    3    0    0 -0.21187107193E+03  0.56276832900E+03  0.10346182047E+04  0.11966755503E+04  0.00000000000E+00 0. -1.
        -16    1    4    4    0    0  0.18482121230E+02 -0.23117188434E+02  0.76266116818E+02  0.81807785576E+02  0.00000000000E+00 0.  1.
         16    1    1    2    0    0 -0.29087105534E+03 -0.42307440959E+03 -0.93735511099E+03  0.10687527923E+04  0.00000000000E+00 0. -1.
    9900018    1    1    2    0    0  0.48238750156E+03  0.56899062292E+02  0.33921888709E+03  0.59943292928E+03  0.91187600000E+02 0.  0.
<mgrwt>
<rscale>  0 0.32704546E+04</rscale>
<asrwt>0</asrwt>
<pdfrwt beam="1">  1        1 0.19021001E+00 0.32704546E+04</pdfrwt>
<pdfrwt beam="2">  1       -1 0.33273322E+00 0.32704546E+04</pdfrwt>
<totfact> 0.16883164E-01</totfact>
</mgrwt>
</event>
<event>
11    1  0.2059453E-017  0.1506929E+04  0.7818608E-02  0.8879858E-01
         -3   -1    0    0    0  501 -0.00000000000E+00  0.00000000000E+00  0.81662220939E+03  0.81662220939E+03  0.00000000000E+00 0.  1.
          3   -1    0    0  501    0  0.00000000000E+00 -0.00000000000E+00 -0.69519181523E+03  0.69519181523E+03  0.00000000000E+00 0. -1.
    9900016    2    1    2    0    0  0.47300878139E+02 -0.28488628040E+03 -0.15989051817E+03  0.77725956567E+03  0.70368308833E+03 0.  0.
        -24    2    3    3    0    0 -0.48988429360E+02  0.19377255501E+03 -0.19111905570E+03  0.28801409251E+03  0.80485742531E+02 0.  0.
        -15    1    4    4    0    0 -0.47734917874E+02  0.92232323206E+02 -0.64910142004E+02  0.12246938541E+03  0.00000000000E+00 0.  1.
        -15    1    3    3    0    0  0.96289307500E+02 -0.47865883541E+03  0.31228537528E+02  0.48924547316E+03  0.00000000000E+00 0.  1.
         15    1    4    4    0    0 -0.42550241785E+01  0.15806333778E+02 -0.26614894220E+02  0.31245767915E+02  0.00000000000E+00 0. -1.
         15    1    4    4    0    0  0.13562408867E+02  0.38528252756E+02 -0.36360837711E+02  0.54685242193E+02  0.00000000000E+00 0. -1.
        -16    1    1    2    0    0  0.10322211580E+02  0.41652838370E+03  0.35663398094E+03  0.54844346914E+03  0.00000000000E+00 0.  1.
         16    1    4    4    0    0 -0.10560896175E+02  0.47205645268E+02 -0.63233181761E+02  0.79613696993E+02  0.00000000000E+00 0. -1.
    9900018    1    1    2    0    0 -0.57623089719E+02 -0.13164210330E+03 -0.75313068613E+02  0.18611098981E+03  0.91187600000E+02 0.  0.
<mgrwt>
<rscale>  0 0.15069294E+04</rscale>
<asrwt>0</asrwt>
<pdfrwt beam="1">  1        3 0.10695259E+00 0.15069294E+04</pdfrwt>
<pdfrwt beam="2">  1       -3 0.12563419E+00 0.15069294E+04</pdfrwt>
<totfact> 0.95386311E-01</totfact>
</mgrwt>
</event>
<event>
11    1  0.2059453E-017  0.1564241E+04  0.7818608E-02  0.8842823E-01
          2   -1    0    0  501    0  0.00000000000E+00  0.00000000000E+00  0.13015815289E+04  0.13015815289E+04  0.00000000000E+00 0. -1.
         -2   -1    0    0    0  501 -0.00000000000E+00 -0.00000000000E+00 -0.46997614237E+03  0.46997614237E+03  0.00000000000E+00 0.  1.
    9900016    2    1    2    0    0  0.31479444441E+01  0.20437793112E+03  0.19786029900E+03  0.75735266089E+03  0.70189323031E+03 0.  0.
         24    2    3    3    0    0 -0.12263837970E+03 -0.22987568324E+03  0.12441833848E+03  0.29932196051E+03  0.78934853948E+02 0.  0.
        -15    1    4    4    0    0 -0.58108801020E+02 -0.80163175814E+02  0.44007078813E+02  0.10834846791E+03  0.00000000000E+00 0.  1.
        -15    1    4    4    0    0 -0.11818308794E+02 -0.66525809803E+02  0.21304828576E+02  0.70846676093E+02  0.00000000000E+00 0. -1.
         15    1    3    3    0    0  0.12578632414E+03  0.43425361436E+03  0.73441960520E+02  0.45803070038E+03  0.00000000000E+00 0. -1.
         15    1    4    4    0    0 -0.25454565969E+02 -0.11725398492E+02  0.17833037164E+02  0.33218023918E+02  0.00000000000E+00 0.  1.
        -16    1    4    4    0    0 -0.27256703917E+02 -0.71461299134E+02  0.41273393929E+02  0.86908792586E+02  0.00000000000E+00 0.  1.
         16    1    1    2    0    0  0.12365680821E+03  0.97528993899E+02  0.65495970589E+03  0.67362833017E+03  0.00000000000E+00 0. -1.
    9900018    1    1    2    0    0 -0.12680475265E+03 -0.30190692502E+03 -0.21214618384E+02  0.34057668020E+03  0.91187600000E+02 0.  0.
<mgrwt>
<rscale>  0 0.15642407E+04</rscale>
<asrwt>0</asrwt>
<pdfrwt beam="1">  1        2 0.20024331E+00 0.15642407E+04</pdfrwt>
<pdfrwt beam="2">  1       -2 0.72304022E-01 0.15642407E+04</pdfrwt>
<totfact> 0.27464414E+01</totfact>
</mgrwt>
</event>
<event>
12    1  0.2059453E-017  0.3827788E+04  0.7818608E-02  0.8040218E-01
         -1   -1    0    0    0  501 -0.00000000000E+00  0.00000000000E+00  0.17522941108E+04  0.17522941108E+04  0.00000000000E+00 0.  1.
          1   -1    0    0  501    0  0.00000000000E+00 -0.00000000000E+00 -0.20903971587E+04  0.20903971587E+04  0.00000000000E+00 0. -1.
    9900016    2    1    2    0    0 -0.51282184939E+03 -0.63421109903E+03 -0.21248272199E+03  0.11337452992E+04  0.75830042138E+03 0.  0.
        -24    2    3    3    0    0  0.17713854853E+03 -0.16520586736E+03 -0.15274879309E+03  0.29733666688E+03  0.80036589738E+02 0.  0.
         23    2    4    4    0    0  0.14499125331E+03 -0.11325813111E+03 -0.12696775345E+03  0.23042001567E+03  0.55881172212E+02 0.  0.
        -15    1    3    3    0    0 -0.68996039792E+03 -0.46900523166E+03 -0.59733928897E+02  0.83640863236E+03  0.00000000000E+00 0.  1.
        -15    1    5    5    0    0  0.13029219014E+03 -0.77781986446E+02 -0.86648235072E+02  0.17473983194E+03  0.00000000000E+00 0.  1.
         15    1    4    4    0    0  0.26776313566E+02 -0.36494415394E+02 -0.20807144681E+02  0.49817171667E+02  0.00000000000E+00 0. -1.
         15    1    5    5    0    0  0.14699063178E+02 -0.35476144661E+02 -0.40319518375E+02  0.55680183731E+02  0.00000000000E+00 0. -1.
        -16    1    1    2    0    0 -0.48966838064E+03  0.12217505805E+04  0.47303131276E+03  0.13986451397E+04  0.00000000000E+00 0.  1.
         16    1    4    4    0    0  0.53709816462E+01 -0.15453320863E+02 -0.49738949608E+01  0.17099479542E+02  0.00000000000E+00 0. -1.
    9900018    1    1    2    0    0  0.10024902300E+04 -0.58753948151E+03 -0.59865163862E+03  0.13103008305E+04  0.91187600000E+02 0.  0.
<mgrwt>
<rscale>  0 0.38277882E+04</rscale>
<asrwt>0</asrwt>
<pdfrwt beam="1">  1        1 0.32159956E+00 0.38277882E+04</pdfrwt>
<pdfrwt beam="2">  1       -1 0.26958371E+00 0.38277882E+04</pdfrwt>
<totfact> 0.10678028E-01</totfact>
</mgrwt>
</event>
<event>
11    1  0.2059453E-017  0.2108678E+04  0.7818608E-02  0.8557430E-01
         -2   -1    0    0    0  501 -0.00000000000E+00  0.00000000000E+00  0.55298976414E+03  0.55298976414E+03  0.00000000000E+00 0.  1.
          2   -1    0    0  501    0  0.00000000000E+00 -0.00000000000E+00 -0.20102185808E+04  0.20102185808E+04  0.00000000000E+00 0. -1.
    9900016    2    1    2    0    0  0.34536405443E+03  0.23555082579E+03  0.41271048660E+02  0.83452013248E+03  0.72108254065E+03 0.  0.
         24    2    3    3    0    0 -0.11011029827E+03 -0.15847305080E+03 -0.68948669627E+02  0.22226194544E+03  0.86072456281E+02 0.  0.
        -15    1    4    4    0    0 -0.52787877997E+01 -0.64466707370E+02 -0.20154092853E+02  0.67749608253E+02  0.00000000000E+00 0.  1.
        -15    1    4    4    0    0 -0.13839861387E+02 -0.26298164094E+01 -0.11262122657E+02  0.18035883796E+02  0.00000000000E+00 0.  1.
         15    1    3    3    0    0  0.45547435270E+03  0.39402387659E+03  0.11021971829E+03  0.61225818704E+03  0.00000000000E+00 0. -1.
         15    1    4    4    0    0 -0.52270574036E+02 -0.38907706272E+02 -0.11037054069E+02  0.66089629141E+02  0.00000000000E+00 0. -1.
        -16    1    4    4    0    0 -0.38721075052E+02 -0.52468820751E+02 -0.26495400048E+02  0.70386824249E+02  0.00000000000E+00 0.  1.
         16    1    1    2    0    0  0.15518045249E+03 -0.13231481212E+03 -0.95716077502E+03  0.97864443572E+03  0.00000000000E+00 0. -1.
    9900018    1    1    2    0    0 -0.50054450691E+03 -0.10323601367E+03 -0.54133909026E+03  0.75004377670E+03  0.91187600000E+02 0.  0.
<mgrwt>
<rscale>  0 0.21086776E+04</rscale>
<asrwt>0</asrwt>
<pdfrwt beam="1">  1        2 0.30926439E+00 0.21086776E+04</pdfrwt>
<pdfrwt beam="2">  1       -2 0.85075349E-01 0.21086776E+04</pdfrwt>
<totfact> 0.73015462E+00</totfact>
</mgrwt>
</event>
<event>
11    1  0.2059453E-017  0.1848185E+04  0.7818608E-02  0.8681087E-01
         -2   -1    0    0    0  501 -0.00000000000E+00  0.00000000000E+00  0.29520220712E+03  0.29520220712E+03  0.00000000000E+00 0.  1.
          2   -1    0    0  501    0  0.00000000000E+00 -0.00000000000E+00 -0.28927538578E+04  0.28927538578E+04  0.00000000000E+00 0. -1.
    9900016    2    1    2    0    0 -0.26246753440E+03 -0.92773057743E+02 -0.81720391787E+03  0.11218817079E+04  0.71644977236E+03 0.  0.
         24    2    3    3    0    0  0.18743322358E+03  0.14281832111E+02 -0.26923638080E+02  0.20623201393E+03  0.80446113964E+02 0.  0.
        -15    1    4    4    0    0  0.42097909843E+02  0.13510741074E+02 -0.57949935062E+01  0.44590986615E+02  0.00000000000E+00 0.  1.
        -15    1    4    4    0    0  0.14910442527E+02 -0.14508967512E+01 -0.15597290070E+02  0.21626415683E+02  0.00000000000E+00 0.  1.
         15    1    4    4    0    0  0.71893098608E+02 -0.43150066208E+00  0.22127406831E+02  0.75222509618E+02  0.00000000000E+00 0. -1.
         15    1    3    3    0    0 -0.44990075798E+03 -0.10705488985E+03 -0.79028027979E+03  0.91564969399E+03  0.00000000000E+00 0. -1.
        -16    1    4    4    0    0  0.58531772600E+02  0.26534884506E+01 -0.27658761334E+02  0.64792102013E+02  0.00000000000E+00 0.  1.
         16    1    1    2    0    0  0.32864422868E+03  0.30556141244E+02 -0.18765698633E+04  0.19053753328E+04  0.00000000000E+00 0. -1.
    9900018    1    1    2    0    0 -0.66176694286E+02  0.62216916498E+02  0.96222130574E+02  0.16069902418E+03  0.91187600000E+02 0.  0.
<mgrwt>
<rscale>  0 0.18481854E+04</rscale>
<asrwt>0</asrwt>
<pdfrwt beam="1">  1        2 0.44503906E+00 0.18481854E+04</pdfrwt>
<pdfrwt beam="2">  1       -2 0.45415724E-01 0.18481854E+04</pdfrwt>
<totfact> 0.88009664E+00</totfact>
</mgrwt>
</event>
<event>
11    1  0.2059453E-017  0.1813828E+04  0.7818608E-02  0.8698980E-01
          2   -1    0    0  501    0  0.00000000000E+00  0.00000000000E+00  0.88816823405E+03  0.88816823405E+03  0.00000000000E+00 0.  1.
         -2   -1    0    0    0  501 -0.00000000000E+00 -0.00000000000E+00 -0.92605527426E+03  0.92605527426E+03  0.00000000000E+00 0. -1.
    9900016    2    1    2    0    0  0.14629134719E+03 -0.13488906858E+03 -0.36479418767E+03  0.82590166356E+03  0.71375243567E+03 0.  0.
        -24    2    3    3    0    0  0.25499675587E+03  0.11334276839E+03 -0.45544893059E+03  0.54014968513E+03  0.80361839927E+02 0.  0.
        -15    1    4    4    0    0  0.73674025782E+02  0.24225827420E+02 -0.16493702981E+03  0.18226073793E+03  0.00000000000E+00 0.  1.
        -15    1    3    3    0    0 -0.10870540868E+03 -0.24823183697E+03  0.90654742926E+02  0.28575197843E+03  0.00000000000E+00 0.  1.
         15    1    4    4    0    0  0.29114471278E+02  0.36056614538E+02 -0.83632040296E+02  0.95614068284E+02  0.00000000000E+00 0. -1.
         15    1    4    4    0    0  0.11568667857E+03  0.40137061010E+02 -0.15545741452E+03  0.19789239247E+03  0.00000000000E+00 0. -1.
        -16    1    1    2    0    0 -0.32720322234E+03  0.30805133555E+03  0.49864261281E+03  0.67126896946E+03  0.00000000000E+00 0.  1.
         16    1    4    4    0    0  0.36521580234E+02  0.12923265421E+02 -0.51422445963E+02  0.64382486445E+02  0.00000000000E+00 0. -1.
    9900018    1    1    2    0    0  0.18091187516E+03 -0.17316226697E+03 -0.17173546536E+03  0.31705287529E+03  0.91187600000E+02 0.  0.
<mgrwt>
<rscale>  0 0.18138279E+04</rscale>
<asrwt>0</asrwt>
<pdfrwt beam="1">  1        2 0.13664127E+00 0.18138279E+04</pdfrwt>
<pdfrwt beam="2">  1       -2 0.14247004E+00 0.18138279E+04</pdfrwt>
<totfact> 0.96639158E+00</totfact>
</mgrwt>
</event>
<event>
11    1  0.2059453E-017  0.1718479E+04  0.7818608E-02  0.8750895E-01
          2   -1    0    0  501    0  0.00000000000E+00  0.00000000000E+00  0.15285306158E+04  0.15285306158E+04  0.00000000000E+00 0. -1.
         -2   -1    0    0    0  501 -0.00000000000E+00 -0.00000000000E+00 -0.48300808004E+03  0.48300808004E+03  0.00000000000E+00 0.  1.
    9900016    2    1    2    0    0  0.58592646613E+03  0.12011047414E+03  0.25899940624E+03  0.95989385064E+03  0.70468373215E+03 0.  0.
        -24    2    3    3    0    0 -0.18462694300E+02  0.10439482304E+03  0.32535389878E+03  0.35167007799E+03  0.81101998382E+02 0.  0.
        -15    1    3    3    0    0  0.60438916043E+03  0.15715651100E+02 -0.66354492543E+02  0.60822377265E+03  0.00000000000E+00 0.  1.
        -15    1    4    4    0    0 -0.87389587132E+01  0.48126604970E+02  0.55143490181E+02  0.73711220412E+02  0.00000000000E+00 0.  1.
         15    1    4    4    0    0  0.83547359756E+01  0.95453415654E+01  0.33122828003E+02  0.35468815792E+02  0.00000000000E+00 0. -1.
         15    1    4    4    0    0 -0.10300776537E+02  0.14874205460E+02  0.87871532085E+02  0.89714849029E+02  0.00000000000E+00 0. -1.
        -16    1    1    2    0    0 -0.38651134353E+03 -0.22980983866E+03  0.55630999635E+03  0.71532118147E+03  0.00000000000E+00 0.  1.
         16    1    4    4    0    0 -0.77776950254E+01  0.31848671040E+02  0.14921604851E+03  0.15277519275E+03  0.00000000000E+00 0. -1.
    9900018    1    1    2    0    0 -0.19941512260E+03  0.10969936452E+03  0.23021313315E+03  0.33632366370E+03  0.91187600000E+02 0.  0.
<mgrwt>
<rscale>  0 0.17184791E+04</rscale>
<asrwt>0</asrwt>
<pdfrwt beam="1">  1        2 0.23515855E+00 0.17184791E+04</pdfrwt>
<pdfrwt beam="2">  1       -2 0.74308936E-01 0.17184791E+04</pdfrwt>
<totfact> 0.18942516E+01</totfact>
</mgrwt>
</event>
<event>
11    1  0.2059453E-017  0.9511963E+03  0.7818608E-02  0.9363753E-01
          2   -1    0    0  501    0  0.00000000000E+00  0.00000000000E+00  0.10652881778E+04  0.10652881778E+04  0.00000000000E+00 0. -1.
         -2   -1    0    0    0  501 -0.00000000000E+00 -0.00000000000E+00 -0.21233092369E+03  0.21233092369E+03  0.00000000000E+00 0.  1.
    9900016    2    1    2    0    0 -0.45228246767E+02 -0.24594407956E+02  0.57783091467E+03  0.91614345883E+03  0.70906966653E+03 0.  0.
        -24    2    3    3    0    0  0.14577832260E+03 -0.56326268481E+02  0.67602956715E+03  0.69904118831E+03  0.84962576634E+02 0.  0.
        -15    1    3    3    0    0 -0.19100656937E+03  0.31731860525E+02 -0.98198652480E+02  0.21710227052E+03  0.00000000000E+00 0.  1.
        -15    1    4    4    0    0  0.49028934138E+02  0.70364630129E+01  0.22005331392E+03  0.22555888181E+03  0.00000000000E+00 0. -1.
         15    1    4    4    0    0  0.15370102063E+02 -0.25408137834E+02  0.13017122063E+03  0.13351539307E+03  0.00000000000E+00 0.  1.
         15    1    4    4    0    0  0.77907513011E+02 -0.36670068426E+02  0.32495385097E+03  0.33616852881E+03  0.00000000000E+00 0. -1.
        -16    1    1    2    0    0  0.87889820311E+02 -0.63902034933E+01  0.27397255515E+02  0.92282527191E+02  0.00000000000E+00 0.  1.
         16    1    4    4    0    0  0.34717733919E+01 -0.12845252342E+01  0.85118162438E+00  0.37983846198E+01  0.00000000000E+00 0. -1.
    9900018    1    1    2    0    0 -0.42661573544E+02  0.30984611449E+02  0.24772908390E+03  0.26919311546E+03  0.91187600000E+02 0.  0.
<mgrwt>
<rscale>  0 0.95119635E+03</rscale>
<asrwt>0</asrwt>
<pdfrwt beam="1">  1        2 0.16389049E+00 0.95119635E+03</pdfrwt>
<pdfrwt beam="2">  1       -2 0.32666297E-01 0.95119635E+03</pdfrwt>
<totfact> 0.19988875E+02</totfact>
</mgrwt>
</event>
<event>
11    1  0.2059453E-017  0.2107269E+04  0.7818608E-02  0.8558048E-01
          2   -1    0    0  501    0  0.00000000000E+00  0.00000000000E+00  0.13385621234E+04  0.13385621234E+04  0.00000000000E+00 0. -1.
         -2   -1    0    0    0  501 -0.00000000000E+00 -0.00000000000E+00 -0.82935658669E+03  0.82935658669E+03  0.00000000000E+00 0.  1.
    9900016    2    1    2    0    0  0.50356479576E+03  0.13788284981E+03  0.14374646982E+03  0.89645239245E+03  0.71440510954E+03 0.  0.
         24    2    3    3    0    0  0.35491838813E+02 -0.17148585829E+03 -0.16723463266E+03  0.25496152215E+03  0.79817825089E+02 0.  0.
        -15    1    4    4    0    0  0.97992709680E+01 -0.14100808349E+02 -0.36690000722E+02  0.40509439154E+02  0.00000000000E+00 0.  1.
        -15    1    4    4    0    0  0.27997341874E+01 -0.72731704780E+02 -0.41495061398E+02  0.83782930911E+02  0.00000000000E+00 0.  1.
         15    1    4    4    0    0  0.22574022197E+02 -0.32884096698E+02 -0.20735071824E+02  0.44954349037E+02  0.00000000000E+00 0. -1.
         15    1    3    3    0    0  0.46807295695E+03  0.30936870810E+03  0.31098110248E+03  0.64149087030E+03  0.00000000000E+00 0. -1.
        -16    1    4    4    0    0  0.31881146011E+00 -0.51769248463E+02 -0.68314498712E+02  0.85714803048E+02  0.00000000000E+00 0.  1.
         16    1    1    2    0    0 -0.59802539555E+03  0.59746093920E+02  0.66040083002E+03  0.89293517444E+03  0.00000000000E+00 0. -1.
    9900018    1    1    2    0    0  0.94460599786E+02 -0.19762894373E+03 -0.29494176315E+03  0.37853114318E+03  0.91187600000E+02 0.  0.
<mgrwt>
<rscale>  0 0.21072687E+04</rscale>
<asrwt>0</asrwt>
<pdfrwt beam="1">  1        2 0.20593263E+00 0.21072687E+04</pdfrwt>
<pdfrwt beam="2">  1       -2 0.12759332E+00 0.21072687E+04</pdfrwt>
<totfact> 0.65847264E+00</totfact>
</mgrwt>
</event>
<event>
11    1  0.2059453E-017  0.2517204E+04  0.7818608E-02  0.8396882E-01
         -2   -1    0    0    0  501 -0.00000000000E+00  0.00000000000E+00  0.94267530827E+03  0.94267530827E+03  0.00000000000E+00 0.  1.
          2   -1    0    0  501    0  0.00000000000E+00 -0.00000000000E+00 -0.16804083556E+04  0.16804083556E+04  0.00000000000E+00 0. -1.
    9900016    2    1    2    0    0 -0.10504041521E+03  0.83981865107E+03 -0.26186279544E+02  0.11021639899E+04  0.70551462336E+03 0.  0.
        -24    2    3    3    0    0  0.12363993339E+03 -0.74584874166E+01 -0.15596124311E+03  0.21502544802E+03  0.81052894962E+02 0.  0.
        -15    1    4    4    0    0  0.24481535129E+02 -0.43499695076E+01 -0.37816405914E+01  0.25150916535E+02  0.00000000000E+00 0.  1.
        -15    1    3    3    0    0 -0.22868034859E+03  0.84727713849E+03  0.12977496356E+03  0.88713854184E+03  0.00000000000E+00 0.  1.
         15    1    4    4    0    0  0.18444966931E+02  0.27907227329E+01 -0.22856473022E+02  0.29502937099E+02  0.00000000000E+00 0. -1.
         15    1    4    4    0    0  0.11179569620E+02 -0.20487315320E+02 -0.25523954192E+02  0.34585909031E+02  0.00000000000E+00 0. -1.
        -16    1    1    2    0    0 -0.13752192145E+03 -0.72632476000E+03  0.16947365566E+02  0.73942352482E+03  0.00000000000E+00 0.  1.
         16    1    4    4    0    0  0.69533861706E+02  0.14588074678E+02 -0.10379917530E+03  0.12578568535E+03  0.00000000000E+00 0. -1.
    9900018    1    1    2    0    0  0.24256233665E+03 -0.11349389108E+03 -0.72849413340E+03  0.78149614923E+03  0.91187600000E+02 0.  0.
<mgrwt>
<rscale>  0 0.25172044E+04</rscale>
<asrwt>0</asrwt>
<pdfrwt beam="1">  1        2 0.25852436E+00 0.25172044E+04</pdfrwt>
<pdfrwt beam="2">  1       -2 0.14502697E+00 0.25172044E+04</pdfrwt>
<totfact> 0.29338489E+00</totfact>
</mgrwt>
</event>
<event>
11    1  0.2059453E-017  0.1211059E+04  0.7818608E-02  0.9103231E-01
          2   -1    0    0  501    0  0.00000000000E+00  0.00000000000E+00  0.31113074863E+04  0.31113074863E+04  0.00000000000E+00 0. -1.
         -2   -1    0    0    0  501 -0.00000000000E+00 -0.00000000000E+00 -0.11784947150E+03  0.11784947150E+03  0.00000000000E+00 0.  1.
    9900016    2    1    2    0    0 -0.27407421427E+03  0.10111716829E+03  0.21765171852E+04  0.23061829926E+04  0.70420989853E+03 0.  0.
        -24    2    3    3    0    0 -0.57242673717E+02 -0.26375085891E+03  0.47356915884E+03  0.55113980943E+03  0.81523628932E+02 0.  0.
        -15    1    3    3    0    0 -0.21683154055E+03  0.36486802719E+03  0.17029480263E+04  0.17550431831E+04  0.00000000000E+00 0.  1.
        -15    1    4    4    0    0 -0.92937752048E+01 -0.10659182981E+02  0.40837069101E+02  0.43216416465E+02  0.00000000000E+00 0.  1.
         15    1    4    4    0    0 -0.23162158277E+02 -0.12008024226E+03  0.15001050476E+03  0.19354302285E+03  0.00000000000E+00 0. -1.
         15    1    4    4    0    0 -0.45238260344E+01 -0.87616255780E+02  0.17658036823E+03  0.19717428768E+03  0.00000000000E+00 0. -1.
        -16    1    1    2    0    0  0.10191267071E+03 -0.13822679941E+03  0.15285712385E+03  0.22990898382E+03  0.00000000000E+00 0.  1.
         16    1    4    4    0    0 -0.20262914200E+02 -0.45395177891E+02  0.10614121674E+03  0.11720608243E+03  0.00000000000E+00 0. -1.
    9900018    1    1    2    0    0  0.17216154356E+03  0.37109631128E+02  0.66408370575E+03  0.69306498140E+03  0.91187600000E+02 0.  0.
<mgrwt>
<rscale>  0 0.12110589E+04</rscale>
<asrwt>0</asrwt>
<pdfrwt beam="1">  1        2 0.47866263E+00 0.12110589E+04</pdfrwt>
<pdfrwt beam="2">  1       -2 0.18130690E-01 0.12110589E+04</pdfrwt>
<totfact> 0.37635516E+01</totfact>
</mgrwt>
</event>
<event>
11    1  0.2059453E-017  0.1357701E+04  0.7818608E-02  0.8985019E-01
          2   -1    0    0  501    0  0.00000000000E+00  0.00000000000E+00  0.95798241164E+03  0.95798241164E+03  0.00000000000E+00 0. -1.
         -2   -1    0    0    0  501 -0.00000000000E+00 -0.00000000000E+00 -0.48105090750E+03  0.48105090750E+03  0.00000000000E+00 0.  1.
    9900016    2    1    2    0    0  0.19435988714E+03 -0.22886440832E+03 -0.71392167473E+02  0.76456669758E+03  0.69950747697E+03 0.  0.
         24    2    3    3    0    0 -0.43578288028E+02  0.13658999004E+03  0.19387802100E+03  0.25413573713E+03  0.80252060993E+02 0.  0.
        -15    1    4    4    0    0  0.18231110544E+01  0.13196535807E+02  0.55402003313E+01  0.14427962813E+02  0.00000000000E+00 0.  1.
        -15    1    4    4    0    0 -0.42125942299E+01  0.16132476879E+02  0.69299094828E+02  0.71276695380E+02  0.00000000000E+00 0.  1.
         15    1    3    3    0    0  0.23793817517E+03 -0.36545439837E+03 -0.26527018848E+03  0.51043096044E+03  0.00000000000E+00 0. -1.
         15    1    4    4    0    0 -0.30887372682E+02  0.97305469167E+02  0.90196651493E+02  0.13622709004E+03  0.00000000000E+00 0. -1.
        -16    1    4    4    0    0 -0.10301432170E+02  0.99555081879E+01  0.28842074351E+02  0.32203988898E+02  0.00000000000E+00 0.  1.
         16    1    1    2    0    0  0.11278790833E+02  0.64044225992E+02  0.28006575174E+03  0.28751643310E+03  0.00000000000E+00 0. -1.
    9900018    1    1    2    0    0 -0.20563867797E+03  0.16482018233E+03  0.26825791987E+03  0.38695018846E+03  0.91187600000E+02 0.  0.
<mgrwt>
<rscale>  0 0.13577015E+04</rscale>
<asrwt>0</asrwt>
<pdfrwt beam="1">  1        2 0.14738191E+00 0.13577015E+04</pdfrwt>
<pdfrwt beam="2">  1       -2 0.74007832E-01 0.13577015E+04</pdfrwt>
<totfact> 0.43079528E+01</totfact>
</mgrwt>
</event>
<event>
11    1  0.2059453E-017  0.1336638E+04  0.7818608E-02  0.9001005E-01
         -2   -1    0    0    0  501 -0.00000000000E+00  0.00000000000E+00  0.20912979371E+03  0.20912979371E+03  0.00000000000E+00 0.  1.
          2   -1    0    0  501    0  0.00000000000E+00 -0.00000000000E+00 -0.21357566540E+04  0.21357566540E+04  0.00000000000E+00 0. -1.
    9900016    2    1    2    0    0 -0.32439981006E+03  0.69177543542E+02 -0.95209932331E+03  0.12330233153E+04  0.70981166893E+03 0.  0.
         24    2    3    3    0    0  0.10905559204E+03 -0.22000952872E+03 -0.25358539829E+03  0.36156795109E+03  0.78284827085E+02 0.  0.
        -15    1    4    4    0    0  0.80706152428E+01 -0.56863312000E+02 -0.55194906894E+02  0.79655814785E+02  0.00000000000E+00 0.  1.
        -15    1    4    4    0    0  0.17152328098E+02 -0.14283098699E+02 -0.10535172134E+02  0.24681959394E+02  0.00000000000E+00 0.  1.
         15    1    3    3    0    0 -0.43345540210E+03  0.28918707226E+03 -0.69851392503E+03  0.87145536422E+03  0.00000000000E+00 0. -1.
         15    1    4    4    0    0  0.38418645306E+02 -0.58090921055E+02 -0.10602158533E+03  0.12685079414E+03  0.00000000000E+00 0. -1.
        -16    1    4    4    0    0  0.45414003396E+02 -0.90772196962E+02 -0.81833733927E+02  0.13037938278E+03  0.00000000000E+00 0.  1.
         16    1    1    2    0    0  0.19052016507E+03  0.98496449359E+02 -0.77775305388E+03  0.80678330217E+03  0.00000000000E+00 0. -1.
    9900018    1    1    2    0    0  0.13387964498E+03 -0.16767399290E+03 -0.19677448314E+03  0.30507983028E+03  0.91187600000E+02 0.  0.
<mgrwt>
<rscale>  0 0.13366381E+04</rscale>
<asrwt>0</asrwt>
<pdfrwt beam="1">  1        2 0.32857795E+00 0.13366381E+04</pdfrwt>
<pdfrwt beam="2">  1       -2 0.32173814E-01 0.13366381E+04</pdfrwt>
<totfact> 0.49401310E+01</totfact>
</mgrwt>
</event>
<event>
11    1  0.2849478E-017  0.2109063E+04  0.7818608E-02  0.8557261E-01
         -2   -1    0    0    0  501 -0.00000000000E+00  0.00000000000E+00  0.51495211566E+03  0.51495211566E+03  0.00000000000E+00 0. -1.
          2   -1    0    0  501    0  0.00000000000E+00 -0.00000000000E+00 -0.21594957067E+04  0.21594957067E+04  0.00000000000E+00 0.  1.
    9900016    2    1    2    0    0  0.19291973950E+03  0.10793471344E+03 -0.27406570904E+03  0.78694695583E+03  0.70377948973E+03 0.  0.
         24    2    3    3    0    0 -0.81958704926E+02 -0.23207359862E+03  0.20262836202E+02  0.25988613959E+03  0.80961957302E+02 0.  0.
        -15    1    4    4    0    0 -0.99682066341E+01 -0.19382615450E+02 -0.27903252610E+01  0.21973548650E+02  0.00000000000E+00 0.  1.
        -15    1    4    4    0    0 -0.34302762972E+01 -0.42694478145E+02  0.37332218084E+01  0.42994443881E+02  0.00000000000E+00 0.  1.
         15    1    4    4    0    0 -0.12368320137E+02 -0.39375978079E+02 -0.22095591414E+02  0.46815148752E+02  0.00000000000E+00 0. -1.
         15    1    3    3    0    0  0.27487844443E+03  0.34000831205E+03 -0.29432854524E+03  0.52706081624E+03  0.00000000000E+00 0. -1.
        -16    1    4    4    0    0 -0.56191901858E+02 -0.13062052694E+03  0.41415531068E+02  0.14810299830E+03  0.00000000000E+00 0.  1.
         16    1    1    2    0    0 -0.36689827362E+03  0.26341847124E+03 -0.13953808963E+04  0.14666599742E+04  0.00000000000E+00 0. -1.
    9900018    1    1    2    0    0  0.17397853412E+03 -0.37135318468E+03  0.24903014339E+02  0.42084089229E+03  0.91187600000E+02 0.  0.
<mgrwt>
<rscale>  0 0.21090632E+04</rscale>
<asrwt>0</asrwt>
<pdfrwt beam="1">  1        2 0.33223011E+00 0.21090632E+04</pdfrwt>
<pdfrwt beam="2">  1       -2 0.79223403E-01 0.21090632E+04</pdfrwt>
<totfact> 0.70799640E+00</totfact>
</mgrwt>
</event>
<event>
11    1  0.2059453E-017  0.1321823E+04  0.7818608E-02  0.9012436E-01
         -1   -1    0    0    0  501 -0.00000000000E+00  0.00000000000E+00  0.48835888208E+03  0.48835888208E+03  0.00000000000E+00 0.  1.
          1   -1    0    0  501    0  0.00000000000E+00 -0.00000000000E+00 -0.89443276829E+03  0.89443276829E+03  0.00000000000E+00 0. -1.
    9900016    2    1    2    0    0  0.32732763733E+03 -0.12871798732E+03 -0.13118098831E+03  0.80802916191E+03  0.71553544454E+03 0.  0.
         24    2    3    3    0    0 -0.19819485924E+03  0.32514422463E+02 -0.14077816628E+03  0.25824566799E+03  0.80832809162E+02 0.  0.
        -15    1    4    4    0    0 -0.28297370663E+02  0.20147222650E+02 -0.35648994414E+02  0.49774517272E+02  0.00000000000E+00 0.  1.
        -15    1    4    4    0    0 -0.13505031897E+02 -0.12435437340E+02 -0.15350024016E+02  0.23930090382E+02  0.00000000000E+00 0. -1.
         15    1    3    3    0    0  0.52552249657E+03 -0.16123240979E+03  0.95971779732E+01  0.54978349392E+03  0.00000000000E+00 0. -1.
         15    1    4    4    0    0 -0.11480953740E+03  0.25074040361E+02 -0.52562450113E+02  0.12873518765E+03  0.00000000000E+00 0.  1.
        -16    1    4    4    0    0 -0.41582919284E+02 -0.27140320762E+00 -0.37216697735E+02  0.55805872686E+02  0.00000000000E+00 0.  1.
         16    1    1    2    0    0 -0.15282930579E+03  0.30034032843E+02 -0.31453727688E+03  0.35098794621E+03  0.00000000000E+00 0. -1.
    9900018    1    1    2    0    0 -0.17449833154E+03  0.98683954480E+02  0.39644378979E+02  0.22377454225E+03  0.91187600000E+02 0.  0.
<mgrwt>
<rscale>  0 0.13218233E+04</rscale>
<asrwt>0</asrwt>
<pdfrwt beam="1">  1        1 0.13760504E+00 0.13218233E+04</pdfrwt>
<pdfrwt beam="2">  1       -1 0.75132137E-01 0.13218233E+04</pdfrwt>
<totfact> 0.32142143E+01</totfact>
</mgrwt>
</event>
<event>
11    1  0.2059453E-017  0.1933700E+04  0.7818608E-02  0.8638261E-01
          3   -1    0    0  501    0  0.00000000000E+00  0.00000000000E+00  0.89334621969E+03  0.89334621969E+03  0.00000000000E+00 0. -1.
         -3   -1    0    0    0  501 -0.00000000000E+00 -0.00000000000E+00 -0.10464010908E+04  0.10464010908E+04  0.00000000000E+00 0.  1.
    9900016    2    1    2    0    0  0.42887078365E+03 -0.56966964245E+03  0.30168662082E+02  0.10113698776E+04  0.71659279271E+03 0.  0.
        -24    2    3    3    0    0 -0.15090990227E+03  0.33465438343E+02  0.22897482036E+02  0.17472751703E+03  0.78177211245E+02 0.  0.
        -15    1    3    3    0    0  0.57978068592E+03 -0.60313508080E+03  0.72711800460E+01  0.83664236058E+03  0.00000000000E+00 0.  1.
        -15    1    4    4    0    0 -0.35811865474E+02  0.25398339727E+02 -0.23665759739E+01  0.43967784245E+02  0.00000000000E+00 0.  1.
         15    1    4    4    0    0 -0.94756855568E+01  0.45216165509E+01  0.17538069286E+02  0.20440584808E+02  0.00000000000E+00 0. -1.
         15    1    4    4    0    0 -0.56084000657E+02  0.64959785124E+01 -0.10547184129E+02  0.57435668008E+02  0.00000000000E+00 0. -1.
        -16    1    1    2    0    0 -0.44717194936E+03  0.34600186828E+03  0.79568900362E+02  0.57097395304E+03  0.00000000000E+00 0.  1.
         16    1    4    4    0    0 -0.49538350580E+02 -0.29504964466E+01  0.18273172853E+02  0.52883479969E+02  0.00000000000E+00 0. -1.
    9900018    1    1    2    0    0  0.18301165710E+02  0.22366777417E+03 -0.26279243354E+03  0.35740347982E+03  0.91187600000E+02 0.  0.
<mgrwt>
<rscale>  0 0.19336995E+04</rscale>
<asrwt>0</asrwt>
<pdfrwt beam="1">  1        3 0.13743788E+00 0.19336995E+04</pdfrwt>
<pdfrwt beam="2">  1       -3 0.16098478E+00 0.19336995E+04</pdfrwt>
<totfact> 0.26463266E-01</totfact>
</mgrwt>
</event>
<event>
11    1  0.2059453E-017  0.2710207E+04  0.7818608E-02  0.8331701E-01
          2   -1    0    0  501    0  0.00000000000E+00  0.00000000000E+00  0.30572102223E+04  0.30572102223E+04  0.00000000000E+00 0. -1.
         -2   -1    0    0    0  501 -0.00000000000E+00 -0.00000000000E+00 -0.60064756906E+03  0.60064756906E+03  0.00000000000E+00 0.  1.
    9900016    2    1    2    0    0 -0.16282651031E+02 -0.80162499790E+03  0.10284040231E+04  0.14893349457E+04  0.71946923756E+03 0.  0.
        -24    2    3    3    0    0  0.13146121032E+02  0.12116452476E+03  0.21110051187E+03  0.25629334656E+03  0.79178221871E+02 0.  0.
        -15    1    3    3    0    0 -0.29428772063E+02 -0.92278952267E+03  0.81730351123E+03  0.12330415992E+04  0.00000000000E+00 0.  1.
        -15    1    4    4    0    0  0.24820171927E+02  0.28368644283E+02  0.45364970349E+02  0.58981365258E+02  0.00000000000E+00 0. -1.
         15    1    4    4    0    0 -0.11910265619E+02  0.52685887151E+02  0.85683721151E+02  0.10128848504E+03  0.00000000000E+00 0.  1.
         15    1    4    4    0    0  0.83513918659E+01  0.42082101531E+02  0.74578521077E+02  0.86038391555E+02  0.00000000000E+00 0. -1.
        -16    1    1    2    0    0  0.16271550022E+03  0.41307843654E+03 -0.19915755602E+03  0.48659414388E+03  0.00000000000E+00 0.  1.
         16    1    4    4    0    0 -0.81151771411E+01 -0.19721082006E+01  0.54732992974E+01  0.99851047057E+01  0.00000000000E+00 0. -1.
    9900018    1    1    2    0    0 -0.14643284919E+03  0.38854656137E+03  0.16273161861E+04  0.16819287017E+04  0.91187600000E+02 0.  0.
<mgrwt>
<rscale>  0 0.27102073E+04</rscale>
<asrwt>0</asrwt>
<pdfrwt beam="1">  1        2 0.47034002E+00 0.27102073E+04</pdfrwt>
<pdfrwt beam="2">  1       -2 0.92407320E-01 0.27102073E+04</pdfrwt>
<totfact> 0.13958917E+00</totfact>
</mgrwt>
</event>
<event>
11    1  0.2059453E-017  0.1537476E+04  0.7818608E-02  0.8859907E-01
         -1   -1    0    0    0  501 -0.00000000000E+00  0.00000000000E+00  0.40985469994E+03  0.40985469994E+03  0.00000000000E+00 0.  1.
          1   -1    0    0  501    0  0.00000000000E+00 -0.00000000000E+00 -0.14418717867E+04  0.14418717867E+04  0.00000000000E+00 0. -1.
    9900016    2    1    2    0    0 -0.31470977806E+03 -0.35288902142E+02 -0.75016382245E+03  0.10839453137E+04  0.71547475954E+03 0.  0.
        -24    2    3    3    0    0 -0.15909994163E+03  0.20176539380E+03 -0.75358999633E+03  0.80035952582E+03  0.81580772450E+02 0.  0.
        -15    1    4    4    0    0 -0.38933380978E+02  0.45411235981E+02 -0.23705016536E+03  0.24448061151E+03  0.00000000000E+00 0.  1.
        -15    1    3    3    0    0 -0.15560983643E+03 -0.23705429594E+03  0.34261738793E+01  0.28358578787E+03  0.00000000000E+00 0.  1.
         15    1    4    4    0    0 -0.93171683263E+01  0.27714568814E+02 -0.99527236169E+02  0.10373320437E+03  0.00000000000E+00 0. -1.
         15    1    4    4    0    0 -0.45983652826E+02  0.49713748882E+02 -0.11661788564E+03  0.13485430807E+03  0.00000000000E+00 0. -1.
        -16    1    1    2    0    0  0.39881519521E+03  0.84929314473E+02  0.49262305477E+02  0.41072292744E+03  0.00000000000E+00 0.  1.
         16    1    4    4    0    0 -0.64865739501E+02  0.78925840121E+02 -0.30039470917E+03  0.31729140187E+03  0.00000000000E+00 0. -1.
    9900018    1    1    2    0    0 -0.84105417150E+02 -0.49640412330E+02 -0.33111556975E+03  0.35705824547E+03  0.91187600000E+02 0.  0.
<mgrwt>
<rscale>  0 0.15374758E+04</rscale>
<asrwt>0</asrwt>
<pdfrwt beam="1">  1        1 0.22182643E+00 0.15374758E+04</pdfrwt>
<pdfrwt beam="2">  1       -1 0.63054569E-01 0.15374758E+04</pdfrwt>
<totfact> 0.17665545E+01</totfact>
</mgrwt>
</event>
<event>
11    1  0.2059453E-017  0.1579304E+04  0.7818608E-02  0.8833364E-01
          2   -1    0    0  501    0  0.00000000000E+00  0.00000000000E+00  0.76899543489E+03  0.76899543489E+03  0.00000000000E+00 0. -1.
         -2   -1    0    0    0  501 -0.00000000000E+00 -0.00000000000E+00 -0.81086365253E+03  0.81086365253E+03  0.00000000000E+00 0.  1.
    9900016    2    1    2    0    0  0.16356310718E+03  0.24335828099E+02  0.17892604248E+03  0.73787705480E+03  0.69649328551E+03 0.  0.
         24    2    3    3    0    0 -0.12686269261E+03  0.25312549660E+03  0.21794431895E+03  0.36610523837E+03  0.79791350381E+02 0.  0.
        -15    1    4    4    0    0 -0.43831703737E+02  0.47167839547E+02  0.56166592332E+02  0.85444189002E+02  0.00000000000E+00 0.  1.
        -15    1    4    4    0    0 -0.20285856936E+02  0.83541527631E+02  0.77944942672E+02  0.11604359921E+03  0.00000000000E+00 0.  1.
         15    1    3    3    0    0  0.29042579979E+03 -0.22878966850E+03 -0.39018276466E+02  0.37177181643E+03  0.00000000000E+00 0. -1.
         15    1    4    4    0    0 -0.50669995192E+02  0.82791363945E+02  0.42056779342E+02  0.10578577903E+03  0.00000000000E+00 0. -1.
        -16    1    4    4    0    0 -0.12075136740E+02  0.39624765475E+02  0.41776004603E+02  0.58831671121E+02  0.00000000000E+00 0.  1.
         16    1    1    2    0    0  0.26189625341E+03  0.42465422308E+02  0.11414590771E+03  0.28882909807E+03  0.00000000000E+00 0. -1.
    9900018    1    1    2    0    0 -0.42545936060E+03 -0.66801250407E+02 -0.33494016783E+03  0.55315293455E+03  0.91187600000E+02 0.  0.
<mgrwt>
<rscale>  0 0.15793042E+04</rscale>
<asrwt>0</asrwt>
<pdfrwt beam="1">  1        2 0.11830699E+00 0.15793042E+04</pdfrwt>
<pdfrwt beam="2">  1       -2 0.12474825E+00 0.15793042E+04</pdfrwt>
<totfact> 0.16796775E+01</totfact>
</mgrwt>
</event>
<event>
11    1  0.2059453E-017  0.1446875E+04  0.7818608E-02  0.8920570E-01
          1   -1    0    0  501    0  0.00000000000E+00  0.00000000000E+00  0.70007392113E+03  0.70007392113E+03  0.00000000000E+00 0. -1.
         -1   -1    0    0    0  501 -0.00000000000E+00 -0.00000000000E+00 -0.74758118043E+03  0.74758118043E+03  0.00000000000E+00 0.  1.
    9900016    2    1    2    0    0 -0.20072365486E+03  0.25979648510E+03 -0.33143086996E+03  0.84710107108E+03  0.70707114477E+03 0.  0.
         24    2    3    3    0    0 -0.94372159501E+02 -0.47035435515E+01  0.20506443166E+03  0.23956661577E+03  0.80078177093E+02 0.  0.
        -15    1    4    4    0    0 -0.75328753247E+02 -0.12098187626E+02  0.92678537704E+02  0.12004206996E+03  0.00000000000E+00 0.  1.
        -15    1    4    4    0    0  0.12981103546E+01  0.10955833811E+02  0.27197009596E+02  0.29349492601E+02  0.00000000000E+00 0.  1.
         15    1    3    3    0    0 -0.10635149536E+03  0.26450002865E+03 -0.53649530163E+03  0.60753445531E+03  0.00000000000E+00 0. -1.
         15    1    4    4    0    0 -0.14726690195E+02  0.55684764173E+01  0.29245475514E+02  0.33214171249E+02  0.00000000000E+00 0. -1.
        -16    1    4    4    0    0 -0.56148264144E+01 -0.91296661535E+01  0.55943408849E+02  0.56960881958E+02  0.00000000000E+00 0.  1.
         16    1    1    2    0    0  0.26146513536E+03 -0.34673108382E+02  0.21658918302E+03  0.34128743847E+03  0.00000000000E+00 0. -1.
    9900018    1    1    2    0    0 -0.60741480496E+02 -0.22512337671E+03  0.67334427633E+02  0.25926659201E+03  0.91187600000E+02 0.  0.
<mgrwt>
<rscale>  0 0.14468754E+04</rscale>
<asrwt>0</asrwt>
<pdfrwt beam="1">  1        1 0.10770368E+00 0.14468754E+04</pdfrwt>
<pdfrwt beam="2">  1       -1 0.11501249E+00 0.14468754E+04</pdfrwt>
<totfact> 0.18166015E+01</totfact>
</mgrwt>
</event>
<event>
11    1  0.2059453E-017  0.1581172E+04  0.7818608E-02  0.8832199E-01
         -1   -1    0    0    0  501 -0.00000000000E+00  0.00000000000E+00  0.57000857246E+03  0.57000857246E+03  0.00000000000E+00 0.  1.
          1   -1    0    0  501    0  0.00000000000E+00 -0.00000000000E+00 -0.10965208506E+04  0.10965208506E+04  0.00000000000E+00 0. -1.
    9900016    2    1    2    0    0  0.50583881853E+03  0.56731584771E+02 -0.14660636574E+03  0.88564381040E+03  0.70977471734E+03 0.  0.
         24    2    3    3    0    0  0.48289336023E+02  0.18200891051E+03  0.20924773574E+03  0.29261929250E+03  0.79889498376E+02 0.  0.
        -15    1    4    4    0    0  0.76459765419E+01  0.31217923340E+02  0.59132570687E+01  0.32680059732E+02  0.00000000000E+00 0. -1.
        -15    1    4    4    0    0  0.31682603179E+01  0.46319209906E+02  0.72179231485E+02  0.85821608803E+02  0.00000000000E+00 0.  1.
         15    1    3    3    0    0  0.45754948251E+03 -0.12527732574E+03 -0.35585410148E+03  0.59302451790E+03  0.00000000000E+00 0. -1.
         15    1    4    4    0    0  0.39572349385E+02  0.73472303492E+02  0.95555492334E+02  0.12686608030E+03  0.00000000000E+00 0.  1.
        -16    1    4    4    0    0 -0.20972502213E+01  0.30999473769E+02  0.35599754852E+02  0.47251543657E+02  0.00000000000E+00 0.  1.
         16    1    1    2    0    0 -0.39769209471E+03  0.22386778337E+02 -0.45288679170E+03  0.60313067915E+03  0.00000000000E+00 0. -1.
    9900018    1    1    2    0    0 -0.10814672382E+03 -0.79118363108E+02  0.72980879289E+02  0.17775493352E+03  0.91187600000E+02 0.  0.
<mgrwt>
<rscale>  0 0.15811721E+04</rscale>
<asrwt>0</asrwt>
<pdfrwt beam="1">  1        1 0.16869552E+00 0.15811721E+04</pdfrwt>
<pdfrwt beam="2">  1       -1 0.87693626E-01 0.15811721E+04</pdfrwt>
<totfact> 0.15680860E+01</totfact>
</mgrwt>
</event>
<event>
11    1  0.2059453E-017  0.1770107E+04  0.7818608E-02  0.8722360E-01
          2   -1    0    0  501    0  0.00000000000E+00  0.00000000000E+00  0.10167623334E+04  0.10167623334E+04  0.00000000000E+00 0. -1.
         -2   -1    0    0    0  501 -0.00000000000E+00 -0.00000000000E+00 -0.77040556903E+03  0.77040556903E+03  0.00000000000E+00 0.  1.
    9900016    2    1    2    0    0  0.34839060224E+03 -0.30123991777E+03 -0.21622248260E+03  0.87330086362E+03  0.70977513104E+03 0.  0.
         24    2    3    3    0    0 -0.13874421627E+03  0.28121645043E+02 -0.23386622935E+03  0.28500614815E+03  0.80587261919E+02 0.  0.
        -15    1    4    4    0    0 -0.63590123525E+02  0.28148087170E+02 -0.96869004374E+02  0.11924605918E+03  0.00000000000E+00 0.  1.
        -15    1    4    4    0    0 -0.15204856795E+02  0.22860877304E+01 -0.64413828390E+02  0.66223524183E+02  0.00000000000E+00 0.  1.
         15    1    4    4    0    0 -0.42707684101E+02 -0.11289368538E+02 -0.65173584037E+02  0.78733678814E+02  0.00000000000E+00 0. -1.
         15    1    3    3    0    0  0.48713481851E+03 -0.32936156281E+03  0.17643746750E+02  0.58829471548E+03  0.00000000000E+00 0. -1.
        -16    1    4    4    0    0 -0.17241551844E+02  0.89768386808E+01 -0.74098125471E+01  0.20802885970E+02  0.00000000000E+00 0.  1.
         16    1    1    2    0    0  0.46072363694E+02 -0.63308309382E+01  0.39872558355E+03  0.40142849064E+03  0.00000000000E+00 0. -1.
    9900018    1    1    2    0    0 -0.39446296594E+03  0.30757074870E+03  0.63853663444E+02  0.51243854820E+03  0.91187600000E+02 0.  0.
<mgrwt>
<rscale>  0 0.17701066E+04</rscale>
<asrwt>0</asrwt>
<pdfrwt beam="1">  1        2 0.15642497E+00 0.17701066E+04</pdfrwt>
<pdfrwt beam="2">  1       -2 0.11852393E+00 0.17701066E+04</pdfrwt>
<totfact> 0.12734246E+01</totfact>
</mgrwt>
</event>
<event>
11    1  0.2059453E-017  0.1362716E+04  0.7818608E-02  0.8981257E-01
         -1   -1    0    0    0  501 -0.00000000000E+00  0.00000000000E+00  0.85149773430E+03  0.85149773430E+03  0.00000000000E+00 0.  1.
          1   -1    0    0  501    0  0.00000000000E+00 -0.00000000000E+00 -0.54521466767E+03  0.54521466767E+03  0.00000000000E+00 0. -1.
    9900016    2    1    2    0    0  0.27701821139E+03  0.65539872306E+01  0.21690604021E+03  0.79049797053E+03  0.70785363384E+03 0.  0.
        -24    2    3    3    0    0  0.14963934356E+03  0.71128615880E+02 -0.24535249626E+03  0.30668166947E+03  0.80028656310E+02 0.  0.
        -15    1    3    3    0    0  0.12737886783E+03 -0.64574628650E+02  0.46225853646E+03  0.48381630106E+03  0.00000000000E+00 0.  1.
        -15    1    4    4    0    0  0.25091193315E+02 -0.82031529409E+01 -0.18002398967E+02  0.31952246693E+02  0.00000000000E+00 0.  1.
         15    1    4    4    0    0  0.48986711984E+02  0.21655884859E+02 -0.54296218094E+02  0.76267651067E+02  0.00000000000E+00 0. -1.
         15    1    4    4    0    0  0.31944212944E+02  0.12369875091E+02 -0.59566023498E+02  0.68713591856E+02  0.00000000000E+00 0. -1.
        -16    1    1    2    0    0 -0.24060755958E+03 -0.27147385722E+02  0.29246955121E+03  0.37969384596E+03  0.00000000000E+00 0.  1.
         16    1    4    4    0    0  0.43617225315E+02  0.45306008871E+02 -0.11348785570E+03  0.12974817985E+03  0.00000000000E+00 0. -1.
    9900018    1    1    2    0    0 -0.36410651810E+02  0.20593398491E+02 -0.20309252479E+03  0.22652058548E+03  0.91187600000E+02 0.  0.
<mgrwt>
<rscale>  0 0.13627165E+04</rscale>
<asrwt>0</asrwt>
<pdfrwt beam="1">  1        1 0.83879179E-01 0.13627165E+04</pdfrwt>
<pdfrwt beam="2">  1       -1 0.13099965E+00 0.13627165E+04</pdfrwt>
<totfact> 0.19107269E+01</totfact>
</mgrwt>
</event>
<event>
11    1  0.2059453E-017  0.1744625E+04  0.7818608E-02  0.8736314E-01
          2   -1    0    0  501    0  0.00000000000E+00  0.00000000000E+00  0.10366561919E+04  0.10366561919E+04  0.00000000000E+00 0. -1.
         -2   -1    0    0    0  501 -0.00000000000E+00 -0.00000000000E+00 -0.73402295926E+03  0.73402295926E+03  0.00000000000E+00 0.  1.
    9900016    2    1    2    0    0 -0.99600727359E+02 -0.17663411022E+03  0.11024339414E+03  0.75722788726E+03  0.72119383907E+03 0.  0.
         24    2    3    3    0    0 -0.18993012142E+03 -0.31811682747E+03 -0.18192909613E+03  0.42026865711E+03  0.79093496486E+02 0.  0.
        -15    1    4    4    0    0 -0.88001519360E+00 -0.11570525334E+02 -0.15458478908E+02  0.19329150354E+02  0.00000000000E+00 0. -1.
        -15    1    4    4    0    0 -0.22871292732E+02 -0.64619355666E+02 -0.18031585970E+02  0.70879441663E+02  0.00000000000E+00 0.  1.
         15    1    4    4    0    0 -0.92660776750E+02 -0.13044258219E+03 -0.95977075892E+02  0.18658211568E+03  0.00000000000E+00 0.  1.
         15    1    3    3    0    0  0.90329394066E+02  0.14148271725E+03  0.29217249027E+03  0.33695923015E+03  0.00000000000E+00 0. -1.
        -16    1    4    4    0    0 -0.73518036749E+02 -0.11148436428E+03 -0.52461955363E+02  0.14347794941E+03  0.00000000000E+00 0.  1.
         16    1    1    2    0    0 -0.54632825092E+02 -0.13657341991E+03  0.51120572785E+03  0.53194768614E+03  0.00000000000E+00 0. -1.
    9900018    1    1    2    0    0  0.15423355245E+03  0.31320753013E+03 -0.31881588939E+03  0.48150357771E+03  0.91187600000E+02 0.  0.
<mgrwt>
<rscale>  0 0.17446254E+04</rscale>
<asrwt>0</asrwt>
<pdfrwt beam="1">  1        2 0.15948557E+00 0.17446254E+04</pdfrwt>
<pdfrwt beam="2">  1       -2 0.11292661E+00 0.17446254E+04</pdfrwt>
<totfact> 0.13951966E+01</totfact>
</mgrwt>
</event>
<event>
11    1  0.2059453E-017  0.1720229E+04  0.7818608E-02  0.8749911E-01
          1   -1    0    0  501    0  0.00000000000E+00  0.00000000000E+00  0.89775264539E+03  0.89775264539E+03  0.00000000000E+00 0. -1.
         -1   -1    0    0    0  501 -0.00000000000E+00 -0.00000000000E+00 -0.82405411181E+03  0.82405411181E+03  0.00000000000E+00 0.  1.
    9900016    2    1    2    0    0 -0.25017883464E+03  0.35473029981E+03 -0.99117080649E+02  0.83456904909E+03  0.70587411562E+03 0.  0.
        -24    2    3    3    0    0  0.18575426719E+03 -0.75862887407E+02 -0.21454083291E+02  0.21692861703E+03  0.79611065372E+02 0.  0.
        -15    1    3    3    0    0 -0.43593310183E+03  0.43059318722E+03 -0.77662997358E+02  0.61764043206E+03  0.00000000000E+00 0.  1.
        -15    1    4    4    0    0  0.57171085929E+02 -0.45512700240E+02 -0.83554814093E+01  0.73551023236E+02  0.00000000000E+00 0.  1.
         15    1    4    4    0    0  0.92281383076E+01 -0.18874883163E+02  0.31196600505E+01  0.21240339684E+02  0.00000000000E+00 0. -1.
         15    1    4    4    0    0  0.10306239824E+03 -0.15620873345E+02 -0.13604777053E+02  0.10512354433E+03  0.00000000000E+00 0. -1.
        -16    1    1    2    0    0  0.17581880026E+03 -0.47737445164E+03 -0.14313430256E+03  0.52847520867E+03  0.00000000000E+00 0.  1.
         16    1    4    4    0    0  0.16292644720E+02  0.41455693416E+01 -0.26134848786E+01  0.17013709776E+02  0.00000000000E+00 0. -1.
    9900018    1    1    2    0    0  0.74360034381E+02  0.12264415183E+03  0.31594991679E+03  0.35876249944E+03  0.91187600000E+02 0.  0.
<mgrwt>
<rscale>  0 0.17202288E+04</rscale>
<asrwt>0</asrwt>
<pdfrwt beam="1">  1        1 0.13811579E+00 0.17202288E+04</pdfrwt>
<pdfrwt beam="2">  1       -1 0.12677756E+00 0.17202288E+04</pdfrwt>
<totfact> 0.93803652E+00</totfact>
</mgrwt>
</event>
<event>
11    1  0.2059453E-017  0.1184791E+04  0.7818608E-02  0.9126274E-01
         -2   -1    0    0    0  501 -0.00000000000E+00  0.00000000000E+00  0.13928527063E+04  0.13928527063E+04  0.00000000000E+00 0.  1.
          2   -1    0    0  501    0  0.00000000000E+00 -0.00000000000E+00 -0.25195222686E+03  0.25195222686E+03  0.00000000000E+00 0. -1.
    9900016    2    1    2    0    0 -0.17953207674E+03  0.16438777085E+03  0.88922506269E+03  0.11642021575E+04  0.71090811341E+03 0.  0.
         24    2    3    3    0    0 -0.20487520093E+03  0.14526160624E+03  0.10076471552E+04  0.10415976057E+04  0.80610176964E+02 0.  0.
        -15    1    4    4    0    0 -0.10040424567E+03  0.94175287706E+02  0.47448638492E+03  0.49405194751E+03  0.00000000000E+00 0.  1.
        -15    1    4    4    0    0 -0.12467071536E+02  0.17928478931E+01  0.39653131174E+02  0.41605444213E+02  0.00000000000E+00 0.  1.
         15    1    3    3    0    0  0.25343124187E+02  0.19126164609E+02 -0.11842209255E+03  0.12260455179E+03  0.00000000000E+00 0. -1.
         15    1    4    4    0    0 -0.87223887431E+02  0.33000926504E+02  0.44110263055E+03  0.45085318937E+03  0.00000000000E+00 0. -1.
        -16    1    4    4    0    0 -0.47799962856E+01  0.16292544138E+02  0.52405008593E+02  0.55087024648E+02  0.00000000000E+00 0.  1.
         16    1    1    2    0    0  0.14114188718E+03 -0.17594594630E+03  0.17639878785E+02  0.22625024566E+03  0.00000000000E+00 0. -1.
    9900018    1    1    2    0    0  0.38390189557E+02  0.11558175454E+02  0.23403553794E+03  0.25435252994E+03  0.91187600000E+02 0.  0.
<mgrwt>
<rscale>  0 0.11847909E+04</rscale>
<asrwt>0</asrwt>
<pdfrwt beam="1">  1        2 0.38761882E-01 0.11847909E+04</pdfrwt>
<pdfrwt beam="2">  1       -2 0.21428503E+00 0.11847909E+04</pdfrwt>
<totfact> 0.14166743E+01</totfact>
</mgrwt>
</event>
<event>
11    1  0.2059453E-017  0.3296513E+04  0.7818608E-02  0.8163783E-01
         -1   -1    0    0    0  501 -0.00000000000E+00  0.00000000000E+00  0.75263217709E+03  0.75263217709E+03  0.00000000000E+00 0.  1.
          1   -1    0    0  501    0  0.00000000000E+00 -0.00000000000E+00 -0.36096637864E+04  0.36096637864E+04  0.00000000000E+00 0. -1.
    9900016    2    1    2    0    0 -0.18177803497E+03  0.14553031045E+04 -0.12373785973E+04  0.20554841632E+04  0.73685749799E+03 0.  0.
         24    2    3    3    0    0 -0.19854589463E+03  0.97891503604E+02 -0.27449437032E+02  0.23702987781E+03  0.80165283197E+02 0.  0.
        -15    1    4    4    0    0 -0.28521406932E+02  0.32813961309E+02  0.92043206731E+01  0.44440367114E+02  0.00000000000E+00 0.  1.
        -15    1    4    4    0    0 -0.81937675410E+02  0.35808605256E+02 -0.10586101089E+02  0.90045013178E+02  0.00000000000E+00 0.  1.
         15    1    3    3    0    0  0.16767859656E+02  0.13574116009E+04 -0.12099291602E+04  0.18184542854E+04  0.00000000000E+00 0. -1.
         15    1    4    4    0    0 -0.21127931297E+02 -0.46290175994E+01 -0.15821105685E+02  0.26797848234E+02  0.00000000000E+00 0. -1.
        -16    1    4    4    0    0 -0.66958880992E+02  0.33897954637E+02 -0.10246550931E+02  0.75746649287E+02  0.00000000000E+00 0.  1.
         16    1    1    2    0    0  0.32033640538E+03 -0.14127108049E+04 -0.15511516876E+04  0.21223663183E+04  0.00000000000E+00 0. -1.
    9900018    1    1    2    0    0 -0.13855837040E+03 -0.42592299554E+02 -0.68501324450E+02  0.18444548201E+03  0.91187600000E+02 0.  0.
<mgrwt>
<rscale>  0 0.32965128E+04</rscale>
<asrwt>0</asrwt>
<pdfrwt beam="1">  1        1 0.55533289E+00 0.32965128E+04</pdfrwt>
<pdfrwt beam="2">  1       -1 0.11578957E+00 0.32965128E+04</pdfrwt>
<totfact> 0.11431562E-01</totfact>
</mgrwt>
</event>
<event>
11    1  0.2059453E-017  0.1235290E+04  0.7818608E-02  0.9082516E-01
          1   -1    0    0  501    0  0.00000000000E+00  0.00000000000E+00  0.12332575783E+04  0.12332575783E+04  0.00000000000E+00 0. -1.
         -1   -1    0    0    0  501 -0.00000000000E+00 -0.00000000000E+00 -0.30933164409E+03  0.30933164409E+03  0.00000000000E+00 0.  1.
    9900016    2    1    2    0    0 -0.23602893100E+02 -0.20214961667E+03  0.81349295451E+03  0.11255612653E+04  0.75079678405E+03 0.  0.
        -24    2    3    3    0    0 -0.27417459733E+03 -0.17581337883E+03  0.80644195370E+03  0.87351068908E+03  0.81180325508E+02 0.  0.
        -15    1    4    4    0    0 -0.36374119802E+02 -0.40188052066E+02  0.10699354312E+03  0.11994071198E+03  0.00000000000E+00 0.  1.
        -15    1    3    3    0    0  0.25057170423E+03 -0.26336237846E+02  0.70510008073E+01  0.25205057627E+03  0.00000000000E+00 0.  1.
         15    1    4    4    0    0 -0.10945263547E+03 -0.42165206209E+02  0.24464464987E+03  0.27130939670E+03  0.00000000000E+00 0. -1.
         15    1    4    4    0    0 -0.79375962319E+02 -0.66199658009E+02  0.31968989596E+03  0.33598298721E+03  0.00000000000E+00 0. -1.
        -16    1    1    2    0    0  0.13702832492E+03  0.19919639913E+03  0.13523420650E+02  0.24215459971E+03  0.00000000000E+00 0.  1.
         16    1    4    4    0    0 -0.48971879743E+02 -0.27260462541E+02  0.13511386475E+03  0.14627759319E+03  0.00000000000E+00 0. -1.
    9900018    1    1    2    0    0 -0.11342543182E+03  0.29532175442E+01  0.96909559091E+02  0.17487335736E+03  0.91187600000E+02 0.  0.
<mgrwt>
<rscale>  0 0.12352904E+04</rscale>
<asrwt>0</asrwt>
<pdfrwt beam="1">  1        1 0.18973193E+00 0.12352904E+04</pdfrwt>
<pdfrwt beam="2">  1       -1 0.47589484E-01 0.12352904E+04</pdfrwt>
<totfact> 0.43966235E+01</totfact>
</mgrwt>
</event>
<event>
11    1  0.2059453E-017  0.1489684E+04  0.7818608E-02  0.8891342E-01
         -2   -1    0    0    0  501 -0.00000000000E+00  0.00000000000E+00  0.61283219400E+03  0.61283219400E+03  0.00000000000E+00 0.  1.
          2   -1    0    0  501    0  0.00000000000E+00 -0.00000000000E+00 -0.90528745815E+03  0.90528745815E+03  0.00000000000E+00 0. -1.
    9900016    2    1    2    0    0 -0.22120098731E+03 -0.38407776940E+03 -0.18241072801E+03  0.84863311479E+03  0.70032769480E+03 0.  0.
        -24    2    3    3    0    0 -0.84653753293E+02 -0.95790260325E+02 -0.42306671931E+03  0.44904565109E+03  0.79463928034E+02 0.  0.
        -15    1    3    3    0    0 -0.13654723401E+03 -0.28828750907E+03  0.24065599129E+03  0.39958746370E+03  0.00000000000E+00 0.  1.
        -15    1    4    4    0    0 -0.23522057588E+02 -0.53010835494E+01 -0.80935649509E+02  0.84450980109E+02  0.00000000000E+00 0.  1.
         15    1    4    4    0    0 -0.72799922385E+02 -0.77378063257E+02 -0.28743019260E+03  0.30643646811E+03  0.00000000000E+00 0. -1.
         15    1    4    4    0    0  0.12465846038E+02 -0.13284866932E+02 -0.54246720218E+02  0.57224047928E+02  0.00000000000E+00 0. -1.
        -16    1    1    2    0    0  0.26513556432E+03  0.33289936267E+03  0.94182194771E+02  0.43587743569E+03  0.00000000000E+00 0.  1.
         16    1    4    4    0    0 -0.79761935780E+00  0.17375341404E+00 -0.45415698229E+00  0.93415494078E+00  0.00000000000E+00 0. -1.
    9900018    1    1    2    0    0 -0.43934577009E+02  0.51178406728E+02 -0.20422673091E+03  0.23360910167E+03  0.91187600000E+02 0.  0.
<mgrwt>
<rscale>  0 0.14896836E+04</rscale>
<asrwt>0</asrwt>
<pdfrwt beam="1">  1        2 0.13927499E+00 0.14896836E+04</pdfrwt>
<pdfrwt beam="2">  1       -2 0.94281877E-01 0.14896836E+04</pdfrwt>
<totfact> 0.26683187E+01</totfact>
</mgrwt>
</event>
<event>
11    1  0.2059453E-017  0.1132877E+04  0.7818608E-02  0.9173728E-01
          1   -1    0    0  501    0  0.00000000000E+00  0.00000000000E+00  0.13920780900E+04  0.13920780900E+04  0.00000000000E+00 0. -1.
         -1   -1    0    0    0  501 -0.00000000000E+00 -0.00000000000E+00 -0.23048442171E+03  0.23048442171E+03  0.00000000000E+00 0.  1.
    9900016    2    1    2    0    0  0.36854231603E+02  0.27101995274E+03  0.76180036686E+03  0.10767294966E+04  0.71006799719E+03 0.  0.
         24    2    3    3    0    0 -0.61580170648E+02 -0.20324563790E+03  0.80366186016E+02  0.24068540392E+03  0.79811233951E+02 0.  0.
        -15    1    4    4    0    0 -0.37738602277E+02 -0.29448161101E+02  0.17667743733E+02  0.51024949413E+02  0.00000000000E+00 0.  1.
        -15    1    4    4    0    0 -0.12039702534E+00 -0.40218859508E+02  0.24540802069E+02  0.47114988292E+02  0.00000000000E+00 0.  1.
         15    1    3    3    0    0  0.98434402251E+02  0.47426559064E+03  0.68143418085E+03  0.83604409264E+03  0.00000000000E+00 0. -1.
         15    1    4    4    0    0 -0.25937283926E+02 -0.10050607502E+03  0.24216713340E+02  0.10658641104E+03  0.00000000000E+00 0. -1.
        -16    1    4    4    0    0  0.22161125799E+01 -0.33072542262E+02  0.13940926875E+02  0.35959055171E+02  0.00000000000E+00 0.  1.
         16    1    1    2    0    0 -0.10652748112E+03 -0.96926861780E+02  0.25200159891E+03  0.29025458932E+03  0.00000000000E+00 0. -1.
    9900018    1    1    2    0    0  0.69673249516E+02 -0.17409309096E+03  0.14779170252E+03  0.25557842582E+03  0.91187600000E+02 0.  0.
<mgrwt>
<rscale>  0 0.11328765E+04</rscale>
<asrwt>0</asrwt>
<pdfrwt beam="1">  1        1 0.21416585E+00 0.11328765E+04</pdfrwt>
<pdfrwt beam="2">  1       -1 0.35459143E-01 0.11328765E+04</pdfrwt>
<totfact> 0.58625996E+01</totfact>
</mgrwt>
</event>
<event>
11    1  0.2059453E-017  0.1380213E+04  0.7818608E-02  0.8968267E-01
         -2   -1    0    0    0  501 -0.00000000000E+00  0.00000000000E+00  0.29150861635E+03  0.29150861635E+03  0.00000000000E+00 0. -1.
          2   -1    0    0  501    0  0.00000000000E+00 -0.00000000000E+00 -0.16337317476E+04  0.16337317476E+04  0.00000000000E+00 0.  1.
    9900016    2    1    2    0    0  0.38294755770E+00  0.84545560503E+02 -0.50479274703E+03  0.87432371106E+03  0.70885692197E+03 0.  0.
        -24    2    3    3    0    0 -0.27751246740E+03 -0.45886319360E+02 -0.48538822206E+03  0.56672840465E+03  0.80378073185E+02 0.  0.
        -15    1    4    4    0    0 -0.64606347556E+02 -0.21324066023E+01 -0.15347346863E+03  0.16653117689E+03  0.00000000000E+00 0. -1.
        -15    1    3    3    0    0  0.27789541496E+03  0.13043187986E+03 -0.19404524974E+02  0.30759530642E+03  0.00000000000E+00 0.  1.
         15    1    4    4    0    0 -0.64980311863E+02 -0.29791850954E+01 -0.72673384614E+02  0.97533262557E+02  0.00000000000E+00 0. -1.
         15    1    4    4    0    0 -0.47960429557E+02 -0.22437137966E+02 -0.11029862465E+03  0.12234955890E+03  0.00000000000E+00 0.  1.
        -16    1    1    2    0    0  0.23715936116E+02 -0.33012626821E+03 -0.27617304803E+03  0.43106536748E+03  0.00000000000E+00 0.  1.
         16    1    4    4    0    0 -0.99965378428E+02 -0.18337589697E+02 -0.14894274417E+03  0.18031440630E+03  0.00000000000E+00 0. -1.
    9900018    1    1    2    0    0 -0.24098883674E+02  0.24558070771E+03 -0.56125733620E+03  0.61985128541E+03  0.91187600000E+02 0.  0.
<mgrwt>
<rscale>  0 0.13802129E+04</rscale>
<asrwt>0</asrwt>
<pdfrwt beam="1">  1        2 0.25134335E+00 0.13802129E+04</pdfrwt>
<pdfrwt beam="2">  1       -2 0.44847479E-01 0.13802129E+04</pdfrwt>
<totfact> 0.49063062E+01</totfact>
</mgrwt>
</event>
<event>
11    1  0.2059453E-017  0.1683993E+04  0.7818608E-02  0.8770547E-01
         -2   -1    0    0    0  501 -0.00000000000E+00  0.00000000000E+00  0.36728410186E+03  0.36728410186E+03  0.00000000000E+00 0.  1.
          2   -1    0    0  501    0  0.00000000000E+00 -0.00000000000E+00 -0.19302726470E+04  0.19302726470E+04  0.00000000000E+00 0. -1.
    9900016    2    1    2    0    0 -0.40372201628E+03  0.90110539866E+02 -0.10849729838E+04  0.13438397100E+04  0.67648164404E+03 0.  0.
        -24    2    3    3    0    0  0.16398188972E+03  0.47192450111E+02 -0.46755851109E+03  0.50400025007E+03  0.79297561534E+02 0.  0.
        -15    1    3    3    0    0 -0.56770390600E+03  0.42918089756E+02 -0.61741447271E+03  0.83983945992E+03  0.00000000000E+00 0.  1.
        -15    1    4    4    0    0  0.16173526746E+02  0.98636449019E+01 -0.11329207356E+03  0.11486500072E+03  0.00000000000E+00 0.  1.
         15    1    4    4    0    0  0.98223348956E+02  0.28292418229E+02 -0.23994847818E+03  0.26081326536E+03  0.00000000000E+00 0. -1.
         15    1    4    4    0    0  0.21531672501E+02 -0.10639625992E+02 -0.45989445179E+02  0.51882980156E+02  0.00000000000E+00 0. -1.
        -16    1    1    2    0    0  0.34757334015E+03 -0.56762027936E+02  0.99058777640E+02  0.36584395037E+03  0.00000000000E+00 0.  1.
         16    1    4    4    0    0  0.28053341521E+02  0.19676012972E+02 -0.68328514177E+02  0.76439003831E+02  0.00000000000E+00 0. -1.
    9900018    1    1    2    0    0  0.56148676131E+02 -0.33348511930E+02 -0.57707433896E+03  0.58787308848E+03  0.91187600000E+02 0.  0.
<mgrwt>
<rscale>  0 0.16839934E+04</rscale>
<asrwt>0</asrwt>
<pdfrwt beam="1">  1        2 0.29696502E+00 0.16839934E+04</pdfrwt>
<pdfrwt beam="2">  1       -2 0.56505247E-01 0.16839934E+04</pdfrwt>
<totfact> 0.20452861E+01</totfact>
</mgrwt>
</event>
<event>
12    1  0.2059453E-017  0.1901087E+04  0.7818608E-02  0.8654316E-01
         -2   -1    0    0    0  501 -0.00000000000E+00  0.00000000000E+00  0.51241438163E+03  0.51241438163E+03  0.00000000000E+00 0.  1.
          2   -1    0    0  501    0  0.00000000000E+00 -0.00000000000E+00 -0.17632847753E+04  0.17632847753E+04  0.00000000000E+00 0. -1.
    9900016    2    1    2    0    0 -0.76794062544E+03  0.49079750752E+02 -0.48825359379E+03  0.11547664669E+04  0.70919136710E+03 0.  0.
        -24    2    3    3    0    0  0.67816781671E+02  0.17051845902E+03 -0.67491308183E+02  0.21122065226E+03  0.79896348587E+02 0.  0.
         23    2    4    4    0    0  0.52294787746E+02  0.10617928853E+03 -0.50700072062E+02  0.13990807568E+03  0.54726467032E+02 0.  0.
        -15    1    5    5    0    0  0.18991534509E+02  0.65557792626E+02 -0.54355778371E+02  0.87252811985E+02  0.00000000000E+00 0.  1.
        -15    1    3    3    0    0 -0.83575740711E+03 -0.12143870827E+03 -0.42076228560E+03  0.94354581468E+03  0.00000000000E+00 0.  1.
         15    1    5    5    0    0  0.33303253237E+02  0.40621495905E+02  0.36557063089E+01  0.52655263691E+02  0.00000000000E+00 0. -1.
         15    1    4    4    0    0  0.20192491041E+02  0.55680100406E+02 -0.16440935881E+02  0.61467996944E+02  0.00000000000E+00 0. -1.
        -16    1    1    2    0    0  0.56795766806E+03  0.50823438751E+02 -0.61145483304E+03  0.83608369645E+03  0.00000000000E+00 0.  1.
         16    1    4    4    0    0 -0.46704971162E+01  0.86590700782E+01 -0.35030023988E+00  0.98445796350E+01  0.00000000000E+00 0. -1.
    9900018    1    1    2    0    0  0.19998295739E+03 -0.99903189503E+02 -0.15116196686E+03  0.28484899357E+03  0.91187600000E+02 0.  0.
<mgrwt>
<rscale>  0 0.19010865E+04</rscale>
<asrwt>0</asrwt>
<pdfrwt beam="1">  1        2 0.27127459E+00 0.19010865E+04</pdfrwt>
<pdfrwt beam="2">  1       -2 0.78832980E-01 0.19010865E+04</pdfrwt>
<totfact> 0.12099030E+01</totfact>
</mgrwt>
</event>
<event>
11    1  0.2059453E-017  0.1425045E+04  0.7818608E-02  0.8935886E-01
          2   -1    0    0  501    0  0.00000000000E+00  0.00000000000E+00  0.83611480460E+03  0.83611480460E+03  0.00000000000E+00 0. -1.
         -2   -1    0    0    0  501 -0.00000000000E+00 -0.00000000000E+00 -0.60719958746E+03  0.60719958746E+03  0.00000000000E+00 0.  1.
    9900016    2    1    2    0    0 -0.75435140132E+02 -0.38152821596E+02 -0.34433556408E+02  0.71861926579E+03  0.71279862598E+03 0.  0.
         24    2    3    3    0    0  0.15227964905E+03 -0.24163288504E+03 -0.21340232452E+03  0.36465884231E+03  0.76550483415E+02 0.  0.
        -15    1    4    4    0    0  0.36914746357E+02 -0.30995965521E+02 -0.21684407903E+02  0.52855103096E+02  0.00000000000E+00 0.  1.
        -15    1    4    4    0    0  0.37481452067E+01 -0.25320881022E+02 -0.29024769978E+02  0.38699262015E+02  0.00000000000E+00 0.  1.
         15    1    4    4    0    0  0.10283867196E+03 -0.17791020093E+03 -0.14315892520E+03  0.25044422514E+03  0.00000000000E+00 0. -1.
         15    1    3    3    0    0 -0.22771478919E+03  0.20348006345E+03  0.17896876811E+03  0.35396042348E+03  0.00000000000E+00 0. -1.
        -16    1    4    4    0    0  0.87780855319E+01 -0.74058375738E+01 -0.19534221438E+02  0.22660252050E+02  0.00000000000E+00 0.  1.
         16    1    1    2    0    0 -0.27628579174E+03 -0.80235033697E+02  0.15827453516E+03  0.32836310364E+03  0.00000000000E+00 0. -1.
    9900018    1    1    2    0    0  0.35172093187E+03  0.11838785529E+03  0.10507423839E+03  0.39633202263E+03  0.91187600000E+02 0.  0.
<mgrwt>
<rscale>  0 0.14250454E+04</rscale>
<asrwt>0</asrwt>
<pdfrwt beam="1">  1        2 0.12863305E+00 0.14250454E+04</pdfrwt>
<pdfrwt beam="2">  1       -2 0.93415321E-01 0.14250454E+04</pdfrwt>
<totfact> 0.30577466E+01</totfact>
</mgrwt>
</event>
<event>
11    1  0.2059453E-017  0.1141917E+04  0.7818608E-02  0.9165273E-01
         -2   -1    0    0    0  501 -0.00000000000E+00  0.00000000000E+00  0.34021427591E+03  0.34021427591E+03  0.00000000000E+00 0. -1.
          2   -1    0    0  501    0  0.00000000000E+00 -0.00000000000E+00 -0.95820118558E+03  0.95820118558E+03  0.00000000000E+00 0.  1.
    9900016    2    1    2    0    0 -0.67715069698E+02  0.20266554345E+03 -0.47907132726E+03  0.88855399642E+03  0.71718910671E+03 0.  0.
         24    2    3    3    0    0  0.89227194403E+02 -0.12755235288E+03  0.10132329541E+03  0.20260017047E+03  0.80927893425E+02 0.  0.
        -15    1    4    4    0    0  0.23867621022E+02 -0.12151711097E+02  0.35843216436E+02  0.44744425131E+02  0.00000000000E+00 0.  1.
        -15    1    4    4    0    0  0.91728343757E+01 -0.13306625611E+02 -0.71522064787E+01  0.17673744175E+02  0.00000000000E+00 0.  1.
         15    1    3    3    0    0 -0.15694226410E+03  0.33021789633E+03 -0.58039462267E+03  0.68595382595E+03  0.00000000000E+00 0. -1.
         15    1    4    4    0    0  0.57220142620E+02 -0.83611352444E+02  0.63116450572E+02  0.11936787387E+03  0.00000000000E+00 0. -1.
        -16    1    4    4    0    0 -0.10334036142E+01 -0.18482663727E+02  0.95158348796E+01  0.20814127292E+02  0.00000000000E+00 0.  1.
         16    1    1    2    0    0 -0.29257016016E+02  0.71332265540E+02 -0.52307566621E+02  0.93168377784E+02  0.00000000000E+00 0. -1.
    9900018    1    1    2    0    0  0.96972085714E+02 -0.27399780899E+03 -0.86608015789E+02  0.31669308728E+03  0.91187600000E+02 0.  0.
<mgrwt>
<rscale>  0 0.11419172E+04</rscale>
<asrwt>0</asrwt>
<pdfrwt beam="1">  1        2 0.14741557E+00 0.11419172E+04</pdfrwt>
<pdfrwt beam="2">  1       -2 0.52340657E-01 0.11419172E+04</pdfrwt>
<totfact> 0.91483265E+01</totfact>
</mgrwt>
</event>
<event>
11    1  0.2059453E-017  0.1545085E+04  0.7818608E-02  0.8855013E-01
         -2   -1    0    0    0  501 -0.00000000000E+00  0.00000000000E+00  0.47980387234E+03  0.47980387234E+03  0.00000000000E+00 0.  1.
          2   -1    0    0  501    0  0.00000000000E+00 -0.00000000000E+00 -0.12438879785E+04  0.12438879785E+04  0.00000000000E+00 0. -1.
    9900016    2    1    2    0    0  0.50680288919E+02 -0.14550955479E+03 -0.49840735777E+03  0.88045392472E+03  0.70925855444E+03 0.  0.
        -24    2    3    3    0    0  0.11586428743E+03  0.27102638744E+02 -0.63482470992E+03  0.65099016508E+03  0.81404524327E+02 0.  0.
        -15    1    4    4    0    0  0.36527021587E+02 -0.31847729228E+01 -0.16957792254E+03  0.17349650687E+03  0.00000000000E+00 0. -1.
        -15    1    3    3    0    0 -0.65183998507E+02 -0.17261219354E+03  0.13641735215E+03  0.22946375963E+03  0.00000000000E+00 0.  1.
         15    1    4    4    0    0  0.40904035070E+02  0.37196951127E+02 -0.22551850867E+03  0.23219679371E+03  0.00000000000E+00 0. -1.
         15    1    4    4    0    0  0.15119840833E+02 -0.20124631741E+02 -0.11574647448E+03  0.11845191743E+03  0.00000000000E+00 0.  1.
        -16    1    1    2    0    0 -0.22149223290E+03 -0.18691936224E+03  0.10572409001E+03  0.30850484668E+03  0.00000000000E+00 0.  1.
         16    1    4    4    0    0  0.23313389936E+02  0.13215092280E+02 -0.12398180424E+03  0.12684494707E+03  0.00000000000E+00 0. -1.
    9900018    1    1    2    0    0  0.17081194398E+03  0.33242891703E+03 -0.37140083835E+03  0.53473307940E+03  0.91187600000E+02 0.  0.
<mgrwt>
<rscale>  0 0.15450855E+04</rscale>
<asrwt>0</asrwt>
<pdfrwt beam="1">  1        2 0.19136738E+00 0.15450855E+04</pdfrwt>
<pdfrwt beam="2">  1       -2 0.73815981E-01 0.15450855E+04</pdfrwt>
<totfact> 0.28410491E+01</totfact>
</mgrwt>
</event>
<event>
11    1  0.2059453E-017  0.1868085E+04  0.7818608E-02  0.8670908E-01
         -4   -1    0    0    0  501 -0.00000000000E+00  0.00000000000E+00  0.15302901551E+04  0.15302901551E+04  0.00000000000E+00 0.  1.
          4   -1    0    0  501    0  0.00000000000E+00 -0.00000000000E+00 -0.57011117226E+03  0.57011117226E+03  0.00000000000E+00 0. -1.
    9900016    2    1    2    0    0 -0.27589629515E+03  0.25427169784E+03  0.12475032277E+04  0.14741642529E+04  0.69001672405E+03 0.  0.
         24    2    3    3    0    0  0.17833238396E+03  0.35125937293E+01  0.10938706155E+03  0.22335962034E+03  0.78161456482E+02 0.  0.
        -15    1    4    4    0    0  0.51471343629E+02 -0.45306691479E+00  0.46986455124E+02  0.69693840830E+02  0.00000000000E+00 0.  1.
        -15    1    4    4    0    0  0.40273973502E+02  0.96219318843E+01  0.16252619701E+02  0.44482829968E+02  0.00000000000E+00 0.  1.
         15    1    3    3    0    0 -0.45422867912E+03  0.25075910411E+03  0.11381161662E+04  0.12508046326E+04  0.00000000000E+00 0. -1.
         15    1    4    4    0    0  0.62837601226E+02 -0.91360664323E+01  0.78458232726E+01  0.63981159575E+02  0.00000000000E+00 0. -1.
        -16    1    4    4    0    0  0.23749465608E+02  0.34797951921E+01  0.38302163452E+02  0.45201789968E+02  0.00000000000E+00 0.  1.
         16    1    1    2    0    0  0.66385815922E+02 -0.27673398054E+03 -0.27587896557E+03  0.39635587063E+03  0.00000000000E+00 0. -1.
    9900018    1    1    2    0    0  0.20951047923E+03  0.22462282701E+02 -0.11445279290E+02  0.22988120381E+03  0.91187600000E+02 0.  0.
<mgrwt>
<rscale>  0 0.18680851E+04</rscale>
<asrwt>0</asrwt>
<pdfrwt beam="1">  1        4 0.87709412E-01 0.18680851E+04</pdfrwt>
<pdfrwt beam="2">  1       -4 0.23542925E+00 0.18680851E+04</pdfrwt>
<totfact> 0.16446970E-01</totfact>
</mgrwt>
</event>
<event>
11    1  0.2059453E-017  0.1062075E+04  0.7818608E-02  0.9242965E-01
          2   -1    0    0  501    0  0.00000000000E+00  0.00000000000E+00  0.97850149284E+03  0.97850149284E+03  0.00000000000E+00 0. -1.
         -2   -1    0    0    0  501 -0.00000000000E+00 -0.00000000000E+00 -0.28819683324E+03  0.28819683324E+03  0.00000000000E+00 0.  1.
    9900016    2    1    2    0    0 -0.16915974587E+03 -0.19543853325E+02  0.58158884575E+03  0.92505160868E+03  0.69891194825E+03 0.  0.
        -24    2    3    3    0    0  0.14399516729E+03  0.58582065916E+02  0.57621103025E+03  0.60225356069E+03  0.80769631210E+02 0.  0.
        -15    1    4    4    0    0  0.39676471994E+02 -0.10982986241E+02  0.99906898397E+02  0.10805663683E+03  0.00000000000E+00 0. -1.
        -15    1    3    3    0    0 -0.31315491316E+03 -0.78125919241E+02  0.53778154961E+01  0.32279804800E+03  0.00000000000E+00 0.  1.
         15    1    4    4    0    0  0.56965448541E+02  0.38994504191E+02  0.20503516634E+03  0.21634475524E+03  0.00000000000E+00 0. -1.
         15    1    4    4    0    0  0.47074286457E+02  0.22731260752E+02  0.23462602395E+03  0.24037901276E+03  0.00000000000E+00 0.  1.
        -16    1    1    2    0    0  0.44697805952E+02  0.34269835777E+02 -0.79750110491E+02  0.97633988060E+02  0.00000000000E+00 0.  1.
         16    1    4    4    0    0  0.27896029948E+00  0.78392872145E+01  0.36642941569E+02  0.37473155855E+02  0.00000000000E+00 0. -1.
    9900018    1    1    2    0    0  0.12446193991E+03 -0.14725982452E+02  0.18846592434E+03  0.24401272934E+03  0.91187600000E+02 0.  0.
<mgrwt>
<rscale>  0 0.10620754E+04</rscale>
<asrwt>0</asrwt>
<pdfrwt beam="1">  1        2 0.15053869E+00 0.10620754E+04</pdfrwt>
<pdfrwt beam="2">  1       -2 0.44337975E-01 0.10620754E+04</pdfrwt>
<totfact> 0.12477943E+02</totfact>
</mgrwt>
</event>
<event>
11    1  0.2059453E-017  0.1186554E+04  0.7818608E-02  0.9124708E-01
          2   -1    0    0  501    0  0.00000000000E+00  0.00000000000E+00  0.10188909114E+04  0.10188909114E+04  0.00000000000E+00 0. -1.
         -2   -1    0    0    0  501 -0.00000000000E+00 -0.00000000000E+00 -0.34545168366E+03  0.34545168366E+03  0.00000000000E+00 0.  1.
    9900016    2    1    2    0    0  0.41239040638E+02  0.93568225846E+02  0.20722144635E+03  0.77303992353E+03  0.73769527868E+03 0.  0.
        -24    2    3    3    0    0 -0.45520007863E+02  0.10959072533E+03 -0.25994901942E+03  0.29761159342E+03  0.83168321170E+02 0.  0.
        -15    1    3    3    0    0  0.86759048502E+02 -0.16022499487E+02  0.46717046577E+03  0.47542833011E+03  0.00000000000E+00 0.  1.
        -15    1    4    4    0    0  0.69756239792E+01  0.99382900529E+01 -0.27151912600E+02  0.29743155463E+02  0.00000000000E+00 0. -1.
         15    1    4    4    0    0 -0.29204721773E+02  0.13666797138E+02 -0.81688967310E+02  0.87822460100E+02  0.00000000000E+00 0. -1.
         15    1    4    4    0    0 -0.64640428913E+01  0.13854607792E+02 -0.63543792731E+02  0.65357077675E+02  0.00000000000E+00 0.  1.
        -16    1    4    4    0    0 -0.16826867178E+02  0.72131030349E+02 -0.87564346780E+02  0.11468890018E+03  0.00000000000E+00 0.  1.
         16    1    1    2    0    0 -0.15367799719E+03 -0.28672017874E+02  0.37964206419E+03  0.41056924913E+03  0.00000000000E+00 0. -1.
    9900018    1    1    2    0    0  0.11243895655E+03 -0.64896207971E+02  0.86575717154E+02  0.18073342235E+03  0.91187600000E+02 0.  0.
<mgrwt>
<rscale>  0 0.11865540E+04</rscale>
<asrwt>0</asrwt>
<pdfrwt beam="1">  1        2 0.15675245E+00 0.11865540E+04</pdfrwt>
<pdfrwt beam="2">  1       -2 0.53146413E-01 0.11865540E+04</pdfrwt>
<totfact> 0.80750455E+01</totfact>
</mgrwt>
</event>
<event>
11    1  0.2059453E-017  0.9962177E+03  0.7818608E-02  0.9312703E-01
          2   -1    0    0  501    0  0.00000000000E+00  0.00000000000E+00  0.11321685033E+04  0.11321685033E+04  0.00000000000E+00 0. -1.
         -2   -1    0    0    0  501 -0.00000000000E+00 -0.00000000000E+00 -0.21914798840E+03  0.21914798840E+03  0.00000000000E+00 0.  1.
    9900016    2    1    2    0    0 -0.13493612014E+03 -0.53463021595E+02  0.72302505469E+03  0.10241436312E+04  0.71066088701E+03 0.  0.
         24    2    3    3    0    0 -0.81804328376E+02 -0.19733723613E+03 -0.52148310120E+02  0.23394332591E+03  0.79850488934E+02 0.  0.
        -15    1    4    4    0    0 -0.46642186339E+02 -0.11603249901E+03 -0.30088945098E+02  0.12862495477E+03  0.00000000000E+00 0.  1.
        -15    1    4    4    0    0 -0.77828691679E+01 -0.29085363084E+02  0.72920104815E+01  0.30979102877E+02  0.00000000000E+00 0.  1.
         15    1    3    3    0    0 -0.53131791761E+02  0.14387421454E+03  0.77517336481E+03  0.79020030525E+03  0.00000000000E+00 0. -1.
         15    1    4    4    0    0 -0.77482836768E+01 -0.25763970382E+02 -0.31379076968E+02  0.41333576438E+02  0.00000000000E+00 0. -1.
        -16    1    4    4    0    0 -0.19630989192E+02 -0.26455403652E+02  0.20277014646E+01  0.33005691817E+02  0.00000000000E+00 0.  1.
         16    1    1    2    0    0  0.29719505359E+02  0.29547935810E+01  0.17587243474E+03  0.17839028310E+03  0.00000000000E+00 0. -1.
    9900018    1    1    2    0    0  0.10521661478E+03  0.50508228014E+02  0.14123025521E+02  0.14878257750E+03  0.91187600000E+02 0.  0.
<mgrwt>
<rscale>  0 0.99621775E+03</rscale>
<asrwt>0</asrwt>
<pdfrwt beam="1">  1        2 0.17417977E+00 0.99621775E+03</pdfrwt>
<pdfrwt beam="2">  1       -2 0.33715076E-01 0.99621775E+03</pdfrwt>
<totfact> 0.17080440E+02</totfact>
</mgrwt>
</event>
<event>
11    1  0.2059453E-017  0.1080231E+04  0.7818608E-02  0.9224677E-01
         -1   -1    0    0    0  501 -0.00000000000E+00  0.00000000000E+00  0.18200446359E+03  0.18200446359E+03  0.00000000000E+00 0.  1.
          1   -1    0    0  501    0  0.00000000000E+00 -0.00000000000E+00 -0.16028447538E+04  0.16028447538E+04  0.00000000000E+00 0. -1.
    9900016    2    1    2    0    0  0.86759296059E+02  0.49205259932E+02 -0.74813298459E+03  0.10404862321E+04  0.71621247095E+03 0.  0.
        -24    2    3    3    0    0 -0.14643049791E+03  0.73068764917E+01 -0.78317926100E+03  0.80098425710E+03  0.81919131472E+02 0.  0.
        -15    1    4    4    0    0 -0.65258310129E+02 -0.13905697074E+02 -0.27994548832E+03  0.28778723370E+03  0.00000000000E+00 0.  1.
        -15    1    3    3    0    0  0.23318979397E+03  0.41898383440E+02  0.35046276412E+02  0.23950197502E+03  0.00000000000E+00 0.  1.
         15    1    4    4    0    0 -0.15887950915E+02  0.20803292683E+02 -0.98980053708E+02  0.10238288433E+03  0.00000000000E+00 0. -1.
         15    1    4    4    0    0 -0.75673564740E+01 -0.95418441965E+01 -0.37906585871E+02  0.39814833003E+02  0.00000000000E+00 0. -1.
        -16    1    1    2    0    0 -0.30929334945E+01 -0.26425022741E+02  0.24333523721E+02  0.36055075110E+02  0.00000000000E+00 0.  1.
         16    1    4    4    0    0 -0.57716880396E+02  0.99511250794E+01 -0.36634713310E+03  0.37099930607E+03  0.00000000000E+00 0. -1.
    9900018    1    1    2    0    0 -0.83666362564E+02 -0.22780237191E+02 -0.69704082938E+03  0.70830791020E+03  0.91187600000E+02 0.  0.
<mgrwt>
<rscale>  0 0.10802313E+04</rscale>
<asrwt>0</asrwt>
<pdfrwt beam="1">  1        1 0.24659150E+00 0.10802313E+04</pdfrwt>
<pdfrwt beam="2">  1       -1 0.28000687E-01 0.10802313E+04</pdfrwt>
<totfact> 0.63825293E+01</totfact>
</mgrwt>
</event>
<event>
11    1  0.2059453E-017  0.1399046E+04  0.7818608E-02  0.8954510E-01
         -2   -1    0    0    0  501 -0.00000000000E+00  0.00000000000E+00  0.86843109910E+03  0.86843109910E+03  0.00000000000E+00 0.  1.
          2   -1    0    0  501    0  0.00000000000E+00 -0.00000000000E+00 -0.56346682699E+03  0.56346682699E+03  0.00000000000E+00 0. -1.
    9900016    2    1    2    0    0 -0.44047894999E+02  0.15156556841E+03  0.21367561249E+03  0.75062472343E+03  0.70204548960E+03 0.  0.
        -24    2    3    3    0    0  0.18819979231E+03  0.13057066808E+03 -0.17371196299E+03  0.29846445567E+03  0.80232936012E+02 0.  0.
        -15    1    3    3    0    0 -0.23224768731E+03  0.20994900325E+02  0.38738757548E+03  0.45216026776E+03  0.00000000000E+00 0.  1.
        -15    1    4    4    0    0  0.95717000780E+02  0.55072377385E+02 -0.45712244378E+02  0.11951702923E+03  0.00000000000E+00 0. -1.
         15    1    4    4    0    0  0.49396283429E+02  0.21023690777E+02 -0.54796673835E+02  0.76711562712E+02  0.00000000000E+00 0.  1.
         15    1    4    4    0    0  0.37636770065E+02  0.45915395401E+02 -0.52812432613E+02  0.79460071950E+02  0.00000000000E+00 0. -1.
        -16    1    1    2    0    0 -0.18660373498E+03 -0.32302091988E+03  0.64348495167E+02  0.37855540865E+03  0.00000000000E+00 0.  1.
         16    1    4    4    0    0  0.54497380408E+01  0.85592045216E+01 -0.20390612167E+02  0.22775791782E+02  0.00000000000E+00 0. -1.
    9900018    1    1    2    0    0  0.23065162998E+03  0.17145535147E+03  0.26940164461E+02  0.30271779401E+03  0.91187600000E+02 0.  0.
<mgrwt>
<rscale>  0 0.13990456E+04</rscale>
<asrwt>0</asrwt>
<pdfrwt beam="1">  1        2 0.86687204E-01 0.13990456E+04</pdfrwt>
<pdfrwt beam="2">  1       -2 0.13360478E+00 0.13990456E+04</pdfrwt>
<totfact> 0.21081520E+01</totfact>
</mgrwt>
</event>
<event>
11    1  0.2059453E-017  0.2026730E+04  0.7818608E-02  0.8594224E-01
          1   -1    0    0  501    0  0.00000000000E+00  0.00000000000E+00  0.20431914391E+04  0.20431914391E+04  0.00000000000E+00 0. -1.
         -1   -1    0    0    0  501 -0.00000000000E+00 -0.00000000000E+00 -0.50260047209E+03  0.50260047209E+03  0.00000000000E+00 0.  1.
    9900016    2    1    2    0    0 -0.28102989555E+02 -0.64892291762E+02  0.78160121063E+03  0.10594291795E+04  0.71168036806E+03 0.  0.
        -24    2    3    3    0    0  0.12508848198E+03  0.20744770124E+03  0.68700804516E+03  0.73295626222E+03  0.81013277549E+02 0.  0.
        -15    1    4    4    0    0  0.42357627509E+02  0.79118055683E+02  0.20483191921E+03  0.22362904658E+03  0.00000000000E+00 0.  1.
        -15    1    3    3    0    0 -0.15319147153E+03 -0.27233999300E+03  0.94593165469E+02  0.32647291724E+03  0.00000000000E+00 0.  1.
         15    1    4    4    0    0  0.10471289102E+02  0.42921891320E+02  0.20214400592E+03  0.20691576977E+03  0.00000000000E+00 0. -1.
         15    1    4    4    0    0  0.22376150117E+02  0.11981479391E+02  0.59971575580E+02  0.65121715426E+02  0.00000000000E+00 0. -1.
        -16    1    1    2    0    0  0.19082002753E+02  0.16360641051E+03 -0.34071454630E+03  0.37844098938E+03  0.00000000000E+00 0.  1.
         16    1    4    4    0    0  0.49883415251E+02  0.73426274844E+02  0.22006054445E+03  0.23728973045E+03  0.00000000000E+00 0. -1.
    9900018    1    1    2    0    0  0.90209868017E+01 -0.98714118746E+02  0.10997043027E+04  0.11079217423E+04  0.91187600000E+02 0.  0.
<mgrwt>
<rscale>  0 0.20267304E+04</rscale>
<asrwt>0</asrwt>
<pdfrwt beam="1">  1        1 0.31433714E+00 0.20267304E+04</pdfrwt>
<pdfrwt beam="2">  1       -1 0.77323150E-01 0.20267304E+04</pdfrwt>
<totfact> 0.43222849E+00</totfact>
</mgrwt>
</event>
<event>
11    1  0.2059453E-017  0.1529937E+04  0.7818608E-02  0.8864786E-01
          1   -1    0    0  501    0  0.00000000000E+00  0.00000000000E+00  0.10966327730E+04  0.10966327730E+04  0.00000000000E+00 0. -1.
         -1   -1    0    0    0  501 -0.00000000000E+00 -0.00000000000E+00 -0.53361240584E+03  0.53361240584E+03  0.00000000000E+00 0.  1.
    9900016    2    1    2    0    0 -0.23106418562E+03 -0.48951453531E+03  0.48900612493E+03  0.10255358741E+04  0.72082015836E+03 0.  0.
        -24    2    3    3    0    0 -0.11329324989E+03  0.91331909642E+02  0.39090792692E+03  0.42480644885E+03  0.80465107108E+02 0.  0.
        -15    1    4    4    0    0 -0.21803901998E+02 -0.17120990560E+01  0.90878591324E+02  0.93473310557E+02  0.00000000000E+00 0.  1.
        -15    1    3    3    0    0 -0.11777093572E+03 -0.58084644496E+03  0.98098198006E+02  0.60072942526E+03  0.00000000000E+00 0.  1.
         15    1    4    4    0    0  0.14903734545E+01  0.10137598143E+02  0.52333244856E+02  0.53326922153E+02  0.00000000000E+00 0. -1.
         15    1    4    4    0    0 -0.40535982120E+02  0.22998100749E+02  0.90293997690E+02  0.10161242298E+03  0.00000000000E+00 0. -1.
        -16    1    1    2    0    0  0.18361973210E+03  0.27771146613E+03  0.13853532118E+03  0.36059936169E+03  0.00000000000E+00 0.  1.
         16    1    4    4    0    0 -0.52443739231E+02  0.59908309806E+02  0.15740209305E+03  0.17639379316E+03  0.00000000000E+00 0. -1.
    9900018    1    1    2    0    0  0.47444453513E+02  0.21180306919E+03 -0.64521078924E+02  0.24410994307E+03  0.91187600000E+02 0.  0.
<mgrwt>
<rscale>  0 0.15299371E+04</rscale>
<asrwt>0</asrwt>
<pdfrwt beam="1">  1        1 0.16871273E+00 0.15299371E+04</pdfrwt>
<pdfrwt beam="2">  1       -1 0.82094216E-01 0.15299371E+04</pdfrwt>
<totfact> 0.18167176E+01</totfact>
</mgrwt>
</event>
<event>
11    1  0.2059453E-017  0.2043561E+04  0.7818608E-02  0.8586521E-01
         -2   -1    0    0    0  501 -0.00000000000E+00  0.00000000000E+00  0.43748528213E+03  0.43748528213E+03  0.00000000000E+00 0.  1.
          2   -1    0    0  501    0  0.00000000000E+00 -0.00000000000E+00 -0.23864480411E+04  0.23864480411E+04  0.00000000000E+00 0. -1.
    9900016    2    1    2    0    0  0.61101900515E+03 -0.17982999289E+02 -0.15668096867E+04  0.18250390700E+04  0.70866592948E+03 0.  0.
         24    2    3    3    0    0 -0.14537471894E+03 -0.48945023693E+02 -0.37719698596E+03  0.41497932279E+03  0.80005299080E+02 0.  0.
        -15    1    4    4    0    0 -0.29827041049E+02 -0.13551073445E+02 -0.60650252704E+02  0.68932845018E+02  0.00000000000E+00 0.  1.
        -15    1    4    4    0    0 -0.33506590972E+02  0.15589016438E+02 -0.61077601847E+02  0.71387551572E+02  0.00000000000E+00 0.  1.
         15    1    3    3    0    0  0.75639372409E+03  0.30962024404E+02 -0.11896127008E+04  0.14100597472E+04  0.00000000000E+00 0. -1.
         15    1    4    4    0    0 -0.17065809394E+02 -0.26208840105E+02 -0.83225874659E+02  0.88908331233E+02  0.00000000000E+00 0. -1.
        -16    1    4    4    0    0 -0.64975277520E+02 -0.24774126581E+02 -0.17224325675E+03  0.18575059497E+03  0.00000000000E+00 0.  1.
         16    1    1    2    0    0 -0.51760293001E+02  0.26483936406E+03 -0.24783069825E+03  0.36638650587E+03  0.00000000000E+00 0. -1.
    9900018    1    1    2    0    0 -0.55925871215E+03 -0.24685636477E+03 -0.13432237399E+03  0.63250774737E+03  0.91187600000E+02 0.  0.
<mgrwt>
<rscale>  0 0.20435615E+04</rscale>
<asrwt>0</asrwt>
<pdfrwt beam="1">  1        2 0.36714585E+00 0.20435615E+04</pdfrwt>
<pdfrwt beam="2">  1       -2 0.67305429E-01 0.20435615E+04</pdfrwt>
<totfact> 0.75883360E+00</totfact>
</mgrwt>
</event>
<event>
11    1  0.2059453E-017  0.1448295E+04  0.7818608E-02  0.8919583E-01
         -2   -1    0    0    0  501 -0.00000000000E+00  0.00000000000E+00  0.69979835913E+03  0.69979835913E+03  0.00000000000E+00 0.  1.
          2   -1    0    0  501    0  0.00000000000E+00 -0.00000000000E+00 -0.74934431858E+03  0.74934431858E+03  0.00000000000E+00 0. -1.
    9900016    2    1    2    0    0 -0.37401343722E+03 -0.22497715511E+03  0.56946470312E+02  0.83268190887E+03  0.70683483879E+03 0.  0.
         24    2    3    3    0    0 -0.56945277330E+02  0.20274509756E+03  0.17716707520E+03  0.28685085691E+03  0.80912930849E+02 0.  0.
        -15    1    4    4    0    0 -0.17266258290E+02  0.38183058579E+02  0.61580161072E+02  0.74486145527E+02  0.00000000000E+00 0.  1.
        -15    1    4    4    0    0  0.63350921609E+01  0.35470462932E+02  0.17242242065E+02  0.39944737385E+02  0.00000000000E+00 0. -1.
         15    1    3    3    0    0 -0.31706815989E+03 -0.42772225267E+03 -0.12022060489E+03  0.54583105196E+03  0.00000000000E+00 0. -1.
         15    1    4    4    0    0 -0.40373631163E+02  0.11119798428E+03  0.98057195643E+02  0.15365622480E+03  0.00000000000E+00 0.  1.
        -16    1    4    4    0    0 -0.56404800381E+01  0.17893591762E+02  0.28747642311E+00  0.18763749197E+02  0.00000000000E+00 0.  1.
         16    1    1    2    0    0  0.36865649771E+03  0.27193257763E+03 -0.17783565054E+03  0.49140661237E+03  0.00000000000E+00 0. -1.
    9900018    1    1    2    0    0  0.53569395108E+01 -0.46955422521E+02  0.71343220777E+02  0.12505415647E+03  0.91187600000E+02 0.  0.
<mgrwt>
<rscale>  0 0.14482954E+04</rscale>
<asrwt>0</asrwt>
<pdfrwt beam="1">  1        2 0.11528374E+00 0.14482954E+04</pdfrwt>
<pdfrwt beam="2">  1       -2 0.10766129E+00 0.14482954E+04</pdfrwt>
<totfact> 0.25203233E+01</totfact>
</mgrwt>
</event>
<event>
11    1  0.2059453E-017  0.1548905E+04  0.7818608E-02  0.8852567E-01
         -5   -1    0    0    0  501 -0.00000000000E+00  0.00000000000E+00  0.46235052867E+03  0.46235052867E+03  0.00000000000E+00 0.  1.
          5   -1    0    0  501    0  0.00000000000E+00 -0.00000000000E+00 -0.12972338010E+04  0.12972338010E+04  0.00000000000E+00 0. -1.
    9900016    2    1    2    0    0 -0.31079223062E+03 -0.32338501086E+03 -0.23507545880E+03  0.87384885287E+03  0.71216688387E+03 0.  0.
         24    2    3    3    0    0  0.21891102604E+03 -0.55830444077E+02 -0.20780833923E+02  0.24290260115E+03  0.86779921519E+02 0.  0.
        -15    1    4    4    0    0  0.78545308972E+02 -0.30285986957E+00 -0.27439087673E+02  0.83200726066E+02  0.00000000000E+00 0.  1.
        -15    1    4    4    0    0  0.79798991101E+02 -0.33377042981E+02  0.21783331489E+02  0.89198764059E+02  0.00000000000E+00 0.  1.
         15    1    4    4    0    0  0.11275948671E+02  0.31413836239E+01  0.32263368697E+01  0.12141851552E+02  0.00000000000E+00 0. -1.
         15    1    3    3    0    0 -0.52970325666E+03 -0.26755456678E+03 -0.21429462487E+03  0.63094625173E+03  0.00000000000E+00 0. -1.
        -16    1    4    4    0    0  0.49290777296E+02 -0.25291924850E+02 -0.18351414608E+02  0.58361259473E+02  0.00000000000E+00 0.  1.
         16    1    1    2    0    0 -0.87449639579E+02  0.12836909141E+03 -0.30360478645E+02  0.15826503643E+03  0.00000000000E+00 0. -1.
    9900018    1    1    2    0    0  0.39824187019E+03  0.19501591945E+03 -0.56944733494E+03  0.72747044041E+03  0.91187600000E+02 0.  0.
<mgrwt>
<rscale>  0 0.15489051E+04</rscale>
<asrwt>0</asrwt>
<pdfrwt beam="1">  1        5 0.19957443E+00 0.15489051E+04</pdfrwt>
<pdfrwt beam="2">  1       -5 0.71130850E-01 0.15489051E+04</pdfrwt>
<totfact> 0.18782261E-01</totfact>
</mgrwt>
</event>
<event>
11    1  0.2059453E-017  0.1538042E+04  0.7818608E-02  0.8859542E-01
         -2   -1    0    0    0  501 -0.00000000000E+00  0.00000000000E+00  0.19442865473E+03  0.19442865473E+03  0.00000000000E+00 0.  1.
          2   -1    0    0  501    0  0.00000000000E+00 -0.00000000000E+00 -0.30416998835E+04  0.30416998835E+04  0.00000000000E+00 0. -1.
    9900016    2    1    2    0    0 -0.11313708609E+03 -0.38557309634E+03 -0.26093628050E+04  0.27461873724E+04  0.75584669304E+03 0.  0.
         24    2    3    3    0    0 -0.16871488405E+03  0.17199666003E+03 -0.46488972098E+03  0.52971771709E+03  0.80192543086E+02 0.  0.
        -15    1    4    4    0    0 -0.83430083210E+02  0.73357855946E+02 -0.16717952757E+03  0.20072605275E+03  0.00000000000E+00 0.  1.
        -15    1    4    4    0    0 -0.22711209890E+02  0.32236334688E+02 -0.99280819058E+02  0.10682537789E+03  0.00000000000E+00 0.  1.
         15    1    3    3    0    0  0.55577797954E+02 -0.55756975638E+03 -0.21444730840E+04  0.22164696553E+04  0.00000000000E+00 0. -1.
         15    1    4    4    0    0  0.45871756583E+01  0.13722949762E+02 -0.32260404769E+02  0.35356686023E+02  0.00000000000E+00 0. -1.
        -16    1    4    4    0    0 -0.67160766603E+02  0.52679519638E+02 -0.16616896958E+03  0.18680960043E+03  0.00000000000E+00 0.  1.
         16    1    1    2    0    0  0.38978667089E+02  0.22789943911E+03 -0.11758524123E+03  0.25939117138E+03  0.00000000000E+00 0. -1.
    9900018    1    1    2    0    0  0.74158419002E+02  0.15767365724E+03 -0.12032318257E+03  0.23054999448E+03  0.91187600000E+02 0.  0.
<mgrwt>
<rscale>  0 0.15380424E+04</rscale>
<asrwt>0</asrwt>
<pdfrwt beam="1">  1        2 0.46795381E+00 0.15380424E+04</pdfrwt>
<pdfrwt beam="2">  1       -2 0.29912102E-01 0.15380424E+04</pdfrwt>
<totfact> 0.16399230E+01</totfact>
</mgrwt>
</event>
<event>
11    1  0.2059453E-017  0.1650567E+04  0.7818608E-02  0.8790071E-01
         -2   -1    0    0    0  501 -0.00000000000E+00  0.00000000000E+00  0.18382085537E+03  0.18382085537E+03  0.00000000000E+00 0. -1.
          2   -1    0    0  501    0  0.00000000000E+00 -0.00000000000E+00 -0.37051971037E+04  0.37051971037E+04  0.00000000000E+00 0.  1.
    9900016    2    1    2    0    0  0.18103936675E+03 -0.16979367837E+03 -0.10966357914E+04  0.13225825616E+04  0.69642618249E+03 0.  0.
        -24    2    3    3    0    0  0.17402423073E+03  0.24218472027E+03 -0.32824390476E+03  0.45068720974E+03  0.80231093741E+02 0.  0.
        -15    1    4    4    0    0  0.79384254618E+02  0.13393165989E+03 -0.19706267807E+03  0.25114388006E+03  0.00000000000E+00 0.  1.
        -15    1    3    3    0    0  0.70151360193E+01 -0.41197839864E+03 -0.76839188662E+03  0.87189535181E+03  0.00000000000E+00 0.  1.
         15    1    4    4    0    0  0.17481474835E+02  0.14610720513E+02 -0.11701970922E+02  0.25612716369E+02  0.00000000000E+00 0. -1.
         15    1    4    4    0    0  0.12586470561E+02  0.18244880371E+01 -0.51886941713E+01  0.13735739696E+02  0.00000000000E+00 0. -1.
        -16    1    1    2    0    0 -0.47599934572E+03  0.22605542624E+03 -0.15464828309E+04  0.16337948400E+04  0.00000000000E+00 0.  1.
         16    1    4    4    0    0  0.64572030717E+02  0.91817851825E+02 -0.11429056160E+03  0.16019487362E+03  0.00000000000E+00 0. -1.
    9900018    1    1    2    0    0  0.29495997897E+03 -0.56261747867E+02 -0.87825762602E+03  0.93264055752E+03  0.91187600000E+02 0.  0.
<mgrwt>
<rscale>  0 0.16505666E+04</rscale>
<asrwt>0</asrwt>
<pdfrwt beam="1">  1        2 0.57003028E+00 0.16505666E+04</pdfrwt>
<pdfrwt beam="2">  1       -2 0.28280134E-01 0.16505666E+04</pdfrwt>
<totfact> 0.64124360E+00</totfact>
</mgrwt>
</event>
<event>
11    1  0.2059453E-017  0.1614140E+04  0.7818608E-02  0.8811908E-01
         -2   -1    0    0    0  501 -0.00000000000E+00  0.00000000000E+00  0.31350632255E+03  0.31350632255E+03  0.00000000000E+00 0.  1.
          2   -1    0    0  501    0  0.00000000000E+00 -0.00000000000E+00 -0.20776685296E+04  0.20776685296E+04  0.00000000000E+00 0. -1.
    9900016    2    1    2    0    0 -0.20369434731E+03  0.28746570905E+03 -0.53585762799E+03  0.95290716650E+03  0.70481256336E+03 0.  0.
         24    2    3    3    0    0 -0.18381615518E+03 -0.86751469657E+01  0.11947614627E+03  0.23349288751E+03  0.79879546234E+02 0.  0.
        -15    1    4    4    0    0 -0.16337070906E+02  0.74412341361E+01  0.19866983529E+02  0.26776274681E+02  0.00000000000E+00 0. -1.
        -15    1    4    4    0    0 -0.28207409310E+02 -0.25542207982E+02  0.17705453787E+02  0.41970768666E+02  0.00000000000E+00 0.  1.
         15    1    4    4    0    0 -0.33102023271E+02  0.45818753759E+01  0.55342046663E+01  0.33872775910E+02  0.00000000000E+00 0.  1.
         15    1    3    3    0    0 -0.19878192128E+02  0.29614085601E+03 -0.65533377426E+03  0.71941427899E+03  0.00000000000E+00 0. -1.
        -16    1    4    4    0    0 -0.10616965170E+03  0.48439515040E+01  0.76369504289E+02  0.13087306825E+03  0.00000000000E+00 0.  1.
         16    1    1    2    0    0  0.35815896667E+03 -0.34554167768E+03 -0.11079436698E+04  0.12145847323E+04  0.00000000000E+00 0. -1.
    9900018    1    1    2    0    0 -0.15446461935E+03  0.58075968630E+02 -0.12036090924E+03  0.22368295338E+03  0.91187600000E+02 0.  0.
<mgrwt>
<rscale>  0 0.16141403E+04</rscale>
<asrwt>0</asrwt>
<pdfrwt beam="1">  1        2 0.31964132E+00 0.16141403E+04</pdfrwt>
<pdfrwt beam="2">  1       -2 0.48231741E-01 0.16141403E+04</pdfrwt>
<totfact> 0.23596886E+01</totfact>
</mgrwt>
</event>
<event>
11    1  0.2059453E-017  0.1628884E+04  0.7818608E-02  0.8802997E-01
          2   -1    0    0  501    0  0.00000000000E+00  0.00000000000E+00  0.11203073140E+04  0.11203073140E+04  0.00000000000E+00 0. -1.
         -2   -1    0    0    0  501 -0.00000000000E+00 -0.00000000000E+00 -0.59208370259E+03  0.59208370259E+03  0.00000000000E+00 0.  1.
    9900016    2    1    2    0    0  0.29819135596E+03 -0.40905636247E+03  0.55522846034E+03  0.10315697824E+04  0.70683263952E+03 0.  0.
        -24    2    3    3    0    0 -0.18887509196E+03 -0.40149807007E+02  0.65276795453E+01  0.21035219964E+03  0.83184312988E+02 0.  0.
        -15    1    3    3    0    0  0.48706644792E+03 -0.36890655546E+03  0.54870078079E+03  0.82121758273E+03  0.00000000000E+00 0.  1.
        -15    1    4    4    0    0 -0.77602448001E+02 -0.31362241801E+02 -0.60094819164E+01  0.83915695906E+02  0.00000000000E+00 0.  1.
         15    1    4    4    0    0 -0.29236230121E+02 -0.27995377143E+02  0.11450828735E+02  0.42066848845E+02  0.00000000000E+00 0. -1.
         15    1    4    4    0    0 -0.31625538867E+02  0.67442200599E+01  0.23865974701E+01  0.32424605785E+02  0.00000000000E+00 0. -1.
        -16    1    1    2    0    0 -0.18394596446E+03  0.31141432724E+03 -0.21715399431E+03  0.42186592455E+03  0.00000000000E+00 0.  1.
         16    1    4    4    0    0 -0.50410874972E+02  0.12463591877E+02 -0.13002647434E+01  0.51945049103E+02  0.00000000000E+00 0. -1.
    9900018    1    1    2    0    0 -0.11424539150E+03  0.97642035231E+02  0.19014914535E+03  0.25895530965E+03  0.91187600000E+02 0.  0.
<mgrwt>
<rscale>  0 0.16288839E+04</rscale>
<asrwt>0</asrwt>
<pdfrwt beam="1">  1        2 0.17235497E+00 0.16288839E+04</pdfrwt>
<pdfrwt beam="2">  1       -2 0.91089800E-01 0.16288839E+04</pdfrwt>
<totfact> 0.20820499E+01</totfact>
</mgrwt>
</event>
<event>
11    1  0.2059453E-017  0.2041266E+04  0.7818608E-02  0.8587567E-01
         -2   -1    0    0    0  501 -0.00000000000E+00  0.00000000000E+00  0.94419987607E+03  0.94419987607E+03  0.00000000000E+00 0.  1.
          2   -1    0    0  501    0  0.00000000000E+00 -0.00000000000E+00 -0.11032536197E+04  0.11032536197E+04  0.00000000000E+00 0. -1.
    9900016    2    1    2    0    0  0.42389647289E+02  0.38929034907E+03 -0.37099554779E+03  0.92848268760E+03  0.75571062360E+03 0.  0.
        -24    2    3    3    0    0 -0.41161124063E+02  0.21851299862E+03 -0.59172953690E+03  0.63715962163E+03  0.79914766434E+02 0.  0.
        -15    1    3    3    0    0  0.83550771353E+02  0.17077735045E+03  0.22073398911E+03  0.29132306597E+03  0.00000000000E+00 0.  1.
        -15    1    4    4    0    0 -0.21563298842E+02  0.42619527690E+02 -0.14608601778E+03  0.15369620876E+03  0.00000000000E+00 0.  1.
         15    1    4    4    0    0 -0.19421772135E+02  0.14632441607E+02 -0.50699200533E+02  0.56229196286E+02  0.00000000000E+00 0. -1.
         15    1    4    4    0    0 -0.20409930429E+01  0.96773732709E+02 -0.26571405147E+03  0.28279547052E+03  0.00000000000E+00 0. -1.
        -16    1    1    2    0    0  0.44040369992E+02 -0.30624081474E+03  0.61513923276E+03  0.68856318990E+03  0.00000000000E+00 0.  1.
         16    1    4    4    0    0  0.18649399562E+01  0.64487296614E+02 -0.12923026712E+03  0.14443874606E+03  0.00000000000E+00 0. -1.
    9900018    1    1    2    0    0 -0.86430017281E+02 -0.83049534330E+02 -0.40319742857E+03  0.43040761824E+03  0.91187600000E+02 0.  0.
<mgrwt>
<rscale>  0 0.20412662E+04</rscale>
<asrwt>0</asrwt>
<pdfrwt beam="1">  1        2 0.16973133E+00 0.20412662E+04</pdfrwt>
<pdfrwt beam="2">  1       -2 0.14526152E+00 0.20412662E+04</pdfrwt>
<totfact> 0.65488177E+00</totfact>
</mgrwt>
</event>
<event>
11    1  0.2220116E-017  0.1596351E+04  0.7818608E-02  0.8822793E-01
         -2   -1    0    0    0  501 -0.00000000000E+00  0.00000000000E+00  0.27092636008E+03  0.27092636008E+03  0.00000000000E+00 0.  1.
          2   -1    0    0  501    0  0.00000000000E+00 -0.00000000000E+00 -0.23515027542E+04  0.23515027542E+04  0.00000000000E+00 0. -1.
    9900016    2    1    2    0    0  0.25149250189E+03 -0.76365927827E+02 -0.13021432019E+04  0.15279827347E+04  0.75503250649E+03 0.  0.
         24    2    3    3    0    0 -0.99753730627E+02  0.20016476013E+03 -0.12386275255E+03  0.26774944100E+03  0.79567856030E+02 0.  0.
        -15    1    4    4    0    0 -0.32425055779E+02  0.77758274089E+02 -0.59419869681E+02  0.10309439531E+03  0.00000000000E+00 0.  1.
        -15    1    4    4    0    0  0.26421913539E+01  0.10771298447E+02  0.22847965914E+01  0.11323530405E+02  0.00000000000E+00 0.  1.
         15    1    4    4    0    0 -0.51526809034E+02  0.46016338731E+02 -0.41855017370E+02  0.80773497872E+02  0.00000000000E+00 0. -1.
         15    1    3    3    0    0  0.35124623252E+03 -0.27653068796E+03 -0.11782804494E+04  0.12602332937E+04  0.00000000000E+00 0. -1.
        -16    1    4    4    0    0 -0.18444057168E+02  0.65618848862E+02 -0.24872662092E+02  0.72558017409E+02  0.00000000000E+00 0.  1.
         16    1    1    2    0    0 -0.27215056207E+03  0.23291506867E+03 -0.83079747527E+03  0.90473189541E+03  0.00000000000E+00 0. -1.
    9900018    1    1    2    0    0  0.20658060177E+02 -0.15654914085E+03  0.52364283102E+02  0.18971448413E+03  0.91187600000E+02 0.  0.
<mgrwt>
<rscale>  0 0.15963509E+04</rscale>
<asrwt>0</asrwt>
<pdfrwt beam="1">  1        2 0.36176966E+00 0.15963509E+04</pdfrwt>
<pdfrwt beam="2">  1       -2 0.41680978E-01 0.15963509E+04</pdfrwt>
<totfact> 0.22200771E+01</totfact>
</mgrwt>
</event>
<event>
11    1  0.2059453E-017  0.2536709E+04  0.7818608E-02  0.8390023E-01
          2   -1    0    0  501    0  0.00000000000E+00  0.00000000000E+00  0.26135761253E+04  0.26135761253E+04  0.00000000000E+00 0. -1.
         -2   -1    0    0    0  501 -0.00000000000E+00 -0.00000000000E+00 -0.61552543745E+03  0.61552543745E+03  0.00000000000E+00 0.  1.
    9900016    2    1    2    0    0 -0.26940099052E+03 -0.39367880201E+03  0.16631397108E+04  0.18733813691E+04  0.71830645511E+03 0.  0.
        -24    2    3    3    0    0  0.11838768178E+03  0.13299599137E+03  0.25667692697E+03  0.32228370784E+03  0.79247502055E+02 0.  0.
        -15    1    4    4    0    0  0.39557518200E+02  0.54610977525E+02  0.47354457750E+02  0.82399033860E+02  0.00000000000E+00 0.  1.
        -15    1    3    3    0    0 -0.38778867229E+03 -0.52667479338E+03  0.14064627839E+04  0.15510976612E+04  0.00000000000E+00 0.  1.
         15    1    4    4    0    0  0.20274275645E+02  0.24061974258E+01  0.38658149891E+02  0.43718286700E+02  0.00000000000E+00 0. -1.
         15    1    4    4    0    0  0.40865271634E+01  0.94370220463E+01  0.24690693600E+02  0.26746727647E+02  0.00000000000E+00 0. -1.
        -16    1    1    2    0    0  0.30962744465E+03 -0.39799189222E+03  0.42993785544E+02  0.50607822158E+03  0.00000000000E+00 0.  1.
         16    1    4    4    0    0  0.54469360769E+02  0.66541794375E+02  0.14597362573E+03  0.16941965963E+03  0.00000000000E+00 0. -1.
    9900018    1    1    2    0    0 -0.40226454138E+02  0.79167069423E+03  0.29191719152E+03  0.84964197214E+03  0.91187600000E+02 0.  0.
<mgrwt>
<rscale>  0 0.25367086E+04</rscale>
<asrwt>0</asrwt>
<pdfrwt beam="1">  1        2 0.40208863E+00 0.25367086E+04</pdfrwt>
<pdfrwt beam="2">  1       -2 0.94696222E-01 0.25367086E+04</pdfrwt>
<totfact> 0.24942290E+00</totfact>
</mgrwt>
</event>
