<event>
11    1  0.1826384E-013  0.3167210E+04  0.7818608E-02  0.8197531E-01
          2   -1    0    0  501    0  0.00000000000E+00  0.00000000000E+00  0.97827341214E+03  0.97827341214E+03  0.00000000000E+00 0. -1.
         -2   -1    0    0    0  501 -0.00000000000E+00 -0.00000000000E+00 -0.25635012655E+04  0.25635012655E+04  0.00000000000E+00 0.  1.
    9900016    2    1    2    0    0 -0.30378773518E+03 -0.30983615236E+02 -0.11747085389E+04  0.14038556811E+04  0.70542444619E+03 0.  0.
         23    2    3    3    0    0 -0.74053982597E+02  0.29252372245E+03 -0.25324400132E+03  0.40059525189E+03  0.72731775017E+02 0.  0.
        -15    1    4    4    0    0 -0.13597925744E+02  0.15567767086E+03 -0.95260586193E+02  0.18301644754E+03  0.00000000000E+00 0. -1.
        -15    1    1    2    0    0  0.14435560591E+03  0.73373847005E+02 -0.25989369813E+03  0.30621397210E+03  0.00000000000E+00 0.  1.
         15    1    4    4    0    0 -0.60456056853E+02  0.13684605159E+03 -0.15798341513E+03  0.21757880435E+03  0.00000000000E+00 0.  1.
         15    1    1    2    0    0 -0.48812886082E+03 -0.13605262552E+03  0.19403401109E+03  0.54261339749E+03  0.00000000000E+00 0. -1.
        -16    1    1    2    0    0  0.73018081663E+03  0.33682419968E+03  0.54280974518E+02  0.80595346681E+03  0.00000000000E+00 0.  1.
         16    1    3    3    0    0 -0.22973375258E+03 -0.32350733769E+03 -0.92146453763E+03  0.10032604292E+04  0.00000000000E+00 0. -1.
    9900018    1    1    2    0    0 -0.82619826548E+02 -0.24316180592E+03 -0.39894060189E+03  0.48313816019E+03  0.91187600000E+02 0.  0.
<mgrwt>
<rscale>  0 0.31672102E+04</rscale>
<asrwt>0</asrwt>
<pdfrwt beam="1">  1        2 0.15050360E+00 0.31672102E+04</pdfrwt>
<pdfrwt beam="2">  1       -2 0.39438480E+00 0.31672102E+04</pdfrwt>
<totfact> 0.17727333E-01</totfact>
</mgrwt>
</event>
<event>
10    1  0.1826384E-013  0.1595423E+04  0.7818608E-02  0.8964764E-01
         -2   -1    0    0    0  501 -0.00000000000E+00  0.00000000000E+00  0.12196123876E+04  0.12196123876E+04  0.00000000000E+00 0.  1.
          2   -1    0    0  501    0  0.00000000000E+00 -0.00000000000E+00 -0.14272320469E+04  0.14272320469E+04  0.00000000000E+00 0. -1.
    9900016    2    1    2    0    0 -0.18975463044E+03 -0.15764155338E+03  0.32835801589E+03  0.81646390240E+03  0.70564625571E+03 0.  0.
        -15    1    3    3    0    0 -0.31527355562E+03  0.18698221999E+02  0.16226415240E+03  0.35507280033E+03  0.00000000000E+00 0. -1.
        -15    1    1    2    0    0  0.29611907936E+03  0.49493584686E+03 -0.95906893967E+02  0.58467609321E+03  0.00000000000E+00 0.  1.
         15    1    3    3    0    0 -0.81730583457E+02  0.32685956092E+02  0.14067103207E+03  0.16594155375E+03  0.00000000000E+00 0.  1.
         15    1    1    2    0    0 -0.20761422371E+01 -0.21203361604E+03 -0.38879853421E+03  0.44286212855E+03  0.00000000000E+00 0. -1.
        -16    1    1    2    0    0  0.22457451831E+03 -0.15047516283E+03  0.23383969209E+03  0.35743179839E+03  0.00000000000E+00 0.  1.
         16    1    3    3    0    0  0.20724950863E+03 -0.20902573147E+03  0.25422831417E+02  0.29544954832E+03  0.00000000000E+00 0. -1.
    9900018    1    1    2    0    0 -0.32886282499E+03  0.25214485396E+02 -0.28511193911E+03  0.44541051194E+03  0.91187600000E+02 0.  0.
<mgrwt>
<rscale>  0 0.13849783E+04</rscale>
<asrwt>0</asrwt>
<pdfrwt beam="1">  1        2 0.21957416E+00 0.15954235E+04</pdfrwt>
<pdfrwt beam="2">  1       -2 0.18763268E+00 0.15954235E+04</pdfrwt>
<totfact> 0.21033607E+00</totfact>
</mgrwt>
</event>
<event>
11    1  0.1826384E-013  0.1776957E+04  0.7818608E-02  0.9033550E-01
          5   -1    0    0  501    0  0.00000000000E+00  0.00000000000E+00  0.18779508795E+04  0.18779508795E+04  0.00000000000E+00 0. -1.
         -5   -1    0    0    0  501 -0.00000000000E+00 -0.00000000000E+00 -0.84547405393E+03  0.84547405393E+03  0.00000000000E+00 0.  1.
    9900016    2    1    2    0    0  0.26263977434E+03  0.49649654836E+03  0.36240576018E+03  0.99428437118E+03  0.73605366799E+03 0.  0.
         23    2    3    3    0    0 -0.74235449488E+01  0.50280477040E+03 -0.39131203775E+02  0.51033610586E+03  0.77742804674E+02 0.  0.
        -15    1    4    4    0    0 -0.25753497986E+02  0.41827872653E+03 -0.54137706084E+02  0.42255322380E+03  0.00000000000E+00 0.  1.
        -15    1    1    2    0    0 -0.11300042249E+02  0.63113552729E+02  0.27012979042E+03  0.27763485942E+03  0.00000000000E+00 0.  1.
         15    1    4    4    0    0  0.18329953037E+02  0.84526043868E+02  0.15006502309E+02  0.87782882055E+02  0.00000000000E+00 0. -1.
         15    1    1    2    0    0 -0.13347908084E+03 -0.37980236352E+03  0.51195318295E+03  0.65127763810E+03  0.00000000000E+00 0. -1.
        -16    1    1    2    0    0 -0.41868991711E+03 -0.10352198262E+03 -0.18389656440E+03  0.46886671237E+03  0.00000000000E+00 0.  1.
         16    1    3    3    0    0  0.27006331929E+03 -0.63082220358E+01  0.40153696395E+03  0.48394826532E+03  0.00000000000E+00 0. -1.
    9900018    1    1    2    0    0  0.30082926586E+03 -0.76285754947E+02  0.71884656418E+02  0.33136135234E+03  0.91187600000E+02 0.  0.
<mgrwt>
<rscale>  0 0.12949874E+04</rscale>
<asrwt>0</asrwt>
<pdfrwt beam="1">  1        5 0.28891552E+00 0.17769575E+04</pdfrwt>
<pdfrwt beam="2">  1       -5 0.13007293E+00 0.17769575E+04</pdfrwt>
<totfact> 0.97738119E-03</totfact>
</mgrwt>
</event>
<event>
11    1  0.1826384E-013  0.5208673E+04  0.7818608E-02  0.7797100E-01
         -2   -1    0    0    0  501 -0.00000000000E+00  0.00000000000E+00  0.17554584862E+04  0.17554584862E+04  0.00000000000E+00 0.  1.
          2   -1    0    0  501    0  0.00000000000E+00 -0.00000000000E+00 -0.38637017411E+04  0.38637017411E+04  0.00000000000E+00 0. -1.
    9900016    2    1    2    0    0 -0.41017653729E+03  0.20511383928E+02  0.26151948164E+03  0.84199401736E+03  0.68694685193E+03 0.  0.
         23    2    3    3    0    0  0.13706133573E+03  0.13528774817E+03  0.18505884912E+03  0.27764560389E+03  0.75840089444E+02 0.  0.
        -15    1    1    2    0    0  0.11217976878E+04 -0.11029111009E+04  0.56332717543E+02  0.15741716310E+04  0.00000000000E+00 0.  1.
        -15    1    4    4    0    0  0.72900873794E+02  0.89342908803E+02  0.15502678595E+03  0.19320972314E+03  0.00000000000E+00 0.  1.
         15    1    1    2    0    0 -0.64568739576E+03  0.73564077696E+03 -0.11289761937E+04  0.14942111001E+04  0.00000000000E+00 0. -1.
         15    1    4    4    0    0  0.64160461940E+02  0.45944839362E+02  0.30032063167E+02  0.84435880752E+02  0.00000000000E+00 0. -1.
        -16    1    3    3    0    0 -0.54723787302E+03 -0.11477636424E+03  0.76460632521E+02  0.56434841347E+03  0.00000000000E+00 0.  1.
         16    1    1    2    0    0  0.10470179006E+03  0.53284779014E+03 -0.13316625519E+04  0.14381287788E+04  0.00000000000E+00 0. -1.
    9900018    1    1    2    0    0 -0.17063554480E+03 -0.18608885017E+03  0.34543291395E+02  0.27065470009E+03  0.91187600000E+02 0.  0.
<mgrwt>
<rscale>  0 0.52086728E+04</rscale>
<asrwt>0</asrwt>
<pdfrwt beam="1">  1        2 0.59441565E+00 0.52086728E+04</pdfrwt>
<pdfrwt beam="2">  1       -2 0.27007054E+00 0.52086728E+04</pdfrwt>
<totfact> 0.15154054E-02</totfact>
</mgrwt>
</event>
<event>
11    1  0.1826384E-013  0.2174767E+04  0.7818608E-02  0.9218911E-01
          2   -1    0    0  501    0  0.00000000000E+00  0.00000000000E+00  0.35238862206E+04  0.35238862206E+04  0.00000000000E+00 0. -1.
         -2   -1    0    0    0  501 -0.00000000000E+00 -0.00000000000E+00 -0.45781346719E+03  0.45781346719E+03  0.00000000000E+00 0.  1.
    9900016    2    1    2    0    0  0.16067917506E+03  0.35949657855E+03  0.24447844243E+04  0.25630997843E+04  0.66140308101E+03 0.  0.
         23    2    3    3    0    0 -0.29860859633E+02  0.51002957161E+03  0.16194940941E+04  0.17028266788E+04  0.12584014655E+03 0.  0.
        -15    1    1    2    0    0  0.78699932444E+02  0.74064602775E+02 -0.73991649270E+02  0.13097331374E+03  0.00000000000E+00 0. -1.
        -15    1    4    4    0    0 -0.44813126105E+02  0.93389070458E+02  0.23253797924E+03  0.25456560361E+03  0.00000000000E+00 0.  1.
         15    1    1    2    0    0 -0.23559069702E+02 -0.96603687442E+01 -0.59968311299E+01  0.26159405061E+02  0.00000000000E+00 0.  1.
         15    1    4    4    0    0  0.14952266472E+02  0.41664050115E+03  0.13869561148E+04  0.14482610752E+04  0.00000000000E+00 0. -1.
        -16    1    3    3    0    0  0.19054003469E+03 -0.15053299306E+03  0.82529033027E+03  0.86027310550E+03  0.00000000000E+00 0.  1.
         16    1    1    2    0    0  0.77271606208E+01 -0.42236016773E+03  0.86985433406E+03  0.96700278323E+03  0.00000000000E+00 0. -1.
    9900018    1    1    2    0    0 -0.22354719842E+03 -0.15406448575E+01 -0.16857752460E+03  0.29446440142E+03  0.91187600000E+02 0.  0.
<mgrwt>
<rscale>  0 0.10860349E+04</rscale>
<asrwt>0</asrwt>
<pdfrwt beam="1">  1        2 0.54213632E+00 0.21747669E+04</pdfrwt>
<pdfrwt beam="2">  1       -2 0.70432843E-01 0.21747669E+04</pdfrwt>
<totfact> 0.13085759E+00</totfact>
</mgrwt>
</event>
<event>
11    1  0.1826384E-013  0.4076200E+04  0.7818608E-02  0.7989349E-01
         -2   -1    0    0    0  501 -0.00000000000E+00  0.00000000000E+00  0.15038274060E+04  0.15038274060E+04  0.00000000000E+00 0. -1.
          2   -1    0    0  501    0  0.00000000000E+00 -0.00000000000E+00 -0.27621865812E+04  0.27621865812E+04  0.00000000000E+00 0.  1.
    9900016    2    1    2    0    0 -0.33300053808E+03 -0.48282495052E+03 -0.12393545472E+04  0.15476324824E+04  0.71774460350E+03 0.  0.
         23    2    3    3    0    0 -0.39618261020E+03 -0.54688617926E+03 -0.12776116101E+04  0.14498602056E+04  0.11729465408E+03 0.  0.
        -15    1    4    4    0    0 -0.43871741013E+02 -0.14156978691E+03 -0.29009768710E+03  0.32576587035E+03  0.00000000000E+00 0.  1.
        -15    1    1    2    0    0  0.83928165746E+02 -0.51987022787E+03 -0.60507240209E+03  0.80213565100E+03  0.00000000000E+00 0.  1.
         15    1    4    4    0    0 -0.35231086919E+03 -0.40531639235E+03 -0.98751392297E+03  0.11240943352E+04  0.00000000000E+00 0. -1.
         15    1    1    2    0    0  0.20154741386E+03  0.94216630078E+03 -0.14249530892E+03  0.97396283883E+03  0.00000000000E+00 0. -1.
        -16    1    3    3    0    0  0.63182072117E+02  0.64061228737E+02  0.38257062862E+02  0.97772276864E+02  0.00000000000E+00 0.  1.
         16    1    1    2    0    0 -0.43346803373E+02  0.11448587244E+03  0.78296004330E+03  0.79247232744E+03  0.00000000000E+00 0. -1.
    9900018    1    1    2    0    0  0.90871761854E+02 -0.53956994816E+02 -0.54396960263E+02  0.14981068744E+03  0.91187600000E+02 0.  0.
<mgrwt>
<rscale>  0 0.40762001E+04</rscale>
<asrwt>0</asrwt>
<pdfrwt beam="1">  1        2 0.42495178E+00 0.40762001E+04</pdfrwt>
<pdfrwt beam="2">  1       -2 0.23135807E+00 0.40762001E+04</pdfrwt>
<totfact> 0.16017897E-01</totfact>
</mgrwt>
</event>
<event>
11    1  0.1826384E-013  0.3173637E+04  0.7818608E-02  0.8195815E-01
          2   -1    0    0  501    0  0.00000000000E+00  0.00000000000E+00  0.70429315261E+03  0.70429315261E+03  0.00000000000E+00 0. -1.
         -2   -1    0    0    0  501 -0.00000000000E+00 -0.00000000000E+00 -0.35752047571E+04  0.35752047571E+04  0.00000000000E+00 0.  1.
    9900016    2    1    2    0    0 -0.28032641687E+03 -0.24244515541E+03 -0.55326974105E+03  0.96637151281E+03  0.70028846987E+03 0.  0.
         23    2    3    3    0    0 -0.36519249910E+03  0.13453743539E+03 -0.35381717783E+03  0.53151584634E+03  0.76528534999E+02 0.  0.
        -15    1    4    4    0    0 -0.12023445561E+03  0.50056085127E+02 -0.72534813790E+02  0.14907459604E+03  0.00000000000E+00 0.  1.
        -15    1    1    2    0    0  0.33526149067E+03 -0.35922472316E+03 -0.19476178510E+04  0.20086458031E+04  0.00000000000E+00 0.  1.
         15    1    4    4    0    0 -0.24495804349E+03  0.84481350264E+02 -0.28128236404E+03  0.38244125030E+03  0.00000000000E+00 0. -1.
         15    1    1    2    0    0  0.17631499402E+03 -0.81033965785E+02 -0.44518488740E+01  0.19409610940E+03  0.00000000000E+00 0. -1.
        -16    1    3    3    0    0  0.84866082227E+02 -0.37698259080E+03 -0.19945256322E+03  0.43485566646E+03  0.00000000000E+00 0.  1.
         16    1    1    2    0    0 -0.78526224084E+02  0.64869381540E+03 -0.54839004786E+03  0.85305432336E+03  0.00000000000E+00 0. -1.
    9900018    1    1    2    0    0 -0.15272384374E+03  0.34010028955E+02  0.18281788435E+03  0.25733016097E+03  0.91187600000E+02 0.  0.
<mgrwt>
<rscale>  0 0.31736365E+04</rscale>
<asrwt>0</asrwt>
<pdfrwt beam="1">  1        2 0.10835279E+00 0.31736365E+04</pdfrwt>
<pdfrwt beam="2">  1       -2 0.55003150E+00 0.31736365E+04</pdfrwt>
<totfact> 0.29091479E-02</totfact>
</mgrwt>
</event>
<event>
11    1  0.1826384E-013  0.1707473E+04  0.7818608E-02  0.8976470E-01
         -2   -1    0    0    0  501 -0.00000000000E+00  0.00000000000E+00  0.56877258290E+03  0.56877258290E+03  0.00000000000E+00 0.  1.
          2   -1    0    0  501    0  0.00000000000E+00 -0.00000000000E+00 -0.26787024606E+04  0.26787024606E+04  0.00000000000E+00 0. -1.
    9900016    2    1    2    0    0  0.94651455934E+02  0.33150077528E+03 -0.74197604777E+03  0.10828976455E+04  0.70942736987E+03 0.  0.
         23    2    3    3    0    0 -0.16880740954E+03  0.10544684160E+02  0.53463923985E+02  0.18559717474E+03  0.54596595368E+02 0.  0.
        -15    1    4    4    0    0 -0.16587552276E+02 -0.15008359172E+02  0.13612461171E+02  0.26185813615E+02  0.00000000000E+00 0. -1.
        -15    1    1    2    0    0 -0.16109852414E+03 -0.11113990796E+03 -0.32434364162E+02  0.19838548737E+03  0.00000000000E+00 0.  1.
         15    1    1    2    0    0  0.49880973079E+03  0.24150114391E+02 -0.29165586768E+03  0.57832302453E+03  0.00000000000E+00 0. -1.
         15    1    4    4    0    0 -0.15221985726E+03  0.25553043332E+02  0.39851462815E+02  0.15941136113E+03  0.00000000000E+00 0.  1.
        -16    1    1    2    0    0 -0.33147362204E+03 -0.26985852218E+03 -0.10669759867E+03  0.44054825123E+03  0.00000000000E+00 0.  1.
         16    1    3    3    0    0  0.26345886547E+03  0.32095609112E+03 -0.79543997176E+03  0.89730047080E+03  0.00000000000E+00 0. -1.
    9900018    1    1    2    0    0 -0.10088904054E+03  0.25347540466E+02 -0.93716599946E+03  0.94732063487E+03  0.91187600000E+02 0.  0.
<mgrwt>
<rscale>  0 0.13691322E+04</rscale>
<asrwt>0</asrwt>
<pdfrwt beam="1">  1        2 0.41210808E+00 0.17074730E+04</pdfrwt>
<pdfrwt beam="2">  1       -2 0.87503473E-01 0.17074730E+04</pdfrwt>
<totfact> 0.28983165E+00</totfact>
</mgrwt>
</event>
<event>
11    1  0.1826384E-013  0.1680063E+04  0.7818608E-02  0.9019166E-01
         -1   -1    0    0    0  501 -0.00000000000E+00  0.00000000000E+00  0.14707307466E+04  0.14707307466E+04  0.00000000000E+00 0.  1.
          1   -1    0    0  501    0  0.00000000000E+00 -0.00000000000E+00 -0.94419741458E+03  0.94419741458E+03  0.00000000000E+00 0. -1.
    9900016    2    1    2    0    0 -0.24936317356E+03  0.79577071224E+02  0.33802115992E+03  0.81697410653E+03  0.69618523655E+03 0.  0.
         23    2    3    3    0    0 -0.22259498060E+03  0.34809743795E+03  0.69545813258E+02  0.43631844157E+03  0.12172432219E+03 0.  0.
        -15    1    4    4    0    0 -0.10251209225E+03  0.86505399359E+02 -0.18295550406E+02  0.13537592230E+03  0.00000000000E+00 0. -1.
        -15    1    1    2    0    0  0.20299166039E+02 -0.25841703591E+03  0.16171530194E+03  0.30552129136E+03  0.00000000000E+00 0.  1.
         15    1    4    4    0    0 -0.12008288835E+03  0.26159203859E+03  0.87841363664E+02  0.30094251926E+03  0.00000000000E+00 0.  1.
         15    1    1    2    0    0 -0.16004265111E+03 -0.16020595102E+03 -0.23417594246E+03  0.32575753091E+03  0.00000000000E+00 0. -1.
        -16    1    1    2    0    0  0.49134586612E+03  0.47501280219E+03  0.33354515015E+03  0.76046715221E+03  0.00000000000E+00 0.  1.
         16    1    3    3    0    0 -0.26768192965E+02 -0.26852036673E+03  0.26847534666E+03  0.38065566496E+03  0.00000000000E+00 0. -1.
    9900018    1    1    2    0    0 -0.10223920748E+03 -0.13596688649E+03 -0.72572337526E+02  0.20620808019E+03  0.91187600000E+02 0.  0.
<mgrwt>
<rscale>  0 0.13131957E+04</rscale>
<asrwt>0</asrwt>
<pdfrwt beam="1">  1        1 0.14526114E+00 0.16800629E+04</pdfrwt>
<pdfrwt beam="2">  1       -1 0.22626627E+00 0.16800629E+04</pdfrwt>
<totfact> 0.15728688E+00</totfact>
</mgrwt>
</event>
<event>
11    1  0.1826384E-013  0.3779697E+04  0.7818608E-02  0.8050526E-01
          2   -1    0    0  501    0  0.00000000000E+00  0.00000000000E+00  0.22586876906E+04  0.22586876906E+04  0.00000000000E+00 0. -1.
         -2   -1    0    0    0  501 -0.00000000000E+00 -0.00000000000E+00 -0.15812403209E+04  0.15812403209E+04  0.00000000000E+00 0.  1.
    9900016    2    1    2    0    0 -0.10046741774E+03 -0.26459651736E+03  0.80184894966E+03  0.10957960178E+04  0.69116000722E+03 0.  0.
         23    2    3    3    0    0 -0.37144274320E+02  0.17497933915E+03  0.54372000593E+03  0.58211585886E+03  0.10597151524E+03 0.  0.
        -15    1    1    2    0    0 -0.22028767108E+02 -0.41838020310E+03 -0.28381514779E+03  0.50604179575E+03  0.00000000000E+00 0.  1.
        -15    1    4    4    0    0  0.34398207833E+02  0.92510781706E+02  0.26365923731E+03  0.28152739627E+03  0.00000000000E+00 0.  1.
         15    1    4    4    0    0 -0.71542482152E+02  0.82468557447E+02  0.28006076863E+03  0.30058846259E+03  0.00000000000E+00 0. -1.
         15    1    1    2    0    0  0.23354991608E+03  0.13090975521E+04  0.13944691272E+03  0.13370592379E+04  0.00000000000E+00 0. -1.
        -16    1    1    2    0    0 -0.23660990057E+03 -0.24864577705E+03 -0.23848580410E+03  0.41795268422E+03  0.00000000000E+00 0.  1.
         16    1    3    3    0    0 -0.63323143424E+02 -0.43957585651E+03  0.25812894373E+03  0.51368015896E+03  0.00000000000E+00 0. -1.
    9900018    1    1    2    0    0  0.12555616934E+03 -0.37747505455E+03  0.25845245920E+03  0.48307827578E+03  0.91187600000E+02 0.  0.
<mgrwt>
<rscale>  0 0.37796974E+04</rscale>
<asrwt>0</asrwt>
<pdfrwt beam="1">  1        2 0.34749041E+00 0.37796974E+04</pdfrwt>
<pdfrwt beam="2">  1       -2 0.24326774E+00 0.37796974E+04</pdfrwt>
<totfact> 0.27172736E-01</totfact>
</mgrwt>
</event>
<event>
11    1  0.1826384E-013  0.3453640E+04  0.7818608E-02  0.8124865E-01
          2   -1    0    0  501    0  0.00000000000E+00  0.00000000000E+00  0.40751742543E+04  0.40751742543E+04  0.00000000000E+00 0.  1.
         -2   -1    0    0    0  501 -0.00000000000E+00 -0.00000000000E+00 -0.73172516818E+03  0.73172516818E+03  0.00000000000E+00 0. -1.
    9900016    2    1    2    0    0  0.11742000061E+03  0.41156116675E+03  0.46659551601E+03  0.95446489369E+03  0.71422811987E+03 0.  0.
         23    2    3    3    0    0 -0.16903577373E+02  0.15875920458E+03 -0.16969952621E+03  0.25673784360E+03  0.10782474287E+03 0.  0.
        -15    1    1    2    0    0 -0.17462120474E+03 -0.13004414856E+02  0.49655359887E+03  0.52652365237E+03  0.00000000000E+00 0.  1.
        -15    1    4    4    0    0 -0.30062607396E+02  0.16139951325E+03 -0.17703438150E+03  0.24144302738E+03  0.00000000000E+00 0. -1.
         15    1    1    2    0    0  0.32625612284E+03 -0.66251146090E+03 -0.12651185958E+03  0.74924611720E+03  0.00000000000E+00 0. -1.
         15    1    4    4    0    0  0.13159030024E+02 -0.26403086720E+01  0.73348552872E+01  0.15294816217E+02  0.00000000000E+00 0.  1.
        -16    1    1    2    0    0 -0.15973618638E+03  0.28581319436E+03  0.23083155435E+04  0.23314213432E+04  0.00000000000E+00 0.  1.
         16    1    3    3    0    0  0.13432357798E+03  0.25280196218E+03  0.63629504222E+03  0.69772705009E+03  0.00000000000E+00 0. -1.
    9900018    1    1    2    0    0 -0.10931873232E+03 -0.21858485349E+02  0.19849628739E+03  0.24524341605E+03  0.91187600000E+02 0.  0.
<mgrwt>
<rscale>  0 0.34536401E+04</rscale>
<asrwt>0</asrwt>
<pdfrwt beam="1">  1        2 0.62694987E+00 0.34536401E+04</pdfrwt>
<pdfrwt beam="2">  1       -2 0.11257311E+00 0.34536401E+04</pdfrwt>
<totfact> 0.15165038E-01</totfact>
</mgrwt>
</event>
<event>
10    1  0.1971818E-013  0.3784788E+04  0.7818608E-02  0.8049427E-01
          2   -1    0    0  501    0  0.00000000000E+00  0.00000000000E+00  0.20571479547E+04  0.20571479547E+04  0.00000000000E+00 0.  1.
         -2   -1    0    0    0  501 -0.00000000000E+00 -0.00000000000E+00 -0.17408347089E+04  0.17408347089E+04  0.00000000000E+00 0. -1.
    9900016    2    1    2    0    0  0.27728562435E+03 -0.42416383169E+03  0.31737869289E+03  0.92602362726E+03  0.70709847260E+03 0.  0.
        -15    1    3    3    0    0  0.11733067026E+03  0.48043078900E+02 -0.58351704948E+02  0.13956914087E+03  0.00000000000E+00 0. -1.
        -15    1    1    2    0    0  0.84719026519E+03 -0.36313810554E+03 -0.59343539875E+02  0.92364619030E+03  0.00000000000E+00 0.  1.
         15    1    3    3    0    0  0.10495166989E+03 -0.13022332185E+03 -0.10234977803E+03  0.19608274689E+03  0.00000000000E+00 0.  1.
         15    1    1    2    0    0 -0.33355617866E+03 -0.17252020788E+03 -0.26363804745E+03  0.45883326657E+03  0.00000000000E+00 0. -1.
        -16    1    3    3    0    0  0.55003284199E+02 -0.34198358874E+03  0.47808017586E+03  0.59037173949E+03  0.00000000000E+00 0.  1.
         16    1    1    2    0    0 -0.54478292669E+03  0.10277207817E+04  0.35546498951E+03  0.12162868909E+04  0.00000000000E+00 0. -1.
    9900018    1    1    2    0    0 -0.24613678419E+03 -0.67898636549E+02 -0.33548849321E+02  0.27319268852E+03  0.91187600000E+02 0.  0.
<mgrwt>
<rscale>  0 0.37847877E+04</rscale>
<asrwt>0</asrwt>
<pdfrwt beam="1">  1        2 0.31648430E+00 0.37847877E+04</pdfrwt>
<pdfrwt beam="2">  1       -2 0.26782073E+00 0.37847877E+04</pdfrwt>
<totfact> 0.24912283E-01</totfact>
</mgrwt>
</event>
<event>
11    1  0.1826384E-013  0.2171983E+04  0.7818608E-02  0.8930764E-01
          2   -1    0    0  501    0  0.00000000000E+00  0.00000000000E+00  0.20621569033E+04  0.20621569033E+04  0.00000000000E+00 0.  1.
         -2   -1    0    0    0  501 -0.00000000000E+00 -0.00000000000E+00 -0.81021688085E+03  0.81021688085E+03  0.00000000000E+00 0. -1.
    9900016    2    1    2    0    0 -0.32781535753E+03 -0.28806948368E+03  0.95075979638E+03  0.12592522724E+04  0.70094590307E+03 0.  0.
         23    2    3    3    0    0 -0.37314851004E+03 -0.14677918445E+03  0.10157707888E+04  0.10972508140E+04  0.10670104986E+03 0.  0.
        -15    1    1    2    0    0 -0.87515300248E+01  0.13317547413E+03  0.91673220848E+02  0.16191440828E+03  0.00000000000E+00 0. -1.
        -15    1    4    4    0    0 -0.11292270416E+03 -0.95531105379E+02  0.41384064279E+03  0.43947901752E+03  0.00000000000E+00 0. -1.
         15    1    4    4    0    0 -0.26022580588E+03 -0.51248079075E+02  0.60193014599E+03  0.65777179652E+03  0.00000000000E+00 0.  1.
         15    1    1    2    0    0  0.26935697375E+03 -0.12469976990E+02  0.62386064388E+02  0.27676831586E+03  0.00000000000E+00 0.  1.
        -16    1    1    2    0    0  0.77265923526E+02  0.51868753123E+03 -0.29550105975E+03  0.60193658661E+03  0.00000000000E+00 0.  1.
         16    1    3    3    0    0  0.45333152512E+02 -0.14129029923E+03 -0.65010992399E+02  0.16200145835E+03  0.00000000000E+00 0. -1.
    9900018    1    1    2    0    0 -0.10056009730E+02 -0.35132354469E+03  0.44262200061E+03  0.57250220104E+03  0.91187600000E+02 0.  0.
<mgrwt>
<rscale>  0 0.14323012E+04</rscale>
<asrwt>0</asrwt>
<pdfrwt beam="1">  1        2 0.31725491E+00 0.21719830E+04</pdfrwt>
<pdfrwt beam="2">  1       -2 0.12464875E+00 0.21719830E+04</pdfrwt>
<totfact> 0.26961101E+00</totfact>
</mgrwt>
</event>
<event>
10    1  0.1826384E-013  0.2548617E+04  0.7818608E-02  0.8627193E-01
         -2   -1    0    0    0  501 -0.00000000000E+00  0.00000000000E+00  0.13497094501E+04  0.13497094501E+04  0.00000000000E+00 0.  1.
          2   -1    0    0  501    0  0.00000000000E+00 -0.00000000000E+00 -0.23124302916E+04  0.23124302916E+04  0.00000000000E+00 0. -1.
    9900016    2    1    2    0    0 -0.18664319177E+03 -0.21622872710E+03  0.97851719126E+02  0.78557040173E+03  0.72522779435E+03 0.  0.
        -15    1    3    3    0    0 -0.67990349536E+02  0.86368777705E+02  0.25401660687E+03  0.27677913570E+03  0.00000000000E+00 0.  1.
        -15    1    1    2    0    0  0.19105901806E+03 -0.16039298515E+02  0.48534294440E+02  0.19777862679E+03  0.00000000000E+00 0.  1.
         15    1    1    2    0    0  0.24441680682E+03 -0.32761148258E+03 -0.53128427820E+03  0.67032219360E+03  0.00000000000E+00 0. -1.
         15    1    3    3    0    0  0.22647358821E+02  0.65712131654E+02  0.26089480921E+02  0.74240474964E+02  0.00000000000E+00 0. -1.
        -16    1    3    3    0    0 -0.14130020105E+03 -0.36830963646E+03 -0.18225436867E+03  0.43455079107E+03  0.00000000000E+00 0.  1.
         16    1    1    2    0    0 -0.18046757435E+03 -0.54141146123E+03 -0.69022690212E+03  0.89560487502E+03  0.00000000000E+00 0. -1.
    9900018    1    1    2    0    0 -0.68365058762E+02  0.11012909694E+04  0.11240432532E+03  0.11128636445E+04  0.91187600000E+02 0.  0.
<mgrwt>
<rscale>  0 0.19565837E+04</rscale>
<asrwt>0</asrwt>
<pdfrwt beam="1">  1        2 0.35575851E+00 0.25486172E+04</pdfrwt>
<pdfrwt beam="2">  1       -2 0.20764761E+00 0.25486172E+04</pdfrwt>
<totfact> 0.45610016E-01</totfact>
</mgrwt>
</event>
<event>
11    1  0.1826384E-013  0.4486787E+04  0.7818608E-02  0.7912954E-01
          2   -1    0    0  501    0  0.00000000000E+00  0.00000000000E+00  0.45176013501E+04  0.45176013501E+04  0.00000000000E+00 0.  1.
         -2   -1    0    0    0  501 -0.00000000000E+00 -0.00000000000E+00 -0.11140459546E+04  0.11140459546E+04  0.00000000000E+00 0. -1.
    9900016    2    1    2    0    0  0.82360804398E+02  0.55461987032E+03 -0.25131342069E+03  0.97226277794E+03  0.75349185217E+03 0.  0.
         23    2    3    3    0    0  0.26518668723E+03 -0.21478543826E+02 -0.24632111378E+03  0.36782948191E+03  0.61960711240E+02 0.  0.
        -15    1    4    4    0    0  0.85635204705E+02 -0.57548045454E+01 -0.12081546680E+03  0.14819879580E+03  0.00000000000E+00 0. -1.
        -15    1    1    2    0    0  0.71416745390E+02  0.34164463599E+03  0.65632904384E+03  0.74336345257E+03  0.00000000000E+00 0.  1.
         15    1    4    4    0    0  0.17955148253E+03 -0.15723739280E+02 -0.12550564699E+03  0.21963068611E+03  0.00000000000E+00 0.  1.
         15    1    1    2    0    0  0.87972908074E+02 -0.56891148334E+03 -0.23445212038E+03  0.62158451170E+03  0.00000000000E+00 0. -1.
        -16    1    1    2    0    0 -0.29443100770E+03 -0.34571729206E+03  0.30407565487E+04  0.30744772650E+04  0.00000000000E+00 0.  1.
         16    1    3    3    0    0 -0.18282588283E+03  0.57609841415E+03 -0.49923069042E+01  0.60443329603E+03  0.00000000000E+00 0. -1.
    9900018    1    1    2    0    0  0.52680549841E+02  0.18364269078E+02  0.19223534400E+03  0.21995929757E+03  0.91187600000E+02 0.  0.
<mgrwt>
<rscale>  0 0.44867875E+04</rscale>
<asrwt>0</asrwt>
<pdfrwt beam="1">  1        2 0.69501558E+00 0.44867875E+04</pdfrwt>
<pdfrwt beam="2">  1       -2 0.17139169E+00 0.44867875E+04</pdfrwt>
<totfact> 0.18526077E-02</totfact>
</mgrwt>
</event>
<event>
11    1  0.1826384E-013  0.5445903E+04  0.7818608E-02  0.7763177E-01
          2   -1    0    0  501    0  0.00000000000E+00  0.00000000000E+00  0.30850255506E+04  0.30850255506E+04  0.00000000000E+00 0.  1.
         -2   -1    0    0    0  501 -0.00000000000E+00 -0.00000000000E+00 -0.24033719806E+04  0.24033719806E+04  0.00000000000E+00 0. -1.
    9900016    2    1    2    0    0 -0.27744756043E+03 -0.70792664940E+03  0.39147619018E+02  0.10363416232E+04  0.70308899455E+03 0.  0.
         23    2    3    3    0    0 -0.18178035888E+03  0.96045740449E+02 -0.54265908115E+02  0.22132634476E+03  0.61413996518E+02 0.  0.
        -15    1    1    2    0    0  0.98210436812E+03 -0.15752055814E+03  0.18656450870E+04  0.21142311384E+04  0.00000000000E+00 0.  1.
        -15    1    4    4    0    0 -0.99023085126E+02  0.48450364437E+02 -0.60324734634E+02  0.12566655407E+03  0.00000000000E+00 0.  1.
         15    1    4    4    0    0 -0.82757273759E+02  0.47595376012E+02  0.60588265193E+01  0.95659790698E+02  0.00000000000E+00 0. -1.
         15    1    1    2    0    0 -0.52245101941E+03  0.80974405727E+03 -0.35997606350E+03  0.10286997970E+04  0.00000000000E+00 0. -1.
        -16    1    3    3    0    0 -0.95667201547E+02 -0.80397238985E+03  0.93413527133E+02  0.81501527847E+03  0.00000000000E+00 0.  1.
         16    1    1    2    0    0 -0.28254300030E+03  0.29536219773E+03 -0.93850483653E+03  0.10236506743E+04  0.00000000000E+00 0. -1.
    9900018    1    1    2    0    0  0.10033721202E+03 -0.23965904746E+03  0.75341764079E+02  0.28547429824E+03  0.91187600000E+02 0.  0.
<mgrwt>
<rscale>  0 0.54459027E+04</rscale>
<asrwt>0</asrwt>
<pdfrwt beam="1">  1        2 0.47461932E+00 0.54459027E+04</pdfrwt>
<pdfrwt beam="2">  1       -2 0.36974953E+00 0.54459027E+04</pdfrwt>
<totfact> 0.12594613E-02</totfact>
</mgrwt>
</event>
<event>
10    1  0.1826384E-013  0.2059511E+04  0.7818608E-02  0.8865633E-01
         -2   -1    0    0    0  501 -0.00000000000E+00  0.00000000000E+00  0.17717859528E+04  0.17717859528E+04  0.00000000000E+00 0.  1.
          2   -1    0    0  501    0  0.00000000000E+00 -0.00000000000E+00 -0.10212478485E+04  0.10212478485E+04  0.00000000000E+00 0. -1.
    9900016    2    1    2    0    0 -0.30693112372E+03 -0.75550237966E+03 -0.20739149856E+03  0.10959440055E+04  0.70220472027E+03 0.  0.
        -15    1    3    3    0    0 -0.16240477897E+03  0.19817937948E+02 -0.68593969735E+02  0.17740686452E+03  0.00000000000E+00 0. -1.
        -15    1    1    2    0    0  0.42372729026E+03  0.29556325327E+03  0.37586342797E+02  0.51799149255E+03  0.00000000000E+00 0. -1.
         15    1    1    2    0    0  0.81798064273E+02  0.52656867352E+02  0.60915152389E+02  0.11477946153E+03  0.00000000000E+00 0.  1.
         15    1    3    3    0    0 -0.21868126675E+03 -0.12946498602E+03 -0.16854057494E+01  0.25413681281E+03  0.00000000000E+00 0.  1.
        -16    1    3    3    0    0  0.74154921997E+02 -0.64585533159E+03 -0.13711212308E+03  0.66440032819E+03  0.00000000000E+00 0.  1.
         16    1    1    2    0    0  0.54983207596E+02  0.18380169050E+03  0.59621606505E+03  0.62632244952E+03  0.00000000000E+00 0. -1.
    9900018    1    1    2    0    0 -0.25357743840E+03  0.22348056853E+03  0.26321204268E+03  0.43799639220E+03  0.91187600000E+02 0.  0.
<mgrwt>
<rscale>  0 0.15286321E+04</rscale>
<asrwt>0</asrwt>
<pdfrwt beam="1">  1        2 0.15711505E+00 0.20595106E+04</pdfrwt>
<pdfrwt beam="2">  1       -2 0.27258245E+00 0.20595106E+04</pdfrwt>
<totfact> 0.10367803E+00</totfact>
</mgrwt>
</event>
<event>
11    1  0.1826384E-013  0.3198891E+04  0.7818608E-02  0.8547176E-01
          2   -1    0    0  501    0  0.00000000000E+00  0.00000000000E+00  0.22972447732E+04  0.22972447732E+04  0.00000000000E+00 0. -1.
         -2   -1    0    0    0  501 -0.00000000000E+00 -0.00000000000E+00 -0.16386582245E+04  0.16386582245E+04  0.00000000000E+00 0.  1.
    9900016    2    1    2    0    0  0.10143410547E+03  0.68822230659E+02  0.70942654217E+03  0.10073257646E+04  0.70455219823E+03 0.  0.
         23    2    3    3    0    0 -0.19631380668E+03 -0.17635463810E+03  0.47899860416E+03  0.55803459975E+03  0.11100848010E+03 0.  0.
        -15    1    1    2    0    0  0.77593878397E+02 -0.89341500483E+02 -0.59177726219E+02  0.13230539276E+03  0.00000000000E+00 0.  1.
        -15    1    4    4    0    0 -0.19967726319E+02 -0.75721585473E+02  0.90493189578E+02  0.11967241103E+03  0.00000000000E+00 0. -1.
         15    1    4    4    0    0 -0.17634608036E+03 -0.10063305263E+03  0.38850541458E+03  0.43836218872E+03  0.00000000000E+00 0.  1.
         15    1    1    2    0    0 -0.34311497013E+03  0.24983153090E+03  0.40968879109E+03  0.58990557049E+03  0.00000000000E+00 0. -1.
        -16    1    1    2    0    0  0.91161993567E+03 -0.24237901627E+03 -0.89944274255E+03  0.13033785873E+04  0.00000000000E+00 0.  1.
         16    1    3    3    0    0  0.29774791215E+03  0.24517686876E+03  0.23042793800E+03  0.44929116481E+03  0.00000000000E+00 0. -1.
    9900018    1    1    2    0    0 -0.74753294942E+03  0.13066755193E+02  0.49809168422E+03  0.90298768255E+03  0.91187600000E+02 0.  0.
<mgrwt>
<rscale>  0 0.21322326E+04</rscale>
<asrwt>0</asrwt>
<pdfrwt beam="1">  1        2 0.35342227E+00 0.31988914E+04</pdfrwt>
<pdfrwt beam="2">  1       -2 0.25210127E+00 0.31988914E+04</pdfrwt>
<totfact> 0.23349448E-01</totfact>
</mgrwt>
</event>
<event>
11    1  0.1826384E-013  0.3109910E+04  0.7818608E-02  0.8601276E-01
         -1   -1    0    0    0  501 -0.00000000000E+00  0.00000000000E+00  0.12003916914E+04  0.12003916914E+04  0.00000000000E+00 0.  1.
          1   -1    0    0  501    0  0.00000000000E+00 -0.00000000000E+00 -0.35721468232E+04  0.35721468232E+04  0.00000000000E+00 0. -1.
    9900016    2    1    2    0    0  0.44574701535E+03 -0.30809821789E+03  0.15244965703E+02  0.89120369662E+03  0.70738723930E+03 0.  0.
         23    2    3    3    0    0 -0.85554379753E+02 -0.27646698586E+03 -0.15223745278E+03  0.33323231044E+03  0.64140350260E+02 0.  0.
        -15    1    1    2    0    0 -0.38219682794E+01 -0.29106049630E+03  0.23502999313E+03  0.37412553725E+03  0.00000000000E+00 0.  1.
        -15    1    4    4    0    0 -0.27001722041E+02 -0.12358943257E+03 -0.10043156750E+03  0.16152380811E+03  0.00000000000E+00 0.  1.
         15    1    1    2    0    0  0.13707308471E+03  0.20515795724E+03  0.10887567224E+03  0.26969006281E+03  0.00000000000E+00 0. -1.
         15    1    4    4    0    0 -0.58552657712E+02 -0.15287755329E+03 -0.51805885283E+02  0.17170850234E+03  0.00000000000E+00 0. -1.
        -16    1    3    3    0    0  0.53130139511E+03 -0.31631232030E+02  0.16748241849E+03  0.55797138617E+03  0.00000000000E+00 0.  1.
         16    1    1    2    0    0 -0.10692957648E+04  0.55239879983E+03 -0.17207545302E+04  0.20998890494E+04  0.00000000000E+00 0. -1.
    9900018    1    1    2    0    0  0.49029763305E+03 -0.15839804289E+03 -0.10101512327E+04  0.11376301685E+04  0.91187600000E+02 0.  0.
<mgrwt>
<rscale>  0 0.20114721E+04</rscale>
<asrwt>0</asrwt>
<pdfrwt beam="1">  1        1 0.54956105E+00 0.31099099E+04</pdfrwt>
<pdfrwt beam="2">  1       -1 0.18467564E+00 0.31099099E+04</pdfrwt>
<totfact> 0.34529700E-02</totfact>
</mgrwt>
</event>
<event>
10    1  0.1826384E-013  0.1756065E+04  0.7818608E-02  0.9107584E-01
          2   -1    0    0  501    0  0.00000000000E+00  0.00000000000E+00  0.26625873348E+04  0.26625873348E+04  0.00000000000E+00 0. -1.
         -2   -1    0    0    0  501 -0.00000000000E+00 -0.00000000000E+00 -0.55274836074E+03  0.55274836074E+03  0.00000000000E+00 0.  1.
    9900016    2    1    2    0    0 -0.64112026273E+03 -0.17123193344E+03  0.27988814152E+03  0.10143068749E+04  0.71423070393E+03 0.  0.
        -15    1    1    2    0    0  0.44578305725E+03  0.14807762861E+03  0.52043652632E+03  0.70107324592E+03  0.00000000000E+00 0.  1.
        -15    1    3    3    0    0 -0.28798416805E+03 -0.37208662379E+03  0.74398531820E+02  0.47635961016E+03  0.00000000000E+00 0. -1.
         15    1    1    2    0    0  0.25379907889E+03 -0.20827237842E+03  0.10058760513E+04  0.10581011231E+04  0.00000000000E+00 0. -1.
         15    1    3    3    0    0 -0.83018222957E+02 -0.40535233848E+02 -0.39654124692E+02  0.10053646170E+03  0.00000000000E+00 0.  1.
        -16    1    1    2    0    0 -0.59498162901E+02  0.12516830320E+02  0.14309757239E+03  0.15547867266E+03  0.00000000000E+00 0.  1.
         16    1    3    3    0    0 -0.27011787172E+03  0.24138992420E+03  0.24514373440E+03  0.43741080307E+03  0.00000000000E+00 0. -1.
    9900018    1    1    2    0    0  0.10362895033E+01  0.21890985294E+03  0.16054068245E+03  0.28637577887E+03  0.91187600000E+02 0.  0.
<mgrwt>
<rscale>  0 0.12060421E+04</rscale>
<asrwt>0</asrwt>
<pdfrwt beam="1">  1        2 0.40962881E+00 0.17560651E+04</pdfrwt>
<pdfrwt beam="2">  1       -2 0.85038211E-01 0.17560651E+04</pdfrwt>
<totfact> 0.31530184E+00</totfact>
</mgrwt>
</event>
<event>
11    1  0.1826384E-013  0.3202987E+04  0.7818608E-02  0.8188029E-01
          2   -1    0    0  501    0  0.00000000000E+00  0.00000000000E+00  0.80850718304E+03  0.80850718304E+03  0.00000000000E+00 0.  1.
         -2   -1    0    0    0  501 -0.00000000000E+00 -0.00000000000E+00 -0.31722430025E+04  0.31722430025E+04  0.00000000000E+00 0. -1.
    9900016    2    1    2    0    0  0.13821748935E+03 -0.57096224732E+02 -0.79092010125E+02  0.73475554039E+03  0.71501475846E+03 0.  0.
         23    2    3    3    0    0 -0.23688507877E+03  0.44948370087E+02  0.12440148262E+03  0.29597924485E+03  0.11829238347E+03 0.  0.
        -15    1    1    2    0    0  0.56963883436E+03 -0.13140720584E+03  0.84291804455E+02  0.59064487101E+03  0.00000000000E+00 0.  1.
        -15    1    4    4    0    0 -0.22046496994E+02  0.44687847742E+02  0.44359126708E+02  0.66714195549E+02  0.00000000000E+00 0. -1.
         15    1    4    4    0    0 -0.21483858177E+03  0.26052234563E+00  0.80042355909E+02  0.22926504930E+03  0.00000000000E+00 0.  1.
         15    1    1    2    0    0 -0.29790824050E+03  0.13371785660E+03 -0.36633910284E+03  0.49074853356E+03  0.00000000000E+00 0. -1.
        -16    1    3    3    0    0  0.37510256811E+03 -0.10204459482E+03 -0.20349349274E+03  0.43877629554E+03  0.00000000000E+00 0.  1.
         16    1    1    2    0    0 -0.50385324896E+03  0.22028702610E+03 -0.17557918876E+04  0.18398911987E+04  0.00000000000E+00 0. -1.
    9900018    1    1    2    0    0  0.93905165754E+02 -0.16550145212E+03 -0.24680462328E+03  0.32471004184E+03  0.91187600000E+02 0.  0.
<mgrwt>
<rscale>  0 0.32029869E+04</rscale>
<asrwt>0</asrwt>
<pdfrwt beam="1">  1        2 0.12438572E+00 0.32029869E+04</pdfrwt>
<pdfrwt beam="2">  1       -2 0.48803737E+00 0.32029869E+04</pdfrwt>
<totfact> 0.55958396E-02</totfact>
</mgrwt>
</event>
<event>
11    1  0.1826384E-013  0.1357720E+04  0.7818608E-02  0.9450260E-01
          2   -1    0    0  501    0  0.00000000000E+00  0.00000000000E+00  0.90186927135E+03  0.90186927135E+03  0.00000000000E+00 0.  1.
         -2   -1    0    0    0  501 -0.00000000000E+00 -0.00000000000E+00 -0.70905376720E+03  0.70905376720E+03  0.00000000000E+00 0. -1.
    9900016    2    1    2    0    0 -0.33478311747E+03 -0.84432193114E+02 -0.18841597468E+02  0.79327915263E+03  0.71395257352E+03 0.  0.
         23    2    3    3    0    0 -0.23485303617E+03 -0.79553679991E+02 -0.35213890841E+03  0.44528932732E+03  0.11311957218E+03 0.  0.
        -15    1    1    2    0    0  0.43799774271E+02  0.12762257276E+03 -0.82065856423E+01  0.13517873114E+03  0.00000000000E+00 0.  1.
        -15    1    4    4    0    0 -0.80547537032E+02 -0.15138528600E+02 -0.21140564947E+03  0.22673647567E+03  0.00000000000E+00 0.  1.
         15    1    1    2    0    0  0.48197044823E+02  0.78479595799E+02  0.61786219158E+02  0.11090328654E+03  0.00000000000E+00 0. -1.
         15    1    4    4    0    0 -0.15430549914E+03 -0.64415151391E+02 -0.14073325894E+03  0.21855285165E+03  0.00000000000E+00 0. -1.
        -16    1    1    2    0    0 -0.12434400215E+03 -0.47193091308E+02 -0.38954323548E+02  0.13858592303E+03  0.00000000000E+00 0.  1.
         16    1    3    3    0    0 -0.99930081293E+02 -0.48785131229E+01  0.33329731094E+03  0.34798982531E+03  0.00000000000E+00 0. -1.
    9900018    1    1    2    0    0  0.36713030052E+03 -0.74476884137E+02  0.19703179165E+03  0.43297594523E+03  0.91187600000E+02 0.  0.
<mgrwt>
<rscale>  0 0.88052389E+03</rscale>
<asrwt>0</asrwt>
<pdfrwt beam="1">  1        2 0.13874912E+00 0.13577203E+04</pdfrwt>
<pdfrwt beam="2">  1       -2 0.10908520E+00 0.13577203E+04</pdfrwt>
<totfact> 0.19032066E+01</totfact>
</mgrwt>
</event>
<event>
11    1  0.1826384E-013  0.3006023E+04  0.7818608E-02  0.8242013E-01
          2   -1    0    0  501    0  0.00000000000E+00  0.00000000000E+00  0.95253327086E+03  0.95253327086E+03  0.00000000000E+00 0.  1.
         -2   -1    0    0    0  501 -0.00000000000E+00 -0.00000000000E+00 -0.23716166482E+04  0.23716166482E+04  0.00000000000E+00 0. -1.
    9900016    2    1    2    0    0 -0.29439297304E+03 -0.20603129301E+03 -0.59135980571E+03  0.99076122374E+03  0.70907352679E+03 0.  0.
         23    2    3    3    0    0  0.13219398733E+03  0.13640184337E+03 -0.32755255816E+03  0.38344651825E+03  0.60496618375E+02 0.  0.
        -15    1    1    2    0    0  0.54382183581E+03  0.62853451397E+03 -0.14889916774E+03  0.84437479031E+03  0.00000000000E+00 0.  1.
        -15    1    4    4    0    0  0.60817426919E+01  0.34270085455E+02 -0.82387602700E+02  0.89437930600E+02  0.00000000000E+00 0. -1.
         15    1    4    4    0    0  0.12611224464E+03  0.10213175792E+03 -0.24516495546E+03  0.29400858765E+03  0.00000000000E+00 0.  1.
         15    1    1    2    0    0 -0.31818240352E+03  0.13013443882E+03 -0.98349484362E+02  0.35755787665E+03  0.00000000000E+00 0. -1.
        -16    1    3    3    0    0 -0.42658696038E+03 -0.34243313638E+03 -0.26380724755E+03  0.60731470550E+03  0.00000000000E+00 0.  1.
         16    1    1    2    0    0  0.11930762536E+03 -0.59490243428E+03 -0.72686790677E+03  0.94682636723E+03  0.00000000000E+00 0. -1.
    9900018    1    1    2    0    0 -0.50554084606E+02  0.42264774499E+02  0.14639298728E+03  0.18462966109E+03  0.91187600000E+02 0.  0.
<mgrwt>
<rscale>  0 0.30060231E+04</rscale>
<asrwt>0</asrwt>
<pdfrwt beam="1">  1        2 0.14654358E+00 0.30060231E+04</pdfrwt>
<pdfrwt beam="2">  1       -2 0.36486410E+00 0.30060231E+04</pdfrwt>
<totfact> 0.28964713E-01</totfact>
</mgrwt>
</event>
<event>
11    1  0.1826384E-013  0.5898295E+04  0.7818608E-02  0.7703141E-01
         -2   -1    0    0    0  501 -0.00000000000E+00  0.00000000000E+00  0.46910008226E+04  0.46910008226E+04  0.00000000000E+00 0.  1.
          2   -1    0    0  501    0  0.00000000000E+00 -0.00000000000E+00 -0.18540756558E+04  0.18540756558E+04  0.00000000000E+00 0. -1.
    9900016    2    1    2    0    0  0.28365169635E+03 -0.42191474778E+02  0.89170547888E+03  0.11776392499E+04  0.71376266110E+03 0.  0.
         23    2    3    3    0    0  0.38345498152E+02 -0.35078548432E+03  0.50458742020E+03  0.62513062102E+03  0.10797682840E+03 0.  0.
        -15    1    4    4    0    0  0.45150969126E+02 -0.14588315837E+03  0.29360990112E+03  0.33094905945E+03  0.00000000000E+00 0. -1.
        -15    1    1    2    0    0  0.33268091402E+03 -0.60383213984E+03  0.24762138380E+04  0.25703939027E+04  0.00000000000E+00 0.  1.
         15    1    4    4    0    0 -0.68054709746E+01 -0.20490232594E+03  0.21097751908E+03  0.29418156157E+03  0.00000000000E+00 0.  1.
         15    1    1    2    0    0  0.19034935795E+03 -0.71853878626E+03  0.83299280953E+02  0.74797702882E+03  0.00000000000E+00 0. -1.
        -16    1    3    3    0    0  0.24530619820E+03  0.30859400954E+03  0.38711805867E+03  0.55250862884E+03  0.00000000000E+00 0.  1.
         16    1    1    2    0    0 -0.88445153512E+03  0.15166420143E+04 -0.59806069213E+03  0.18547598521E+04  0.00000000000E+00 0. -1.
    9900018    1    1    2    0    0  0.77769566798E+02 -0.15207961338E+03 -0.16232738902E+02  0.19430644491E+03  0.91187600000E+02 0.  0.
<mgrwt>
<rscale>  0 0.58982948E+04</rscale>
<asrwt>0</asrwt>
<pdfrwt beam="1">  1        2 0.28524241E+00 0.58982948E+04</pdfrwt>
<pdfrwt beam="2">  1       -2 0.72169243E+00 0.58982948E+04</pdfrwt>
<totfact> 0.10467053E-03</totfact>
</mgrwt>
</event>
<event>
11    1  0.1826384E-013  0.3277474E+04  0.7818608E-02  0.8168651E-01
         -2   -1    0    0    0  501 -0.00000000000E+00  0.00000000000E+00  0.95480921153E+03  0.95480921153E+03  0.00000000000E+00 0. -1.
          2   -1    0    0  501    0  0.00000000000E+00 -0.00000000000E+00 -0.28125615122E+04  0.28125615122E+04  0.00000000000E+00 0.  1.
    9900016    2    1    2    0    0 -0.54072904674E+03 -0.20661256014E+03 -0.65600468474E+03  0.11225867713E+04  0.70340760634E+03 0.  0.
         23    2    3    3    0    0 -0.17008919183E+03 -0.40713199025E+03 -0.49556233074E+03  0.67167248580E+03  0.10428381401E+03 0.  0.
        -15    1    1    2    0    0 -0.60310435661E+03 -0.35612597829E+03 -0.58875680641E+03  0.91498369082E+03  0.00000000000E+00 0.  1.
        -15    1    4    4    0    0 -0.67563521320E+02 -0.27840017615E+03 -0.28125689637E+03  0.40146846607E+03  0.00000000000E+00 0. -1.
         15    1    1    2    0    0  0.15266894122E+02  0.53736313269E+02  0.13747728432E+02  0.57529726724E+02  0.00000000000E+00 0. -1.
         15    1    4    4    0    0 -0.10252567051E+03 -0.12873181410E+03 -0.21430543437E+03  0.27020401972E+03  0.00000000000E+00 0.  1.
        -16    1    3    3    0    0 -0.37063985491E+03  0.20051943011E+03 -0.16044235400E+03  0.45091428549E+03  0.00000000000E+00 0.  1.
         16    1    1    2    0    0  0.12608707128E+04  0.36248576687E+03 -0.62870629850E+03  0.14548066866E+04  0.00000000000E+00 0. -1.
    9900018    1    1    2    0    0 -0.13230420360E+03  0.14651645828E+03  0.19677605338E+01  0.21746384829E+03  0.91187600000E+02 0.  0.
<mgrwt>
<rscale>  0 0.32774744E+04</rscale>
<asrwt>0</asrwt>
<pdfrwt beam="1">  1        2 0.43270177E+00 0.32774744E+04</pdfrwt>
<pdfrwt beam="2">  1       -2 0.14689372E+00 0.32774744E+04</pdfrwt>
<totfact> 0.60177812E-01</totfact>
</mgrwt>
</event>
