<event>
12    1  0.6120769E-012  0.1456762E+04  0.7818608E-02  0.8913726E-01
          1   -1    0    0  501    0  0.00000000000E+00  0.00000000000E+00  0.71816565832E+03  0.71816565832E+03  0.00000000000E+00 0. -1.
         -1   -1    0    0    0  501 -0.00000000000E+00 -0.00000000000E+00 -0.73874201187E+03  0.73874201187E+03  0.00000000000E+00 0.  1.
    9900016    2    1    2    0    0  0.13451859729E+03 -0.11472905211E+03 -0.13376404527E+03  0.76469829547E+03  0.73185562433E+03 0.  0.
         23    2    3    3    0    0  0.13262741898E+03  0.13897714082E+02 -0.11402807508E+03  0.19081006920E+03  0.74986011218E+02 0.  0.
         23    2    3    3    0    0  0.89310385806E+02 -0.19552266356E+03  0.20815348458E+03  0.32080566559E+03  0.11568467899E+03 0.  0.
        -15    1    4    4    0    0  0.39964105611E+02  0.20324682923E+02 -0.14494807906E+01  0.44858928518E+02  0.00000000000E+00 0. -1.
        -15    1    5    5    0    0 -0.26100312318E+02 -0.63425314971E+02  0.62875697789E+02  0.93044883012E+02  0.00000000000E+00 0.  1.
         15    1    5    5    0    0  0.11541069812E+03 -0.13209734859E+03  0.14527778679E+03  0.22776078258E+03  0.00000000000E+00 0. -1.
         15    1    4    4    0    0  0.92663313368E+02 -0.64269688419E+01 -0.11257859429E+03  0.14595114068E+03  0.00000000000E+00 0.  1.
        -16    1    1    2    0    0 -0.21231827270E+03  0.28811465583E+03 -0.12037363440E+03  0.37759623367E+03  0.00000000000E+00 0.  1.
         16    1    3    3    0    0 -0.87419207495E+02  0.66895897373E+02 -0.22788945477E+03  0.25308256068E+03  0.00000000000E+00 0. -1.
    9900018    1    1    2    0    0  0.77799675406E+02 -0.17338560372E+03  0.23356132612E+03  0.31461314105E+03  0.91187600000E+02 0.  0.
<mgrwt>
<rscale>  0 0.14567624E+04</rscale>
<asrwt>0</asrwt>
<pdfrwt beam="1">  1        1 0.11048702E+00 0.14567624E+04</pdfrwt>
<pdfrwt beam="2">  1       -1 0.11365262E+00 0.14567624E+04</pdfrwt>
<totfact> 0.17961662E+01</totfact>
</mgrwt>
</event>
<event>
11    1  0.6120769E-012  0.2600222E+04  0.7818608E-02  0.8368126E-01
          1   -1    0    0  501    0  0.00000000000E+00  0.00000000000E+00  0.66982956714E+03  0.66982956714E+03  0.00000000000E+00 0. -1.
         -1   -1    0    0    0  501 -0.00000000000E+00 -0.00000000000E+00 -0.25234614720E+04  0.25234614720E+04  0.00000000000E+00 0.  1.
    9900016    2    1    2    0    0  0.14939583450E+03 -0.11305662599E+03 -0.12225766695E+04  0.14394206722E+04  0.73629969610E+03 0.  0.
         23    2    3    3    0    0 -0.10118073785E+03  0.34685626030E+02 -0.27513977378E+03  0.31677977579E+03  0.11492126380E+03 0.  0.
        -15    1    3    3    0    0  0.26450664059E+02 -0.59915839018E+02 -0.21344623403E+03  0.22326853835E+03  0.00000000000E+00 0. -1.
        -15    1    4    4    0    0 -0.64456911326E+02 -0.38516438272E+02 -0.12982402757E+03  0.14997495647E+03  0.00000000000E+00 0.  1.
         15    1    4    4    0    0 -0.36723826519E+02  0.73202064301E+02 -0.14531574621E+03  0.16680481932E+03  0.00000000000E+00 0. -1.
         15    1    3    3    0    0  0.30638556948E+03 -0.20944465190E+03 -0.55839432579E+03  0.67047997917E+03  0.00000000000E+00 0.  1.
        -16    1    3    3    0    0 -0.82259661200E+02  0.12161823890E+03 -0.17559633595E+03  0.22889237885E+03  0.00000000000E+00 0.  1.
         16    1    1    2    0    0  0.19247685450E+03 -0.13308076668E+03  0.49533715078E+03  0.54782910010E+03  0.00000000000E+00 0. -1.
    9900018    1    1    2    0    0 -0.34187268900E+03  0.24613739267E+03 -0.11263923861E+04  0.12060412669E+04  0.91187600000E+02 0.  0.
<mgrwt>
<rscale>  0 0.26002224E+04</rscale>
<asrwt>0</asrwt>
<pdfrwt beam="1">  1        1 0.10305071E+00 0.26002224E+04</pdfrwt>
<pdfrwt beam="2">  1       -1 0.38822483E+00 0.26002224E+04</pdfrwt>
<totfact> 0.22069830E-01</totfact>
</mgrwt>
</event>
<event>
12    1  0.6120769E-012  0.1676451E+04  0.7818608E-02  0.8774910E-01
          2   -1    0    0  501    0  0.00000000000E+00  0.00000000000E+00  0.10127568235E+04  0.10127568235E+04  0.00000000000E+00 0.  1.
         -2   -1    0    0    0  501 -0.00000000000E+00 -0.00000000000E+00 -0.69377200149E+03  0.69377200149E+03  0.00000000000E+00 0. -1.
    9900016    2    1    2    0    0 -0.33637899483E+03  0.11455837564E+03  0.53164633914E+02  0.79531433816E+03  0.70952376182E+03 0.  0.
         23    2    3    3    0    0 -0.97062704331E+02  0.24111318776E+02 -0.47131779828E+02  0.12830777116E+03  0.65107259240E+02 0.  0.
         23    2    3    3    0    0 -0.13718089138E+03 -0.19843581902E+03 -0.12056166130E+03  0.28929868379E+03  0.10470550623E+03 0.  0.
        -15    1    5    5    0    0 -0.27508782206E+01 -0.78369548188E+02 -0.61397950203E+02  0.99594486310E+02  0.00000000000E+00 0. -1.
        -15    1    4    4    0    0 -0.78087007115E+02  0.26599073045E+02 -0.57241339669E+01  0.82691336165E+02  0.00000000000E+00 0.  1.
         15    1    4    4    0    0 -0.18975697216E+02 -0.24877542684E+01 -0.41407645861E+02  0.45616434998E+02  0.00000000000E+00 0. -1.
         15    1    5    5    0    0 -0.13443001316E+03 -0.12006627083E+03 -0.59163711097E+02  0.18970419748E+03  0.00000000000E+00 0.  1.
        -16    1    3    3    0    0 -0.10213539913E+03  0.28888287588E+03  0.22085807504E+03  0.37770788321E+03  0.00000000000E+00 0.  1.
         16    1    1    2    0    0  0.53873262250E+03  0.82194407917E+02  0.55868996296E+02  0.54782305901E+03  0.00000000000E+00 0. -1.
    9900018    1    1    2    0    0 -0.20235362767E+03 -0.19675278355E+03  0.20995119175E+03  0.36339142777E+03  0.91187600000E+02 0.  0.
<mgrwt>
<rscale>  0 0.16764514E+04</rscale>
<asrwt>0</asrwt>
<pdfrwt beam="1">  1        2 0.15580874E+00 0.16764514E+04</pdfrwt>
<pdfrwt beam="2">  1       -2 0.10673415E+00 0.16764514E+04</pdfrwt>
<totfact> 0.16654346E+01</totfact>
</mgrwt>
</event>
<event>
11    1  0.6120769E-012  0.1749143E+04  0.7818608E-02  0.8733822E-01
         -2   -1    0    0    0  501 -0.00000000000E+00  0.00000000000E+00  0.21247014079E+03  0.21247014079E+03  0.00000000000E+00 0.  1.
          2   -1    0    0  501    0  0.00000000000E+00 -0.00000000000E+00 -0.35999185325E+04  0.35999185325E+04  0.00000000000E+00 0. -1.
    9900016    2    1    2    0    0  0.35322677286E+03 -0.19201722197E+03 -0.15802029142E+04  0.17802868130E+04  0.71466084272E+03 0.  0.
         23    2    3    3    0    0 -0.88704808660E+01  0.12785074260E+03 -0.12486242185E+03  0.19482586851E+03  0.77084348827E+02 0.  0.
        -15    1    3    3    0    0  0.19313710655E+03  0.25480866908E+02 -0.30547989904E+03  0.36231089581E+03  0.00000000000E+00 0.  1.
        -15    1    4    4    0    0  0.34099058466E+02  0.63875484629E+02 -0.63685040053E+02  0.96429288348E+02  0.00000000000E+00 0. -1.
         15    1    4    4    0    0 -0.42969539332E+02  0.63975257974E+02 -0.61177381798E+02  0.98396580159E+02  0.00000000000E+00 0.  1.
         15    1    3    3    0    0  0.23508835965E+02 -0.75443163824E+02 -0.89691753850E+02  0.11953638377E+03  0.00000000000E+00 0. -1.
        -16    1    3    3    0    0  0.14545131121E+03 -0.26990566765E+03 -0.10601688394E+04  0.11036136649E+04  0.00000000000E+00 0.  1.
         16    1    1    2    0    0 -0.49829028589E+03 -0.60442037973E+02 -0.15619257981E+04  0.16405970401E+04  0.00000000000E+00 0. -1.
    9900018    1    1    2    0    0  0.14506351303E+03  0.25245925994E+03 -0.24531967938E+03  0.39150482018E+03  0.91187600000E+02 0.  0.
<mgrwt>
<rscale>  0 0.17491429E+04</rscale>
<asrwt>0</asrwt>
<pdfrwt beam="1">  1        2 0.55383364E+00 0.17491429E+04</pdfrwt>
<pdfrwt beam="2">  1       -2 0.32687713E-01 0.17491429E+04</pdfrwt>
<totfact> 0.57702680E+00</totfact>
</mgrwt>
</event>
<event>
11    1  0.6120769E-012  0.1118942E+04  0.7818608E-02  0.9186924E-01
         -1   -1    0    0    0  501 -0.00000000000E+00  0.00000000000E+00  0.10335201044E+04  0.10335201044E+04  0.00000000000E+00 0.  1.
          1   -1    0    0  501    0  0.00000000000E+00 -0.00000000000E+00 -0.30285623754E+03  0.30285623754E+03  0.00000000000E+00 0. -1.
    9900016    2    1    2    0    0 -0.10543385516E+03  0.78661672892E+02  0.38379404823E+03  0.82848024679E+03  0.72234181055E+03 0.  0.
         23    2    3    3    0    0  0.24284141270E+02  0.15554025851E+02  0.13612107578E+03  0.15707783945E+03  0.72889321148E+02 0.  0.
        -15    1    4    4    0    0  0.34699603543E+01 -0.28989152889E+02  0.52624298103E+02  0.60180797277E+02  0.00000000000E+00 0. -1.
        -15    1    3    3    0    0  0.25847352312E+02 -0.17979810872E+02  0.17755946153E+02  0.36147376728E+02  0.00000000000E+00 0.  1.
         15    1    3    3    0    0 -0.30796044249E+03 -0.12689188154E+03  0.10888231439E+03  0.35042337555E+03  0.00000000000E+00 0. -1.
         15    1    4    4    0    0  0.20814180916E+02  0.44543178740E+02  0.83496777678E+02  0.96897042174E+02  0.00000000000E+00 0.  1.
        -16    1    1    2    0    0  0.78495656357E+02 -0.42542943443E+02  0.38803139313E+03  0.39817060685E+03  0.00000000000E+00 0.  1.
         16    1    3    3    0    0  0.15239509376E+03  0.20797933945E+03  0.12103471190E+03  0.28483165506E+03  0.00000000000E+00 0. -1.
    9900018    1    1    2    0    0  0.26938198800E+02 -0.36118729449E+02 -0.41161574514E+02  0.10972548830E+03  0.91187600000E+02 0.  0.
<mgrwt>
<rscale>  0 0.11189424E+04</rscale>
<asrwt>0</asrwt>
<pdfrwt beam="1">  1        1 0.46593268E-01 0.11189424E+04</pdfrwt>
<pdfrwt beam="2">  1       -1 0.15900309E+00 0.11189424E+04</pdfrwt>
<totfact> 0.25631375E+01</totfact>
</mgrwt>
</event>
<event>
12    1  0.6120769E-012  0.2042647E+04  0.7818608E-02  0.8586937E-01
         -2   -1    0    0    0  501 -0.00000000000E+00  0.00000000000E+00  0.13208792394E+04  0.13208792394E+04  0.00000000000E+00 0.  1.
          2   -1    0    0  501    0  0.00000000000E+00 -0.00000000000E+00 -0.78970256605E+03  0.78970256605E+03  0.00000000000E+00 0. -1.
    9900016    2    1    2    0    0  0.55770331681E+03 -0.24907069640E+03  0.35833381028E+03  0.10073292452E+04  0.71640762640E+03 0.  0.
         23    2    3    3    0    0  0.21706512852E+03 -0.45869904915E+02 -0.14011894556E+03  0.27237700168E+03  0.73038304650E+02 0.  0.
         23    2    3    3    0    0  0.21764983751E+03 -0.14427168208E+03  0.52984647790E+03  0.59500818268E+03  0.71495995012E+02 0.  0.
        -15    1    4    4    0    0  0.19471409575E+03 -0.55466109995E+02 -0.14302006042E+03  0.24788062878E+03  0.00000000000E+00 0.  1.
        -15    1    5    5    0    0  0.43359450864E+02 -0.20783135828E+02  0.48012712403E+02  0.67949990922E+02  0.00000000000E+00 0.  1.
         15    1    4    4    0    0  0.22351032772E+02  0.95962050804E+01  0.29011148683E+01  0.24496372903E+02  0.00000000000E+00 0. -1.
         15    1    5    5    0    0  0.17429038664E+03 -0.12348854626E+03  0.48183376549E+03  0.52705819176E+03  0.00000000000E+00 0. -1.
        -16    1    1    2    0    0 -0.74797862809E+03  0.83352117164E+01  0.19435443635E+02  0.74827751557E+03  0.00000000000E+00 0.  1.
         16    1    3    3    0    0  0.12298835079E+03 -0.58929109396E+02 -0.31393722063E+02  0.13994406078E+03  0.00000000000E+00 0. -1.
    9900018    1    1    2    0    0  0.19027531128E+03  0.24073548468E+03  0.15340741949E+03  0.35497504477E+03  0.91187600000E+02 0.  0.
<mgrwt>
<rscale>  0 0.20426470E+04</rscale>
<asrwt>0</asrwt>
<pdfrwt beam="1">  1        2 0.12149270E+00 0.20426470E+04</pdfrwt>
<pdfrwt beam="2">  1       -2 0.20321219E+00 0.20426470E+04</pdfrwt>
<totfact> 0.41092324E+00</totfact>
</mgrwt>
</event>
<event>
12    1  0.6120769E-012  0.1119352E+04  0.7818608E-02  0.9186533E-01
         -1   -1    0    0    0  501 -0.00000000000E+00  0.00000000000E+00  0.29080256848E+03  0.29080256848E+03  0.00000000000E+00 0.  1.
          1   -1    0    0  501    0  0.00000000000E+00 -0.00000000000E+00 -0.10771474667E+04  0.10771474667E+04  0.00000000000E+00 0. -1.
    9900016    2    1    2    0    0 -0.21191470978E+03  0.13658588480E+03 -0.33699501935E+03  0.81919550551E+03  0.70281724867E+03 0.  0.
         23    2    3    3    0    0  0.86953700172E+02  0.15700892256E+03 -0.18306820938E+03  0.26815278289E+03  0.78607874603E+02 0.  0.
         23    2    3    3    0    0 -0.33808846205E+03 -0.41147051296E+02  0.40439172119E+02  0.35167915469E+03  0.77756113609E+02 0.  0.
        -15    1    4    4    0    0  0.89110142020E+02  0.83905811321E+02 -0.10613260453E+03  0.16200287753E+03  0.00000000000E+00 0.  1.
        -15    1    5    5    0    0 -0.28491386741E+03 -0.26142783303E+02  0.52211866274E+01  0.28615837879E+03  0.00000000000E+00 0. -1.
         15    1    5    5    0    0 -0.53174594636E+02 -0.15004267993E+02  0.35217985491E+02  0.65520775902E+02  0.00000000000E+00 0.  1.
         15    1    4    4    0    0 -0.21564418473E+01  0.73103111236E+02 -0.76935604855E+02  0.10614990536E+03  0.00000000000E+00 0. -1.
        -16    1    3    3    0    0  0.39220052098E+02  0.20724013536E+02 -0.19436598208E+03  0.19936356792E+03  0.00000000000E+00 0.  1.
         16    1    1    2    0    0  0.38794199122E+02 -0.56311062858E+02 -0.21828561082E+02  0.71780302065E+02  0.00000000000E+00 0. -1.
    9900018    1    1    2    0    0  0.17312051066E+03 -0.80274821939E+02 -0.42752131778E+03  0.47697422761E+03  0.91187600000E+02 0.  0.
<mgrwt>
<rscale>  0 0.11193520E+04</rscale>
<asrwt>0</asrwt>
<pdfrwt beam="1">  1        1 0.16571500E+00 0.11193520E+04</pdfrwt>
<pdfrwt beam="2">  1       -1 0.44738856E-01 0.11193520E+04</pdfrwt>
<totfact> 0.64975746E+01</totfact>
</mgrwt>
</event>
<event>
11    1  0.6120769E-012  0.2114757E+04  0.7818608E-02  0.8554770E-01
          2   -1    0    0  501    0  0.00000000000E+00  0.00000000000E+00  0.88969912319E+03  0.88969912319E+03  0.00000000000E+00 0.  1.
         -2   -1    0    0    0  501 -0.00000000000E+00 -0.00000000000E+00 -0.12566602746E+04  0.12566602746E+04  0.00000000000E+00 0. -1.
    9900016    2    1    2    0    0  0.29742145753E+02 -0.16745431717E+02  0.11264053909E+03  0.70297885632E+03  0.69305582507E+03 0.  0.
         23    2    3    3    0    0 -0.12499182199E+03 -0.90238306001E+02  0.14928133947E+03  0.24122289694E+03  0.11017105001E+03 0.  0.
        -15    1    3    3    0    0 -0.46306316358E+02  0.11716750891E+03  0.67041771046E+02  0.14271334606E+03  0.00000000000E+00 0.  1.
        -15    1    4    4    0    0 -0.33644345094E+02 -0.15790014023E+02 -0.14123169566E+02  0.39758400600E+02  0.00000000000E+00 0. -1.
         15    1    3    3    0    0 -0.37043216273E+02 -0.45172706155E+02  0.22259002602E+01  0.58461336670E+02  0.00000000000E+00 0. -1.
         15    1    4    4    0    0 -0.91347476892E+02 -0.74448291978E+02  0.16340450903E+03  0.20146449634E+03  0.00000000000E+00 0.  1.
        -16    1    1    2    0    0  0.17066033373E+03  0.44376069115E+03  0.27467998506E+03  0.54908796628E+03  0.00000000000E+00 0.  1.
         16    1    3    3    0    0  0.23808350037E+03  0.14980715312E+01 -0.10590847168E+03  0.26058127665E+03  0.00000000000E+00 0. -1.
    9900018    1    1    2    0    0 -0.20040247948E+03 -0.42701525944E+03 -0.75428167559E+03  0.89429257522E+03  0.91187600000E+02 0.  0.
<mgrwt>
<rscale>  0 0.21147572E+04</rscale>
<asrwt>0</asrwt>
<pdfrwt beam="1">  1        2 0.13687679E+00 0.21147572E+04</pdfrwt>
<pdfrwt beam="2">  1       -2 0.19333235E+00 0.21147572E+04</pdfrwt>
<totfact> 0.40368459E+00</totfact>
</mgrwt>
</event>
<event>
12    1  0.6120769E-012  0.1042675E+04  0.7818608E-02  0.9262939E-01
         -1   -1    0    0    0  501 -0.00000000000E+00  0.00000000000E+00  0.30121001264E+03  0.30121001264E+03  0.00000000000E+00 0.  1.
          1   -1    0    0  501    0  0.00000000000E+00 -0.00000000000E+00 -0.90233687716E+03  0.90233687716E+03  0.00000000000E+00 0. -1.
    9900016    2    1    2    0    0 -0.92110802434E+02 -0.62435004494E+02 -0.38671933041E+03  0.81868207747E+03  0.71295580070E+03 0.  0.
         23    2    3    3    0    0  0.28802485460E+01 -0.27797263807E+03 -0.42366821858E+02  0.28823448155E+03  0.63301543520E+02 0.  0.
         23    2    3    3    0    0  0.30721850426E+02  0.22871781978E+03 -0.32170419536E+03  0.40203265529E+03  0.69864106848E+02 0.  0.
        -15    1    4    4    0    0 -0.34748394927E+01 -0.19842664238E+03 -0.58335053200E+02  0.20685305254E+03  0.00000000000E+00 0. -1.
        -15    1    5    5    0    0 -0.19865149316E+02  0.10737281398E+03 -0.15828755530E+03  0.19229793422E+03  0.00000000000E+00 0. -1.
         15    1    5    5    0    0  0.50586999742E+02  0.12134500580E+03 -0.16341664006E+03  0.20973472107E+03  0.00000000000E+00 0.  1.
         15    1    4    4    0    0  0.63550880387E+01 -0.79545995690E+02  0.15968231343E+02  0.81381429003E+02  0.00000000000E+00 0.  1.
        -16    1    3    3    0    0 -0.12571290141E+03 -0.13180186205E+02 -0.22648313190E+02  0.12841494064E+03  0.00000000000E+00 0.  1.
         16    1    1    2    0    0  0.12483401977E+03  0.10656561276E+03 -0.22430887463E+03  0.27794645807E+03  0.00000000000E+00 0. -1.
    9900018    1    1    2    0    0 -0.32723217341E+02 -0.44130608271E+02  0.99013405177E+01  0.10691835426E+03  0.91187600000E+02 0.  0.
<mgrwt>
<rscale>  0 0.10426752E+04</rscale>
<asrwt>0</asrwt>
<pdfrwt beam="1">  1        1 0.13882106E+00 0.10426752E+04</pdfrwt>
<pdfrwt beam="2">  1       -1 0.46340002E-01 0.10426752E+04</pdfrwt>
<totfact> 0.83934171E+01</totfact>
</mgrwt>
</event>
