<event>
11    1  0.2356479E-014  0.3851276E+04  0.7818608E-02  0.8570047E-01
          2   -1    0    0  501    0  0.00000000000E+00  0.00000000000E+00  0.34336399856E+04  0.34336399856E+04  0.00000000000E+00 0. -1.
         -2   -1    0    0    0  501 -0.00000000000E+00 -0.00000000000E+00 -0.15243759946E+04  0.15243759946E+04  0.00000000000E+00 0.  1.
         23    2    1    2    0    0 -0.28804881596E+03 -0.12444062907E+03  0.92730916477E+03  0.98352692487E+03  0.94685449434E+02 0.  0.
    9900016    2    1    2    0    0 -0.34226805550E+03 -0.99158418703E+03  0.14562802842E+04  0.26078159457E+04  0.18919738684E+04 0.  0.
        -15    1    4    4    0    0 -0.19495007258E+03  0.13274377020E+03  0.82062248677E+02  0.24972114845E+03  0.00000000000E+00 0.  1.
        -15    1    3    3    0    0 -0.20771635279E+03 -0.44535322540E+02  0.55117486094E+03  0.59069721982E+03  0.00000000000E+00 0.  1.
         15    1    3    3    0    0 -0.80332463165E+02 -0.79905306526E+02  0.37613430384E+03  0.39282970505E+03  0.00000000000E+00 0. -1.
         15    1    4    4    0    0  0.24749458183E+03 -0.13139453720E+04  0.11536584644E+04  0.17659654190E+04  0.00000000000E+00 0. -1.
        -16    1    1    2    0    0  0.63031687146E+03  0.11160248161E+04 -0.47432545798E+03  0.13666731097E+04  0.00000000000E+00 0.  1.
         16    1    4    4    0    0 -0.34343461999E+03  0.24421177324E+03  0.12302599115E+03  0.43900127893E+03  0.00000000000E+00 0. -1.
    9900018    1    4    4    0    0 -0.51377944756E+02 -0.54594358466E+02  0.97533580049E+02  0.15312809936E+03  0.91187600000E+02 0.  0.
<mgrwt>
<rscale>  0 0.20801307E+04</rscale>
<asrwt>0</asrwt>
<pdfrwt beam="1">  1        2 0.52825231E+00 0.38512761E+04</pdfrwt>
<pdfrwt beam="2">  1       -2 0.23451938E+00 0.38512761E+04</pdfrwt>
<totfact> 0.56348951E-02</totfact>
</mgrwt>
</event>
<event>
13    1  0.2356478E-014  0.5996029E+04  0.7818608E-02  0.7690894E-01
         -2   -1    0    0    0  501 -0.00000000000E+00  0.00000000000E+00  0.21122915069E+04  0.21122915069E+04  0.00000000000E+00 0. -1.
          2   -1    0    0  501    0  0.00000000000E+00 -0.00000000000E+00 -0.42551378890E+04  0.42551378890E+04  0.00000000000E+00 0.  1.
    9900016    2    1    2    0    0  0.14854799599E+04 -0.30544539709E+03  0.77814882130E+03  0.25674751683E+04  0.19200170701E+04 0.  0.
         23    2    3    3    0    0 -0.33311990224E+03  0.48631404363E+02 -0.26783761265E+03  0.43985596832E+03  0.91664624350E+02 0.  0.
    9900016    2    1    2    0    0 -0.14854799599E+04  0.30544539709E+03 -0.29209952034E+04  0.37999542276E+04  0.18993397673E+04 0.  0.
        -24    2    5    5    0    0  0.16155496491E+03  0.38021782112E+03 -0.70415605413E+01  0.42359838166E+03  0.93383120453E+02 0.  0.
        -15    1    5    5    0    0 -0.15327519635E+04 -0.14837872792E+03 -0.26780990529E+04  0.30892651822E+04  0.00000000000E+00 0.  1.
        -15    1    4    4    0    0 -0.23496400590E+03  0.55791590390E+02 -0.23266975122E+03  0.33534459704E+03  0.00000000000E+00 0.  1.
         15    1    6    6    0    0  0.71213834050E+02  0.20306566226E+03 -0.48207364084E+02  0.22052442790E+03  0.00000000000E+00 0. -1.
         15    1    4    4    0    0 -0.98155896337E+02 -0.71601860274E+01 -0.35167861426E+02  0.10451137128E+03  0.00000000000E+00 0. -1.
        -16    1    6    6    0    0  0.90341130861E+02  0.17715215886E+03  0.41165803542E+02  0.20307395376E+03  0.00000000000E+00 0.  1.
         16    1    3    3    0    0  0.18185998622E+04 -0.35407680145E+03  0.10459864340E+04  0.21276191999E+04  0.00000000000E+00 0. -1.
    9900018    1    5    5    0    0 -0.11428296128E+03  0.73606303884E+02 -0.23585458999E+03  0.28709066377E+03  0.91187600000E+02 0.  0.
<mgrwt>
<rscale>  0 0.59960292E+04</rscale>
<asrwt>0</asrwt>
<pdfrwt beam="1">  1        2 0.65463660E+00 0.59960292E+04</pdfrwt>
<pdfrwt beam="2">  1       -2 0.32496793E+00 0.59960292E+04</pdfrwt>
<totfact> 0.30989035E-03</totfact>
</mgrwt>
</event>
<event>
12    1  0.2356478E-014  0.3776437E+04  0.7818608E-02  0.8739507E-01
          3   -1    0    0  501    0  0.00000000000E+00  0.00000000000E+00  0.19247071054E+04  0.19247071054E+04  0.00000000000E+00 0. -1.
         -3   -1    0    0    0  501 -0.00000000000E+00 -0.00000000000E+00 -0.26511165721E+04  0.26511165721E+04  0.00000000000E+00 0.  1.
         23    2    1    2    0    0  0.10969982230E+03 -0.93446900843E+02 -0.78075558558E+03  0.79899586459E+03  0.89714730906E+02 0.  0.
    9900016    2    1    2    0    0  0.68684529613E+03 -0.46069913799E+02 -0.10846037055E+04  0.22104102816E+04  0.17987966860E+04 0.  0.
        -24    2    4    4    0    0 -0.99502662897E+02  0.66064038386E+02  0.45723561801E+03  0.47599809434E+03  0.56960849273E+02 0.  0.
        -15    1    3    3    0    0  0.50094720543E+02  0.90908974533E+01 -0.25414488983E+03  0.25919442600E+03  0.00000000000E+00 0. -1.
        -15    1    4    4    0    0  0.78634795903E+03 -0.11213395218E+03 -0.15418393235E+04  0.17344121873E+04  0.00000000000E+00 0.  1.
         15    1    5    5    0    0 -0.60019252242E+02  0.60990912293E+02  0.23212635341E+03  0.24739613168E+03  0.00000000000E+00 0. -1.
         15    1    3    3    0    0  0.59605101760E+02 -0.10253779830E+03 -0.52661069575E+03  0.53980143860E+03  0.00000000000E+00 0.  1.
        -16    1    5    5    0    0 -0.39483410655E+02  0.50731260923E+01  0.22510926460E+03  0.22860196267E+03  0.00000000000E+00 0.  1.
         16    1    1    2    0    0 -0.85458554779E+03  0.16628286008E+03  0.11627280713E+04  0.14525505210E+04  0.00000000000E+00 0. -1.
    9900018    1    1    2    0    0  0.58040429358E+02 -0.26766045442E+02 -0.23778246955E+02  0.11386701037E+03  0.91187600000E+02 0.  0.
<mgrwt>
<rscale>  0 0.17388583E+04</rscale>
<asrwt>0</asrwt>
<pdfrwt beam="1">  1        3 0.29610879E+00 0.37764368E+04</pdfrwt>
<pdfrwt beam="2">  1       -3 0.40786409E+00 0.37764368E+04</pdfrwt>
<totfact> 0.77963093E-04</totfact>
</mgrwt>
</event>
<event>
11    1  0.2356478E-014  0.3652396E+04  0.7818608E-02  0.8550772E-01
          1   -1    0    0  501    0  0.00000000000E+00  0.00000000000E+00  0.39858782453E+04  0.39858782453E+04  0.00000000000E+00 0. -1.
         -1   -1    0    0    0  501 -0.00000000000E+00 -0.00000000000E+00 -0.20907309054E+04  0.20907309054E+04  0.00000000000E+00 0.  1.
         23    2    1    2    0    0  0.31024003697E+03 -0.26482800964E+03 -0.12116341375E+04  0.12816022834E+04  0.89801863394E+02 0.  0.
    9900016    2    1    2    0    0  0.68705513912E+03 -0.29820788708E+03  0.27275021157E+04  0.33505067319E+04  0.17960108187E+04 0.  0.
        -15    1    4    4    0    0 -0.39686229988E+03  0.12100962739E+03  0.11768318332E+04  0.12478285854E+04  0.00000000000E+00 0.  1.
        -15    1    3    3    0    0  0.10787112036E+03 -0.62486175426E+02 -0.48183529869E+03  0.49770066887E+03  0.00000000000E+00 0. -1.
         15    1    4    4    0    0  0.11728330870E+04 -0.50223929119E+03  0.12866191780E+04  0.18119521696E+04  0.00000000000E+00 0. -1.
         15    1    3    3    0    0  0.20236891661E+03 -0.20234183421E+03 -0.72979883876E+03  0.78390161458E+03  0.00000000000E+00 0.  1.
        -16    1    1    2    0    0 -0.10304637676E+04  0.58625377266E+03  0.15070398321E+03  0.11950986373E+04  0.00000000000E+00 0.  1.
         16    1    4    4    0    0 -0.88915647959E+02  0.83021776725E+02  0.26405110451E+03  0.29072597692E+03  0.00000000000E+00 0. -1.
    9900018    1    1    2    0    0  0.33168591470E+02 -0.23217875943E+02  0.22857537846E+03  0.24940149810E+03  0.91187600000E+02 0.  0.
<mgrwt>
<rscale>  0 0.21239359E+04</rscale>
<asrwt>0</asrwt>
<pdfrwt beam="1">  1        1 0.61321204E+00 0.36523964E+04</pdfrwt>
<pdfrwt beam="2">  1       -1 0.32165091E+00 0.36523964E+04</pdfrwt>
<totfact> 0.17873166E-03</totfact>
</mgrwt>
</event>
<event>
12    1  0.2356478E-014  0.3286768E+04  0.7818608E-02  0.8589906E-01
         -1   -1    0    0    0  501 -0.00000000000E+00  0.00000000000E+00  0.18958448657E+04  0.18958448657E+04  0.00000000000E+00 0.  1.
          1   -1    0    0  501    0  0.00000000000E+00 -0.00000000000E+00 -0.20446484217E+04  0.20446484217E+04  0.00000000000E+00 0. -1.
         23    2    1    2    0    0 -0.39437606064E+03  0.26510888540E+03 -0.42225073584E+03  0.64237010024E+03  0.92349680239E+02 0.  0.
    9900016    2    1    2    0    0 -0.18108998097E+03 -0.10768018807E+04 -0.20551580038E+03  0.21938531929E+04  0.18916815843E+04 0.  0.
         24    2    4    4    0    0  0.26909561979E+03 -0.86581050902E+03  0.66510611598E+03  0.11286293398E+04  0.96941998153E+02 0.  0.
        -15    1    3    3    0    0 -0.85075528426E+02  0.19447699109E+02 -0.98976554817E+02  0.13195611748E+03  0.00000000000E+00 0.  1.
        -15    1    5    5    0    0  0.72943442063E+02 -0.38440122872E+03  0.30811495163E+03  0.49801593729E+03  0.00000000000E+00 0.  1.
         15    1    3    3    0    0 -0.30930053221E+03  0.24566118629E+03 -0.32327418102E+03  0.51041398275E+03  0.00000000000E+00 0. -1.
         15    1    4    4    0    0 -0.44096717591E+03 -0.13928674649E+03 -0.81311972844E+03  0.93542318806E+03  0.00000000000E+00 0. -1.
        -16    1    1    2    0    0  0.57546604161E+03  0.81169299535E+03  0.47896298031E+03  0.11042699943E+04  0.00000000000E+00 0.  1.
         16    1    5    5    0    0  0.19615217773E+03 -0.48140928030E+03  0.35699116435E+03  0.63061340250E+03  0.00000000000E+00 0. -1.
    9900018    1    4    4    0    0 -0.92184248452E+01 -0.71704625234E+02 -0.57502187917E+02  0.12980066504E+03  0.91187600000E+02 0.  0.
<mgrwt>
<rscale>  0 0.20361437E+04</rscale>
<asrwt>0</asrwt>
<pdfrwt beam="1">  1        1 0.31456130E+00 0.32867679E+04</pdfrwt>
<pdfrwt beam="2">  1       -1 0.29166844E+00 0.32867679E+04</pdfrwt>
<totfact> 0.84498205E-02</totfact>
</mgrwt>
</event>
