<event>
12    1  0.1353534E-014  0.1030921E+04  0.7818608E-02  0.9882667E-01
          2   -1    0    0  501    0  0.00000000000E+00  0.00000000000E+00  0.13130893917E+04  0.13130893917E+04  0.00000000000E+00 0.  1.
         -2   -1    0    0    0  501 -0.00000000000E+00 -0.00000000000E+00 -0.28362381494E+03  0.28362381494E+03  0.00000000000E+00 0. -1.
         23    2    1    2    0    0  0.29451387757E+02  0.83162271360E+02 -0.16209361324E+02  0.12830101870E+03  0.91733638250E+02 0.  0.
    9900016    2    1    2    0    0  0.10905735807E+03 -0.15368900545E+03  0.87461907651E+03  0.11148897909E+04  0.66521192046E+03 0.  0.
         23    2    4    4    0    0 -0.14410807365E+03 -0.23474537455E+03  0.11253939002E+03  0.30777869610E+03  0.78677084974E+02 0.  0.
        -15    1    3    3    0    0 -0.95219265719E+01  0.22987824355E+02 -0.44696667175E+02  0.51155637136E+02  0.00000000000E+00 0. -1.
        -15    1    5    5    0    0 -0.71190901092E+02 -0.69339924185E+02  0.71463293949E+02  0.12240576729E+03  0.00000000000E+00 0. -1.
         15    1    3    3    0    0  0.38973314329E+02  0.60174447005E+02  0.28487305851E+02  0.77145381565E+02  0.00000000000E+00 0.  1.
         15    1    5    5    0    0 -0.72917172562E+02 -0.16540545037E+03  0.41076096070E+02  0.18537292881E+03  0.00000000000E+00 0.  1.
        -16    1    4    4    0    0  0.25316543172E+03  0.81056369108E+02  0.76207968649E+03  0.80711109480E+03  0.00000000000E+00 0.  1.
         16    1    1    2    0    0 -0.12374851177E+03  0.79725150614E+02 -0.12593169260E+02  0.14774431197E+03  0.00000000000E+00 0. -1.
    9900018    1    1    2    0    0 -0.14760234049E+02 -0.91984165273E+01  0.18364903080E+03  0.20577808505E+03  0.91187600000E+02 0.  0.
<mgrwt>
<rscale>  0 0.61108709E+03</rscale>
<asrwt>0</asrwt>
<pdfrwt beam="1">  1        2 0.20201375E+00 0.10309211E+04</pdfrwt>
<pdfrwt beam="2">  1       -2 0.43634434E-01 0.10309211E+04</pdfrwt>
<totfact> 0.80574641E+01</totfact>
</mgrwt>
</event>
<event>
12    1  0.1353534E-014  0.4242147E+04  0.7818608E-02  0.8614868E-01
         -2   -1    0    0    0  501 -0.00000000000E+00  0.00000000000E+00  0.13767625398E+04  0.13767625398E+04  0.00000000000E+00 0.  1.
          2   -1    0    0  501    0  0.00000000000E+00 -0.00000000000E+00 -0.36360877108E+04  0.36360877108E+04  0.00000000000E+00 0. -1.
         23    2    1    2    0    0  0.40306463377E+02 -0.17583106577E+03 -0.24208789023E+03  0.31550478095E+03  0.91627209527E+02 0.  0.
    9900016    2    1    2    0    0  0.18078842555E+03  0.97536258513E+03  0.98335900403E+03  0.15841940655E+04  0.74743513378E+03 0.  0.
         23    2    4    4    0    0  0.29056136117E+03  0.18208398512E+03  0.99086252986E+02  0.36476148852E+03  0.75182283375E+02 0.  0.
        -15    1    5    5    0    0  0.20898283119E+02  0.41943405079E+02  0.83341042055E+01  0.47596688539E+02  0.00000000000E+00 0.  1.
        -15    1    3    3    0    0  0.50032556451E+02 -0.39257494992E+02 -0.97210143162E+02  0.11616462263E+03  0.00000000000E+00 0. -1.
         15    1    3    3    0    0 -0.97260930744E+01 -0.13657357078E+03 -0.14487774707E+03  0.19934015831E+03  0.00000000000E+00 0.  1.
         15    1    5    5    0    0  0.26966307805E+03  0.14014058004E+03  0.90752148780E+02  0.31716479998E+03  0.00000000000E+00 0. -1.
        -16    1    4    4    0    0 -0.14756433071E+03  0.61596982464E+03  0.71465677786E+03  0.95494940531E+03  0.00000000000E+00 0.  1.
         16    1    1    2    0    0 -0.22109488892E+03 -0.79953151937E+03 -0.30005962848E+04  0.31131514041E+04  0.00000000000E+00 0. -1.
    9900018    1    4    4    0    0  0.37791395085E+02  0.17730877537E+03  0.16961597319E+03  0.26448317171E+03  0.91187600000E+02 0.  0.
<mgrwt>
<rscale>  0 0.19824552E+04</rscale>
<asrwt>0</asrwt>
<pdfrwt beam="1">  1        2 0.55939811E+00 0.42421467E+04</pdfrwt>
<pdfrwt beam="2">  1       -2 0.21180962E+00 0.42421467E+04</pdfrwt>
<totfact> 0.55484067E-02</totfact>
</mgrwt>
</event>
<event>
12    1  0.1353534E-014  0.2011786E+04  0.7818608E-02  0.9230308E-01
          2   -1    0    0  501    0  0.00000000000E+00  0.00000000000E+00  0.20428681538E+04  0.20428681538E+04  0.00000000000E+00 0. -1.
         -2   -1    0    0    0  501 -0.00000000000E+00 -0.00000000000E+00 -0.61395470544E+03  0.61395470544E+03  0.00000000000E+00 0.  1.
         23    2    1    2    0    0  0.48942639497E+02 -0.12828633082E+03  0.32044755627E+03  0.35987244990E+03  0.89268019167E+02 0.  0.
    9900016    2    1    2    0    0 -0.50418300772E+03  0.40320523932E+03 -0.80035757184E+02  0.99489036100E+03  0.75274573244E+03 0.  0.
         23    2    4    4    0    0  0.10645413531E+03 -0.10222833981E+03 -0.55214441260E+01  0.16499488371E+03  0.73550723453E+02 0.  0.
        -15    1    3    3    0    0 -0.36365783092E+01 -0.10228634889E+03  0.17051589266E+03  0.19887531652E+03  0.00000000000E+00 0.  1.
        -15    1    5    5    0    0 -0.31131567151E+00 -0.42445466859E+02 -0.38369813465E+01  0.42619678555E+02  0.00000000000E+00 0. -1.
         15    1    3    3    0    0  0.52579217807E+02 -0.25999981924E+02  0.14993166360E+03  0.16099713338E+03  0.00000000000E+00 0. -1.
         15    1    5    5    0    0  0.10676545099E+03 -0.59782872948E+02 -0.16844627795E+01  0.12237520516E+03  0.00000000000E+00 0.  1.
        -16    1    4    4    0    0 -0.53235349022E+03  0.41011933059E+03 -0.43611929522E+02  0.67342416371E+03  0.00000000000E+00 0.  1.
         16    1    1    2    0    0  0.45524036823E+03 -0.27491890850E+03  0.11885016493E+04  0.13020600483E+04  0.00000000000E+00 0. -1.
    9900018    1    4    4    0    0 -0.78283652818E+02  0.95314248538E+02 -0.30902383536E+02  0.15647131358E+03  0.91187600000E+02 0.  0.
<mgrwt>
<rscale>  0 0.10746001E+04</rscale>
<asrwt>0</asrwt>
<pdfrwt beam="1">  1        2 0.31428741E+00 0.20117864E+04</pdfrwt>
<pdfrwt beam="2">  1       -2 0.94454571E-01 0.20117864E+04</pdfrwt>
<totfact> 0.55099831E+00</totfact>
</mgrwt>
</event>
<event>
12    1  0.1353534E-014  0.1941230E+04  0.7818608E-02  0.8634602E-01
          1   -1    0    0  501    0  0.00000000000E+00  0.00000000000E+00  0.11404491700E+04  0.11404491700E+04  0.00000000000E+00 0. -1.
         -1   -1    0    0    0  501 -0.00000000000E+00 -0.00000000000E+00 -0.82607211725E+03  0.82607211725E+03  0.00000000000E+00 0.  1.
         23    2    1    2    0    0  0.39730161234E+03  0.82737797974E+02 -0.73373950880E+02  0.42280612500E+03  0.93204979948E+02 0.  0.
    9900016    2    1    2    0    0 -0.69441072257E+03  0.15295486368E+03  0.70526938691E+02  0.10492902827E+04  0.76839742735E+03 0.  0.
         23    2    4    4    0    0 -0.26052408550E+03  0.20269418925E+03  0.29809723295E+03  0.45005766950E+03  0.68791075753E+02 0.  0.
        -15    1    3    3    0    0  0.26292569154E+03  0.98335763411E+02 -0.40813215730E+02  0.28366452054E+03  0.00000000000E+00 0. -1.
        -15    1    5    5    0    0 -0.75482533630E+02  0.77639732988E+02  0.13727953081E+03  0.17484624846E+03  0.00000000000E+00 0. -1.
         15    1    5    5    0    0 -0.18504155187E+03  0.12505445626E+03  0.16081770214E+03  0.27521142104E+03  0.00000000000E+00 0.  1.
         15    1    3    3    0    0  0.13437592080E+03 -0.15597965437E+02 -0.32560735150E+02  0.13914160445E+03  0.00000000000E+00 0.  1.
        -16    1    1    2    0    0  0.29710911024E+03 -0.23569266166E+03  0.31722406497E+03  0.49442487957E+03  0.00000000000E+00 0.  1.
         16    1    4    4    0    0 -0.24909698250E+03 -0.10786698358E+03 -0.26787310779E+03  0.38136674568E+03  0.00000000000E+00 0. -1.
    9900018    1    4    4    0    0 -0.18478965457E+03  0.58127658010E+02  0.40302813530E+02  0.21786586753E+03  0.91187600000E+02 0.  0.
<mgrwt>
<rscale>  0 0.19412298E+04</rscale>
<asrwt>0</asrwt>
<pdfrwt beam="1">  1        1 0.17545372E+00 0.19412298E+04</pdfrwt>
<pdfrwt beam="2">  1       -1 0.12708802E+00 0.19412298E+04</pdfrwt>
<totfact> 0.59197080E+00</totfact>
</mgrwt>
</event>
