<event>
12    1  0.1106125E-012  0.2708545E+04  0.7818608E-02  0.8332238E-01
          2   -1    0    0  501    0  0.00000000000E+00  0.00000000000E+00  0.86503443024E+03  0.86503443024E+03  0.00000000000E+00 0. -1.
         -2   -1    0    0    0  501 -0.00000000000E+00 -0.00000000000E+00 -0.21202094800E+04  0.21202094800E+04  0.00000000000E+00 0.  1.
    9900016    2    1    2    0    0  0.87168046385E+02 -0.35665758073E+03 -0.11049353830E+04  0.24566415271E+04  0.21631926622E+04 0.  0.
        -24    2    3    3    0    0  0.25486225341E+03  0.59081707822E+03  0.15599470447E+03  0.66688898586E+03  0.79918605532E+02 0.  0.
         23    2    3    3    0    0 -0.75853233808E+02 -0.26754415131E+03 -0.10217083405E+04  0.10631389549E+04  0.95094260593E+02 0.  0.
        -15    1    5    5    0    0 -0.69787572500E+02 -0.10678658501E+03 -0.55535765571E+03  0.56982085410E+03  0.00000000000E+00 0.  1.
        -15    1    3    3    0    0 -0.91840973214E+02 -0.67993050765E+03 -0.23922174698E+03  0.72661358631E+03  0.00000000000E+00 0.  1.
         15    1    4    4    0    0  0.13927915091E+03  0.29207139051E+03  0.11752252770E+03  0.34426141745E+03  0.00000000000E+00 0. -1.
         15    1    5    5    0    0 -0.60656613076E+01 -0.16075756630E+03 -0.46635068477E+03  0.49331810078E+03  0.00000000000E+00 0. -1.
        -16    1    4    4    0    0  0.11558310250E+03  0.29874568772E+03  0.38472176776E+02  0.32262756841E+03  0.00000000000E+00 0.  1.
         16    1    1    2    0    0 -0.10262305941E+03  0.38150647091E+03 -0.64970326730E+02  0.40037460337E+03  0.00000000000E+00 0. -1.
    9900018    1    1    2    0    0  0.15455013030E+02 -0.24848890181E+02 -0.85269340070E+02  0.12822777983E+03  0.91187600000E+02 0.  0.
<mgrwt>
<rscale>  0 0.27085451E+04</rscale>
<asrwt>0</asrwt>
<pdfrwt beam="1">  1        2 0.13308222E+00 0.27085451E+04</pdfrwt>
<pdfrwt beam="2">  1       -2 0.32618607E+00 0.27085451E+04</pdfrwt>
<totfact> 0.59552281E-01</totfact>
</mgrwt>
</event>
<event>
12    1  0.1106125E-012  0.2884748E+04  0.7818608E-02  0.8277430E-01
          1   -1    0    0  501    0  0.00000000000E+00  0.00000000000E+00  0.33525433897E+04  0.33525433897E+04  0.00000000000E+00 0. -1.
         -1   -1    0    0    0  501 -0.00000000000E+00 -0.00000000000E+00 -0.62055636503E+03  0.62055636503E+03  0.00000000000E+00 0.  1.
    9900016    2    1    2    0    0 -0.53971564926E+01 -0.25208989539E+03  0.14819516398E+04  0.26275988539E+04  0.21551140642E+04 0.  0.
        -24    2    3    3    0    0  0.76257224908E+03 -0.11133711231E+03  0.16230231754E+04  0.17985263490E+04  0.81119743075E+02 0.  0.
         23    2    3    3    0    0 -0.17966586926E+03 -0.90233265376E+02  0.55409010994E+01  0.22067421501E+03  0.90799453900E+02 0.  0.
        -15    1    5    5    0    0 -0.50725438903E+01 -0.20472556513E+02 -0.22202920751E+02  0.30623944253E+02  0.00000000000E+00 0.  1.
        -15    1    3    3    0    0 -0.58830353632E+03 -0.50519517710E+02 -0.14661243669E+03  0.60839828986E+03  0.00000000000E+00 0.  1.
         15    1    4    4    0    0  0.41031016447E+03 -0.24588681765E+02  0.81456368000E+03  0.91239959619E+03  0.00000000000E+00 0. -1.
         15    1    5    5    0    0 -0.17459332537E+03 -0.69760708863E+02  0.27743821851E+02  0.19005027076E+03  0.00000000000E+00 0. -1.
        -16    1    4    4    0    0  0.35226208461E+03 -0.86748430540E+02  0.80845949536E+03  0.88612675284E+03  0.00000000000E+00 0.  1.
         16    1    1    2    0    0  0.47119223585E+02  0.27701441763E+03  0.11966429587E+04  0.12291914332E+04  0.00000000000E+00 0. -1.
    9900018    1    1    2    0    0 -0.41722067092E+02 -0.24924522242E+02  0.53392426134E+02  0.11630946760E+03  0.91187600000E+02 0.  0.
<mgrwt>
<rscale>  0 0.28847476E+04</rscale>
<asrwt>0</asrwt>
<pdfrwt beam="1">  1        1 0.51577590E+00 0.28847476E+04</pdfrwt>
<pdfrwt beam="2">  1       -1 0.95470212E-01 0.28847476E+04</pdfrwt>
<totfact> 0.29608333E-01</totfact>
</mgrwt>
</event>
<event>
12    1  0.1106125E-012  0.3438524E+04  0.7818608E-02  0.8128515E-01
         -2   -1    0    0    0  501 -0.00000000000E+00  0.00000000000E+00  0.10453657215E+04  0.10453657215E+04  0.00000000000E+00 0.  1.
          2   -1    0    0  501    0  0.00000000000E+00 -0.00000000000E+00 -0.28275865040E+04  0.28275865040E+04  0.00000000000E+00 0. -1.
    9900016    2    1    2    0    0  0.13848956756E+03 -0.34692394705E+03 -0.25911651180E+03  0.22045778416E+04  0.21571941284E+04 0.  0.
        -24    2    3    3    0    0 -0.70714833378E+03  0.75435266146E+01 -0.13055696880E+03  0.72350553342E+03  0.79369162988E+02 0.  0.
         23    2    3    3    0    0 -0.76992373589E+02  0.25603422755E+03 -0.23873815370E+03  0.36927274097E+03  0.88798085143E+02 0.  0.
        -15    1    3    3    0    0  0.92263027493E+03 -0.61050170121E+03  0.11017861069E+03  0.11117995672E+04  0.00000000000E+00 0.  1.
        -15    1    5    5    0    0 -0.16013526381E+02  0.18703347895E+03 -0.13938093433E+03  0.23380547498E+03  0.00000000000E+00 0. -1.
         15    1    5    5    0    0 -0.60978847208E+02  0.69000748592E+02 -0.99357219373E+02  0.13546726599E+03  0.00000000000E+00 0.  1.
         15    1    4    4    0    0 -0.27047757629E+03  0.21791657712E+02 -0.84370708634E+02  0.28416792939E+03  0.00000000000E+00 0. -1.
        -16    1    4    4    0    0 -0.43667075749E+03 -0.14248131097E+02 -0.46186260167E+02  0.43933760403E+03  0.00000000000E+00 0.  1.
         16    1    1    2    0    0 -0.15108298829E+03  0.40250641515E+03 -0.14972836678E+04  0.15577855647E+04  0.00000000000E+00 0. -1.
    9900018    1    1    2    0    0  0.12593420731E+02 -0.55582468104E+02 -0.25820602850E+02  0.11058881920E+03  0.91187600000E+02 0.  0.
<mgrwt>
<rscale>  0 0.34385241E+04</rscale>
<asrwt>0</asrwt>
<pdfrwt beam="1">  1        2 0.43501331E+00 0.34385241E+04</pdfrwt>
<pdfrwt beam="2">  1       -2 0.16082550E+00 0.34385241E+04</pdfrwt>
<totfact> 0.45616918E-01</totfact>
</mgrwt>
</event>
<event>
12    1  0.1106125E-012  0.4038690E+04  0.7818608E-02  0.7996787E-01
          2   -1    0    0  501    0  0.00000000000E+00  0.00000000000E+00  0.19230213124E+04  0.19230213124E+04  0.00000000000E+00 0.  1.
         -2   -1    0    0    0  501 -0.00000000000E+00 -0.00000000000E+00 -0.21204938993E+04  0.21204938993E+04  0.00000000000E+00 0. -1.
    9900016    2    1    2    0    0  0.98818754057E+03 -0.24268053666E+03  0.82290412181E+03  0.26024818721E+04  0.22495182245E+04 0.  0.
        -24    2    3    3    0    0 -0.54778531002E+03  0.13251431320E+03 -0.12544366509E+03  0.58299286986E+03  0.80720407070E+02 0.  0.
         23    2    3    3    0    0  0.51592208590E+02 -0.17647305734E+03 -0.93502495739E+01  0.20502348545E+03  0.90236946215E+02 0.  0.
        -15    1    5    5    0    0  0.76029807044E+02 -0.13598695583E+03 -0.18383396612E+02  0.15687872063E+03  0.00000000000E+00 0. -1.
        -15    1    3    3    0    0  0.14091238498E+04 -0.19586572044E+03  0.89184086147E+03  0.16790990223E+04  0.00000000000E+00 0.  1.
         15    1    5    5    0    0 -0.24437598454E+02 -0.40486101510E+02  0.90331470380E+01  0.48144764815E+02  0.00000000000E+00 0.  1.
         15    1    4    4    0    0 -0.27525834418E+03  0.89365061831E+02 -0.98738172187E+02  0.30578177997E+03  0.00000000000E+00 0. -1.
        -16    1    4    4    0    0 -0.27252696584E+03  0.43149251368E+02 -0.26705492900E+02  0.27721108989E+03  0.00000000000E+00 0.  1.
         16    1    1    2    0    0 -0.98818754057E+03  0.24268053666E+03 -0.10203767087E+04  0.14410333396E+04  0.00000000000E+00 0. -1.
    9900018    1    3    3    0    0  0.75256792171E+02 -0.28560720787E+01  0.65857175005E+02  0.13536649441E+03  0.91187600000E+02 0.  0.
<mgrwt>
<rscale>  0 0.40386904E+04</rscale>
<asrwt>0</asrwt>
<pdfrwt beam="1">  1        2 0.29584943E+00 0.40386904E+04</pdfrwt>
<pdfrwt beam="2">  1       -2 0.32622983E+00 0.40386904E+04</pdfrwt>
<totfact> 0.12702553E-01</totfact>
</mgrwt>
</event>
<event>
12    1  0.1106125E-012  0.2840175E+04  0.7818608E-02  0.8290903E-01
          2   -1    0    0  501    0  0.00000000000E+00  0.00000000000E+00  0.55183011398E+03  0.55183011398E+03  0.00000000000E+00 0. -1.
         -2   -1    0    0    0  501 -0.00000000000E+00 -0.00000000000E+00 -0.36544722144E+04  0.36544722144E+04  0.00000000000E+00 0.  1.
    9900016    2    1    2    0    0 -0.82805859582E+02  0.42470037759E+02 -0.31297105833E+04  0.37988444864E+04  0.21511556388E+04 0.  0.
        -24    2    3    3    0    0  0.90223687229E+03  0.60747982695E+02 -0.71842962355E+03  0.11576808442E+04  0.79762911247E+02 0.  0.
         23    2    3    3    0    0 -0.42461857069E+03 -0.11740774871E+03 -0.65329481763E+03  0.79334946475E+03  0.92324127078E+02 0.  0.
        -15    1    3    3    0    0 -0.56042416118E+03  0.99129803770E+02 -0.17579861421E+04  0.18478141774E+04  0.00000000000E+00 0.  1.
        -15    1    5    5    0    0 -0.88194660802E+02  0.61937498327E+01 -0.93794565149E+02  0.12889562127E+03  0.00000000000E+00 0. -1.
         15    1    5    5    0    0 -0.33642390989E+03 -0.12360149854E+03 -0.55950025249E+03  0.66445384348E+03  0.00000000000E+00 0.  1.
         15    1    4    4    0    0  0.73125927141E+03  0.20629886076E+02 -0.59594605373E+03  0.94356632686E+03  0.00000000000E+00 0. -1.
        -16    1    4    4    0    0  0.17097760088E+03  0.40118096619E+02 -0.12248356981E+03  0.21411451738E+03  0.00000000000E+00 0.  1.
         16    1    1    2    0    0  0.11399288062E+03 -0.67329816244E+00  0.18528508068E+03  0.21754399850E+03  0.00000000000E+00 0. -1.
    9900018    1    1    2    0    0 -0.31187021040E+02 -0.41796739597E+02 -0.15821659781E+03  0.18991384346E+03  0.91187600000E+02 0.  0.
<mgrwt>
<rscale>  0 0.28401745E+04</rscale>
<asrwt>0</asrwt>
<pdfrwt beam="1">  1        2 0.84896942E-01 0.28401745E+04</pdfrwt>
<pdfrwt beam="2">  1       -2 0.56222649E+00 0.28401745E+04</pdfrwt>
<totfact> 0.34914467E-02</totfact>
</mgrwt>
</event>
<event>
12    1  0.1106125E-012  0.2673087E+04  0.7818608E-02  0.8343790E-01
         -1   -1    0    0    0  501 -0.00000000000E+00  0.00000000000E+00  0.11099133692E+04  0.11099133692E+04  0.00000000000E+00 0.  1.
          1   -1    0    0  501    0  0.00000000000E+00 -0.00000000000E+00 -0.16094490458E+04  0.16094490458E+04  0.00000000000E+00 0. -1.
    9900016    2    1    2    0    0  0.16804984219E+03 -0.20782717246E+03 -0.14605903023E+03  0.22762161382E+04  0.22557468352E+04 0.  0.
        -24    2    3    3    0    0  0.56294848978E+03  0.23315248583E+03 -0.57815803443E+03  0.84419147579E+03  0.84388691334E+02 0.  0.
         23    2    3    3    0    0 -0.63024015946E+02 -0.32968869060E+03 -0.35661006384E+03  0.49826803178E+03  0.91834822170E+02 0.  0.
        -15    1    3    3    0    0 -0.33268522388E+03 -0.55557321200E+02  0.74592070048E+03  0.81863530680E+03  0.00000000000E+00 0.  1.
        -15    1    5    5    0    0 -0.23264642533E+02 -0.21697877388E+03 -0.16981908973E+03  0.27651320971E+03  0.00000000000E+00 0.  1.
         15    1    5    5    0    0 -0.39759373414E+02 -0.11270991672E+03 -0.18679097411E+03  0.22175482207E+03  0.00000000000E+00 0. -1.
         15    1    4    4    0    0  0.13382556037E+03  0.93710837592E+02 -0.13812855086E+03  0.21394040818E+03  0.00000000000E+00 0. -1.
        -16    1    4    4    0    0  0.42912292942E+03  0.13944164824E+03 -0.44002948357E+03  0.63025106761E+03  0.00000000000E+00 0.  1.
         16    1    1    2    0    0 -0.16804984219E+03  0.20782717246E+03 -0.35347664643E+03  0.44314627680E+03  0.00000000000E+00 0. -1.
    9900018    1    3    3    0    0  0.81059222821E+00 -0.55733646492E+02  0.42788367565E+02  0.11512132384E+03  0.91187600000E+02 0.  0.
<mgrwt>
<rscale>  0 0.26730874E+04</rscale>
<asrwt>0</asrwt>
<pdfrwt beam="1">  1        1 0.24760754E+00 0.26730874E+04</pdfrwt>
<pdfrwt beam="2">  1       -1 0.17075590E+00 0.26730874E+04</pdfrwt>
<totfact> 0.11688394E+00</totfact>
</mgrwt>
</event>
<event>
12    1  0.1106125E-012  0.3242343E+04  0.7818608E-02  0.8177723E-01
          1   -1    0    0  501    0  0.00000000000E+00  0.00000000000E+00  0.82974454272E+03  0.82974454272E+03  0.00000000000E+00 0. -1.
         -1   -1    0    0    0  501 -0.00000000000E+00 -0.00000000000E+00 -0.31674771533E+04  0.31674771533E+04  0.00000000000E+00 0.  1.
    9900016    2    1    2    0    0  0.59109552270E+03 -0.32913282790E+03 -0.20861028630E+04  0.30740389547E+04  0.21541049196E+04 0.  0.
        -24    2    3    3    0    0  0.10042085340E+04 -0.10165091304E+04 -0.13386438962E+04  0.19595208675E+04  0.77646360673E+02 0.  0.
         23    2    3    3    0    0 -0.29666642519E+03  0.38428295714E+03 -0.37448527102E+03  0.62001352585E+03  0.92158532102E+02 0.  0.
        -15    1    3    3    0    0 -0.11644658614E+03  0.30309334537E+03 -0.37297369575E+03  0.49450456131E+03  0.00000000000E+00 0.  1.
        -15    1    5    5    0    0 -0.25806541820E+03  0.29184837696E+03 -0.32935801807E+03  0.51014697811E+03  0.00000000000E+00 0.  1.
         15    1    5    5    0    0 -0.38601006988E+02  0.92434580181E+02 -0.45127252958E+02  0.10986654774E+03  0.00000000000E+00 0. -1.
         15    1    4    4    0    0  0.22369915848E+03 -0.19292570416E+03 -0.30552133522E+03  0.42497638418E+03  0.00000000000E+00 0. -1.
        -16    1    4    4    0    0  0.78050937555E+03 -0.82358342626E+03 -0.10331225610E+04  0.15345444834E+04  0.00000000000E+00 0.  1.
         16    1    1    2    0    0 -0.63027524670E+03  0.35825894714E+03 -0.88966124674E+02  0.73041859994E+03  0.00000000000E+00 0. -1.
    9900018    1    1    2    0    0  0.39179723994E+02 -0.29126119241E+02 -0.16266362287E+03  0.19276414136E+03  0.91187600000E+02 0.  0.
<mgrwt>
<rscale>  0 0.32423429E+04</rscale>
<asrwt>0</asrwt>
<pdfrwt beam="1">  1        1 0.12765301E+00 0.32423429E+04</pdfrwt>
<pdfrwt beam="2">  1       -1 0.48730418E+00 0.32423429E+04</pdfrwt>
<totfact> 0.31305293E-02</totfact>
</mgrwt>
</event>
<event>
12    1  0.1106125E-012  0.2710550E+04  0.7818608E-02  0.8331590E-01
         -1   -1    0    0    0  501 -0.00000000000E+00  0.00000000000E+00  0.13737017256E+04  0.13737017256E+04  0.00000000000E+00 0.  1.
          1   -1    0    0  501    0  0.00000000000E+00 -0.00000000000E+00 -0.13370957302E+04  0.13370957302E+04  0.00000000000E+00 0. -1.
    9900016    2    1    2    0    0  0.21498820031E+03 -0.35199369006E+03  0.51556848371E+02  0.21929277708E+04  0.21531731503E+04 0.  0.
         24    2    3    3    0    0 -0.42676230169E+03  0.19781608961E+03 -0.48226788558E+03  0.67824009310E+03  0.78549621135E+02 0.  0.
         23    2    3    3    0    0 -0.11280681704E+03 -0.38951232944E+03 -0.18980958803E+03  0.45700216101E+03  0.91531757884E+02 0.  0.
        -15    1    5    5    0    0 -0.17032880393E+02 -0.20850457756E+03 -0.75042303843E+02  0.22225126601E+03  0.00000000000E+00 0.  1.
        -15    1    4    4    0    0 -0.11244791263E+03  0.61747754915E+02 -0.18252809046E+03  0.22310047534E+03  0.00000000000E+00 0.  1.
         15    1    5    5    0    0 -0.95773936649E+02 -0.18100775188E+03 -0.11476728419E+03  0.23475089500E+03  0.00000000000E+00 0. -1.
         15    1    3    3    0    0  0.75455731904E+03 -0.16029745024E+03  0.72363432198E+03  0.10576855167E+04  0.00000000000E+00 0. -1.
        -16    1    1    2    0    0 -0.21552187782E+03  0.36044530775E+03  0.18498880823E+02  0.42037210694E+03  0.00000000000E+00 0.  1.
         16    1    4    4    0    0 -0.31431438906E+03  0.13606833470E+03 -0.29973979512E+03  0.45513961776E+03  0.00000000000E+00 0. -1.
    9900018    1    1    2    0    0  0.53367751636E+00 -0.84516176866E+01 -0.33449733755E+02  0.97497578099E+02  0.91187600000E+02 0.  0.
<mgrwt>
<rscale>  0 0.27105503E+04</rscale>
<asrwt>0</asrwt>
<pdfrwt beam="1">  1        1 0.20570704E+00 0.27105503E+04</pdfrwt>
<pdfrwt beam="2">  1       -1 0.21133873E+00 0.27105503E+04</pdfrwt>
<totfact> 0.93478274E-01</totfact>
</mgrwt>
</event>
<event>
12    1  0.1106125E-012  0.2567819E+04  0.7818608E-02  0.8379215E-01
          2   -1    0    0  501    0  0.00000000000E+00  0.00000000000E+00  0.12143248476E+04  0.12143248476E+04  0.00000000000E+00 0. -1.
         -2   -1    0    0    0  501 -0.00000000000E+00 -0.00000000000E+00 -0.13574813662E+04  0.13574813662E+04  0.00000000000E+00 0.  1.
    9900016    2    1    2    0    0  0.13682607135E+03  0.26648893572E+03 -0.15114999796E+03  0.22721370256E+04  0.22472255371E+04 0.  0.
        -24    2    3    3    0    0 -0.57407063938E+03  0.12978145153E+03  0.58366859185E+03  0.83267518323E+03  0.79237689841E+02 0.  0.
         23    2    3    3    0    0 -0.14089661359E+03  0.20219319506E+03 -0.19834389458E+02  0.26485928715E+03  0.94989973854E+02 0.  0.
        -15    1    3    3    0    0  0.81153929952E+03 -0.68809323574E+02 -0.69963723460E+03  0.10736959615E+04  0.00000000000E+00 0.  1.
        -15    1    5    5    0    0 -0.41920076390E+02  0.14240114745E+03 -0.13361192148E+02  0.14904328585E+03  0.00000000000E+00 0.  1.
         15    1    5    5    0    0 -0.98976537204E+02  0.59792047605E+02 -0.64731973094E+01  0.11581600130E+03  0.00000000000E+00 0. -1.
         15    1    4    4    0    0 -0.29275420516E+03  0.57673424505E+02  0.35002987512E+03  0.45994799925E+03  0.00000000000E+00 0. -1.
        -16    1    4    4    0    0 -0.28131643422E+03  0.72108027021E+02  0.23363871672E+03  0.37272718398E+03  0.00000000000E+00 0.  1.
         16    1    1    2    0    0 -0.13682607135E+03 -0.26648893572E+03  0.79934793202E+01  0.29966918823E+03  0.00000000000E+00 0. -1.
    9900018    1    3    3    0    0  0.40254024805E+02  0.33236127116E+01 -0.15346965747E+02  0.10090659377E+03  0.91187600000E+02 0.  0.
<mgrwt>
<rscale>  0 0.25678188E+04</rscale>
<asrwt>0</asrwt>
<pdfrwt beam="1">  1        2 0.18681921E+00 0.25678188E+04</pdfrwt>
<pdfrwt beam="2">  1       -2 0.20884329E+00 0.25678188E+04</pdfrwt>
<totfact> 0.19186933E+00</totfact>
</mgrwt>
</event>
<event>
12    1  0.1106125E-012  0.2615552E+04  0.7818608E-02  0.8362938E-01
          1   -1    0    0  501    0  0.00000000000E+00  0.00000000000E+00  0.21666260710E+04  0.21666260710E+04  0.00000000000E+00 0. -1.
         -1   -1    0    0    0  501 -0.00000000000E+00 -0.00000000000E+00 -0.78937409816E+03  0.78937409816E+03  0.00000000000E+00 0.  1.
    9900016    2    1    2    0    0  0.38931027339E+02  0.22826094677E+03  0.14820356710E+04  0.27018381969E+04  0.22471940787E+04 0.  0.
         24    2    3    3    0    0  0.84692475546E+03 -0.13992795797E+03  0.10593913640E+04  0.13660101384E+04  0.82536424203E+02 0.  0.
         23    2    3    3    0    0 -0.26531473702E+03 -0.38209002398E+02 -0.21314767179E+03  0.35585242438E+03  0.96680817171E+02 0.  0.
        -15    1    4    4    0    0  0.52619336038E+03 -0.12470168372E+03  0.68713991482E+03  0.87440907187E+03  0.00000000000E+00 0.  1.
        -15    1    5    5    0    0 -0.13020595476E+03 -0.44619369417E+02 -0.56223531680E+02  0.14867940105E+03  0.00000000000E+00 0. -1.
         15    1    5    5    0    0 -0.13510878225E+03  0.64103670193E+01 -0.15692414011E+03  0.20717302333E+03  0.00000000000E+00 0.  1.
         15    1    3    3    0    0 -0.52551981040E+03  0.37655822742E+03  0.57417710123E+03  0.86466554999E+03  0.00000000000E+00 0. -1.
        -16    1    1    2    0    0 -0.38931027339E+02 -0.22826094677E+03 -0.10478369819E+03  0.25416197221E+03  0.00000000000E+00 0.  1.
         16    1    4    4    0    0  0.32073139508E+03 -0.15226274248E+02  0.37225144919E+03  0.49160106656E+03  0.00000000000E+00 0. -1.
    9900018    1    3    3    0    0 -0.17159180704E+02  0.29839679721E+02  0.61614877536E+02  0.11531008410E+03  0.91187600000E+02 0.  0.
<mgrwt>
<rscale>  0 0.26155523E+04</rscale>
<asrwt>0</asrwt>
<pdfrwt beam="1">  1        1 0.33332709E+00 0.26155523E+04</pdfrwt>
<pdfrwt beam="2">  1       -1 0.12144217E+00 0.26155523E+04</pdfrwt>
<totfact> 0.12135625E+00</totfact>
</mgrwt>
</event>
<event>
12    1  0.1106125E-012  0.2943424E+04  0.7818608E-02  0.8260073E-01
         -1   -1    0    0    0  501 -0.00000000000E+00  0.00000000000E+00  0.10386718822E+04  0.10386718822E+04  0.00000000000E+00 0.  1.
          1   -1    0    0  501    0  0.00000000000E+00 -0.00000000000E+00 -0.20852945051E+04  0.20852945051E+04  0.00000000000E+00 0. -1.
    9900016    2    1    2    0    0 -0.35515154462E+02 -0.61625519852E+03 -0.69383099235E+03  0.23474392181E+04  0.21559308062E+04 0.  0.
         24    2    3    3    0    0 -0.70946682315E+03 -0.31263242277E+03  0.31335493079E+03  0.84021767065E+03  0.81805968645E+02 0.  0.
         23    2    3    3    0    0  0.29973868036E+03 -0.47190833264E+03 -0.19777939652E+03  0.59975567228E+03  0.89718592432E+02 0.  0.
        -15    1    5    5    0    0  0.26974815548E+03 -0.39664004140E+03 -0.13820293294E+03  0.49918677917E+03  0.00000000000E+00 0.  1.
        -15    1    4    4    0    0 -0.39989593567E+03 -0.16959484010E+03  0.13206152400E+03  0.45400376130E+03  0.00000000000E+00 0.  1.
         15    1    5    5    0    0  0.29990524879E+02 -0.75268291243E+02 -0.59576463580E+02  0.10056889311E+03  0.00000000000E+00 0. -1.
         15    1    3    3    0    0  0.37421298833E+03  0.16828555689E+03 -0.80940652662E+03  0.90746587519E+03  0.00000000000E+00 0. -1.
        -16    1    1    2    0    0  0.16561073675E+02  0.59574261072E+03 -0.31329436110E+03  0.67330296605E+03  0.00000000000E+00 0.  1.
         16    1    4    4    0    0 -0.30957088749E+03 -0.14303758268E+03  0.18129340678E+03  0.38621390936E+03  0.00000000000E+00 0. -1.
    9900018    1    1    2    0    0  0.18954080787E+02  0.20512587800E+02 -0.39497269402E+02  0.10322420317E+03  0.91187600000E+02 0.  0.
<mgrwt>
<rscale>  0 0.29434244E+04</rscale>
<asrwt>0</asrwt>
<pdfrwt beam="1">  1        1 0.32081454E+00 0.29434244E+04</pdfrwt>
<pdfrwt beam="2">  1       -1 0.15979568E+00 0.29434244E+04</pdfrwt>
<totfact> 0.65400880E-01</totfact>
</mgrwt>
</event>
<event>
12    1  0.1106125E-012  0.2994122E+04  0.7818608E-02  0.8245411E-01
         -1   -1    0    0    0  501 -0.00000000000E+00  0.00000000000E+00  0.95736620759E+03  0.95736620759E+03  0.00000000000E+00 0.  1.
          1   -1    0    0  501    0  0.00000000000E+00 -0.00000000000E+00 -0.23409975667E+04  0.23409975667E+04  0.00000000000E+00 0. -1.
    9900016    2    1    2    0    0  0.44500507211E+02 -0.64090727360E+03 -0.11713604150E+04  0.25369802125E+04  0.21567199513E+04 0.  0.
         24    2    3    3    0    0  0.77511295156E+03 -0.80357580936E+03 -0.20946079252E+03  0.11392216124E+04  0.86127170434E+02 0.  0.
         23    2    3    3    0    0  0.11777874953E+03  0.76173168224E+01 -0.17311333833E+03  0.22900186736E+03  0.92432515863E+02 0.  0.
        -15    1    5    5    0    0  0.87104642254E+02 -0.32466831984E+02 -0.14195962512E+03  0.16968750409E+03  0.00000000000E+00 0. -1.
        -15    1    4    4    0    0  0.50550368611E+03 -0.46567472260E+03 -0.11769483336E+03  0.69730839500E+03  0.00000000000E+00 0.  1.
         15    1    5    5    0    0  0.30674107273E+02  0.40084148806E+02 -0.31153713214E+02  0.59314363265E+02  0.00000000000E+00 0.  1.
         15    1    3    3    0    0 -0.84839119388E+03  0.15505121893E+03 -0.78878628412E+03  0.11687567328E+04  0.00000000000E+00 0. -1.
        -16    1    1    2    0    0 -0.38774399283E+02  0.63408387971E+03 -0.15699844566E+03  0.65438087724E+03  0.00000000000E+00 0.  1.
         16    1    4    4    0    0  0.26960926545E+03 -0.33790108675E+03 -0.91765959158E+02  0.44191321740E+03  0.00000000000E+00 0. -1.
    9900018    1    1    2    0    0 -0.57261079285E+01  0.68233938869E+01 -0.55272498445E+02  0.10700268452E+03  0.91187600000E+02 0.  0.
<mgrwt>
<rscale>  0 0.29941222E+04</rscale>
<asrwt>0</asrwt>
<pdfrwt beam="1">  1        1 0.36015347E+00 0.29941222E+04</pdfrwt>
<pdfrwt beam="2">  1       -1 0.14728711E+00 0.29941222E+04</pdfrwt>
<totfact> 0.54415949E-01</totfact>
</mgrwt>
</event>
<event>
12    1  0.1106125E-012  0.3042991E+04  0.7818608E-02  0.8231560E-01
          3   -1    0    0  501    0  0.00000000000E+00  0.00000000000E+00  0.19441704302E+04  0.19441704302E+04  0.00000000000E+00 0. -1.
         -3   -1    0    0    0  501 -0.00000000000E+00 -0.00000000000E+00 -0.11907126147E+04  0.11907126147E+04  0.00000000000E+00 0.  1.
    9900016    2    1    2    0    0 -0.28311489529E+03 -0.15829262429E+03  0.10942806082E+04  0.24333995499E+04  0.21491330161E+04 0.  0.
         24    2    3    3    0    0  0.44442591137E+03  0.73757761834E+03  0.94326579599E+02  0.86997384216E+03  0.80136437740E+02 0.  0.
         23    2    3    3    0    0 -0.26376727185E+02 -0.15364149222E+03  0.16084352767E+03  0.24182023821E+03  0.91131483842E+02 0.  0.
        -15    1    4    4    0    0  0.37694118680E+03  0.56399136730E+03  0.65508849506E+02  0.68151473209E+03  0.00000000000E+00 0.  1.
        -15    1    5    5    0    0 -0.45843085573E+02 -0.15020164011E+03  0.12433349567E+03  0.20030212014E+03  0.00000000000E+00 0. -1.
         15    1    3    3    0    0 -0.70116407947E+03 -0.74222875041E+03  0.83911050093E+03  0.13216054695E+04  0.00000000000E+00 0. -1.
         15    1    5    5    0    0  0.19466358389E+02 -0.34398521068E+01  0.36510032006E+02  0.41518118075E+02  0.00000000000E+00 0.  1.
        -16    1    1    2    0    0  0.34705528093E+03  0.17165745188E+03 -0.41455717749E+03  0.56724888913E+03  0.00000000000E+00 0.  1.
         16    1    4    4    0    0  0.67484724569E+02  0.17358625104E+03  0.28817730092E+02  0.18845911007E+03  0.00000000000E+00 0. -1.
    9900018    1    1    2    0    0 -0.63940385643E+02 -0.13364827593E+02  0.73734384817E+02  0.13423460594E+03  0.91187600000E+02 0.  0.
<mgrwt>
<rscale>  0 0.30429908E+04</rscale>
<asrwt>0</asrwt>
<pdfrwt beam="1">  1        3 0.29910314E+00 0.30429908E+04</pdfrwt>
<pdfrwt beam="2">  1       -3 0.18318656E+00 0.30429908E+04</pdfrwt>
<totfact> 0.16288755E-02</totfact>
</mgrwt>
</event>
<event>
12    1  0.1106125E-012  0.2834657E+04  0.7818608E-02  0.8292589E-01
          2   -1    0    0  501    0  0.00000000000E+00  0.00000000000E+00  0.30881473922E+04  0.30881473922E+04  0.00000000000E+00 0. -1.
         -2   -1    0    0    0  501 -0.00000000000E+00 -0.00000000000E+00 -0.65049347715E+03  0.65049347715E+03  0.00000000000E+00 0.  1.
    9900016    2    1    2    0    0 -0.27633450702E+03  0.45176258221E+03  0.19870353661E+04  0.30432940011E+04  0.22434078186E+04 0.  0.
        -24    2    3    3    0    0 -0.32920964795E+03 -0.22717300785E+03 -0.22058436388E+03  0.46336218748E+03  0.77849132286E+02 0.  0.
         23    2    3    3    0    0 -0.31991856608E+03  0.48253943038E+02  0.13072502518E+04  0.13497284145E+04  0.90483369635E+02 0.  0.
        -15    1    5    5    0    0 -0.27574913057E+03  0.13688727700E+02  0.10005883546E+04  0.10379797780E+04  0.00000000000E+00 0. -1.
        -15    1    3    3    0    0  0.41795069313E+03  0.60106539527E+03  0.77696794918E+03  0.10675399690E+04  0.00000000000E+00 0.  1.
         15    1    4    4    0    0 -0.24292690144E+03 -0.18267644731E+03 -0.20079818844E+03  0.36428570701E+03  0.00000000000E+00 0. -1.
         15    1    5    5    0    0 -0.44169435504E+02  0.34565215338E+02  0.30666189723E+03  0.31174863649E+03  0.00000000000E+00 0.  1.
        -16    1    4    4    0    0 -0.86282746506E+02 -0.44496560541E+02 -0.19786175439E+02  0.99076480474E+02  0.00000000000E+00 0.  1.
         16    1    1    2    0    0  0.27633450702E+03 -0.45176258221E+03  0.45061854891E+03  0.69534686818E+03  0.00000000000E+00 0. -1.
    9900018    1    3    3    0    0 -0.45156986124E+02  0.29616251763E+02  0.12340152901E+03  0.16266343018E+03  0.91187600000E+02 0.  0.
<mgrwt>
<rscale>  0 0.28346568E+04</rscale>
<asrwt>0</asrwt>
<pdfrwt beam="1">  1        2 0.47509959E+00 0.28346568E+04</pdfrwt>
<pdfrwt beam="2">  1       -2 0.10007592E+00 0.28346568E+04</pdfrwt>
<totfact> 0.10950694E+00</totfact>
</mgrwt>
</event>
<event>
12    1  0.1106125E-012  0.3479682E+04  0.7818608E-02  0.8118622E-01
         -2   -1    0    0    0  501 -0.00000000000E+00  0.00000000000E+00  0.11150968227E+04  0.11150968227E+04  0.00000000000E+00 0.  1.
          2   -1    0    0  501    0  0.00000000000E+00 -0.00000000000E+00 -0.27146050241E+04  0.27146050241E+04  0.00000000000E+00 0. -1.
    9900016    2    1    2    0    0  0.48514750700E+02 -0.26313847000E+03 -0.11986684568E+03  0.21612971836E+04  0.21413177998E+04 0.  0.
        -24    2    3    3    0    0 -0.79752034440E+03 -0.23048017263E+03 -0.46212322175E+03  0.95353880964E+03  0.80737721808E+02 0.  0.
         23    2    3    3    0    0 -0.65275228941E+02  0.18462687801E+03  0.11377921284E+03  0.24344454109E+03  0.89283793138E+02 0.  0.
        -15    1    3    3    0    0  0.91131032404E+03 -0.21728517538E+03  0.22847716322E+03  0.96431383286E+03  0.00000000000E+00 0.  1.
        -15    1    5    5    0    0 -0.36649306046E+02  0.16930374377E+02  0.43586484598E+02  0.59410359785E+02  0.00000000000E+00 0. -1.
         15    1    5    5    0    0 -0.28625922895E+02  0.16769650363E+03  0.70192728246E+02  0.18403418131E+03  0.00000000000E+00 0.  1.
         15    1    4    4    0    0 -0.10816066013E+03 -0.48586784148E+02 -0.93029015687E+02  0.15071098750E+03  0.00000000000E+00 0. -1.
        -16    1    4    4    0    0 -0.68935968426E+03 -0.18189338848E+03 -0.36909420606E+03  0.80282782214E+03  0.00000000000E+00 0.  1.
         16    1    1    2    0    0 -0.10665057984E+03  0.25823952326E+03 -0.15254731550E+04  0.15508482660E+04  0.00000000000E+00 0. -1.
    9900018    1    1    2    0    0  0.58135829144E+02  0.48989467336E+01  0.45831799244E+02  0.11755639721E+03  0.91187600000E+02 0.  0.
<mgrwt>
<rscale>  0 0.34796824E+04</rscale>
<asrwt>0</asrwt>
<pdfrwt beam="1">  1        2 0.41763154E+00 0.34796824E+04</pdfrwt>
<pdfrwt beam="2">  1       -2 0.17155336E+00 0.34796824E+04</pdfrwt>
<totfact> 0.44498883E-01</totfact>
</mgrwt>
</event>
<event>
12    1  0.1106125E-012  0.2916091E+04  0.7818608E-02  0.8268106E-01
         -2   -1    0    0    0  501 -0.00000000000E+00  0.00000000000E+00  0.16749573712E+04  0.16749573712E+04  0.00000000000E+00 0.  1.
          2   -1    0    0  501    0  0.00000000000E+00 -0.00000000000E+00 -0.12692241765E+04  0.12692241765E+04  0.00000000000E+00 0. -1.
    9900016    2    1    2    0    0  0.12561896625E+03 -0.24466821721E+03 -0.18975577079E+03  0.21769003052E+04  0.21511032111E+04 0.  0.
         24    2    3    3    0    0  0.49687269479E+03  0.80826004137E+03 -0.59302600294E+02  0.95399832615E+03  0.80182532968E+02 0.  0.
         23    2    3    3    0    0 -0.80189273216E+01 -0.30695990376E+02 -0.99625341733E+02  0.13761460420E+03  0.89476385453E+02 0.  0.
        -15    1    5    5    0    0  0.29469014982E+02  0.17113031868E+02 -0.32755043849E+02  0.47267024460E+02  0.00000000000E+00 0. -1.
        -15    1    4    4    0    0  0.21614427889E+03  0.42675405603E+03 -0.37443193345E+02  0.47983264412E+03  0.00000000000E+00 0.  1.
         15    1    3    3    0    0 -0.36323480122E+03 -0.10222322682E+04 -0.30827828765E+02  0.10852873748E+04  0.00000000000E+00 0. -1.
         15    1    5    5    0    0 -0.37487942304E+02 -0.47809022245E+02 -0.66870297884E+02  0.90347579742E+02  0.00000000000E+00 0.  1.
        -16    1    1    2    0    0 -0.10375826484E+03  0.23000330723E+03  0.61989611583E+03  0.66928207303E+03  0.00000000000E+00 0.  1.
         16    1    4    4    0    0  0.28072841590E+03  0.38150598534E+03 -0.21859406949E+02  0.47416568203E+03  0.00000000000E+00 0. -1.
    9900018    1    1    2    0    0 -0.21860701411E+02  0.14664909978E+02 -0.24407150297E+02  0.97999169538E+02  0.91187600000E+02 0.  0.
<mgrwt>
<rscale>  0 0.29160908E+04</rscale>
<asrwt>0</asrwt>
<pdfrwt beam="1">  1        2 0.19526526E+00 0.29160908E+04</pdfrwt>
<pdfrwt beam="2">  1       -2 0.25768575E+00 0.29160908E+04</pdfrwt>
<totfact> 0.85617188E-01</totfact>
</mgrwt>
</event>
<event>
12    1  0.1106125E-012  0.2489143E+04  0.7818608E-02  0.8406864E-01
          2   -1    0    0  501    0  0.00000000000E+00  0.00000000000E+00  0.27277422772E+04  0.27277422772E+04  0.00000000000E+00 0. -1.
         -2   -1    0    0    0  501 -0.00000000000E+00 -0.00000000000E+00 -0.56785358294E+03  0.56785358294E+03  0.00000000000E+00 0.  1.
    9900016    2    1    2    0    0 -0.12037551657E+03 -0.13712138347E+03  0.17601518822E+04  0.28561848251E+04  0.22419555232E+04 0.  0.
        -24    2    3    3    0    0  0.19580161277E+03 -0.67566824930E+03  0.47510804152E+03  0.85247812784E+03  0.78265271020E+02 0.  0.
         23    2    3    3    0    0  0.17774613791E+03 -0.20324928585E+03  0.91133646360E+03  0.95479303938E+03  0.90507659493E+02 0.  0.
        -15    1    5    5    0    0  0.26780526761E+02 -0.55286063719E+02  0.34216599856E+03  0.34763675874E+03  0.00000000000E+00 0. -1.
        -15    1    3    3    0    0 -0.50393571671E+03  0.73074504811E+03  0.33629896692E+03  0.94922943858E+03  0.00000000000E+00 0.  1.
         15    1    5    5    0    0  0.15096561115E+03 -0.14796322213E+03  0.56917046503E+03  0.60715628064E+03  0.00000000000E+00 0.  1.
         15    1    4    4    0    0  0.14417120948E+03 -0.36213151802E+03  0.24993765375E+03  0.46302635427E+03  0.00000000000E+00 0. -1.
        -16    1    4    4    0    0  0.51630403286E+02 -0.31353673128E+03  0.22517038777E+03  0.38945177356E+03  0.00000000000E+00 0.  1.
         16    1    1    2    0    0  0.12037551657E+03  0.13712138347E+03  0.39973681204E+03  0.43941103501E+03  0.00000000000E+00 0. -1.
    9900018    1    3    3    0    0  0.10012449454E+02  0.11051103559E+02  0.37408410157E+02  0.99684219303E+02  0.91187600000E+02 0.  0.
<mgrwt>
<rscale>  0 0.24891430E+04</rscale>
<asrwt>0</asrwt>
<pdfrwt beam="1">  1        2 0.41965265E+00 0.24891430E+04</pdfrwt>
<pdfrwt beam="2">  1       -2 0.87362091E-01 0.24891430E+04</pdfrwt>
<totfact> 0.25820507E+00</totfact>
</mgrwt>
</event>
<event>
12    1  0.1106125E-012  0.3793581E+04  0.7818608E-02  0.8047534E-01
          1   -1    0    0  501    0  0.00000000000E+00  0.00000000000E+00  0.24092758041E+04  0.24092758041E+04  0.00000000000E+00 0. -1.
         -1   -1    0    0    0  501 -0.00000000000E+00 -0.00000000000E+00 -0.14933176477E+04  0.14933176477E+04  0.00000000000E+00 0.  1.
    9900016    2    1    2    0    0 -0.98649799776E+03 -0.47195116240E+03  0.11969973046E+04  0.27734791077E+04  0.22502150152E+04 0.  0.
         24    2    3    3    0    0 -0.10417260355E+04 -0.48612651227E+03  0.50680158789E+03  0.12585925851E+04  0.75467389816E+02 0.  0.
         23    2    3    3    0    0 -0.34658656459E+03 -0.89112463171E+02  0.77930443802E+03  0.86238172291E+03  0.91233497382E+02 0.  0.
        -15    1    4    4    0    0 -0.73767197673E+03 -0.32096550773E+03  0.32412287046E+03  0.86731449749E+03  0.00000000000E+00 0.  1.
        -15    1    5    5    0    0 -0.14375414148E+03 -0.17040043196E+02  0.41147522974E+03  0.43619660815E+03  0.00000000000E+00 0.  1.
         15    1    5    5    0    0 -0.20283242311E+03 -0.72072419975E+02  0.36782920827E+03  0.42618511476E+03  0.00000000000E+00 0. -1.
         15    1    3    3    0    0  0.43658028126E+03  0.12630768960E+03 -0.20558115762E+03  0.49881819013E+03  0.00000000000E+00 0. -1.
        -16    1    1    2    0    0  0.98649799776E+03  0.47195116240E+03 -0.28103914819E+03  0.11291143441E+04  0.00000000000E+00 0.  1.
         16    1    4    4    0    0 -0.30405405875E+03 -0.16516100454E+03  0.18267871743E+03  0.39127808764E+03  0.00000000000E+00 0. -1.
    9900018    1    3    3    0    0 -0.34765678945E+02 -0.23019876554E+02  0.11647243629E+03  0.15368660956E+03  0.91187600000E+02 0.  0.
<mgrwt>
<rscale>  0 0.37935809E+04</rscale>
<asrwt>0</asrwt>
<pdfrwt beam="1">  1        1 0.37065782E+00 0.37935809E+04</pdfrwt>
<pdfrwt beam="2">  1       -1 0.22974118E+00 0.37935809E+04</pdfrwt>
<totfact> 0.11810566E-01</totfact>
</mgrwt>
</event>
<event>
12    1  0.1106125E-012  0.3073837E+04  0.7818608E-02  0.8222955E-01
          2   -1    0    0  501    0  0.00000000000E+00  0.00000000000E+00  0.37346808177E+04  0.37346808177E+04  0.00000000000E+00 0.  1.
         -2   -1    0    0    0  501 -0.00000000000E+00 -0.00000000000E+00 -0.63248209247E+03  0.63248209247E+03  0.00000000000E+00 0. -1.
    9900016    2    1    2    0    0  0.40814221508E+03  0.45851396372E+03  0.27278097866E+04  0.35253251861E+04  0.21471274563E+04 0.  0.
        -24    2    3    3    0    0  0.11045935491E+03  0.90520810303E+03  0.23649912339E+04  0.25360518175E+04  0.82294017706E+02 0.  0.
         23    2    3    3    0    0 -0.69889655720E+02 -0.37734036543E+03  0.45611829558E+03  0.60375509099E+03  0.95947876364E+02 0.  0.
        -15    1    3    3    0    0  0.36757251589E+03 -0.69353773886E+02 -0.93299742929E+02  0.38551827767E+03  0.00000000000E+00 0.  1.
        -15    1    5    5    0    0  0.70498848012E+01 -0.22251028847E+03  0.25169697500E+03  0.33602365478E+03  0.00000000000E+00 0. -1.
         15    1    4    4    0    0  0.11988793401E+03  0.70027414817E+03  0.18290018720E+04  0.19621429222E+04  0.00000000000E+00 0. -1.
         15    1    5    5    0    0 -0.76939540521E+02 -0.15483007696E+03  0.20442132058E+03  0.26773143621E+03  0.00000000000E+00 0.  1.
        -16    1    4    4    0    0 -0.94285790972E+01  0.20493395486E+03  0.53598936198E+03  0.57390889531E+03  0.00000000000E+00 0.  1.
         16    1    1    2    0    0 -0.45526503065E+03 -0.43141001028E+03  0.24230519569E+03  0.67237835551E+03  0.00000000000E+00 0. -1.
    9900018    1    1    2    0    0  0.47122815564E+02 -0.27103953441E+02  0.13208374300E+03  0.16945936857E+03  0.91187600000E+02 0.  0.
<mgrwt>
<rscale>  0 0.30738372E+04</rscale>
<asrwt>0</asrwt>
<pdfrwt beam="1">  1        2 0.57456627E+00 0.30738372E+04</pdfrwt>
<pdfrwt beam="2">  1       -2 0.97304939E-01 0.30738372E+04</pdfrwt>
<totfact> 0.41192671E-01</totfact>
</mgrwt>
</event>
<event>
12    1  0.1106125E-012  0.3177109E+04  0.7818608E-02  0.8194889E-01
          4   -1    0    0  501    0  0.00000000000E+00  0.00000000000E+00  0.15123447163E+04  0.15123447163E+04  0.00000000000E+00 0. -1.
         -4   -1    0    0    0  501 -0.00000000000E+00 -0.00000000000E+00 -0.16686045421E+04  0.16686045421E+04  0.00000000000E+00 0.  1.
    9900016    2    1    2    0    0 -0.30838897532E+03 -0.31750151782E+03 -0.71203501953E+03  0.23162117041E+04  0.21591507162E+04 0.  0.
        -24    2    3    3    0    0 -0.32477188797E+02 -0.86394367824E+03  0.43707648808E+03  0.97260424577E+03  0.86427515815E+02 0.  0.
         23    2    3    3    0    0  0.42458645387E+02  0.74011717562E+02 -0.22772147634E+03  0.26032086423E+03  0.92894621290E+02 0.  0.
        -15    1    5    5    0    0  0.61704755285E+02  0.68692213479E+02 -0.12349154462E+03  0.15419552072E+03  0.00000000000E+00 0. -1.
        -15    1    3    3    0    0 -0.31837043191E+03  0.47243044286E+03 -0.92139003128E+03  0.10832865941E+04  0.00000000000E+00 0.  1.
         15    1    5    5    0    0 -0.19246109897E+02  0.53195040831E+01 -0.10422993172E+03  0.10612534351E+03  0.00000000000E+00 0.  1.
         15    1    4    4    0    0 -0.48748471755E+02 -0.27021811831E+03  0.15078997973E+03  0.31326005642E+03  0.00000000000E+00 0. -1.
        -16    1    4    4    0    0  0.16271282958E+02 -0.59372555993E+03  0.28628650835E+03  0.65934418935E+03  0.00000000000E+00 0.  1.
         16    1    1    2    0    0  0.28817501385E+03  0.33584161572E+03  0.61120462368E+03  0.75458963779E+03  0.00000000000E+00 0. -1.
    9900018    1    1    2    0    0  0.20213961476E+02 -0.18340097891E+02 -0.55429429953E+02  0.11014791658E+03  0.91187600000E+02 0.  0.
<mgrwt>
<rscale>  0 0.31771089E+04</rscale>
<asrwt>0</asrwt>
<pdfrwt beam="1">  1        4 0.23266842E+00 0.31771089E+04</pdfrwt>
<pdfrwt beam="2">  1       -4 0.25670839E+00 0.31771089E+04</pdfrwt>
<totfact> 0.77691630E-03</totfact>
</mgrwt>
</event>
<event>
12    1  0.1106125E-012  0.3135406E+04  0.7818608E-02  0.8206088E-01
         -2   -1    0    0    0  501 -0.00000000000E+00  0.00000000000E+00  0.20418460186E+04  0.20418460186E+04  0.00000000000E+00 0. -1.
          2   -1    0    0  501    0  0.00000000000E+00 -0.00000000000E+00 -0.12036619252E+04  0.12036619252E+04  0.00000000000E+00 0.  1.
    9900016    2    1    2    0    0 -0.98243467601E+02 -0.24286503348E+03 -0.11254847333E+03  0.22593397955E+04  0.22412750722E+04 0.  0.
        -24    2    3    3    0    0  0.73632373056E+03  0.15445284275E+03 -0.20245302620E+03  0.78343629517E+03  0.82200267297E+02 0.  0.
         23    2    3    3    0    0  0.13347401422E+03 -0.31089776617E+03  0.20521612025E+03  0.40562965095E+03  0.89157300551E+02 0.  0.
        -15    1    3    3    0    0 -0.95670147039E+03 -0.33149729597E+02 -0.93384976094E+02  0.96181981773E+03  0.00000000000E+00 0.  1.
        -15    1    5    5    0    0  0.43845071525E+02 -0.21096311922E+03  0.13269890461E+03  0.25305498859E+03  0.00000000000E+00 0.  1.
         15    1    5    5    0    0  0.89628942698E+02 -0.99934646948E+02  0.72517215635E+02  0.15257466236E+03  0.00000000000E+00 0. -1.
         15    1    4    4    0    0  0.67063954253E+03  0.13883349831E+03 -0.15877269847E+03  0.70302269241E+03  0.00000000000E+00 0. -1.
        -16    1    4    4    0    0  0.65684188033E+02  0.15619344435E+02 -0.43680327733E+02  0.80413602761E+02  0.00000000000E+00 0.  1.
         16    1    1    2    0    0  0.98243467601E+02  0.24286503348E+03  0.95073256669E+03  0.98616814833E+03  0.00000000000E+00 0. -1.
    9900018    1    3    3    0    0 -0.11339742000E+02 -0.53270380463E+02 -0.21926591285E+02  0.10845403166E+03  0.91187600000E+02 0.  0.
<mgrwt>
<rscale>  0 0.31354058E+04</rscale>
<asrwt>0</asrwt>
<pdfrwt beam="1">  1        2 0.18517876E+00 0.31354058E+04</pdfrwt>
<pdfrwt beam="2">  1       -2 0.31413016E+00 0.31354058E+04</pdfrwt>
<totfact> 0.41515098E-01</totfact>
</mgrwt>
</event>
<event>
12    1  0.1106125E-012  0.3105448E+04  0.7818608E-02  0.8214244E-01
          1   -1    0    0  501    0  0.00000000000E+00  0.00000000000E+00  0.28005809950E+04  0.28005809950E+04  0.00000000000E+00 0. -1.
         -1   -1    0    0    0  501 -0.00000000000E+00 -0.00000000000E+00 -0.86087554544E+03  0.86087554544E+03  0.00000000000E+00 0.  1.
    9900016    2    1    2    0    0  0.38873078050E+03 -0.61191955853E+03  0.13746223866E+04  0.26477154707E+04  0.21436542031E+04 0.  0.
         24    2    3    3    0    0  0.30709861510E+03  0.30938446798E+03 -0.26270757195E+03  0.51519057459E+03  0.79860824924E+02 0.  0.
         23    2    3    3    0    0 -0.26568573800E+03  0.39764742148E+02  0.66127597688E+03  0.71938503072E+03  0.89770589466E+02 0.  0.
        -15    1    4    4    0    0  0.21746324272E+03  0.16503316823E+03 -0.17055452118E+03  0.32189292202E+03  0.00000000000E+00 0.  1.
        -15    1    5    5    0    0 -0.87133324377E+02 -0.13308617571E+02  0.13606876090E+03  0.16212354305E+03  0.00000000000E+00 0. -1.
         15    1    3    3    0    0  0.34731790340E+03 -0.96106876866E+03  0.97605398162E+03  0.14131398654E+04  0.00000000000E+00 0. -1.
         15    1    5    5    0    0 -0.17855241362E+03  0.53073359719E+02  0.52520721599E+03  0.55726148767E+03  0.00000000000E+00 0.  1.
        -16    1    1    2    0    0 -0.38006509239E+03  0.62315907768E+03  0.42096574960E+03  0.84260837456E+03  0.00000000000E+00 0.  1.
         16    1    4    4    0    0  0.89635372385E+02  0.14435129976E+03 -0.92153050763E+02  0.19329765257E+03  0.00000000000E+00 0. -1.
    9900018    1    1    2    0    0 -0.86656881110E+01 -0.11239519145E+02  0.14411731339E+03  0.17113269517E+03  0.91187600000E+02 0.  0.
<mgrwt>
<rscale>  0 0.31054479E+04</rscale>
<asrwt>0</asrwt>
<pdfrwt beam="1">  1        1 0.43085861E+00 0.31054479E+04</pdfrwt>
<pdfrwt beam="2">  1       -1 0.13244239E+00 0.31054479E+04</pdfrwt>
<totfact> 0.33948231E-01</totfact>
</mgrwt>
</event>
<event>
12    1  0.1106125E-012  0.2934568E+04  0.7818608E-02  0.8262666E-01
         -2   -1    0    0    0  501 -0.00000000000E+00  0.00000000000E+00  0.84559869812E+03  0.84559869812E+03  0.00000000000E+00 0.  1.
          2   -1    0    0  501    0  0.00000000000E+00 -0.00000000000E+00 -0.25460335834E+04  0.25460335834E+04  0.00000000000E+00 0. -1.
    9900016    2    1    2    0    0 -0.18414926288E+02 -0.37609936234E+03 -0.19075976496E+04  0.29618576303E+04  0.22342519977E+04 0.  0.
         24    2    3    3    0    0 -0.54329138252E+03 -0.20780847725E+03  0.27853690049E+03  0.64991675463E+03  0.80368485650E+02 0.  0.
         23    2    3    3    0    0  0.18344313469E+03  0.83766493245E+01 -0.60832133641E+03  0.64238711452E+03  0.94259241697E+02 0.  0.
        -15    1    5    5    0    0  0.26096615344E+02 -0.28055761994E+02 -0.19301004305E+03  0.19677661404E+03  0.00000000000E+00 0. -1.
        -15    1    4    4    0    0 -0.19357200764E+03 -0.11523554121E+03  0.11437418198E+03  0.25264759172E+03  0.00000000000E+00 0.  1.
         15    1    3    3    0    0  0.35097492005E+03 -0.13770704560E+03 -0.14893337129E+04  0.15363142691E+04  0.00000000000E+00 0. -1.
         15    1    5    5    0    0  0.15734651935E+03  0.36432411319E+02 -0.41531129336E+03  0.44561050048E+03  0.00000000000E+00 0.  1.
        -16    1    1    2    0    0  0.18414926288E+02  0.37609936234E+03  0.20716276438E+03  0.42977465120E+03  0.00000000000E+00 0.  1.
         16    1    4    4    0    0 -0.34971937488E+03 -0.92572936041E+02  0.16416271851E+03  0.39726916292E+03  0.00000000000E+00 0. -1.
    9900018    1    3    3    0    0 -0.95415985108E+01 -0.38960488814E+02 -0.88479500770E+02  0.13323949205E+03  0.91187600000E+02 0.  0.
<mgrwt>
<rscale>  0 0.29345682E+04</rscale>
<asrwt>0</asrwt>
<pdfrwt beam="1">  1        2 0.39169747E+00 0.29345682E+04</pdfrwt>
<pdfrwt beam="2">  1       -2 0.13009211E+00 0.29345682E+04</pdfrwt>
<totfact> 0.12208171E+00</totfact>
</mgrwt>
</event>
<event>
12    1  0.1106125E-012  0.2379695E+04  0.7818608E-02  0.8447145E-01
         -2   -1    0    0    0  501 -0.00000000000E+00  0.00000000000E+00  0.73219841225E+03  0.73219841225E+03  0.00000000000E+00 0.  1.
          2   -1    0    0  501    0  0.00000000000E+00 -0.00000000000E+00 -0.19335430185E+04  0.19335430185E+04  0.00000000000E+00 0. -1.
    9900016    2    1    2    0    0 -0.71226752217E+02 -0.10877403165E+03 -0.11222417451E+04  0.25135497659E+04  0.22453509417E+04 0.  0.
        -24    2    3    3    0    0  0.89793701797E+02  0.85189727458E+03 -0.34856121365E+03  0.92844003272E+03  0.81939608181E+02 0.  0.
         23    2    3    3    0    0 -0.26825068500E+03 -0.42076366825E+02  0.97461065406E+01  0.28713626709E+03  0.92862256258E+02 0.  0.
        -15    1    3    3    0    0  0.63506158633E+02 -0.92427038818E+03 -0.74783062441E+03  0.11906130461E+04  0.00000000000E+00 0.  1.
        -15    1    5    5    0    0 -0.26936443360E+02 -0.30916531504E+02  0.19418619345E+02  0.45370548579E+02  0.00000000000E+00 0.  1.
         15    1    5    5    0    0 -0.24131424164E+03 -0.11159835321E+02 -0.96725128040E+01  0.24176571851E+03  0.00000000000E+00 0. -1.
         15    1    4    4    0    0  0.59955787696E+02  0.32610230883E+03 -0.16803995638E+03  0.37171876365E+03  0.00000000000E+00 0. -1.
        -16    1    4    4    0    0  0.29837914101E+02  0.52579496574E+03 -0.18052125727E+03  0.55672126908E+03  0.00000000000E+00 0.  1.
         16    1    1    2    0    0  0.71226752217E+02  0.10877403165E+03 -0.79102861230E+02  0.15219166484E+03  0.00000000000E+00 0. -1.
    9900018    1    3    3    0    0  0.43724072358E+02  0.56754487802E+01 -0.35596013539E+02  0.10736042006E+03  0.91187600000E+02 0.  0.
<mgrwt>
<rscale>  0 0.23796950E+04</rscale>
<asrwt>0</asrwt>
<pdfrwt beam="1">  1        2 0.29746815E+00 0.23796950E+04</pdfrwt>
<pdfrwt beam="2">  1       -2 0.11264591E+00 0.23796950E+04</pdfrwt>
<totfact> 0.40635535E+00</totfact>
</mgrwt>
</event>
<event>
12    1  0.1106125E-012  0.4088896E+04  0.7818608E-02  0.7986850E-01
         -2   -1    0    0    0  501 -0.00000000000E+00  0.00000000000E+00  0.24347958904E+04  0.24347958904E+04  0.00000000000E+00 0.  1.
          2   -1    0    0  501    0  0.00000000000E+00 -0.00000000000E+00 -0.17166810057E+04  0.17166810057E+04  0.00000000000E+00 0. -1.
    9900016    2    1    2    0    0  0.67197006811E+03  0.18093614393E+03 -0.79730828120E+03  0.24839070977E+04  0.22471787455E+04 0.  0.
         24    2    3    3    0    0  0.82457677714E+03 -0.57476082666E+03  0.15077145806E+02  0.10085211986E+04  0.81306939783E+02 0.  0.
         23    2    3    3    0    0 -0.25829795984E+02  0.23557862700E+02  0.16021013765E+03  0.19180006334E+03  0.99487812490E+02 0.  0.
        -15    1    5    5    0    0  0.40757596524E+01 -0.37315452421E+02  0.60941572782E+02  0.71574647043E+02  0.00000000000E+00 0. -1.
        -15    1    4    4    0    0  0.77444940366E+03 -0.52676568129E+03  0.31715131966E+02  0.93715516933E+03  0.00000000000E+00 0.  1.
         15    1    5    5    0    0 -0.29905555636E+02  0.60873315121E+02  0.99268564869E+02  0.12022541629E+03  0.00000000000E+00 0.  1.
         15    1    3    3    0    0 -0.11784979864E+03  0.68987487153E+03 -0.95037528055E+03  0.11802665323E+04  0.00000000000E+00 0. -1.
        -16    1    1    2    0    0 -0.67197006811E+03 -0.18093614393E+03  0.15154231659E+04  0.16675697984E+04  0.00000000000E+00 0.  1.
         16    1    4    4    0    0  0.50127373486E+02 -0.47995145371E+02 -0.16637986160E+02  0.71366029280E+02  0.00000000000E+00 0. -1.
    9900018    1    3    3    0    0 -0.89271144075E+01  0.42264236364E+02 -0.22220284107E+02  0.10331930346E+03  0.91187600000E+02 0.  0.
<mgrwt>
<rscale>  0 0.40888961E+04</rscale>
<asrwt>0</asrwt>
<pdfrwt beam="1">  1        2 0.26410477E+00 0.40888961E+04</pdfrwt>
<pdfrwt beam="2">  1       -2 0.37458398E+00 0.40888961E+04</pdfrwt>
<totfact> 0.81549698E-02</totfact>
</mgrwt>
</event>
<event>
12    1  0.1106125E-012  0.3291205E+04  0.7818608E-02  0.8165137E-01
         -2   -1    0    0    0  501 -0.00000000000E+00  0.00000000000E+00  0.13160822431E+04  0.13160822431E+04  0.00000000000E+00 0.  1.
          2   -1    0    0  501    0  0.00000000000E+00 -0.00000000000E+00 -0.20576276938E+04  0.20576276938E+04  0.00000000000E+00 0. -1.
    9900016    2    1    2    0    0 -0.20962173404E+03 -0.76729287440E+03 -0.62864283039E+03  0.23796663170E+04  0.21528911597E+04 0.  0.
         24    2    3    3    0    0  0.21075702754E+02 -0.71043673379E+03  0.46508688836E+03  0.85326295941E+03  0.81162344771E+02 0.  0.
         23    2    3    3    0    0  0.21042630945E+03 -0.16546776160E+03  0.57401021035E+02  0.28887007567E+03  0.92153304667E+02 0.  0.
        -15    1    4    4    0    0 -0.19462689879E+02 -0.20337394445E+03  0.16542739228E+03  0.26288016223E+03  0.00000000000E+00 0.  1.
        -15    1    5    5    0    0  0.13303287206E+03 -0.13584823452E+03  0.37963025501E+01  0.19017597058E+03  0.00000000000E+00 0. -1.
         15    1    5    5    0    0  0.77393437396E+02 -0.29619527076E+02  0.53604718485E+02  0.98694105092E+02  0.00000000000E+00 0.  1.
         15    1    3    3    0    0 -0.44112374625E+03  0.10861162099E+03 -0.11511307398E+04  0.12375332819E+04  0.00000000000E+00 0. -1.
        -16    1    1    2    0    0  0.19343809165E+03  0.83948072496E+03 -0.55298247471E+02  0.86325203681E+03  0.00000000000E+00 0.  1.
         16    1    4    4    0    0  0.40538392632E+02 -0.50706278934E+03  0.29965949608E+03  0.59038279718E+03  0.00000000000E+00 0. -1.
    9900018    1    1    2    0    0  0.16183642393E+02 -0.72187850560E+02 -0.57604372900E+02  0.13079158314E+03  0.91187600000E+02 0.  0.
<mgrwt>
<rscale>  0 0.32912048E+04</rscale>
<asrwt>0</asrwt>
<pdfrwt beam="1">  1        2 0.31655810E+00 0.32912048E+04</pdfrwt>
<pdfrwt beam="2">  1       -2 0.20247419E+00 0.32912048E+04</pdfrwt>
<totfact> 0.66452124E-01</totfact>
</mgrwt>
</event>
<event>
12    1  0.1106125E-012  0.3158126E+04  0.7818608E-02  0.8199964E-01
          2   -1    0    0  501    0  0.00000000000E+00  0.00000000000E+00  0.13048865015E+04  0.13048865015E+04  0.00000000000E+00 0.  1.
         -2   -1    0    0    0  501 -0.00000000000E+00 -0.00000000000E+00 -0.19108476211E+04  0.19108476211E+04  0.00000000000E+00 0. -1.
    9900016    2    1    2    0    0 -0.20241531537E+03 -0.63860522573E+03 -0.17104022786E+03  0.22712426431E+04  0.21634462763E+04 0.  0.
         24    2    3    3    0    0  0.10193664777E+03 -0.63460986214E+03 -0.84807301196E+03  0.10671055382E+04  0.79784953230E+02 0.  0.
         23    2    3    3    0    0 -0.47320138757E+03  0.21511117861E+02 -0.23492004622E+02  0.48309918058E+03  0.91927485585E+02 0.  0.
        -15    1    4    4    0    0  0.65623918354E+02 -0.34547934893E+03 -0.39987194005E+03  0.53250356585E+03  0.00000000000E+00 0.  1.
        -15    1    5    5    0    0 -0.43162290116E+03  0.44136940438E+02 -0.10450740757E+02  0.43399955795E+03  0.00000000000E+00 0.  1.
         15    1    3    3    0    0  0.16884942444E+03 -0.25506481446E+02  0.70052478873E+03  0.72103792435E+03  0.00000000000E+00 0. -1.
         15    1    5    5    0    0 -0.41578486415E+02 -0.22625822577E+02 -0.13041263866E+02  0.49099622636E+02  0.00000000000E+00 0. -1.
        -16    1    1    2    0    0  0.23208891612E+03  0.68399219583E+03 -0.42471204961E+03  0.83790865494E+03  0.00000000000E+00 0.  1.
         16    1    4    4    0    0  0.36312729412E+02 -0.28913051321E+03 -0.44820107191E+03  0.53460197236E+03  0.00000000000E+00 0. -1.
    9900018    1    1    2    0    0 -0.29673600753E+02 -0.45386970105E+02 -0.10208842136E+02  0.10658282455E+03  0.91187600000E+02 0.  0.
<mgrwt>
<rscale>  0 0.31581256E+04</rscale>
<asrwt>0</asrwt>
<pdfrwt beam="1">  1        2 0.20075177E+00 0.31581256E+04</pdfrwt>
<pdfrwt beam="2">  1       -2 0.29397656E+00 0.31581256E+04</pdfrwt>
<totfact> 0.48008461E-01</totfact>
</mgrwt>
</event>
<event>
12    1  0.1106125E-012  0.2843406E+04  0.7818608E-02  0.8289918E-01
         -1   -1    0    0    0  501 -0.00000000000E+00  0.00000000000E+00  0.94373982905E+03  0.94373982905E+03  0.00000000000E+00 0.  1.
          1   -1    0    0  501    0  0.00000000000E+00 -0.00000000000E+00 -0.21417332361E+04  0.21417332361E+04  0.00000000000E+00 0. -1.
    9900016    2    1    2    0    0 -0.49202106056E+02 -0.25191530256E+03 -0.45528587303E+03  0.22095514348E+04  0.21468465595E+04 0.  0.
        -24    2    3    3    0    0  0.10011650603E+04 -0.23205240503E+03 -0.29335108579E+03  0.10717532661E+04  0.80127443840E+02 0.  0.
         23    2    3    3    0    0 -0.85067482464E+02 -0.17271982392E+02  0.70707383364E+02  0.14485679481E+03  0.91919306954E+02 0.  0.
        -15    1    3    3    0    0 -0.96529968385E+03 -0.25909151439E+01 -0.23264217061E+03  0.99294137391E+03  0.00000000000E+00 0.  1.
        -15    1    5    5    0    0 -0.57702154260E+02  0.34773499417E+02  0.33146615016E+02  0.75082840616E+02  0.00000000000E+00 0. -1.
         15    1    5    5    0    0 -0.27365328203E+02 -0.52045481809E+02  0.37560768348E+02  0.69773954190E+02  0.00000000000E+00 0.  1.
         15    1    4    4    0    0  0.99140963464E+03 -0.23776173961E+03 -0.29003754650E+03  0.10599742859E+04  0.00000000000E+00 0. -1.
        -16    1    4    4    0    0  0.97554256161E+01  0.57093345864E+01 -0.33135392851E+01  0.11778980133E+02  0.00000000000E+00 0.  1.
         16    1    1    2    0    0  0.65782854603E+02  0.21052049282E+03 -0.74234159944E+03  0.77441417350E+03  0.00000000000E+00 0. -1.
    9900018    1    1    2    0    0 -0.16580748547E+02  0.41394809746E+02 -0.36593458293E+00  0.10150745686E+03  0.91187600000E+02 0.  0.
<mgrwt>
<rscale>  0 0.28434057E+04</rscale>
<asrwt>0</asrwt>
<pdfrwt beam="1">  1        1 0.32949742E+00 0.28434057E+04</pdfrwt>
<pdfrwt beam="2">  1       -1 0.14519074E+00 0.28434057E+04</pdfrwt>
<totfact> 0.78380630E-01</totfact>
</mgrwt>
</event>
<event>
12    1  0.1106125E-012  0.3183824E+04  0.7818608E-02  0.8193102E-01
         -2   -1    0    0    0  501 -0.00000000000E+00  0.00000000000E+00  0.97635237608E+03  0.97635237608E+03  0.00000000000E+00 0.  1.
          2   -1    0    0  501    0  0.00000000000E+00 -0.00000000000E+00 -0.25955626493E+04  0.25955626493E+04  0.00000000000E+00 0. -1.
    9900016    2    1    2    0    0 -0.65109687540E+03  0.36755942458E+03 -0.94724719759E+03  0.24692899455E+04  0.21543185720E+04 0.  0.
         24    2    3    3    0    0 -0.11966352499E+04 -0.22436332332E+03 -0.60418404840E+03  0.13614049839E+04  0.78168687543E+02 0.  0.
         23    2    3    3    0    0  0.28012442556E+03 -0.69382461480E+02 -0.23814126998E+03  0.38762268638E+03  0.10127419600E+03 0.  0.
        -15    1    5    5    0    0  0.20217935263E+03 -0.69571507895E+02 -0.11744774613E+03  0.24394806499E+03  0.00000000000E+00 0. -1.
        -15    1    4    4    0    0 -0.70754626968E+03 -0.93577393135E+02 -0.35038915504E+03  0.79507924902E+03  0.00000000000E+00 0.  1.
         15    1    3    3    0    0  0.26541394898E+03  0.66130520938E+03 -0.10492187922E+03  0.72026227515E+03  0.00000000000E+00 0. -1.
         15    1    5    5    0    0  0.77945072922E+02  0.18904641491E+00 -0.12069352385E+03  0.14367462139E+03  0.00000000000E+00 0.  1.
        -16    1    1    2    0    0  0.69084401143E+03 -0.34488570687E+03 -0.59690826891E+03  0.97596674146E+03  0.00000000000E+00 0.  1.
         16    1    4    4    0    0 -0.48908898026E+03 -0.13078593018E+03 -0.25379489335E+03  0.56632573492E+03  0.00000000000E+00 0. -1.
    9900018    1    1    2    0    0 -0.39747136030E+02 -0.22673717707E+02 -0.75054806700E+02  0.12665833845E+03  0.91187600000E+02 0.  0.
<mgrwt>
<rscale>  0 0.31838240E+04</rscale>
<asrwt>0</asrwt>
<pdfrwt beam="1">  1        2 0.39931733E+00 0.31838240E+04</pdfrwt>
<pdfrwt beam="2">  1       -2 0.15020806E+00 0.31838240E+04</pdfrwt>
<totfact> 0.77039501E-01</totfact>
</mgrwt>
</event>
<event>
12    1  0.1460729E-012  0.3125083E+04  0.7818608E-02  0.8208888E-01
          1   -1    0    0  501    0  0.00000000000E+00  0.00000000000E+00  0.27768751374E+04  0.27768751374E+04  0.00000000000E+00 0. -1.
         -1   -1    0    0    0  501 -0.00000000000E+00 -0.00000000000E+00 -0.87923880099E+03  0.87923880099E+03  0.00000000000E+00 0.  1.
    9900016    2    1    2    0    0 -0.41561786357E+01  0.33227011861E+03  0.22259106400E+04  0.31890114615E+04  0.22593572579E+04 0.  0.
         24    2    3    3    0    0 -0.42082701715E+03 -0.79321848411E+03  0.92172224995E+03  0.12892385177E+04  0.79202951949E+02 0.  0.
         23    2    3    3    0    0 -0.25232043609E+02  0.33147694097E+03  0.49573594050E+03  0.60338917224E+03  0.88378459198E+02 0.  0.
        -15    1    4    4    0    0 -0.29900845225E+03 -0.49825009553E+03  0.62649489512E+03  0.85449111512E+03  0.00000000000E+00 0.  1.
        -15    1    5    5    0    0  0.26927699494E+02  0.16251805007E+03  0.20349573383E+03  0.26181621662E+03  0.00000000000E+00 0.  1.
         15    1    3    3    0    0  0.48345753210E+03  0.73300123793E+03  0.62188477525E+03  0.10759938075E+04  0.00000000000E+00 0. -1.
         15    1    5    5    0    0 -0.52159743103E+02  0.16895889091E+03  0.29224020667E+03  0.34157295562E+03  0.00000000000E+00 0. -1.
        -16    1    1    2    0    0  0.41561786357E+01 -0.33227011861E+03 -0.32827430358E+03  0.46710247691E+03  0.00000000000E+00 0.  1.
         16    1    4    4    0    0 -0.12181856490E+03 -0.29496838858E+03  0.29522735482E+03  0.43474740258E+03  0.00000000000E+00 0. -1.
    9900018    1    3    3    0    0 -0.41554649970E+02  0.61010423819E+02  0.18656767434E+03  0.22038996404E+03  0.91187600000E+02 0.  0.
<mgrwt>
<rscale>  0 0.31250833E+04</rscale>
<asrwt>0</asrwt>
<pdfrwt beam="1">  1        1 0.42721155E+00 0.31250833E+04</pdfrwt>
<pdfrwt beam="2">  1       -1 0.13526751E+00 0.31250833E+04</pdfrwt>
<totfact> 0.33384220E-01</totfact>
</mgrwt>
</event>
<event>
12    1  0.1106125E-012  0.2425534E+04  0.7818608E-02  0.8430005E-01
         -2   -1    0    0    0  501 -0.00000000000E+00  0.00000000000E+00  0.10955706241E+04  0.10955706241E+04  0.00000000000E+00 0.  1.
          2   -1    0    0  501    0  0.00000000000E+00 -0.00000000000E+00 -0.13425006787E+04  0.13425006787E+04  0.00000000000E+00 0. -1.
    9900016    2    1    2    0    0  0.60064520208E+02  0.72956110361E+02 -0.34679223383E+03  0.21931797138E+04  0.21635253784E+04 0.  0.
         24    2    3    3    0    0  0.25436950742E+02  0.74704950093E+03 -0.65322567324E+03  0.99578176430E+03  0.78406291972E+02 0.  0.
         23    2    3    3    0    0  0.94188493041E+02  0.22322782778E+03  0.75044371745E+02  0.26881097289E+03  0.89025536220E+02 0.  0.
        -15    1    5    5    0    0  0.65452763823E+02  0.14679261082E+03  0.92311326955E+02  0.18534701499E+03  0.00000000000E+00 0.  1.
        -15    1    4    4    0    0  0.41291419141E+02  0.20041670879E+03 -0.18493987714E+03  0.27581623704E+03  0.00000000000E+00 0.  1.
         15    1    5    5    0    0  0.28735729218E+02  0.76435216960E+02 -0.17266955210E+02  0.83463957895E+02  0.00000000000E+00 0. -1.
         15    1    3    3    0    0 -0.59560923575E+02 -0.89732121835E+03  0.23138906767E+03  0.92858697662E+03  0.00000000000E+00 0. -1.
        -16    1    1    2    0    0 -0.56241312840E+02 -0.79407996492E+02  0.11660893282E+03  0.15187612844E+03  0.00000000000E+00 0.  1.
         16    1    4    4    0    0 -0.15854468399E+02  0.54663279214E+03 -0.46828579610E+03  0.71996552726E+03  0.00000000000E+00 0. -1.
    9900018    1    1    2    0    0 -0.38232073683E+01  0.64518861312E+01 -0.16746753549E+02  0.93015460529E+02  0.91187600000E+02 0.  0.
<mgrwt>
<rscale>  0 0.24255344E+04</rscale>
<asrwt>0</asrwt>
<pdfrwt beam="1">  1        2 0.20653856E+00 0.24255344E+04</pdfrwt>
<pdfrwt beam="2">  1       -2 0.16854933E+00 0.24255344E+04</pdfrwt>
<totfact> 0.30592790E+00</totfact>
</mgrwt>
</event>
<event>
12    1  0.1106125E-012  0.2736186E+04  0.7818608E-02  0.8323359E-01
          2   -1    0    0  501    0  0.00000000000E+00  0.00000000000E+00  0.16150715230E+04  0.16150715230E+04  0.00000000000E+00 0. -1.
         -2   -1    0    0    0  501 -0.00000000000E+00 -0.00000000000E+00 -0.11588823861E+04  0.11588823861E+04  0.00000000000E+00 0.  1.
    9900016    2    1    2    0    0 -0.37259002961E+03 -0.24265625149E+02  0.21701473058E+03  0.22033491066E+04  0.21606109649E+04 0.  0.
        -24    2    3    3    0    0  0.48412126178E+03 -0.37932398439E+03  0.64887179389E+03  0.89764955191E+03  0.80498645350E+02 0.  0.
         23    2    3    3    0    0 -0.59944711260E+02 -0.22142848033E+03 -0.11460610772E+03  0.27234471331E+03  0.91723184815E+02 0.  0.
        -15    1    5    5    0    0 -0.56417488410E+02 -0.18939042016E+03 -0.55894505726E+02  0.20536762163E+03  0.00000000000E+00 0. -1.
        -15    1    3    3    0    0 -0.79676658014E+03  0.57648683956E+03 -0.31725095558E+03  0.10333548414E+04  0.00000000000E+00 0.  1.
         15    1    5    5    0    0 -0.35272228494E+01 -0.32038060173E+02 -0.58711601994E+02  0.66977091676E+02  0.00000000000E+00 0.  1.
         15    1    4    4    0    0  0.24020351569E+03 -0.15130858903E+03  0.33843135266E+03  0.44173272295E+03  0.00000000000E+00 0. -1.
        -16    1    4    4    0    0  0.24391774610E+03 -0.22801539536E+03  0.31044044123E+03  0.45591682896E+03  0.00000000000E+00 0.  1.
         16    1    1    2    0    0  0.40729482746E+03  0.45689308919E+02  0.23078635295E+03  0.47036042577E+03  0.00000000000E+00 0. -1.
    9900018    1    1    2    0    0 -0.34704797845E+02 -0.21423683769E+02  0.83880533838E+01  0.10024437667E+03  0.91187600000E+02 0.  0.
<mgrwt>
<rscale>  0 0.27361856E+04</rscale>
<asrwt>0</asrwt>
<pdfrwt beam="1">  1        2 0.24847254E+00 0.27361856E+04</pdfrwt>
<pdfrwt beam="2">  1       -2 0.17828960E+00 0.27361856E+04</pdfrwt>
<totfact> 0.17830710E+00</totfact>
</mgrwt>
</event>
<event>
12    1  0.1106125E-012  0.2880437E+04  0.7818608E-02  0.8278722E-01
         -2   -1    0    0    0  501 -0.00000000000E+00  0.00000000000E+00  0.70959174695E+03  0.70959174695E+03  0.00000000000E+00 0.  1.
          2   -1    0    0  501    0  0.00000000000E+00 -0.00000000000E+00 -0.29231302390E+04  0.29231302390E+04  0.00000000000E+00 0. -1.
    9900016    2    1    2    0    0  0.31354995387E+02 -0.53394905829E+03 -0.19878902526E+04  0.30522033725E+04  0.22534757683E+04 0.  0.
         24    2    3    3    0    0  0.47445968264E+03 -0.96710561670E+03 -0.40682549560E+03  0.11542901851E+04  0.80458580718E+02 0.  0.
         23    2    3    3    0    0  0.77227911329E+02 -0.14630488700E+02 -0.50586961944E+01  0.12044110918E+03  0.91116787066E+02 0.  0.
        -15    1    5    5    0    0  0.94725392636E+02 -0.26440334568E+02 -0.97107566190E+01  0.98824541974E+02  0.00000000000E+00 0. -1.
        -15    1    4    4    0    0  0.18321992260E+03 -0.29156329152E+03 -0.11886174382E+03  0.36428945517E+03  0.00000000000E+00 0.  1.
         15    1    3    3    0    0 -0.46384322165E+03  0.49833193396E+03 -0.14631057447E+04  0.16137421327E+04  0.00000000000E+00 0. -1.
         15    1    5    5    0    0 -0.17497481307E+02  0.11809845869E+02  0.46520604246E+01  0.21616567205E+02  0.00000000000E+00 0.  1.
        -16    1    1    2    0    0 -0.31354995387E+02  0.53394905829E+03 -0.22564823945E+03  0.58051861344E+03  0.00000000000E+00 0.  1.
         16    1    4    4    0    0  0.29123976004E+03 -0.67554232518E+03 -0.28796375178E+03  0.79000072992E+03  0.00000000000E+00 0. -1.
    9900018    1    3    3    0    0 -0.56489376928E+02 -0.50544886850E+02 -0.11290031609E+03  0.16372994552E+03  0.91187600000E+02 0.  0.
<mgrwt>
<rscale>  0 0.28804368E+04</rscale>
<asrwt>0</asrwt>
<pdfrwt beam="1">  1        2 0.44971234E+00 0.28804368E+04</pdfrwt>
<pdfrwt beam="2">  1       -2 0.10916796E+00 0.28804368E+04</pdfrwt>
<totfact> 0.11241201E+00</totfact>
</mgrwt>
</event>
<event>
12    1  0.1106125E-012  0.2547956E+04  0.7818608E-02  0.8386098E-01
          2   -1    0    0  501    0  0.00000000000E+00  0.00000000000E+00  0.19521313683E+04  0.19521313683E+04  0.00000000000E+00 0.  1.
         -2   -1    0    0    0  501 -0.00000000000E+00 -0.00000000000E+00 -0.83140886061E+03  0.83140886061E+03  0.00000000000E+00 0. -1.
    9900016    2    1    2    0    0  0.23761378317E+03  0.44724255742E+02  0.75626130100E+03  0.22968096005E+04  0.21552128936E+04 0.  0.
         24    2    3    3    0    0 -0.48501620840E+03 -0.29947358160E+03  0.29362468516E+03  0.64677645854E+03  0.84730060215E+02 0.  0.
         23    2    3    3    0    0 -0.15052996834E+03 -0.25142909410E+03  0.50649707557E+03  0.59215626023E+03  0.90740774962E+02 0.  0.
        -15    1    4    4    0    0 -0.43491555148E+03 -0.28332099476E+03  0.28860312487E+03  0.59389737050E+03  0.00000000000E+00 0.  1.
        -15    1    5    5    0    0 -0.15137738050E+03 -0.20991048095E+03  0.38622180931E+03  0.46491376332E+03  0.00000000000E+00 0. -1.
         15    1    5    5    0    0  0.84741216583E+00 -0.41518613155E+02  0.12027526626E+03  0.12724249691E+03  0.00000000000E+00 0.  1.
         15    1    3    3    0    0  0.87315995990E+03  0.59562693145E+03 -0.43860459723E+02  0.10578768818E+04  0.00000000000E+00 0. -1.
        -16    1    1    2    0    0 -0.20105547583E+03 -0.47208525195E+02  0.31511790158E+03  0.37676417174E+03  0.00000000000E+00 0.  1.
         16    1    4    4    0    0 -0.50100656912E+02 -0.16152586837E+02  0.50215602831E+01  0.52879088042E+02  0.00000000000E+00 0. -1.
    9900018    1    1    2    0    0 -0.36558307338E+02  0.24842694526E+01  0.49343305079E+02  0.10996645661E+03  0.91187600000E+02 0.  0.
<mgrwt>
<rscale>  0 0.25479555E+04</rscale>
<asrwt>0</asrwt>
<pdfrwt beam="1">  1        2 0.30032790E+00 0.25479555E+04</pdfrwt>
<pdfrwt beam="2">  1       -2 0.12790906E+00 0.25479555E+04</pdfrwt>
<totfact> 0.28556004E+00</totfact>
</mgrwt>
</event>
<event>
12    1  0.1106125E-012  0.2852523E+04  0.7818608E-02  0.8287145E-01
          1   -1    0    0  501    0  0.00000000000E+00  0.00000000000E+00  0.17487412279E+04  0.17487412279E+04  0.00000000000E+00 0. -1.
         -1   -1    0    0    0  501 -0.00000000000E+00 -0.00000000000E+00 -0.11632491498E+04  0.11632491498E+04  0.00000000000E+00 0.  1.
    9900016    2    1    2    0    0  0.42015999213E+03  0.16293782975E+03  0.78357449741E+03  0.24197304868E+04  0.22445541830E+04 0.  0.
         24    2    3    3    0    0  0.42464449243E+03  0.75855940006E+03  0.71064450785E+03  0.11258053918E+04  0.81773194650E+02 0.  0.
         23    2    3    3    0    0  0.18045451662E+03 -0.38393813298E+03  0.46774311855E+03  0.63806627588E+03  0.91502048847E+02 0.  0.
        -15    1    4    4    0    0  0.93776210358E+01  0.35004284765E+02  0.13704877804E+02  0.38743559514E+02  0.00000000000E+00 0.  1.
        -15    1    5    5    0    0  0.61645466331E+02 -0.14379491894E+03  0.11060483074E+03  0.19160002822E+03  0.00000000000E+00 0.  1.
         15    1    5    5    0    0  0.11880905029E+03 -0.24014321404E+03  0.35713828780E+03  0.44646624766E+03  0.00000000000E+00 0. -1.
         15    1    3    3    0    0 -0.20452541332E+03 -0.17828648370E+03 -0.46226518459E+03  0.53600915649E+03  0.00000000000E+00 0. -1.
        -16    1    1    2    0    0 -0.42015999213E+03 -0.16293782975E+03 -0.19808241930E+03  0.49225989090E+03  0.00000000000E+00 0.  1.
         16    1    4    4    0    0  0.41526687139E+03  0.72355511530E+03  0.69693963005E+03  0.10870618323E+04  0.00000000000E+00 0. -1.
    9900018    1    3    3    0    0  0.19586396407E+02 -0.33396953637E+02  0.67452055599E+02  0.11984966264E+03  0.91187600000E+02 0.  0.
<mgrwt>
<rscale>  0 0.28525229E+04</rscale>
<asrwt>0</asrwt>
<pdfrwt beam="1">  1        1 0.26903711E+00 0.28525229E+04</pdfrwt>
<pdfrwt beam="2">  1       -1 0.17896141E+00 0.28525229E+04</pdfrwt>
<totfact> 0.80561759E-01</totfact>
</mgrwt>
</event>
<event>
12    1  0.1106125E-012  0.2741748E+04  0.7818608E-02  0.8321585E-01
          1   -1    0    0  501    0  0.00000000000E+00  0.00000000000E+00  0.18138011421E+04  0.18138011421E+04  0.00000000000E+00 0.  1.
         -1   -1    0    0    0  501 -0.00000000000E+00 -0.00000000000E+00 -0.10361087042E+04  0.10361087042E+04  0.00000000000E+00 0. -1.
    9900016    2    1    2    0    0 -0.17519594822E+03  0.41675392975E+03  0.62352814346E+03  0.23722655352E+04  0.22437644630E+04 0.  0.
        -24    2    3    3    0    0  0.46449304214E+03 -0.60262298427E+03 -0.10399085960E+03  0.77229322726E+03  0.81941946638E+02 0.  0.
         23    2    3    3    0    0 -0.17479980788E+03  0.45774257072E+03  0.59847792284E+03  0.77895703353E+03  0.92276768917E+02 0.  0.
        -15    1    5    5    0    0 -0.16370471764E+03  0.33179012976E+03  0.41303297131E+03  0.55450893606E+03  0.00000000000E+00 0.  1.
        -15    1    3    3    0    0 -0.46540733643E+03  0.54724261232E+03  0.11857571053E+03  0.72810621799E+03  0.00000000000E+00 0.  1.
         15    1    4    4    0    0  0.31547907201E+03 -0.40850591148E+03 -0.31675122108E+02  0.51711453079E+03  0.00000000000E+00 0. -1.
         15    1    5    5    0    0 -0.11095090244E+02  0.12595244096E+03  0.18544495153E+03  0.22444809748E+03  0.00000000000E+00 0. -1.
        -16    1    4    4    0    0  0.14901397013E+03 -0.19411707279E+03 -0.72315737496E+02  0.25517869647E+03  0.00000000000E+00 0.  1.
         16    1    1    2    0    0  0.17519594822E+03 -0.41675392975E+03  0.15416429453E+03  0.47764431112E+03  0.00000000000E+00 0. -1.
    9900018    1    3    3    0    0  0.51815394687E+00  0.14391730984E+02  0.10465369693E+02  0.92909056398E+02  0.91187600000E+02 0.  0.
<mgrwt>
<rscale>  0 0.27417477E+04</rscale>
<asrwt>0</asrwt>
<pdfrwt beam="1">  1        1 0.27904633E+00 0.27417477E+04</pdfrwt>
<pdfrwt beam="2">  1       -1 0.15940134E+00 0.27417477E+04</pdfrwt>
<totfact> 0.10243767E+00</totfact>
</mgrwt>
</event>
<event>
12    1  0.1106125E-012  0.2649423E+04  0.7818608E-02  0.8351604E-01
         -2   -1    0    0    0  501 -0.00000000000E+00  0.00000000000E+00  0.82495147062E+03  0.82495147062E+03  0.00000000000E+00 0.  1.
          2   -1    0    0  501    0  0.00000000000E+00 -0.00000000000E+00 -0.21272296103E+04  0.21272296103E+04  0.00000000000E+00 0. -1.
    9900016    2    1    2    0    0  0.10317138650E+03 -0.11417594731E+03 -0.14964445667E+04  0.27044290207E+04  0.22474228585E+04 0.  0.
         24    2    3    3    0    0 -0.22078891362E+03  0.82381445437E+03 -0.94884258657E+02  0.86172131233E+03  0.78374727819E+02 0.  0.
         23    2    3    3    0    0  0.79318683627E+02  0.24463367516E+01 -0.46865940363E+02  0.13292184228E+03  0.95782888100E+02 0.  0.
        -15    1    5    5    0    0 -0.11105284932E+02  0.19377170183E+02 -0.33059064269E+02  0.39896162824E+02  0.00000000000E+00 0.  1.
        -15    1    4    4    0    0 -0.11639611037E+03  0.31205938644E+03 -0.15422017806E+02  0.33341708685E+03  0.00000000000E+00 0.  1.
         15    1    3    3    0    0  0.23704884623E+03 -0.91180055147E+03 -0.12737865475E+04  0.15843309534E+04  0.00000000000E+00 0. -1.
         15    1    5    5    0    0  0.90423968559E+02 -0.16930833431E+02 -0.13806876094E+02  0.93025679455E+02  0.00000000000E+00 0. -1.
        -16    1    1    2    0    0 -0.10317138650E+03  0.11417594731E+03  0.19416642707E+03  0.24775206021E+03  0.00000000000E+00 0.  1.
         16    1    4    4    0    0 -0.10439280325E+03  0.51175506794E+03 -0.79462240852E+02  0.52830422547E+03  0.00000000000E+00 0. -1.
    9900018    1    3    3    0    0  0.75927702740E+01 -0.28636186963E+02 -0.80907820201E+02  0.12545491273E+03  0.91187600000E+02 0.  0.
<mgrwt>
<rscale>  0 0.26494235E+04</rscale>
<asrwt>0</asrwt>
<pdfrwt beam="1">  1        2 0.32726609E+00 0.26494235E+04</pdfrwt>
<pdfrwt beam="2">  1       -2 0.12691561E+00 0.26494235E+04</pdfrwt>
<totfact> 0.23063253E+00</totfact>
</mgrwt>
</event>
<event>
12    1  0.1106125E-012  0.3587131E+04  0.7818608E-02  0.8093446E-01
          2   -1    0    0  501    0  0.00000000000E+00  0.00000000000E+00  0.17854939345E+04  0.17854939345E+04  0.00000000000E+00 0. -1.
         -2   -1    0    0    0  501 -0.00000000000E+00 -0.00000000000E+00 -0.18016739050E+04  0.18016739050E+04  0.00000000000E+00 0.  1.
    9900016    2    1    2    0    0  0.32765452397E+03  0.55157250959E+03 -0.89050526549E+03  0.25027166225E+04  0.22492223421E+04 0.  0.
        -24    2    3    3    0    0  0.26023716273E+03  0.84450793805E+03  0.50228903642E+02  0.88867686708E+03  0.79414060550E+02 0.  0.
         23    2    3    3    0    0  0.35346910435E+03  0.25309918776E+03 -0.66709395623E+03  0.80177860512E+03  0.93994566890E+02 0.  0.
        -15    1    3    3    0    0 -0.26598802509E+03 -0.59978194933E+03 -0.22084200577E+03  0.69228549584E+03  0.00000000000E+00 0.  1.
        -15    1    5    5    0    0  0.12064342252E+03  0.13172293335E+03 -0.22112123714E+03  0.28425405552E+03  0.00000000000E+00 0.  1.
         15    1    4    4    0    0  0.19348693983E+02  0.18257228902E+02  0.10410471284E+01  0.26622962742E+02  0.00000000000E+00 0. -1.
         15    1    5    5    0    0  0.23282568183E+03  0.12137625441E+03 -0.44597271909E+03  0.51752454959E+03  0.00000000000E+00 0. -1.
        -16    1    4    4    0    0  0.24088846875E+03  0.82625070915E+03  0.49187856514E+02  0.86205390434E+03  0.00000000000E+00 0.  1.
         16    1    1    2    0    0 -0.32765452397E+03 -0.55157250959E+03  0.87432529504E+03  0.10844512170E+04  0.00000000000E+00 0. -1.
    9900018    1    3    3    0    0 -0.20063718025E+02  0.53747333111E+02 -0.52798207133E+02  0.11997565448E+03  0.91187600000E+02 0.  0.
<mgrwt>
<rscale>  0 0.35871313E+04</rscale>
<asrwt>0</asrwt>
<pdfrwt beam="1">  1        2 0.27469137E+00 0.35871313E+04</pdfrwt>
<pdfrwt beam="2">  1       -2 0.27718060E+00 0.35871313E+04</pdfrwt>
<totfact> 0.31423361E-01</totfact>
</mgrwt>
</event>
<event>
12    1  0.1106125E-012  0.2698889E+04  0.7818608E-02  0.8335366E-01
          2   -1    0    0  501    0  0.00000000000E+00  0.00000000000E+00  0.53464393084E+04  0.53464393084E+04  0.00000000000E+00 0. -1.
         -2   -1    0    0    0  501 -0.00000000000E+00 -0.00000000000E+00 -0.34060048735E+03  0.34060048735E+03  0.00000000000E+00 0.  1.
    9900016    2    1    2    0    0 -0.23865281567E+03 -0.21137892406E+02  0.49542525079E+04  0.54419620028E+04  0.22389574695E+04 0.  0.
         24    2    3    3    0    0  0.29002963254E+03  0.68316343032E+03  0.16259939123E+04  0.17891439928E+04  0.79690423777E+02 0.  0.
         23    2    3    3    0    0 -0.26594534792E+03  0.24662315528E+03  0.48835790400E+03  0.61530534254E+03  0.92505747750E+02 0.  0.
        -15    1    4    4    0    0  0.48305863049E+02  0.66838505634E+02  0.14272865292E+03  0.16484025784E+03  0.00000000000E+00 0.  1.
        -15    1    5    5    0    0 -0.13958266773E+03  0.12162583920E+03  0.32428883478E+03  0.37341587306E+03  0.00000000000E+00 0. -1.
         15    1    3    3    0    0 -0.29019107261E+03 -0.93675978721E+03  0.26167293961E+04  0.27944592482E+04  0.00000000000E+00 0. -1.
         15    1    5    5    0    0 -0.12636268019E+03  0.12499731608E+03  0.16406906921E+03  0.24188946948E+03  0.00000000000E+00 0.  1.
        -16    1    1    2    0    0  0.23865281567E+03  0.21137892406E+02  0.51586313123E+02  0.24507779301E+03  0.00000000000E+00 0.  1.
         16    1    4    4    0    0  0.24172376949E+03  0.61632492469E+03  0.14832652594E+04  0.16243037349E+04  0.00000000000E+00 0. -1.
    9900018    1    3    3    0    0  0.27453972326E+02 -0.14164690804E+02  0.22317129555E+03  0.24305341926E+03  0.91187600000E+02 0.  0.
<mgrwt>
<rscale>  0 0.26988885E+04</rscale>
<asrwt>0</asrwt>
<pdfrwt beam="1">  1        2 0.82252906E+00 0.26988885E+04</pdfrwt>
<pdfrwt beam="2">  1       -2 0.52400079E-01 0.26988885E+04</pdfrwt>
<totfact> 0.33450736E-02</totfact>
</mgrwt>
</event>
<event>
12    1  0.1106125E-012  0.3418091E+04  0.7818608E-02  0.8133480E-01
         -2   -1    0    0    0  501 -0.00000000000E+00  0.00000000000E+00  0.11789894772E+04  0.11789894772E+04  0.00000000000E+00 0. -1.
          2   -1    0    0  501    0  0.00000000000E+00 -0.00000000000E+00 -0.24774067273E+04  0.24774067273E+04  0.00000000000E+00 0.  1.
    9900016    2    1    2    0    0  0.78170129638E+03  0.65094792433E+02 -0.42582497654E+03  0.23392041315E+04  0.21622337546E+04 0.  0.
        -24    2    3    3    0    0  0.80091097701E+03 -0.60553831047E+03 -0.93914073963E+03  0.13770894131E+04  0.79087827312E+02 0.  0.
         23    2    3    3    0    0  0.76484157453E+02  0.20240314974E+03 -0.28074963327E+02  0.23996479052E+03  0.99890118434E+02 0.  0.
        -15    1    3    3    0    0 -0.95693838085E+02  0.46822995316E+03  0.54139072641E+03  0.72214992788E+03  0.00000000000E+00 0.  1.
        -15    1    5    5    0    0  0.76514919578E+02  0.14169835424E+03  0.20341399883E+02  0.16231675533E+03  0.00000000000E+00 0.  1.
         15    1    5    5    0    0 -0.30762125034E-01  0.60704795495E+02 -0.48416363210E+02  0.77648035190E+02  0.00000000000E+00 0. -1.
         15    1    4    4    0    0  0.34989728228E+03 -0.25920114328E+03 -0.35438137713E+03  0.56142630975E+03  0.00000000000E+00 0. -1.
        -16    1    4    4    0    0  0.45101369473E+03 -0.34633716719E+03 -0.58475936250E+03  0.81566310340E+03  0.00000000000E+00 0.  1.
         16    1    1    2    0    0 -0.84008885736E+03 -0.60719139828E+02 -0.86686569896E+03  0.12086737534E+04  0.00000000000E+00 0. -1.
    9900018    1    1    2    0    0  0.58387560979E+02 -0.43756526052E+01 -0.57265745694E+01  0.10851831948E+03  0.91187600000E+02 0.  0.
<mgrwt>
<rscale>  0 0.34180910E+04</rscale>
<asrwt>0</asrwt>
<pdfrwt beam="1">  1        2 0.38113949E+00 0.34180910E+04</pdfrwt>
<pdfrwt beam="2">  1       -2 0.18138300E+00 0.34180910E+04</pdfrwt>
<totfact> 0.52637474E-01</totfact>
</mgrwt>
</event>
<event>
12    1  0.1106125E-012  0.2881064E+04  0.7818608E-02  0.8278534E-01
          2   -1    0    0  501    0  0.00000000000E+00  0.00000000000E+00  0.33364371764E+04  0.33364371764E+04  0.00000000000E+00 0. -1.
         -2   -1    0    0    0  501 -0.00000000000E+00 -0.00000000000E+00 -0.62196047944E+03  0.62196047944E+03  0.00000000000E+00 0.  1.
    9900016    2    1    2    0    0 -0.27656133242E+03 -0.21546190584E+03  0.27969025459E+04  0.35982532070E+04  0.22364821232E+04 0.  0.
         24    2    3    3    0    0 -0.28257584873E+03 -0.63365358068E+03  0.22501970475E+04  0.23559830746E+04  0.76834397072E+02 0.  0.
         23    2    3    3    0    0 -0.24937634119E+03 -0.17200883189E+03  0.99396699293E+02  0.33148585552E+03  0.90705957849E+02 0.  0.
        -15    1    5    5    0    0 -0.20143781578E+02  0.15057688098E+01 -0.11613640698E+02  0.23300556351E+02  0.00000000000E+00 0.  1.
        -15    1    4    4    0    0 -0.16508734210E+03 -0.30043581781E+03  0.11954442156E+04  0.12436246957E+04  0.00000000000E+00 0.  1.
         15    1    5    5    0    0 -0.22923255961E+03 -0.17351460070E+03  0.11101033999E+03  0.30818529917E+03  0.00000000000E+00 0. -1.
         15    1    3    3    0    0  0.28564081694E+03  0.59601400525E+03  0.28005281155E+03  0.71781122032E+03  0.00000000000E+00 0. -1.
        -16    1    1    2    0    0  0.27656133242E+03  0.21546190584E+03 -0.82425848900E+02  0.36014444883E+03  0.00000000000E+00 0.  1.
         16    1    4    4    0    0 -0.11748850664E+03 -0.33321776287E+03  0.10547528320E+04  0.11123583790E+04  0.00000000000E+00 0. -1.
    9900018    1    3    3    0    0 -0.30249959439E+02 -0.58134985196E+01  0.16725598750E+03  0.19297305656E+03  0.91187600000E+02 0.  0.
<mgrwt>
<rscale>  0 0.28810637E+04</rscale>
<asrwt>0</asrwt>
<pdfrwt beam="1">  1        2 0.51329802E+00 0.28810637E+04</pdfrwt>
<pdfrwt beam="2">  1       -2 0.95686229E-01 0.28810637E+04</pdfrwt>
<totfact> 0.83366743E-01</totfact>
</mgrwt>
</event>
<event>
12    1  0.1106125E-012  0.3094652E+04  0.7818608E-02  0.8217207E-01
         -2   -1    0    0    0  501 -0.00000000000E+00  0.00000000000E+00  0.28200033435E+04  0.28200033435E+04  0.00000000000E+00 0.  1.
          2   -1    0    0  501    0  0.00000000000E+00 -0.00000000000E+00 -0.84901215960E+03  0.84901215960E+03  0.00000000000E+00 0. -1.
    9900016    2    1    2    0    0  0.46316597732E+03 -0.48102723859E+03  0.14657963382E+04  0.26915390685E+04  0.21563658607E+04 0.  0.
         24    2    3    3    0    0  0.33667718379E+03  0.76683302610E+03  0.66428882864E+03  0.10716204632E+04  0.75540408754E+02 0.  0.
         23    2    3    3    0    0 -0.59935681692E+02 -0.10412324728E+03  0.34123268805E+03  0.37302592289E+03  0.90965131732E+02 0.  0.
        -15    1    4    4    0    0  0.18631813896E+03  0.49135238211E+03  0.44708237529E+03  0.68994511565E+03  0.00000000000E+00 0.  1.
        -15    1    5    5    0    0  0.37421044153E-01 -0.86020179406E+02  0.22684990501E+03  0.24261152501E+03  0.00000000000E+00 0.  1.
         15    1    5    5    0    0 -0.59973102736E+02 -0.18103067872E+02  0.11438278304E+03  0.13041439787E+03  0.00000000000E+00 0. -1.
         15    1    3    3    0    0  0.18642447522E+03 -0.11437370174E+04  0.46027482149E+03  0.12468926823E+04  0.00000000000E+00 0. -1.
        -16    1    1    2    0    0 -0.50268561157E+03  0.52606928006E+03  0.44327809888E+03  0.85201947422E+03  0.00000000000E+00 0.  1.
         16    1    4    4    0    0  0.15035904483E+03  0.27548064399E+03  0.21720645335E+03  0.38167534758E+03  0.00000000000E+00 0. -1.
    9900018    1    1    2    0    0  0.39519634253E+02 -0.45042041465E+02  0.61916746871E+02  0.12545696046E+03  0.91187600000E+02 0.  0.
<mgrwt>
<rscale>  0 0.30946516E+04</rscale>
<asrwt>0</asrwt>
<pdfrwt beam="1">  1        2 0.13061726E+00 0.30946516E+04</pdfrwt>
<pdfrwt beam="2">  1       -2 0.43384666E+00 0.30946516E+04</pdfrwt>
<totfact> 0.11974274E-01</totfact>
</mgrwt>
</event>
<event>
12    1  0.1106125E-012  0.2693413E+04  0.7818608E-02  0.8337145E-01
         -2   -1    0    0    0  501 -0.00000000000E+00  0.00000000000E+00  0.10695116040E+04  0.10695116040E+04  0.00000000000E+00 0. -1.
          2   -1    0    0  501    0  0.00000000000E+00 -0.00000000000E+00 -0.16957448877E+04  0.16957448877E+04  0.00000000000E+00 0.  1.
    9900016    2    1    2    0    0  0.17396214636E+03  0.35434083737E+03 -0.62483087230E+03  0.23705132535E+04  0.22523541481E+04 0.  0.
         24    2    3    3    0    0 -0.76582075881E+03  0.74674028902E+03 -0.35199750275E+03  0.11288831274E+04  0.79827185083E+02 0.  0.
         23    2    3    3    0    0  0.21510378243E+03 -0.27665504909E+02  0.79839136252E+02  0.24826231850E+03  0.90691089592E+02 0.  0.
        -15    1    5    5    0    0  0.55268638600E+02 -0.26504287263E+02  0.62408656987E+02  0.87475368664E+02  0.00000000000E+00 0. -1.
        -15    1    4    4    0    0 -0.28154422774E+03  0.30593337749E+03 -0.10342119648E+03  0.42843707533E+03  0.00000000000E+00 0.  1.
         15    1    5    5    0    0  0.15983514383E+03 -0.11612176464E+01  0.17430479265E+02  0.16078694984E+03  0.00000000000E+00 0.  1.
         15    1    3    3    0    0  0.70814295261E+03 -0.41062155583E+03 -0.27328142669E+03  0.86299434623E+03  0.00000000000E+00 0. -1.
        -16    1    1    2    0    0 -0.17396214636E+03 -0.35434083737E+03 -0.14024113663E+01  0.39474323826E+03  0.00000000000E+00 0.  1.
         16    1    4    4    0    0 -0.48427653107E+03  0.44080691153E+03 -0.24857630627E+03  0.70044605205E+03  0.00000000000E+00 0. -1.
    9900018    1    3    3    0    0  0.16536170128E+02  0.45887609096E+02 -0.79391079121E+02  0.13037346137E+03  0.91187600000E+02 0.  0.
<mgrwt>
<rscale>  0 0.26934133E+04</rscale>
<asrwt>0</asrwt>
<pdfrwt beam="1">  1        2 0.26088383E+00 0.26934133E+04</pdfrwt>
<pdfrwt beam="2">  1       -2 0.16454025E+00 0.26934133E+04</pdfrwt>
<totfact> 0.20196484E+00</totfact>
</mgrwt>
</event>
<event>
12    1  0.1106125E-012  0.2635178E+04  0.7818608E-02  0.8356349E-01
         -2   -1    0    0    0  501 -0.00000000000E+00  0.00000000000E+00  0.22300406063E+04  0.22300406063E+04  0.00000000000E+00 0.  1.
          2   -1    0    0  501    0  0.00000000000E+00 -0.00000000000E+00 -0.77847945127E+03  0.77847945127E+03  0.00000000000E+00 0. -1.
    9900016    2    1    2    0    0  0.33740462262E+03 -0.53387240230E+02  0.13929984636E+04  0.26619343314E+04  0.22424891501E+04 0.  0.
        -24    2    3    3    0    0 -0.44788201332E+03 -0.19109097357E+03 -0.32017730592E+03  0.58933032027E+03  0.87650790800E+02 0.  0.
         23    2    3    3    0    0  0.25383529361E+03 -0.24348183850E+03  0.28957629214E+03  0.46495531510E+03  0.92807618830E+02 0.  0.
        -15    1    5    5    0    0  0.22411041985E+03 -0.20108480674E+03  0.19993482467E+03  0.36143396894E+03  0.00000000000E+00 0.  1.
        -15    1    3    3    0    0  0.49018146629E+03  0.39077176803E+03  0.13297439767E+04  0.14701018632E+04  0.00000000000E+00 0.  1.
         15    1    5    5    0    0  0.29724873761E+02 -0.42397031755E+02  0.89641467465E+02  0.10352134616E+03  0.00000000000E+00 0. -1.
         15    1    4    4    0    0 -0.17512775177E+03 -0.73150926661E+02 -0.17682510033E+03  0.25939912031E+03  0.00000000000E+00 0. -1.
        -16    1    4    4    0    0 -0.27275426155E+03 -0.11794004691E+03 -0.14335220559E+03  0.32993119996E+03  0.00000000000E+00 0.  1.
         16    1    1    2    0    0 -0.33740462262E+03  0.53387240230E+02  0.58562691482E+02  0.34658572621E+03  0.00000000000E+00 0. -1.
    9900018    1    3    3    0    0  0.41269876042E+02 -0.95861961906E+01  0.93855500690E+02  0.13754683286E+03  0.91187600000E+02 0.  0.
<mgrwt>
<rscale>  0 0.26351780E+04</rscale>
<asrwt>0</asrwt>
<pdfrwt beam="1">  1        2 0.11976607E+00 0.26351780E+04</pdfrwt>
<pdfrwt beam="2">  1       -2 0.34308317E+00 0.26351780E+04</pdfrwt>
<totfact> 0.54184762E-01</totfact>
</mgrwt>
</event>
<event>
12    1  0.1106125E-012  0.2804906E+04  0.7818608E-02  0.8301747E-01
          2   -1    0    0  501    0  0.00000000000E+00  0.00000000000E+00  0.18065547268E+04  0.18065547268E+04  0.00000000000E+00 0.  1.
         -2   -1    0    0    0  501 -0.00000000000E+00 -0.00000000000E+00 -0.10887432786E+04  0.10887432786E+04  0.00000000000E+00 0. -1.
    9900016    2    1    2    0    0  0.44862994634E+03 -0.17330681423E+03  0.57759330927E+03  0.22854244227E+04  0.21582971714E+04 0.  0.
        -24    2    3    3    0    0  0.81439884906E+02  0.77641256037E+03  0.45551530714E+03  0.90732027564E+03  0.79290408021E+02 0.  0.
         23    2    3    3    0    0  0.12143403353E+03  0.12642189203E+03 -0.14135183580E+03  0.24325995926E+03  0.92012754599E+02 0.  0.
        -15    1    3    3    0    0  0.24575602790E+03 -0.10761412666E+04  0.26342983793E+03  0.11348441878E+04  0.00000000000E+00 0.  1.
        -15    1    5    5    0    0  0.10422352469E+03  0.44129737666E+02 -0.70752110951E+02  0.13347598304E+03  0.00000000000E+00 0. -1.
         15    1    4    4    0    0  0.54979230687E+02  0.68131340311E+03  0.37309584024E+03  0.77872406864E+03  0.00000000000E+00 0. -1.
         15    1    5    5    0    0  0.17210508843E+02  0.82292154365E+02 -0.70599724853E+02  0.10978397622E+03  0.00000000000E+00 0.  1.
        -16    1    4    4    0    0  0.26460654219E+02  0.95099157252E+02  0.82419466906E+02  0.12859620701E+03  0.00000000000E+00 0.  1.
         16    1    1    2    0    0 -0.44349750777E+03  0.21513307334E+03  0.11114757987E+03  0.50529799441E+03  0.00000000000E+00 0. -1.
    9900018    1    1    2    0    0 -0.51324385701E+01 -0.41826259109E+02  0.29070559073E+02  0.10457558833E+03  0.91187600000E+02 0.  0.
<mgrwt>
<rscale>  0 0.28049059E+04</rscale>
<asrwt>0</asrwt>
<pdfrwt beam="1">  1        2 0.27793150E+00 0.28049059E+04</pdfrwt>
<pdfrwt beam="2">  1       -2 0.16749897E+00 0.28049059E+04</pdfrwt>
<totfact> 0.16532450E+00</totfact>
</mgrwt>
</event>
<event>
12    1  0.1106125E-012  0.2809632E+04  0.7818608E-02  0.8300284E-01
          1   -1    0    0  501    0  0.00000000000E+00  0.00000000000E+00  0.21114187292E+04  0.21114187292E+04  0.00000000000E+00 0. -1.
         -1   -1    0    0    0  501 -0.00000000000E+00 -0.00000000000E+00 -0.93468334552E+03  0.93468334552E+03  0.00000000000E+00 0.  1.
    9900016    2    1    2    0    0  0.21578820395E+03 -0.10103035813E+02  0.45816163389E+03  0.22957589171E+04  0.22391807212E+04 0.  0.
        -24    2    3    3    0    0  0.37875187115E+03  0.30613462409E+03  0.96344705775E+03  0.10823956111E+04  0.78604312738E+02 0.  0.
         23    2    3    3    0    0  0.36740418761E+03 -0.18679675396E+03 -0.13501095857E+03  0.44329393963E+03  0.91666207573E+02 0.  0.
        -15    1    5    5    0    0  0.29421707454E+03 -0.12114998142E+03 -0.71098260223E+02  0.32603062364E+03  0.00000000000E+00 0.  1.
        -15    1    3    3    0    0 -0.55655933501E+03 -0.10993216252E+03 -0.36175188305E+03  0.67283564014E+03  0.00000000000E+00 0.  1.
         15    1    5    5    0    0  0.73187113077E+02 -0.65646772542E+02 -0.63912698347E+02  0.11726331598E+03  0.00000000000E+00 0. -1.
         15    1    4    4    0    0  0.27830972322E+03  0.23867223565E+03  0.78982607682E+03  0.87077320224E+03  0.00000000000E+00 0. -1.
        -16    1    4    4    0    0  0.10044214793E+03  0.67462388444E+02  0.17362098093E+03  0.21162240891E+03  0.00000000000E+00 0.  1.
         16    1    1    2    0    0 -0.21578820395E+03  0.10103035813E+02  0.71857374976E+03  0.75034315759E+03  0.00000000000E+00 0. -1.
    9900018    1    3    3    0    0  0.26191480207E+02 -0.19508743423E+02 -0.85225822396E+01  0.97233726182E+02  0.91187600000E+02 0.  0.
<mgrwt>
<rscale>  0 0.28096319E+04</rscale>
<asrwt>0</asrwt>
<pdfrwt beam="1">  1        1 0.32483365E+00 0.28096319E+04</pdfrwt>
<pdfrwt beam="2">  1       -1 0.14379744E+00 0.28096319E+04</pdfrwt>
<totfact> 0.84570401E-01</totfact>
</mgrwt>
</event>
<event>
12    1  0.1106125E-012  0.3243404E+04  0.7818608E-02  0.8177447E-01
          2   -1    0    0  501    0  0.00000000000E+00  0.00000000000E+00  0.11412710695E+04  0.11412710695E+04  0.00000000000E+00 0. -1.
         -2   -1    0    0    0  501 -0.00000000000E+00 -0.00000000000E+00 -0.23043757643E+04  0.23043757643E+04  0.00000000000E+00 0.  1.
    9900016    2    1    2    0    0  0.59824059769E+03 -0.35407609302E+03 -0.34649635520E+03  0.23732146109E+04  0.22425044421E+04 0.  0.
         24    2    3    3    0    0 -0.29414742847E+03 -0.84186045272E+03  0.28496785186E+03  0.93958178542E+03  0.79721536423E+02 0.  0.
         23    2    3    3    0    0  0.94674355222E+02  0.25790000055E+03  0.58742566037E+02  0.29525763920E+03  0.90833587494E+02 0.  0.
        -15    1    4    4    0    0 -0.89052432317E+02 -0.16623168667E+03  0.45357214086E+02  0.19396026971E+03  0.00000000000E+00 0.  1.
        -15    1    5    5    0    0  0.69851888983E+02  0.25496369124E+03  0.53808535480E+02  0.26977977822E+03  0.00000000000E+00 0.  1.
         15    1    5    5    0    0  0.24822466239E+02  0.29363093162E+01  0.49340305567E+01  0.25477860980E+02  0.00000000000E+00 0. -1.
         15    1    3    3    0    0  0.75851163117E+03  0.24884617876E+03 -0.65064097768E+03  0.10298533862E+04  0.00000000000E+00 0. -1.
        -16    1    1    2    0    0 -0.59824059769E+03  0.35407609302E+03 -0.81660833965E+03  0.10724322229E+04  0.00000000000E+00 0.  1.
         16    1    4    4    0    0 -0.20509499615E+03 -0.67562876605E+03  0.23961063777E+03  0.74562151571E+03  0.00000000000E+00 0. -1.
    9900018    1    3    3    0    0  0.39202039768E+02 -0.18961819612E+02 -0.39565795413E+02  0.10852180005E+03  0.91187600000E+02 0.  0.
<mgrwt>
<rscale>  0 0.32434040E+04</rscale>
<asrwt>0</asrwt>
<pdfrwt beam="1">  1        2 0.17558017E+00 0.32434040E+04</pdfrwt>
<pdfrwt beam="2">  1       -2 0.35451934E+00 0.32434040E+04</pdfrwt>
<totfact> 0.25110827E-01</totfact>
</mgrwt>
</event>
<event>
12    1  0.1106125E-012  0.3010394E+04  0.7818608E-02  0.8240769E-01
         -1   -1    0    0    0  501 -0.00000000000E+00  0.00000000000E+00  0.14916281236E+04  0.14916281236E+04  0.00000000000E+00 0.  1.
          1   -1    0    0  501    0  0.00000000000E+00 -0.00000000000E+00 -0.15188888957E+04  0.15188888957E+04  0.00000000000E+00 0. -1.
    9900016    2    1    2    0    0 -0.61104533348E+02 -0.31581057672E+03 -0.53432766845E+03  0.22391746855E+04  0.21505643749E+04 0.  0.
         24    2    3    3    0    0 -0.45407333205E+03 -0.84133841932E+03  0.40232002033E+03  0.10402190167E+04  0.78493803317E+02 0.  0.
         23    2    3    3    0    0  0.42645413016E+02  0.50531874913E+02 -0.34559346962E+03  0.36367563567E+03  0.91940307304E+02 0.  0.
        -15    1    4    4    0    0 -0.40455929621E+03 -0.75627233154E+03  0.38563242770E+03  0.94038738448E+03  0.00000000000E+00 0.  1.
        -15    1    5    5    0    0 -0.22845806762E+02  0.22503958305E+02 -0.48370213340E+02  0.58034787538E+02  0.00000000000E+00 0. -1.
         15    1    3    3    0    0  0.35032338568E+03  0.47499596768E+03 -0.59105421916E+03  0.83528003320E+03  0.00000000000E+00 0. -1.
         15    1    5    5    0    0  0.65491219777E+02  0.28027916608E+02 -0.29722325628E+03  0.30564084814E+03  0.00000000000E+00 0.  1.
        -16    1    1    2    0    0  0.10701282472E+03  0.34619651654E+03  0.54821914384E+03  0.65715143034E+03  0.00000000000E+00 0.  1.
         16    1    4    4    0    0 -0.49514035833E+02 -0.85066087782E+02  0.16687592635E+02  0.99831632176E+02  0.00000000000E+00 0. -1.
    9900018    1    1    2    0    0 -0.45908291367E+02 -0.30385939820E+02 -0.41152247498E+02  0.11419090342E+03  0.91187600000E+02 0.  0.
<mgrwt>
<rscale>  0 0.30103936E+04</rscale>
<asrwt>0</asrwt>
<pdfrwt beam="1">  1        1 0.23367521E+00 0.30103936E+04</pdfrwt>
<pdfrwt beam="2">  1       -1 0.22948125E+00 0.30103936E+04</pdfrwt>
<totfact> 0.51352580E-01</totfact>
</mgrwt>
</event>
<event>
12    1  0.1106125E-012  0.3936692E+04  0.7818608E-02  0.8017441E-01
          1   -1    0    0  501    0  0.00000000000E+00  0.00000000000E+00  0.33417291441E+04  0.33417291441E+04  0.00000000000E+00 0. -1.
         -1   -1    0    0    0  501 -0.00000000000E+00 -0.00000000000E+00 -0.11593957344E+04  0.11593957344E+04  0.00000000000E+00 0.  1.
    9900016    2    1    2    0    0 -0.59848838703E+03 -0.29123088402E+03  0.20472387509E+03  0.22635966391E+04  0.21538231362E+04 0.  0.
        -24    2    3    3    0    0 -0.81072848915E+03 -0.30893882222E+03  0.74447637559E+02  0.87466565097E+03  0.82302316274E+02 0.  0.
         23    2    3    3    0    0 -0.12217657281E+03 -0.16251012962E+03  0.68291826500E+03  0.71831464846E+03  0.90895106344E+02 0.  0.
        -15    1    5    5    0    0 -0.29547969058E+02 -0.86628214814E+02  0.18772473132E+03  0.20884947888E+03  0.00000000000E+00 0.  1.
        -15    1    3    3    0    0  0.33441667493E+03  0.18021806782E+03 -0.55264202747E+03  0.67061633962E+03  0.00000000000E+00 0.  1.
         15    1    4    4    0    0 -0.15422920189E+03 -0.65860769834E+02 -0.17430056632E+02  0.16860633023E+03  0.00000000000E+00 0. -1.
         15    1    5    5    0    0 -0.92628603751E+02 -0.75881914802E+02  0.49519353367E+03  0.50946516958E+03  0.00000000000E+00 0. -1.
        -16    1    4    4    0    0 -0.65649928725E+03 -0.24307805239E+03  0.91877694191E+02  0.70605932074E+03  0.00000000000E+00 0.  1.
         16    1    1    2    0    0  0.61097054057E+03  0.32525807817E+03  0.20164948393E+04  0.21319777803E+04  0.00000000000E+00 0. -1.
    9900018    1    1    2    0    0 -0.12482153542E+02 -0.34027194157E+02 -0.38885304684E+02  0.10555045909E+03  0.91187600000E+02 0.  0.
<mgrwt>
<rscale>  0 0.39366923E+04</rscale>
<asrwt>0</asrwt>
<pdfrwt beam="1">  1        1 0.51411217E+00 0.39366923E+04</pdfrwt>
<pdfrwt beam="2">  1       -1 0.17836858E+00 0.39366923E+04</pdfrwt>
<totfact> 0.55748128E-02</totfact>
</mgrwt>
</event>
<event>
12    1  0.1106125E-012  0.2980044E+04  0.7818608E-02  0.8249453E-01
          2   -1    0    0  501    0  0.00000000000E+00  0.00000000000E+00  0.23782345516E+04  0.23782345516E+04  0.00000000000E+00 0. -1.
         -2   -1    0    0    0  501 -0.00000000000E+00 -0.00000000000E+00 -0.93353504709E+03  0.93353504709E+03  0.00000000000E+00 0.  1.
    9900016    2    1    2    0    0  0.42139171203E+03 -0.35881649561E+03  0.81604408638E+03  0.23675888469E+04  0.21524936108E+04 0.  0.
        -24    2    3    3    0    0  0.57764981621E+03 -0.84807039244E+03  0.74822696767E+03  0.12726505869E+04  0.83025421353E+02 0.  0.
         23    2    3    3    0    0 -0.38608000746E+03 -0.12954941633E+03 -0.63145167612E+02  0.42196963656E+03  0.90720662227E+02 0.  0.
        -15    1    3    3    0    0  0.22982190328E+03  0.61880331316E+03  0.13096228632E+03  0.67296862337E+03  0.00000000000E+00 0.  1.
        -15    1    5    5    0    0 -0.14663681954E+03 -0.79979354866E+02 -0.59843667004E+02  0.17742693857E+03  0.00000000000E+00 0.  1.
         15    1    5    5    0    0 -0.23944318792E+03 -0.49570061468E+02 -0.33015006085E+01  0.24454269800E+03  0.00000000000E+00 0. -1.
         15    1    4    4    0    0  0.37683575577E+03 -0.54500534044E+03  0.53120704628E+03  0.84924491988E+03  0.00000000000E+00 0. -1.
        -16    1    4    4    0    0  0.20081406044E+03 -0.30306505200E+03  0.21701992140E+03  0.42340566706E+03  0.00000000000E+00 0.  1.
         16    1    1    2    0    0 -0.44638481478E+03  0.34812981722E+03  0.63265486935E+03  0.84894402419E+03  0.00000000000E+00 0. -1.
    9900018    1    1    2    0    0  0.24993102752E+02  0.10686678394E+02 -0.39994512465E+01  0.95236727602E+02  0.91187600000E+02 0.  0.
<mgrwt>
<rscale>  0 0.29800438E+04</rscale>
<asrwt>0</asrwt>
<pdfrwt beam="1">  1        2 0.36588224E+00 0.29800438E+04</pdfrwt>
<pdfrwt beam="2">  1       -2 0.14362078E+00 0.29800438E+04</pdfrwt>
<totfact> 0.11785073E+00</totfact>
</mgrwt>
</event>
<event>
12    1  0.1106125E-012  0.2560902E+04  0.7818608E-02  0.8381604E-01
          1   -1    0    0  501    0  0.00000000000E+00  0.00000000000E+00  0.14291704081E+04  0.14291704081E+04  0.00000000000E+00 0. -1.
         -1   -1    0    0    0  501 -0.00000000000E+00 -0.00000000000E+00 -0.11472076044E+04  0.11472076044E+04  0.00000000000E+00 0.  1.
    9900016    2    1    2    0    0  0.95436500130E+02 -0.18187702981E+02  0.52665581617E+03  0.23131032730E+04  0.22502536490E+04 0.  0.
         24    2    3    3    0    0 -0.71528299939E+03 -0.65568299488E+03  0.24286963543E+03  0.10035034142E+04  0.80520081476E+02 0.  0.
         23    2    3    3    0    0  0.88930085893E+02  0.19055524128E+02 -0.10981082081E+03  0.16676771980E+03  0.86494987282E+02 0.  0.
        -15    1    5    5    0    0  0.33854713346E+02 -0.26652694300E+02 -0.10490220005E+02  0.44345827819E+02  0.00000000000E+00 0. -1.
        -15    1    4    4    0    0 -0.36396047053E+03 -0.28134115675E+03  0.10302848697E+03  0.47141800953E+03  0.00000000000E+00 0.  1.
         15    1    5    5    0    0  0.55075372546E+02  0.45708218428E+02 -0.99320600801E+02  0.12242189198E+03  0.00000000000E+00 0.  1.
         15    1    3    3    0    0  0.71705054026E+03  0.65528808221E+03  0.33130481854E+03  0.10263171200E+04  0.00000000000E+00 0. -1.
        -16    1    1    2    0    0 -0.95436500130E+02  0.18187702981E+02 -0.24469301250E+03  0.26327473951E+03  0.00000000000E+00 0.  1.
         16    1    4    4    0    0 -0.35132252886E+03 -0.37434183814E+03  0.13984114846E+03  0.53208540468E+03  0.00000000000E+00 0. -1.
    9900018    1    3    3    0    0  0.47388733678E+01 -0.36848314440E+02  0.62292183008E+02  0.11651501901E+03  0.91187600000E+02 0.  0.
<mgrwt>
<rscale>  0 0.25609023E+04</rscale>
<asrwt>0</asrwt>
<pdfrwt beam="1">  1        1 0.21987237E+00 0.25609023E+04</pdfrwt>
<pdfrwt beam="2">  1       -1 0.17649348E+00 0.25609023E+04</pdfrwt>
<totfact> 0.14289488E+00</totfact>
</mgrwt>
</event>
<event>
12    1  0.1106125E-012  0.3144106E+04  0.7818608E-02  0.8203737E-01
          2   -1    0    0  501    0  0.00000000000E+00  0.00000000000E+00  0.10863596954E+04  0.10863596954E+04  0.00000000000E+00 0. -1.
         -2   -1    0    0    0  501 -0.00000000000E+00 -0.00000000000E+00 -0.22748920615E+04  0.22748920615E+04  0.00000000000E+00 0.  1.
    9900016    2    1    2    0    0  0.61158118180E+03 -0.40899956232E+03 -0.10920296084E+04  0.25242918056E+04  0.21536499878E+04 0.  0.
         24    2    3    3    0    0  0.33522848042E+03 -0.91374440825E+03  0.20166730401E+03  0.99724504791E+03  0.80752748456E+02 0.  0.
         23    2    3    3    0    0  0.12954584870E+03 -0.10080867712E+03 -0.32679104410E+03  0.37676232351E+03  0.90625303382E+02 0.  0.
        -15    1    4    4    0    0  0.12084360072E+03 -0.31978330130E+03  0.31805628964E+02  0.34333093897E+03  0.00000000000E+00 0.  1.
        -15    1    5    5    0    0  0.12837945779E+03 -0.74859393654E+02 -0.31487691794E+03  0.34818484667E+03  0.00000000000E+00 0.  1.
         15    1    3    3    0    0  0.14680685267E+03  0.60555352305E+03 -0.96690586833E+03  0.11502844342E+04  0.00000000000E+00 0. -1.
         15    1    5    5    0    0  0.11663909084E+01 -0.25949283467E+02 -0.11914126162E+02  0.28577476837E+02  0.00000000000E+00 0. -1.
        -16    1    1    2    0    0 -0.62680992141E+03  0.38575854193E+03 -0.82568913055E+02  0.74061998059E+03  0.00000000000E+00 0.  1.
         16    1    4    4    0    0  0.21438487970E+03 -0.59396110695E+03  0.16986167504E+03  0.65391410893E+03  0.00000000000E+00 0. -1.
    9900018    1    1    2    0    0  0.15228739613E+02  0.23241020389E+02 -0.13933844704E+02  0.96339970733E+02  0.91187600000E+02 0.  0.
<mgrwt>
<rscale>  0 0.31441063E+04</rscale>
<asrwt>0</asrwt>
<pdfrwt beam="1">  1        2 0.16713226E+00 0.31441063E+04</pdfrwt>
<pdfrwt beam="2">  1       -2 0.34998339E+00 0.31441063E+04</pdfrwt>
<totfact> 0.29233220E-01</totfact>
</mgrwt>
</event>
<event>
12    1  0.1106125E-012  0.4351223E+04  0.7818608E-02  0.7937214E-01
          1   -1    0    0  501    0  0.00000000000E+00  0.00000000000E+00  0.29042865854E+04  0.29042865854E+04  0.00000000000E+00 0. -1.
         -1   -1    0    0    0  501 -0.00000000000E+00 -0.00000000000E+00 -0.16297583150E+04  0.16297583150E+04  0.00000000000E+00 0.  1.
    9900016    2    1    2    0    0 -0.69198643583E+03 -0.11590404811E+04  0.16940292108E+04  0.31204674871E+04  0.22461883952E+04 0.  0.
         24    2    3    3    0    0  0.40124683698E+03 -0.11803242120E+03 -0.15398100850E+03  0.45271510506E+03  0.79436381677E+02 0.  0.
         23    2    3    3    0    0  0.41132563954E+02  0.42427148774E+01 -0.95408604466E+02  0.14038365391E+03  0.94312671639E+02 0.  0.
        -15    1    5    5    0    0  0.57275396878E+02  0.32902280027E+02 -0.44048583541E+02  0.79393380269E+02  0.00000000000E+00 0.  1.
        -15    1    4    4    0    0  0.20545050208E+03 -0.77531377826E+02 -0.11891052328E+03  0.24972131647E+03  0.00000000000E+00 0.  1.
         15    1    5    5    0    0 -0.16142832923E+02 -0.28659565150E+02 -0.51360020924E+02  0.60990273640E+02  0.00000000000E+00 0. -1.
         15    1    3    3    0    0 -0.11278126851E+04 -0.10015485498E+04  0.18686430377E+04  0.24014345197E+04  0.00000000000E+00 0. -1.
        -16    1    1    2    0    0  0.69198643583E+03  0.11590404811E+04 -0.41950094037E+03  0.14135774132E+04  0.00000000000E+00 0.  1.
         16    1    4    4    0    0  0.19579633490E+03 -0.40501043376E+02 -0.35070485222E+02  0.20299378860E+03  0.00000000000E+00 0. -1.
    9900018    1    3    3    0    0 -0.65531516339E+01 -0.43702224985E+02  0.74775786119E+02  0.12593420841E+03  0.91187600000E+02 0.  0.
<mgrwt>
<rscale>  0 0.43512229E+04</rscale>
<asrwt>0</asrwt>
<pdfrwt beam="1">  1        1 0.44681332E+00 0.43512229E+04</pdfrwt>
<pdfrwt beam="2">  1       -1 0.25073205E+00 0.43512229E+04</pdfrwt>
<totfact> 0.36781230E-02</totfact>
</mgrwt>
</event>
<event>
12    1  0.1106125E-012  0.3519056E+04  0.7818608E-02  0.8109289E-01
         -2   -1    0    0    0  501 -0.00000000000E+00  0.00000000000E+00  0.84847870402E+03  0.84847870402E+03  0.00000000000E+00 0. -1.
          2   -1    0    0  501    0  0.00000000000E+00 -0.00000000000E+00 -0.36488105335E+04  0.36488105335E+04  0.00000000000E+00 0.  1.
    9900016    2    1    2    0    0  0.41834990940E+03  0.48872382150E+03 -0.93293469745E+03  0.25221842608E+04  0.22532595668E+04 0.  0.
         24    2    3    3    0    0  0.66297442368E+03 -0.46301268620E+03  0.28830129361E+03  0.86221058060E+03  0.79834925734E+02 0.  0.
         23    2    3    3    0    0 -0.93664402764E+01  0.33147108125E+03 -0.33240745430E+03  0.47823477184E+03  0.90845877290E+02 0.  0.
        -15    1    4    4    0    0  0.54707079632E+03 -0.38269898573E+03  0.20487077474E+03  0.69836738484E+03  0.00000000000E+00 0.  1.
        -15    1    5    5    0    0 -0.20326731183E+02  0.11765895950E+02 -0.16957008998E+02  0.28968128387E+02  0.00000000000E+00 0. -1.
         15    1    5    5    0    0  0.10960290906E+02  0.31970518530E+03 -0.31545044530E+03  0.44926664346E+03  0.00000000000E+00 0.  1.
         15    1    3    3    0    0 -0.19948295713E+03  0.61049961482E+03 -0.87020246980E+03  0.10815523882E+04  0.00000000000E+00 0. -1.
        -16    1    1    2    0    0 -0.41834990940E+03 -0.48872382150E+03 -0.18673971320E+04  0.19751049767E+04  0.00000000000E+00 0.  1.
         16    1    4    4    0    0  0.11590362736E+03 -0.80313700468E+02  0.83430518871E+02  0.16384319576E+03  0.00000000000E+00 0. -1.
    9900018    1    3    3    0    0 -0.35775116871E+02  0.97658116282E+01 -0.18626066972E+02  0.10018652019E+03  0.91187600000E+02 0.  0.
<mgrwt>
<rscale>  0 0.35190556E+04</rscale>
<asrwt>0</asrwt>
<pdfrwt beam="1">  1        2 0.56135547E+00 0.35190556E+04</pdfrwt>
<pdfrwt beam="2">  1       -2 0.13053518E+00 0.35190556E+04</pdfrwt>
<totfact> 0.22399257E-01</totfact>
</mgrwt>
</event>
<event>
12    1  0.1106125E-012  0.2595172E+04  0.7818608E-02  0.8369843E-01
         -1   -1    0    0    0  501 -0.00000000000E+00  0.00000000000E+00  0.99154227006E+03  0.99154227006E+03  0.00000000000E+00 0.  1.
          1   -1    0    0  501    0  0.00000000000E+00 -0.00000000000E+00 -0.16980912912E+04  0.16980912912E+04  0.00000000000E+00 0. -1.
    9900016    2    1    2    0    0 -0.15853272799E+03  0.27957108268E+03 -0.63134592223E+03  0.23595606569E+04  0.22506968263E+04 0.  0.
         24    2    3    3    0    0  0.79366182265E+03  0.52431814449E+03 -0.57415994094E+03  0.11139794626E+04  0.80510868446E+02 0.  0.
         23    2    3    3    0    0 -0.28375763187E+03 -0.34064073072E+03 -0.11252487030E+03  0.46633398679E+03  0.90835233962E+02 0.  0.
        -15    1    5    5    0    0 -0.20697647463E+03 -0.29420758747E+03 -0.67709527614E+02  0.36603544323E+03  0.00000000000E+00 0.  1.
        -15    1    4    4    0    0  0.20003743119E+03  0.13963691373E+03 -0.18861484753E+03  0.30836504709E+03  0.00000000000E+00 0.  1.
         15    1    3    3    0    0 -0.64263054001E+03  0.98752619228E+02  0.12437632261E+03  0.66196341317E+03  0.00000000000E+00 0. -1.
         15    1    5    5    0    0 -0.76781157238E+02 -0.46433143255E+02 -0.44815342689E+02  0.10029854356E+03  0.00000000000E+00 0. -1.
        -16    1    1    2    0    0  0.15853272799E+03 -0.27957108268E+03 -0.75203098909E+02  0.33007290437E+03  0.00000000000E+00 0.  1.
         16    1    4    4    0    0  0.59362439146E+03  0.38468123076E+03 -0.38554509340E+03  0.80561441551E+03  0.00000000000E+00 0. -1.
    9900018    1    3    3    0    0 -0.25806378759E+02 -0.28589503167E+01 -0.69037433595E+02  0.11728379433E+03  0.91187600000E+02 0.  0.
<mgrwt>
<rscale>  0 0.25951719E+04</rscale>
<asrwt>0</asrwt>
<pdfrwt beam="1">  1        1 0.26124481E+00 0.25951719E+04</pdfrwt>
<pdfrwt beam="2">  1       -1 0.15254497E+00 0.25951719E+04</pdfrwt>
<totfact> 0.14040587E+00</totfact>
</mgrwt>
</event>
<event>
12    1  0.1106125E-012  0.2613732E+04  0.7818608E-02  0.8363552E-01
          2   -1    0    0  501    0  0.00000000000E+00  0.00000000000E+00  0.18890515426E+04  0.18890515426E+04  0.00000000000E+00 0. -1.
         -2   -1    0    0    0  501 -0.00000000000E+00 -0.00000000000E+00 -0.90410393007E+03  0.90410393007E+03  0.00000000000E+00 0.  1.
    9900016    2    1    2    0    0 -0.77425997050E+02 -0.19777440322E+02  0.12054078964E+04  0.25586588438E+04  0.22555134560E+04 0.  0.
         24    2    3    3    0    0  0.43598039676E+03  0.29929444172E+03 -0.41136123221E+03  0.67407354371E+03  0.74168792317E+02 0.  0.
         23    2    3    3    0    0 -0.25013250101E+03  0.59775894462E+02  0.14300915826E+03  0.30805866667E+03  0.91154249200E+02 0.  0.
        -15    1    5    5    0    0 -0.13270055622E+02 -0.16299677087E+02 -0.17044100310E+00  0.21019107961E+02  0.00000000000E+00 0.  1.
        -15    1    4    4    0    0  0.23326998059E+03  0.12923855126E+03 -0.24049915662E+03  0.35910629528E+03  0.00000000000E+00 0.  1.
         15    1    5    5    0    0 -0.23686244539E+03  0.76075571548E+02  0.14317959926E+03  0.28703955871E+03  0.00000000000E+00 0. -1.
         15    1    3    3    0    0 -0.24903153805E+03 -0.33142417440E+03  0.13634587247E+04  0.14250889040E+04  0.00000000000E+00 0. -1.
        -16    1    1    2    0    0  0.77425997050E+02  0.19777440322E+02 -0.22046028390E+03  0.23449662885E+03  0.00000000000E+00 0.  1.
         16    1    4    4    0    0  0.20271041617E+03  0.17005589046E+03 -0.17086207559E+03  0.31496724842E+03  0.00000000000E+00 0. -1.
    9900018    1    3    3    0    0 -0.14242354748E+02 -0.47423602105E+02  0.11030124562E+03  0.15143772939E+03  0.91187600000E+02 0.  0.
<mgrwt>
<rscale>  0 0.26137321E+04</rscale>
<asrwt>0</asrwt>
<pdfrwt beam="1">  1        2 0.29062331E+00 0.26137321E+04</pdfrwt>
<pdfrwt beam="2">  1       -2 0.13909291E+00 0.26137321E+04</pdfrwt>
<totfact> 0.24855398E+00</totfact>
</mgrwt>
</event>
<event>
12    1  0.1106125E-012  0.2493197E+04  0.7818608E-02  0.8405413E-01
          1   -1    0    0  501    0  0.00000000000E+00  0.00000000000E+00  0.71667974866E+03  0.71667974866E+03  0.00000000000E+00 0. -1.
         -1   -1    0    0    0  501 -0.00000000000E+00 -0.00000000000E+00 -0.21683427405E+04  0.21683427405E+04  0.00000000000E+00 0.  1.
    9900016    2    1    2    0    0  0.95676322929E+02  0.70436046661E+02 -0.10611436160E+04  0.24077131831E+04  0.21579948570E+04 0.  0.
         24    2    3    3    0    0 -0.22520383069E+03 -0.79149740994E+03 -0.30325116631E+03  0.88076184631E+03  0.81211112186E+02 0.  0.
         23    2    3    3    0    0 -0.26708285088E+03  0.53045278218E+02 -0.33575266214E+03  0.44150093259E+03  0.89700460261E+02 0.  0.
        -15    1    5    5    0    0 -0.15410183284E+03  0.63182750588E+02 -0.15160347332E+03  0.22521777901E+03  0.00000000000E+00 0. -1.
        -15    1    4    4    0    0 -0.14792123126E+03 -0.52241844688E+03 -0.15861964843E+03  0.56565176316E+03  0.00000000000E+00 0.  1.
         15    1    5    5    0    0 -0.11298101804E+03 -0.10137472369E+02 -0.18414918882E+03  0.21628315359E+03  0.00000000000E+00 0.  1.
         15    1    3    3    0    0  0.58796300450E+03  0.80888817838E+03 -0.42213978752E+03  0.10854504042E+04  0.00000000000E+00 0. -1.
        -16    1    1    2    0    0 -0.78620794456E+02 -0.64625099947E+02 -0.36780197191E+03  0.38162275012E+03  0.00000000000E+00 0.  1.
         16    1    4    4    0    0 -0.77282599435E+02 -0.26907896306E+03 -0.14463151789E+03  0.31511008315E+03  0.00000000000E+00 0. -1.
    9900018    1    1    2    0    0 -0.17055528474E+02 -0.58109467139E+01 -0.22717403981E+02  0.95686555955E+02  0.91187600000E+02 0.  0.
<mgrwt>
<rscale>  0 0.24931966E+04</rscale>
<asrwt>0</asrwt>
<pdfrwt beam="1">  1        1 0.11025842E+00 0.24931966E+04</pdfrwt>
<pdfrwt beam="2">  1       -1 0.33359119E+00 0.24931966E+04</pdfrwt>
<totfact> 0.46591568E-01</totfact>
</mgrwt>
</event>
<event>
12    1  0.1106125E-012  0.2695623E+04  0.7818608E-02  0.8336426E-01
         -2   -1    0    0    0  501 -0.00000000000E+00  0.00000000000E+00  0.18125243533E+04  0.18125243533E+04  0.00000000000E+00 0.  1.
          2   -1    0    0  501    0  0.00000000000E+00 -0.00000000000E+00 -0.10022465731E+04  0.10022465731E+04  0.00000000000E+00 0. -1.
    9900016    2    1    2    0    0  0.36245750044E+03 -0.41213679222E+02  0.64834492745E+03  0.22774115796E+04  0.21524819049E+04 0.  0.
         24    2    3    3    0    0  0.93085110488E+03 -0.94018816305E+02 -0.37068079299E+03  0.10096601114E+04  0.81767799165E+02 0.  0.
         23    2    3    3    0    0  0.52420251325E+02 -0.41875362515E+02  0.24404338480E+03  0.27026870592E+03  0.94797526334E+02 0.  0.
        -15    1    4    4    0    0  0.33800377142E+03 -0.38835106019E+02 -0.93168871386E+02  0.35275367262E+03  0.00000000000E+00 0.  1.
        -15    1    5    5    0    0  0.24107642803E+02  0.29160546580E+02  0.59522680344E+02  0.70529890073E+02  0.00000000000E+00 0. -1.
         15    1    3    3    0    0 -0.62081385576E+03  0.94680499597E+02  0.77498233563E+03  0.99748276228E+03  0.00000000000E+00 0. -1.
         15    1    5    5    0    0  0.28312608522E+02 -0.71035909095E+02  0.18452070445E+03  0.19973881584E+03  0.00000000000E+00 0.  1.
        -16    1    1    2    0    0 -0.39738971300E+03  0.62895603089E+02  0.85121319907E+02  0.41124211845E+03  0.00000000000E+00 0.  1.
         16    1    4    4    0    0  0.59284733346E+03 -0.55183710286E+02 -0.27751192160E+03  0.65690643877E+03  0.00000000000E+00 0. -1.
    9900018    1    1    2    0    0  0.34932212561E+02 -0.21681923867E+02  0.76811532882E+02  0.12611722830E+03  0.91187600000E+02 0.  0.
<mgrwt>
<rscale>  0 0.26956234E+04</rscale>
<asrwt>0</asrwt>
<pdfrwt beam="1">  1        2 0.15419178E+00 0.26956234E+04</pdfrwt>
<pdfrwt beam="2">  1       -2 0.27884990E+00 0.26956234E+04</pdfrwt>
<totfact> 0.94291830E-01</totfact>
</mgrwt>
</event>
<event>
12    1  0.1106125E-012  0.3825848E+04  0.7818608E-02  0.8040631E-01
         -1   -1    0    0    0  501 -0.00000000000E+00  0.00000000000E+00  0.27647988960E+04  0.27647988960E+04  0.00000000000E+00 0.  1.
          1   -1    0    0  501    0  0.00000000000E+00 -0.00000000000E+00 -0.13235241294E+04  0.13235241294E+04  0.00000000000E+00 0. -1.
    9900016    2    1    2    0    0  0.54402878646E+03  0.27621234911E+03  0.21373549278E+04  0.31626944967E+04  0.22499088448E+04 0.  0.
        -24    2    3    3    0    0  0.55584158818E+03 -0.55043977580E+03  0.46910309754E+02  0.78786978923E+03  0.81205970773E+02 0.  0.
         23    2    3    3    0    0  0.19656719901E+03  0.40069800190E+02  0.50071045149E+03  0.54688267704E+03  0.90141297966E+02 0.  0.
        -15    1    5    5    0    0  0.71663825203E+02  0.30109633657E+01  0.29333393385E+03  0.30197610252E+03  0.00000000000E+00 0.  1.
        -15    1    3    3    0    0 -0.20271001376E+03  0.78477574457E+03  0.14439412632E+04  0.16558776195E+04  0.00000000000E+00 0.  1.
         15    1    5    5    0    0  0.12490337381E+03  0.37058836824E+02  0.20737651764E+03  0.24490657452E+03  0.00000000000E+00 0. -1.
         15    1    4    4    0    0  0.41857068052E+03 -0.37588741964E+03  0.57812843739E+02  0.56553964647E+03  0.00000000000E+00 0. -1.
        -16    1    4    4    0    0  0.13727090766E+03 -0.17455235616E+03 -0.10902533985E+02  0.22233014276E+03  0.00000000000E+00 0.  1.
         16    1    1    2    0    0 -0.54402878646E+03 -0.27621234911E+03 -0.69608016116E+03  0.92562852866E+03  0.00000000000E+00 0. -1.
    9900018    1    3    3    0    0 -0.56699869720E+01  0.18065801462E+01  0.14579290329E+03  0.17206441099E+03  0.91187600000E+02 0.  0.
<mgrwt>
<rscale>  0 0.38258479E+04</rscale>
<asrwt>0</asrwt>
<pdfrwt beam="1">  1        1 0.20361910E+00 0.38258479E+04</pdfrwt>
<pdfrwt beam="2">  1       -1 0.42535368E+00 0.38258479E+04</pdfrwt>
<totfact> 0.33063342E-02</totfact>
</mgrwt>
</event>
<event>
12    1  0.1492122E-012  0.2620299E+04  0.7818608E-02  0.8361339E-01
          2   -1    0    0  501    0  0.00000000000E+00  0.00000000000E+00  0.20960634058E+04  0.20960634058E+04  0.00000000000E+00 0. -1.
         -2   -1    0    0    0  501 -0.00000000000E+00 -0.00000000000E+00 -0.81891207410E+03  0.81891207410E+03  0.00000000000E+00 0.  1.
    9900016    2    1    2    0    0  0.34374589954E+02 -0.26817194810E+03  0.86772819590E+03  0.24243380269E+04  0.22475241579E+04 0.  0.
        -24    2    3    3    0    0  0.11727478298E+03 -0.89766266202E+03  0.64107823251E+03  0.11120208843E+04  0.77830054552E+02 0.  0.
         23    2    3    3    0    0  0.61174856253E+02 -0.25654435629E+03  0.11946784770E+03  0.30369808944E+03  0.91665659402E+02 0.  0.
        -15    1    5    5    0    0 -0.15066660065E+02 -0.11716002273E+03  0.32201390281E+02  0.12243530825E+03  0.00000000000E+00 0.  1.
        -15    1    3    3    0    0 -0.14964117872E+03  0.89758235861E+03  0.10929399443E+03  0.91651063827E+03  0.00000000000E+00 0.  1.
         15    1    4    4    0    0  0.30409830147E+02 -0.32191198496E+03  0.27290941471E+03  0.42312129758E+03  0.00000000000E+00 0. -1.
         15    1    5    5    0    0  0.76241516319E+02 -0.13938433356E+03  0.87266457416E+02  0.18126278118E+03  0.00000000000E+00 0. -1.
        -16    1    4    4    0    0  0.86864952837E+02 -0.57575067706E+03  0.36816881780E+03  0.68889958671E+03  0.00000000000E+00 0.  1.
         16    1    1    2    0    0 -0.34374589954E+02  0.26817194810E+03  0.40942313575E+03  0.49063745298E+03  0.00000000000E+00 0. -1.
    9900018    1    3    3    0    0  0.55661294364E+01 -0.11547288401E+02 -0.21118787279E+01  0.92108414881E+02  0.91187600000E+02 0.  0.
<mgrwt>
<rscale>  0 0.26202989E+04</rscale>
<asrwt>0</asrwt>
<pdfrwt beam="1">  1        2 0.32247129E+00 0.26202989E+04</pdfrwt>
<pdfrwt beam="2">  1       -2 0.12598647E+00 0.26202989E+04</pdfrwt>
<totfact> 0.24515990E+00</totfact>
</mgrwt>
</event>
<event>
12    1  0.1106125E-012  0.2926425E+04  0.7818608E-02  0.8265058E-01
         -2   -1    0    0    0  501 -0.00000000000E+00  0.00000000000E+00  0.18405593123E+04  0.18405593123E+04  0.00000000000E+00 0.  1.
          2   -1    0    0  501    0  0.00000000000E+00 -0.00000000000E+00 -0.11632284152E+04  0.11632284152E+04  0.00000000000E+00 0. -1.
    9900016    2    1    2    0    0 -0.36707362777E+03 -0.31779365337E+03  0.91572979307E+03  0.24628904287E+04  0.22341737523E+04 0.  0.
        -24    2    3    3    0    0  0.75930963801E+03 -0.26683331488E+03  0.55963115127E+03  0.98351914884E+03  0.79823219401E+02 0.  0.
         23    2    3    3    0    0 -0.28053036748E+03  0.16350272405E+03 -0.18575797582E+03  0.38618819213E+03  0.95941994481E+02 0.  0.
        -15    1    3    3    0    0 -0.82406091633E+03 -0.19047126536E+03  0.52347419151E+03  0.99467629203E+03  0.00000000000E+00 0.  1.
        -15    1    5    5    0    0 -0.28176608831E+03  0.14308051355E+03 -0.16296084929E+03  0.35555646567E+03  0.00000000000E+00 0. -1.
         15    1    5    5    0    0  0.12357208254E+01  0.20422210501E+02 -0.22797126530E+02  0.30631726457E+02  0.00000000000E+00 0.  1.
         15    1    4    4    0    0  0.37583476404E+03 -0.16263023680E+03  0.25044493495E+03  0.48002398817E+03  0.00000000000E+00 0. -1.
        -16    1    4    4    0    0  0.38347487398E+03 -0.10420307808E+03  0.30918621632E+03  0.50349516067E+03  0.00000000000E+00 0.  1.
         16    1    1    2    0    0  0.36707362777E+03  0.31779365337E+03 -0.23839889590E+03  0.54089729884E+03  0.00000000000E+00 0. -1.
    9900018    1    3    3    0    0 -0.21791981964E+02 -0.23991797182E+02  0.18382426112E+02  0.98506795671E+02  0.91187600000E+02 0.  0.
<mgrwt>
<rscale>  0 0.29264250E+04</rscale>
<asrwt>0</asrwt>
<pdfrwt beam="1">  1        2 0.17895822E+00 0.29264250E+04</pdfrwt>
<pdfrwt beam="2">  1       -2 0.28316297E+00 0.29264250E+04</pdfrwt>
<totfact> 0.69140198E-01</totfact>
</mgrwt>
</event>
<event>
12    1  0.1106125E-012  0.2513791E+04  0.7818608E-02  0.8398089E-01
          2   -1    0    0  501    0  0.00000000000E+00  0.00000000000E+00  0.25468534483E+04  0.25468534483E+04  0.00000000000E+00 0. -1.
         -2   -1    0    0    0  501 -0.00000000000E+00 -0.00000000000E+00 -0.62028963838E+03  0.62028963838E+03  0.00000000000E+00 0.  1.
    9900016    2    1    2    0    0  0.44992299426E+02 -0.25080828887E+03  0.16946275429E+04  0.28225802670E+04  0.22428258402E+04 0.  0.
         24    2    3    3    0    0 -0.59428467706E+03 -0.21449642899E+03  0.16464285150E+04  0.17652649921E+04  0.79061000037E+02 0.  0.
         23    2    3    3    0    0  0.33016626741E+03 -0.14781821703E+03  0.27381955067E+03  0.46290847857E+03  0.91908235682E+02 0.  0.
        -15    1    5    5    0    0  0.23575608867E+03 -0.12495703739E+03  0.15193231768E+03  0.30704824327E+03  0.00000000000E+00 0. -1.
        -15    1    4    4    0    0 -0.53599663464E+03 -0.16814327191E+03  0.14298867424E+04  0.15362749260E+04  0.00000000000E+00 0.  1.
         15    1    3    3    0    0  0.33105975802E+03  0.10821778051E+03 -0.31144140424E+03  0.46723377411E+03  0.00000000000E+00 0. -1.
         15    1    5    5    0    0  0.94410178739E+02 -0.22861179640E+02  0.12188723299E+03  0.15586023531E+03  0.00000000000E+00 0.  1.
        -16    1    1    2    0    0 -0.44992299426E+02  0.25080828887E+03  0.23193626695E+03  0.34456281967E+03  0.00000000000E+00 0.  1.
         16    1    4    4    0    0 -0.58288042420E+02 -0.46353157075E+02  0.21654177260E+03  0.22899006604E+03  0.00000000000E+00 0. -1.
    9900018    1    3    3    0    0 -0.21949048943E+02  0.32885766449E+01  0.85820881459E+02  0.12717302219E+03  0.91187600000E+02 0.  0.
<mgrwt>
<rscale>  0 0.25137914E+04</rscale>
<asrwt>0</asrwt>
<pdfrwt beam="1">  1        2 0.39182360E+00 0.25137914E+04</pdfrwt>
<pdfrwt beam="2">  1       -2 0.95429176E-01 0.25137914E+04</pdfrwt>
<totfact> 0.26855489E+00</totfact>
</mgrwt>
</event>
<event>
12    1  0.1106125E-012  0.2883936E+04  0.7818608E-02  0.8277673E-01
          2   -1    0    0  501    0  0.00000000000E+00  0.00000000000E+00  0.27465364403E+04  0.27465364403E+04  0.00000000000E+00 0.  1.
         -2   -1    0    0    0  501 -0.00000000000E+00 -0.00000000000E+00 -0.75705219273E+03  0.75705219273E+03  0.00000000000E+00 0. -1.
    9900016    2    1    2    0    0  0.13825816721E+03 -0.36054556966E+03  0.11088872463E+04  0.25420484585E+04  0.22546110556E+04 0.  0.
         24    2    3    3    0    0 -0.44950010519E+03  0.42549602957E+03  0.92639892764E+03  0.11172423316E+04  0.83175949693E+02 0.  0.
         23    2    3    3    0    0 -0.12254861495E+02 -0.27339216814E+03  0.39907825125E+03  0.49261822265E+03  0.92281110934E+02 0.  0.
        -15    1    4    4    0    0 -0.37276370981E+03  0.33872005522E+03  0.69323775270E+03  0.85689126552E+03  0.00000000000E+00 0.  1.
        -15    1    5    5    0    0 -0.24581453461E+00 -0.27488175463E+03  0.39141551145E+03  0.47829503662E+03  0.00000000000E+00 0.  1.
         15    1    5    5    0    0 -0.12009046961E+02  0.14895864852E+01  0.76627397970E+01  0.14323186028E+02  0.00000000000E+00 0. -1.
         15    1    3    3    0    0  0.63679655222E+03 -0.46587086132E+03 -0.23152062591E+03  0.82228176957E+03  0.00000000000E+00 0. -1.
        -16    1    1    2    0    0 -0.13825816721E+03  0.36054556966E+03  0.88059700125E+03  0.96154017452E+03  0.00000000000E+00 0.  1.
         16    1    4    4    0    0 -0.76736395377E+02  0.86775974348E+02  0.23316117494E+03  0.26035106606E+03  0.00000000000E+00 0. -1.
    9900018    1    3    3    0    0 -0.36783418330E+02 -0.46778569771E+02  0.14930693373E+02  0.10990613473E+03  0.91187600000E+02 0.  0.
<mgrwt>
<rscale>  0 0.28839358E+04</rscale>
<asrwt>0</asrwt>
<pdfrwt beam="1">  1        2 0.42254406E+00 0.28839358E+04</pdfrwt>
<pdfrwt beam="2">  1       -2 0.11646957E+00 0.28839358E+04</pdfrwt>
<totfact> 0.12298554E+00</totfact>
</mgrwt>
</event>
