<event>
11    1  0.1244266E-009  0.3477355E+04  0.7818608E-02  0.8119178E-01
          1   -1    0    0  501    0  0.00000000000E+00  0.00000000000E+00  0.14616680610E+04  0.14616680610E+04  0.00000000000E+00 0. -1.
         -1   -1    0    0    0  501 -0.00000000000E+00 -0.00000000000E+00 -0.20681845831E+04  0.20681845831E+04  0.00000000000E+00 0.  1.
    9900016    2    1    2    0    0  0.20536938938E+03  0.44293244303E+03  0.49674613631E+02  0.22517778016E+04  0.21976510108E+04 0.  0.
        -24    2    3    3    0    0 -0.11654845847E+03  0.36619061201E+03 -0.84152250636E+03  0.92690294438E+03  0.57531140307E+02 0.  0.
        -15    1    3    3    0    0  0.34111761219E+02  0.14768142562E+03 -0.22366084199E+02  0.15321115315E+03  0.00000000000E+00 0.  1.
        -15    1    3    3    0    0 -0.13376595487E+03  0.19173857969E+03  0.34415309974E+03  0.41605092199E+03  0.00000000000E+00 0.  1.
         15    1    4    4    0    0 -0.66554425605E+02  0.27694401440E+03 -0.58238276485E+03  0.64830329590E+03  0.00000000000E+00 0. -1.
         15    1    3    3    0    0  0.42157204150E+03 -0.26267817429E+03  0.56941010444E+03  0.75561278209E+03  0.00000000000E+00 0. -1.
        -16    1    4    4    0    0 -0.49994032861E+02  0.89246597606E+02 -0.25913974150E+03  0.27859964848E+03  0.00000000000E+00 0.  1.
         16    1    1    2    0    0 -0.46770160692E+03 -0.49345911240E+03 -0.14658845634E+03  0.69551050622E+03  0.00000000000E+00 0. -1.
    9900018    1    1    2    0    0  0.26233221754E+03  0.50526669374E+02 -0.50960267936E+03  0.58256433626E+03  0.91187600000E+02 0.  0.
<mgrwt>
<rscale>  0 0.34773549E+04</rscale>
<asrwt>0</asrwt>
<pdfrwt beam="1">  1        1 0.22487201E+00 0.34773549E+04</pdfrwt>
<pdfrwt beam="2">  1       -1 0.31818224E+00 0.34773549E+04</pdfrwt>
<totfact> 0.14297627E-01</totfact>
</mgrwt>
</event>
<event>
11    1  0.1244266E-009  0.3945421E+04  0.7818608E-02  0.8015648E-01
         -2   -1    0    0    0  501 -0.00000000000E+00  0.00000000000E+00  0.14010998534E+04  0.14010998534E+04  0.00000000000E+00 0. -1.
          2   -1    0    0  501    0  0.00000000000E+00 -0.00000000000E+00 -0.27775220732E+04  0.27775220732E+04  0.00000000000E+00 0.  1.
    9900016    2    1    2    0    0 -0.10300780139E+04  0.65576686971E+03 -0.12815464566E+04  0.28248266518E+04  0.22014071386E+04 0.  0.
        -24    2    3    3    0    0 -0.30107226170E+03  0.81481879158E+03  0.24361969037E+03  0.90685297441E+03  0.91965177007E+02 0.  0.
        -15    1    3    3    0    0 -0.48933460304E+03 -0.29010050563E+03 -0.46780442839E+03  0.73651044821E+03  0.00000000000E+00 0.  1.
        -15    1    3    3    0    0 -0.18041451983E+03  0.23667443340E+03 -0.33116004771E+03  0.44523158422E+03  0.00000000000E+00 0.  1.
         15    1    3    3    0    0 -0.59256629349E+02 -0.10562584963E+03 -0.72620167090E+03  0.73623164497E+03  0.00000000000E+00 0. -1.
         15    1    4    4    0    0 -0.10881554565E+03  0.42545212250E+03  0.13014032524E+03  0.45802492920E+03  0.00000000000E+00 0. -1.
        -16    1    4    4    0    0 -0.19225671605E+03  0.38936666908E+03  0.11347936513E+03  0.44882804521E+03  0.00000000000E+00 0.  1.
         16    1    1    2    0    0  0.66124118233E+03 -0.94510026843E+02 -0.10376173751E+03  0.67597229570E+03  0.00000000000E+00 0. -1.
    9900018    1    1    2    0    0  0.36883683159E+03 -0.56125684286E+03  0.88859743567E+01  0.67782297905E+03  0.91187600000E+02 0.  0.
<mgrwt>
<rscale>  0 0.39454205E+04</rscale>
<asrwt>0</asrwt>
<pdfrwt beam="1">  1        2 0.42731108E+00 0.39454205E+04</pdfrwt>
<pdfrwt beam="2">  1       -2 0.21555383E+00 0.39454205E+04</pdfrwt>
<totfact> 0.19937188E-01</totfact>
</mgrwt>
</event>
<event>
11    1  0.1244266E-009  0.3731467E+04  0.7818608E-02  0.8061024E-01
          2   -1    0    0  501    0  0.00000000000E+00  0.00000000000E+00  0.22028374830E+04  0.22028374830E+04  0.00000000000E+00 0. -1.
         -2   -1    0    0    0  501 -0.00000000000E+00 -0.00000000000E+00 -0.15802167852E+04  0.15802167852E+04  0.00000000000E+00 0.  1.
    9900016    2    1    2    0    0  0.40612499542E+03  0.18814816304E+03  0.93705994181E+03  0.24293785619E+04  0.21962380607E+04 0.  0.
         24    2    3    3    0    0  0.37829331940E+03 -0.29913324196E+03  0.46540695630E+03  0.67728750316E+03  0.97612473703E+02 0.  0.
        -15    1    3    3    0    0 -0.52863472643E+02 -0.12513521757E+03 -0.17937295494E+03  0.22500672519E+03  0.00000000000E+00 0.  1.
        -15    1    4    4    0    0  0.12001476490E+03 -0.10046157391E+03  0.21698446660E+03  0.26754126854E+03  0.00000000000E+00 0.  1.
         15    1    3    3    0    0 -0.89904037967E+02  0.21926754020E+03 -0.35884657146E+03  0.43003703570E+03  0.00000000000E+00 0. -1.
         15    1    3    3    0    0  0.17059918663E+03  0.39314908239E+03  0.10098725119E+04  0.10970472979E+04  0.00000000000E+00 0. -1.
        -16    1    1    2    0    0  0.76279443604E+02 -0.16927928255E+03 -0.70311312322E+03  0.72721530035E+03  0.00000000000E+00 0.  1.
         16    1    4    4    0    0  0.25827855450E+03 -0.19867166805E+03  0.24842248970E+03  0.40974623462E+03  0.00000000000E+00 0. -1.
    9900018    1    1    2    0    0 -0.48240443903E+03 -0.18868880494E+02  0.38867387924E+03  0.62646040596E+03  0.91187600000E+02 0.  0.
<mgrwt>
<rscale>  0 0.37314666E+04</rscale>
<asrwt>0</asrwt>
<pdfrwt beam="1">  1        2 0.33889807E+00 0.37314666E+04</pdfrwt>
<pdfrwt beam="2">  1       -2 0.24311028E+00 0.37314666E+04</pdfrwt>
<totfact> 0.29399457E-01</totfact>
</mgrwt>
</event>
<event>
10    1  0.1244266E-009  0.4263757E+04  0.7818608E-02  0.7953354E-01
         -2   -1    0    0    0  501 -0.00000000000E+00  0.00000000000E+00  0.16983239641E+04  0.16983239641E+04  0.00000000000E+00 0.  1.
          2   -1    0    0  501    0  0.00000000000E+00 -0.00000000000E+00 -0.26761123151E+04  0.26761123151E+04  0.00000000000E+00 0. -1.
    9900016    2    1    2    0    0 -0.91254311892E+03 -0.22107557079E+03 -0.29587413221E+03  0.24103080996E+04  0.22000986980E+04 0.  0.
        -15    1    3    3    0    0 -0.13955273395E+03  0.31364379745E+03 -0.97629330007E+01  0.34342788485E+03  0.00000000000E+00 0.  1.
        -15    1    3    3    0    0 -0.67899261915E+03 -0.64743180582E+03 -0.24050315308E+02  0.93849738290E+03  0.00000000000E+00 0.  1.
         15    1    3    3    0    0 -0.46933310853E+03 -0.74697212715E+02  0.17568515870E+03  0.50667397342E+03  0.00000000000E+00 0. -1.
         15    1    3    3    0    0  0.66810955736E+02  0.74371964121E+02 -0.17271955144E+03  0.19956687176E+03  0.00000000000E+00 0. -1.
        -16    1    3    3    0    0  0.30852438698E+03  0.11303768616E+03 -0.26502649116E+03  0.42214198663E+03  0.00000000000E+00 0.  1.
         16    1    1    2    0    0  0.12410539964E+04 -0.92789181004E+02 -0.80808167574E+03  0.14838533784E+04  0.00000000000E+00 0. -1.
    9900018    1    1    2    0    0 -0.32851087745E+03  0.31386475180E+03  0.12616745693E+03  0.48027480114E+03  0.91187600000E+02 0.  0.
<mgrwt>
<rscale>  0 0.42637569E+04</rscale>
<asrwt>0</asrwt>
<pdfrwt beam="1">  1        2 0.41170959E+00 0.42637569E+04</pdfrwt>
<pdfrwt beam="2">  1       -2 0.26128061E+00 0.42637569E+04</pdfrwt>
<totfact> 0.11610160E-01</totfact>
</mgrwt>
</event>
<event>
11    1  0.1244266E-009  0.4610272E+04  0.7818608E-02  0.7891611E-01
         -2   -1    0    0    0  501 -0.00000000000E+00  0.00000000000E+00  0.16239806522E+04  0.16239806522E+04  0.00000000000E+00 0.  1.
          2   -1    0    0  501    0  0.00000000000E+00 -0.00000000000E+00 -0.32719915806E+04  0.32719915806E+04  0.00000000000E+00 0. -1.
    9900016    2    1    2    0    0 -0.82788990486E+02 -0.28750421313E+03 -0.14189101875E+04  0.26352393129E+04  0.22003789280E+04 0.  0.
         24    2    3    3    0    0  0.32512705473E+03 -0.29875319031E+03 -0.12686032825E+04  0.13469627186E+04  0.99966026889E+02 0.  0.
        -15    1    3    3    0    0  0.80621698615E+02  0.14139898459E+03  0.16052496657E+03  0.22860839010E+03  0.00000000000E+00 0.  1.
        -15    1    4    4    0    0  0.24383957976E+03 -0.17861442632E+03 -0.75463664472E+03  0.81291901165E+03  0.00000000000E+00 0.  1.
         15    1    3    3    0    0 -0.53698807499E+03  0.14771274437E+03 -0.47615396770E+03  0.73273313593E+03  0.00000000000E+00 0. -1.
         15    1    3    3    0    0  0.48450331160E+02 -0.27786275178E+03  0.16532209610E+03  0.32693506829E+03  0.00000000000E+00 0. -1.
        -16    1    1    2    0    0 -0.42210328903E+03  0.58374900520E+03  0.79797628095E+03  0.10750349914E+04  0.00000000000E+00 0.  1.
         16    1    4    4    0    0  0.81287474974E+02 -0.12013876400E+03 -0.51396663774E+03  0.53404370693E+03  0.00000000000E+00 0. -1.
    9900018    1    1    2    0    0  0.50489227951E+03 -0.29624479207E+03 -0.10270770218E+04  0.11856979286E+04  0.91187600000E+02 0.  0.
<mgrwt>
<rscale>  0 0.46102716E+04</rscale>
<asrwt>0</asrwt>
<pdfrwt beam="1">  1        2 0.50338332E+00 0.46102716E+04</pdfrwt>
<pdfrwt beam="2">  1       -2 0.24984318E+00 0.46102716E+04</pdfrwt>
<totfact> 0.56171413E-02</totfact>
</mgrwt>
</event>
<event>
11    1  0.1244266E-009  0.3192730E+04  0.7818608E-02  0.8190740E-01
          1   -1    0    0  501    0  0.00000000000E+00  0.00000000000E+00  0.19909547461E+04  0.19909547461E+04  0.00000000000E+00 0. -1.
         -1   -1    0    0    0  501 -0.00000000000E+00 -0.00000000000E+00 -0.12799792086E+04  0.12799792086E+04  0.00000000000E+00 0.  1.
    9900016    2    1    2    0    0  0.41211983853E+03 -0.39719190970E+03  0.61142488642E+03  0.23571370084E+04  0.22033271001E+04 0.  0.
        -24    2    3    3    0    0  0.19743098306E+01  0.15306104652E+03  0.31533463697E+03  0.36246278596E+03  0.92259178813E+02 0.  0.
        -15    1    3    3    0    0  0.22232457192E+03  0.53257203807E+02 -0.16781687093E+02  0.22922951394E+03  0.00000000000E+00 0.  1.
        -15    1    3    3    0    0  0.48396695496E+03 -0.10737939019E+04  0.26765740166E+03  0.12078484350E+04  0.00000000000E+00 0.  1.
         15    1    3    3    0    0 -0.29614599818E+03  0.47028374186E+03  0.45214534887E+02  0.55759627354E+03  0.00000000000E+00 0. -1.
         15    1    4    4    0    0 -0.23536440018E+02  0.23537894622E+02  0.19666079181E+02  0.38662011876E+02  0.00000000000E+00 0. -1.
        -16    1    4    4    0    0  0.25510749849E+02  0.12952315189E+03  0.29566855778E+03  0.32380077408E+03  0.00000000000E+00 0.  1.
         16    1    1    2    0    0 -0.47884355037E+03  0.65214242582E+02  0.23561989669E+03  0.53764372858E+03  0.00000000000E+00 0. -1.
    9900018    1    1    2    0    0  0.66723711839E+02  0.33197766711E+03 -0.13606924561E+03  0.37615321769E+03  0.91187600000E+02 0.  0.
<mgrwt>
<rscale>  0 0.31927297E+04</rscale>
<asrwt>0</asrwt>
<pdfrwt beam="1">  1        1 0.30630073E+00 0.31927297E+04</pdfrwt>
<pdfrwt beam="2">  1       -1 0.19691988E+00 0.31927297E+04</pdfrwt>
<totfact> 0.40000431E-01</totfact>
</mgrwt>
</event>
<event>
11    1  0.1244266E-009  0.4438948E+04  0.7818608E-02  0.7921413E-01
          1   -1    0    0  501    0  0.00000000000E+00  0.00000000000E+00  0.42559044180E+04  0.42559044180E+04  0.00000000000E+00 0. -1.
         -1   -1    0    0    0  501 -0.00000000000E+00 -0.00000000000E+00 -0.11574660150E+04  0.11574660150E+04  0.00000000000E+00 0.  1.
    9900016    2    1    2    0    0  0.59654790536E+02  0.86458808013E+03  0.28583197523E+04  0.36969975928E+04  0.21786987291E+04 0.  0.
        -24    2    3    3    0    0  0.15410556675E+03  0.17494948906E+03  0.10989802783E+04  0.11251183199E+04  0.61463260433E+02 0.  0.
        -15    1    3    3    0    0 -0.51484868790E+03  0.18056321018E+03  0.51688169178E+03  0.75155766751E+03  0.00000000000E+00 0.  1.
        -15    1    3    3    0    0  0.70456388306E+03  0.84427176026E+02  0.10643547855E+04  0.12792143381E+04  0.00000000000E+00 0.  1.
         15    1    4    4    0    0  0.41677829336E+02  0.93160354444E+02  0.47246150203E+03  0.48335883565E+03  0.00000000000E+00 0. -1.
         15    1    3    3    0    0 -0.28416597136E+03  0.42464820487E+03  0.17810299671E+03  0.54110726720E+03  0.00000000000E+00 0. -1.
        -16    1    4    4    0    0  0.11242773741E+03  0.81789134616E+02  0.62651877625E+03  0.64175948429E+03  0.00000000000E+00 0.  1.
         16    1    1    2    0    0 -0.59353668135E+03 -0.69021344342E+03 -0.27280422503E+03  0.95031707066E+03  0.00000000000E+00 0. -1.
    9900018    1    1    2    0    0  0.53388189082E+03 -0.17437463671E+03  0.51292287577E+03  0.76605576961E+03  0.91187600000E+02 0.  0.
<mgrwt>
<rscale>  0 0.44389480E+04</rscale>
<asrwt>0</asrwt>
<pdfrwt beam="1">  1        1 0.65475452E+00 0.44389480E+04</pdfrwt>
<pdfrwt beam="2">  1       -1 0.17807170E+00 0.44389480E+04</pdfrwt>
<totfact> 0.90495135E-03</totfact>
</mgrwt>
</event>
<event>
11    1  0.1244266E-009  0.3940156E+04  0.7818608E-02  0.8016729E-01
         -2   -1    0    0    0  501 -0.00000000000E+00  0.00000000000E+00  0.14919855811E+04  0.14919855811E+04  0.00000000000E+00 0.  1.
          2   -1    0    0  501    0  0.00000000000E+00 -0.00000000000E+00 -0.26013704195E+04  0.26013704195E+04  0.00000000000E+00 0. -1.
    9900016    2    1    2    0    0  0.19382079083E+03 -0.44795226677E+02 -0.93743195851E+03  0.23916134954E+04  0.21912241609E+04 0.  0.
         24    2    3    3    0    0 -0.14824941935E+03 -0.54231059961E+02 -0.19612475940E+03  0.26767138016E+03  0.90907361129E+02 0.  0.
        -15    1    3    3    0    0 -0.76316879567E+02 -0.67474715335E+03 -0.17547609853E+03  0.70135572159E+03  0.00000000000E+00 0.  1.
        -15    1    4    4    0    0 -0.54866211323E+02 -0.10266692570E+02 -0.12768425900E+02  0.57260272626E+02  0.00000000000E+00 0.  1.
         15    1    3    3    0    0 -0.38543522616E+02  0.81146963031E+03 -0.47042248271E+03  0.93875762383E+03  0.00000000000E+00 0. -1.
         15    1    3    3    0    0  0.45693061236E+03 -0.12728664368E+03 -0.95408617878E+02  0.48382876986E+03  0.00000000000E+00 0. -1.
        -16    1    1    2    0    0 -0.11498560432E+03 -0.25942689580E+03  0.70808793490E+03  0.76283191269E+03  0.00000000000E+00 0.  1.
         16    1    4    4    0    0 -0.93383208032E+02 -0.43964367392E+02 -0.18335633350E+03  0.21041110754E+03  0.00000000000E+00 0. -1.
    9900018    1    1    2    0    0 -0.78835186510E+02  0.30422212247E+03 -0.88004081486E+03  0.93891059246E+03  0.91187600000E+02 0.  0.
<mgrwt>
<rscale>  0 0.39401559E+04</rscale>
<asrwt>0</asrwt>
<pdfrwt beam="1">  1        2 0.40021083E+00 0.39401559E+04</pdfrwt>
<pdfrwt beam="2">  1       -2 0.22953625E+00 0.39401559E+04</pdfrwt>
<totfact> 0.20723793E-01</totfact>
</mgrwt>
</event>
<event>
11    1  0.1244266E-009  0.3197320E+04  0.7818608E-02  0.8189525E-01
          2   -1    0    0  501    0  0.00000000000E+00  0.00000000000E+00  0.31013413125E+04  0.31013413125E+04  0.00000000000E+00 0. -1.
         -2   -1    0    0    0  501 -0.00000000000E+00 -0.00000000000E+00 -0.82406747470E+03  0.82406747470E+03  0.00000000000E+00 0.  1.
    9900016    2    1    2    0    0  0.46161386608E+03 -0.31464175427E+03  0.16640817200E+04  0.28146384851E+04  0.22002124980E+04 0.  0.
         24    2    3    3    0    0 -0.44764194295E+03  0.31416446302E+03  0.18686841228E+03  0.58091751022E+03  0.58844976445E+02 0.  0.
        -15    1    4    4    0    0 -0.11805994628E+03  0.67076872939E+02  0.69866657050E+02  0.15270496903E+03  0.00000000000E+00 0.  1.
        -15    1    3    3    0    0  0.32682041001E+03  0.17890586633E+03  0.21615619198E+03  0.43074631599E+03  0.00000000000E+00 0.  1.
         15    1    3    3    0    0  0.17809839003E+03 -0.65738385849E+03  0.28969265352E+03  0.74013134472E+03  0.00000000000E+00 0. -1.
         15    1    3    3    0    0  0.40433700900E+03 -0.15032822514E+03  0.97136446217E+03  0.10628433142E+04  0.00000000000E+00 0. -1.
        -16    1    1    2    0    0 -0.21581522880E+03  0.33179566582E+03 -0.48555314718E+02  0.39877587117E+03  0.00000000000E+00 0.  1.
         16    1    4    4    0    0 -0.32958199667E+03  0.24708759008E+03  0.11700175523E+03  0.42821254119E+03  0.00000000000E+00 0. -1.
    9900018    1    1    2    0    0 -0.24579863729E+03 -0.17153911555E+02  0.66174743258E+03  0.71199443095E+03  0.91187600000E+02 0.  0.
<mgrwt>
<rscale>  0 0.31973204E+04</rscale>
<asrwt>0</asrwt>
<pdfrwt beam="1">  1        2 0.47712943E+00 0.31973204E+04</pdfrwt>
<pdfrwt beam="2">  1       -2 0.12677961E+00 0.31973204E+04</pdfrwt>
<totfact> 0.58484147E-01</totfact>
</mgrwt>
</event>
<event>
10    1  0.1244266E-009  0.4405046E+04  0.7818608E-02  0.7927475E-01
          2   -1    0    0  501    0  0.00000000000E+00  0.00000000000E+00  0.26031243440E+04  0.26031243440E+04  0.00000000000E+00 0. -1.
         -2   -1    0    0    0  501 -0.00000000000E+00 -0.00000000000E+00 -0.18635708462E+04  0.18635708462E+04  0.00000000000E+00 0.  1.
    9900016    2    1    2    0    0 -0.15785219681E+03  0.66445119077E+03  0.15447916632E+04  0.27734960730E+04  0.21998832886E+04 0.  0.
        -15    1    3    3    0    0 -0.87979245844E+02 -0.12683987597E+03 -0.20137216638E+01  0.15437861546E+03  0.00000000000E+00 0.  1.
        -15    1    3    3    0    0  0.12447962495E+03 -0.27601531870E+03 -0.64567383264E+02  0.30959421857E+03  0.00000000000E+00 0.  1.
         15    1    3    3    0    0  0.16813618672E+03  0.21048485493E+02  0.34984153589E+03  0.38871829937E+03  0.00000000000E+00 0. -1.
         15    1    3    3    0    0 -0.41143342613E+03  0.11509865113E+04  0.13133339176E+04  0.17941274739E+04  0.00000000000E+00 0. -1.
        -16    1    1    2    0    0  0.21417786959E+03 -0.93325473159E+03 -0.96768169646E+03  0.13613392008E+04  0.00000000000E+00 0.  1.
         16    1    3    3    0    0  0.48944663496E+02 -0.10472861139E+03 -0.51802685357E+02  0.12667746579E+03  0.00000000000E+00 0. -1.
    9900018    1    1    2    0    0 -0.56325672785E+02  0.26880354081E+03  0.16244353100E+03  0.33185991642E+03  0.91187600000E+02 0.  0.
<mgrwt>
<rscale>  0 0.44050456E+04</rscale>
<asrwt>0</asrwt>
<pdfrwt beam="1">  1        2 0.40048067E+00 0.44050456E+04</pdfrwt>
<pdfrwt beam="2">  1       -2 0.28670321E+00 0.44050456E+04</pdfrwt>
<totfact> 0.88676795E-02</totfact>
</mgrwt>
</event>
<event>
11    1  0.1244266E-009  0.4483262E+04  0.7818608E-02  0.7913574E-01
         -2   -1    0    0    0  501 -0.00000000000E+00  0.00000000000E+00  0.31284171043E+04  0.31284171043E+04  0.00000000000E+00 0.  1.
          2   -1    0    0  501    0  0.00000000000E+00 -0.00000000000E+00 -0.16062144595E+04  0.16062144595E+04  0.00000000000E+00 0. -1.
    9900016    2    1    2    0    0 -0.14485825470E+03 -0.11768199742E+04  0.50498552486E+03  0.25473211714E+04  0.21972586567E+04 0.  0.
        -24    2    3    3    0    0  0.92436664532E+01 -0.92187872873E+03  0.77010539351E+03  0.12049891406E+04  0.94819175096E+02 0.  0.
        -15    1    3    3    0    0  0.21678304778E+03 -0.17841409795E+03 -0.51162077978E+03  0.58359429611E+03  0.00000000000E+00 0.  1.
        -15    1    3    3    0    0 -0.15048681345E+03  0.49282703135E+02  0.42163814782E+03  0.45039293239E+03  0.00000000000E+00 0.  1.
         15    1    4    4    0    0  0.46172733439E+02 -0.62277207444E+03  0.49387804105E+03  0.79617366036E+03  0.00000000000E+00 0. -1.
         15    1    3    3    0    0 -0.22039815548E+03 -0.12580985064E+03 -0.17513723669E+03  0.30834480235E+03  0.00000000000E+00 0. -1.
        -16    1    4    4    0    0 -0.36929066986E+02 -0.29910665429E+03  0.27622735245E+03  0.40881548023E+03  0.00000000000E+00 0.  1.
         16    1    1    2    0    0  0.11446231254E+03  0.12562915554E+04  0.10417475656E+03  0.12657892688E+04  0.00000000000E+00 0. -1.
    9900018    1    1    2    0    0  0.30395942157E+02 -0.79471581229E+02  0.91304236335E+03  0.92152112358E+03  0.91187600000E+02 0.  0.
<mgrwt>
<rscale>  0 0.44832617E+04</rscale>
<asrwt>0</asrwt>
<pdfrwt beam="1">  1        2 0.24710992E+00 0.44832617E+04</pdfrwt>
<pdfrwt beam="2">  1       -2 0.48129494E+00 0.44832617E+04</pdfrwt>
<totfact> 0.18234024E-02</totfact>
</mgrwt>
</event>
