<event>
12    1  0.1191331E-012  0.3800640E+04  0.7818608E-02  0.8046018E-01
          2   -1    0    0  501    0  0.00000000000E+00  0.00000000000E+00  0.10783136546E+04  0.10783136546E+04  0.00000000000E+00 0. -1.
         -2   -1    0    0    0  501 -0.00000000000E+00 -0.00000000000E+00 -0.33489474153E+04  0.33489474153E+04  0.00000000000E+00 0.  1.
    9900016    2    1    2    0    0  0.10302833912E+02  0.11137244372E+04 -0.90615466822E+03  0.26659287718E+04  0.22462349974E+04 0.  0.
         23    2    3    3    0    0  0.12787271684E+02 -0.14724863948E+03 -0.62463101792E+03  0.64617606678E+03  0.74390352767E+02 0.  0.
        -24    2    3    3    0    0  0.55036340159E+03  0.11209502968E+04  0.25166798566E+02  0.12516085783E+04  0.80381738574E+02 0.  0.
        -15    1    3    3    0    0 -0.57190650288E+03  0.72812276257E+02 -0.30721932489E+03  0.65327053293E+03  0.00000000000E+00 0.  1.
        -15    1    4    4    0    0  0.34334936014E+02 -0.10794094304E+03 -0.52256484469E+03  0.53470005790E+03  0.00000000000E+00 0.  1.
         15    1    4    4    0    0 -0.21547664330E+02 -0.39307696433E+02 -0.10206617324E+03  0.11147600888E+03  0.00000000000E+00 0. -1.
         15    1    5    5    0    0  0.12808028810E+03  0.28315284301E+03  0.39648590411E+02  0.31329236095E+03  0.00000000000E+00 0. -1.
        -16    1    5    5    0    0  0.42228311349E+03  0.83779745377E+03 -0.14481791844E+02  0.93831621737E+03  0.00000000000E+00 0.  1.
         16    1    1    2    0    0 -0.10302833912E+02 -0.11137244372E+04 -0.13644790925E+04  0.17613322981E+04  0.00000000000E+00 0. -1.
    9900018    1    3    3    0    0  0.19058663516E+02  0.67210503614E+02  0.52887602335E+00  0.11487359381E+03  0.91187600000E+02 0.  0.
<mgrwt>
<rscale>  0 0.38006398E+04</rscale>
<asrwt>0</asrwt>
<pdfrwt beam="1">  1        2 0.16589441E+00 0.38006398E+04</pdfrwt>
<pdfrwt beam="2">  1       -2 0.51522268E+00 0.38006398E+04</pdfrwt>
<totfact> 0.24018735E-02</totfact>
</mgrwt>
</event>
<event>
12    1  0.1191331E-012  0.2839749E+04  0.7818608E-02  0.8291033E-01
         -1   -1    0    0    0  501 -0.00000000000E+00  0.00000000000E+00  0.13404691755E+04  0.13404691755E+04  0.00000000000E+00 0.  1.
          1   -1    0    0  501    0  0.00000000000E+00 -0.00000000000E+00 -0.15039831167E+04  0.15039831167E+04  0.00000000000E+00 0. -1.
    9900016    2    1    2    0    0  0.30628737998E+03 -0.21739184447E+03  0.23746234333E+03  0.22950406488E+04  0.22516109882E+04 0.  0.
         23    2    3    3    0    0  0.20097467551E+03  0.33444759653E+03 -0.39442727103E+03  0.56945400380E+03  0.12829253794E+03 0.  0.
        -24    2    3    3    0    0  0.17845201641E+03  0.44902544041E+03  0.42773362555E+03  0.65053900834E+03  0.82316332806E+02 0.  0.
        -15    1    3    3    0    0 -0.62636491423E+02 -0.94504342340E+03  0.16949907678E+03  0.96216440342E+03  0.00000000000E+00 0.  1.
        -15    1    4    4    0    0  0.26382910266E+02  0.14648247099E+03 -0.19040713254E+03  0.24167757112E+03  0.00000000000E+00 0.  1.
         15    1    4    4    0    0  0.17459176524E+03  0.18796512554E+03 -0.20402013849E+03  0.32777643268E+03  0.00000000000E+00 0. -1.
         15    1    5    5    0    0  0.98366556466E+02  0.34199134488E+03  0.29619959915E+03  0.46299920296E+03  0.00000000000E+00 0. -1.
        -16    1    5    5    0    0  0.80085459942E+02  0.10703409552E+03  0.13153402640E+03  0.18753980537E+03  0.00000000000E+00 0.  1.
         16    1    1    2    0    0 -0.30628737998E+03  0.21739184447E+03 -0.40097628451E+03  0.54941164341E+03  0.00000000000E+00 0. -1.
    9900018    1    3    3    0    0 -0.10502820512E+02 -0.55821458005E+02  0.34656912034E+02  0.11288323329E+03  0.91187600000E+02 0.  0.
<mgrwt>
<rscale>  0 0.28397486E+04</rscale>
<asrwt>0</asrwt>
<pdfrwt beam="1">  1        1 0.23138202E+00 0.28397486E+04</pdfrwt>
<pdfrwt beam="2">  1       -1 0.20622603E+00 0.28397486E+04</pdfrwt>
<totfact> 0.76497907E-01</totfact>
</mgrwt>
</event>
<event>
12    1  0.1191331E-012  0.3813547E+04  0.7818608E-02  0.8043254E-01
          2   -1    0    0  501    0  0.00000000000E+00  0.00000000000E+00  0.15201468495E+04  0.15201468495E+04  0.00000000000E+00 0. -1.
         -2   -1    0    0    0  501 -0.00000000000E+00 -0.00000000000E+00 -0.23917328950E+04  0.23917328950E+04  0.00000000000E+00 0.  1.
    9900016    2    1    2    0    0  0.40978267301E+03 -0.54860355300E+03 -0.16504499902E+04  0.28748085117E+04  0.22520326621E+04 0.  0.
         23    2    3    3    0    0 -0.77201776341E+02 -0.20883664818E+03 -0.56799825609E+03  0.62014570956E+03  0.11129160917E+03 0.  0.
        -24    2    3    3    0    0  0.81064422953E+03 -0.75054440302E+03 -0.17174983199E+03  0.11208796068E+04  0.80075716826E+02 0.  0.
        -15    1    3    3    0    0 -0.35231325788E+03  0.45038317092E+03 -0.76543756997E+03  0.95543932609E+03  0.00000000000E+00 0.  1.
        -15    1    4    4    0    0 -0.20887009958E+02 -0.14432105266E+03 -0.45853467466E+03  0.48116408978E+03  0.00000000000E+00 0.  1.
         15    1    4    4    0    0 -0.56314766383E+02 -0.64515595513E+02 -0.10946358143E+03  0.13898161978E+03  0.00000000000E+00 0. -1.
         15    1    5    5    0    0  0.50245862140E+02 -0.28949248374E+02 -0.21662965103E+02  0.61903066973E+02  0.00000000000E+00 0. -1.
        -16    1    5    5    0    0  0.76039836739E+03 -0.72159515465E+03 -0.15008686689E+03  0.10589765398E+04  0.00000000000E+00 0.  1.
         16    1    1    2    0    0 -0.40978267301E+03  0.54860355300E+03  0.77886394469E+03  0.10370712327E+04  0.00000000000E+00 0. -1.
    9900018    1    3    3    0    0  0.28653477696E+02 -0.39605672720E+02 -0.14526433214E+03  0.17834386920E+03  0.91187600000E+02 0.  0.
<mgrwt>
<rscale>  0 0.38135470E+04</rscale>
<asrwt>0</asrwt>
<pdfrwt beam="1">  1        2 0.23386875E+00 0.38135470E+04</pdfrwt>
<pdfrwt beam="2">  1       -2 0.36795890E+00 0.38135470E+04</pdfrwt>
<totfact> 0.11843851E-01</totfact>
</mgrwt>
</event>
<event>
11    1  0.1203018E-012  0.3175191E+04  0.7818608E-02  0.8195400E-01
         -1   -1    0    0    0  501 -0.00000000000E+00  0.00000000000E+00  0.76718620889E+03  0.76718620889E+03  0.00000000000E+00 0.  1.
          1   -1    0    0  501    0  0.00000000000E+00 -0.00000000000E+00 -0.32853295042E+04  0.32853295042E+04  0.00000000000E+00 0. -1.
    9900016    2    1    2    0    0 -0.25914402065E+02 -0.14941265162E+02 -0.28971666926E+04  0.36723137492E+04  0.22564172111E+04 0.  0.
         24    2    3    3    0    0  0.61421288183E+03 -0.41030413205E+02 -0.95968933464E+03  0.11427349558E+04  0.76802352048E+02 0.  0.
        -15    1    4    4    0    0  0.41174916818E+03 -0.11588566254E+02 -0.69910625396E+03  0.81143159089E+03  0.00000000000E+00 0.  1.
        -15    1    3    3    0    0  0.13880358710E+03 -0.43443598596E+02 -0.13637724273E+03  0.19938037613E+03  0.00000000000E+00 0.  1.
         15    1    3    3    0    0 -0.10349397438E+04 -0.37850137613E+02 -0.11495061770E+04  0.15472224653E+04  0.00000000000E+00 0. -1.
         15    1    3    3    0    0  0.29395872907E+03  0.13080739425E+03 -0.41187205122E+03  0.52264796504E+03  0.00000000000E+00 0. -1.
        -16    1    1    2    0    0  0.25914402065E+02  0.14941265162E+02  0.37902339727E+03  0.38020196385E+03  0.00000000000E+00 0.  1.
         16    1    4    4    0    0  0.20246371365E+03 -0.29441846951E+02 -0.26058308068E+03  0.33130336496E+03  0.00000000000E+00 0. -1.
    9900018    1    3    3    0    0 -0.37949856238E+02 -0.23424510001E+02 -0.23972188699E+03  0.26032798688E+03  0.91187600000E+02 0.  0.
<mgrwt>
<rscale>  0 0.31751910E+04</rscale>
<asrwt>0</asrwt>
<pdfrwt beam="1">  1        1 0.50543531E+00 0.31751910E+04</pdfrwt>
<pdfrwt beam="2">  1       -1 0.11802865E+00 0.31751910E+04</pdfrwt>
<totfact> 0.19784517E-01</totfact>
</mgrwt>
</event>
<event>
12    1  0.1191331E-012  0.2389864E+04  0.7818608E-02  0.8443308E-01
         -2   -1    0    0    0  501 -0.00000000000E+00  0.00000000000E+00  0.58759289831E+03  0.58759289831E+03  0.00000000000E+00 0.  1.
          2   -1    0    0  501    0  0.00000000000E+00 -0.00000000000E+00 -0.24300200194E+04  0.24300200194E+04  0.00000000000E+00 0. -1.
    9900016    2    1    2    0    0 -0.96444951871E+02 -0.56204763200E+01 -0.16723754607E+04  0.27307924984E+04  0.21566304202E+04 0.  0.
         23    2    3    3    0    0 -0.15952658388E+03 -0.22620541210E+03 -0.12259413538E+03  0.32362127596E+03  0.11438439051E+03 0.  0.
        -24    2    3    3    0    0  0.22081627343E+03 -0.65888040935E+03 -0.10315140165E+03  0.70685429718E+03  0.78227650779E+02 0.  0.
        -15    1    3    3    0    0 -0.15773464142E+03  0.87946534512E+03 -0.14466299236E+04  0.17003169253E+04  0.00000000000E+00 0.  1.
        -15    1    4    4    0    0 -0.13596726725E+03 -0.15805699567E+03 -0.37079163562E+02  0.21176396297E+03  0.00000000000E+00 0.  1.
         15    1    4    4    0    0 -0.23559316631E+02 -0.68148416429E+02 -0.85514971822E+02  0.11185731298E+03  0.00000000000E+00 0. -1.
         15    1    5    5    0    0  0.66424834483E+02 -0.10723482458E+03 -0.26645852978E+02  0.12892465908E+03  0.00000000000E+00 0. -1.
        -16    1    5    5    0    0  0.15439143895E+03 -0.55164558476E+03 -0.76505548668E+02  0.57792963809E+03  0.00000000000E+00 0.  1.
         16    1    1    2    0    0  0.12249325846E+03  0.38413563594E+02 -0.11507635762E+03  0.17240292434E+03  0.00000000000E+00 0. -1.
    9900018    1    1    2    0    0 -0.26048306590E+02 -0.32793087274E+02 -0.54975302836E+02  0.11441749501E+03  0.91187600000E+02 0.  0.
<mgrwt>
<rscale>  0 0.23898640E+04</rscale>
<asrwt>0</asrwt>
<pdfrwt beam="1">  1        2 0.37384922E+00 0.23898640E+04</pdfrwt>
<pdfrwt beam="2">  1       -2 0.90398910E-01 0.23898640E+04</pdfrwt>
<totfact> 0.35965067E+00</totfact>
</mgrwt>
</event>
<event>
12    1  0.1191331E-012  0.3553480E+04  0.7818608E-02  0.8101232E-01
          2   -1    0    0  501    0  0.00000000000E+00  0.00000000000E+00  0.44384045272E+04  0.44384045272E+04  0.00000000000E+00 0. -1.
         -2   -1    0    0    0  501 -0.00000000000E+00 -0.00000000000E+00 -0.71124750437E+03  0.71124750437E+03  0.00000000000E+00 0.  1.
    9900016    2    1    2    0    0  0.77190326394E+02 -0.79408474447E+03  0.34281687019E+04  0.41268757441E+04  0.21545843754E+04 0.  0.
         23    2    3    3    0    0  0.11510595424E+03  0.50324712494E+02 -0.30429109625E+02  0.16980051922E+03  0.11011052732E+03 0.  0.
        -24    2    3    3    0    0 -0.60188987302E+03 -0.10154757406E+04  0.29510761352E+04  0.31793163455E+04  0.75760608111E+02 0.  0.
        -15    1    4    4    0    0  0.29411129016E+02 -0.28948582402E+02 -0.33298802130E+02  0.53026834304E+02  0.00000000000E+00 0.  1.
        -15    1    3    3    0    0  0.56397424517E+03  0.17106628361E+03  0.50752167633E+03  0.77775887943E+03  0.00000000000E+00 0.  1.
         15    1    5    5    0    0 -0.49320351736E+03 -0.87654487031E+03  0.24701742180E+04  0.26670847918E+04  0.00000000000E+00 0. -1.
         15    1    4    4    0    0  0.85694825228E+02  0.79273294896E+02  0.28696925045E+01  0.11677368492E+03  0.00000000000E+00 0. -1.
        -16    1    5    5    0    0 -0.10868635565E+03 -0.13893087026E+03  0.48090191721E+03  0.51223155369E+03  0.00000000000E+00 0.  1.
         16    1    1    2    0    0 -0.57673928140E+02  0.84665091502E+03  0.18922182578E+03  0.86945324960E+03  0.00000000000E+00 0. -1.
    9900018    1    1    2    0    0 -0.19516398254E+02 -0.52566170547E+02  0.10976649514E+03  0.15332303785E+03  0.91187600000E+02 0.  0.
<mgrwt>
<rscale>  0 0.35534795E+04</rscale>
<asrwt>0</asrwt>
<pdfrwt beam="1">  1        2 0.68283145E+00 0.35534795E+04</pdfrwt>
<pdfrwt beam="2">  1       -2 0.10942270E+00 0.35534795E+04</pdfrwt>
<totfact> 0.76484164E-02</totfact>
</mgrwt>
</event>
<event>
11    1  0.1191331E-012  0.2623839E+04  0.7818608E-02  0.8360148E-01
         -2   -1    0    0    0  501 -0.00000000000E+00  0.00000000000E+00  0.65321014774E+03  0.65321014774E+03  0.00000000000E+00 0.  1.
          2   -1    0    0  501    0  0.00000000000E+00 -0.00000000000E+00 -0.26348838706E+04  0.26348838706E+04  0.00000000000E+00 0. -1.
    9900016    2    1    2    0    0 -0.14195035635E+02 -0.24695232595E+03 -0.20322503234E+04  0.30356164097E+04  0.22413698177E+04 0.  0.
         24    2    3    3    0    0 -0.18193541599E+03 -0.10984021358E+04 -0.99862370922E+03  0.14977749442E+04  0.80577436348E+02 0.  0.
        -15    1    4    4    0    0  0.11217222766E+00 -0.15623986333E+03 -0.12534262456E+03  0.20030397152E+03  0.00000000000E+00 0.  1.
        -15    1    3    3    0    0  0.14884343588E+02  0.39888524968E+03 -0.29208722977E+03  0.49461695876E+03  0.00000000000E+00 0.  1.
         15    1    3    3    0    0 -0.94109270830E+02  0.60647155606E+02 -0.16935720218E+03  0.20301845796E+03  0.00000000000E+00 0. -1.
         15    1    3    3    0    0  0.28110490673E+03  0.42675760873E+03 -0.45900354822E+03  0.68689612204E+03  0.00000000000E+00 0. -1.
        -16    1    1    2    0    0  0.14195035635E+02  0.24695232595E+03  0.50576600557E+02  0.25247760861E+03  0.00000000000E+00 0.  1.
         16    1    4    4    0    0 -0.18204758822E+03 -0.94216227251E+03 -0.87328108466E+03  0.12974709727E+04  0.00000000000E+00 0. -1.
    9900018    1    3    3    0    0 -0.34139599129E+02 -0.34840204119E+02 -0.11317863400E+03  0.15330992675E+03  0.91187600000E+02 0.  0.
<mgrwt>
<rscale>  0 0.26238391E+04</rscale>
<asrwt>0</asrwt>
<pdfrwt beam="1">  1        2 0.40536675E+00 0.26238391E+04</pdfrwt>
<pdfrwt beam="2">  1       -2 0.10049387E+00 0.26238391E+04</pdfrwt>
<totfact> 0.20914682E+00</totfact>
</mgrwt>
</event>
<event>
12    1  0.1191331E-012  0.2614195E+04  0.7818608E-02  0.8363395E-01
         -1   -1    0    0    0  501 -0.00000000000E+00  0.00000000000E+00  0.90003324097E+03  0.90003324097E+03  0.00000000000E+00 0.  1.
          1   -1    0    0  501    0  0.00000000000E+00 -0.00000000000E+00 -0.18982672443E+04  0.18982672443E+04  0.00000000000E+00 0. -1.
    9900016    2    1    2    0    0 -0.77640386927E+02 -0.32605911129E+03 -0.87966301216E+03  0.24427703830E+04  0.22541023835E+04 0.  0.
         23    2    3    3    0    0  0.21678882087E+03 -0.31952670172E+03 -0.47520968875E+03  0.62275790845E+03  0.11361539637E+03 0.  0.
        -24    2    3    3    0    0  0.57715418306E+03  0.81207358500E+02  0.20999977370E+03  0.62452297310E+03  0.78914212164E+02 0.  0.
        -15    1    3    3    0    0 -0.91235009118E+03 -0.11226102116E+03 -0.58048388811E+03  0.10871737534E+04  0.00000000000E+00 0.  1.
        -15    1    4    4    0    0  0.10347947009E+03 -0.84949859635E+02 -0.22337122088E+03  0.26042116216E+03  0.00000000000E+00 0.  1.
         15    1    5    5    0    0  0.26294942631E+03 -0.16081159264E+01  0.84574621384E+02  0.27622066074E+03  0.00000000000E+00 0. -1.
         15    1    4    4    0    0  0.11330935078E+03 -0.23457684209E+03 -0.25183846787E+03  0.36233674630E+03  0.00000000000E+00 0. -1.
        -16    1    5    5    0    0  0.31420475674E+03  0.82815474426E+02  0.12542515231E+03  0.34830231236E+03  0.00000000000E+00 0.  1.
         16    1    1    2    0    0  0.77640386927E+02  0.32605911129E+03 -0.11857099121E+03  0.35553010237E+03  0.00000000000E+00 0. -1.
    9900018    1    3    3    0    0  0.40766700327E+02  0.24521253094E+02 -0.33969208997E+02  0.10831574799E+03  0.91187600000E+02 0.  0.
<mgrwt>
<rscale>  0 0.26141948E+04</rscale>
<asrwt>0</asrwt>
<pdfrwt beam="1">  1        1 0.29204111E+00 0.26141948E+04</pdfrwt>
<pdfrwt beam="2">  1       -1 0.13846666E+00 0.26141948E+04</pdfrwt>
<totfact> 0.13256181E+00</totfact>
</mgrwt>
</event>
<event>
12    1  0.1191331E-012  0.3094167E+04  0.7818608E-02  0.8217340E-01
         -1   -1    0    0    0  501 -0.00000000000E+00  0.00000000000E+00  0.28088910774E+04  0.28088910774E+04  0.00000000000E+00 0.  1.
          1   -1    0    0  501    0  0.00000000000E+00 -0.00000000000E+00 -0.85210417326E+03  0.85210417326E+03  0.00000000000E+00 0. -1.
    9900016    2    1    2    0    0 -0.11052242694E+03  0.61823025756E+03  0.11688283180E+04  0.25258513412E+04  0.21492653401E+04 0.  0.
         23    2    3    3    0    0 -0.16713981830E+03 -0.18504938287E+02  0.29851459301E+02  0.18742587437E+03  0.77195836413E+02 0.  0.
        -24    2    3    3    0    0 -0.28522843347E+03  0.93150835147E+03 -0.13523251702E+03  0.98662691874E+03  0.77985735979E+02 0.  0.
        -15    1    3    3    0    0  0.34184582483E+03 -0.29477315562E+03  0.12742093758E+04  0.13517985480E+04  0.00000000000E+00 0.  1.
        -15    1    4    4    0    0 -0.89708799355E+02  0.58798599329E+01 -0.20083867379E+02  0.92117333676E+02  0.00000000000E+00 0.  1.
         15    1    5    5    0    0 -0.18808703856E+03  0.71698595155E+03 -0.88077066652E+02  0.74646041989E+03  0.00000000000E+00 0. -1.
         15    1    4    4    0    0 -0.77431018942E+02 -0.24384798220E+02  0.49935326680E+02  0.95308540695E+02  0.00000000000E+00 0. -1.
        -16    1    5    5    0    0 -0.97141394912E+02  0.21452239992E+03 -0.47155450365E+02  0.24016649885E+03  0.00000000000E+00 0.  1.
         16    1    1    2    0    0  0.81437837150E+02 -0.68838307874E+03  0.71492167789E+03  0.99579937233E+03  0.00000000000E+00 0. -1.
    9900018    1    1    2    0    0  0.29084589790E+02  0.70152821176E+02  0.73036908192E+02  0.13934453715E+03  0.91187600000E+02 0.  0.
<mgrwt>
<rscale>  0 0.30941673E+04</rscale>
<asrwt>0</asrwt>
<pdfrwt beam="1">  1        1 0.13109295E+00 0.30941673E+04</pdfrwt>
<pdfrwt beam="2">  1       -1 0.43213709E+00 0.30941673E+04</pdfrwt>
<totfact> 0.72320055E-02</totfact>
</mgrwt>
</event>
<event>
12    1  0.1191331E-012  0.2941789E+04  0.7818608E-02  0.8260551E-01
         -2   -1    0    0    0  501 -0.00000000000E+00  0.00000000000E+00  0.92141280555E+03  0.92141280555E+03  0.00000000000E+00 0. -1.
          2   -1    0    0  501    0  0.00000000000E+00 -0.00000000000E+00 -0.23480582185E+04  0.23480582185E+04  0.00000000000E+00 0.  1.
    9900016    2    1    2    0    0  0.72551579158E+02  0.12452201860E+03 -0.16813040022E+04  0.27469137799E+04  0.21674830338E+04 0.  0.
         23    2    3    3    0    0 -0.63946822022E+02 -0.58043997460E+02  0.15428062395E+02  0.11334577223E+03  0.71770030544E+02 0.  0.
        -24    2    3    3    0    0 -0.63196020387E+03  0.68172921197E+03 -0.13763403695E+04  0.16628242917E+04  0.80891252667E+02 0.  0.
        -15    1    4    4    0    0 -0.34295470192E+02 -0.55556349341E+02 -0.18848509466E+02  0.67955526169E+02  0.00000000000E+00 0.  1.
        -15    1    3    3    0    0  0.76845860505E+03 -0.49916319591E+03 -0.32039169512E+03  0.97074371599E+03  0.00000000000E+00 0.  1.
         15    1    5    5    0    0 -0.39200143163E+03  0.45920118259E+03 -0.94456021322E+03  0.11210373967E+04  0.00000000000E+00 0. -1.
         15    1    4    4    0    0 -0.29651351829E+02 -0.24876481189E+01  0.34276571862E+02  0.45390246057E+02  0.00000000000E+00 0. -1.
        -16    1    5    5    0    0 -0.23995877225E+03  0.22252802938E+03 -0.43178015623E+03  0.54178689496E+03  0.00000000000E+00 0.  1.
         16    1    1    2    0    0 -0.75389184968E+02 -0.13572481379E+03  0.35440317403E+03  0.38691906654E+03  0.00000000000E+00 0. -1.
    9900018    1    1    2    0    0  0.28376058099E+01  0.11202795191E+02 -0.99744584804E+02  0.13563817758E+03  0.91187600000E+02 0.  0.
<mgrwt>
<rscale>  0 0.29417892E+04</rscale>
<asrwt>0</asrwt>
<pdfrwt beam="1">  1        2 0.36123972E+00 0.29417892E+04</pdfrwt>
<pdfrwt beam="2">  1       -2 0.14175582E+00 0.29417892E+04</pdfrwt>
<totfact> 0.12728738E+00</totfact>
</mgrwt>
</event>
<event>
12    1  0.1191331E-012  0.2980999E+04  0.7818608E-02  0.8249178E-01
          1   -1    0    0  501    0  0.00000000000E+00  0.00000000000E+00  0.10415975576E+04  0.10415975576E+04  0.00000000000E+00 0. -1.
         -1   -1    0    0    0  501 -0.00000000000E+00 -0.00000000000E+00 -0.21328663822E+04  0.21328663822E+04  0.00000000000E+00 0.  1.
    9900016    2    1    2    0    0  0.26807296334E+03 -0.34292446739E+03 -0.35102895475E+03  0.23157350135E+04  0.22472087178E+04 0.  0.
         23    2    3    3    0    0 -0.16826440095E+03 -0.42853928239E+02 -0.23816483339E+03  0.31491224829E+03  0.11089575495E+03 0.  0.
         24    2    3    3    0    0 -0.16958047599E+03 -0.89966919179E+03 -0.35289385299E+03  0.98436667237E+03  0.79255799154E+02 0.  0.
        -15    1    5    5    0    0 -0.46549862843E+02 -0.46080172073E+03 -0.17663376793E+03  0.49568599287E+03  0.00000000000E+00 0.  1.
        -15    1    4    4    0    0 -0.15095264212E+03 -0.57428528297E+02 -0.13865398011E+03  0.21286066387E+03  0.00000000000E+00 0. -1.
         15    1    3    3    0    0  0.59800184983E+03  0.64263706289E+03  0.25521338425E+03  0.91417858130E+03  0.00000000000E+00 0. -1.
         15    1    4    4    0    0 -0.17311758834E+02  0.14574600059E+02 -0.99510853286E+02  0.10205158442E+03  0.00000000000E+00 0.  1.
        -16    1    1    2    0    0 -0.26807296334E+03  0.34292446739E+03 -0.74023986981E+03  0.85872892630E+03  0.00000000000E+00 0.  1.
         16    1    5    5    0    0 -0.12303061315E+03 -0.43886747106E+03 -0.17626008506E+03  0.48868067950E+03  0.00000000000E+00 0. -1.
    9900018    1    3    3    0    0  0.79159904458E+01 -0.43038410243E+02 -0.15183652623E+02  0.10227751152E+03  0.91187600000E+02 0.  0.
<mgrwt>
<rscale>  0 0.29809988E+04</rscale>
<asrwt>0</asrwt>
<pdfrwt beam="1">  1        1 0.16024578E+00 0.29809988E+04</pdfrwt>
<pdfrwt beam="2">  1       -1 0.32813328E+00 0.29809988E+04</pdfrwt>
<totfact> 0.25922356E-01</totfact>
</mgrwt>
</event>
<event>
12    1  0.1191331E-012  0.2736750E+04  0.7818608E-02  0.8323178E-01
          2   -1    0    0  501    0  0.00000000000E+00  0.00000000000E+00  0.16023932807E+04  0.16023932807E+04  0.00000000000E+00 0. -1.
         -2   -1    0    0    0  501 -0.00000000000E+00 -0.00000000000E+00 -0.11685337975E+04  0.11685337975E+04  0.00000000000E+00 0.  1.
    9900016    2    1    2    0    0  0.37650527098E+03  0.50388640093E+02  0.19813719561E+03  0.22073308795E+04  0.21653535576E+04 0.  0.
         23    2    3    3    0    0  0.55624418240E+02  0.10946453313E+03  0.36978104341E+03  0.39617685333E+03  0.71704387138E+02 0.  0.
        -24    2    3    3    0    0  0.22987403067E+03 -0.33219791851E+03  0.74451344710E+03  0.85083008531E+03  0.80087665246E+02 0.  0.
        -15    1    3    3    0    0  0.91006822068E+02  0.27312202547E+03 -0.91615729490E+03  0.96032394089E+03  0.00000000000E+00 0.  1.
        -15    1    4    4    0    0  0.24610337401E+01 -0.10385930152E+02  0.36663232486E+02  0.38185296235E+02  0.00000000000E+00 0. -1.
         15    1    5    5    0    0  0.81542479414E+02 -0.18123432261E+03  0.32481231423E+03  0.38078615405E+03  0.00000000000E+00 0. -1.
         15    1    4    4    0    0  0.53163384499E+02  0.11985046328E+03  0.33311781092E+03  0.35799155710E+03  0.00000000000E+00 0.  1.
        -16    1    5    5    0    0  0.14833155126E+03 -0.15096359589E+03  0.41970113287E+03  0.47004393126E+03  0.00000000000E+00 0.  1.
         16    1    1    2    0    0 -0.40601772844E+03 -0.47767430692E+02  0.22625155157E+03  0.46724927804E+03  0.00000000000E+00 0. -1.
    9900018    1    1    2    0    0  0.29512457457E+02 -0.26212094004E+01  0.94707359903E+01  0.96346920645E+02  0.91187600000E+02 0.  0.
<mgrwt>
<rscale>  0 0.27367504E+04</rscale>
<asrwt>0</asrwt>
<pdfrwt beam="1">  1        2 0.24652204E+00 0.27367504E+04</pdfrwt>
<pdfrwt beam="2">  1       -2 0.17977443E+00 0.27367504E+04</pdfrwt>
<totfact> 0.17698750E+00</totfact>
</mgrwt>
</event>
<event>
12    1  0.1191331E-012  0.2582638E+04  0.7818608E-02  0.8374123E-01
          1   -1    0    0  501    0  0.00000000000E+00  0.00000000000E+00  0.25639577082E+04  0.25639577082E+04  0.00000000000E+00 0. -1.
         -1   -1    0    0    0  501 -0.00000000000E+00 -0.00000000000E+00 -0.65036373180E+03  0.65036373180E+03  0.00000000000E+00 0.  1.
    9900016    2    1    2    0    0  0.77455640185E+02 -0.75276632616E+02  0.20449270868E+04  0.30442792878E+04  0.22526081869E+04 0.  0.
         23    2    3    3    0    0 -0.15644472423E+03  0.18208783060E+03  0.19399033519E+03  0.32687871576E+03  0.10764067483E+03 0.  0.
         24    2    3    3    0    0  0.18189801674E+03 -0.55328182637E+03  0.19785535634E+04  0.20640318074E+04  0.79658212887E+02 0.  0.
        -15    1    4    4    0    0 -0.77622838562E+02  0.16433850285E+03  0.14387415368E+03  0.23180211536E+03  0.00000000000E+00 0.  1.
        -15    1    5    5    0    0  0.16991142600E+03 -0.49683065287E+03  0.16872268228E+04  0.17670441256E+04  0.00000000000E+00 0.  1.
         15    1    3    3    0    0  0.76698891217E+02  0.32769715721E+03 -0.30221042214E+03  0.45232652587E+03  0.00000000000E+00 0. -1.
         15    1    4    4    0    0 -0.78821885665E+02  0.17749327754E+02  0.50116181504E+02  0.95076600402E+02  0.00000000000E+00 0. -1.
        -16    1    1    2    0    0 -0.77455640185E+02  0.75276632616E+02 -0.13133311048E+03  0.17004215219E+03  0.00000000000E+00 0.  1.
         16    1    5    5    0    0  0.11986590745E+02 -0.56451173504E+02  0.29132674060E+03  0.29698768180E+03  0.00000000000E+00 0. -1.
    9900018    1    3    3    0    0 -0.24696543546E+02 -0.31779794053E+02  0.17459361041E+03  0.20104223875E+03  0.91187600000E+02 0.  0.
<mgrwt>
<rscale>  0 0.25826383E+04</rscale>
<asrwt>0</asrwt>
<pdfrwt beam="1">  1        1 0.39445503E+00 0.25826383E+04</pdfrwt>
<pdfrwt beam="2">  1       -1 0.10005596E+00 0.25826383E+04</pdfrwt>
<totfact> 0.10262850E+00</totfact>
</mgrwt>
</event>
<event>
12    1  0.1191331E-012  0.2914584E+04  0.7818608E-02  0.8268552E-01
         -2   -1    0    0    0  501 -0.00000000000E+00  0.00000000000E+00  0.48142867012E+03  0.48142867012E+03  0.00000000000E+00 0.  1.
          2   -1    0    0  501    0  0.00000000000E+00 -0.00000000000E+00 -0.44112452150E+04  0.44112452150E+04  0.00000000000E+00 0. -1.
    9900016    2    1    2    0    0 -0.31111155041E+03 -0.46834065490E+03 -0.28715280464E+04  0.36942966858E+04  0.22552209017E+04 0.  0.
         23    2    3    3    0    0  0.79802490865E+02 -0.92852223947E+02 -0.97319322479E+02  0.19570794703E+03  0.11764598151E+03 0.  0.
         24    2    3    3    0    0  0.74101038622E+03  0.12198837887E+03 -0.61773313786E+03  0.97560801773E+03  0.78988718050E+02 0.  0.
        -15    1    5    5    0    0  0.29275775890E+03  0.86459787422E+02 -0.23851098620E+03  0.38738855272E+03  0.00000000000E+00 0.  1.
        -15    1    4    4    0    0  0.30186266283E+02  0.56902170659E+01  0.18412463005E+02  0.35813517508E+02  0.00000000000E+00 0. -1.
         15    1    4    4    0    0  0.49616224582E+02 -0.98542441013E+02 -0.11573178548E+03  0.15989442953E+03  0.00000000000E+00 0.  1.
         15    1    3    3    0    0 -0.10733364312E+04 -0.51952066211E+03 -0.20354472745E+04  0.23590248876E+04  0.00000000000E+00 0. -1.
        -16    1    1    2    0    0  0.31111155041E+03  0.46834065490E+03 -0.10582884985E+04  0.11983771994E+04  0.00000000000E+00 0.  1.
         16    1    5    5    0    0  0.44825262732E+03  0.35528591451E+02 -0.37922215166E+03  0.58821946501E+03  0.00000000000E+00 0. -1.
    9900018    1    3    3    0    0 -0.58587996327E+02  0.22043852281E+02 -0.12102831148E+03  0.16395583342E+03  0.91187600000E+02 0.  0.
<mgrwt>
<rscale>  0 0.29145840E+04</rscale>
<asrwt>0</asrwt>
<pdfrwt beam="1">  1        2 0.67865310E+00 0.29145840E+04</pdfrwt>
<pdfrwt beam="2">  1       -2 0.74065951E-01 0.29145840E+04</pdfrwt>
<totfact> 0.21200968E-01</totfact>
</mgrwt>
</event>
<event>
12    1  0.1191331E-012  0.3295222E+04  0.7818608E-02  0.8164112E-01
          2   -1    0    0  501    0  0.00000000000E+00  0.00000000000E+00  0.18888990977E+04  0.18888990977E+04  0.00000000000E+00 0.  1.
         -2   -1    0    0    0  501 -0.00000000000E+00 -0.00000000000E+00 -0.14371454709E+04  0.14371454709E+04  0.00000000000E+00 0. -1.
    9900016    2    1    2    0    0  0.56848267520E+03  0.77111332043E+02  0.10040710280E+04  0.25296946322E+04  0.22499061299E+04 0.  0.
         23    2    3    3    0    0  0.42352051004E+02  0.41994333321E+03  0.29539648838E+03  0.52840018096E+03  0.11748006875E+03 0.  0.
        -24    2    3    3    0    0  0.13267526078E+03  0.18836704801E+03  0.10451457956E+04  0.10733090140E+04  0.81102626298E+02 0.  0.
        -15    1    3    3    0    0  0.32948894275E+03 -0.53856037274E+03 -0.44490037510E+03  0.77236428079E+03  0.00000000000E+00 0.  1.
        -15    1    4    4    0    0 -0.29747579726E+02  0.90820352921E+02  0.10258682636E+03  0.14020453611E+03  0.00000000000E+00 0.  1.
         15    1    4    4    0    0  0.72099630729E+02  0.32912298029E+03  0.19280966202E+03  0.38819564485E+03  0.00000000000E+00 0. -1.
         15    1    5    5    0    0  0.60474506012E+02  0.13113502891E+03  0.50013416806E+03  0.52056483529E+03  0.00000000000E+00 0. -1.
        -16    1    5    5    0    0  0.72200754772E+02  0.57232019101E+02  0.54501162752E+03  0.55274417875E+03  0.00000000000E+00 0.  1.
         16    1    1    2    0    0 -0.56848267520E+03 -0.77111332043E+02 -0.55231740120E+03  0.79634993639E+03  0.00000000000E+00 0. -1.
    9900018    1    3    3    0    0  0.63966420662E+02  0.73613235535E+01  0.10842911914E+03  0.15562115643E+03  0.91187600000E+02 0.  0.
<mgrwt>
<rscale>  0 0.32952225E+04</rscale>
<asrwt>0</asrwt>
<pdfrwt beam="1">  1        2 0.29059986E+00 0.32952225E+04</pdfrwt>
<pdfrwt beam="2">  1       -2 0.22109930E+00 0.32952225E+04</pdfrwt>
<totfact> 0.62596318E-01</totfact>
</mgrwt>
</event>
