<event>
11    1  0.1230801E-011  0.2559496E+04  0.7818608E-02  0.8382091E-01
         -2   -1    0    0    0  501 -0.00000000000E+00  0.00000000000E+00  0.10531685333E+04  0.10531685333E+04  0.00000000000E+00 0.  1.
          2   -1    0    0  501    0  0.00000000000E+00 -0.00000000000E+00 -0.15550742653E+04  0.15550742653E+04  0.00000000000E+00 0. -1.
    9900016    2    1    2    0    0  0.78183355550E+02 -0.61131380356E+02 -0.66966380047E+03  0.22573666870E+04  0.21534635059E+04 0.  0.
         23    2    3    3    0    0  0.32354458434E+03 -0.20143745037E+03 -0.50589786837E+03  0.63981026952E+03  0.90368043536E+02 0.  0.
        -15    1    4    4    0    0  0.92236941573E+02 -0.36563767232E+02 -0.77983129631E+02  0.12619798323E+03  0.00000000000E+00 0.  1.
        -15    1    3    3    0    0  0.15614344286E+03 -0.39402181346E+03 -0.19108674744E+03  0.46491731445E+03  0.00000000000E+00 0.  1.
         15    1    3    3    0    0  0.19949299137E+03  0.12046925449E+03 -0.27701767953E+03  0.36200702984E+03  0.00000000000E+00 0. -1.
         15    1    4    4    0    0  0.23130764277E+03 -0.16487368313E+03 -0.42791473874E+03  0.51361228629E+03  0.00000000000E+00 0. -1.
        -16    1    1    2    0    0 -0.74874405237E+02  0.10533231472E+02  0.22111606275E+03  0.23368662506E+03  0.00000000000E+00 0.  1.
         16    1    3    3    0    0 -0.60099766302E+03  0.41385862897E+03  0.30433849487E+03  0.79063207321E+03  0.00000000000E+00 0. -1.
    9900018    1    1    2    0    0 -0.33089503129E+01  0.50598148884E+02 -0.53357994241E+02  0.11718948658E+03  0.91187600000E+02 0.  0.
<mgrwt>
<rscale>  0 0.25594963E+04</rscale>
<asrwt>0</asrwt>
<pdfrwt beam="1">  1        2 0.23924219E+00 0.25594963E+04</pdfrwt>
<pdfrwt beam="2">  1       -2 0.16202593E+00 0.25594963E+04</pdfrwt>
<totfact> 0.25532161E+00</totfact>
</mgrwt>
</event>
<event>
11    1  0.1230801E-011  0.3165444E+04  0.7818608E-02  0.8198003E-01
         -2   -1    0    0    0  501 -0.00000000000E+00  0.00000000000E+00  0.12271259259E+04  0.12271259259E+04  0.00000000000E+00 0. -1.
          2   -1    0    0  501    0  0.00000000000E+00 -0.00000000000E+00 -0.20413632044E+04  0.20413632044E+04  0.00000000000E+00 0.  1.
    9900016    2    1    2    0    0  0.37860318870E+03 -0.29755986966E+03 -0.12527540671E+04  0.26171987002E+04  0.22468765060E+04 0.  0.
         23    2    3    3    0    0 -0.38100447308E+03  0.15826922235E+02 -0.11052300875E+04  0.11734931696E+04  0.10068650734E+03 0.  0.
        -15    1    3    3    0    0  0.11008810807E+03 -0.29404784138E+03 -0.41011226752E+03  0.51650323961E+03  0.00000000000E+00 0.  1.
        -15    1    4    4    0    0 -0.20531739500E+03  0.52870926562E+02 -0.66777767493E+03  0.70062657008E+03  0.00000000000E+00 0. -1.
         15    1    4    4    0    0 -0.17568707808E+03 -0.37044004327E+02 -0.43745241260E+03  0.47286659953E+03  0.00000000000E+00 0.  1.
         15    1    3    3    0    0  0.32974438333E+03  0.16001883036E+02  0.35660806105E+03  0.48595959483E+03  0.00000000000E+00 0. -1.
        -16    1    3    3    0    0  0.30762073933E+03 -0.50555520635E+02 -0.42014529899E+01  0.31177561185E+03  0.00000000000E+00 0.  1.
         16    1    1    2    0    0 -0.37860318870E+03  0.29755986966E+03  0.43851678854E+03  0.65129043012E+03  0.00000000000E+00 0. -1.
    9900018    1    3    3    0    0  0.12154431046E+02  0.15214687076E+02 -0.89818320073E+02  0.12946708428E+03  0.91187600000E+02 0.  0.
<mgrwt>
<rscale>  0 0.31654445E+04</rscale>
<asrwt>0</asrwt>
<pdfrwt beam="1">  1        2 0.31405588E+00 0.31654445E+04</pdfrwt>
<pdfrwt beam="2">  1       -2 0.18878860E+00 0.31654445E+04</pdfrwt>
<totfact> 0.84509352E-01</totfact>
</mgrwt>
</event>
<event>
11    1  0.1230801E-011  0.2423041E+04  0.7818608E-02  0.8430928E-01
         -2   -1    0    0    0  501 -0.00000000000E+00  0.00000000000E+00  0.54712163197E+03  0.54712163197E+03  0.00000000000E+00 0.  1.
          2   -1    0    0  501    0  0.00000000000E+00 -0.00000000000E+00 -0.26827331944E+04  0.26827331944E+04  0.00000000000E+00 0. -1.
    9900016    2    1    2    0    0  0.29767884904E+02  0.15886636536E+03 -0.20455361324E+04  0.30448190673E+04  0.22495733895E+04 0.  0.
         23    2    3    3    0    0 -0.38614217927E+03  0.44703526088E+02 -0.14663612266E+04  0.15198011146E+04  0.92065157020E+02 0.  0.
        -15    1    4    4    0    0 -0.22212429112E+03  0.43256499479E+02 -0.68509043180E+03  0.72149790380E+03  0.00000000000E+00 0.  1.
        -15    1    3    3    0    0  0.14535096163E+02  0.10132814071E+03  0.62866767104E+02  0.12012864573E+03  0.00000000000E+00 0.  1.
         15    1    4    4    0    0 -0.16401788815E+03  0.14470266089E+01 -0.78127079480E+03  0.79830321077E+03  0.00000000000E+00 0. -1.
         15    1    3    3    0    0 -0.13340359735E+03  0.80840156239E+02  0.25665991102E+03  0.30034307146E+03  0.00000000000E+00 0. -1.
        -16    1    1    2    0    0 -0.29767884904E+02 -0.15886636536E+03 -0.90075430033E+02  0.18503575900E+03  0.00000000000E+00 0.  1.
         16    1    3    3    0    0  0.50247614927E+03 -0.10917418517E+03 -0.83789818462E+03  0.98309442633E+03  0.00000000000E+00 0. -1.
    9900018    1    3    3    0    0  0.32302416086E+02  0.41168727497E+02 -0.60803399275E+02  0.12145180923E+03  0.91187600000E+02 0.  0.
<mgrwt>
<rscale>  0 0.24230405E+04</rscale>
<asrwt>0</asrwt>
<pdfrwt beam="1">  1        2 0.41272818E+00 0.24230405E+04</pdfrwt>
<pdfrwt beam="2">  1       -2 0.84172559E-01 0.24230405E+04</pdfrwt>
<totfact> 0.30067527E+00</totfact>
</mgrwt>
</event>
