<event>
11    1  0.1169415E-008  0.3053549E+04  0.7818608E-02  0.8228603E-01
          1   -1    0    0  501    0  0.00000000000E+00  0.00000000000E+00  0.13009462572E+04  0.13009462572E+04  0.00000000000E+00 0. -1.
         -1   -1    0    0    0  501 -0.00000000000E+00 -0.00000000000E+00 -0.17918041293E+04  0.17918041293E+04  0.00000000000E+00 0.  1.
    9900016    2    1    2    0    0  0.63315503046E+03 -0.35301216366E+03 -0.52465836433E+03  0.23670470356E+04  0.21913791066E+04 0.  0.
         24    2    3    3    0    0 -0.57902226435E+03  0.11517809068E+02  0.28230400924E+03  0.64918686111E+03  0.79678004838E+02 0.  0.
        -15    1    3    3    0    0 -0.27169293368E+02  0.25174299303E+02 -0.55278585743E+01  0.37449607046E+02  0.00000000000E+00 0.  1.
        -15    1    4    4    0    0 -0.52630862103E+03  0.21773686693E+02  0.23193392331E+03  0.57555903501E+03  0.00000000000E+00 0.  1.
         15    1    3    3    0    0  0.95454409932E+02 -0.14891282319E+03  0.50450860835E+02  0.18393439767E+03  0.00000000000E+00 0. -1.
         15    1    3    3    0    0  0.40363809844E+03 -0.23267395145E+02 -0.50155039587E+03  0.64421881825E+03  0.00000000000E+00 0. -1.
        -16    1    1    2    0    0 -0.63315503046E+03  0.35301216366E+03  0.33800492190E+02  0.72570335094E+03  0.00000000000E+00 0.  1.
         16    1    4    4    0    0 -0.52713643324E+02 -0.10255877625E+02  0.50370085933E+02  0.73627826094E+02  0.00000000000E+00 0. -1.
    9900018    1    3    3    0    0  0.74025407981E+03 -0.21752405369E+03 -0.35033497996E+03  0.85225735150E+03  0.91187600000E+02 0.  0.
<mgrwt>
<rscale>  0 0.30535493E+04</rscale>
<asrwt>0</asrwt>
<pdfrwt beam="1">  1        1 0.20014558E+00 0.30535493E+04</pdfrwt>
<pdfrwt beam="2">  1       -1 0.27566217E+00 0.30535493E+04</pdfrwt>
<totfact> 0.36326635E-01</totfact>
</mgrwt>
</event>
<event>
11    1  0.1169415E-008  0.3458653E+04  0.7818608E-02  0.8123659E-01
         -1   -1    0    0    0  501 -0.00000000000E+00  0.00000000000E+00  0.27751869635E+04  0.27751869635E+04  0.00000000000E+00 0.  1.
          1   -1    0    0  501    0  0.00000000000E+00 -0.00000000000E+00 -0.10776105246E+04  0.10776105246E+04  0.00000000000E+00 0. -1.
    9900016    2    1    2    0    0 -0.66335632977E+02 -0.98649086648E+03  0.12835666540E+04  0.27808978902E+04  0.22601515601E+04 0.  0.
        -24    2    3    3    0    0  0.33636456323E+03 -0.33310317407E+03  0.80746475238E+03  0.93958265588E+03  0.81959727436E+02 0.  0.
        -15    1    3    3    0    0  0.26670590502E+03  0.13685383145E+03  0.12192087384E+02  0.30001609615E+03  0.00000000000E+00 0.  1.
        -15    1    3    3    0    0 -0.42743578943E+02 -0.33148152699E+03  0.20627095584E+03  0.39275275110E+03  0.00000000000E+00 0.  1.
         15    1    3    3    0    0  0.24082009715E+01  0.17313203304E+03 -0.80045064786E+02  0.19075563607E+03  0.00000000000E+00 0. -1.
         15    1    4    4    0    0  0.22282001195E+03 -0.20918726905E+03  0.59281934003E+03  0.66696539728E+03  0.00000000000E+00 0. -1.
        -16    1    4    4    0    0  0.11354455128E+03 -0.12391590502E+03  0.21464541235E+03  0.27261725860E+03  0.00000000000E+00 0.  1.
         16    1    1    2    0    0  0.66335632977E+02  0.98649086648E+03  0.41400978495E+03  0.10718995979E+04  0.00000000000E+00 0. -1.
    9900018    1    3    3    0    0 -0.62907072326E+03 -0.63189202992E+03  0.33768392320E+03  0.95779075101E+03  0.91187600000E+02 0.  0.
<mgrwt>
<rscale>  0 0.34586533E+04</rscale>
<asrwt>0</asrwt>
<pdfrwt beam="1">  1        1 0.16578624E+00 0.34586533E+04</pdfrwt>
<pdfrwt beam="2">  1       -1 0.42695184E+00 0.34586533E+04</pdfrwt>
<totfact> 0.50339698E-02</totfact>
</mgrwt>
</event>
<event>
11    1  0.1169415E-008  0.3744551E+04  0.7818608E-02  0.8058160E-01
          2   -1    0    0  501    0  0.00000000000E+00  0.00000000000E+00  0.22948187597E+04  0.22948187597E+04  0.00000000000E+00 0. -1.
         -2   -1    0    0    0  501 -0.00000000000E+00 -0.00000000000E+00 -0.15275346432E+04  0.15275346432E+04  0.00000000000E+00 0.  1.
    9900016    2    1    2    0    0 -0.42280704275E+03 -0.11333803698E+04  0.53126115833E+03  0.25898666099E+04  0.22275218923E+04 0.  0.
        -24    2    3    3    0    0  0.57340345979E+03 -0.44686268264E+03 -0.13044105750E+03  0.74294002542E+03  0.80419071416E+02 0.  0.
        -15    1    3    3    0    0 -0.61073121713E+03 -0.23134549186E+03  0.60061557751E+03  0.88727246555E+03  0.00000000000E+00 0.  1.
        -15    1    3    3    0    0 -0.67750079439E+02 -0.88444185159E+01 -0.16671045767E+03  0.18016845923E+03  0.00000000000E+00 0.  1.
         15    1    3    3    0    0 -0.19564630970E+03 -0.53031455039E+03  0.21592011567E+03  0.60508883415E+03  0.00000000000E+00 0. -1.
         15    1    4    4    0    0  0.42944150936E+03 -0.32778313053E+03 -0.61219422416E+02  0.54369992487E+03  0.00000000000E+00 0. -1.
        -16    1    4    4    0    0  0.14396195043E+03 -0.11907955211E+03 -0.69221635083E+02  0.19924010055E+03  0.00000000000E+00 0.  1.
         16    1    1    2    0    0  0.42280704275E+03  0.11333803698E+04  0.23602295815E+03  0.12324867929E+04  0.00000000000E+00 0. -1.
    9900018    1    3    3    0    0 -0.12208289627E+03  0.83986773640E+02  0.11876980318E+02  0.17439682555E+03  0.91187600000E+02 0.  0.
<mgrwt>
<rscale>  0 0.37445508E+04</rscale>
<asrwt>0</asrwt>
<pdfrwt beam="1">  1        2 0.35304904E+00 0.37445508E+04</pdfrwt>
<pdfrwt beam="2">  1       -2 0.23500533E+00 0.37445508E+04</pdfrwt>
<totfact> 0.29251368E-01</totfact>
</mgrwt>
</event>
<event>
11    1  0.1169415E-008  0.3170445E+04  0.7818608E-02  0.8196666E-01
         -2   -1    0    0    0  501 -0.00000000000E+00  0.00000000000E+00  0.26653238405E+04  0.26653238405E+04  0.00000000000E+00 0.  1.
          2   -1    0    0  501    0  0.00000000000E+00 -0.00000000000E+00 -0.94282380283E+03  0.94282380283E+03  0.00000000000E+00 0. -1.
    9900016    2    1    2    0    0 -0.46056387520E+03 -0.66046790559E+03  0.11098980176E+04  0.25964074729E+04  0.22047950513E+04 0.  0.
         24    2    3    3    0    0  0.77212978689E+03 -0.54606872668E+03  0.62800092800E+03  0.11379308734E+04  0.78269054578E+02 0.  0.
        -15    1    3    3    0    0 -0.29052834138E+03  0.44342678350E+02  0.19947845531E+03  0.35519662780E+03  0.00000000000E+00 0.  1.
        -15    1    4    4    0    0  0.19373545520E+03 -0.11358929902E+03  0.11701518071E+03  0.25323607162E+03  0.00000000000E+00 0.  1.
         15    1    3    3    0    0 -0.40964961781E+03 -0.58402893546E+02  0.12615074700E+02  0.41398411498E+03  0.00000000000E+00 0. -1.
         15    1    3    3    0    0 -0.13878587482E+03  0.11116133728E+03  0.85808356219E+02  0.19743716963E+03  0.00000000000E+00 0. -1.
        -16    1    1    2    0    0  0.46056387520E+03  0.66046790559E+03  0.61260202002E+03  0.10117401704E+04  0.00000000000E+00 0.  1.
         16    1    4    4    0    0  0.57839433169E+03 -0.43247942765E+03  0.51098574730E+03  0.88469480173E+03  0.00000000000E+00 0. -1.
    9900018    1    3    3    0    0 -0.39372982808E+03 -0.21150030099E+03  0.18399520338E+03  0.49185868713E+03  0.91187600000E+02 0.  0.
<mgrwt>
<rscale>  0 0.31704452E+04</rscale>
<asrwt>0</asrwt>
<pdfrwt beam="1">  1        2 0.14504982E+00 0.31704452E+04</pdfrwt>
<pdfrwt beam="2">  1       -2 0.41004982E+00 0.31704452E+04</pdfrwt>
<totfact> 0.14760478E-01</totfact>
</mgrwt>
</event>
<event>
11    1  0.1169415E-008  0.2991293E+04  0.7818608E-02  0.8246221E-01
          2   -1    0    0  501    0  0.00000000000E+00  0.00000000000E+00  0.29157598963E+04  0.29157598963E+04  0.00000000000E+00 0. -1.
         -2   -1    0    0    0  501 -0.00000000000E+00 -0.00000000000E+00 -0.76719588151E+03  0.76719588151E+03  0.00000000000E+00 0.  1.
    9900016    2    1    2    0    0 -0.50908047498E+01 -0.32704160339E+03  0.89737086359E+03  0.23897170418E+04  0.21905458102E+04 0.  0.
        -24    2    3    3    0    0 -0.16697975395E+03 -0.35381077383E+03  0.17642726366E+03  0.43691263288E+03  0.81864323713E+02 0.  0.
        -15    1    3    3    0    0 -0.17867336649E+03 -0.23114123249E+03 -0.32550937220E+02  0.29395578709E+03  0.00000000000E+00 0.  1.
        -15    1    3    3    0    0 -0.45376982333E+03 -0.11582216058E+03  0.49991589536E+03  0.68500929036E+03  0.00000000000E+00 0.  1.
         15    1    3    3    0    0  0.80631898045E+02  0.17631518510E+03  0.61843736885E+02  0.20350232252E+03  0.00000000000E+00 0. -1.
         15    1    4    4    0    0 -0.12238249770E+03 -0.17615508610E+03  0.11709219638E+03  0.24437404232E+03  0.00000000000E+00 0. -1.
        -16    1    4    4    0    0 -0.44597256243E+02 -0.17765568773E+03  0.59335067284E+02  0.19253859056E+03  0.00000000000E+00 0.  1.
         16    1    1    2    0    0  0.50908047498E+01  0.32704160339E+03  0.12511931512E+04  0.12932387360E+04  0.00000000000E+00 0. -1.
    9900018    1    3    3    0    0  0.71370024097E+03  0.19741737840E+03  0.19173490491E+03  0.77033700898E+03  0.91187600000E+02 0.  0.
<mgrwt>
<rscale>  0 0.29912934E+04</rscale>
<asrwt>0</asrwt>
<pdfrwt beam="1">  1        2 0.44857844E+00 0.29912934E+04</pdfrwt>
<pdfrwt beam="2">  1       -2 0.11803014E+00 0.29912934E+04</pdfrwt>
<totfact> 0.93057909E-01</totfact>
</mgrwt>
</event>
<event>
11    1  0.1169415E-008  0.3362815E+04  0.7818608E-02  0.8147094E-01
         -2   -1    0    0    0  501 -0.00000000000E+00  0.00000000000E+00  0.12177363887E+04  0.12177363887E+04  0.00000000000E+00 0.  1.
          2   -1    0    0  501    0  0.00000000000E+00 -0.00000000000E+00 -0.23216281071E+04  0.23216281071E+04  0.00000000000E+00 0. -1.
    9900016    2    1    2    0    0  0.62219391217E+03  0.45805186565E+03 -0.18211530773E+03  0.23366140948E+04  0.21976493503E+04 0.  0.
        -24    2    3    3    0    0  0.58260344663E+03 -0.35485463900E+03  0.12177378836E+03  0.69755823610E+03  0.80062765221E+02 0.  0.
        -15    1    3    3    0    0 -0.46825086972E+02  0.33134047826E+02  0.19667462528E+03  0.20486913415E+03  0.00000000000E+00 0.  1.
        -15    1    3    3    0    0  0.19573815809E+03  0.29749951122E+03 -0.67085857000E+03  0.75951998437E+03  0.00000000000E+00 0.  1.
         15    1    3    3    0    0  0.52026193181E+02  0.33658701306E+03 -0.59172409821E+02  0.34568615278E+03  0.00000000000E+00 0. -1.
         15    1    4    4    0    0  0.41438737820E+03 -0.21196827251E+03  0.97082995310E+02  0.47547087791E+03  0.00000000000E+00 0. -1.
        -16    1    4    4    0    0  0.16821606843E+03 -0.14288636649E+03  0.24690793050E+02  0.22208735819E+03  0.00000000000E+00 0.  1.
         16    1    1    2    0    0 -0.62219391217E+03 -0.45805186565E+03 -0.92177641059E+03  0.12027504010E+04  0.00000000000E+00 0. -1.
    9900018    1    3    3    0    0 -0.16134879876E+03  0.14568593254E+03  0.22946725846E+03  0.32898058742E+03  0.91187600000E+02 0.  0.
<mgrwt>
<rscale>  0 0.33628149E+04</rscale>
<asrwt>0</asrwt>
<pdfrwt beam="1">  1        2 0.35717355E+00 0.33628149E+04</pdfrwt>
<pdfrwt beam="2">  1       -2 0.18734406E+00 0.33628149E+04</pdfrwt>
<totfact> 0.59149017E-01</totfact>
</mgrwt>
</event>
<event>
11    1  0.1169415E-008  0.2530026E+04  0.7818608E-02  0.8392366E-01
          2   -1    0    0  501    0  0.00000000000E+00  0.00000000000E+00  0.19869857158E+04  0.19869857158E+04  0.00000000000E+00 0.  1.
         -2   -1    0    0    0  501 -0.00000000000E+00 -0.00000000000E+00 -0.80536939151E+03  0.80536939151E+03  0.00000000000E+00 0. -1.
    9900016    2    1    2    0    0  0.19344596449E+03 -0.66027810914E+02  0.12929408580E+04  0.25596016652E+04  0.21995644135E+04 0.  0.
        -24    2    3    3    0    0  0.54031622426E+03 -0.77818422353E+02  0.27785397381E+03  0.61772893094E+03  0.79930421593E+02 0.  0.
        -15    1    3    3    0    0 -0.23587981490E+03 -0.22797103843E+03  0.62227319887E+03  0.70344439401E+03  0.00000000000E+00 0.  1.
        -15    1    3    3    0    0  0.31440253413E+03  0.36890244509E+03  0.19320939312E+03  0.52179290629E+03  0.00000000000E+00 0.  1.
         15    1    4    4    0    0  0.40639333340E+03 -0.61888947114E+02  0.24630828408E+03  0.47922182131E+03  0.00000000000E+00 0. -1.
         15    1    3    3    0    0 -0.22560436876E+03 -0.21505737707E+03 -0.10726016590E+03  0.32962364876E+03  0.00000000000E+00 0. -1.
        -16    1    4    4    0    0  0.13392289086E+03 -0.15929475239E+02  0.31545689726E+02  0.13850710963E+03  0.00000000000E+00 0.  1.
         16    1    1    2    0    0 -0.19344596449E+03  0.66027810914E+02 -0.11132453376E+03  0.23275344210E+03  0.00000000000E+00 0. -1.
    9900018    1    3    3    0    0 -0.19978861024E+03  0.85916581837E+02  0.30686445812E+03  0.38701178518E+03  0.91187600000E+02 0.  0.
<mgrwt>
<rscale>  0 0.25300257E+04</rscale>
<asrwt>0</asrwt>
<pdfrwt beam="1">  1        2 0.30569011E+00 0.25300257E+04</pdfrwt>
<pdfrwt beam="2">  1       -2 0.12390298E+00 0.25300257E+04</pdfrwt>
<totfact> 0.29629052E+00</totfact>
</mgrwt>
</event>
<event>
11    1  0.1169415E-008  0.2625558E+04  0.7818608E-02  0.8359571E-01
          2   -1    0    0  501    0  0.00000000000E+00  0.00000000000E+00  0.10428307310E+04  0.10428307310E+04  0.00000000000E+00 0. -1.
         -2   -1    0    0    0  501 -0.00000000000E+00 -0.00000000000E+00 -0.16526064113E+04  0.16526064113E+04  0.00000000000E+00 0.  1.
    9900016    2    1    2    0    0 -0.22926567567E+03  0.40052096433E+02 -0.21487133577E+03  0.22370526293E+04  0.22145130063E+04 0.  0.
         24    2    3    3    0    0 -0.90811107440E+03  0.13600985284E+02 -0.11144605262E+03  0.91901696290E+03  0.85564275267E+02 0.  0.
        -15    1    4    4    0    0 -0.32543765744E+03 -0.20314353579E+02 -0.73937499277E+01  0.32615488557E+03  0.00000000000E+00 0.  1.
        -15    1    3    3    0    0  0.23407913665E+02  0.10077451631E+03 -0.17396300658E+03  0.20240197929E+03  0.00000000000E+00 0.  1.
         15    1    3    3    0    0  0.67472040403E+03 -0.32129823693E+03 -0.76730093266E+02  0.75124409341E+03  0.00000000000E+00 0. -1.
         15    1    3    3    0    0 -0.70473972723E+02  0.20798748279E+03  0.78039692322E+02  0.23305700462E+03  0.00000000000E+00 0. -1.
        -16    1    1    2    0    0  0.22926567567E+03 -0.40052096433E+02 -0.39490434452E+03  0.45838451303E+03  0.00000000000E+00 0.  1.
         16    1    4    4    0    0 -0.58267341696E+03  0.33915338863E+02 -0.10405230269E+03  0.59286207733E+03  0.00000000000E+00 0. -1.
    9900018    1    3    3    0    0  0.51191053752E+02  0.38987348973E+02  0.69228124374E+02  0.13133258911E+03  0.91187600000E+02 0.  0.
<mgrwt>
<rscale>  0 0.26255580E+04</rscale>
<asrwt>0</asrwt>
<pdfrwt beam="1">  1        2 0.16043550E+00 0.26255580E+04</pdfrwt>
<pdfrwt beam="2">  1       -2 0.25424714E+00 0.26255580E+04</pdfrwt>
<totfact> 0.12633294E+00</totfact>
</mgrwt>
</event>
<event>
11    1  0.1169415E-008  0.3580739E+04  0.7818608E-02  0.8094918E-01
          2   -1    0    0  501    0  0.00000000000E+00  0.00000000000E+00  0.36103769043E+04  0.36103769043E+04  0.00000000000E+00 0. -1.
         -2   -1    0    0    0  501 -0.00000000000E+00 -0.00000000000E+00 -0.88783616174E+03  0.88783616174E+03  0.00000000000E+00 0.  1.
    9900016    2    1    2    0    0  0.56786941446E+03 -0.33378562082E+03  0.74395700697E+03  0.24128636681E+04  0.21987611376E+04 0.  0.
        -24    2    3    3    0    0  0.71157353308E+03 -0.27159123606E+03 -0.19091841283E+03  0.78953306597E+03  0.82546528762E+02 0.  0.
        -15    1    3    3    0    0 -0.51826892729E+02  0.12237979214E+03  0.32309154645E+03  0.34935796502E+03  0.00000000000E+00 0.  1.
        -15    1    3    3    0    0  0.17241975929E+02  0.12858488697E+03 -0.21908455194E+03  0.25461618133E+03  0.00000000000E+00 0.  1.
         15    1    3    3    0    0 -0.10035860071E+03 -0.29583152443E+03  0.86530516840E+03  0.91996802882E+03  0.00000000000E+00 0. -1.
         15    1    4    4    0    0  0.53026544763E+03 -0.22489832728E+03 -0.11419169040E+03  0.58719710891E+03  0.00000000000E+00 0. -1.
        -16    1    4    4    0    0  0.18130808545E+03 -0.46692908783E+02 -0.76726722433E+02  0.20233595705E+03  0.00000000000E+00 0.  1.
         16    1    1    2    0    0 -0.56786941446E+03  0.33378562082E+03  0.19785837356E+04  0.20853493979E+04  0.00000000000E+00 0. -1.
    9900018    1    3    3    0    0 -0.87606011076E+01 -0.17327539444E+02 -0.34436743114E+02  0.99388427017E+02  0.91187600000E+02 0.  0.
<mgrwt>
<rscale>  0 0.35807391E+04</rscale>
<asrwt>0</asrwt>
<pdfrwt beam="1">  1        2 0.55544259E+00 0.35807391E+04</pdfrwt>
<pdfrwt beam="2">  1       -2 0.13659018E+00 0.35807391E+04</pdfrwt>
<totfact> 0.21168501E-01</totfact>
</mgrwt>
</event>
<event>
11    1  0.1169415E-008  0.2682647E+04  0.7818608E-02  0.8340657E-01
         -2   -1    0    0    0  501 -0.00000000000E+00  0.00000000000E+00  0.15981213712E+04  0.15981213712E+04  0.00000000000E+00 0.  1.
          2   -1    0    0  501    0  0.00000000000E+00 -0.00000000000E+00 -0.11257901225E+04  0.11257901225E+04  0.00000000000E+00 0. -1.
    9900016    2    1    2    0    0  0.92908120909E+02 -0.38105674968E+03  0.57938490503E+03  0.23173445857E+04  0.22091996051E+04 0.  0.
        -24    2    3    3    0    0 -0.23474710471E+03  0.16049399133E+03 -0.55711329467E+02  0.30069118310E+03  0.80292658072E+02 0.  0.
        -15    1    3    3    0    0 -0.37174288282E+03 -0.52178973716E+03  0.23806978490E+03  0.68347240121E+03  0.00000000000E+00 0.  1.
        -15    1    3    3    0    0  0.91396231605E+03 -0.16768829173E+02  0.28020793782E+03  0.95609873821E+03  0.00000000000E+00 0.  1.
         15    1    4    4    0    0 -0.12066463972E+03  0.97165952057E+02 -0.68884224699E+02  0.16954708470E+03  0.00000000000E+00 0. -1.
         15    1    3    3    0    0  0.96549957004E+00  0.10199426116E+03  0.30838159752E+02  0.10655868616E+03  0.00000000000E+00 0. -1.
        -16    1    4    4    0    0 -0.11408246499E+03  0.63328039276E+02  0.13172895231E+02  0.13114409840E+03  0.00000000000E+00 0.  1.
         16    1    1    2    0    0 -0.92908120909E+02  0.38105674968E+03 -0.10705365630E+03  0.40656690807E+03  0.00000000000E+00 0. -1.
    9900018    1    3    3    0    0 -0.21552970719E+03 -0.10498643584E+03  0.85980352030E+02  0.27052357701E+03  0.91187600000E+02 0.  0.
<mgrwt>
<rscale>  0 0.26826474E+04</rscale>
<asrwt>0</asrwt>
<pdfrwt beam="1">  1        2 0.17319848E+00 0.26826474E+04</pdfrwt>
<pdfrwt beam="2">  1       -2 0.24586483E+00 0.26826474E+04</pdfrwt>
<totfact> 0.12574420E+00</totfact>
</mgrwt>
</event>
<event>
11    1  0.1169415E-008  0.3513541E+04  0.7818608E-02  0.8110588E-01
         -2   -1    0    0    0  501 -0.00000000000E+00  0.00000000000E+00  0.79861188206E+03  0.79861188206E+03  0.00000000000E+00 0.  1.
          2   -1    0    0  501    0  0.00000000000E+00 -0.00000000000E+00 -0.38645078098E+04  0.38645078098E+04  0.00000000000E+00 0. -1.
    9900016    2    1    2    0    0  0.74846745543E+03  0.78849129783E+02 -0.11345655743E+04  0.25903298687E+04  0.22036671865E+04 0.  0.
        -24    2    3    3    0    0 -0.44150924702E+01 -0.57750210126E+03 -0.57752286949E+03  0.82067633149E+03  0.80304459964E+02 0.  0.
        -15    1    3    3    0    0  0.18708476239E+03  0.26301219318E+03 -0.31396607077E+03  0.45027859784E+03  0.00000000000E+00 0.  1.
        -15    1    3    3    0    0  0.67343713820E+03  0.54129351867E+03 -0.45618907119E+02  0.86521519702E+03  0.00000000000E+00 0.  1.
         15    1    3    3    0    0 -0.21642307251E+03 -0.12154544627E+03 -0.18433981369E+03  0.30918183765E+03  0.00000000000E+00 0. -1.
         15    1    4    4    0    0  0.23579906025E+02 -0.41164296497E+03 -0.44395647417E+03  0.60589049632E+03  0.00000000000E+00 0. -1.
        -16    1    4    4    0    0 -0.27994998495E+02 -0.16585913629E+03 -0.13356639532E+03  0.21478583518E+03  0.00000000000E+00 0.  1.
         16    1    1    2    0    0 -0.74846745543E+03 -0.78849129783E+02 -0.19313303534E+04  0.20727898232E+04  0.00000000000E+00 0. -1.
    9900018    1    3    3    0    0  0.10878371982E+03 -0.26409034537E+02 -0.13117913269E+02  0.14497790468E+03  0.91187600000E+02 0.  0.
<mgrwt>
<rscale>  0 0.35135406E+04</rscale>
<asrwt>0</asrwt>
<pdfrwt beam="1">  1        2 0.59453966E+00 0.35135406E+04</pdfrwt>
<pdfrwt beam="2">  1       -2 0.12286337E+00 0.35135406E+04</pdfrwt>
<totfact> 0.17962279E-01</totfact>
</mgrwt>
</event>
<event>
11    1  0.1169415E-008  0.3129400E+04  0.7818608E-02  0.8207715E-01
          2   -1    0    0  501    0  0.00000000000E+00  0.00000000000E+00  0.17738991586E+04  0.17738991586E+04  0.00000000000E+00 0. -1.
         -2   -1    0    0    0  501 -0.00000000000E+00 -0.00000000000E+00 -0.13801719138E+04  0.13801719138E+04  0.00000000000E+00 0.  1.
    9900016    2    1    2    0    0  0.74030269050E+03  0.33060918747E+02  0.57789321895E+03  0.23904885922E+04  0.21980295810E+04 0.  0.
        -24    2    3    3    0    0  0.79419546550E+01 -0.14881312525E+03 -0.57514057164E+03  0.60017975537E+03  0.84974353301E+02 0.  0.
        -15    1    3    3    0    0  0.58555377104E+03  0.31765135761E+03  0.11141834648E+04  0.12981449830E+04  0.00000000000E+00 0.  1.
        -15    1    3    3    0    0  0.44605267538E+02  0.13326340110E+02  0.17624189500E+03  0.18228666102E+03  0.00000000000E+00 0. -1.
         15    1    3    3    0    0  0.46273492441E+02 -0.12141539754E+03  0.45283448780E+01  0.13001323305E+03  0.00000000000E+00 0.  1.
         15    1    4    4    0    0 -0.28000916461E+01 -0.14330201765E+03 -0.40505076533E+03  0.42966199654E+03  0.00000000000E+00 0. -1.
        -16    1    4    4    0    0  0.10742046301E+02 -0.55111075985E+01 -0.17008980631E+03  0.17051775883E+03  0.00000000000E+00 0.  1.
         16    1    1    2    0    0 -0.74030269050E+03 -0.33060918747E+02 -0.18416597412E+03  0.76358248012E+03  0.00000000000E+00 0. -1.
    9900018    1    3    3    0    0  0.55928204828E+02 -0.27688256183E+02 -0.14191991405E+03  0.17986395977E+03  0.91187600000E+02 0.  0.
<mgrwt>
<rscale>  0 0.31293998E+04</rscale>
<asrwt>0</asrwt>
<pdfrwt beam="1">  1        2 0.27290756E+00 0.31293998E+04</pdfrwt>
<pdfrwt beam="2">  1       -2 0.21233414E+00 0.31293998E+04</pdfrwt>
<totfact> 0.83593951E-01</totfact>
</mgrwt>
</event>
<event>
11    1  0.1169415E-008  0.2686085E+04  0.7818608E-02  0.8339534E-01
          1   -1    0    0  501    0  0.00000000000E+00  0.00000000000E+00  0.16647910069E+04  0.16647910069E+04  0.00000000000E+00 0. -1.
         -1   -1    0    0    0  501 -0.00000000000E+00 -0.00000000000E+00 -0.10834768531E+04  0.10834768531E+04  0.00000000000E+00 0.  1.
    9900016    2    1    2    0    0 -0.31555532546E+03  0.20027250497E+03  0.72941235927E+03  0.23462512955E+04  0.21984468409E+04 0.  0.
        -24    2    3    3    0    0 -0.62288185733E+03  0.10287994712E+03  0.26575794985E+03  0.68987591441E+03  0.82069468485E+02 0.  0.
        -15    1    3    3    0    0  0.38440815351E+03  0.21799112936E+03  0.25980618375E+02  0.44267906376E+03  0.00000000000E+00 0.  1.
        -15    1    3    3    0    0 -0.24973498870E+03 -0.18260982729E+03 -0.32689754850E+02  0.31109891301E+03  0.00000000000E+00 0.  1.
         15    1    4    4    0    0 -0.43599196628E+03  0.35425752055E+02  0.16982622713E+03  0.46923866635E+03  0.00000000000E+00 0. -1.
         15    1    3    3    0    0 -0.41421933003E+02 -0.13652641134E+03 -0.15240638808E+03  0.20876528604E+03  0.00000000000E+00 0. -1.
        -16    1    4    4    0    0 -0.18688989105E+03  0.67454195065E+02  0.95931722721E+02  0.22063724806E+03  0.00000000000E+00 0.  1.
         16    1    1    2    0    0  0.31555532546E+03 -0.20027250497E+03 -0.14809820545E+03  0.40201656450E+03  0.00000000000E+00 0. -1.
    9900018    1    3    3    0    0  0.21407530006E+03  0.19853766712E+03  0.62276993398E+03  0.69383211833E+03  0.91187600000E+02 0.  0.
<mgrwt>
<rscale>  0 0.26860845E+04</rscale>
<asrwt>0</asrwt>
<pdfrwt beam="1">  1        1 0.25612169E+00 0.26860845E+04</pdfrwt>
<pdfrwt beam="2">  1       -1 0.16668875E+00 0.26860845E+04</pdfrwt>
<totfact> 0.11464906E+00</totfact>
</mgrwt>
</event>
<event>
11    1  0.1169415E-008  0.3591588E+04  0.7818608E-02  0.8092421E-01
         -2   -1    0    0    0  501 -0.00000000000E+00  0.00000000000E+00  0.10299515475E+04  0.10299515475E+04  0.00000000000E+00 0.  1.
          2   -1    0    0  501    0  0.00000000000E+00 -0.00000000000E+00 -0.31310956025E+04  0.31310956025E+04  0.00000000000E+00 0. -1.
    9900016    2    1    2    0    0 -0.11066351760E+04  0.15573084933E+03 -0.13538295666E+04  0.28166616194E+04  0.22026880562E+04 0.  0.
        -24    2    3    3    0    0 -0.69578424415E+03 -0.46431944650E+03  0.85356301261E+02  0.84464297692E+03  0.80173546089E+02 0.  0.
        -15    1    3    3    0    0 -0.19550903951E+03  0.67517784087E+02 -0.22277862815E+02  0.20803542696E+03  0.00000000000E+00 0.  1.
        -15    1    3    3    0    0 -0.10493006108E+03  0.39902763945E+03 -0.45623323968E+03  0.61512774588E+03  0.00000000000E+00 0.  1.
         15    1    4    4    0    0 -0.18134270883E+03 -0.16350479144E+03  0.33455254585E+02  0.24645131147E+03  0.00000000000E+00 0. -1.
         15    1    3    3    0    0  0.18593130606E+03  0.13701472930E+03 -0.71961322785E+03  0.75576893579E+03  0.00000000000E+00 0. -1.
        -16    1    4    4    0    0 -0.51444153532E+03 -0.30081465506E+03  0.51901046676E+02  0.59819166545E+03  0.00000000000E+00 0.  1.
         16    1    1    2    0    0  0.11066351760E+04 -0.15573084933E+03 -0.74731448838E+03  0.13443855305E+04  0.00000000000E+00 0. -1.
    9900018    1    3    3    0    0 -0.29634313732E+03  0.16490142995E+02 -0.24106153752E+03  0.39308653387E+03  0.91187600000E+02 0.  0.
<mgrwt>
<rscale>  0 0.35915884E+04</rscale>
<asrwt>0</asrwt>
<pdfrwt beam="1">  1        2 0.48170701E+00 0.35915884E+04</pdfrwt>
<pdfrwt beam="2">  1       -2 0.15845409E+00 0.35915884E+04</pdfrwt>
<totfact> 0.30290057E-01</totfact>
</mgrwt>
</event>
<event>
11    1  0.1169415E-008  0.2711570E+04  0.7818608E-02  0.8331261E-01
          3   -1    0    0  501    0  0.00000000000E+00  0.00000000000E+00  0.62979190163E+03  0.62979190163E+03  0.00000000000E+00 0. -1.
         -3   -1    0    0    0  501 -0.00000000000E+00 -0.00000000000E+00 -0.29186674217E+04  0.29186674217E+04  0.00000000000E+00 0.  1.
    9900016    2    1    2    0    0 -0.16228212495E+03  0.41463475591E+03 -0.20669829027E+04  0.30509718335E+04  0.21994893362E+04 0.  0.
        -24    2    3    3    0    0 -0.10586150106E+03 -0.12650839964E+03  0.25035080284E+03  0.31068591764E+03  0.81481177882E+02 0.  0.
        -15    1    3    3    0    0  0.29270410163E+02  0.26429185282E+03 -0.81911612063E+03  0.86119577301E+03  0.00000000000E+00 0.  1.
        -15    1    3    3    0    0 -0.50608268071E+02  0.16743437528E+03  0.48992514681E+02  0.18164727721E+03  0.00000000000E+00 0.  1.
         15    1    3    3    0    0 -0.14745942372E+03  0.28326037299E+03 -0.32933479752E+03  0.45873971859E+03  0.00000000000E+00 0. -1.
         15    1    4    4    0    0 -0.51059921097E+02 -0.29108876019E+02  0.14759951714E+03  0.15887120465E+03  0.00000000000E+00 0. -1.
        -16    1    4    4    0    0 -0.54801579960E+02 -0.97399523616E+02  0.10275128570E+03  0.15181471299E+03  0.00000000000E+00 0.  1.
         16    1    1    2    0    0  0.16228212495E+03 -0.41463475591E+03 -0.22189261736E+03  0.49748748981E+03  0.00000000000E+00 0. -1.
    9900018    1    3    3    0    0  0.11237665774E+03 -0.17384344555E+03 -0.12178753021E+04  0.12387031471E+04  0.91187600000E+02 0.  0.
<mgrwt>
<rscale>  0 0.27115701E+04</rscale>
<asrwt>0</asrwt>
<pdfrwt beam="1">  1        3 0.96891062E-01 0.27115701E+04</pdfrwt>
<pdfrwt beam="2">  1       -3 0.44902576E+00 0.27115701E+04</pdfrwt>
<totfact> 0.12234277E-02</totfact>
</mgrwt>
</event>
<event>
11    1  0.1169415E-008  0.2622789E+04  0.7818608E-02  0.8360501E-01
          1   -1    0    0  501    0  0.00000000000E+00  0.00000000000E+00  0.10837326733E+04  0.10837326733E+04  0.00000000000E+00 0. -1.
         -1   -1    0    0    0  501 -0.00000000000E+00 -0.00000000000E+00 -0.15868817234E+04  0.15868817234E+04  0.00000000000E+00 0.  1.
    9900016    2    1    2    0    0  0.23247026741E+03  0.22395873177E+03 -0.24673043294E+03  0.22583639316E+04  0.22215156543E+04 0.  0.
         24    2    3    3    0    0  0.22174847444E+03  0.17162937597E+03 -0.57322888539E+03  0.64316277645E+03  0.80236982501E+02 0.  0.
        -15    1    3    3    0    0 -0.49416749498E+01 -0.44644314975E+03 -0.87829951111E+02  0.45502747875E+03  0.00000000000E+00 0.  1.
        -15    1    4    4    0    0  0.23680262836E+02  0.59522892333E+02 -0.12794279392E+03  0.14308419926E+03  0.00000000000E+00 0.  1.
         15    1    3    3    0    0  0.31762598495E+03  0.55605774176E+02  0.35575633961E+03  0.48014668760E+03  0.00000000000E+00 0. -1.
         15    1    3    3    0    0 -0.22981119117E+03  0.46850851767E+02 -0.74517267907E+02  0.24609146494E+03  0.00000000000E+00 0. -1.
        -16    1    1    2    0    0 -0.23247026741E+03 -0.22395873177E+03 -0.25641861716E+03  0.41225046512E+03  0.00000000000E+00 0.  1.
         16    1    4    4    0    0  0.19806821160E+03  0.11210648364E+03 -0.44528609146E+03  0.50007857720E+03  0.00000000000E+00 0. -1.
    9900018    1    3    3    0    0 -0.72151325861E+02  0.39631587960E+03  0.13308933186E+03  0.43393552389E+03  0.91187600000E+02 0.  0.
<mgrwt>
<rscale>  0 0.26227890E+04</rscale>
<asrwt>0</asrwt>
<pdfrwt beam="1">  1        1 0.16672810E+00 0.26227890E+04</pdfrwt>
<pdfrwt beam="2">  1       -1 0.24413565E+00 0.26227890E+04</pdfrwt>
<totfact> 0.87313903E-01</totfact>
</mgrwt>
</event>
<event>
11    1  0.1169415E-008  0.2786052E+04  0.7818608E-02  0.8307612E-01
          1   -1    0    0  501    0  0.00000000000E+00  0.00000000000E+00  0.15540292956E+04  0.15540292956E+04  0.00000000000E+00 0. -1.
         -1   -1    0    0    0  501 -0.00000000000E+00 -0.00000000000E+00 -0.12487031302E+04  0.12487031302E+04  0.00000000000E+00 0.  1.
    9900016    2    1    2    0    0 -0.89623134510E+02 -0.31010978246E+03  0.66747856017E+03  0.23175986911E+04  0.21957995540E+04 0.  0.
         24    2    3    3    0    0 -0.66249213330E+03  0.23739249719E+02 -0.13335648884E+03  0.68176875543E+03  0.86978756623E+02 0.  0.
        -15    1    4    4    0    0 -0.60010886604E+03  0.40165238329E+02 -0.10198951574E+03  0.61003750605E+03  0.00000000000E+00 0.  1.
        -15    1    3    3    0    0 -0.24157808442E+03  0.27129746393E+02  0.39568328378E+03  0.46439342704E+03  0.00000000000E+00 0.  1.
         15    1    3    3    0    0  0.45461179578E+03 -0.51555526954E+02  0.16792146497E+03  0.48736790582E+03  0.00000000000E+00 0. -1.
         15    1    3    3    0    0  0.22546518537E+02  0.99948327114E+02  0.51851643518E+02  0.11483295053E+03  0.00000000000E+00 0. -1.
        -16    1    1    2    0    0  0.89623134510E+02  0.31010978246E+03 -0.36215239477E+03  0.48513373461E+03  0.00000000000E+00 0.  1.
         16    1    4    4    0    0 -0.62383267256E+02 -0.16425988609E+02 -0.31366973099E+02  0.71731249374E+02  0.00000000000E+00 0. -1.
    9900018    1    3    3    0    0  0.33728876889E+03 -0.40937157873E+03  0.18537865674E+03  0.56923565231E+03  0.91187600000E+02 0.  0.
<mgrwt>
<rscale>  0 0.27860519E+04</rscale>
<asrwt>0</asrwt>
<pdfrwt beam="1">  1        1 0.23908143E+00 0.27860519E+04</pdfrwt>
<pdfrwt beam="2">  1       -1 0.19210817E+00 0.27860519E+04</pdfrwt>
<totfact> 0.88853397E-01</totfact>
</mgrwt>
</event>
<event>
11    1  0.1169415E-008  0.3970951E+04  0.7818608E-02  0.8010432E-01
          2   -1    0    0  501    0  0.00000000000E+00  0.00000000000E+00  0.25747510874E+04  0.25747510874E+04  0.00000000000E+00 0. -1.
         -2   -1    0    0    0  501 -0.00000000000E+00 -0.00000000000E+00 -0.15310658495E+04  0.15310658495E+04  0.00000000000E+00 0.  1.
    9900016    2    1    2    0    0 -0.42673373734E+03  0.93211814993E+03 -0.27220613207E+03  0.24377294015E+04  0.21948764267E+04 0.  0.
        -24    2    3    3    0    0 -0.38575852370E+03 -0.32957344425E+03 -0.27858314712E+03  0.58434466093E+03  0.80136253582E+02 0.  0.
        -15    1    3    3    0    0 -0.79835499485E+02  0.16914866465E+02 -0.19251189028E+03  0.20909482917E+03  0.00000000000E+00 0.  1.
        -15    1    3    3    0    0 -0.23097851498E+03  0.11309544118E+04  0.15710471951E+02  0.11544071097E+04  0.00000000000E+00 0.  1.
         15    1    4    4    0    0 -0.15351396622E+03 -0.12141394914E+03 -0.15175857215E+03  0.24766620499E+03  0.00000000000E+00 0. -1.
         15    1    3    3    0    0  0.97581395235E+02 -0.93359998111E+02  0.15262533926E+03  0.20379576082E+03  0.00000000000E+00 0. -1.
        -16    1    4    4    0    0 -0.23224455748E+03 -0.20815949510E+03 -0.12682457497E+03  0.33667845595E+03  0.00000000000E+00 0.  1.
         16    1    1    2    0    0  0.42673373734E+03 -0.93211814993E+03  0.13158913700E+04  0.16680875354E+04  0.00000000000E+00 0. -1.
    9900018    1    3    3    0    0  0.17225740559E+03  0.20718231399E+03  0.30553094110E+02  0.28608704089E+03  0.91187600000E+02 0.  0.
<mgrwt>
<rscale>  0 0.39709513E+04</rscale>
<asrwt>0</asrwt>
<pdfrwt beam="1">  1        2 0.39611555E+00 0.39709513E+04</pdfrwt>
<pdfrwt beam="2">  1       -2 0.23554859E+00 0.39709513E+04</pdfrwt>
<totfact> 0.19654936E-01</totfact>
</mgrwt>
</event>
<event>
11    1  0.1169415E-008  0.2908009E+04  0.7818608E-02  0.8270498E-01
         -1   -1    0    0    0  501 -0.00000000000E+00  0.00000000000E+00  0.81695398128E+03  0.81695398128E+03  0.00000000000E+00 0.  1.
          1   -1    0    0  501    0  0.00000000000E+00 -0.00000000000E+00 -0.25878196723E+04  0.25878196723E+04  0.00000000000E+00 0. -1.
    9900016    2    1    2    0    0 -0.41566009178E+02  0.13643349591E+03 -0.21026383641E+04  0.30436435682E+04  0.21959818414E+04 0.  0.
         24    2    3    3    0    0 -0.20693735143E+02  0.81834518493E+03 -0.81868069523E+03  0.11605279275E+04  0.80435797419E+02 0.  0.
        -15    1    3    3    0    0  0.11597458306E+03 -0.48504775679E+02 -0.19535217051E+03  0.23230429979E+03  0.00000000000E+00 0.  1.
        -15    1    4    4    0    0  0.21257598860E+02  0.39736098116E+03 -0.36125672816E+03  0.53745144757E+03  0.00000000000E+00 0.  1.
         15    1    3    3    0    0 -0.42772583481E+03  0.14516389305E+02 -0.34335220803E+03  0.54868101305E+03  0.00000000000E+00 0. -1.
         15    1    3    3    0    0  0.26209313066E+03 -0.31819037486E+03 -0.20096758377E+03  0.45861301062E+03  0.00000000000E+00 0. -1.
        -16    1    1    2    0    0  0.41566009178E+02 -0.13643349591E+03  0.33177267315E+03  0.36113008539E+03  0.00000000000E+00 0.  1.
         16    1    4    4    0    0 -0.41951334003E+02  0.42098420377E+03 -0.45742396707E+03  0.62307647998E+03  0.00000000000E+00 0. -1.
    9900018    1    3    3    0    0  0.28785847065E+02 -0.32973292779E+03 -0.54428570660E+03  0.64351731714E+03  0.91187600000E+02 0.  0.
<mgrwt>
<rscale>  0 0.29080093E+04</rscale>
<asrwt>0</asrwt>
<pdfrwt beam="1">  1        1 0.39812610E+00 0.29080093E+04</pdfrwt>
<pdfrwt beam="2">  1       -1 0.12568523E+00 0.29080093E+04</pdfrwt>
<totfact> 0.55693939E-01</totfact>
</mgrwt>
</event>
<event>
11    1  0.1169415E-008  0.2713212E+04  0.7818608E-02  0.8330731E-01
          1   -1    0    0  501    0  0.00000000000E+00  0.00000000000E+00  0.10817844834E+04  0.10817844834E+04  0.00000000000E+00 0. -1.
         -1   -1    0    0    0  501 -0.00000000000E+00 -0.00000000000E+00 -0.17012442384E+04  0.17012442384E+04  0.00000000000E+00 0.  1.
    9900016    2    1    2    0    0  0.15634291235E+03  0.10067410745E+03 -0.94976125368E+03  0.24039806218E+04  0.22005676560E+04 0.  0.
        -24    2    3    3    0    0 -0.34725940471E+03  0.40995392001E+03 -0.19116721288E+03  0.57538769427E+03  0.76647144393E+02 0.  0.
        -15    1    3    3    0    0 -0.21313374711E+03  0.82525090065E+02 -0.47490282121E+03  0.52703801973E+03  0.00000000000E+00 0.  1.
        -15    1    3    3    0    0  0.49896760059E+03  0.14735993993E+03 -0.12848639029E+03  0.53590332227E+03  0.00000000000E+00 0.  1.
         15    1    4    4    0    0 -0.13533529337E+03  0.14943617956E+03 -0.33446931219E+02  0.20436611901E+03  0.00000000000E+00 0. -1.
         15    1    3    3    0    0 -0.11240414309E+03 -0.29899070855E+03  0.64239132929E-01  0.31942156989E+03  0.00000000000E+00 0. -1.
        -16    1    4    4    0    0 -0.21192411134E+03  0.26051774045E+03 -0.15772028166E+03  0.37102157525E+03  0.00000000000E+00 0.  1.
         16    1    1    2    0    0 -0.15634291235E+03 -0.10067410745E+03  0.33030149865E+03  0.37904810007E+03  0.00000000000E+00 0. -1.
    9900018    1    3    3    0    0  0.33017260666E+03 -0.24017413400E+03 -0.15526906843E+03  0.44623001562E+03  0.91187600000E+02 0.  0.
<mgrwt>
<rscale>  0 0.27132118E+04</rscale>
<asrwt>0</asrwt>
<pdfrwt beam="1">  1        1 0.16642838E+00 0.27132118E+04</pdfrwt>
<pdfrwt beam="2">  1       -1 0.26172988E+00 0.27132118E+04</pdfrwt>
<totfact> 0.66734714E-01</totfact>
</mgrwt>
</event>
<event>
11    1  0.1169415E-008  0.2399205E+04  0.7818608E-02  0.8439801E-01
          2   -1    0    0  501    0  0.00000000000E+00  0.00000000000E+00  0.12629900501E+04  0.12629900501E+04  0.00000000000E+00 0. -1.
         -2   -1    0    0    0  501 -0.00000000000E+00 -0.00000000000E+00 -0.11393967380E+04  0.11393967380E+04  0.00000000000E+00 0.  1.
    9900016    2    1    2    0    0 -0.24220265567E+02 -0.14299942357E+03  0.23285435655E+03  0.22208009070E+04  0.22037922000E+04 0.  0.
         24    2    3    3    0    0 -0.64617026954E+03  0.22768029921E+03  0.27576255704E+03  0.74284984733E+03  0.80041063999E+02 0.  0.
        -15    1    4    4    0    0 -0.31991291620E+03  0.79649922568E+02  0.15912415218E+03  0.36607223320E+03  0.00000000000E+00 0.  1.
        -15    1    3    3    0    0  0.11431793500E+03 -0.53113765089E+03  0.98298377661E+02  0.55212169448E+03  0.00000000000E+00 0.  1.
         15    1    3    3    0    0  0.39662343248E+03  0.16045017501E+03 -0.30692396250E+03  0.52655173023E+03  0.00000000000E+00 0. -1.
         15    1    3    3    0    0  0.11182498813E+03 -0.12663765056E+03 -0.36368566778E+01  0.16898268916E+03  0.00000000000E+00 0. -1.
        -16    1    1    2    0    0  0.24220265567E+02  0.14299942357E+03 -0.10926104443E+03  0.18158588116E+03  0.00000000000E+00 0.  1.
         16    1    4    4    0    0 -0.32625735334E+03  0.14803037665E+03  0.11663840487E+03  0.37677761413E+03  0.00000000000E+00 0. -1.
    9900018    1    3    3    0    0 -0.81635163709E+00  0.12664540366E+03  0.16935424102E+03  0.23029494577E+03  0.91187600000E+02 0.  0.
<mgrwt>
<rscale>  0 0.23992055E+04</rscale>
<asrwt>0</asrwt>
<pdfrwt beam="1">  1        2 0.19430616E+00 0.23992055E+04</pdfrwt>
<pdfrwt beam="2">  1       -2 0.17529181E+00 0.23992055E+04</pdfrwt>
<totfact> 0.30563266E+00</totfact>
</mgrwt>
</event>
<event>
11    1  0.1169415E-008  0.2853941E+04  0.7818608E-02  0.8286715E-01
         -1   -1    0    0    0  501 -0.00000000000E+00  0.00000000000E+00  0.17408270331E+04  0.17408270331E+04  0.00000000000E+00 0.  1.
          1   -1    0    0  501    0  0.00000000000E+00 -0.00000000000E+00 -0.11696997170E+04  0.11696997170E+04  0.00000000000E+00 0. -1.
    9900016    2    1    2    0    0 -0.46408986006E+03  0.27024562822E+03  0.27038493798E+03  0.22950122695E+04  0.22148501540E+04 0.  0.
         24    2    3    3    0    0  0.27614261651E+03 -0.47544164330E+03  0.23397649399E+03  0.60224388973E+03  0.75187779167E+02 0.  0.
        -15    1    3    3    0    0  0.70460089115E+01  0.11197640325E+03 -0.77232463971E+02  0.13621018544E+03  0.00000000000E+00 0.  1.
        -15    1    4    4    0    0  0.10415139352E+03 -0.25303108838E+03  0.12247605386E+03  0.29978763855E+03  0.00000000000E+00 0.  1.
         15    1    3    3    0    0 -0.42202334758E+03  0.42007944541E+03 -0.32089215362E+03  0.67641867258E+03  0.00000000000E+00 0. -1.
         15    1    3    3    0    0  0.13936804489E+03 -0.15226187135E+02  0.30922389489E+03  0.33952128929E+03  0.00000000000E+00 0. -1.
        -16    1    1    2    0    0  0.46408986006E+03 -0.27024562822E+03  0.30074237814E+03  0.61551448057E+03  0.00000000000E+00 0.  1.
         16    1    4    4    0    0  0.17199122299E+03 -0.22241055492E+03  0.11150044013E+03  0.30245625118E+03  0.00000000000E+00 0. -1.
    9900018    1    3    3    0    0 -0.46462318278E+03  0.22885760999E+03  0.12530916668E+03  0.54061823247E+03  0.91187600000E+02 0.  0.
<mgrwt>
<rscale>  0 0.28539411E+04</rscale>
<asrwt>0</asrwt>
<pdfrwt beam="1">  1        1 0.17995380E+00 0.28539411E+04</pdfrwt>
<pdfrwt beam="2">  1       -1 0.26781954E+00 0.28539411E+04</pdfrwt>
<totfact> 0.51738324E-01</totfact>
</mgrwt>
</event>
<event>
11    1  0.1197647E-008  0.2542637E+04  0.7818608E-02  0.8387951E-01
         -2   -1    0    0    0  501 -0.00000000000E+00  0.00000000000E+00  0.49829299966E+03  0.49829299966E+03  0.00000000000E+00 0.  1.
          2   -1    0    0  501    0  0.00000000000E+00 -0.00000000000E+00 -0.32435745887E+04  0.32435745887E+04  0.00000000000E+00 0. -1.
    9900016    2    1    2    0    0 -0.18766573447E+02 -0.30095621681E+03 -0.25154460073E+04  0.33627222029E+04  0.22112225508E+04 0.  0.
         24    2    3    3    0    0  0.67695997183E+03 -0.31322016905E+03 -0.66881280390E+03  0.10054634842E+04  0.85232468592E+02 0.  0.
        -15    1    3    3    0    0  0.14328392579E+03 -0.15732589656E+03 -0.11926838720E+03  0.24393988871E+03  0.00000000000E+00 0. -1.
        -15    1    4    4    0    0  0.46222410291E+02 -0.29700696711E+01 -0.58119748353E+02  0.74318488114E+02  0.00000000000E+00 0.  1.
         15    1    3    3    0    0  0.84174056556E+02 -0.29712361698E+02 -0.23037744265E+02  0.92189120267E+02  0.00000000000E+00 0.  1.
         15    1    3    3    0    0 -0.83515440221E+03  0.32317994329E+03 -0.15283190041E+04  0.17713517803E+04  0.00000000000E+00 0. -1.
        -16    1    1    2    0    0  0.18766573447E+02  0.30095621681E+03 -0.22983558182E+03  0.37914538556E+03  0.00000000000E+00 0.  1.
         16    1    4    4    0    0  0.63073756154E+03 -0.31025009938E+03 -0.61069305555E+03  0.93114499611E+03  0.00000000000E+00 0. -1.
    9900018    1    3    3    0    0 -0.88030125411E+02 -0.12387773280E+03 -0.17600806781E+03  0.24977792935E+03  0.91187600000E+02 0.  0.
<mgrwt>
<rscale>  0 0.25426368E+04</rscale>
<asrwt>0</asrwt>
<pdfrwt beam="1">  1        2 0.49901145E+00 0.25426368E+04</pdfrwt>
<pdfrwt beam="2">  1       -2 0.76660465E-01 0.25426368E+04</pdfrwt>
<totfact> 0.16418361E+00</totfact>
</mgrwt>
</event>
<event>
11    1  0.1169415E-008  0.3002371E+04  0.7818608E-02  0.8243054E-01
          2   -1    0    0  501    0  0.00000000000E+00  0.00000000000E+00  0.84375858387E+03  0.84375858387E+03  0.00000000000E+00 0. -1.
         -2   -1    0    0    0  501 -0.00000000000E+00 -0.00000000000E+00 -0.26708561551E+04  0.26708561551E+04  0.00000000000E+00 0.  1.
    9900016    2    1    2    0    0  0.32636313272E+03  0.59361959573E+03 -0.15875814352E+04  0.27960988392E+04  0.21997401633E+04 0.  0.
         24    2    3    3    0    0  0.61544170515E+03  0.48910480157E+03 -0.45078675311E+03  0.90953508466E+03  0.77803432452E+02 0.  0.
        -15    1    3    3    0    0  0.23130930025E+03  0.51904871130E+02 -0.60371795855E+03  0.64859346396E+03  0.00000000000E+00 0.  1.
        -15    1    4    4    0    0  0.28999422356E+03  0.27570850105E+03 -0.21001118287E+03  0.45190322436E+03  0.00000000000E+00 0.  1.
         15    1    3    3    0    0  0.41201636658E+02  0.41440654214E+02  0.77465832768E+02  0.97035343723E+02  0.00000000000E+00 0. -1.
         15    1    3    3    0    0 -0.31730036937E+03 -0.33593548717E+02 -0.76898364149E+03  0.83255263605E+03  0.00000000000E+00 0. -1.
        -16    1    1    2    0    0 -0.32636313272E+03 -0.59361959573E+03 -0.23951613595E+03  0.71851589977E+03  0.00000000000E+00 0.  1.
         16    1    4    4    0    0  0.32544748159E+03  0.21339630051E+03 -0.24077557024E+03  0.45763186031E+03  0.00000000000E+00 0. -1.
    9900018    1    3    3    0    0 -0.24428913997E+03  0.44762817534E+02  0.15844108514E+03  0.30838231077E+03  0.91187600000E+02 0.  0.
<mgrwt>
<rscale>  0 0.30023709E+04</rscale>
<asrwt>0</asrwt>
<pdfrwt beam="1">  1        2 0.12980901E+00 0.30023709E+04</pdfrwt>
<pdfrwt beam="2">  1       -2 0.41090095E+00 0.30023709E+04</pdfrwt>
<totfact> 0.17258702E-01</totfact>
</mgrwt>
</event>
<event>
11    1  0.1169415E-008  0.2460834E+04  0.7818608E-02  0.8417073E-01
         -2   -1    0    0    0  501 -0.00000000000E+00  0.00000000000E+00  0.83869271531E+03  0.83869271531E+03  0.00000000000E+00 0.  1.
          2   -1    0    0  501    0  0.00000000000E+00 -0.00000000000E+00 -0.18051016157E+04  0.18051016157E+04  0.00000000000E+00 0. -1.
    9900016    2    1    2    0    0  0.11444193432E+03 -0.15576669057E+03 -0.71400931431E+03  0.23258859019E+04  0.22051248739E+04 0.  0.
         24    2    3    3    0    0 -0.62968741003E+01 -0.79127206542E+01  0.29635499504E+03  0.30692012428E+03  0.79192283919E+02 0.  0.
        -15    1    3    3    0    0  0.47060219661E+03 -0.40364369592E+03 -0.54686627117E+03  0.82671481132E+03  0.00000000000E+00 0.  1.
        -15    1    4    4    0    0  0.72641242976E+01  0.22294033265E+02  0.27960113446E+02  0.36490538019E+02  0.00000000000E+00 0.  1.
         15    1    3    3    0    0  0.11897246757E+03 -0.22230154345E+03 -0.41252358087E+03  0.48347505524E+03  0.00000000000E+00 0. -1.
         15    1    3    3    0    0 -0.11446741282E+03  0.98285807221E+02  0.72093136175E+02  0.16721336305E+03  0.00000000000E+00 0. -1.
        -16    1    1    2    0    0 -0.11444193432E+03  0.15576669057E+03 -0.25239958610E+03  0.31790842908E+03  0.00000000000E+00 0.  1.
         16    1    4    4    0    0 -0.13560998398E+02 -0.30206753920E+02  0.26839488160E+03  0.27042958626E+03  0.00000000000E+00 0. -1.
    9900018    1    3    3    0    0 -0.35436844295E+03  0.37980546223E+03 -0.12306759348E+03  0.54156254806E+03  0.91187600000E+02 0.  0.
<mgrwt>
<rscale>  0 0.24608337E+04</rscale>
<asrwt>0</asrwt>
<pdfrwt beam="1">  1        2 0.27770794E+00 0.24608337E+04</pdfrwt>
<pdfrwt beam="2">  1       -2 0.12902965E+00 0.24608337E+04</pdfrwt>
<totfact> 0.33954502E+00</totfact>
</mgrwt>
</event>
<event>
11    1  0.1169415E-008  0.2922258E+04  0.7818608E-02  0.8266286E-01
         -1   -1    0    0    0  501 -0.00000000000E+00  0.00000000000E+00  0.17742799816E+04  0.17742799816E+04  0.00000000000E+00 0.  1.
          1   -1    0    0  501    0  0.00000000000E+00 -0.00000000000E+00 -0.12032478391E+04  0.12032478391E+04  0.00000000000E+00 0. -1.
    9900016    2    1    2    0    0  0.58726784051E+03 -0.17557226699E+03  0.63502407680E+03  0.23612453326E+04  0.21900947024E+04 0.  0.
         24    2    3    3    0    0 -0.29739656792E+03  0.19747406460E+02 -0.52317722998E+00  0.30709893551E+03  0.73991917167E+02 0.  0.
        -15    1    3    3    0    0 -0.90098764052E+02 -0.42820514034E+03 -0.11087282671E+03  0.45140914168E+03  0.00000000000E+00 0.  1.
        -15    1    4    4    0    0 -0.17589161966E+03  0.44192368026E+02  0.16000651454E+02  0.18206275870E+03  0.00000000000E+00 0.  1.
         15    1    3    3    0    0  0.95442147804E+02  0.13081050463E+03 -0.46732586022E+02  0.16853642424E+03  0.00000000000E+00 0. -1.
         15    1    3    3    0    0  0.21021156112E+03 -0.13270234200E+03  0.66225265060E+03  0.70737358251E+03  0.00000000000E+00 0. -1.
        -16    1    1    2    0    0 -0.58726784051E+03  0.17557226699E+03 -0.63991934235E+02  0.61628248805E+03  0.00000000000E+00 0.  1.
         16    1    4    4    0    0 -0.12150494826E+03 -0.24444961566E+02 -0.16523828684E+02  0.12503617681E+03  0.00000000000E+00 0. -1.
    9900018    1    3    3    0    0  0.66910946356E+03  0.23477730426E+03  0.13090001615E+03  0.72682724869E+03  0.91187600000E+02 0.  0.
<mgrwt>
<rscale>  0 0.29222584E+04</rscale>
<asrwt>0</asrwt>
<pdfrwt beam="1">  1        1 0.18511505E+00 0.29222584E+04</pdfrwt>
<pdfrwt beam="2">  1       -1 0.27296615E+00 0.29222584E+04</pdfrwt>
<totfact> 0.45002020E-01</totfact>
</mgrwt>
</event>
<event>
11    1  0.1169415E-008  0.3715385E+04  0.7818608E-02  0.8064561E-01
         -1   -1    0    0    0  501 -0.00000000000E+00  0.00000000000E+00  0.26462471311E+04  0.26462471311E+04  0.00000000000E+00 0.  1.
          1   -1    0    0  501    0  0.00000000000E+00 -0.00000000000E+00 -0.13041189084E+04  0.13041189084E+04  0.00000000000E+00 0. -1.
    9900016    2    1    2    0    0 -0.86936028278E+03  0.45617741734E+03  0.16425215522E+04  0.29236619489E+04  0.22104381929E+04 0.  0.
        -24    2    3    3    0    0 -0.82229939773E+03  0.64903687437E+03  0.94803915130E+03  0.14150464563E+04  0.78441554110E+02 0.  0.
        -15    1    3    3    0    0 -0.17991824154E+03 -0.22038902045E+03 -0.49597343034E+02  0.28879368138E+03  0.00000000000E+00 0.  1.
        -15    1    3    3    0    0 -0.13575696355E+02  0.21145824213E+03 -0.51014880960E+02  0.21794817223E+03  0.00000000000E+00 0.  1.
         15    1    4    4    0    0 -0.12420341443E+03  0.13412521107E+03  0.15319637128E+03  0.23850616045E+03  0.00000000000E+00 0. -1.
         15    1    3    3    0    0  0.63336908910E+02 -0.37563728417E+03  0.51968774234E+03  0.64435260753E+03  0.00000000000E+00 0. -1.
        -16    1    4    4    0    0 -0.69809598331E+03  0.51491166330E+03  0.79484278002E+03  0.11765402959E+04  0.00000000000E+00 0.  1.
         16    1    1    2    0    0  0.86936028278E+03 -0.45617741734E+03 -0.30039332941E+03  0.10267040906E+04  0.00000000000E+00 0. -1.
    9900018    1    3    3    0    0  0.83096143936E+02  0.19170860545E+03  0.27540688253E+03  0.35752103138E+03  0.91187600000E+02 0.  0.
<mgrwt>
<rscale>  0 0.37153847E+04</rscale>
<asrwt>0</asrwt>
<pdfrwt beam="1">  1        1 0.20063368E+00 0.37153847E+04</pdfrwt>
<pdfrwt beam="2">  1       -1 0.40711494E+00 0.37153847E+04</pdfrwt>
<totfact> 0.45995884E-02</totfact>
</mgrwt>
</event>
<event>
11    1  0.1169415E-008  0.3034973E+04  0.7818608E-02  0.8233814E-01
         -2   -1    0    0    0  501 -0.00000000000E+00  0.00000000000E+00  0.16401259491E+04  0.16401259491E+04  0.00000000000E+00 0.  1.
          2   -1    0    0  501    0  0.00000000000E+00 -0.00000000000E+00 -0.14040177513E+04  0.14040177513E+04  0.00000000000E+00 0. -1.
    9900016    2    1    2    0    0  0.35544835541E+03 -0.17401156771E+03 -0.41752372715E+03  0.22800375217E+04  0.22062686778E+04 0.  0.
         24    2    3    3    0    0 -0.10553596755E+03  0.22521916979E+02  0.30845268221E+03  0.33649856383E+03  0.80269228871E+02 0.  0.
        -15    1    4    4    0    0 -0.13595529754E+02 -0.24713046663E+02  0.98839935046E+02  0.10278572792E+03  0.00000000000E+00 0.  1.
        -15    1    3    3    0    0  0.87924013129E+02  0.90306496471E+02 -0.14899610560E+03  0.19515566831E+03  0.00000000000E+00 0.  1.
         15    1    3    3    0    0  0.90322151974E+03 -0.67986354680E+02 -0.18088391365E+03  0.92366132774E+03  0.00000000000E+00 0. -1.
         15    1    3    3    0    0 -0.32270200809E+03  0.44882820769E+00 -0.55483511311E+01  0.32275001420E+03  0.00000000000E+00 0. -1.
        -16    1    1    2    0    0 -0.35544835541E+03  0.17401156771E+03  0.65363192489E+03  0.76410617868E+03  0.00000000000E+00 0.  1.
         16    1    4    4    0    0 -0.91940437800E+02  0.47234963643E+02  0.20961274717E+03  0.23371283591E+03  0.00000000000E+00 0. -1.
    9900018    1    3    3    0    0 -0.20745920181E+03 -0.21930245469E+03 -0.39054803897E+03  0.50197194761E+03  0.91187600000E+02 0.  0.
<mgrwt>
<rscale>  0 0.30349734E+04</rscale>
<asrwt>0</asrwt>
<pdfrwt beam="1">  1        2 0.21600273E+00 0.30349734E+04</pdfrwt>
<pdfrwt beam="2">  1       -2 0.25232707E+00 0.30349734E+04</pdfrwt>
<totfact> 0.76395137E-01</totfact>
</mgrwt>
</event>
<event>
11    1  0.1169415E-008  0.2557853E+04  0.7818608E-02  0.8382660E-01
         -2   -1    0    0    0  501 -0.00000000000E+00  0.00000000000E+00  0.18044139887E+04  0.18044139887E+04  0.00000000000E+00 0.  1.
          2   -1    0    0  501    0  0.00000000000E+00 -0.00000000000E+00 -0.90647346177E+03  0.90647346177E+03  0.00000000000E+00 0. -1.
    9900016    2    1    2    0    0  0.19884527248E+03 -0.12325492338E+03  0.10329191819E+04  0.24407940300E+04  0.21990503046E+04 0.  0.
        -24    2    3    3    0    0 -0.61340910265E+02  0.26920651258E+03  0.30279559477E+03  0.41570421099E+03  0.69928285609E+02 0.  0.
        -15    1    3    3    0    0  0.61102818298E+03 -0.36371776578E+03  0.18595776814E+03  0.73500091501E+03  0.00000000000E+00 0.  1.
        -15    1    3    3    0    0  0.28373580432E+03  0.90265574065E+02  0.17525343953E+03  0.34549623527E+03  0.00000000000E+00 0.  1.
         15    1    3    3    0    0 -0.24704636900E+03 -0.32701655913E+03  0.10294054996E+03  0.42257365655E+03  0.00000000000E+00 0. -1.
         15    1    4    4    0    0 -0.40986966111E+02  0.25576155893E+03  0.28719241273E+03  0.38674718919E+03  0.00000000000E+00 0. -1.
        -16    1    4    4    0    0 -0.20353944154E+02  0.13444953652E+02  0.15603182044E+02  0.28957021795E+02  0.00000000000E+00 0.  1.
         16    1    1    2    0    0 -0.19884527248E+03  0.12325492338E+03 -0.13497865493E+03  0.27009342053E+03  0.00000000000E+00 0. -1.
    9900018    1    3    3    0    0 -0.38753143556E+03  0.20800731488E+03  0.26597182951E+03  0.52201901218E+03  0.91187600000E+02 0.  0.
<mgrwt>
<rscale>  0 0.25578533E+04</rscale>
<asrwt>0</asrwt>
<pdfrwt beam="1">  1        2 0.13945746E+00 0.25578533E+04</pdfrwt>
<pdfrwt beam="2">  1       -2 0.27760215E+00 0.25578533E+04</pdfrwt>
<totfact> 0.11222300E+00</totfact>
</mgrwt>
</event>
<event>
11    1  0.1169415E-008  0.2708308E+04  0.7818608E-02  0.8332314E-01
          1   -1    0    0  501    0  0.00000000000E+00  0.00000000000E+00  0.14240744241E+04  0.14240744241E+04  0.00000000000E+00 0. -1.
         -1   -1    0    0    0  501 -0.00000000000E+00 -0.00000000000E+00 -0.12876662933E+04  0.12876662933E+04  0.00000000000E+00 0.  1.
    9900016    2    1    2    0    0  0.34079003403E+03  0.29603987125E+03  0.14432886638E+03  0.22602540723E+04  0.22100090943E+04 0.  0.
         24    2    3    3    0    0 -0.13404531975E+03 -0.10119829290E+03  0.66260644830E+03  0.68857680084E+03  0.82954584534E+02 0.  0.
        -15    1    4    4    0    0 -0.86559772322E+02 -0.95211639566E+02  0.56987952503E+03  0.58422643174E+03  0.00000000000E+00 0.  1.
        -15    1    3    3    0    0  0.54720385259E+02 -0.20132883508E+02 -0.26831774877E+02  0.64184092299E+02  0.00000000000E+00 0.  1.
         15    1    3    3    0    0  0.58321885585E+03  0.26605795446E+02  0.22984031788E+03  0.62743818333E+03  0.00000000000E+00 0. -1.
         15    1    3    3    0    0 -0.64482701250E+02  0.27912298523E+03 -0.60734526416E+03  0.67151763159E+03  0.00000000000E+00 0. -1.
        -16    1    1    2    0    0 -0.34079003403E+03 -0.29603987125E+03 -0.79207355891E+01  0.45148664512E+03  0.00000000000E+00 0.  1.
         16    1    4    4    0    0 -0.47485547432E+02 -0.59866533357E+01  0.92726923274E+02  0.10435036911E+03  0.00000000000E+00 0. -1.
    9900018    1    3    3    0    0 -0.98621186074E+02  0.11164226698E+03 -0.11394086076E+03  0.20853736419E+03  0.91187600000E+02 0.  0.
<mgrwt>
<rscale>  0 0.27083077E+04</rscale>
<asrwt>0</asrwt>
<pdfrwt beam="1">  1        1 0.21908837E+00 0.27083077E+04</pdfrwt>
<pdfrwt beam="2">  1       -1 0.19810251E+00 0.27083077E+04</pdfrwt>
<totfact> 0.10002329E+00</totfact>
</mgrwt>
</event>
<event>
11    1  0.1169415E-008  0.3449838E+04  0.7818608E-02  0.8125782E-01
          2   -1    0    0  501    0  0.00000000000E+00  0.00000000000E+00  0.24790097454E+04  0.24790097454E+04  0.00000000000E+00 0. -1.
         -2   -1    0    0    0  501 -0.00000000000E+00 -0.00000000000E+00 -0.12002156073E+04  0.12002156073E+04  0.00000000000E+00 0.  1.
    9900016    2    1    2    0    0  0.22810180160E+03 -0.79447507668E+03  0.15459557117E+04  0.28105502778E+04  0.21968142211E+04 0.  0.
         24    2    3    3    0    0 -0.13340649311E+03  0.48732523501E+03  0.39015392270E+03  0.64316991752E+03  0.78512943659E+02 0.  0.
        -15    1    4    4    0    0  0.11715226598E+00  0.60303350676E+02  0.23524775719E+02  0.64729613779E+02  0.00000000000E+00 0.  1.
        -15    1    3    3    0    0 -0.95837066207E+02 -0.93452869867E+02  0.90522541716E+01  0.13416454618E+03  0.00000000000E+00 0.  1.
         15    1    3    3    0    0 -0.11884386362E+03 -0.71035698464E+03  0.93054304040E+03  0.11767078055E+04  0.00000000000E+00 0. -1.
         15    1    3    3    0    0  0.40825743160E+02  0.52828217030E+02  0.36650725167E+02  0.76163229149E+02  0.00000000000E+00 0. -1.
        -16    1    1    2    0    0 -0.22810180160E+03  0.79447507668E+03 -0.26716157366E+03  0.86867507493E+03  0.00000000000E+00 0.  1.
         16    1    4    4    0    0 -0.13352364538E+03  0.42702188434E+03  0.36662914698E+03  0.57844030374E+03  0.00000000000E+00 0. -1.
    9900018    1    3    3    0    0  0.53536348137E+03 -0.53081867422E+03  0.17955576923E+03  0.78034477941E+03  0.91187600000E+02 0.  0.
<mgrwt>
<rscale>  0 0.34498384E+04</rscale>
<asrwt>0</asrwt>
<pdfrwt beam="1">  1        2 0.38138611E+00 0.34498384E+04</pdfrwt>
<pdfrwt beam="2">  1       -2 0.18464856E+00 0.34498384E+04</pdfrwt>
<totfact> 0.49758955E-01</totfact>
</mgrwt>
</event>
<event>
11    1  0.1169415E-008  0.3761274E+04  0.7818608E-02  0.8054517E-01
         -2   -1    0    0    0  501 -0.00000000000E+00  0.00000000000E+00  0.14478897423E+04  0.14478897423E+04  0.00000000000E+00 0.  1.
          2   -1    0    0  501    0  0.00000000000E+00 -0.00000000000E+00 -0.24427242378E+04  0.24427242378E+04  0.00000000000E+00 0. -1.
    9900016    2    1    2    0    0  0.67058676407E+03 -0.84160765062E+03  0.16951290474E+01  0.24239642816E+04  0.21720059667E+04 0.  0.
         24    2    3    3    0    0 -0.61374646635E+02  0.97210276100E+02 -0.59097115090E+02  0.15239610226E+03  0.80718138868E+02 0.  0.
        -15    1    3    3    0    0 -0.17922487764E+02 -0.12402869618E+03  0.40662434971E+03  0.42549699743E+03  0.00000000000E+00 0.  1.
        -15    1    4    4    0    0 -0.37074333547E+02  0.25162901364E+02 -0.61774875184E+02  0.76313911032E+02  0.00000000000E+00 0.  1.
         15    1    3    3    0    0 -0.31722262942E+02 -0.30117760833E+03 -0.69670226186E+02  0.31075423431E+03  0.00000000000E+00 0. -1.
         15    1    3    3    0    0  0.41836021856E+03 -0.28745418357E+03  0.45603630128E+03  0.68236668164E+03  0.00000000000E+00 0. -1.
        -16    1    1    2    0    0 -0.67058676407E+03  0.84160765062E+03 -0.99652962455E+03  0.14666496986E+04  0.00000000000E+00 0.  1.
         16    1    4    4    0    0 -0.24300313088E+02  0.72047374736E+02  0.26777600940E+01  0.76082191225E+02  0.00000000000E+00 0. -1.
    9900018    1    3    3    0    0  0.36324594285E+03 -0.22615743863E+03 -0.73219818066E+03  0.85295026596E+03  0.91187600000E+02 0.  0.
<mgrwt>
<rscale>  0 0.37612739E+04</rscale>
<asrwt>0</asrwt>
<pdfrwt beam="1">  1        2 0.37580372E+00 0.37612739E+04</pdfrwt>
<pdfrwt beam="2">  1       -2 0.22275227E+00 0.37612739E+04</pdfrwt>
<totfact> 0.28693025E-01</totfact>
</mgrwt>
</event>
<event>
11    1  0.1169415E-008  0.2853070E+04  0.7818608E-02  0.8286979E-01
          2   -1    0    0  501    0  0.00000000000E+00  0.00000000000E+00  0.37247791541E+04  0.37247791541E+04  0.00000000000E+00 0. -1.
         -2   -1    0    0    0  501 -0.00000000000E+00 -0.00000000000E+00 -0.54634174755E+03  0.54634174755E+03  0.00000000000E+00 0.  1.
    9900016    2    1    2    0    0  0.45719376916E+03  0.12374381921E+03  0.20274678797E+04  0.30265046849E+04  0.21965349824E+04 0.  0.
        -24    2    3    3    0    0  0.51322783859E+03  0.19980696009E+03  0.84541112703E+03  0.10121475735E+04  0.79981881093E+02 0.  0.
        -15    1    3    3    0    0  0.72163677899E+02 -0.23995807301E+01  0.25109793875E+03  0.26127290185E+03  0.00000000000E+00 0.  1.
        -15    1    3    3    0    0  0.11192123488E+03 -0.50994581488E+03  0.64511756319E+03  0.82990828846E+03  0.00000000000E+00 0.  1.
         15    1    3    3    0    0 -0.43390573499E+03  0.46143389287E+03  0.10563031039E+03  0.64214732486E+03  0.00000000000E+00 0. -1.
         15    1    4    4    0    0  0.95580458879E+02  0.50268570488E+02  0.11646946934E+03  0.15883227187E+03  0.00000000000E+00 0. -1.
        -16    1    4    4    0    0  0.41764737971E+03  0.14953838960E+03  0.72894165769E+03  0.85331530167E+03  0.00000000000E+00 0.  1.
         16    1    1    2    0    0 -0.45719376916E+03 -0.12374381921E+03  0.11509695268E+04  0.12446162168E+04  0.00000000000E+00 0. -1.
    9900018    1    3    3    0    0  0.19378675279E+03 -0.25151638143E+02  0.18021094038E+03  0.28102859621E+03  0.91187600000E+02 0.  0.
<mgrwt>
<rscale>  0 0.28530702E+04</rscale>
<asrwt>0</asrwt>
<pdfrwt beam="1">  1        2 0.57304293E+00 0.28530702E+04</pdfrwt>
<pdfrwt beam="2">  1       -2 0.84052579E-01 0.28530702E+04</pdfrwt>
<totfact> 0.59911263E-01</totfact>
</mgrwt>
</event>
