<event>
12    1  0.1576492E-008  0.3722228E+04  0.7818608E-02  0.8063054E-01
         -1   -1    0    0    0  501 -0.00000000000E+00  0.00000000000E+00  0.12676284627E+04  0.12676284627E+04  0.00000000000E+00 0.  1.
          1   -1    0    0  501    0  0.00000000000E+00 -0.00000000000E+00 -0.27324602948E+04  0.27324602948E+04  0.00000000000E+00 0. -1.
        -24    2    1    2    0    0  0.10742135840E+03 -0.69683216739E+03 -0.49501078486E+02  0.70966888442E+03  0.63758536654E+02 0.  0.
    9900016    2    1    2    0    0 -0.14579750052E+03  0.31096599726E+03 -0.36229366838E+03  0.18465687872E+04  0.17778084321E+04 0.  0.
         24    2    4    4    0    0 -0.34256894549E+03 -0.34859440745E+03  0.52633521201E+03  0.72255801498E+03  0.78675194891E+02 0.  0.
        -15    1    5    5    0    0 -0.18622086954E+03 -0.19790166571E+03  0.23541455459E+03  0.35953204871E+03  0.00000000000E+00 0.  1.
        -15    1    1    2    0    0 -0.21520695522E+03  0.43415839046E+03 -0.10647483852E+04  0.11698276220E+04  0.00000000000E+00 0.  1.
         15    1    4    4    0    0  0.19677144497E+03  0.65956040470E+03 -0.88862888039E+03  0.11240107722E+04  0.00000000000E+00 0. -1.
         15    1    3    3    0    0  0.67879198082E+02 -0.25124170750E+03 -0.74684148040E+01  0.26035698250E+03  0.00000000000E+00 0. -1.
        -16    1    3    3    0    0  0.39542160314E+02 -0.44559045989E+03 -0.42032663682E+02  0.44931190192E+03  0.00000000000E+00 0.  1.
         16    1    5    5    0    0 -0.15634807595E+03 -0.15069274174E+03  0.29092065742E+03  0.36302596626E+03  0.00000000000E+00 0. -1.
    9900018    1    1    2    0    0  0.25358309735E+03 -0.48292220326E+02  0.11711299923E+02  0.27402346386E+03  0.91187600000E+02 0.  0.
<mgrwt>
<rscale>  0 0.37222275E+04</rscale>
<asrwt>0</asrwt>
<pdfrwt beam="1">  1        1 0.42037850E+00 0.37222275E+04</pdfrwt>
<pdfrwt beam="2">  1       -1 0.19501977E+00 0.37222275E+04</pdfrwt>
<totfact> 0.12144851E-01</totfact>
</mgrwt>
</event>
<event>
12    1  0.1576492E-008  0.6343228E+04  0.7818608E-02  0.7649244E-01
         -1   -1    0    0    0  501 -0.00000000000E+00  0.00000000000E+00  0.49516567486E+04  0.49516567486E+04  0.00000000000E+00 0.  1.
          1   -1    0    0  501    0  0.00000000000E+00 -0.00000000000E+00 -0.20314685350E+04  0.20314685350E+04  0.00000000000E+00 0. -1.
         24    2    1    2    0    0 -0.84165185218E+03 -0.84570168708E+03  0.82647652128E+03  0.14544445572E+04  0.93575348881E+02 0.  0.
    9900016    2    1    2    0    0  0.10814639779E+04  0.18838615714E+04 -0.14364351874E+03  0.28048902951E+04  0.17686936850E+04 0.  0.
        -24    2    4    4    0    0  0.10956313699E+03  0.14676898108E+04  0.51257190269E+03  0.15605395173E+04  0.80225730717E+02 0.  0.
        -15    1    3    3    0    0 -0.61855947204E+03 -0.67718687719E+03  0.63919812420E+03  0.11179320771E+04  0.00000000000E+00 0.  1.
        -15    1    4    4    0    0  0.97190084092E+03  0.41617176054E+03 -0.65621542143E+03  0.12443507778E+04  0.00000000000E+00 0.  1.
         15    1    5    5    0    0 -0.96392288561E+01  0.14972977508E+03  0.39120109604E+02  0.15505580690E+03  0.00000000000E+00 0. -1.
         15    1    1    2    0    0 -0.44531357186E+02 -0.11440782243E+04  0.22008969626E+04  0.24808961012E+04  0.00000000000E+00 0. -1.
        -16    1    5    5    0    0  0.11920236584E+03  0.13179600357E+04  0.47345179309E+03  0.14054837104E+04  0.00000000000E+00 0.  1.
         16    1    3    3    0    0 -0.22309238013E+03 -0.16851480989E+03  0.18727839708E+03  0.33651248006E+03  0.00000000000E+00 0. -1.
    9900018    1    1    2    0    0 -0.19528076855E+03  0.10591834002E+03  0.36458248507E+02  0.24289433010E+03  0.91187600000E+02 0.  0.
<mgrwt>
<rscale>  0 0.63432278E+04</rscale>
<asrwt>0</asrwt>
<pdfrwt beam="1">  1        1 0.31253362E+00 0.63432278E+04</pdfrwt>
<pdfrwt beam="2">  1       -1 0.76179334E+00 0.63432278E+04</pdfrwt>
<totfact> 0.21021853E-04</totfact>
</mgrwt>
</event>
<event>
12    1  0.1576492E-008  0.4935905E+04  0.7818608E-02  0.7838471E-01
          2   -1    0    0  501    0  0.00000000000E+00  0.00000000000E+00  0.36254580615E+04  0.36254580615E+04  0.00000000000E+00 0. -1.
         -2   -1    0    0    0  501 -0.00000000000E+00 -0.00000000000E+00 -0.16800055551E+04  0.16800055551E+04  0.00000000000E+00 0.  1.
         24    2    1    2    0    0 -0.53253783128E+03  0.13859115713E+04 -0.21441826670E+03  0.15029319422E+04  0.92096713341E+02 0.  0.
    9900016    2    1    2    0    0 -0.28892579478E+03 -0.14479185029E+04  0.16668731653E+04  0.28424827227E+04  0.17667189289E+04 0.  0.
        -24    2    4    4    0    0  0.46178929805E+03 -0.91648841645E+03  0.31322097664E+03  0.10759751038E+04  0.80091637811E+02 0.  0.
        -15    1    4    4    0    0 -0.85718128554E+03 -0.48184943599E+03  0.12164413964E+04  0.15641829516E+04  0.00000000000E+00 0.  1.
        -15    1    3    3    0    0 -0.41412964803E+03  0.98323349332E+03 -0.12972970349E+03  0.10747470697E+04  0.00000000000E+00 0.  1.
         15    1    5    5    0    0  0.31819050740E+02 -0.12028978503E+03  0.33798867824E+02  0.12893582838E+03  0.00000000000E+00 0. -1.
         15    1    1    2    0    0  0.82146362606E+03  0.62006931615E+02  0.49299760776E+03  0.96004895176E+03  0.00000000000E+00 0. -1.
        -16    1    5    5    0    0  0.42997024731E+03 -0.79619863142E+03  0.27942210881E+03  0.94703927539E+03  0.00000000000E+00 0.  1.
         16    1    3    3    0    0 -0.11840818325E+03  0.40267807795E+03 -0.84688563207E+02  0.42818487252E+03  0.00000000000E+00 0. -1.
    9900018    1    4    4    0    0  0.10646619271E+03 -0.49580650435E+02  0.13721079221E+03  0.20232466726E+03  0.91187600000E+02 0.  0.
<mgrwt>
<rscale>  0 0.49359051E+04</rscale>
<asrwt>0</asrwt>
<pdfrwt beam="1">  1        2 0.55776278E+00 0.49359051E+04</pdfrwt>
<pdfrwt beam="2">  1       -2 0.25846239E+00 0.49359051E+04</pdfrwt>
<totfact> 0.27541078E-02</totfact>
</mgrwt>
</event>
<event>
12    1  0.1576492E-008  0.3809282E+04  0.7818608E-02  0.8421309E-01
         -2   -1    0    0    0  501 -0.00000000000E+00  0.00000000000E+00  0.19603277324E+04  0.19603277324E+04  0.00000000000E+00 0.  1.
          2   -1    0    0  501    0  0.00000000000E+00 -0.00000000000E+00 -0.25866552146E+04  0.25866552146E+04  0.00000000000E+00 0. -1.
        -24    2    1    2    0    0 -0.59962191294E+03  0.23558332578E+03 -0.32005779061E+03  0.72540858907E+03  0.93459562963E+02 0.  0.
    9900016    2    1    2    0    0 -0.87013381518E+03 -0.71650852412E+03 -0.32869799448E+03  0.22749735771E+04  0.19485751418E+04 0.  0.
         24    2    4    4    0    0  0.38421256049E+02 -0.95211309856E+02 -0.36863887246E+03  0.39157324459E+03  0.83027713148E+02 0.  0.
        -15    1    1    2    0    0  0.14697557281E+04  0.48092519834E+03  0.22428302910E+02  0.15466007809E+04  0.00000000000E+00 0.  1.
        -15    1    5    5    0    0 -0.20560633960E+02 -0.47418590082E+02 -0.10212868663E+03  0.11446191938E+03  0.00000000000E+00 0.  1.
         15    1    4    4    0    0 -0.57694400115E+03  0.46270908435E+03 -0.58570866927E+02  0.74188585622E+03  0.00000000000E+00 0. -1.
         15    1    3    3    0    0 -0.43607055580E+03  0.20935360309E+03 -0.26034913206E+03  0.54933426193E+03  0.00000000000E+00 0. -1.
        -16    1    3    3    0    0 -0.16355135714E+03  0.26229722688E+02 -0.59708658553E+02  0.17607432715E+03  0.00000000000E+00 0.  1.
         16    1    5    5    0    0  0.58981890009E+02 -0.47792719774E+02 -0.26651018582E+03  0.27711132521E+03  0.00000000000E+00 0. -1.
    9900018    1    4    4    0    0 -0.33161107007E+03 -0.10840062986E+04  0.98511744902E+02  0.11415144763E+04  0.91187600000E+02 0.  0.
<mgrwt>
<rscale>  0 0.24492044E+04</rscale>
<asrwt>0</asrwt>
<pdfrwt beam="1">  1        2 0.39794695E+00 0.38092820E+04</pdfrwt>
<pdfrwt beam="2">  1       -2 0.30158888E+00 0.38092820E+04</pdfrwt>
<totfact> 0.75284677E-02</totfact>
</mgrwt>
</event>
<event>
11    1  0.1576492E-008  0.2304559E+04  0.7818608E-02  0.8643171E-01
         -1   -1    0    0    0  501 -0.00000000000E+00  0.00000000000E+00  0.13249809950E+04  0.13249809950E+04  0.00000000000E+00 0.  1.
          1   -1    0    0  501    0  0.00000000000E+00 -0.00000000000E+00 -0.22486837646E+04  0.22486837646E+04  0.00000000000E+00 0. -1.
         24    2    1    2    0    0  0.10509142564E+04 -0.37261568387E+03 -0.87910727794E+02  0.11222279570E+04  0.91673710395E+02 0.  0.
        -24    2    1    2    0    0 -0.73699766013E+03 -0.34535759857E+03  0.26354983364E+02  0.81822194269E+03  0.79719134607E+02 0.  0.
        -15    1    1    2    0    0  0.38276484913E+02  0.30918962469E+03 -0.91074064439E+02  0.32458866050E+03  0.00000000000E+00 0.  1.
        -15    1    3    3    0    0  0.33717452671E+03 -0.80551734548E+02 -0.61073396448E+01  0.34671680519E+03  0.00000000000E+00 0.  1.
         15    1    4    4    0    0 -0.25778304302E+03 -0.15637913498E+03  0.30763780994E+02  0.30307250180E+03  0.00000000000E+00 0. -1.
         15    1    1    2    0    0 -0.53290856692E+03 -0.56929702206E+02 -0.29113673436E+03  0.60991239518E+03  0.00000000000E+00 0. -1.
        -16    1    4    4    0    0 -0.47921461711E+03 -0.18897846359E+03 -0.44087976304E+01  0.51514944089E+03  0.00000000000E+00 0.  1.
         16    1    3    3    0    0  0.71373972969E+03 -0.29206394932E+03 -0.81803388149E+02  0.77551115179E+03  0.00000000000E+00 0. -1.
    9900018    1    1    2    0    0  0.18071548574E+03  0.46571335995E+03 -0.47993622640E+03  0.69871380424E+03  0.91187600000E+02 0.  0.
<mgrwt>
<rscale>  0 0.19236544E+04</rscale>
<asrwt>0</asrwt>
<pdfrwt beam="1">  1        1 0.34595134E+00 0.23045594E+04</pdfrwt>
<pdfrwt beam="2">  1       -1 0.20384323E+00 0.23045594E+04</pdfrwt>
<totfact> 0.25060155E-01</totfact>
</mgrwt>
</event>
<event>
12    1  0.1576492E-008  0.2867797E+04  0.7818608E-02  0.8282524E-01
          2   -1    0    0  501    0  0.00000000000E+00  0.00000000000E+00  0.69823310478E+03  0.69823310478E+03  0.00000000000E+00 0. -1.
         -2   -1    0    0    0  501 -0.00000000000E+00 -0.00000000000E+00 -0.29446692606E+04  0.29446692606E+04  0.00000000000E+00 0.  1.
         24    2    1    2    0    0 -0.77423662026E+02  0.14144720114E+03  0.74001587770E+02  0.18839822483E+03  0.63371302448E+02 0.  0.
    9900016    2    1    2    0    0 -0.27481460650E+03  0.22334068226E+03 -0.16022092983E+04  0.24221341358E+04  0.17816439060E+04 0.  0.
        -24    2    4    4    0    0 -0.87460620456E+03  0.40078998892E+03 -0.15065760481E+04  0.17893751484E+04  0.80767597792E+02 0.  0.
        -15    1    4    4    0    0  0.59979159807E+03 -0.17744930666E+03 -0.95633250210E+02  0.63275898737E+03  0.00000000000E+00 0.  1.
        -15    1    3    3    0    0 -0.26305172346E+02  0.81328520875E+02  0.68056410865E+02  0.10926099697E+03  0.00000000000E+00 0. -1.
         15    1    1    2    0    0 -0.71686992214E+02 -0.16170913705E+01  0.43302223341E+02  0.83765878396E+02  0.00000000000E+00 0.  1.
         15    1    5    5    0    0 -0.27078019713E+03  0.16565708109E+03 -0.48949756868E+03  0.58341413543E+03  0.00000000000E+00 0. -1.
        -16    1    5    5    0    0 -0.60382600743E+03  0.23513290783E+03 -0.10170784794E+04  0.12059610130E+04  0.00000000000E+00 0.  1.
         16    1    3    3    0    0 -0.51118489680E+02  0.60118680268E+02  0.59451769044E+01  0.79137227856E+02  0.00000000000E+00 0. -1.
    9900018    1    1    2    0    0  0.42392526074E+03 -0.36317079203E+03 -0.76153066862E+03  0.94860412635E+03  0.91187600000E+02 0.  0.
<mgrwt>
<rscale>  0 0.28677975E+04</rscale>
<asrwt>0</asrwt>
<pdfrwt beam="1">  1        2 0.10742048E+00 0.28677975E+04</pdfrwt>
<pdfrwt beam="2">  1       -2 0.45302603E+00 0.28677975E+04</pdfrwt>
<totfact> 0.11771941E-01</totfact>
</mgrwt>
</event>
<event>
12    1  0.1576492E-008  0.4113434E+04  0.7818608E-02  0.7982046E-01
          2   -1    0    0  501    0  0.00000000000E+00  0.00000000000E+00  0.32150284783E+04  0.32150284783E+04  0.00000000000E+00 0. -1.
         -2   -1    0    0    0  501 -0.00000000000E+00 -0.00000000000E+00 -0.13157223752E+04  0.13157223752E+04  0.00000000000E+00 0.  1.
         24    2    1    2    0    0  0.19931150673E+02 -0.72081859070E+03  0.14737067212E+01  0.72333144021E+03  0.56828770230E+02 0.  0.
    9900016    2    1    2    0    0 -0.68007553129E+03  0.78673041852E+03  0.40100900135E+03  0.20908684556E+04  0.17690322778E+04 0.  0.
        -24    2    4    4    0    0 -0.12014188141E+04  0.81382503099E+03  0.35567379724E+02  0.14536239850E+04  0.77712955057E+02 0.  0.
        -15    1    3    3    0    0 -0.18990804812E+01 -0.56489626588E+03 -0.14457034715E+02  0.56508442162E+03  0.00000000000E+00 0.  1.
        -15    1    4    4    0    0  0.52134328279E+03 -0.27094612475E+02  0.36544162163E+03  0.63724447064E+03  0.00000000000E+00 0.  1.
         15    1    1    2    0    0  0.67950485863E+03 -0.17009525524E+03  0.12452474541E+04  0.14287408690E+04  0.00000000000E+00 0. -1.
         15    1    5    5    0    0 -0.87955732854E+03  0.55371732810E+03  0.29355816575E+02  0.10397527291E+04  0.00000000000E+00 0. -1.
        -16    1    5    5    0    0 -0.32186148554E+03  0.26010770289E+03  0.62115631495E+01  0.41387125594E+03  0.00000000000E+00 0.  1.
         16    1    3    3    0    0  0.21830231154E+02 -0.15592232482E+03  0.15930741436E+02  0.15824701859E+03  0.00000000000E+00 0. -1.
    9900018    1    1    2    0    0 -0.19360478020E+02  0.10418342742E+03  0.25157594099E+03  0.28781008867E+03  0.91187600000E+02 0.  0.
<mgrwt>
<rscale>  0 0.41134340E+04</rscale>
<asrwt>0</asrwt>
<pdfrwt beam="1">  1        2 0.49461976E+00 0.41134340E+04</pdfrwt>
<pdfrwt beam="2">  1       -2 0.20241883E+00 0.41134340E+04</pdfrwt>
<totfact> 0.12694566E-01</totfact>
</mgrwt>
</event>
<event>
11    1  0.1576492E-008  0.4549542E+04  0.7818608E-02  0.7902020E-01
         -2   -1    0    0    0  501 -0.00000000000E+00  0.00000000000E+00  0.16681040104E+04  0.16681040104E+04  0.00000000000E+00 0.  1.
          2   -1    0    0  501    0  0.00000000000E+00 -0.00000000000E+00 -0.31020747332E+04  0.31020747332E+04  0.00000000000E+00 0. -1.
    9900016    2    1    2    0    0 -0.30093305624E+03  0.61389084496E+03 -0.12458954575E+04  0.21968785743E+04  0.16752902152E+04 0.  0.
         24    2    3    3    0    0 -0.28824996054E+02 -0.22675211446E+03  0.31954354102E+03  0.39929056815E+03  0.71256448082E+02 0.  0.
        -15    1    4    4    0    0 -0.26762250076E+02 -0.11163212751E+03  0.10389366150E+03  0.15482843027E+03  0.00000000000E+00 0.  1.
        -15    1    1    2    0    0 -0.24723397150E+03  0.25686119958E+03 -0.38552389679E+03  0.52510093079E+03  0.00000000000E+00 0.  1.
         15    1    3    3    0    0 -0.27210806019E+03  0.84064295942E+03 -0.15654389985E+04  0.17975880061E+04  0.00000000000E+00 0. -1.
         15    1    1    2    0    0  0.52222397933E+03 -0.33106596989E+03 -0.45318311350E+03  0.76661430678E+03  0.00000000000E+00 0. -1.
        -16    1    1    2    0    0  0.26116934983E+03 -0.73205902586E+03  0.53644827147E+03  0.94440277138E+03  0.00000000000E+00 0.  1.
         16    1    4    4    0    0 -0.20627459780E+01 -0.11511998695E+03  0.21564987952E+03  0.24446213788E+03  0.00000000000E+00 0. -1.
    9900018    1    1    2    0    0 -0.23522630141E+03  0.19237295121E+03  0.11418347360E+03  0.33718216037E+03  0.91187600000E+02 0.  0.
<mgrwt>
<rscale>  0 0.45495421E+04</rscale>
<asrwt>0</asrwt>
<pdfrwt beam="1">  1        2 0.47724226E+00 0.45495421E+04</pdfrwt>
<pdfrwt beam="2">  1       -2 0.25663139E+00 0.45495421E+04</pdfrwt>
<totfact> 0.66194862E-02</totfact>
</mgrwt>
</event>
<event>
12    1  0.1576492E-008  0.4960609E+04  0.7818608E-02  0.8488258E-01
         -1   -1    0    0    0  501 -0.00000000000E+00  0.00000000000E+00  0.23351762672E+04  0.23351762672E+04  0.00000000000E+00 0.  1.
          1   -1    0    0  501    0  0.00000000000E+00 -0.00000000000E+00 -0.32334588291E+04  0.32334588291E+04  0.00000000000E+00 0. -1.
        -24    2    1    2    0    0  0.84725447022E+02 -0.19578840555E+03 -0.55442083660E+03  0.59612266986E+03  0.49681710373E+02 0.  0.
    9900016    2    1    2    0    0  0.10901675106E+04  0.12713215099E+04 -0.15320078314E+04  0.29853445699E+04  0.19392036053E+04 0.  0.
         24    2    4    4    0    0  0.31862626279E+03  0.25337369651E+03  0.24329832155E+03  0.48134335256E+03  0.82319040094E+02 0.  0.
        -15    1    5    5    0    0  0.60515039719E+02  0.44521170409E+02  0.10549760743E+02  0.75865025529E+02  0.00000000000E+00 0.  1.
        -15    1    1    2    0    0 -0.11748929577E+04 -0.10755331044E+04  0.11881461060E+04  0.19871678565E+04  0.00000000000E+00 0.  1.
         15    1    4    4    0    0 -0.13235154614E+03  0.81984685178E+03 -0.73853280103E+03  0.11113489507E+04  0.00000000000E+00 0. -1.
         15    1    3    3    0    0  0.64688854644E+02 -0.10417193365E+03 -0.26755501512E+03  0.29431637024E+03  0.00000000000E+00 0. -1.
        -16    1    3    3    0    0  0.20036592378E+02 -0.91616471897E+02 -0.28686582148E+03  0.30180629962E+03  0.00000000000E+00 0.  1.
         16    1    5    5    0    0  0.25811122307E+03  0.20885252610E+03  0.23274856081E+03  0.40547832703E+03  0.00000000000E+00 0. -1.
    9900018    1    4    4    0    0  0.90389279398E+03  0.19810096163E+03 -0.10367733519E+04  0.13926522666E+04  0.91187600000E+02 0.  0.
<mgrwt>
<rscale>  0 0.22739636E+04</rscale>
<asrwt>0</asrwt>
<pdfrwt beam="1">  1        1 0.49745520E+00 0.49606087E+04</pdfrwt>
<pdfrwt beam="2">  1       -1 0.35925789E+00 0.49606087E+04</pdfrwt>
<totfact> 0.38438470E-03</totfact>
</mgrwt>
</event>
<event>
11    1  0.1576492E-008  0.4914303E+04  0.7818608E-02  0.8360078E-01
         -1   -1    0    0    0  501 -0.00000000000E+00  0.00000000000E+00  0.23697558090E+04  0.23697558090E+04  0.00000000000E+00 0.  1.
          1   -1    0    0  501    0  0.00000000000E+00 -0.00000000000E+00 -0.34327370455E+04  0.34327370455E+04  0.00000000000E+00 0. -1.
        -24    2    1    2    0    0  0.55663903554E+02  0.38473516835E+03 -0.78443790141E+03  0.88030218913E+03  0.92029903242E+02 0.  0.
         24    2    1    2    0    0 -0.35073075297E+03  0.61375873407E+03  0.39891231506E+03  0.81573340375E+03  0.81105524870E+02 0.  0.
        -15    1    4    4    0    0 -0.98914793821E+02  0.14893455181E+03  0.63880769848E+02  0.18985886842E+03  0.00000000000E+00 0.  1.
        -15    1    1    2    0    0 -0.59524322734E+02 -0.72783699016E+03  0.30869086742E+03  0.79283029765E+03  0.00000000000E+00 0.  1.
         15    1    1    2    0    0  0.12545743418E+04  0.57186165552E+03  0.42004866042E+03  0.14413269613E+04  0.00000000000E+00 0. -1.
         15    1    3    3    0    0  0.80152795014E+02  0.25124402298E+03 -0.52431747437E+03  0.58690445863E+03  0.00000000000E+00 0. -1.
        -16    1    3    3    0    0 -0.24488891460E+02  0.13349114537E+03 -0.26012042705E+03  0.29339773050E+03  0.00000000000E+00 0.  1.
         16    1    4    4    0    0 -0.25181595915E+03  0.46482418225E+03  0.33503154521E+03  0.62587453533E+03  0.00000000000E+00 0. -1.
    9900018    1    1    2    0    0 -0.89998316969E+03 -0.84251856777E+03 -0.14061951781E+04  0.18723000027E+04  0.91187600000E+02 0.  0.
<mgrwt>
<rscale>  0 0.26240485E+04</rscale>
<asrwt>0</asrwt>
<pdfrwt beam="1">  1        1 0.52811339E+00 0.49143031E+04</pdfrwt>
<pdfrwt beam="2">  1       -1 0.36457782E+00 0.49143031E+04</pdfrwt>
<totfact> 0.24791400E-03</totfact>
</mgrwt>
</event>
