<event>
12    1  0.6944587E-008  0.5136541E+04  0.7818608E-02  0.7807783E-01
         -2   -1    0    0    0  501 -0.00000000000E+00  0.00000000000E+00  0.16324038740E+04  0.16324038740E+04  0.00000000000E+00 0.  1.
          2   -1    0    0  501    0  0.00000000000E+00 -0.00000000000E+00 -0.40406750362E+04  0.40406750362E+04  0.00000000000E+00 0. -1.
    9900016    2    1    2    0    0  0.95510904607E+02  0.60243084833E+03  0.55621570586E+03  0.20355168768E+04  0.18606202687E+04 0.  0.
         23    2    3    3    0    0 -0.34538649511E+03 -0.33041472826E+03  0.83562101631E+03  0.96656471958E+03  0.86713035804E+02 0.  0.
    9900016    2    1    2    0    0 -0.46755318713E+02 -0.63089262440E+03 -0.25706655791E+04  0.32293983825E+04  0.18494541978E+04 0.  0.
        -15    1    4    4    0    0 -0.78986386757E+02 -0.63230184927E+02  0.25258158770E+03  0.27209256517E+03  0.00000000000E+00 0.  1.
        -15    1    5    5    0    0 -0.36205288922E+02  0.39463965342E+03  0.58579473691E+02  0.40060308753E+03  0.00000000000E+00 0.  1.
         15    1    5    5    0    0  0.37489860250E+02 -0.10210901250E+03 -0.41976289713E+03  0.43362729372E+03  0.00000000000E+00 0. -1.
         15    1    4    4    0    0 -0.26640010835E+03 -0.26718454333E+03  0.58303942861E+03  0.69447215440E+03  0.00000000000E+00 0. -1.
        -16    1    5    5    0    0 -0.48039890041E+02 -0.92342326532E+03 -0.22094821557E+04  0.23951680013E+04  0.00000000000E+00 0.  1.
         16    1    3    3    0    0  0.44089739972E+03  0.93284557658E+03 -0.27940531044E+03  0.10689521572E+04  0.00000000000E+00 0. -1.
    9900018    1    1    2    0    0 -0.48755585894E+02  0.28461776069E+02 -0.39382128897E+03  0.40816365087E+03  0.91187600000E+02 0.  0.
<mgrwt>
<rscale>  0 0.51365411E+04</rscale>
<asrwt>0</asrwt>
<pdfrwt beam="1">  1        2 0.62164230E+00 0.51365411E+04</pdfrwt>
<pdfrwt beam="2">  1       -2 0.25113906E+00 0.51365411E+04</pdfrwt>
<totfact> 0.14360978E-02</totfact>
</mgrwt>
</event>
<event>
13    1  0.6944587E-008  0.6447992E+04  0.7818608E-02  0.7637209E-01
         -2   -1    0    0    0  501 -0.00000000000E+00  0.00000000000E+00  0.47588894919E+04  0.47588894919E+04  0.00000000000E+00 0.  1.
          2   -1    0    0  501    0  0.00000000000E+00 -0.00000000000E+00 -0.21841545246E+04  0.21841545246E+04  0.00000000000E+00 0. -1.
    9900016    2    1    2    0    0  0.14756767511E+04  0.42909726409E+03 -0.46705067524E+03  0.24532204622E+04  0.18542944661E+04 0.  0.
         23    2    3    3    0    0 -0.31393754883E+03 -0.20375762393E+03  0.20890381878E+03  0.43824177005E+03  0.91329566082E+02 0.  0.
    9900016    2    1    2    0    0 -0.22964841755E+03 -0.42349166564E+03  0.11661233042E+04  0.22361504598E+04  0.18461965583E+04 0.  0.
         24    2    5    5    0    0  0.50222510364E+03  0.59766897912E+02 -0.25167069383E+03  0.56902193716E+03  0.68159298910E+02 0.  0.
        -15    1    6    6    0    0  0.25309124737E+03 -0.40696831916E+01 -0.12152540520E+03  0.28078491043E+03  0.00000000000E+00 0.  1.
        -15    1    4    4    0    0 -0.85779459166E+02 -0.24142434099E+02  0.82886137093E+02  0.12170079893E+03  0.00000000000E+00 0. -1.
         15    1    5    5    0    0 -0.73187352119E+03 -0.48325856355E+03  0.14177939980E+04  0.16671285227E+04  0.00000000000E+00 0. -1.
         15    1    4    4    0    0 -0.22815808967E+03 -0.17961518983E+03  0.12601768169E+03  0.31654097112E+03  0.00000000000E+00 0.  1.
        -16    1    3    3    0    0  0.17896142999E+04  0.63285488802E+03 -0.67595449402E+03  0.20149786921E+04  0.00000000000E+00 0.  1.
         16    1    6    6    0    0  0.24913385627E+03  0.63836581104E+02 -0.13014528863E+03  0.28823702673E+03  0.00000000000E+00 0. -1.
    9900018    1    1    2    0    0 -0.12460283335E+04 -0.56055984514E+01  0.18756623384E+04  0.22536730945E+04  0.91187600000E+02 0.  0.
<mgrwt>
<rscale>  0 0.64479919E+04</rscale>
<asrwt>0</asrwt>
<pdfrwt beam="1">  1        2 0.33602377E+00 0.64479919E+04</pdfrwt>
<pdfrwt beam="2">  1       -2 0.73213684E+00 0.64479919E+04</pdfrwt>
<totfact> 0.59774444E-04</totfact>
</mgrwt>
</event>
<event>
13    1  0.6944587E-008  0.5099882E+04  0.7818608E-02  0.7813282E-01
         -2   -1    0    0    0  501 -0.00000000000E+00  0.00000000000E+00  0.13693178911E+04  0.13693178911E+04  0.00000000000E+00 0.  1.
          2   -1    0    0  501    0  0.00000000000E+00 -0.00000000000E+00 -0.47484945279E+04  0.47484945279E+04  0.00000000000E+00 0. -1.
    9900016    2    1    2    0    0  0.46917569824E+03 -0.89629059027E+03 -0.81778067857E+03  0.22505952966E+04  0.18365596350E+04 0.  0.
         23    2    3    3    0    0 -0.54648988249E+02 -0.43521314576E+03  0.55347100569E+03  0.71198686900E+03  0.90543654307E+02 0.  0.
    9900016    2    1    2    0    0 -0.21903463315E+02 -0.37102768279E+02 -0.14638709380E+04  0.23558760086E+04  0.18453664317E+04 0.  0.
        -24    2    5    5    0    0 -0.50241779028E+03  0.50691389169E+03 -0.14625733229E+04  0.16300317907E+04  0.92182342865E+02 0.  0.
        -15    1    5    5    0    0  0.48051432697E+03 -0.54401665997E+03 -0.12976151422E+01  0.72584421783E+03  0.00000000000E+00 0.  1.
        -15    1    4    4    0    0 -0.44289517611E+02 -0.28580852064E+03  0.29410314683E+03  0.41248603954E+03  0.00000000000E+00 0.  1.
         15    1    4    4    0    0 -0.10359470638E+02 -0.14940462512E+03  0.25936785886E+03  0.29950082946E+03  0.00000000000E+00 0. -1.
         15    1    6    6    0    0 -0.21657468452E+03  0.22730269630E+03 -0.74740279994E+03  0.81066766007E+03  0.00000000000E+00 0. -1.
        -16    1    6    6    0    0 -0.28584310576E+03  0.27961119539E+03 -0.71517052296E+03  0.81936413066E+03  0.00000000000E+00 0.  1.
         16    1    3    3    0    0  0.52382468649E+03 -0.46107744451E+03 -0.13712516843E+04  0.15386084276E+04  0.00000000000E+00 0. -1.
    9900018    1    1    2    0    0 -0.44727223492E+03  0.93339335855E+03 -0.10975250202E+04  0.15113411138E+04  0.91187600000E+02 0.  0.
<mgrwt>
<rscale>  0 0.50998818E+04</rscale>
<asrwt>0</asrwt>
<pdfrwt beam="1">  1        2 0.73053762E+00 0.50998818E+04</pdfrwt>
<pdfrwt beam="2">  1       -2 0.21066429E+00 0.50998818E+04</pdfrwt>
<totfact> 0.54908209E-03</totfact>
</mgrwt>
</event>
<event>
13    1  0.6944588E-008  0.6003168E+04  0.7818608E-02  0.7690009E-01
         -1   -1    0    0    0  501 -0.00000000000E+00  0.00000000000E+00  0.17913430604E+04  0.17913430604E+04  0.00000000000E+00 0.  1.
          1   -1    0    0  501    0  0.00000000000E+00 -0.00000000000E+00 -0.50294705103E+04  0.50294705103E+04  0.00000000000E+00 0. -1.
    9900016    2    1    2    0    0 -0.99595167363E+03  0.32459840114E+03  0.50024188557E+03  0.21796927140E+04  0.18448670752E+04 0.  0.
         23    2    3    3    0    0  0.40497267274E+03 -0.25910644177E+03 -0.17488741678E+03  0.51863884890E+03  0.85215216984E+02 0.  0.
    9900016    2    1    2    0    0  0.34979394856E+03 -0.27031639284E+03 -0.18995087693E+04  0.26891501340E+04  0.18514772804E+04 0.  0.
         24    2    5    5    0    0 -0.54364449896E+03 -0.52770835816E+03 -0.26328801934E+03  0.80720932037E+03  0.90779145471E+02 0.  0.
        -15    1    6    6    0    0 -0.13404925999E+03 -0.17058980508E+03 -0.44914467405E+02  0.22155675364E+03  0.00000000000E+00 0.  1.
        -15    1    4    4    0    0  0.61568967067E+02 -0.55786089249E+02 -0.62706909793E+02  0.10409121959E+03  0.00000000000E+00 0.  1.
         15    1    5    5    0    0  0.89343844752E+03  0.25739196532E+03 -0.16362207500E+04  0.18819408136E+04  0.00000000000E+00 0. -1.
         15    1    4    4    0    0  0.34340370568E+03 -0.20332035252E+03 -0.11218050699E+03  0.41454762931E+03  0.00000000000E+00 0. -1.
        -16    1    3    3    0    0 -0.14009243464E+04  0.58370484291E+03  0.67512930235E+03  0.16610538651E+04  0.00000000000E+00 0.  1.
         16    1    6    6    0    0 -0.40959523897E+03 -0.35711855308E+03 -0.21837355193E+03  0.58565256674E+03  0.00000000000E+00 0. -1.
    9900018    1    1    2    0    0  0.64615772507E+03 -0.54282008304E+02 -0.18388605661E+04  0.19519707227E+04  0.91187600000E+02 0.  0.
<mgrwt>
<rscale>  0 0.60031682E+04</rscale>
<asrwt>0</asrwt>
<pdfrwt beam="1">  1        1 0.77376469E+00 0.60031682E+04</pdfrwt>
<pdfrwt beam="2">  1       -1 0.27559124E+00 0.60031682E+04</pdfrwt>
<totfact> 0.24691051E-04</totfact>
</mgrwt>
</event>
<event>
12    1  0.6944587E-008  0.5167639E+04  0.7818608E-02  0.7803155E-01
         -2   -1    0    0    0  501 -0.00000000000E+00  0.00000000000E+00  0.24820736541E+04  0.24820736541E+04  0.00000000000E+00 0.  1.
          2   -1    0    0  501    0  0.00000000000E+00 -0.00000000000E+00 -0.26897364519E+04  0.26897364519E+04  0.00000000000E+00 0. -1.
    9900016    2    1    2    0    0 -0.75852041276E+03  0.13583676010E+04 -0.43776918933E+03  0.24596952589E+04  0.18541691259E+04 0.  0.
         23    2    3    3    0    0  0.15997142534E+03  0.10168827769E+03  0.56864510298E+03  0.60612035992E+03  0.89962630093E+02 0.  0.
    9900016    2    1    2    0    0  0.28706730284E+03 -0.10243973829E+04  0.19826911612E+03  0.21263393509E+04  0.18303580956E+04 0.  0.
        -15    1    5    5    0    0  0.16040277732E+03 -0.74480638958E+02 -0.54381365100E+03  0.57184762268E+03  0.00000000000E+00 0.  1.
        -15    1    4    4    0    0  0.10361475681E+03  0.67318979262E+02  0.47969060322E+03  0.49534930869E+03  0.00000000000E+00 0.  1.
         15    1    5    5    0    0  0.57179739869E+02 -0.78941461039E+03  0.97968778682E+03  0.12594574663E+04  0.00000000000E+00 0. -1.
         15    1    4    4    0    0  0.56356668535E+02  0.34369298425E+02  0.88954499758E+02  0.11077105123E+03  0.00000000000E+00 0. -1.
        -16    1    3    3    0    0 -0.91849183811E+03  0.12566793233E+04 -0.10064142923E+04  0.18535748990E+04  0.00000000000E+00 0.  1.
         16    1    5    5    0    0  0.69484785646E+02 -0.16050213359E+03 -0.23760501970E+03  0.29503426193E+03  0.00000000000E+00 0. -1.
    9900018    1    1    2    0    0  0.47145310993E+03 -0.33397021808E+03  0.31837275338E+02  0.58577549618E+03  0.91187600000E+02 0.  0.
<mgrwt>
<rscale>  0 0.51676393E+04</rscale>
<asrwt>0</asrwt>
<pdfrwt beam="1">  1        2 0.41380561E+00 0.51676393E+04</pdfrwt>
<pdfrwt beam="2">  1       -2 0.38185749E+00 0.51676393E+04</pdfrwt>
<totfact> 0.18851151E-02</totfact>
</mgrwt>
</event>
<event>
12    1  0.6944587E-008  0.4691669E+04  0.7818608E-02  0.7877914E-01
          2   -1    0    0  501    0  0.00000000000E+00  0.00000000000E+00  0.20383361632E+04  0.20383361632E+04  0.00000000000E+00 0. -1.
         -2   -1    0    0    0  501 -0.00000000000E+00 -0.00000000000E+00 -0.26997210846E+04  0.26997210846E+04  0.00000000000E+00 0.  1.
    9900016    2    1    2    0    0 -0.10616629470E+04 -0.20993575680E+03 -0.12891648602E+03  0.21439031713E+04  0.18462123693E+04 0.  0.
         23    2    3    3    0    0  0.46299979075E+03  0.42035475104E+02 -0.34111552959E+03  0.58405882019E+03  0.92893021855E+02 0.  0.
    9900016    2    1    2    0    0  0.48590470526E+03  0.11603757120E+03 -0.59136804606E+03  0.20007749695E+04  0.18449434170E+04 0.  0.
        -15    1    5    5    0    0  0.30814883862E+03 -0.62119559242E+03 -0.36430512802E+03  0.78329936620E+03  0.00000000000E+00 0.  1.
        -15    1    4    4    0    0  0.31146070371E+03 -0.15092547269E+02 -0.23458474460E+03  0.39021219527E+03  0.00000000000E+00 0.  1.
         15    1    5    5    0    0  0.49072064432E+02  0.93998167198E+03 -0.10214029422E+03  0.94678733138E+03  0.00000000000E+00 0. -1.
         15    1    4    4    0    0  0.15153908704E+03  0.57128022373E+02 -0.10653078499E+03  0.19384662492E+03  0.00000000000E+00 0. -1.
        -16    1    3    3    0    0 -0.15246627377E+04 -0.25197123191E+03  0.21219904357E+03  0.15598443511E+04  0.00000000000E+00 0.  1.
         16    1    5    5    0    0  0.12868380220E+03 -0.20274850836E+03 -0.12492262381E+03  0.27068827188E+03  0.00000000000E+00 0. -1.
    9900018    1    1    2    0    0  0.57575824171E+03  0.93898185604E+02  0.58899610648E+02  0.59337910705E+03  0.91187600000E+02 0.  0.
<mgrwt>
<rscale>  0 0.46916688E+04</rscale>
<asrwt>0</asrwt>
<pdfrwt beam="1">  1        2 0.31359018E+00 0.46916688E+04</pdfrwt>
<pdfrwt beam="2">  1       -2 0.41534170E+00 0.46916688E+04</pdfrwt>
<totfact> 0.27946828E-02</totfact>
</mgrwt>
</event>
<event>
13    1  0.6944587E-008  0.5369323E+04  0.7818608E-02  0.7773931E-01
         -2   -1    0    0    0  501 -0.00000000000E+00  0.00000000000E+00  0.24395015628E+04  0.24395015628E+04  0.00000000000E+00 0.  1.
          2   -1    0    0  501    0  0.00000000000E+00 -0.00000000000E+00 -0.29544589371E+04  0.29544589371E+04  0.00000000000E+00 0. -1.
    9900016    2    1    2    0    0 -0.11546933127E+03 -0.52444276155E+03  0.30372090606E+02  0.19297124243E+04  0.18532388405E+04 0.  0.
         23    2    3    3    0    0  0.30595197841E+03 -0.13400105642E+03 -0.82712877787E+03  0.89755527306E+03  0.99501541666E+02 0.  0.
    9900016    2    1    2    0    0 -0.30133294678E+03  0.93009401690E+03  0.60142639128E+03  0.21752014309E+04  0.18476772272E+04 0.  0.
         24    2    5    5    0    0 -0.87957780392E+03  0.11653420243E+04  0.46750095463E+03  0.15367307876E+04  0.10632602828E+03 0.  0.
        -15    1    6    6    0    0 -0.58744640970E+03  0.71609585543E+03  0.33267625084E+03  0.98415448295E+03  0.00000000000E+00 0.  1.
        -15    1    4    4    0    0  0.65843111150E+02 -0.67696734942E+02 -0.16488862846E+03  0.19001690189E+03  0.00000000000E+00 0.  1.
         15    1    4    4    0    0  0.24010886726E+03 -0.66304321478E+02 -0.66224014941E+03  0.70753837117E+03  0.00000000000E+00 0. -1.
         15    1    5    5    0    0  0.57824485714E+03 -0.23524800737E+03  0.13392543666E+03  0.63847064331E+03  0.00000000000E+00 0. -1.
        -16    1    3    3    0    0 -0.42142130969E+03 -0.39044170513E+03  0.85750086848E+03  0.10321571512E+04  0.00000000000E+00 0.  1.
         16    1    6    6    0    0 -0.29213139422E+03  0.44924616885E+03  0.13482470379E+03  0.55257630465E+03  0.00000000000E+00 0. -1.
    9900018    1    1    2    0    0  0.41680227806E+03 -0.40565125535E+03 -0.11467558562E+04  0.12890466447E+04  0.91187600000E+02 0.  0.
<mgrwt>
<rscale>  0 0.53693229E+04</rscale>
<asrwt>0</asrwt>
<pdfrwt beam="1">  1        2 0.45453214E+00 0.53693229E+04</pdfrwt>
<pdfrwt beam="2">  1       -2 0.37530794E+00 0.53693229E+04</pdfrwt>
<totfact> 0.14109632E-02</totfact>
</mgrwt>
</event>
<event>
13    1  0.6944587E-008  0.4528997E+04  0.7818608E-02  0.7905580E-01
         -2   -1    0    0    0  501 -0.00000000000E+00  0.00000000000E+00  0.14802565929E+04  0.14802565929E+04  0.00000000000E+00 0.  1.
          2   -1    0    0  501    0  0.00000000000E+00 -0.00000000000E+00 -0.34642331055E+04  0.34642331055E+04  0.00000000000E+00 0. -1.
    9900016    2    1    2    0    0 -0.60914557702E+03  0.42296773544E+03 -0.69283023285E+03  0.20584991703E+04  0.17909341315E+04 0.  0.
         23    2    3    3    0    0  0.35876038683E+03 -0.33624376409E+03 -0.65911850685E+03  0.82789747345E+03  0.95959035100E+02 0.  0.
    9900016    2    1    2    0    0  0.99151951161E+03 -0.39086540135E+03 -0.89473738761E+03  0.23267986345E+04  0.18648190767E+04 0.  0.
         24    2    5    5    0    0 -0.17893824162E+03 -0.52933126567E+03  0.30910594770E+03  0.64204852731E+03  0.66853132994E+02 0.  0.
        -15    1    6    6    0    0 -0.11494332880E+03 -0.23642916666E+03  0.14048299019E+03  0.29807078055E+03  0.00000000000E+00 0.  1.
        -15    1    4    4    0    0  0.32730298149E+03 -0.30590413346E+03 -0.63740774322E+03  0.77909769071E+03  0.00000000000E+00 0.  1.
         15    1    4    4    0    0  0.31457405331E+02 -0.30339630631E+02 -0.21710763635E+02  0.48799782731E+02  0.00000000000E+00 0. -1.
         15    1    5    5    0    0  0.11704577532E+04  0.13846586431E+03 -0.12038433353E+04  0.16847501072E+04  0.00000000000E+00 0. -1.
        -16    1    3    3    0    0 -0.96790596385E+03  0.75921149953E+03 -0.33711725997E+02  0.12306016969E+04  0.00000000000E+00 0.  1.
         16    1    6    6    0    0 -0.63994912822E+02 -0.29290209900E+03  0.16862295751E+03  0.34397774676E+03  0.00000000000E+00 0. -1.
    9900018    1    1    2    0    0 -0.38237393459E+03 -0.32102334084E+02 -0.39640889211E+03  0.55919189358E+03  0.91187600000E+02 0.  0.
<mgrwt>
<rscale>  0 0.45289972E+04</rscale>
<asrwt>0</asrwt>
<pdfrwt beam="1">  1        2 0.53295894E+00 0.45289972E+04</pdfrwt>
<pdfrwt beam="2">  1       -2 0.22773178E+00 0.45289972E+04</pdfrwt>
<totfact> 0.57400225E-02</totfact>
</mgrwt>
</event>
