<event>
13    1  0.3869099E-010  0.4626289E+04  0.7818608E-02  0.7888893E-01
         -2   -1    0    0    0  501 -0.00000000000E+00  0.00000000000E+00  0.20190251545E+04  0.20190251545E+04  0.00000000000E+00 0. -1.
          2   -1    0    0  501    0  0.00000000000E+00 -0.00000000000E+00 -0.26501098989E+04  0.26501098989E+04  0.00000000000E+00 0.  1.
    9900016    2    1    2    0    0  0.79167897262E+03  0.11459848833E+03 -0.14242886319E+04  0.24585762326E+04  0.18374195426E+04 0.  0.
        -24    2    3    3    0    0 -0.53568745566E+03  0.36458605055E+03 -0.44278208736E+03  0.78892042581E+03  0.80345646900E+02 0.  0.
    9900016    2    1    2    0    0 -0.73224122575E+03 -0.12724343214E+03  0.71692527571E+03  0.20770434833E+04  0.18021541768E+04 0.  0.
         24    2    5    5    0    0  0.26259716831E+03  0.12535547516E+03 -0.43826350185E+03  0.53173744561E+03  0.77450281204E+02 0.  0.
        -15    1    6    6    0    0  0.10585409052E+03  0.89825882343E+02 -0.17628689956E+03  0.22438994758E+03  0.00000000000E+00 0.  1.
        -15    1    3    3    0    0  0.13273664283E+04 -0.24998756222E+03 -0.98150654454E+03  0.16696558068E+04  0.00000000000E+00 0.  1.
         15    1    5    5    0    0 -0.99483839406E+03 -0.25259890729E+03  0.11551887776E+04  0.15453060377E+04  0.00000000000E+00 0. -1.
         15    1    4    4    0    0 -0.34968722934E+03  0.19578404729E+03 -0.29331948992E+03  0.49663756875E+03  0.00000000000E+00 0. -1.
        -16    1    4    4    0    0 -0.18600022632E+03  0.16880200326E+03 -0.14946259745E+03  0.29228285706E+03  0.00000000000E+00 0.  1.
         16    1    6    6    0    0  0.15674307779E+03  0.35529592814E+02 -0.26197660229E+03  0.30734749803E+03  0.00000000000E+00 0. -1.
    9900018    1    1    2    0    0 -0.59437746870E+02  0.12644943810E+02  0.76278611779E+02  0.13351533757E+03  0.91187600000E+02 0.  0.
<mgrwt>
<rscale>  0 0.46262895E+04</rscale>
<asrwt>0</asrwt>
<pdfrwt beam="1">  1        2 0.40770922E+00 0.46262895E+04</pdfrwt>
<pdfrwt beam="2">  1       -2 0.31061925E+00 0.46262895E+04</pdfrwt>
<totfact> 0.58324904E-02</totfact>
</mgrwt>
</event>
<event>
13    1  0.3869099E-010  0.5389116E+04  0.7818608E-02  0.7771134E-01
          2   -1    0    0  501    0  0.00000000000E+00  0.00000000000E+00  0.42293515654E+04  0.42293515654E+04  0.00000000000E+00 0. -1.
         -2   -1    0    0    0  501 -0.00000000000E+00 -0.00000000000E+00 -0.17167274258E+04  0.17167274258E+04  0.00000000000E+00 0.  1.
    9900016    2    1    2    0    0 -0.10145205463E+04  0.15508645301E+04  0.61270612573E+03  0.26889589740E+04  0.18495023215E+04 0.  0.
         24    2    3    3    0    0  0.18067211840E+03 -0.32996489068E+03  0.15136443556E+03  0.41325227689E+03  0.79668115039E+02 0.  0.
    9900016    2    1    2    0    0  0.10145205463E+04 -0.15508645301E+04  0.18999180139E+04  0.32571200173E+04  0.18880438601E+04 0.  0.
        -24    2    5    5    0    0 -0.24513088409E+03 -0.12729261610E+04  0.10885302065E+04  0.16946020364E+04  0.79673645382E+02 0.  0.
        -15    1    4    4    0    0  0.13408294689E+03 -0.27832355141E+03  0.15061668200E+03  0.34369698982E+03  0.00000000000E+00 0.  1.
        -15    1    5    5    0    0  0.11613929246E+04 -0.21123679251E+03  0.67402676374E+03  0.13593257837E+04  0.00000000000E+00 0.  1.
         15    1    6    6    0    0 -0.14854191968E+03 -0.94054235625E+03  0.81737273807E+03  0.12549035097E+04  0.00000000000E+00 0. -1.
         15    1    3    3    0    0 -0.11951926647E+04  0.18808294208E+04  0.46134169017E+03  0.22757066971E+04  0.00000000000E+00 0. -1.
        -16    1    6    6    0    0 -0.96588964410E+02 -0.33238380477E+03  0.27115746839E+03  0.43969852670E+03  0.00000000000E+00 0.  1.
         16    1    4    4    0    0  0.46589171505E+02 -0.51641339272E+02  0.74775355436E+00  0.69555287065E+02  0.00000000000E+00 0. -1.
    9900018    1    5    5    0    0  0.98258505813E+02 -0.66701576598E+02  0.13736104368E+03  0.20319219719E+03  0.91187600000E+02 0.  0.
<mgrwt>
<rscale>  0 0.53891164E+04</rscale>
<asrwt>0</asrwt>
<pdfrwt beam="1">  1        2 0.65066947E+00 0.53891164E+04</pdfrwt>
<pdfrwt beam="2">  1       -2 0.26411191E+00 0.53891164E+04</pdfrwt>
<totfact> 0.80901931E-03</totfact>
</mgrwt>
</event>
<event>
13    1  0.3869099E-010  0.4270918E+04  0.7818608E-02  0.7952018E-01
          2   -1    0    0  501    0  0.00000000000E+00  0.00000000000E+00  0.21672860458E+04  0.21672860458E+04  0.00000000000E+00 0. -1.
         -2   -1    0    0    0  501 -0.00000000000E+00 -0.00000000000E+00 -0.21040990606E+04  0.21040990606E+04  0.00000000000E+00 0.  1.
    9900016    2    1    2    0    0  0.40280218029E+03  0.36746486828E+02 -0.92207494486E+03  0.21015323745E+04  0.18446181763E+04 0.  0.
        -24    2    3    3    0    0 -0.66591434517E+03  0.36616343635E+03 -0.29224155993E+03  0.81803690071E+03  0.79130678938E+02 0.  0.
    9900016    2    1    2    0    0 -0.40280218029E+03 -0.36746486828E+02  0.98526193000E+03  0.21698527319E+04  0.18904813955E+04 0.  0.
         24    2    5    5    0    0  0.27481126999E+03  0.11743857902E+03 -0.42605934201E+03  0.52640664919E+03  0.79147605467E+02 0.  0.
        -15    1    3    3    0    0  0.10687165255E+04 -0.32941694953E+03 -0.62983338494E+03  0.12834954738E+04  0.00000000000E+00 0.  1.
        -15    1    6    6    0    0  0.46028509319E+02  0.54203290602E+02 -0.83961112013E+02  0.11002767249E+03  0.00000000000E+00 0.  1.
         15    1    4    4    0    0 -0.44131174942E+03  0.24991804421E+03 -0.23385425459E+03  0.55848267779E+03  0.00000000000E+00 0. -1.
         15    1    5    5    0    0 -0.64430704561E+03 -0.16984971036E+03  0.13919613879E+04  0.15432229258E+04  0.00000000000E+00 0. -1.
        -16    1    4    4    0    0 -0.22460259575E+03  0.11624539214E+03 -0.58387305332E+02  0.25955422292E+03  0.00000000000E+00 0.  1.
         16    1    6    6    0    0  0.22878276067E+03  0.63235288417E+02 -0.34209822999E+03  0.41637897671E+03  0.00000000000E+00 0. -1.
    9900018    1    5    5    0    0 -0.33306404662E+02  0.15664644518E+02  0.19359884060E+02  0.10022315692E+03  0.91187600000E+02 0.  0.
<mgrwt>
<rscale>  0 0.42709177E+04</rscale>
<asrwt>0</asrwt>
<pdfrwt beam="1">  1        2 0.33342862E+00 0.42709177E+04</pdfrwt>
<pdfrwt beam="2">  1       -2 0.32370755E+00 0.42709177E+04</pdfrwt>
<totfact> 0.94436661E-02</totfact>
</mgrwt>
</event>
<event>
13    1  0.3869099E-010  0.4223700E+04  0.7818608E-02  0.7960879E-01
          2   -1    0    0  501    0  0.00000000000E+00  0.00000000000E+00  0.27353123002E+04  0.27353123002E+04  0.00000000000E+00 0. -1.
         -2   -1    0    0    0  501 -0.00000000000E+00 -0.00000000000E+00 -0.16304940183E+04  0.16304940183E+04  0.00000000000E+00 0.  1.
    9900016    2    1    2    0    0  0.95077491045E+02 -0.23722978829E+03 -0.43766970022E+03  0.19066021000E+04  0.18380041075E+04 0.  0.
        -24    2    3    3    0    0 -0.54744849288E+03 -0.31389703589E+03  0.47074778521E+03  0.79128159234E+03  0.79321369188E+02 0.  0.
    9900016    2    1    2    0    0 -0.67214038413E+02  0.21273786192E+03  0.13927371753E+04  0.22799928657E+04  0.17913334428E+04 0.  0.
         24    2    5    5    0    0  0.33850598854E+03 -0.33380900279E+03 -0.21874637976E+03  0.53064971361E+03  0.87888482041E+02 0.  0.
        -15    1    3    3    0    0  0.64252598392E+03  0.76667247591E+02 -0.90841748543E+03  0.11153205076E+04  0.00000000000E+00 0.  1.
        -15    1    6    6    0    0  0.11846440103E+03 -0.15626161436E+03 -0.53896440641E+02  0.20336256476E+03  0.00000000000E+00 0.  1.
         15    1    4    4    0    0 -0.14727808351E+03 -0.12480398025E+03  0.13054007231E+03  0.23303986321E+03  0.00000000000E+00 0. -1.
         15    1    5    5    0    0 -0.40572002696E+03  0.54654686471E+03  0.16114835550E+04  0.17493431521E+04  0.00000000000E+00 0. -1.
        -16    1    4    4    0    0 -0.40017040937E+03 -0.18909305563E+03  0.34020771290E+03  0.55824172913E+03  0.00000000000E+00 0.  1.
         16    1    6    6    0    0  0.22004158751E+03 -0.17754738843E+03 -0.16484993912E+03  0.32728714885E+03  0.00000000000E+00 0. -1.
    9900018    1    1    2    0    0 -0.27863452632E+02  0.24491926375E+02  0.14975080685E+03  0.17921135287E+03  0.91187600000E+02 0.  0.
<mgrwt>
<rscale>  0 0.42237000E+04</rscale>
<asrwt>0</asrwt>
<pdfrwt beam="1">  1        2 0.42081728E+00 0.42237000E+04</pdfrwt>
<pdfrwt beam="2">  1       -2 0.25084523E+00 0.42237000E+04</pdfrwt>
<totfact> 0.12442171E-01</totfact>
</mgrwt>
</event>
<event>
13    1  0.3869099E-010  0.5513350E+04  0.7818608E-02  0.7753855E-01
          2   -1    0    0  501    0  0.00000000000E+00  0.00000000000E+00  0.29139997410E+04  0.29139997410E+04  0.00000000000E+00 0. -1.
         -2   -1    0    0    0  501 -0.00000000000E+00 -0.00000000000E+00 -0.26078441380E+04  0.26078441380E+04  0.00000000000E+00 0.  1.
    9900016    2    1    2    0    0 -0.44200461149E+03 -0.16495900103E+04 -0.94131261827E+03  0.26793680221E+04  0.18375059928E+04 0.  0.
        -24    2    3    3    0    0 -0.26003177165E+02  0.35667106508E+03  0.10067356821E+03  0.38069973176E+03  0.83106585403E+02 0.  0.
    9900016    2    1    2    0    0  0.40495602356E+03  0.15389579090E+04  0.11718790792E+04  0.26762201608E+04  0.18045700169E+04 0.  0.
         24    2    5    5    0    0 -0.63800663583E+03  0.14140025716E+03  0.25519466620E+03  0.70613163175E+03  0.80318513482E+02 0.  0.
        -15    1    6    6    0    0 -0.24527840572E+02 -0.73267860245E+01  0.98350934913E+00  0.25617651087E+02  0.00000000000E+00 0.  1.
        -15    1    3    3    0    0 -0.41600143433E+03 -0.20062610754E+04 -0.10419861865E+04  0.22986682903E+04  0.00000000000E+00 0.  1.
         15    1    4    4    0    0 -0.20089315687E+02  0.27898139728E+03  0.41289693607E+02  0.28273492786E+03  0.00000000000E+00 0. -1.
         15    1    5    5    0    0  0.10429626594E+04  0.13975576519E+04  0.91668441301E+03  0.19700885290E+04  0.00000000000E+00 0. -1.
        -16    1    4    4    0    0 -0.59138614776E+01  0.77689667805E+02  0.59383874605E+02  0.97964803906E+02  0.00000000000E+00 0.  1.
         16    1    6    6    0    0 -0.61347879526E+03  0.14872704319E+03  0.25421115685E+03  0.68051398066E+03  0.00000000000E+00 0. -1.
    9900018    1    1    2    0    0  0.37048587934E+02  0.11063210132E+03  0.75589142041E+02  0.16625569614E+03  0.91187600000E+02 0.  0.
<mgrwt>
<rscale>  0 0.55133500E+04</rscale>
<asrwt>0</asrwt>
<pdfrwt beam="1">  1        2 0.44830765E+00 0.55133500E+04</pdfrwt>
<pdfrwt beam="2">  1       -2 0.40120679E+00 0.55133500E+04</pdfrwt>
<totfact> 0.10043031E-02</totfact>
</mgrwt>
</event>
<event>
13    1  0.3869099E-010  0.4825027E+04  0.7818608E-02  0.7856080E-01
          1   -1    0    0  501    0  0.00000000000E+00  0.00000000000E+00  0.23711722964E+04  0.23711722964E+04  0.00000000000E+00 0. -1.
         -1   -1    0    0    0  501 -0.00000000000E+00 -0.00000000000E+00 -0.24545754571E+04  0.24545754571E+04  0.00000000000E+00 0.  1.
    9900016    2    1    2    0    0  0.10613947764E+04  0.24315361326E+02 -0.11546038164E+04  0.24095447864E+04  0.18291107120E+04 0.  0.
        -24    2    3    3    0    0 -0.16114830190E+02  0.26629661577E+03  0.40918690208E+03  0.49511973152E+03  0.80845855737E+02 0.  0.
    9900016    2    1    2    0    0 -0.10613947764E+04 -0.24315361326E+02  0.10712006557E+04  0.24162029670E+04  0.18877012012E+04 0.  0.
         24    2    5    5    0    0  0.44837179965E+03 -0.14541472496E+03  0.64314398376E+03  0.80140628772E+03  0.80219331840E+02 0.  0.
        -15    1    6    6    0    0  0.30968799596E+03 -0.12758234684E+03  0.49526201208E+03  0.59788658680E+03  0.00000000000E+00 0.  1.
        -15    1    3    3    0    0  0.10775096066E+04 -0.24198125444E+03 -0.15637907185E+04  0.19144250549E+04  0.00000000000E+00 0.  1.
         15    1    4    4    0    0 -0.24249970371E+02  0.22958255856E+02  0.70406701433E+02  0.77924618585E+02  0.00000000000E+00 0. -1.
         15    1    5    5    0    0 -0.14173567993E+04  0.12693896073E+03  0.35892935176E+03  0.14675980634E+04  0.00000000000E+00 0. -1.
        -16    1    4    4    0    0  0.81351401806E+01  0.24333835991E+03  0.33878020064E+03  0.41719511294E+03  0.00000000000E+00 0.  1.
         16    1    6    6    0    0  0.13868380369E+03 -0.17832378112E+02  0.14788197167E+03  0.20351970092E+03  0.00000000000E+00 0. -1.
    9900018    1    5    5    0    0 -0.92409776759E+02 -0.58395970954E+01  0.69127320160E+02  0.14719861589E+03  0.91187600000E+02 0.  0.
<mgrwt>
<rscale>  0 0.48250270E+04</rscale>
<asrwt>0</asrwt>
<pdfrwt beam="1">  1        1 0.36479574E+00 0.48250270E+04</pdfrwt>
<pdfrwt beam="2">  1       -1 0.37762699E+00 0.48250270E+04</pdfrwt>
<totfact> 0.12360310E-02</totfact>
</mgrwt>
</event>
<event>
13    1  0.3869099E-010  0.6981020E+04  0.7818608E-02  0.7579396E-01
         -1   -1    0    0    0  501 -0.00000000000E+00  0.00000000000E+00  0.49082393222E+04  0.49082393222E+04  0.00000000000E+00 0.  1.
          1   -1    0    0  501    0  0.00000000000E+00 -0.00000000000E+00 -0.24822869844E+04  0.24822869844E+04  0.00000000000E+00 0. -1.
    9900016    2    1    2    0    0  0.13491824021E+03  0.87006020923E+03 -0.17708364559E+04  0.27023256286E+04  0.18416010291E+04 0.  0.
         24    2    3    3    0    0  0.47653618228E+03 -0.43291007731E+03 -0.32272014981E+03  0.72458064460E+03  0.79818214541E+02 0.  0.
    9900016    2    1    2    0    0 -0.13491824021E+03 -0.87006020923E+03  0.41967887937E+04  0.46882006779E+04  0.18949885799E+04 0.  0.
        -24    2    5    5    0    0 -0.35811929234E+03  0.50571857187E+03  0.11218478488E+04  0.12840918386E+04  0.79677805033E+02 0.  0.
        -15    1    4    4    0    0  0.33705590856E+03 -0.27083424058E+03 -0.18542679921E+03  0.47046888232E+03  0.00000000000E+00 0.  1.
        -15    1    5    5    0    0  0.18228065533E+03 -0.13425404177E+04  0.28668756566E+04  0.31709016133E+04  0.00000000000E+00 0.  1.
         15    1    3    3    0    0 -0.34161794207E+03  0.13029702865E+04 -0.14481163061E+04  0.19777449840E+04  0.00000000000E+00 0. -1.
         15    1    6    6    0    0 -0.15308168564E+03  0.15505974326E+03  0.42063065784E+03  0.47371687407E+03  0.00000000000E+00 0. -1.
        -16    1    6    6    0    0 -0.20503760669E+03  0.35065882862E+03  0.70121719099E+03  0.81037496456E+03  0.00000000000E+00 0.  1.
         16    1    4    4    0    0  0.13948027373E+03 -0.16207583673E+03 -0.13729335061E+03  0.25411176228E+03  0.00000000000E+00 0. -1.
    9900018    1    5    5    0    0  0.40920396792E+02 -0.33238363359E+02  0.20806528827E+03  0.23320722598E+03  0.91187600000E+02 0.  0.
<mgrwt>
<rscale>  0 0.69810196E+04</rscale>
<asrwt>0</asrwt>
<pdfrwt beam="1">  1        1 0.38189031E+00 0.69810196E+04</pdfrwt>
<pdfrwt beam="2">  1       -1 0.75511374E+00 0.69810196E+04</pdfrwt>
<totfact> 0.10628855E-04</totfact>
</mgrwt>
</event>
<event>
13    1  0.3869099E-010  0.6282978E+04  0.7818608E-02  0.7656273E-01
         -2   -1    0    0    0  501 -0.00000000000E+00  0.00000000000E+00  0.30424720698E+04  0.30424720698E+04  0.00000000000E+00 0.  1.
          2   -1    0    0  501    0  0.00000000000E+00 -0.00000000000E+00 -0.32437280295E+04  0.32437280295E+04  0.00000000000E+00 0. -1.
    9900016    2    1    2    0    0  0.80628661731E+03 -0.81642748670E+03  0.21452469936E+04  0.30556667222E+04  0.18488814195E+04 0.  0.
        -24    2    3    3    0    0  0.16356281616E+03  0.18357224377E+03 -0.26372378753E+03  0.36936190519E+03  0.80164938648E+02 0.  0.
    9900016    2    1    2    0    0 -0.80628661731E+03  0.81642748670E+03 -0.23465029533E+04  0.32305333772E+04  0.19009518250E+04 0.  0.
         24    2    5    5    0    0  0.40744572685E+02 -0.24497824478E+03  0.18715905790E+03  0.32120835908E+03  0.80447724449E+02 0.  0.
        -15    1    6    6    0    0 -0.19880985887E+02 -0.12533483239E+03  0.89012089073E+02  0.15500717987E+03  0.00000000000E+00 0.  1.
        -15    1    3    3    0    0  0.64272380115E+03 -0.99999973046E+03  0.24089707811E+04  0.26863048170E+04  0.00000000000E+00 0.  1.
         15    1    4    4    0    0  0.16973135612E+03  0.17191028843E+03 -0.26144968359E+03  0.35597446196E+03  0.00000000000E+00 0. -1.
         15    1    5    5    0    0 -0.81846320048E+03  0.10521974653E+04 -0.23362321713E+04  0.26897922363E+04  0.00000000000E+00 0. -1.
        -16    1    4    4    0    0 -0.61685399643E+01  0.11661955337E+02 -0.22741039390E+01  0.13387443233E+02  0.00000000000E+00 0.  1.
         16    1    6    6    0    0  0.60625558571E+02 -0.11964341239E+03  0.98146968830E+02  0.16620117921E+03  0.00000000000E+00 0. -1.
    9900018    1    5    5    0    0 -0.28567989510E+02  0.92082661942E+01 -0.19742983995E+03  0.21953278180E+03  0.91187600000E+02 0.  0.
<mgrwt>
<rscale>  0 0.62829776E+04</rscale>
<asrwt>0</asrwt>
<pdfrwt beam="1">  1        2 0.49903508E+00 0.62829776E+04</pdfrwt>
<pdfrwt beam="2">  1       -2 0.46807262E+00 0.62829776E+04</pdfrwt>
<totfact> 0.21237489E-03</totfact>
</mgrwt>
</event>
<event>
13    1  0.3869099E-010  0.4833929E+04  0.7818608E-02  0.7854649E-01
          2   -1    0    0  501    0  0.00000000000E+00  0.00000000000E+00  0.28757460836E+04  0.28757460836E+04  0.00000000000E+00 0.  1.
         -2   -1    0    0    0  501 -0.00000000000E+00 -0.00000000000E+00 -0.20313741555E+04  0.20313741555E+04  0.00000000000E+00 0. -1.
    9900016    2    1    2    0    0  0.12559564013E+04  0.13697272571E+03  0.12928718598E+04  0.25839619729E+04  0.18463894015E+04 0.  0.
        -24    2    3    3    0    0 -0.40885931449E+03  0.34431832154E+03  0.17546508030E+03  0.56822352891E+03  0.79805631435E+02 0.  0.
    9900016    2    1    2    0    0 -0.12559564013E+04 -0.13697272571E+03 -0.44849993176E+03  0.23231582662E+04  0.18972938970E+04 0.  0.
         24    2    5    5    0    0 -0.90597842991E+03 -0.91482710805E+03 -0.75583676892E+01  0.12899520286E+04  0.78826099549E+02 0.  0.
        -15    1    6    6    0    0 -0.61501752433E+03 -0.67170987240E+03 -0.12636466396E+01  0.91073723143E+03  0.00000000000E+00 0.  1.
        -15    1    3    3    0    0  0.16648157158E+04 -0.20734559583E+03  0.11174067795E+04  0.20157384440E+04  0.00000000000E+00 0.  1.
         15    1    4    4    0    0 -0.14032071561E+03  0.12379204499E+03  0.22175111851E+02  0.18843064829E+03  0.00000000000E+00 0. -1.
         15    1    5    5    0    0 -0.24341215462E+03  0.73399001142E+03 -0.43245581108E+03  0.88600724739E+03  0.00000000000E+00 0. -1.
        -16    1    4    4    0    0 -0.26853859888E+03  0.22052627656E+03  0.15328996845E+03  0.37979288061E+03  0.00000000000E+00 0.  1.
         16    1    6    6    0    0 -0.29096090557E+03 -0.24311723565E+03 -0.62947210497E+01  0.37921479712E+03  0.00000000000E+00 0. -1.
    9900018    1    5    5    0    0 -0.10656581681E+03  0.43864370918E+02 -0.84857529874E+01  0.14719899030E+03  0.91187600000E+02 0.  0.
<mgrwt>
<rscale>  0 0.48339285E+04</rscale>
<asrwt>0</asrwt>
<pdfrwt beam="1">  1        2 0.44242248E+00 0.48339285E+04</pdfrwt>
<pdfrwt beam="2">  1       -2 0.31251910E+00 0.48339285E+04</pdfrwt>
<totfact> 0.40829531E-02</totfact>
</mgrwt>
</event>
<event>
13    1  0.3869099E-010  0.5421047E+04  0.7818608E-02  0.7766648E-01
          1   -1    0    0  501    0  0.00000000000E+00  0.00000000000E+00  0.17495318748E+04  0.17495318748E+04  0.00000000000E+00 0. -1.
         -1   -1    0    0    0  501 -0.00000000000E+00 -0.00000000000E+00 -0.41993732508E+04  0.41993732508E+04  0.00000000000E+00 0.  1.
    9900016    2    1    2    0    0  0.14888180054E+04  0.24219202762E+03 -0.25922755564E+04  0.35193079328E+04  0.18413038135E+04 0.  0.
        -24    2    3    3    0    0 -0.29915285877E+03  0.26990267401E+03 -0.54405632074E+02  0.41473204481E+03  0.81870689777E+02 0.  0.
    9900016    2    1    2    0    0 -0.13984037694E+04 -0.23807318881E+03  0.12438659637E+03  0.22998567111E+04  0.18060057920E+04 0.  0.
         24    2    5    5    0    0  0.10387720053E+01  0.18552384857E+03 -0.62503116358E+03  0.65684093040E+03  0.79723741581E+02 0.  0.
        -15    1    3    3    0    0  0.17879708642E+04 -0.27710646386E+02 -0.25378699243E+04  0.31045758879E+04  0.00000000000E+00 0.  1.
        -15    1    6    6    0    0  0.29785564818E+02  0.48878619117E+02 -0.12151488674E+03  0.13432113377E+03  0.00000000000E+00 0.  1.
         15    1    5    5    0    0 -0.13994425414E+04 -0.42359703738E+03  0.74941775995E+03  0.16430157807E+04  0.00000000000E+00 0. -1.
         15    1    4    4    0    0 -0.90941747798E+02  0.13373902288E+03 -0.10180552402E+02  0.16204990399E+03  0.00000000000E+00 0. -1.
        -16    1    4    4    0    0 -0.20821111097E+03  0.13616365112E+03 -0.44225079672E+02  0.25268214082E+03  0.00000000000E+00 0.  1.
         16    1    6    6    0    0 -0.28746792812E+02  0.13664522946E+03 -0.50351627684E+03  0.52251979663E+03  0.00000000000E+00 0. -1.
    9900018    1    1    2    0    0 -0.90414236066E+02 -0.41188388102E+01  0.18047584019E+02  0.12974048173E+03  0.91187600000E+02 0.  0.
<mgrwt>
<rscale>  0 0.54210469E+04</rscale>
<asrwt>0</asrwt>
<pdfrwt beam="1">  1        1 0.26915875E+00 0.54210469E+04</pdfrwt>
<pdfrwt beam="2">  1       -1 0.64605742E+00 0.54210469E+04</pdfrwt>
<totfact> 0.94331037E-04</totfact>
</mgrwt>
</event>
<event>
13    1  0.3869099E-010  0.4054155E+04  0.7818608E-02  0.7993710E-01
          1   -1    0    0  501    0  0.00000000000E+00  0.00000000000E+00  0.23091748382E+04  0.23091748382E+04  0.00000000000E+00 0. -1.
         -1   -1    0    0    0  501 -0.00000000000E+00 -0.00000000000E+00 -0.17794424343E+04  0.17794424343E+04  0.00000000000E+00 0.  1.
    9900016    2    1    2    0    0  0.14405604947E+03  0.65333001317E+02 -0.48795919358E+03  0.19268787871E+04  0.18573468010E+04 0.  0.
        -24    2    3    3    0    0  0.86099333469E+02  0.75931510749E+03  0.34407822697E+03  0.84186431079E+03  0.79832097715E+02 0.  0.
    9900016    2    1    2    0    0 -0.12783882651E+03 -0.64223769105E+02  0.90709491983E+03  0.20174781920E+04  0.17963656654E+04 0.  0.
         24    2    5    5    0    0 -0.24521061586E+03  0.41087175624E+03 -0.39553672577E+03  0.62595345304E+03  0.80153463613E+02 0.  0.
        -15    1    3    3    0    0  0.57956715996E+02 -0.69398210618E+03 -0.83203742055E+03  0.10850144763E+04  0.00000000000E+00 0.  1.
        -15    1    6    6    0    0 -0.11456373271E+03  0.12002256850E+03 -0.14724531733E+03  0.22183653729E+03  0.00000000000E+00 0.  1.
         15    1    5    5    0    0  0.11737178935E+03 -0.47509552535E+03  0.13026316456E+04  0.13915247390E+04  0.00000000000E+00 0. -1.
         15    1    4    4    0    0  0.83467076114E+02  0.40286035220E+03  0.19884609580E+03  0.45694965366E+03  0.00000000000E+00 0. -1.
        -16    1    4    4    0    0  0.26322573551E+01  0.35645475530E+03  0.14523213117E+03  0.38491465713E+03  0.00000000000E+00 0.  1.
         16    1    6    6    0    0 -0.13064688315E+03  0.29084918775E+03 -0.24829140845E+03  0.40411691576E+03  0.00000000000E+00 0. -1.
    9900018    1    1    2    0    0 -0.16217222954E+02 -0.11092322120E+01  0.11059667764E+03  0.14426029327E+03  0.91187600000E+02 0.  0.
<mgrwt>
<rscale>  0 0.40541552E+04</rscale>
<asrwt>0</asrwt>
<pdfrwt beam="1">  1        1 0.35525767E+00 0.40541552E+04</pdfrwt>
<pdfrwt beam="2">  1       -1 0.27376037E+00 0.40541552E+04</pdfrwt>
<totfact> 0.69824828E-02</totfact>
</mgrwt>
</event>
<event>
13    1  0.3869099E-010  0.5891050E+04  0.7818608E-02  0.7704059E-01
         -1   -1    0    0    0  501 -0.00000000000E+00  0.00000000000E+00  0.22317438601E+04  0.22317438601E+04  0.00000000000E+00 0.  1.
          1   -1    0    0  501    0  0.00000000000E+00 -0.00000000000E+00 -0.38875954900E+04  0.38875954900E+04  0.00000000000E+00 0. -1.
    9900016    2    1    2    0    0  0.15877325704E+04  0.16275646945E+04 -0.80408816107E+03  0.30339430288E+04  0.18407582626E+04 0.  0.
        -24    2    3    3    0    0 -0.36717082041E+03  0.16641943121E+02 -0.21641832690E+03  0.43354398013E+03  0.77666755130E+02 0.  0.
    9900016    2    1    2    0    0 -0.14821972952E+04 -0.15514655756E+04 -0.82769621306E+03  0.29247003930E+04  0.18068860266E+04 0.  0.
         24    2    5    5    0    0 -0.60565960888E+03 -0.42859050163E+03  0.56187204740E+03  0.93470876036E+03  0.86411163192E+02 0.  0.
        -15    1    6    6    0    0 -0.82436115103E+02 -0.71471500249E+02  0.12093809324E+03  0.16288005040E+03  0.00000000000E+00 0.  1.
        -15    1    3    3    0    0  0.19549033908E+04  0.16109227514E+04 -0.58766983416E+03  0.26003990487E+04  0.00000000000E+00 0.  1.
         15    1    5    5    0    0 -0.87653768634E+03 -0.11228750740E+04 -0.13895682605E+04  0.19899916326E+04  0.00000000000E+00 0. -1.
         15    1    4    4    0    0 -0.25289049710E+03  0.14857818740E+02 -0.10595114489E+03  0.27459061056E+03  0.00000000000E+00 0. -1.
        -16    1    4    4    0    0 -0.11428032331E+03  0.17841243802E+01 -0.11046718202E+03  0.15895336957E+03  0.00000000000E+00 0.  1.
         16    1    6    6    0    0 -0.52322349377E+03 -0.35711900138E+03  0.44093395416E+03  0.77182870996E+03  0.00000000000E+00 0. -1.
    9900018    1    1    2    0    0 -0.10553527519E+03 -0.76099118895E+02 -0.24067255756E+02  0.16069592838E+03  0.91187600000E+02 0.  0.
<mgrwt>
<rscale>  0 0.58910499E+04</rscale>
<asrwt>0</asrwt>
<pdfrwt beam="1">  1        1 0.59809160E+00 0.58910499E+04</pdfrwt>
<pdfrwt beam="2">  1       -1 0.34334522E+00 0.58910499E+04</pdfrwt>
<totfact> 0.13874527E-03</totfact>
</mgrwt>
</event>
<event>
13    1  0.3869099E-010  0.5078535E+04  0.7818608E-02  0.7816505E-01
         -2   -1    0    0    0  501 -0.00000000000E+00  0.00000000000E+00  0.25087755515E+04  0.25087755515E+04  0.00000000000E+00 0.  1.
          2   -1    0    0  501    0  0.00000000000E+00 -0.00000000000E+00 -0.25701299637E+04  0.25701299637E+04  0.00000000000E+00 0. -1.
    9900016    2    1    2    0    0 -0.49029701944E+03 -0.56430976479E+03  0.15191494875E+04  0.24996640369E+04  0.18389313348E+04 0.  0.
        -24    2    3    3    0    0  0.45543021803E+03 -0.33310607571E+03 -0.12998108869E+03  0.58459568020E+03  0.80502700095E+02 0.  0.
    9900016    2    1    2    0    0  0.49029701944E+03  0.56430976479E+03 -0.15805038998E+04  0.25792414782E+04  0.18962218615E+04 0.  0.
         24    2    5    5    0    0 -0.64069172157E+03 -0.92286071073E+02 -0.31857121951E+03  0.72608081685E+03  0.81872643141E+02 0.  0.
        -15    1    6    6    0    0 -0.36236720539E+03 -0.56488108816E+02 -0.13523888550E+03  0.39088419530E+03  0.00000000000E+00 0.  1.
        -15    1    3    3    0    0 -0.94572723747E+03 -0.23120368908E+03  0.16491305762E+04  0.19150683567E+04  0.00000000000E+00 0.  1.
         15    1    4    4    0    0  0.15908903218E+03 -0.14039614258E+03 -0.14312410716E+02  0.21266227242E+03  0.00000000000E+00 0. -1.
         15    1    5    5    0    0  0.10489437695E+04  0.62915796787E+03 -0.11981150242E+04  0.17121922764E+04  0.00000000000E+00 0. -1.
        -16    1    4    4    0    0  0.29634118585E+03 -0.19270993313E+03 -0.11566867797E+03  0.37193340778E+03  0.00000000000E+00 0.  1.
         16    1    6    6    0    0 -0.27832451618E+03 -0.35797962258E+02 -0.18333233401E+03  0.33519662156E+03  0.00000000000E+00 0. -1.
    9900018    1    5    5    0    0  0.82044971524E+02  0.27437867994E+02 -0.63817656088E+02  0.14096838502E+03  0.91187600000E+02 0.  0.
<mgrwt>
<rscale>  0 0.50785349E+04</rscale>
<asrwt>0</asrwt>
<pdfrwt beam="1">  1        2 0.39540461E+00 0.50785349E+04</pdfrwt>
<pdfrwt beam="2">  1       -2 0.38596547E+00 0.50785349E+04</pdfrwt>
<totfact> 0.21010791E-02</totfact>
</mgrwt>
</event>
<event>
13    1  0.3869099E-010  0.5057268E+04  0.7818608E-02  0.7819733E-01
          1   -1    0    0  501    0  0.00000000000E+00  0.00000000000E+00  0.31529250622E+04  0.31529250622E+04  0.00000000000E+00 0. -1.
         -1   -1    0    0    0  501 -0.00000000000E+00 -0.00000000000E+00 -0.20279549956E+04  0.20279549956E+04  0.00000000000E+00 0.  1.
    9900016    2    1    2    0    0 -0.22344833245E+03  0.16936979926E+04  0.44408633903E+03  0.25386613185E+04  0.18245675011E+04 0.  0.
         24    2    3    3    0    0 -0.24707189349E+03 -0.22767116342E+03 -0.31926637262E+03  0.47107217438E+03  0.84257329544E+02 0.  0.
    9900016    2    1    2    0    0  0.22344833245E+03 -0.16936979926E+04  0.68088372760E+03  0.26422187393E+04  0.18971492214E+04 0.  0.
        -24    2    5    5    0    0 -0.63668260848E+03 -0.82170338012E+02  0.22107112176E+03  0.68353865058E+03  0.78967952836E+02 0.  0.
        -15    1    4    4    0    0 -0.15408604192E+03 -0.88310426888E+02 -0.14430760540E+03  0.22883602161E+03  0.00000000000E+00 0.  1.
        -15    1    5    5    0    0  0.89761730972E+03 -0.15087582966E+04  0.38301213152E+03  0.17968769365E+04  0.00000000000E+00 0.  1.
         15    1    3    3    0    0  0.23623561040E+02  0.19213691561E+04  0.76335271165E+03  0.20675891441E+04  0.00000000000E+00 0. -1.
         15    1    6    6    0    0 -0.51794623980E+03 -0.78647770122E+02  0.14926185626E+03  0.54473193481E+03  0.00000000000E+00 0. -1.
        -16    1    6    6    0    0 -0.11873636868E+03 -0.35225678898E+01  0.71809265502E+02  0.13880671577E+03  0.00000000000E+00 0.  1.
         16    1    4    4    0    0 -0.92985851570E+02 -0.13936073653E+03 -0.17495876722E+03  0.24223615277E+03  0.00000000000E+00 0. -1.
    9900018    1    5    5    0    0 -0.37486368794E+02 -0.10276935805E+03  0.76800474325E+02  0.16180315216E+03  0.91187600000E+02 0.  0.
<mgrwt>
<rscale>  0 0.50572681E+04</rscale>
<asrwt>0</asrwt>
<pdfrwt beam="1">  1        1 0.48506539E+00 0.50572681E+04</pdfrwt>
<pdfrwt beam="2">  1       -1 0.31199308E+00 0.50572681E+04</pdfrwt>
<totfact> 0.91415117E-03</totfact>
</mgrwt>
</event>
<event>
13    1  0.3869099E-010  0.4515818E+04  0.7818608E-02  0.7907873E-01
         -2   -1    0    0    0  501 -0.00000000000E+00  0.00000000000E+00  0.21752418868E+04  0.21752418868E+04  0.00000000000E+00 0.  1.
          2   -1    0    0  501    0  0.00000000000E+00 -0.00000000000E+00 -0.23437175395E+04  0.23437175395E+04  0.00000000000E+00 0. -1.
    9900016    2    1    2    0    0  0.10262544385E+04  0.46397220265E+03 -0.64600961492E+03  0.22550125914E+04  0.18437149963E+04 0.  0.
         24    2    3    3    0    0 -0.17035879109E+03  0.77571954395E+03  0.10983943294E+03  0.80574470414E+03  0.79980614299E+02 0.  0.
    9900016    2    1    2    0    0 -0.94149461473E+03 -0.44754308256E+03  0.46996467559E+03  0.21381429550E+04  0.18066769438E+04 0.  0.
        -24    2    5    5    0    0  0.95649562292E+02  0.29540242225E+03 -0.45987362666E+03  0.55946143692E+03  0.71427705244E+02 0.  0.
        -15    1    5    5    0    0 -0.10371441770E+04 -0.74294550481E+03  0.92983830225E+03  0.15786815180E+04  0.00000000000E+00 0.  1.
        -15    1    4    4    0    0 -0.15588857652E+03  0.59550941366E+03  0.61727433171E+02  0.61866225524E+03  0.00000000000E+00 0.  1.
         15    1    6    6    0    0  0.61095257676E+02  0.25611130914E+03 -0.35211370283E+03  0.43966998180E+03  0.00000000000E+00 0. -1.
         15    1    3    3    0    0  0.11966132296E+04 -0.31174734130E+03 -0.75584904786E+03  0.14492678873E+04  0.00000000000E+00 0. -1.
        -16    1    6    6    0    0  0.34554304616E+02  0.39291113107E+02 -0.10775992383E+03  0.11979145512E+03  0.00000000000E+00 0.  1.
         16    1    4    4    0    0 -0.14470214570E+02  0.18021013028E+03  0.48111999768E+02  0.18708244891E+03  0.00000000000E+00 0. -1.
    9900018    1    1    2    0    0 -0.84759823760E+02 -0.16429120090E+02  0.75692866444E+01  0.12580387993E+03  0.91187600000E+02 0.  0.
<mgrwt>
<rscale>  0 0.45158178E+04</rscale>
<asrwt>0</asrwt>
<pdfrwt beam="1">  1        2 0.36057193E+00 0.45158178E+04</pdfrwt>
<pdfrwt beam="2">  1       -2 0.33465260E+00 0.45158178E+04</pdfrwt>
<totfact> 0.62913817E-02</totfact>
</mgrwt>
</event>
<event>
13    1  0.3869099E-010  0.5305898E+04  0.7818608E-02  0.7782977E-01
          2   -1    0    0  501    0  0.00000000000E+00  0.00000000000E+00  0.38862092744E+04  0.38862092744E+04  0.00000000000E+00 0. -1.
         -2   -1    0    0    0  501 -0.00000000000E+00 -0.00000000000E+00 -0.18110551855E+04  0.18110551855E+04  0.00000000000E+00 0.  1.
    9900016    2    1    2    0    0 -0.92566042401E+03  0.15562574250E+04  0.16015058185E+04  0.30385537615E+04  0.18409790007E+04 0.  0.
        -24    2    3    3    0    0  0.42854211651E+03  0.99280560900E+03  0.45035152556E+03  0.11740166404E+04  0.78659089907E+02 0.  0.
    9900016    2    1    2    0    0  0.92566042401E+03 -0.15562574250E+04  0.47364827031E+03  0.26587106984E+04  0.18882837447E+04 0.  0.
         24    2    5    5    0    0 -0.37313914917E+02  0.28605559608E+03  0.45268860648E+03  0.54265978715E+03  0.79577244581E+02 0.  0.
        -15    1    3    3    0    0 -0.13542025405E+04  0.56345181599E+03  0.11511542930E+04  0.18645371211E+04  0.00000000000E+00 0.  1.
        -15    1    6    6    0    0 -0.55126619913E+02  0.19341605799E+03  0.26582890716E+03  0.33333725204E+03  0.00000000000E+00 0.  1.
         15    1    5    5    0    0  0.87517446169E+03 -0.17573684003E+04  0.10683151329E+02  0.19632595760E+04  0.00000000000E+00 0. -1.
         15    1    4    4    0    0  0.21387240373E+03  0.40498896739E+03  0.17415050405E+03  0.48998557820E+03  0.00000000000E+00 0. -1.
        -16    1    4    4    0    0  0.21466971278E+03  0.58781664161E+03  0.27620102151E+03  0.68403106218E+03  0.00000000000E+00 0.  1.
         16    1    6    6    0    0  0.17812704996E+02  0.92639538090E+02  0.18685969931E+03  0.20932253511E+03  0.00000000000E+00 0. -1.
    9900018    1    5    5    0    0  0.87799877229E+02 -0.84944620728E+02  0.10276512504E+02  0.15279133527E+03  0.91187600000E+02 0.  0.
<mgrwt>
<rscale>  0 0.53058984E+04</rscale>
<asrwt>0</asrwt>
<pdfrwt beam="1">  1        2 0.59787835E+00 0.53058984E+04</pdfrwt>
<pdfrwt beam="2">  1       -2 0.27862388E+00 0.53058984E+04</pdfrwt>
<totfact> 0.12804594E-02</totfact>
</mgrwt>
</event>
<event>
13    1  0.3869099E-010  0.4392766E+04  0.7818608E-02  0.7929684E-01
         -1   -1    0    0    0  501 -0.00000000000E+00  0.00000000000E+00  0.18775108386E+04  0.18775108386E+04  0.00000000000E+00 0.  1.
          1   -1    0    0  501    0  0.00000000000E+00 -0.00000000000E+00 -0.25694115089E+04  0.25694115089E+04  0.00000000000E+00 0. -1.
    9900016    2    1    2    0    0 -0.89859037262E+03 -0.18997700095E+03 -0.10483069956E+04  0.23029089027E+04  0.18332719215E+04 0.  0.
         24    2    3    3    0    0  0.33729455651E+03  0.51806831581E+03 -0.37369338348E+03  0.72688756576E+03  0.80971542571E+02 0.  0.
    9900016    2    1    2    0    0  0.83568522375E+03  0.17770093155E+03  0.35256250823E+03  0.20324889499E+04  0.18101833043E+04 0.  0.
        -24    2    5    5    0    0 -0.28012865394E+03 -0.30571606096E+03  0.65516894698E+03  0.77937153520E+03  0.78989037881E+02 0.  0.
        -15    1    4    4    0    0  0.12315751297E+03  0.23172672002E+03 -0.19647931409E+03  0.32782490241E+03  0.00000000000E+00 0.  1.
        -15    1    5    5    0    0  0.11158138777E+04  0.48341699251E+03 -0.30260643875E+03  0.12531174147E+04  0.00000000000E+00 0.  1.
         15    1    6    6    0    0 -0.48561821447E+02 -0.43650233993E+02  0.16312882987E+03  0.17571172006E+03  0.00000000000E+00 0. -1.
         15    1    3    3    0    0 -0.12358849291E+04 -0.70804531676E+03 -0.67461361217E+03  0.15760213369E+04  0.00000000000E+00 0. -1.
        -16    1    6    6    0    0 -0.23156683250E+03 -0.26206582696E+03  0.49204011711E+03  0.60365981515E+03  0.00000000000E+00 0.  1.
         16    1    4    4    0    0  0.21413704354E+03  0.28634159579E+03 -0.17721406939E+03  0.39906266335E+03  0.00000000000E+00 0. -1.
    9900018    1    1    2    0    0  0.62905148878E+02  0.12276069400E+02  0.38438171295E+01  0.11152449488E+03  0.91187600000E+02 0.  0.
<mgrwt>
<rscale>  0 0.43927659E+04</rscale>
<asrwt>0</asrwt>
<pdfrwt beam="1">  1        1 0.39529408E+00 0.43927659E+04</pdfrwt>
<pdfrwt beam="2">  1       -1 0.28884782E+00 0.43927659E+04</pdfrwt>
<totfact> 0.35838285E-02</totfact>
</mgrwt>
</event>
<event>
13    1  0.3869099E-010  0.4861863E+04  0.7818608E-02  0.7850177E-01
          2   -1    0    0  501    0  0.00000000000E+00  0.00000000000E+00  0.29210897766E+04  0.29210897766E+04  0.00000000000E+00 0.  1.
         -2   -1    0    0    0  501 -0.00000000000E+00 -0.00000000000E+00 -0.20230214169E+04  0.20230214169E+04  0.00000000000E+00 0. -1.
    9900016    2    1    2    0    0  0.11974723001E+04  0.49864044449E+03 -0.42816349645E+03  0.22859948348E+04  0.18329937814E+04 0.  0.
        -24    2    3    3    0    0  0.33689109489E+03 -0.45770502515E+03  0.44968369566E+03  0.72849287309E+03  0.74141352437E+02 0.  0.
    9900016    2    1    2    0    0 -0.11974723001E+04 -0.49864044449E+03  0.13262318561E+04  0.26581163587E+04  0.19037093891E+04 0.  0.
         24    2    5    5    0    0 -0.88646410313E+02  0.16107486991E+03 -0.40554861546E+03  0.45324750447E+03  0.84618680132E+02 0.  0.
        -15    1    6    6    0    0 -0.37377693006E+02  0.13752818403E+03 -0.32532321219E+03  0.35517078389E+03  0.00000000000E+00 0.  1.
        -15    1    3    3    0    0  0.86058120520E+03  0.95634546964E+03 -0.87784719210E+03  0.15575019617E+04  0.00000000000E+00 0.  1.
         15    1    5    5    0    0 -0.10900771574E+04 -0.57978971107E+03  0.16337469267E+04  0.20478167249E+04  0.00000000000E+00 0. -1.
         15    1    4    4    0    0  0.27424624711E+03 -0.32189000327E+03  0.34769266977E+03  0.54746175288E+03  0.00000000000E+00 0. -1.
        -16    1    4    4    0    0  0.62644847771E+02 -0.13581502188E+03  0.10199102589E+03  0.18103112020E+03  0.00000000000E+00 0.  1.
         16    1    6    6    0    0 -0.51268717307E+02  0.23546685878E+02 -0.80225403273E+02  0.98076720584E+02  0.00000000000E+00 0. -1.
    9900018    1    5    5    0    0 -0.18748732412E+02 -0.79925603332E+02  0.98033544869E+02  0.15705212940E+03  0.91187600000E+02 0.  0.
<mgrwt>
<rscale>  0 0.48618627E+04</rscale>
<asrwt>0</asrwt>
<pdfrwt beam="1">  1        2 0.44939843E+00 0.48618627E+04</pdfrwt>
<pdfrwt beam="2">  1       -2 0.31123406E+00 0.48618627E+04</pdfrwt>
<totfact> 0.38901561E-02</totfact>
</mgrwt>
</event>
<event>
13    1  0.3869099E-010  0.4336689E+04  0.7818608E-02  0.7939869E-01
          1   -1    0    0  501    0  0.00000000000E+00  0.00000000000E+00  0.17284633843E+04  0.17284633843E+04  0.00000000000E+00 0. -1.
         -1   -1    0    0    0  501 -0.00000000000E+00 -0.00000000000E+00 -0.27201724703E+04  0.27201724703E+04  0.00000000000E+00 0.  1.
    9900016    2    1    2    0    0  0.46114124642E+02  0.86409086146E+03 -0.11955354244E+04  0.23582481194E+04  0.18393612240E+04 0.  0.
        -24    2    3    3    0    0  0.11916493582E+02 -0.21334577393E+03  0.38352629756E+03  0.44631843896E+03  0.80307571012E+02 0.  0.
    9900016    2    1    2    0    0 -0.46114124642E+02 -0.86409086146E+03  0.20382633838E+03  0.20903877353E+04  0.18919292212E+04 0.  0.
         24    2    5    5    0    0 -0.35550481758E+03  0.14623579462E+03  0.71060165634E+03  0.81184229193E+03  0.79778506068E+02 0.  0.
        -15    1    6    6    0    0 -0.61189311312E+02  0.48573023159E+02  0.98941790463E+02  0.12606723721E+03  0.00000000000E+00 0.  1.
        -15    1    3    3    0    0  0.34197631060E+02  0.10774366354E+04 -0.15790617219E+04  0.19119296804E+04  0.00000000000E+00 0.  1.
         15    1    4    4    0    0 -0.11718204717E+02 -0.11165203614E+03  0.12783425350E+03  0.17013256556E+03  0.00000000000E+00 0. -1.
         15    1    5    5    0    0  0.32435400090E+03 -0.97587779980E+03 -0.55520902557E+03  0.11686744885E+04  0.00000000000E+00 0. -1.
        -16    1    4    4    0    0  0.23634698299E+02 -0.10169373779E+03  0.25569204406E+03  0.27618587340E+03  0.00000000000E+00 0.  1.
         16    1    6    6    0    0 -0.29431550627E+03  0.97662771463E+02  0.61165986587E+03  0.68577505472E+03  0.00000000000E+00 0. -1.
    9900018    1    5    5    0    0 -0.14963307958E+02 -0.34448856281E+02  0.48433707610E+02  0.10987095481E+03  0.91187600000E+02 0.  0.
<mgrwt>
<rscale>  0 0.43366893E+04</rscale>
<asrwt>0</asrwt>
<pdfrwt beam="1">  1        1 0.26591745E+00 0.43366893E+04</pdfrwt>
<pdfrwt beam="2">  1       -1 0.41848807E+00 0.43366893E+04</pdfrwt>
<totfact> 0.18530166E-02</totfact>
</mgrwt>
</event>
<event>
13    1  0.3869099E-010  0.4184588E+04  0.7818608E-02  0.7968310E-01
         -1   -1    0    0    0  501 -0.00000000000E+00  0.00000000000E+00  0.25613639543E+04  0.25613639543E+04  0.00000000000E+00 0.  1.
          1   -1    0    0  501    0  0.00000000000E+00 -0.00000000000E+00 -0.17091258600E+04  0.17091258600E+04  0.00000000000E+00 0. -1.
    9900016    2    1    2    0    0  0.42823439477E+03 -0.47188344119E+03 -0.29491933825E+03  0.19586323745E+04  0.18284432404E+04 0.  0.
         24    2    3    3    0    0 -0.65755827531E+03 -0.31902021563E+03 -0.43327110357E+03  0.85343822906E+03  0.80474705618E+02 0.  0.
    9900016    2    1    2    0    0 -0.39464673862E+03  0.41146656422E+03  0.10113312819E+04  0.21342560567E+04  0.17908677148E+04 0.  0.
        -24    2    5    5    0    0  0.65801439702E+02  0.46390929080E+03 -0.41750129176E+03  0.63214910711E+03  0.75917754450E+02 0.  0.
        -15    1    5    5    0    0 -0.46044817832E+03 -0.52442726582E+02  0.14288325736E+04  0.15021069496E+04  0.00000000000E+00 0.  1.
        -15    1    4    4    0    0 -0.72853713733E+02 -0.15016220971E+02 -0.63318407436E+02  0.97685061382E+02  0.00000000000E+00 0.  1.
         15    1    6    6    0    0  0.78732409147E+02  0.36909223114E+03 -0.31154008227E+03  0.48937213876E+03  0.00000000000E+00 0. -1.
         15    1    3    3    0    0  0.10857926701E+04 -0.15286322557E+03  0.13835176532E+03  0.11051941454E+04  0.00000000000E+00 0. -1.
        -16    1    6    6    0    0 -0.12930969445E+02  0.94817059662E+02 -0.10596120949E+03  0.14277696835E+03  0.00000000000E+00 0.  1.
         16    1    4    4    0    0 -0.58470456157E+03 -0.30400399465E+03 -0.36995269613E+03  0.75575316768E+03  0.00000000000E+00 0. -1.
    9900018    1    1    2    0    0 -0.33587656150E+02  0.60416876976E+02  0.13582615077E+03  0.17760138314E+03  0.91187600000E+02 0.  0.
<mgrwt>
<rscale>  0 0.41845876E+04</rscale>
<asrwt>0</asrwt>
<pdfrwt beam="1">  1        1 0.26294244E+00 0.41845876E+04</pdfrwt>
<pdfrwt beam="2">  1       -1 0.39405600E+00 0.41845876E+04</pdfrwt>
<totfact> 0.28434779E-02</totfact>
</mgrwt>
</event>
