<event>
11    1  0.1327293E-011  0.2865248E+04  0.7818608E-02  0.8493291E-01
          2   -1    0    0  501    0  0.00000000000E+00  0.00000000000E+00  0.26177761588E+04  0.26177761588E+04  0.00000000000E+00 0.  1.
         -2   -1    0    0    0  501 -0.00000000000E+00 -0.00000000000E+00 -0.16851850937E+04  0.16851850937E+04  0.00000000000E+00 0. -1.
    9900016    2    1    2    0    0 -0.39623220782E+03  0.24874305174E+03  0.22042493867E+03  0.19058002236E+04  0.18342884916E+04 0.  0.
         24    2    3    3    0    0 -0.10340050386E+04 -0.17054100214E+03  0.29873481058E+03  0.10927461175E+04  0.81246150652E+02 0.  0.
        -15    1    1    2    0    0  0.15008819347E+03  0.29598925386E+03 -0.40208812009E+03  0.52135492760E+03  0.00000000000E+00 0.  1.
        -15    1    4    4    0    0 -0.76220536402E+03 -0.15986685831E+03  0.23316495277E+03  0.81294546221E+03  0.00000000000E+00 0.  1.
         15    1    1    2    0    0 -0.38247182311E+03 -0.51455871020E+03  0.54731106907E+02  0.64346783585E+03  0.00000000000E+00 0. -1.
         15    1    3    3    0    0  0.42532301481E+03  0.37025483505E+03 -0.11021951630E+03  0.57457519227E+03  0.00000000000E+00 0. -1.
        -16    1    1    2    0    0  0.62861583746E+03 -0.30173595404E+02  0.10595231396E+04  0.12323382654E+04  0.00000000000E+00 0.  1.
         16    1    4    4    0    0 -0.27179967453E+03 -0.10674143836E+02  0.65569857808E+02  0.27980065524E+03  0.00000000000E+00 0. -1.
    9900018    1    3    3    0    0  0.21244981593E+03  0.49029218836E+02  0.31909644387E+02  0.23847891392E+03  0.91187600000E+02 0.  0.
<mgrwt>
<rscale>  0 0.22614177E+04</rscale>
<asrwt>0</asrwt>
<pdfrwt beam="1">  1        2 0.40273479E+00 0.28652480E+04</pdfrwt>
<pdfrwt beam="2">  1       -2 0.25925925E+00 0.28652480E+04</pdfrwt>
<totfact> 0.13927469E-01</totfact>
</mgrwt>
</event>
<event>
11    1  0.1327293E-011  0.4526952E+04  0.7818608E-02  0.7905935E-01
          2   -1    0    0  501    0  0.00000000000E+00  0.00000000000E+00  0.19345886913E+04  0.19345886913E+04  0.00000000000E+00 0.  1.
         -2   -1    0    0    0  501 -0.00000000000E+00 -0.00000000000E+00 -0.26482754014E+04  0.26482754014E+04  0.00000000000E+00 0. -1.
    9900016    2    1    2    0    0  0.12282002231E+03 -0.38369896647E+03 -0.28121312117E+03  0.19094333780E+04  0.18451410111E+04 0.  0.
         24    2    3    3    0    0  0.33812879707E+03 -0.40235296576E+03 -0.50453637249E+03  0.73194678122E+03  0.70499268889E+02 0.  0.
        -15    1    1    2    0    0  0.13363659236E+03  0.74445388414E+02  0.40901894870E+03  0.43668908284E+03  0.00000000000E+00 0.  1.
        -15    1    4    4    0    0  0.11537870036E+03 -0.13550732348E+03 -0.12621575091E+03  0.21818546008E+03  0.00000000000E+00 0.  1.
         15    1    3    3    0    0 -0.38941833442E+03 -0.48108604008E+03  0.10946239806E+03  0.62854787704E+03  0.00000000000E+00 0. -1.
         15    1    1    2    0    0 -0.63722208793E+03 -0.68177855089E+03 -0.69812898869E+03  0.11654432919E+04  0.00000000000E+00 0. -1.
        -16    1    1    2    0    0  0.38076547325E+03  0.99103212894E+03 -0.14336354894E+03  0.10712983400E+04  0.00000000000E+00 0.  1.
         16    1    4    4    0    0  0.22275009672E+03 -0.26684564227E+03 -0.37832062158E+03  0.51376132114E+03  0.00000000000E+00 0. -1.
    9900018    1    3    3    0    0  0.17410955966E+03  0.49974003937E+03  0.11386085326E+03  0.54893871973E+03  0.91187600000E+02 0.  0.
<mgrwt>
<rscale>  0 0.45269520E+04</rscale>
<asrwt>0</asrwt>
<pdfrwt beam="1">  1        2 0.29762903E+00 0.45269520E+04</pdfrwt>
<pdfrwt beam="2">  1       -2 0.40742698E+00 0.45269520E+04</pdfrwt>
<totfact> 0.36454338E-02</totfact>
</mgrwt>
</event>
<event>
11    1  0.1327293E-011  0.4917765E+04  0.7818608E-02  0.7841319E-01
          2   -1    0    0  501    0  0.00000000000E+00  0.00000000000E+00  0.27703753139E+04  0.27703753139E+04  0.00000000000E+00 0.  1.
         -2   -1    0    0    0  501 -0.00000000000E+00 -0.00000000000E+00 -0.21824130591E+04  0.21824130591E+04  0.00000000000E+00 0. -1.
    9900016    2    1    2    0    0  0.11322956751E+04 -0.19757894132E+03 -0.60988040136E+03  0.22592416550E+04  0.18469130509E+04 0.  0.
         24    2    3    3    0    0  0.15307343674E+04 -0.17890756008E+03 -0.51342733372E+03  0.16263738078E+04  0.79551976838E+02 0.  0.
        -15    1    4    4    0    0  0.29530171864E+03 -0.15043189748E+02 -0.12468586144E+03  0.32089868593E+03  0.00000000000E+00 0.  1.
        -15    1    1    2    0    0 -0.43299745583E+03 -0.60230227596E+03  0.12210968570E+03  0.75177496881E+03  0.00000000000E+00 0.  1.
         15    1    1    2    0    0 -0.35823536045E+02  0.50510762511E+03 -0.14034132008E+03  0.52546429450E+03  0.00000000000E+00 0. -1.
         15    1    3    3    0    0 -0.16044859747E+03 -0.22657282255E+03 -0.12141372494E+03  0.30301862806E+03  0.00000000000E+00 0. -1.
        -16    1    1    2    0    0 -0.66347468327E+03  0.29477359218E+03  0.12160742905E+04  0.14163074547E+04  0.00000000000E+00 0.  1.
         16    1    4    4    0    0  0.12354326488E+04 -0.16386437033E+03 -0.38874147228E+03  0.13054751219E+04  0.00000000000E+00 0. -1.
    9900018    1    3    3    0    0 -0.23799009481E+03  0.20790144131E+03  0.24960657297E+02  0.32984921909E+03  0.91187600000E+02 0.  0.
<mgrwt>
<rscale>  0 0.49177650E+04</rscale>
<asrwt>0</asrwt>
<pdfrwt beam="1">  1        2 0.42621159E+00 0.49177650E+04</pdfrwt>
<pdfrwt beam="2">  1       -2 0.33575586E+00 0.49177650E+04</pdfrwt>
<totfact> 0.33746404E-02</totfact>
</mgrwt>
</event>
<event>
11    1  0.1327293E-011  0.4290029E+04  0.7818608E-02  0.7948464E-01
         -2   -1    0    0    0  501 -0.00000000000E+00  0.00000000000E+00  0.29999355575E+04  0.29999355575E+04  0.00000000000E+00 0.  1.
          2   -1    0    0  501    0  0.00000000000E+00 -0.00000000000E+00 -0.15337285291E+04  0.15337285291E+04  0.00000000000E+00 0. -1.
    9900016    2    1    2    0    0 -0.24666635020E+03 -0.56353130949E+03  0.98430053890E+03  0.21791178166E+04  0.18442600367E+04 0.  0.
         24    2    3    3    0    0  0.23538340090E+03  0.14051274778E+03 -0.22677539193E+03  0.36370209148E+03  0.75517913481E+02 0.  0.
        -15    1    4    4    0    0  0.46684897202E+02  0.43794803241E+02 -0.93303023011E+02  0.11314998242E+03  0.00000000000E+00 0.  1.
        -15    1    1    2    0    0  0.50495469194E+03  0.42918096443E+03  0.62635428970E+03  0.91186360678E+03  0.00000000000E+00 0.  1.
         15    1    3    3    0    0  0.91860671669E+02 -0.69919810019E+03  0.93746153210E+03  0.11730944082E+04  0.00000000000E+00 0. -1.
         15    1    1    2    0    0 -0.32751497015E+03 -0.49259426710E+03 -0.44862472880E+03  0.74241451693E+03  0.00000000000E+00 0. -1.
        -16    1    1    2    0    0  0.69226628413E+02  0.62694461216E+03  0.30417692863E+03  0.70026814629E+03  0.00000000000E+00 0.  1.
         16    1    4    4    0    0  0.18869850370E+03  0.96717944540E+02 -0.13347236892E+03  0.25055210907E+03  0.00000000000E+00 0. -1.
    9900018    1    3    3    0    0 -0.57391042277E+03 -0.48459570788E+01  0.27361439873E+03  0.64232131698E+03  0.91187600000E+02 0.  0.
<mgrwt>
<rscale>  0 0.42900288E+04</rscale>
<asrwt>0</asrwt>
<pdfrwt beam="1">  1        2 0.23595824E+00 0.42900288E+04</pdfrwt>
<pdfrwt beam="2">  1       -2 0.46152855E+00 0.42900288E+04</pdfrwt>
<totfact> 0.27309713E-02</totfact>
</mgrwt>
</event>
<event>
11    1  0.1327293E-011  0.5152978E+04  0.7818608E-02  0.7805333E-01
         -2   -1    0    0    0  501 -0.00000000000E+00  0.00000000000E+00  0.38491941572E+04  0.38491941572E+04  0.00000000000E+00 0.  1.
          2   -1    0    0  501    0  0.00000000000E+00 -0.00000000000E+00 -0.17245939150E+04  0.17245939150E+04  0.00000000000E+00 0. -1.
    9900016    2    1    2    0    0  0.60312929051E+03  0.61948576378E+03 -0.25830750430E+02  0.20477276253E+04  0.18560694080E+04 0.  0.
         24    2    3    3    0    0  0.55184558361E+03 -0.26254763700E+03  0.41374995295E+03  0.74240129466E+03  0.80658842726E+02 0.  0.
        -15    1    4    4    0    0  0.13135543772E+03 -0.97607723299E+02  0.90920682018E+02  0.18721134871E+03  0.00000000000E+00 0.  1.
        -15    1    1    2    0    0 -0.10352776091E+04  0.21887344982E+03  0.54905345261E+03  0.11921262553E+04  0.00000000000E+00 0.  1.
         15    1    3    3    0    0 -0.12726758577E+03  0.71028667361E+03 -0.64732152235E+03  0.96939638456E+03  0.00000000000E+00 0. -1.
         15    1    1    2    0    0  0.52160670611E+03 -0.50679187917E+03  0.32585536356E+02  0.72799270726E+03  0.00000000000E+00 0. -1.
        -16    1    1    2    0    0 -0.89458387550E+02 -0.33156733443E+03  0.15687920036E+04  0.16059414843E+04  0.00000000000E+00 0.  1.
         16    1    4    4    0    0  0.42049014589E+03 -0.16493991371E+03  0.32282927093E+03  0.55518994596E+03  0.00000000000E+00 0. -1.
    9900018    1    3    3    0    0  0.17855129267E+03  0.17174672718E+03  0.20774081898E+03  0.33592994608E+03  0.91187600000E+02 0.  0.
<mgrwt>
<rscale>  0 0.51529785E+04</rscale>
<asrwt>0</asrwt>
<pdfrwt beam="1">  1        2 0.26532214E+00 0.51529785E+04</pdfrwt>
<pdfrwt beam="2">  1       -2 0.59218371E+00 0.51529785E+04</pdfrwt>
<totfact> 0.37757412E-03</totfact>
</mgrwt>
</event>
<event>
11    1  0.1327293E-011  0.3563214E+04  0.7818608E-02  0.8098970E-01
          2   -1    0    0  501    0  0.00000000000E+00  0.00000000000E+00  0.30546219802E+04  0.30546219802E+04  0.00000000000E+00 0. -1.
         -2   -1    0    0    0  501 -0.00000000000E+00 -0.00000000000E+00 -0.10391214299E+04  0.10391214299E+04  0.00000000000E+00 0.  1.
    9900016    2    1    2    0    0 -0.58308792608E+03  0.16601799050E+03  0.16692048052E+04  0.25611359889E+04  0.18454320278E+04 0.  0.
         24    2    3    3    0    0 -0.87553918032E+03  0.37488119144E+03  0.82507271590E+03  0.12626385349E+04  0.80039485948E+02 0.  0.
        -15    1    1    2    0    0  0.11375173891E+03 -0.49206436272E+03  0.10625655135E+03  0.51609810101E+03  0.00000000000E+00 0.  1.
        -15    1    4    4    0    0 -0.82391538100E+03  0.33319430584E+03  0.77942970560E+03  0.11821022234E+04  0.00000000000E+00 0.  1.
         15    1    3    3    0    0  0.18354858767E+03 -0.56023871348E+02  0.10124140649E+04  0.10304421367E+04  0.00000000000E+00 0. -1.
         15    1    1    2    0    0 -0.19352427836E+03  0.25606125228E+03  0.88768836665E+02  0.33301489096E+03  0.00000000000E+00 0. -1.
        -16    1    1    2    0    0  0.66286046553E+03  0.69985119940E+02  0.15127035713E+03  0.68349442918E+03  0.00000000000E+00 0.  1.
         16    1    4    4    0    0 -0.51623799325E+02  0.41686885599E+02  0.45643010302E+02  0.80536311544E+02  0.00000000000E+00 0. -1.
    9900018    1    3    3    0    0  0.10890266657E+03 -0.15283932959E+03 -0.16828197561E+03  0.26805531736E+03  0.91187600000E+02 0.  0.
<mgrwt>
<rscale>  0 0.35632138E+04</rscale>
<asrwt>0</asrwt>
<pdfrwt beam="1">  1        2 0.46994184E+00 0.35632138E+04</pdfrwt>
<pdfrwt beam="2">  1       -2 0.15986484E+00 0.35632138E+04</pdfrwt>
<totfact> 0.33169675E-01</totfact>
</mgrwt>
</event>
<event>
11    1  0.1327293E-011  0.3439435E+04  0.7818608E-02  0.8242031E-01
          2   -1    0    0  501    0  0.00000000000E+00  0.00000000000E+00  0.33130191603E+04  0.33130191603E+04  0.00000000000E+00 0.  1.
         -2   -1    0    0    0  501 -0.00000000000E+00 -0.00000000000E+00 -0.22848548917E+04  0.22848548917E+04  0.00000000000E+00 0. -1.
    9900016    2    1    2    0    0 -0.31774957285E+03  0.80145596875E+03 -0.18669434201E+03  0.20440557067E+04  0.18439122794E+04 0.  0.
         24    2    3    3    0    0  0.11449651086E+03  0.80017889008E+03 -0.23311009094E+03  0.84505600987E+03  0.79897673219E+02 0.  0.
        -15    1    4    4    0    0  0.75487207267E+02  0.26920222828E+03 -0.90730195422E+02  0.29393898437E+03  0.00000000000E+00 0.  1.
        -15    1    1    2    0    0  0.29564059881E+03  0.41684669190E+03  0.63091206340E+03  0.81192029163E+03  0.00000000000E+00 0.  1.
         15    1    3    3    0    0 -0.70547784447E+03  0.26520959242E+03  0.19911233205E+03  0.77953886223E+03  0.00000000000E+00 0. -1.
         15    1    1    2    0    0  0.78063466208E+03 -0.64328032521E+03 -0.63576457668E+03  0.11947370629E+04  0.00000000000E+00 0. -1.
        -16    1    1    2    0    0 -0.75852568803E+03 -0.57502233543E+03  0.12197111239E+04  0.15471609908E+04  0.00000000000E+00 0.  1.
         16    1    4    4    0    0  0.39009303589E+02  0.53097666181E+03 -0.14237989552E+03  0.55111702550E+03  0.00000000000E+00 0. -1.
    9900018    1    3    3    0    0  0.27323176076E+03 -0.26393251376E+03 -0.15269658312E+03  0.41946083464E+03  0.91187600000E+02 0.  0.
<mgrwt>
<rscale>  0 0.30059609E+04</rscale>
<asrwt>0</asrwt>
<pdfrwt beam="1">  1        2 0.50969526E+00 0.34394351E+04</pdfrwt>
<pdfrwt beam="2">  1       -2 0.35151614E+00 0.34394351E+04</pdfrwt>
<totfact> 0.12908000E-02</totfact>
</mgrwt>
</event>
<event>
11    1  0.1327293E-011  0.4676357E+04  0.7818608E-02  0.7880469E-01
         -2   -1    0    0    0  501 -0.00000000000E+00  0.00000000000E+00  0.23612555977E+04  0.23612555977E+04  0.00000000000E+00 0.  1.
          2   -1    0    0  501    0  0.00000000000E+00 -0.00000000000E+00 -0.23153268161E+04  0.23153268161E+04  0.00000000000E+00 0. -1.
    9900016    2    1    2    0    0  0.21393477934E+03 -0.59773442838E+03  0.39543867778E+03  0.19917877013E+04  0.18460205748E+04 0.  0.
         24    2    3    3    0    0  0.49421909320E+03  0.45905231076E+03  0.45163155033E+02  0.68093489376E+03  0.81554171381E+02 0.  0.
        -15    1    1    2    0    0  0.26473767136E+03 -0.35132672328E+03  0.34158173702E+03  0.55695115063E+03  0.00000000000E+00 0.  1.
        -15    1    4    4    0    0  0.17925102403E+03  0.13701932480E+03  0.47050173306E+02  0.23047547330E+03  0.00000000000E+00 0.  1.
         15    1    1    2    0    0 -0.63471155945E+03  0.71424753819E+03 -0.12072960253E+04  0.15396661983E+04  0.00000000000E+00 0. -1.
         15    1    3    3    0    0 -0.74840576745E+02 -0.97796325626E+03  0.41348445659E+03  0.10644165718E+04  0.00000000000E+00 0. -1.
        -16    1    1    2    0    0  0.15603910875E+03  0.23481361348E+03  0.51620439206E+03  0.58817736348E+03  0.00000000000E+00 0.  1.
         16    1    4    4    0    0  0.31496806917E+03  0.32203298596E+03 -0.18870182729E+01  0.45045942046E+03  0.00000000000E+00 0. -1.
    9900018    1    3    3    0    0 -0.20544373712E+03 -0.78823482884E+02 -0.63208933841E+02  0.24643623574E+03  0.91187600000E+02 0.  0.
<mgrwt>
<rscale>  0 0.46763569E+04</rscale>
<asrwt>0</asrwt>
<pdfrwt beam="1">  1        2 0.35620412E+00 0.46763569E+04</pdfrwt>
<pdfrwt beam="2">  1       -2 0.36327009E+00 0.46763569E+04</pdfrwt>
<totfact> 0.42551445E-02</totfact>
</mgrwt>
</event>
<event>
11    1  0.1327293E-011  0.4456234E+04  0.7818608E-02  0.7918344E-01
          2   -1    0    0  501    0  0.00000000000E+00  0.00000000000E+00  0.26360752255E+04  0.26360752255E+04  0.00000000000E+00 0. -1.
         -2   -1    0    0    0  501 -0.00000000000E+00 -0.00000000000E+00 -0.18832946205E+04  0.18832946205E+04  0.00000000000E+00 0.  1.
    9900016    2    1    2    0    0  0.91799306209E+02  0.12143477188E+04  0.25839801197E+02  0.22062718296E+04  0.18395380387E+04 0.  0.
        -24    2    3    3    0    0 -0.59490022727E+02  0.13750402027E+04 -0.10528299010E+03  0.13826705164E+04  0.80116334182E+02 0.  0.
        -15    1    3    3    0    0 -0.16478751056E+03 -0.17463170090E+02 -0.25014638809E+03  0.30005516396E+03  0.00000000000E+00 0.  1.
        -15    1    1    2    0    0 -0.44034028299E+02 -0.72561859954E+02  0.12805567947E+01  0.84887331175E+02  0.00000000000E+00 0. -1.
         15    1    1    2    0    0  0.16251930070E+03 -0.15715756691E+04  0.34597896932E+03  0.16173942172E+04  0.00000000000E+00 0.  1.
         15    1    4    4    0    0 -0.59685568399E+02  0.50423075478E+03 -0.46646286373E+02  0.50988910282E+03  0.00000000000E+00 0. -1.
        -16    1    4    4    0    0  0.19554567138E+00  0.87080944793E+03 -0.58636703726E+02  0.87278141357E+03  0.00000000000E+00 0.  1.
         16    1    1    2    0    0 -0.21028457861E+03  0.42978981025E+03  0.37968127765E+03  0.61081646801E+03  0.00000000000E+00 0. -1.
    9900018    1    3    3    0    0  0.31607683949E+03 -0.14322931385E+03  0.38126917939E+03  0.52354614921E+03  0.91187600000E+02 0.  0.
<mgrwt>
<rscale>  0 0.44562344E+04</rscale>
<asrwt>0</asrwt>
<pdfrwt beam="1">  1        2 0.40555003E+00 0.44562344E+04</pdfrwt>
<pdfrwt beam="2">  1       -2 0.28973763E+00 0.44562344E+04</pdfrwt>
<totfact> 0.80919370E-02</totfact>
</mgrwt>
</event>
<event>
11    1  0.1327293E-011  0.2841994E+04  0.7818608E-02  0.8380723E-01
         -2   -1    0    0    0  501 -0.00000000000E+00  0.00000000000E+00  0.19199723030E+04  0.19199723030E+04  0.00000000000E+00 0. -1.
          2   -1    0    0  501    0  0.00000000000E+00 -0.00000000000E+00 -0.32572478806E+04  0.32572478806E+04  0.00000000000E+00 0.  1.
    9900016    2    1    2    0    0 -0.12254962251E+02 -0.22043836564E+03 -0.92102159141E+03  0.20739654863E+04  0.18450769115E+04 0.  0.
         24    2    3    3    0    0 -0.12837415266E+03  0.29008686867E+03  0.40749320030E+03  0.52263924420E+03  0.80441014732E+02 0.  0.
        -15    1    4    4    0    0 -0.82627663432E+02  0.10930442640E+03  0.21235932549E+03  0.25272766275E+03  0.00000000000E+00 0.  1.
        -15    1    1    2    0    0 -0.11991394978E+03 -0.44262634009E+03 -0.25368493777E+03  0.52407392603E+03  0.00000000000E+00 0.  1.
         15    1    1    2    0    0 -0.77872401048E+03  0.10008235543E+04  0.54202172339E+03  0.13790744795E+04  0.00000000000E+00 0. -1.
         15    1    3    3    0    0  0.30353336946E+03 -0.84064025629E+02 -0.66155198287E+03  0.73270068433E+03  0.00000000000E+00 0. -1.
        -16    1    1    2    0    0  0.91089292251E+03 -0.33775884858E+03 -0.70459077182E+03  0.12001062919E+04  0.00000000000E+00 0.  1.
         16    1    4    4    0    0 -0.45746489227E+02  0.18078244226E+03  0.19513387481E+03  0.26991158146E+03  0.00000000000E+00 0. -1.
    9900018    1    3    3    0    0 -0.18741417905E+03 -0.42646120868E+03 -0.66696280884E+03  0.81862555774E+03  0.91187600000E+02 0.  0.
<mgrwt>
<rscale>  0 0.25634505E+04</rscale>
<asrwt>0</asrwt>
<pdfrwt beam="1">  1        2 0.50111506E+00 0.28419941E+04</pdfrwt>
<pdfrwt beam="2">  1       -2 0.29538035E+00 0.28419941E+04</pdfrwt>
<totfact> 0.33049457E-02</totfact>
</mgrwt>
</event>
<event>
11    1  0.1327293E-011  0.4065505E+04  0.7818608E-02  0.7991461E-01
         -2   -1    0    0    0  501 -0.00000000000E+00  0.00000000000E+00  0.19352559372E+04  0.19352559372E+04  0.00000000000E+00 0.  1.
          2   -1    0    0  501    0  0.00000000000E+00 -0.00000000000E+00 -0.21351611728E+04  0.21351611728E+04  0.00000000000E+00 0. -1.
    9900016    2    1    2    0    0  0.28478180071E+03 -0.50904042945E+03 -0.73001946333E+03  0.20663668489E+04  0.18430194531E+04 0.  0.
        -24    2    3    3    0    0 -0.37328432934E+03 -0.54765090195E+03 -0.40078156559E+03  0.77875371819E+03  0.81048068029E+02 0.  0.
        -15    1    3    3    0    0  0.82867360280E+03  0.11243077210E+03 -0.53736613321E+03  0.99403369139E+03  0.00000000000E+00 0.  1.
        -15    1    1    2    0    0 -0.26816185475E+03  0.14133663109E+03  0.96725519190E+03  0.10136416674E+04  0.00000000000E+00 0.  1.
         15    1    1    2    0    0  0.24771640448E+03 -0.91211751908E+02 -0.37296857545E+03  0.45693386721E+03  0.00000000000E+00 0. -1.
         15    1    4    4    0    0 -0.97888095032E+02 -0.10005634833E+03 -0.11083156950E+03  0.17854128034E+03  0.00000000000E+00 0. -1.
        -16    1    4    4    0    0 -0.27539623431E+03 -0.44759455362E+03 -0.28994999609E+03  0.60021243784E+03  0.00000000000E+00 0.  1.
         16    1    1    2    0    0 -0.26433635044E+03  0.45891555027E+03 -0.64172388735E+02  0.53347472659E+03  0.00000000000E+00 0. -1.
    9900018    1    3    3    0    0 -0.17060747274E+03 -0.73820299597E+02  0.20812823548E+03  0.29357943931E+03  0.91187600000E+02 0.  0.
<mgrwt>
<rscale>  0 0.40655053E+04</rscale>
<asrwt>0</asrwt>
<pdfrwt beam="1">  1        2 0.32848634E+00 0.40655053E+04</pdfrwt>
<pdfrwt beam="2">  1       -2 0.29773168E+00 0.40655053E+04</pdfrwt>
<totfact> 0.14461424E-01</totfact>
</mgrwt>
</event>
<event>
11    1  0.1327293E-011  0.4484130E+04  0.7818608E-02  0.7913421E-01
          2   -1    0    0  501    0  0.00000000000E+00  0.00000000000E+00  0.45865123282E+04  0.45865123282E+04  0.00000000000E+00 0. -1.
         -2   -1    0    0    0  501 -0.00000000000E+00 -0.00000000000E+00 -0.10960080720E+04  0.10960080720E+04  0.00000000000E+00 0.  1.
    9900016    2    1    2    0    0 -0.13170085300E+03 -0.70450307204E+03  0.17239122360E+04  0.26296201583E+04  0.18518528792E+04 0.  0.
        -24    2    3    3    0    0  0.51708323952E+03 -0.85254564343E+03  0.29236128769E+03  0.10421761528E+04  0.80292341549E+02 0.  0.
        -15    1    1    2    0    0 -0.19327876878E+03  0.95152945786E+03 -0.96609445003E+02  0.97575528515E+03  0.00000000000E+00 0.  1.
        -15    1    3    3    0    0 -0.19193255149E+03  0.70469622600E+02  0.32025465703E+03  0.37995673093E+03  0.00000000000E+00 0.  1.
         15    1    4    4    0    0  0.18105302097E+03 -0.26041217416E+03  0.60084304899E+02  0.32280771451E+03  0.00000000000E+00 0. -1.
         15    1    1    2    0    0 -0.26414407316E+03 -0.16536614041E+03  0.49038171907E+03  0.58102692036E+03  0.00000000000E+00 0. -1.
        -16    1    4    4    0    0  0.33603021855E+03 -0.59213346927E+03  0.23227698279E+03  0.71936843824E+03  0.00000000000E+00 0.  1.
         16    1    1    2    0    0  0.58912369494E+03 -0.81660245403E+02  0.13728197461E+04  0.14961180364E+04  0.00000000000E+00 0. -1.
    9900018    1    3    3    0    0 -0.45685154103E+03  0.77572948780E+02  0.11112962913E+04  0.12074872746E+04  0.91187600000E+02 0.  0.
<mgrwt>
<rscale>  0 0.44841296E+04</rscale>
<asrwt>0</asrwt>
<pdfrwt beam="1">  1        2 0.70561727E+00 0.44841296E+04</pdfrwt>
<pdfrwt beam="2">  1       -2 0.16861663E+00 0.44841296E+04</pdfrwt>
<totfact> 0.16528092E-02</totfact>
</mgrwt>
</event>
<event>
11    1  0.1327293E-011  0.5993255E+04  0.7818608E-02  0.7691239E-01
         -2   -1    0    0    0  501 -0.00000000000E+00  0.00000000000E+00  0.22594495654E+04  0.22594495654E+04  0.00000000000E+00 0.  1.
          2   -1    0    0  501    0  0.00000000000E+00 -0.00000000000E+00 -0.39743199153E+04  0.39743199153E+04  0.00000000000E+00 0. -1.
    9900016    2    1    2    0    0 -0.15855435456E+03 -0.67988695264E+02  0.24896125225E+03  0.18736965778E+04  0.18490525181E+04 0.  0.
         24    2    3    3    0    0  0.95550898196E+02 -0.69198209119E+03  0.51756748260E+03  0.87281502247E+03  0.77206060256E+02 0.  0.
        -15    1    1    2    0    0 -0.10214120295E+04 -0.29041252284E+03 -0.72978763868E+03  0.12884921284E+04  0.00000000000E+00 0.  1.
        -15    1    4    4    0    0  0.74154553592E+02 -0.65778086607E+03  0.47973673371E+03  0.81750957136E+03  0.00000000000E+00 0.  1.
         15    1    1    2    0    0  0.18659160787E+04  0.67153492848E+03 -0.56112467155E+03  0.20609373765E+04  0.00000000000E+00 0. -1.
         15    1    3    3    0    0 -0.31637942374E+03  0.33852029445E+03  0.14575040029E+03  0.48573151916E+03  0.00000000000E+00 0. -1.
        -16    1    1    2    0    0 -0.68594969470E+03 -0.31313371038E+03 -0.67291929192E+03  0.10106433979E+04  0.00000000000E+00 0.  1.
         16    1    4    4    0    0  0.21396344603E+02 -0.34201225118E+02  0.37830748882E+02  0.55305451114E+02  0.00000000000E+00 0. -1.
    9900018    1    3    3    0    0  0.62274170978E+02  0.28547310148E+03 -0.41435663064E+03  0.51515003619E+03  0.91187600000E+02 0.  0.
<mgrwt>
<rscale>  0 0.59932547E+04</rscale>
<asrwt>0</asrwt>
<pdfrwt beam="1">  1        2 0.61143383E+00 0.59932547E+04</pdfrwt>
<pdfrwt beam="2">  1       -2 0.34760763E+00 0.59932547E+04</pdfrwt>
<totfact> 0.38729015E-03</totfact>
</mgrwt>
</event>
<event>
11    1  0.1327294E-011  0.3848640E+04  0.7818608E-02  0.8198152E-01
         -2   -1    0    0    0  501 -0.00000000000E+00  0.00000000000E+00  0.39079318412E+04  0.39079318412E+04  0.00000000000E+00 0. -1.
          2   -1    0    0  501    0  0.00000000000E+00 -0.00000000000E+00 -0.20225032959E+04  0.20225032959E+04  0.00000000000E+00 0.  1.
    9900016    2    1    2    0    0 -0.16033286324E+03  0.36438832486E+03  0.18824644031E+04  0.26602673467E+04  0.18370804688E+04 0.  0.
         24    2    3    3    0    0  0.60506392656E+02  0.32323846116E+03  0.11928169198E+04  0.12397329565E+04  0.77339981926E+02 0.  0.
        -15    1    1    2    0    0 -0.76303316385E+03  0.35463767112E+03  0.91935644206E+01  0.84147014715E+03  0.00000000000E+00 0.  1.
        -15    1    4    4    0    0  0.25384088759E+02  0.95626029177E+02  0.49827083628E+03  0.50799853907E+03  0.00000000000E+00 0.  1.
         15    1    3    3    0    0  0.34310412788E+03 -0.37748572472E+03  0.42673443409E+03  0.66507006561E+03  0.00000000000E+00 0. -1.
         15    1    1    2    0    0 -0.16431236365E+03 -0.73999967299E+03  0.77906970290E+03  0.10869901889E+04  0.00000000000E+00 0. -1.
        -16    1    1    2    0    0  0.10876783907E+04  0.20973677009E+02 -0.78529912510E+03  0.13417074542E+04  0.00000000000E+00 0.  1.
         16    1    4    4    0    0  0.35122303896E+02  0.22761243198E+03  0.69454608356E+03  0.73173441741E+03  0.00000000000E+00 0. -1.
    9900018    1    3    3    0    0 -0.56394338378E+03  0.41863558842E+03  0.26291304917E+03  0.75546432465E+03  0.91187600000E+02 0.  0.
<mgrwt>
<rscale>  0 0.31648902E+04</rscale>
<asrwt>0</asrwt>
<pdfrwt beam="1">  1        2 0.31115435E+00 0.38486401E+04</pdfrwt>
<pdfrwt beam="2">  1       -2 0.60122028E+00 0.38486401E+04</pdfrwt>
<totfact> 0.24642904E-03</totfact>
</mgrwt>
</event>
<event>
11    1  0.1424861E-011  0.6037598E+04  0.7818608E-02  0.7685758E-01
         -2   -1    0    0    0  501 -0.00000000000E+00  0.00000000000E+00  0.39594619445E+04  0.39594619445E+04  0.00000000000E+00 0. -1.
          2   -1    0    0  501    0  0.00000000000E+00 -0.00000000000E+00 -0.23016122019E+04  0.23016122019E+04  0.00000000000E+00 0.  1.
    9900016    2    1    2    0    0 -0.60366765038E+02 -0.34049655267E+03  0.12074742267E+04  0.22463923426E+04  0.18624453012E+04 0.  0.
        -24    2    3    3    0    0  0.28815226969E+03 -0.38447363761E+03  0.13333766239E+04  0.14193460415E+04  0.76146280007E+02 0.  0.
        -15    1    1    2    0    0  0.10797091468E+04  0.13889440374E+04 -0.75557458116E+03  0.19146358214E+04  0.00000000000E+00 0.  1.
        -15    1    3    3    0    0  0.35367401405E+02  0.16682159908E+03 -0.32599520278E+03  0.36790375268E+03  0.00000000000E+00 0.  1.
         15    1    1    2    0    0 -0.53038664287E+03 -0.86226805381E+03  0.30341323898E+03  0.10568234390E+04  0.00000000000E+00 0. -1.
         15    1    4    4    0    0  0.15512667037E+03 -0.16351384754E+03  0.54179192430E+03  0.58680452575E+03  0.00000000000E+00 0. -1.
        -16    1    4    4    0    0  0.13302559933E+03 -0.22095979007E+03  0.79158469956E+03  0.83254151577E+03  0.00000000000E+00 0.  1.
         16    1    1    2    0    0 -0.48895573894E+03 -0.18617943093E+03  0.90253685795E+03  0.10432225434E+04  0.00000000000E+00 0. -1.
    9900018    1    3    3    0    0 -0.38388643614E+03 -0.12284451413E+03  0.20009280567E+03  0.45914254843E+03  0.91187600000E+02 0.  0.
<mgrwt>
<rscale>  0 0.60375975E+04</rscale>
<asrwt>0</asrwt>
<pdfrwt beam="1">  1        2 0.35409418E+00 0.60375975E+04</pdfrwt>
<pdfrwt beam="2">  1       -2 0.60914799E+00 0.60375975E+04</pdfrwt>
<totfact> 0.14520367E-03</totfact>
</mgrwt>
</event>
<event>
11    1  0.1327293E-011  0.4510464E+04  0.7818608E-02  0.7908807E-01
          2   -1    0    0  501    0  0.00000000000E+00  0.00000000000E+00  0.24012020451E+04  0.24012020451E+04  0.00000000000E+00 0. -1.
         -2   -1    0    0    0  501 -0.00000000000E+00 -0.00000000000E+00 -0.21181353786E+04  0.21181353786E+04  0.00000000000E+00 0.  1.
    9900016    2    1    2    0    0 -0.74616431691E+03  0.17785859023E+03 -0.69872821015E+03  0.21158008559E+04  0.18439081551E+04 0.  0.
         24    2    3    3    0    0  0.56194637430E+03  0.28030733382E+03 -0.63290937429E+02  0.63630084576E+03  0.80728523862E+02 0.  0.
        -15    1    1    2    0    0  0.10822746970E+03 -0.11029721806E+03 -0.44802690021E+03  0.47392696148E+03  0.00000000000E+00 0.  1.
        -15    1    4    4    0    0  0.11349730487E+03  0.93999171423E+02 -0.20913119322E+02  0.14884502344E+03  0.00000000000E+00 0.  1.
         15    1    1    2    0    0  0.80101872060E+03 -0.38465342178E+03  0.75352578590E+03  0.11650709659E+04  0.00000000000E+00 0. -1.
         15    1    3    3    0    0 -0.11383958668E+04 -0.72700007249E+02 -0.55583418010E+03  0.12689295002E+04  0.00000000000E+00 0. -1.
        -16    1    1    2    0    0 -0.16308187338E+03  0.31709204962E+03  0.67629599096E+03  0.76453864045E+03  0.00000000000E+00 0.  1.
         16    1    4    4    0    0  0.44844906943E+03  0.18630816240E+03 -0.42377818107E+02  0.48745582232E+03  0.00000000000E+00 0. -1.
    9900018    1    3    3    0    0 -0.16971482441E+03 -0.29748736346E+02 -0.79603092615E+02  0.21057051001E+03  0.91187600000E+02 0.  0.
<mgrwt>
<rscale>  0 0.45104638E+04</rscale>
<asrwt>0</asrwt>
<pdfrwt beam="1">  1        2 0.36941570E+00 0.45104638E+04</pdfrwt>
<pdfrwt beam="2">  1       -2 0.32586698E+00 0.45104638E+04</pdfrwt>
<totfact> 0.66177377E-02</totfact>
</mgrwt>
</event>
<event>
11    1  0.1327293E-011  0.2775885E+04  0.7818608E-02  0.8367545E-01
         -2   -1    0    0    0  501 -0.00000000000E+00  0.00000000000E+00  0.44475952633E+04  0.44475952633E+04  0.00000000000E+00 0.  1.
          2   -1    0    0  501    0  0.00000000000E+00 -0.00000000000E+00 -0.16754340142E+04  0.16754340142E+04  0.00000000000E+00 0. -1.
    9900016    2    1    2    0    0  0.56386607156E+03  0.23633293429E+03  0.15533211844E+04  0.24923408957E+04  0.18507183027E+04 0.  0.
        -24    2    3    3    0    0 -0.16032329959E+03 -0.32592428551E+03 -0.13005286643E+03  0.39410191042E+03  0.80451025193E+02 0.  0.
        -15    1    1    2    0    0 -0.68815811750E+03 -0.14073382290E+04  0.14940191499E+03  0.15736846627E+04  0.00000000000E+00 0.  1.
        -15    1    3    3    0    0  0.64770255029E+03  0.80351644643E+01  0.63870718258E+03  0.90968677169E+03  0.00000000000E+00 0.  1.
         15    1    4    4    0    0 -0.85339514871E+02 -0.15300077773E+03 -0.10424956488E+03  0.20386280328E+03  0.00000000000E+00 0. -1.
         15    1    1    2    0    0 -0.15308504495E+03  0.50021198537E+03 -0.22774269198E+03  0.57053816266E+03  0.00000000000E+00 0. -1.
        -16    1    4    4    0    0 -0.74983784718E+02 -0.17292350778E+03 -0.25803301544E+02  0.19023910714E+03  0.00000000000E+00 0.  1.
         16    1    1    2    0    0  0.27737709088E+03  0.67079330933E+03  0.12971808418E+04  0.14864655565E+04  0.00000000000E+00 0. -1.
    9900018    1    3    3    0    0  0.76486820867E+02  0.55422205534E+03  0.10446668682E+04  0.11885522135E+04  0.91187600000E+02 0.  0.
<mgrwt>
<rscale>  0 0.26019329E+04</rscale>
<asrwt>0</asrwt>
<pdfrwt beam="1">  1        2 0.25775908E+00 0.27758853E+04</pdfrwt>
<pdfrwt beam="2">  1       -2 0.68424542E+00 0.27758853E+04</pdfrwt>
<totfact> 0.21212588E-03</totfact>
</mgrwt>
</event>
<event>
11    1  0.1327293E-011  0.4696418E+04  0.7818608E-02  0.7877124E-01
          2   -1    0    0  501    0  0.00000000000E+00  0.00000000000E+00  0.27296502420E+04  0.27296502420E+04  0.00000000000E+00 0. -1.
         -2   -1    0    0    0  501 -0.00000000000E+00 -0.00000000000E+00 -0.20200703245E+04  0.20200703245E+04  0.00000000000E+00 0.  1.
    9900016    2    1    2    0    0 -0.51717582847E+03 -0.14460669991E+03  0.12021000809E+04  0.22722615775E+04  0.18519573799E+04 0.  0.
         24    2    3    3    0    0 -0.29060177269E+03  0.19721912714E+03  0.61941153223E+01  0.36014589444E+03  0.79510526478E+02 0.  0.
        -15    1    1    2    0    0 -0.27889859651E+02  0.24052473511E+03 -0.63539534794E+03  0.67996855858E+03  0.00000000000E+00 0.  1.
        -15    1    4    4    0    0 -0.13601057931E+03  0.47521162912E+02 -0.94665347698E+01  0.14438404998E+03  0.00000000000E+00 0.  1.
         15    1    1    2    0    0 -0.20399909390E+03 -0.22475266543E+03  0.76004502336E+03  0.81841177195E+03  0.00000000000E+00 0. -1.
         15    1    3    3    0    0  0.44163045668E+03 -0.69771879197E+02  0.10888513612E+04  0.11770738558E+04  0.00000000000E+00 0. -1.
        -16    1    1    2    0    0  0.74906478202E+03  0.12883463023E+03 -0.61716983876E+03  0.97907865847E+03  0.00000000000E+00 0.  1.
         16    1    4    4    0    0 -0.15459119338E+03  0.14969796423E+03  0.15660650092E+02  0.21576184446E+03  0.00000000000E+00 0. -1.
    9900018    1    3    3    0    0 -0.66820451246E+03 -0.27205394785E+03  0.10705460439E+03  0.73504182720E+03  0.91187600000E+02 0.  0.
<mgrwt>
<rscale>  0 0.46964180E+04</rscale>
<asrwt>0</asrwt>
<pdfrwt beam="1">  1        2 0.41994619E+00 0.46964180E+04</pdfrwt>
<pdfrwt beam="2">  1       -2 0.31078005E+00 0.46964180E+04</pdfrwt>
<totfact> 0.51883377E-02</totfact>
</mgrwt>
</event>
<event>
11    1  0.1327293E-011  0.3735614E+04  0.7818608E-02  0.8060115E-01
         -2   -1    0    0    0  501 -0.00000000000E+00  0.00000000000E+00  0.21083427426E+04  0.21083427426E+04  0.00000000000E+00 0.  1.
          2   -1    0    0  501    0  0.00000000000E+00 -0.00000000000E+00 -0.16547136892E+04  0.16547136892E+04  0.00000000000E+00 0. -1.
    9900016    2    1    2    0    0  0.24561045392E+03 -0.96190428946E+03  0.73083566062E+02  0.20741249935E+04  0.18196342830E+04 0.  0.
        -24    2    3    3    0    0  0.33639336225E+03 -0.51564286473E+03 -0.32589631528E+03  0.70114209650E+03  0.79647806324E+02 0.  0.
        -15    1    1    2    0    0  0.16430496570E+03 -0.26788162185E+03  0.69337871073E+02  0.32181427166E+03  0.00000000000E+00 0.  1.
        -15    1    3    3    0    0  0.54098617561E+03 -0.34093592093E+02  0.75987263183E+02  0.54735955221E+03  0.00000000000E+00 0.  1.
         15    1    1    2    0    0 -0.25951065707E+03  0.41404724583E+03  0.20857113489E+03  0.53130294675E+03  0.00000000000E+00 0. -1.
         15    1    4    4    0    0  0.20448983959E+03 -0.24196577780E+03 -0.17507409783E+03  0.36195921297E+03  0.00000000000E+00 0. -1.
        -16    1    4    4    0    0  0.13190352266E+03 -0.27367708693E+03 -0.15082221745E+03  0.33918288353E+03  0.00000000000E+00 0.  1.
         16    1    1    2    0    0 -0.15040476255E+03  0.81573866547E+03  0.10263648142E+03  0.83581421994E+03  0.00000000000E+00 0. -1.
    9900018    1    3    3    0    0 -0.63176908394E+03 -0.41216783263E+03  0.32299261816E+03  0.82562334479E+03  0.91187600000E+02 0.  0.
<mgrwt>
<rscale>  0 0.37356143E+04</rscale>
<asrwt>0</asrwt>
<pdfrwt beam="1">  1        2 0.25457134E+00 0.37356143E+04</pdfrwt>
<pdfrwt beam="2">  1       -2 0.32436042E+00 0.37356143E+04</pdfrwt>
<totfact> 0.18847872E-01</totfact>
</mgrwt>
</event>
<event>
11    1  0.1327293E-011  0.2741557E+04  0.7818608E-02  0.8321646E-01
         -2   -1    0    0    0  501 -0.00000000000E+00  0.00000000000E+00  0.77827393841E+03  0.77827393841E+03  0.00000000000E+00 0.  1.
          2   -1    0    0  501    0  0.00000000000E+00 -0.00000000000E+00 -0.24143601827E+04  0.24143601827E+04  0.00000000000E+00 0. -1.
    9900016    2    1    2    0    0 -0.18511015141E+03 -0.24978562677E+03 -0.12488490352E+04  0.22462168208E+04  0.18409800287E+04 0.  0.
        -24    2    3    3    0    0  0.27743598235E+03 -0.63624227431E+03 -0.37413205224E+03  0.79279839943E+03  0.82338045403E+02 0.  0.
        -15    1    3    3    0    0 -0.69823884571E+03  0.47302056161E+03 -0.46154109912E+03  0.96140840622E+03  0.00000000000E+00 0.  1.
        -15    1    1    2    0    0 -0.17906624943E+03  0.30326221392E+03 -0.24757730913E+02  0.35305189040E+03  0.00000000000E+00 0.  1.
         15    1    4    4    0    0  0.21608798154E+02 -0.58340064881E+02 -0.88686051196E+01  0.62842306488E+02  0.00000000000E+00 0. -1.
         15    1    1    2    0    0  0.97219902413E+02 -0.13111746899E+03 -0.23837616882E+03  0.28890603656E+03  0.00000000000E+00 0. -1.
        -16    1    4    4    0    0  0.25582718419E+03 -0.57790220942E+03 -0.36526344712E+03  0.72995609295E+03  0.00000000000E+00 0.  1.
         16    1    1    2    0    0  0.26695649843E+03  0.77640881838E+02 -0.12410330937E+03  0.30445937328E+03  0.00000000000E+00 0. -1.
    9900018    1    3    3    0    0  0.23569271196E+03 -0.86563914077E+02 -0.41317588379E+03  0.49201001517E+03  0.91187600000E+02 0.  0.
<mgrwt>
<rscale>  0 0.27415569E+04</rscale>
<asrwt>0</asrwt>
<pdfrwt beam="1">  1        2 0.37144003E+00 0.27415569E+04</pdfrwt>
<pdfrwt beam="2">  1       -2 0.11973445E+00 0.27415569E+04</pdfrwt>
<totfact> 0.18206648E+00</totfact>
</mgrwt>
</event>
<event>
11    1  0.1327293E-011  0.2422171E+04  0.7818608E-02  0.8741711E-01
         -2   -1    0    0    0  501 -0.00000000000E+00  0.00000000000E+00  0.11537696980E+04  0.11537696980E+04  0.00000000000E+00 0. -1.
          2   -1    0    0  501    0  0.00000000000E+00 -0.00000000000E+00 -0.20871606470E+04  0.20871606470E+04  0.00000000000E+00 0.  1.
    9900016    2    1    2    0    0  0.18607756766E+03 -0.13459382467E+03 -0.87796933974E+03  0.20530709262E+04  0.18416106287E+04 0.  0.
        -24    2    3    3    0    0  0.83445382567E+03  0.39450502039E+03 -0.70616438189E+03  0.11645662776E+04  0.74827017216E+02 0.  0.
        -15    1    1    2    0    0 -0.30265086722E+03  0.34949292726E+03 -0.17334471244E+03  0.49375220806E+03  0.00000000000E+00 0.  1.
        -15    1    3    3    0    0 -0.22601995944E+03 -0.62641486081E+02 -0.68472945965E+02  0.24433076387E+03  0.00000000000E+00 0.  1.
         15    1    1    2    0    0 -0.48005459649E+02 -0.93212680609E+02 -0.25110599148E+03  0.27211642167E+03  0.00000000000E+00 0. -1.
         15    1    4    4    0    0  0.56414924483E+03  0.22968435226E+03 -0.47938265140E+03  0.77513031071E+03  0.00000000000E+00 0. -1.
        -16    1    4    4    0    0  0.27030458084E+03  0.16482066812E+03 -0.22678173049E+03  0.38943596694E+03  0.00000000000E+00 0.  1.
         16    1    1    2    0    0  0.16457875920E+03 -0.12168642198E+03  0.36902909474E+03  0.42199078905E+03  0.00000000000E+00 0. -1.
    9900018    1    3    3    0    0 -0.42235629856E+03 -0.46645735898E+03 -0.10333201189E+03  0.64417388472E+03  0.91187600000E+02 0.  0.
<mgrwt>
<rscale>  0 0.17348913E+04</rscale>
<asrwt>0</asrwt>
<pdfrwt beam="1">  1        2 0.32110164E+00 0.24221706E+04</pdfrwt>
<pdfrwt beam="2">  1       -2 0.17750303E+00 0.24221706E+04</pdfrwt>
<totfact> 0.99070787E-01</totfact>
</mgrwt>
</event>
