<event>
11    1  0.5397441E-011  0.3576246E+04  0.7818608E-02  0.8553833E-01
          2   -1    0    0  501    0  0.00000000000E+00  0.00000000000E+00  0.40767447367E+04  0.40767447367E+04  0.00000000000E+00 0. -1.
         -2   -1    0    0    0  501 -0.00000000000E+00 -0.00000000000E+00 -0.13183967741E+04  0.13183967741E+04  0.00000000000E+00 0.  1.
        -24    2    1    2    0    0  0.29480872851E+03 -0.31318967201E+03  0.15644181907E+04  0.16248624353E+04  0.88168595184E+02 0.  0.
    9900016    2    1    2    0    0  0.80920813808E+03  0.45833275457E+03  0.34353634182E+02  0.20219685475E+04  0.17950737896E+04 0.  0.
        -15    1    4    4    0    0  0.31128974661E+03 -0.12627190539E+03 -0.33058403988E+03  0.47130850604E+03  0.00000000000E+00 0.  1.
        -15    1    1    2    0    0 -0.11645686957E+04 -0.19330261978E+03  0.11045603022E+04  0.16166754811E+04  0.00000000000E+00 0.  1.
         15    1    3    3    0    0  0.15041557028E+02 -0.52812103875E+02  0.25289575438E+03  0.25878877359E+03  0.00000000000E+00 0. -1.
         15    1    4    4    0    0  0.27891106659E+03  0.76664556659E+03  0.72512665940E+03  0.10914877370E+04  0.00000000000E+00 0. -1.
        -16    1    3    3    0    0  0.27976717148E+03 -0.26037756814E+03  0.13115224363E+04  0.13660736617E+04  0.00000000000E+00 0.  1.
         16    1    4    4    0    0  0.21900732488E+03 -0.18204090663E+03 -0.36018898533E+03  0.45917230447E+03  0.00000000000E+00 0. -1.
    9900018    1    1    2    0    0  0.60551829124E+02  0.48159537227E+02  0.55015835482E+02  0.13163504694E+03  0.91187600000E+02 0.  0.
<mgrwt>
<rscale>  0 0.21169059E+04</rscale>
<asrwt>0</asrwt>
<pdfrwt beam="1">  1        2 0.62719149E+00 0.35762461E+04</pdfrwt>
<pdfrwt beam="2">  1       -2 0.20283028E+00 0.35762461E+04</pdfrwt>
<totfact> 0.29737095E-02</totfact>
</mgrwt>
</event>
<event>
11    1  0.5397441E-011  0.3101216E+04  0.7818608E-02  0.8399692E-01
          2   -1    0    0  501    0  0.00000000000E+00  0.00000000000E+00  0.34434036538E+04  0.34434036538E+04  0.00000000000E+00 0. -1.
         -2   -1    0    0    0  501 -0.00000000000E+00 -0.00000000000E+00 -0.18470814905E+04  0.18470814905E+04  0.00000000000E+00 0.  1.
        -24    2    1    2    0    0  0.25224977026E+03 -0.13025807856E+04  0.17356394298E+04  0.21861412588E+04  0.80141894144E+02 0.  0.
    9900016    2    1    2    0    0 -0.36489315698E+03  0.15973470494E+04  0.11895311618E+03  0.24306696715E+04  0.17914632556E+04 0.  0.
        -15    1    1    2    0    0  0.85318202292E+02 -0.41841935828E+03 -0.28765859951E+03  0.51488001020E+03  0.00000000000E+00 0.  1.
        -15    1    4    4    0    0 -0.66546429039E+03  0.11102889770E+04 -0.32598118874E+03  0.13348588201E+04  0.00000000000E+00 0.  1.
         15    1    4    4    0    0  0.48644820616E+03  0.37257599680E+02  0.34874600164E+03  0.59970305958E+03  0.00000000000E+00 0. -1.
         15    1    3    3    0    0  0.23676530328E+03 -0.11298131629E+04  0.14739208179E+04  0.18721586923E+04  0.00000000000E+00 0. -1.
        -16    1    3    3    0    0  0.15484466975E+02 -0.17276762277E+03  0.26171861196E+03  0.31398256646E+03  0.00000000000E+00 0.  1.
         16    1    4    4    0    0 -0.18587707275E+03  0.44980047270E+03  0.96188303288E+02  0.49610779182E+03  0.00000000000E+00 0. -1.
    9900018    1    1    2    0    0  0.27325184430E+02  0.12365309453E+03  0.29388216776E+02  0.15879420383E+03  0.91187600000E+02 0.  0.
<mgrwt>
<rscale>  0 0.25092652E+04</rscale>
<asrwt>0</asrwt>
<pdfrwt beam="1">  1        2 0.52975441E+00 0.31012162E+04</pdfrwt>
<pdfrwt beam="2">  1       -2 0.28416638E+00 0.31012162E+04</pdfrwt>
<totfact> 0.28411559E-02</totfact>
</mgrwt>
</event>
<event>
12    1  0.5397441E-011  0.4930574E+04  0.7818608E-02  0.7839307E-01
          2   -1    0    0  501    0  0.00000000000E+00  0.00000000000E+00  0.31665727528E+04  0.31665727528E+04  0.00000000000E+00 0. -1.
         -2   -1    0    0    0  501 -0.00000000000E+00 -0.00000000000E+00 -0.19193116133E+04  0.19193116133E+04  0.00000000000E+00 0.  1.
        -24    2    1    2    0    0  0.77223326817E+03  0.16659535380E+04  0.74382973101E+03  0.19828827241E+04  0.82436749942E+02 0.  0.
    9900016    2    1    2    0    0 -0.77592651261E+03 -0.14474687634E+04  0.84470945527E+03  0.25760334612E+04  0.17958804401E+04 0.  0.
         24    2    4    4    0    0 -0.53134228931E+03 -0.31851708321E+03  0.12115537655E+04  0.13640400262E+04  0.94683185773E+02 0.  0.
        -15    1    5    5    0    0 -0.53541828208E+03 -0.31452824729E+03  0.12015546064E+04  0.13525288268E+04  0.00000000000E+00 0.  1.
        -15    1    1    2    0    0  0.10149234482E+02 -0.14651679970E+03 -0.37754163432E+03  0.40510228980E+03  0.00000000000E+00 0.  1.
         15    1    3    3    0    0  0.18075850292E+03  0.44358985391E+03  0.22471894805E+03  0.52909753400E+03  0.00000000000E+00 0. -1.
         15    1    4    4    0    0 -0.24458422330E+03 -0.11289516801E+04 -0.36684431024E+03  0.12119934349E+04  0.00000000000E+00 0. -1.
        -16    1    3    3    0    0  0.59147476525E+03  0.12223636841E+04  0.51911078295E+03  0.14537851901E+04  0.00000000000E+00 0.  1.
         16    1    5    5    0    0  0.40759927761E+01 -0.39888359233E+01  0.99991590825E+01  0.11511199394E+02  0.00000000000E+00 0. -1.
    9900018    1    1    2    0    0 -0.64559900440E+01 -0.71967974931E+02  0.36263587587E+02  0.12186589105E+03  0.91187600000E+02 0.  0.
<mgrwt>
<rscale>  0 0.49305739E+04</rscale>
<asrwt>0</asrwt>
<pdfrwt beam="1">  1        2 0.48716504E+00 0.49305739E+04</pdfrwt>
<pdfrwt beam="2">  1       -2 0.29527871E+00 0.49305739E+04</pdfrwt>
<totfact> 0.33873871E-02</totfact>
</mgrwt>
</event>
<event>
11    1  0.5397441E-011  0.4020891E+04  0.7818608E-02  0.8434719E-01
          2   -1    0    0  501    0  0.00000000000E+00  0.00000000000E+00  0.25137682364E+04  0.25137682364E+04  0.00000000000E+00 0. -1.
         -2   -1    0    0    0  501 -0.00000000000E+00 -0.00000000000E+00 -0.23443584273E+04  0.23443584273E+04  0.00000000000E+00 0.  1.
         24    2    1    2    0    0 -0.30502150119E+03 -0.41500624249E+03 -0.56710529212E+03  0.77033762009E+03  0.80890908545E+02 0.  0.
    9900016    2    1    2    0    0  0.90817127625E+03 -0.97558167586E+03  0.52425119602E+03  0.22911686892E+04  0.17883176375E+04 0.  0.
        -15    1    3    3    0    0 -0.19409091909E+03 -0.32291635112E+03 -0.42384637881E+03  0.56709082829E+03  0.00000000000E+00 0.  1.
        -15    1    4    4    0    0  0.35110661846E+03 -0.14511997308E+04  0.28899091444E+03  0.15207801501E+04  0.00000000000E+00 0.  1.
         15    1    1    2    0    0 -0.64438593649E+03  0.14897402607E+04  0.11862707539E+03  0.16274617238E+04  0.00000000000E+00 0. -1.
         15    1    4    4    0    0  0.39621021115E+02  0.45585232137E+02  0.26290602861E+02  0.65871348112E+02  0.00000000000E+00 0. -1.
        -16    1    4    4    0    0  0.51744363667E+03  0.43003282281E+03  0.20896967872E+03  0.70451719103E+03  0.00000000000E+00 0.  1.
         16    1    3    3    0    0 -0.11093058210E+03 -0.92089891372E+02 -0.14325891330E+03  0.20324679180E+03  0.00000000000E+00 0. -1.
    9900018    1    1    2    0    0  0.41236161428E+02 -0.99152342323E+02  0.93636829838E+02  0.16915863056E+03  0.91187600000E+02 0.  0.
<mgrwt>
<rscale>  0 0.24128220E+04</rscale>
<asrwt>0</asrwt>
<pdfrwt beam="1">  1        2 0.38673358E+00 0.40208910E+04</pdfrwt>
<pdfrwt beam="2">  1       -2 0.36067052E+00 0.40208910E+04</pdfrwt>
<totfact> 0.34805715E-02</totfact>
</mgrwt>
</event>
<event>
11    1  0.5397441E-011  0.5031384E+04  0.7818608E-02  0.7823684E-01
         -2   -1    0    0    0  501 -0.00000000000E+00  0.00000000000E+00  0.17835489846E+04  0.17835489846E+04  0.00000000000E+00 0. -1.
          2   -1    0    0  501    0  0.00000000000E+00 -0.00000000000E+00 -0.35483779517E+04  0.35483779517E+04  0.00000000000E+00 0.  1.
        -24    2    1    2    0    0  0.14208045337E+04 -0.89566468555E+03 -0.20733378873E+03  0.16941672102E+04  0.79463728293E+02 0.  0.
    9900016    2    1    2    0    0 -0.11341517515E+04  0.11025891698E+04 -0.19251079404E+04  0.31277335479E+04  0.18906806953E+04 0.  0.
        -15    1    4    4    0    0 -0.14075025501E+04  0.62669615671E+03 -0.15888802598E+04  0.22132220813E+04  0.00000000000E+00 0.  1.
        -15    1    1    2    0    0 -0.28665278219E+03 -0.20692448423E+03  0.36761276198E+03  0.51002617823E+03  0.00000000000E+00 0.  1.
         15    1    3    3    0    0  0.77486749181E+03 -0.45487289435E+03 -0.83010371619E+02  0.90234123350E+03  0.00000000000E+00 0. -1.
         15    1    4    4    0    0  0.44607967577E+03  0.39608041274E+03 -0.16345632526E+03  0.61853434890E+03  0.00000000000E+00 0. -1.
        -16    1    3    3    0    0  0.64593704192E+03 -0.44079179120E+03 -0.12432341711E+03  0.79182597669E+03  0.00000000000E+00 0.  1.
         16    1    4    4    0    0 -0.10903387972E+03  0.14528225070E+02 -0.95194919123E+02  0.14547002742E+03  0.00000000000E+00 0. -1.
    9900018    1    4    4    0    0 -0.63694997543E+02  0.65284375261E+02 -0.77576436205E+02  0.15050709024E+03  0.91187600000E+02 0.  0.
<mgrwt>
<rscale>  0 0.50313839E+04</rscale>
<asrwt>0</asrwt>
<pdfrwt beam="1">  1        2 0.54590430E+00 0.50313839E+04</pdfrwt>
<pdfrwt beam="2">  1       -2 0.27439215E+00 0.50313839E+04</pdfrwt>
<totfact> 0.24814826E-02</totfact>
</mgrwt>
</event>
<event>
12    1  0.5397441E-011  0.3471760E+04  0.7818608E-02  0.8394320E-01
          2   -1    0    0  501    0  0.00000000000E+00  0.00000000000E+00  0.32932654339E+04  0.32932654339E+04  0.00000000000E+00 0. -1.
         -2   -1    0    0    0  501 -0.00000000000E+00 -0.00000000000E+00 -0.15311733616E+04  0.15311733616E+04  0.00000000000E+00 0.  1.
        -24    2    1    2    0    0 -0.44715512556E+03 -0.85804053235E+03  0.10119012192E+03  0.97583997798E+03  0.76439259434E+02 0.  0.
    9900016    2    1    2    0    0  0.10264108369E+04 -0.15065007678E+03  0.13596156640E+04  0.24854241411E+04  0.18034865555E+04 0.  0.
         24    2    4    4    0    0  0.18887913268E+02  0.47518432020E+03  0.11958642341E+04  0.12880997637E+04  0.54340070491E+02 0.  0.
        -15    1    5    5    0    0  0.22232324446E+02  0.20916758300E+03  0.59092376531E+03  0.62724496844E+03  0.00000000000E+00 0.  1.
        -15    1    1    2    0    0 -0.64606437231E+03  0.10117587192E+04  0.21183028642E+03  0.12189860333E+04  0.00000000000E+00 0.  1.
         15    1    3    3    0    0 -0.25675130337E+03 -0.49541402607E+03  0.96261450032E+02  0.56623542433E+03  0.00000000000E+00 0. -1.
         15    1    4    4    0    0  0.10075229236E+04 -0.62583439699E+03  0.16375142986E+03  0.11973243774E+04  0.00000000000E+00 0. -1.
        -16    1    3    3    0    0 -0.19040382220E+03 -0.36262650628E+03  0.49286718836E+01  0.40960455365E+03  0.00000000000E+00 0.  1.
         16    1    5    5    0    0 -0.33444111771E+01  0.26601673721E+03  0.60494046880E+03  0.66085479522E+03  0.00000000000E+00 0. -1.
    9900018    1    1    2    0    0  0.66808661008E+02 -0.30681100753E+01  0.89455999950E+02  0.14418864312E+03  0.91187600000E+02 0.  0.
<mgrwt>
<rscale>  0 0.25244689E+04</rscale>
<asrwt>0</asrwt>
<pdfrwt beam="1">  1        2 0.50665622E+00 0.34717600E+04</pdfrwt>
<pdfrwt beam="2">  1       -2 0.23556513E+00 0.34717600E+04</pdfrwt>
<totfact> 0.70730738E-02</totfact>
</mgrwt>
</event>
<event>
12    1  0.5397441E-011  0.3186939E+04  0.7818608E-02  0.8634585E-01
          2   -1    0    0  501    0  0.00000000000E+00  0.00000000000E+00  0.21606735178E+04  0.21606735178E+04  0.00000000000E+00 0. -1.
         -2   -1    0    0    0  501 -0.00000000000E+00 -0.00000000000E+00 -0.15711409719E+04  0.15711409719E+04  0.00000000000E+00 0.  1.
         24    2    1    2    0    0  0.37797293724E+03  0.20566979243E+03 -0.14357058347E+03  0.46164314179E+03  0.85663721181E+02 0.  0.
    9900016    2    1    2    0    0  0.72895542440E+03 -0.16543328790E+03  0.22741464866E+03  0.20525383105E+04  0.18980126212E+04 0.  0.
        -24    2    4    4    0    0  0.17541436862E+03  0.24871282649E+03 -0.73913519187E+03  0.80542836036E+03  0.98821764016E+02 0.  0.
        -15    1    3    3    0    0  0.26491313085E+03  0.15917172925E+03 -0.63511155454E+02  0.31551271472E+03  0.00000000000E+00 0.  1.
        -15    1    4    4    0    0  0.50540942257E+03 -0.43819721311E+03  0.90248206631E+03  0.11233562934E+04  0.00000000000E+00 0.  1.
         15    1    5    5    0    0  0.57418806456E+02  0.58274259081E+02 -0.10648335728E+03  0.13428147297E+03  0.00000000000E+00 0. -1.
         15    1    1    2    0    0 -0.11069283616E+04 -0.40236504525E+02  0.50568848078E+03  0.12176330374E+04  0.00000000000E+00 0. -1.
        -16    1    5    5    0    0  0.11799556216E+03  0.19043856741E+03 -0.63265183459E+03  0.67114688739E+03  0.00000000000E+00 0.  1.
         16    1    3    3    0    0  0.11305980639E+03  0.46498063179E+02 -0.80059428020E+02  0.14613042707E+03  0.00000000000E+00 0. -1.
    9900018    1    4    4    0    0  0.48131633218E+02  0.24051098717E+02  0.64067774213E+02  0.12375365672E+03  0.91187600000E+02 0.  0.
<mgrwt>
<rscale>  0 0.19412646E+04</rscale>
<asrwt>0</asrwt>
<pdfrwt beam="1">  1        2 0.33241131E+00 0.31869390E+04</pdfrwt>
<pdfrwt beam="2">  1       -2 0.24171400E+00 0.31869390E+04</pdfrwt>
<totfact> 0.32535547E-01</totfact>
</mgrwt>
</event>
<event>
12    1  0.5397441E-011  0.4291697E+04  0.7818608E-02  0.8441014E-01
         -2   -1    0    0    0  501 -0.00000000000E+00  0.00000000000E+00  0.16263469142E+04  0.16263469142E+04  0.00000000000E+00 0.  1.
          2   -1    0    0  501    0  0.00000000000E+00 -0.00000000000E+00 -0.34776085212E+04  0.34776085212E+04  0.00000000000E+00 0. -1.
         24    2    1    2    0    0  0.40397891967E+03  0.63060754853E+02  0.30118052654E+02  0.41799233104E+03  0.81454682940E+02 0.  0.
    9900016    2    1    2    0    0  0.12808661653E+04  0.19831932282E+03 -0.20194166358E+03  0.22927363102E+04  0.18804017298E+04 0.  0.
        -24    2    4    4    0    0  0.15396802687E+04 -0.49199601340E+02 -0.53914218325E+03  0.16347361722E+04  0.93016816594E+02 0.  0.
        -15    1    3    3    0    0  0.24488097025E+03  0.69959443082E+02  0.42763715658E+02  0.25824358394E+03  0.00000000000E+00 0.  1.
        -15    1    4    4    0    0 -0.34011007072E+03  0.22920915342E+03  0.34252709620E+03  0.53435616198E+03  0.00000000000E+00 0.  1.
         15    1    5    5    0    0  0.77645329213E+03 -0.70948998112E+02 -0.26601355310E+03  0.82381835718E+03  0.00000000000E+00 0. -1.
         15    1    1    2    0    0 -0.16848450850E+04 -0.26138007767E+03 -0.16794379961E+04  0.23932267941E+04  0.00000000000E+00 0. -1.
        -16    1    5    5    0    0  0.76322697658E+03  0.21749396772E+02 -0.27312863015E+03  0.81091781497E+03  0.00000000000E+00 0.  1.
         16    1    3    3    0    0  0.15909794942E+03 -0.68986882293E+01 -0.12645663004E+02  0.15974874710E+03  0.00000000000E+00 0. -1.
    9900018    1    4    4    0    0  0.81295967358E+02  0.18309770740E+02 -0.53265765338E+01  0.12364397609E+03  0.91187600000E+02 0.  0.
<mgrwt>
<rscale>  0 0.23959697E+04</rscale>
<asrwt>0</asrwt>
<pdfrwt beam="1">  1        2 0.53501669E+00 0.42916967E+04</pdfrwt>
<pdfrwt beam="2">  1       -2 0.25020722E+00 0.42916967E+04</pdfrwt>
<totfact> 0.40857999E-02</totfact>
</mgrwt>
</event>
