<event>
12    1  0.2644928E-008  0.5285780E+04  0.7818608E-02  0.8345997E-01
          1   -1    0    0  501    0  0.00000000000E+00  0.00000000000E+00  0.29153865052E+04  0.29153865052E+04  0.00000000000E+00 0. -1.
         -1   -1    0    0    0  501 -0.00000000000E+00 -0.00000000000E+00 -0.27748091871E+04  0.27748091871E+04  0.00000000000E+00 0.  1.
    9900016    2    1    2    0    0  0.11009553158E+04  0.23439157012E+03 -0.46801429604E+03  0.22177190980E+04  0.18526193891E+04 0.  0.
         24    2    3    3    0    0  0.13608077263E+04  0.23561573951E+03 -0.94444681326E+03  0.16750288390E+04  0.80183437899E+02 0.  0.
         23    2    1    2    0    0 -0.18966536980E+03 -0.26957576521E+03  0.21445332200E+03  0.40389916483E+03  0.92196867306E+02 0.  0.
        -15    1    5    5    0    0  0.16885891393E+00 -0.54262699485E+02  0.45536540683E+02  0.70838164898E+02  0.00000000000E+00 0.  1.
        -15    1    4    4    0    0  0.71401417899E+03  0.12676873741E+03 -0.44749907140E+03  0.85213964788E+03  0.00000000000E+00 0.  1.
         15    1    3    3    0    0 -0.25985241044E+03 -0.12241693923E+01  0.47643251722E+03  0.54269025905E+03  0.00000000000E+00 0. -1.
         15    1    5    5    0    0 -0.18983422871E+03 -0.21531306573E+03  0.16891678131E+03  0.33306099993E+03  0.00000000000E+00 0. -1.
        -16    1    1    2    0    0  0.78508770562E+03  0.71075997838E+03 -0.31923810439E+03  0.11060991907E+04  0.00000000000E+00 0.  1.
         16    1    4    4    0    0  0.64679354727E+03  0.10884700210E+03 -0.49694774186E+03  0.82288919108E+03  0.00000000000E+00 0. -1.
    9900018    1    1    2    0    0 -0.16963776516E+04 -0.67557578329E+03  0.71337639658E+03  0.19624782387E+04  0.91187600000E+02 0.  0.
<mgrwt>
<rscale>  0 0.26663796E+04</rscale>
<asrwt>0</asrwt>
<pdfrwt beam="1">  1        1 0.44852100E+00 0.52857803E+04</pdfrwt>
<pdfrwt beam="2">  1       -1 0.42689372E+00 0.52857803E+04</pdfrwt>
<totfact> 0.22432560E-03</totfact>
</mgrwt>
</event>
<event>
13    1  0.2644928E-008  0.4404119E+04  0.7818608E-02  0.7927641E-01
         -2   -1    0    0    0  501 -0.00000000000E+00  0.00000000000E+00  0.18708688287E+04  0.18708688287E+04  0.00000000000E+00 0.  1.
          2   -1    0    0  501    0  0.00000000000E+00 -0.00000000000E+00 -0.25918792603E+04  0.25918792603E+04  0.00000000000E+00 0. -1.
    9900016    2    1    2    0    0 -0.33366940146E+03 -0.92764321724E+03 -0.93790037364E+02  0.20959109092E+04  0.18472110762E+04 0.  0.
        -24    2    3    3    0    0  0.14410201966E+03 -0.57952319539E+03 -0.90805629613E+03  0.10896889552E+04  0.79014278268E+02 0.  0.
    9900016    2    1    2    0    0  0.31180807536E+03  0.49270270243E+03 -0.42051012081E+03  0.18762299187E+04  0.17330405989E+04 0.  0.
         23    2    5    5    0    0  0.16118136964E+03  0.25978375535E+03  0.67464009329E+03  0.74649825509E+03  0.93023415966E+02 0.  0.
        -15    1    3    3    0    0 -0.47777142112E+03 -0.34812002185E+03  0.81426625877E+03  0.10062219540E+04  0.00000000000E+00 0.  1.
        -15    1    6    6    0    0  0.10720245802E+03  0.86942862025E+02  0.27206310701E+03  0.30507337225E+03  0.00000000000E+00 0. -1.
         15    1    6    6    0    0  0.53978911615E+02  0.17284089333E+03  0.40257698629E+03  0.44142488284E+03  0.00000000000E+00 0.  1.
         15    1    4    4    0    0  0.43567181055E+02 -0.29188539226E+03 -0.39671292942E+03  0.49444547713E+03  0.00000000000E+00 0. -1.
        -16    1    4    4    0    0  0.10053483861E+03 -0.28763780312E+03 -0.51134336671E+03  0.59524347811E+03  0.00000000000E+00 0.  1.
         16    1    5    5    0    0  0.15062670572E+03  0.23291894708E+03 -0.10951502141E+04  0.11297316636E+04  0.00000000000E+00 0. -1.
    9900018    1    1    2    0    0  0.21861326097E+02  0.43494051481E+03 -0.20671027342E+03  0.49060726099E+03  0.91187600000E+02 0.  0.
<mgrwt>
<rscale>  0 0.44041190E+04</rscale>
<asrwt>0</asrwt>
<pdfrwt beam="1">  1        2 0.39875066E+00 0.44041190E+04</pdfrwt>
<pdfrwt beam="2">  1       -2 0.28782597E+00 0.44041190E+04</pdfrwt>
<totfact> 0.88632630E-02</totfact>
</mgrwt>
</event>
<event>
13    1  0.2644928E-008  0.5184658E+04  0.7818608E-02  0.7800637E-01
          1   -1    0    0  501    0  0.00000000000E+00  0.00000000000E+00  0.29185456374E+04  0.29185456374E+04  0.00000000000E+00 0. -1.
         -1   -1    0    0    0  501 -0.00000000000E+00 -0.00000000000E+00 -0.23025750771E+04  0.23025750771E+04  0.00000000000E+00 0.  1.
    9900016    2    1    2    0    0 -0.12482310650E+04 -0.83634248534E+03  0.61632386095E+03  0.24664668600E+04  0.18563550644E+04 0.  0.
         24    2    3    3    0    0  0.30018652958E+03 -0.31059526247E+03  0.70312898575E+03  0.82892531258E+03  0.78392816129E+02 0.  0.
    9900016    2    1    2    0    0  0.88388980105E+03  0.20381527841E+03 -0.23743651889E+03  0.19817639174E+04  0.17459124478E+04 0.  0.
         23    2    5    5    0    0 -0.37136247401E+03 -0.41400194526E+03 -0.13236808822E+03  0.57876863189E+03  0.90244782074E+02 0.  0.
        -15    1    4    4    0    0  0.21414392608E+03 -0.17481116993E+03  0.40744611211E+03  0.49237069417E+03  0.00000000000E+00 0.  1.
        -15    1    6    6    0    0 -0.43932446652E+02 -0.80982292755E+02 -0.49032496928E+02  0.10436655290E+03  0.00000000000E+00 0. -1.
         15    1    3    3    0    0 -0.15484175946E+04 -0.52574722288E+03 -0.86805124800E+02  0.16375415474E+04  0.00000000000E+00 0. -1.
         15    1    6    6    0    0 -0.32743002736E+03 -0.33301965251E+03 -0.83335591291E+02  0.47440207899E+03  0.00000000000E+00 0.  1.
        -16    1    5    5    0    0  0.12552522751E+04  0.61781722368E+03 -0.10506843067E+03  0.14029952855E+04  0.00000000000E+00 0.  1.
         16    1    4    4    0    0  0.86042603500E+02 -0.13578409254E+03  0.29568287364E+03  0.33655461840E+03  0.00000000000E+00 0. -1.
    9900018    1    1    2    0    0  0.36434126400E+03  0.63252720693E+03  0.23708321832E+03  0.77288993716E+03  0.91187600000E+02 0.  0.
<mgrwt>
<rscale>  0 0.51846583E+04</rscale>
<asrwt>0</asrwt>
<pdfrwt beam="1">  1        1 0.44900702E+00 0.51846583E+04</pdfrwt>
<pdfrwt beam="2">  1       -1 0.35424232E+00 0.51846583E+04</pdfrwt>
<totfact> 0.70981528E-03</totfact>
</mgrwt>
</event>
<event>
12    1  0.2644928E-008  0.5144361E+04  0.7818608E-02  0.8437980E-01
         -2   -1    0    0    0  501 -0.00000000000E+00  0.00000000000E+00  0.20733382859E+04  0.20733382859E+04  0.00000000000E+00 0.  1.
          2   -1    0    0  501    0  0.00000000000E+00 -0.00000000000E+00 -0.35424683432E+04  0.35424683432E+04  0.00000000000E+00 0. -1.
    9900016    2    1    2    0    0  0.99972362132E+03  0.64072178390E+03 -0.46344039430E+03  0.22390920104E+04  0.18408650979E+04 0.  0.
        -24    2    3    3    0    0  0.90560689387E+03  0.12646756780E+04 -0.28508055794E+03  0.15833568111E+04  0.78863490041E+02 0.  0.
         23    2    1    2    0    0  0.22546601847E+03  0.32260007591E+02  0.52934505103E+02  0.25100155771E+03  0.91236432236E+02 0.  0.
        -15    1    3    3    0    0  0.94116727447E+02 -0.62395389411E+03 -0.17835983636E+03  0.65573519929E+03  0.00000000000E+00 0.  1.
        -15    1    5    5    0    0  0.17315490844E+03 -0.14454924308E+02  0.25164144334E+02  0.17556993283E+03  0.00000000000E+00 0. -1.
         15    1    5    5    0    0  0.52311110035E+02  0.46714931899E+02  0.27770360769E+02  0.75431624884E+02  0.00000000000E+00 0.  1.
         15    1    4    4    0    0  0.65798478418E+03  0.94057843146E+03 -0.17734260140E+03  0.11614999613E+04  0.00000000000E+00 0. -1.
        -16    1    4    4    0    0  0.24762210969E+03  0.32409724655E+03 -0.10773795654E+03  0.42185684979E+03  0.00000000000E+00 0.  1.
         16    1    1    2    0    0 -0.14835380318E+04 -0.13988151575E+04 -0.11558383439E+04  0.23438283244E+04  0.00000000000E+00 0. -1.
    9900018    1    1    2    0    0  0.25834839205E+03  0.72583336606E+03  0.97214175717E+02  0.78188473659E+03  0.91187600000E+02 0.  0.
<mgrwt>
<rscale>  0 0.24040744E+04</rscale>
<asrwt>0</asrwt>
<pdfrwt beam="1">  1        2 0.54499513E+00 0.51443613E+04</pdfrwt>
<pdfrwt beam="2">  1       -2 0.31897512E+00 0.51443613E+04</pdfrwt>
<totfact> 0.13106424E-02</totfact>
</mgrwt>
</event>
<event>
13    1  0.2644928E-008  0.4693285E+04  0.7818608E-02  0.7877645E-01
         -2   -1    0    0    0  501 -0.00000000000E+00  0.00000000000E+00  0.20552082273E+04  0.20552082273E+04  0.00000000000E+00 0. -1.
          2   -1    0    0  501    0  0.00000000000E+00 -0.00000000000E+00 -0.26794030493E+04  0.26794030493E+04  0.00000000000E+00 0.  1.
    9900016    2    1    2    0    0  0.19990797023E+03  0.39472486128E+03 -0.13576864748E+04  0.23379005071E+04  0.18511335188E+04 0.  0.
         24    2    3    3    0    0  0.60364204699E+03 -0.19339186898E+03  0.16159430273E+03  0.65947964984E+03  0.83764873288E+02 0.  0.
    9900016    2    1    2    0    0 -0.41826381487E+03  0.23794950888E+02  0.59557296145E+03  0.18965359483E+04  0.17511797830E+04 0.  0.
         23    2    5    5    0    0  0.26196744425E+03 -0.39329589809E+02 -0.51859438107E+03  0.58960513885E+03  0.92305629288E+02 0.  0.
        -15    1    4    4    0    0  0.26029903953E+03 -0.95150944641E+02  0.29497050830E+02  0.27871018685E+03  0.00000000000E+00 0.  1.
        -15    1    6    6    0    0  0.81223890613E+02 -0.46803750652E+02 -0.23751234815E+03  0.25534295958E+03  0.00000000000E+00 0.  1.
         15    1    3    3    0    0 -0.40373407676E+03  0.58811673026E+03 -0.15192807775E+04  0.16784208572E+04  0.00000000000E+00 0. -1.
         15    1    6    6    0    0  0.18074355364E+03  0.74741608427E+01 -0.28108203292E+03  0.33426217927E+03  0.00000000000E+00 0. -1.
        -16    1    5    5    0    0 -0.68023125912E+03  0.63124540697E+02  0.11141673425E+04  0.13069308094E+04  0.00000000000E+00 0.  1.
         16    1    4    4    0    0  0.34334300746E+03 -0.98240924342E+02  0.13209725190E+03  0.38076946299E+03  0.00000000000E+00 0. -1.
    9900018    1    1    2    0    0  0.21835584464E+03 -0.41851981216E+03  0.13791869128E+03  0.50017482130E+03  0.91187600000E+02 0.  0.
<mgrwt>
<rscale>  0 0.46932851E+04</rscale>
<asrwt>0</asrwt>
<pdfrwt beam="1">  1        2 0.41221586E+00 0.46932851E+04</pdfrwt>
<pdfrwt beam="2">  1       -2 0.31618588E+00 0.46932851E+04</pdfrwt>
<totfact> 0.51504007E-02</totfact>
</mgrwt>
</event>
<event>
13    1  0.2644928E-008  0.4760600E+04  0.7818608E-02  0.7866537E-01
         -2   -1    0    0    0  501 -0.00000000000E+00  0.00000000000E+00  0.18468902667E+04  0.18468902667E+04  0.00000000000E+00 0.  1.
          2   -1    0    0  501    0  0.00000000000E+00 -0.00000000000E+00 -0.30677663292E+04  0.30677663292E+04  0.00000000000E+00 0. -1.
    9900016    2    1    2    0    0 -0.72367069195E+03  0.14545469675E+03 -0.14376516509E+04  0.24525804995E+04  0.18448448438E+04 0.  0.
         24    2    3    3    0    0 -0.24469832704E+03  0.19880217013E+03  0.42123467150E+03  0.53223708252E+03  0.80237705854E+02 0.  0.
    9900016    2    1    2    0    0  0.94243093048E+03 -0.19668627215E+03 -0.18930018502E+03  0.19891136999E+04  0.17302824055E+04 0.  0.
         23    2    5    5    0    0  0.33033208230E+03  0.64431059738E+02  0.75626257090E+03  0.83285413290E+03  0.91881905139E+02 0.  0.
        -15    1    4    4    0    0 -0.36818567668E+02  0.73967630052E+02  0.98669461111E+02  0.12869529819E+03  0.00000000000E+00 0.  1.
        -15    1    6    6    0    0  0.12545192426E+03  0.51598495065E+02  0.39095544361E+03  0.41381970577E+03  0.00000000000E+00 0. -1.
         15    1    3    3    0    0 -0.47897236491E+03 -0.53347473380E+02 -0.18588863224E+04  0.19203434169E+04  0.00000000000E+00 0. -1.
         15    1    6    6    0    0  0.20488015804E+03  0.12832564673E+02  0.36530712728E+03  0.41903442713E+03  0.00000000000E+00 0.  1.
        -16    1    5    5    0    0  0.61209884818E+03 -0.26111733189E+03 -0.94556275592E+03  0.11562595670E+04  0.00000000000E+00 0.  1.
         16    1    4    4    0    0 -0.20787975937E+03  0.12483454007E+03  0.32256521039E+03  0.40354178433E+03  0.00000000000E+00 0. -1.
    9900018    1    1    2    0    0 -0.21876023853E+03  0.51231575401E+02  0.40607577347E+03  0.47296239647E+03  0.91187600000E+02 0.  0.
<mgrwt>
<rscale>  0 0.47605999E+04</rscale>
<asrwt>0</asrwt>
<pdfrwt beam="1">  1        2 0.47196405E+00 0.47605999E+04</pdfrwt>
<pdfrwt beam="2">  1       -2 0.28413697E+00 0.47605999E+04</pdfrwt>
<totfact> 0.46486880E-02</totfact>
</mgrwt>
</event>
