<event>
11    1  0.6918847E-015  0.3047292E+04  0.7818608E-02  0.8402060E-01
          1   -1    0    0  501    0  0.00000000000E+00  0.00000000000E+00  0.21656135767E+04  0.21656135767E+04  0.00000000000E+00 0. -1.
         -1   -1    0    0    0  501 -0.00000000000E+00 -0.00000000000E+00 -0.23947724780E+04  0.23947724780E+04  0.00000000000E+00 0.  1.
    9900016    2    1    2    0    0  0.25562631936E+03 -0.61533774762E+02 -0.20381507545E+03  0.20016510740E+04  0.19738123559E+04 0.  0.
        -24    2    3    3    0    0 -0.20266866594E+03  0.88757367410E+03 -0.24388760660E+03  0.94692596726E+03  0.91246960043E+02 0.  0.
        -15    1    3    3    0    0  0.45829498530E+03 -0.94910744886E+03  0.40072531147E+02  0.10547251067E+04  0.00000000000E+00 0.  1.
        -15    1    1    2    0    0 -0.11045945046E+04 -0.29087254075E+02 -0.24223370902E+03  0.11312171577E+04  0.00000000000E+00 0.  1.
         15    1    1    2    0    0  0.96714449348E+02  0.14806103204E+03 -0.31807841766E+03  0.36393630446E+03  0.00000000000E+00 0. -1.
         15    1    4    4    0    0 -0.54743532975E+02  0.24937669854E+03 -0.26512864112E+02  0.25668760029E+03  0.00000000000E+00 0. -1.
        -16    1    4    4    0    0 -0.14792513296E+03  0.63819697556E+03 -0.21737474249E+03  0.69023836697E+03  0.00000000000E+00 0.  1.
         16    1    1    2    0    0  0.74315806019E+03 -0.42439852060E+02  0.59505048770E+03  0.95297960439E+03  0.00000000000E+00 0. -1.
    9900018    1    1    2    0    0  0.90956757479E+01 -0.15000151144E+02 -0.60082186915E+02  0.11060191422E+03  0.91187600000E+02 0.  0.
<mgrwt>
<rscale>  0 0.25026007E+04</rscale>
<asrwt>0</asrwt>
<pdfrwt beam="1">  1        1 0.33317132E+00 0.30472920E+04</pdfrwt>
<pdfrwt beam="2">  1       -1 0.36842654E+00 0.30472920E+04</pdfrwt>
<totfact> 0.21856275E-02</totfact>
</mgrwt>
</event>
<event>
11    1  0.6918846E-015  0.4195664E+04  0.7818608E-02  0.8357820E-01
          2   -1    0    0  501    0  0.00000000000E+00  0.00000000000E+00  0.23773697835E+04  0.23773697835E+04  0.00000000000E+00 0. -1.
         -2   -1    0    0    0  501 -0.00000000000E+00 -0.00000000000E+00 -0.26877406051E+04  0.26877406051E+04  0.00000000000E+00 0.  1.
    9900016    2    1    2    0    0 -0.70358882260E+03 -0.63146799516E+03  0.86599554852E+03  0.24287920994E+04  0.20628363269E+04 0.  0.
         24    2    3    3    0    0 -0.93914490387E+03 -0.12841441669E+03  0.12839119349E+04  0.15973123205E+04  0.67032674792E+02 0.  0.
        -15    1    4    4    0    0 -0.66847555997E+03 -0.96810986221E+02  0.96373322442E+03  0.11768660371E+04  0.00000000000E+00 0.  1.
        -15    1    1    2    0    0  0.21730772274E+03  0.74279726162E+02  0.13695678895E+03  0.26738976443E+03  0.00000000000E+00 0.  1.
         15    1    3    3    0    0  0.27641433348E+03 -0.43108386913E+03 -0.47250678000E+03  0.69677890549E+03  0.00000000000E+00 0. -1.
         15    1    1    2    0    0 -0.29656929218E+03  0.29322304135E+03  0.32854784749E+03  0.53092069572E+03  0.00000000000E+00 0. -1.
        -16    1    1    2    0    0  0.78285039204E+03  0.26396522765E+03 -0.16418710066E+04  0.18380078292E+04  0.00000000000E+00 0.  1.
         16    1    4    4    0    0 -0.27066934390E+03 -0.31603430474E+02  0.32017871052E+03  0.42044628339E+03  0.00000000000E+00 0. -1.
    9900018    1    3    3    0    0 -0.40858252208E+02 -0.71969709334E+02  0.54590393581E+02  0.13470087342E+03  0.91187600000E+02 0.  0.
<mgrwt>
<rscale>  0 0.26307820E+04</rscale>
<asrwt>0</asrwt>
<pdfrwt beam="1">  1        2 0.36574920E+00 0.41956643E+04</pdfrwt>
<pdfrwt beam="2">  1       -2 0.41349855E+00 0.41956643E+04</pdfrwt>
<totfact> 0.18686187E-02</totfact>
</mgrwt>
</event>
<event>
11    1  0.6918846E-015  0.3370947E+04  0.7818608E-02  0.8427355E-01
         -2   -1    0    0    0  501 -0.00000000000E+00  0.00000000000E+00  0.16764435335E+04  0.16764435335E+04  0.00000000000E+00 0.  1.
          2   -1    0    0  501    0  0.00000000000E+00 -0.00000000000E+00 -0.34314544368E+04  0.34314544368E+04  0.00000000000E+00 0. -1.
    9900016    2    1    2    0    0 -0.13488678630E+03 -0.60978731712E+03 -0.11434955878E+04  0.23667587204E+04  0.19758364467E+04 0.  0.
        -24    2    3    3    0    0  0.24062837162E+03  0.60299745066E+03 -0.83037832785E+03  0.10591269124E+04  0.10350705549E+03 0.  0.
        -15    1    3    3    0    0 -0.37551515792E+03 -0.12127847678E+04 -0.31311725991E+03  0.13076318080E+04  0.00000000000E+00 0.  1.
        -15    1    1    2    0    0 -0.24734152716E+03 -0.55020065153E+03  0.50039374420E+03  0.78376813359E+03  0.00000000000E+00 0.  1.
         15    1    4    4    0    0  0.13708305831E+03  0.39612524949E+03 -0.45911190657E+03  0.62168377887E+03  0.00000000000E+00 0. -1.
         15    1    1    2    0    0  0.26289467370E+03  0.12538646030E+00  0.93257370204E+01  0.26306005883E+03  0.00000000000E+00 0. -1.
        -16    1    4    4    0    0  0.10354531331E+03  0.20687220118E+03 -0.37126642129E+03  0.43744313356E+03  0.00000000000E+00 0.  1.
         16    1    1    2    0    0  0.10374045710E+03  0.11722675796E+04 -0.10429842315E+04  0.15725105621E+04  0.00000000000E+00 0. -1.
    9900018    1    1    2    0    0  0.15593182665E+02 -0.12404997446E+02 -0.78250565297E+02  0.12180049536E+03  0.91187600000E+02 0.  0.
<mgrwt>
<rscale>  0 0.24327194E+04</rscale>
<asrwt>0</asrwt>
<pdfrwt beam="1">  1        2 0.52791606E+00 0.33709471E+04</pdfrwt>
<pdfrwt beam="2">  1       -2 0.25791439E+00 0.33709471E+04</pdfrwt>
<totfact> 0.41401442E-02</totfact>
</mgrwt>
</event>
