<event>
13    1  0.3372057E-012  0.5496490E+04  0.7818608E-02  0.7756172E-01
         -1   -1    0    0    0  501 -0.00000000000E+00  0.00000000000E+00  0.26272653592E+04  0.26272653592E+04  0.00000000000E+00 0.  1.
          1   -1    0    0  501    0  0.00000000000E+00 -0.00000000000E+00 -0.28747950177E+04  0.28747950177E+04  0.00000000000E+00 0. -1.
    9900016    2    1    2    0    0  0.34912838465E+03 -0.64200210328E+02  0.14378039656E+04  0.26601034691E+04  0.22097189701E+04 0.  0.
        -24    2    3    3    0    0 -0.64303247462E+03  0.64449386474E+02 -0.25055968475E+03  0.69757813038E+03  0.78680401191E+02 0.  0.
    9900016    2    1    2    0    0 -0.30279623331E+03  0.71415940502E+02 -0.15442758960E+04  0.26675688461E+04  0.21527539827E+04 0.  0.
         23    2    5    5    0    0  0.42627137585E+03  0.31345392205E+02 -0.18306828929E+04  0.18832384339E+04  0.11179143673E+03 0.  0.
        -15    1    3    3    0    0  0.99216085927E+03 -0.12864959680E+03  0.16883636503E+04  0.19625253387E+04  0.00000000000E+00 0.  1.
        -15    1    6    6    0    0  0.27453850034E+03  0.39296579970E+02 -0.95433591377E+03  0.99381720939E+03  0.00000000000E+00 0.  1.
         15    1    4    4    0    0 -0.15227281364E+03  0.23542356934E+02 -0.95519192702E+02  0.18128752996E+03  0.00000000000E+00 0. -1.
         15    1    6    6    0    0  0.15173287551E+03 -0.79511877650E+01 -0.87634697909E+03  0.88942122453E+03  0.00000000000E+00 0. -1.
        -16    1    4    4    0    0 -0.49075966098E+03  0.40907029541E+02 -0.15504049205E+03  0.51629060042E+03  0.00000000000E+00 0.  1.
         16    1    5    5    0    0 -0.72906760916E+03  0.40070548297E+02  0.28640699685E+03  0.78433041214E+03  0.00000000000E+00 0. -1.
    9900018    1    1    2    0    0 -0.46332151344E+02 -0.72157301740E+01 -0.14105772806E+03  0.17438806166E+03  0.91187600000E+02 0.  0.
<mgrwt>
<rscale>  0 0.54964896E+04</rscale>
<asrwt>0</asrwt>
<pdfrwt beam="1">  1        1 0.44227616E+00 0.54964896E+04</pdfrwt>
<pdfrwt beam="2">  1       -1 0.40419467E+00 0.54964896E+04</pdfrwt>
<totfact> 0.34278908E-03</totfact>
</mgrwt>
</event>
<event>
13    1  0.3372057E-012  0.5552500E+04  0.7818608E-02  0.7748506E-01
          2   -1    0    0  501    0  0.00000000000E+00  0.00000000000E+00  0.34097711063E+04  0.34097711063E+04  0.00000000000E+00 0. -1.
         -2   -1    0    0    0  501 -0.00000000000E+00 -0.00000000000E+00 -0.22604346496E+04  0.22604346496E+04  0.00000000000E+00 0.  1.
    9900016    2    1    2    0    0  0.12138216941E+04  0.94820363554E+03 -0.80970493652E+02  0.26783951820E+04  0.21897011875E+04 0.  0.
        -24    2    3    3    0    0 -0.16570232812E+03 -0.37119463511E+03 -0.57309077384E+03  0.70708072337E+03  0.79293099400E+02 0.  0.
    9900016    2    1    2    0    0 -0.12138216941E+04 -0.94820363554E+03  0.12303069503E+04  0.29918105740E+04  0.22505159584E+04 0.  0.
         23    2    5    5    0    0  0.23541473445E+03  0.24759090164E+03  0.97527248161E+03  0.10404693967E+04  0.12123860889E+03 0.  0.
        -15    1    3    3    0    0  0.13795240222E+04  0.13193982706E+04  0.49212028019E+03  0.19713144586E+04  0.00000000000E+00 0.  1.
        -15    1    6    6    0    0  0.83150154759E+02  0.14340294408E+03  0.59723390990E+03  0.61981182284E+03  0.00000000000E+00 0. -1.
         15    1    6    6    0    0  0.15226457969E+03  0.10418795756E+03  0.37803857172E+03  0.42065757385E+03  0.00000000000E+00 0.  1.
         15    1    4    4    0    0 -0.86962678405E+02 -0.20034859042E+03 -0.23972051874E+03  0.32429614895E+03  0.00000000000E+00 0. -1.
        -16    1    4    4    0    0 -0.78739649715E+02 -0.17084604469E+03 -0.33337025510E+03  0.38278457442E+03  0.00000000000E+00 0.  1.
         16    1    5    5    0    0 -0.13578036327E+04 -0.11282599838E+04  0.15008702636E+03  0.17717582825E+04  0.00000000000E+00 0. -1.
    9900018    1    5    5    0    0 -0.91432795822E+02 -0.67534553409E+02  0.10494744236E+03  0.17958289481E+03  0.91187600000E+02 0.  0.
<mgrwt>
<rscale>  0 0.55525002E+04</rscale>
<asrwt>0</asrwt>
<pdfrwt beam="1">  1        2 0.52458017E+00 0.55525002E+04</pdfrwt>
<pdfrwt beam="2">  1       -2 0.34775918E+00 0.55525002E+04</pdfrwt>
<totfact> 0.10499438E-02</totfact>
</mgrwt>
</event>
<event>
12    1  0.3372057E-012  0.4810617E+04  0.7818608E-02  0.7858404E-01
         -2   -1    0    0    0  501 -0.00000000000E+00  0.00000000000E+00  0.22292075017E+04  0.22292075017E+04  0.00000000000E+00 0.  1.
          2   -1    0    0  501    0  0.00000000000E+00 -0.00000000000E+00 -0.25953207582E+04  0.25953207582E+04  0.00000000000E+00 0. -1.
    9900016    2    1    2    0    0 -0.37392352347E+03 -0.30482365088E+02 -0.97326745052E+03  0.24545549899E+04  0.22219006936E+04 0.  0.
         24    2    3    3    0    0 -0.89560520539E+03  0.61370029108E+03  0.10601641787E+03  0.10936814688E+04  0.78504415417E+02 0.  0.
    9900016    2    1    2    0    0  0.32023584259E+03  0.18620698211E+02  0.53154237705E+03  0.22393769780E+04  0.21515980633E+04 0.  0.
        -15    1    5    5    0    0 -0.22421927425E+03  0.22095949587E+02 -0.16701576970E+03  0.28045816312E+03  0.00000000000E+00 0.  1.
        -15    1    4    4    0    0 -0.52689315079E+03  0.40739628760E+03  0.63722961096E+02  0.66906557472E+03  0.00000000000E+00 0.  1.
         15    1    3    3    0    0  0.52168168191E+03 -0.64418265617E+03 -0.10792838684E+04  0.13608735211E+04  0.00000000000E+00 0. -1.
         15    1    5    5    0    0 -0.29391214195E+03  0.12945995466E+03 -0.43628019558E+03  0.54174222293E+03  0.00000000000E+00 0. -1.
        -16    1    5    5    0    0  0.83836725879E+03 -0.13293520604E+03  0.11348383423E+04  0.14171765920E+04  0.00000000000E+00 0.  1.
         16    1    4    4    0    0 -0.36871205460E+03  0.20630400348E+03  0.42293456770E+02  0.42461589412E+03  0.00000000000E+00 0. -1.
    9900018    1    1    2    0    0  0.53687680886E+02  0.11861666877E+02  0.75611816911E+02  0.13059629195E+03  0.91187600000E+02 0.  0.
<mgrwt>
<rscale>  0 0.48106168E+04</rscale>
<asrwt>0</asrwt>
<pdfrwt beam="1">  1        2 0.39928011E+00 0.48106168E+04</pdfrwt>
<pdfrwt beam="2">  1       -2 0.34295500E+00 0.48106168E+04</pdfrwt>
<totfact> 0.38997860E-02</totfact>
</mgrwt>
</event>
<event>
13    1  0.3372057E-012  0.5364863E+04  0.7818608E-02  0.7774563E-01
          2   -1    0    0  501    0  0.00000000000E+00  0.00000000000E+00  0.19650351126E+04  0.19650351126E+04  0.00000000000E+00 0.  1.
         -2   -1    0    0    0  501 -0.00000000000E+00 -0.00000000000E+00 -0.36617351636E+04  0.36617351636E+04  0.00000000000E+00 0. -1.
    9900016    2    1    2    0    0 -0.71417330638E+03 -0.12940807301E+04 -0.10365139975E+04  0.28472232754E+04  0.22017335591E+04 0.  0.
        -24    2    3    3    0    0  0.67369022307E+03 -0.81867216644E+03 -0.20937508223E+02  0.10629659833E+04  0.73318958082E+02 0.  0.
    9900016    2    1    2    0    0  0.71417330638E+03  0.12940807301E+04 -0.66018605351E+03  0.27795470008E+04  0.22595015948E+04 0.  0.
         23    2    5    5    0    0  0.33273050351E+03  0.14844010861E+02 -0.12266319271E+04  0.12766939792E+04  0.11996540925E+03 0.  0.
        -15    1    3    3    0    0 -0.13878635295E+04 -0.47540856370E+03 -0.10155764893E+04  0.17842572921E+04  0.00000000000E+00 0.  1.
        -15    1    6    6    0    0  0.88531577764E+02 -0.13793385037E+02 -0.53966424734E+03  0.54705173209E+03  0.00000000000E+00 0. -1.
         15    1    6    6    0    0  0.24419892574E+03  0.28637395899E+02 -0.68696767977E+03  0.72964224715E+03  0.00000000000E+00 0.  1.
         15    1    4    4    0    0  0.22827158657E+03 -0.33081567013E+03 -0.18496715274E+02  0.40235438772E+03  0.00000000000E+00 0. -1.
        -16    1    4    4    0    0  0.44541863651E+03 -0.48785649631E+03 -0.24407929487E+01  0.66061159558E+03  0.00000000000E+00 0.  1.
         16    1    5    5    0    0  0.32537285516E+03  0.11244397065E+04  0.59397447642E+03  0.13126453547E+04  0.00000000000E+00 0. -1.
    9900018    1    5    5    0    0  0.56069947712E+02  0.15479701274E+03 -0.27528602824E+02  0.19020766693E+03  0.91187600000E+02 0.  0.
<mgrwt>
<rscale>  0 0.53648628E+04</rscale>
<asrwt>0</asrwt>
<pdfrwt beam="1">  1        2 0.30231310E+00 0.53648628E+04</pdfrwt>
<pdfrwt beam="2">  1       -2 0.56334387E+00 0.53648628E+04</pdfrwt>
<totfact> 0.36719397E-03</totfact>
</mgrwt>
</event>
<event>
13    1  0.3372057E-012  0.5280078E+04  0.7818608E-02  0.7786697E-01
          1   -1    0    0  501    0  0.00000000000E+00  0.00000000000E+00  0.31615489354E+04  0.31615489354E+04  0.00000000000E+00 0. -1.
         -1   -1    0    0    0  501 -0.00000000000E+00 -0.00000000000E+00 -0.22045537783E+04  0.22045537783E+04  0.00000000000E+00 0.  1.
    9900016    2    1    2    0    0  0.12372752014E+04 -0.52653922427E+03  0.30324543084E+02  0.25795417165E+04  0.22011411610E+04 0.  0.
         24    2    3    3    0    0 -0.49427563691E+03 -0.16054064327E+03 -0.50659045098E+03  0.73008207174E+03  0.79399263675E+02 0.  0.
    9900016    2    1    2    0    0 -0.12372752014E+04  0.52653922427E+03  0.92667061406E+03  0.27865609972E+04  0.22578995296E+04 0.  0.
         23    2    5    5    0    0 -0.70545525929E+02  0.31895309138E+03  0.13385999068E+04  0.13821385443E+04  0.10839510726E+03 0.  0.
        -15    1    4    4    0    0 -0.27328816411E+03 -0.12277973124E+03 -0.32043772108E+03  0.43868167973E+03  0.00000000000E+00 0.  1.
        -15    1    6    6    0    0  0.21719696170E+02  0.11054011384E+03  0.54141573509E+03  0.55301162752E+03  0.00000000000E+00 0.  1.
         15    1    3    3    0    0  0.17315508383E+04 -0.36599858101E+03  0.53691499406E+03  0.18494596448E+04  0.00000000000E+00 0. -1.
         15    1    6    6    0    0 -0.92265222099E+02  0.20841297754E+03  0.79718417176E+03  0.82912691677E+03  0.00000000000E+00 0. -1.
        -16    1    5    5    0    0 -0.11278389546E+04  0.14090493398E+03 -0.51386652086E+03  0.12473707184E+04  0.00000000000E+00 0.  1.
         16    1    4    4    0    0 -0.22098747280E+03 -0.37760912028E+02 -0.18615272990E+03  0.29140039201E+03  0.00000000000E+00 0. -1.
    9900018    1    5    5    0    0 -0.38890720874E+02  0.66681198912E+02  0.10193722807E+03  0.15705173453E+03  0.91187600000E+02 0.  0.
<mgrwt>
<rscale>  0 0.52800775E+04</rscale>
<asrwt>0</asrwt>
<pdfrwt beam="1">  1        1 0.48639214E+00 0.52800775E+04</pdfrwt>
<pdfrwt beam="2">  1       -1 0.33916212E+00 0.52800775E+04</pdfrwt>
<totfact> 0.58767803E-03</totfact>
</mgrwt>
</event>
<event>
12    1  0.3372057E-012  0.5826301E+04  0.7818608E-02  0.7712319E-01
         -2   -1    0    0    0  501 -0.00000000000E+00  0.00000000000E+00  0.32140786050E+04  0.32140786050E+04  0.00000000000E+00 0.  1.
          2   -1    0    0  501    0  0.00000000000E+00 -0.00000000000E+00 -0.26403973475E+04  0.26403973475E+04  0.00000000000E+00 0. -1.
    9900016    2    1    2    0    0  0.18794575226E+04  0.39724387927E+02  0.42755993666E+03  0.29249355843E+04  0.21996595342E+04 0.  0.
        -24    2    3    3    0    0 -0.47472176733E+03  0.72320161050E+02 -0.13289107161E+03  0.50474386745E+03  0.80717858913E+02 0.  0.
    9900016    2    1    2    0    0 -0.18794575226E+04 -0.39724387927E+02  0.14612132083E+03  0.29295403682E+04  0.22420786609E+04 0.  0.
        -15    1    5    5    0    0  0.15603524131E+03 -0.14425089944E+03  0.11479343505E+03  0.24152194777E+03  0.00000000000E+00 0. -1.
        -15    1    3    3    0    0  0.23541792900E+04 -0.32595773123E+02  0.56045100826E+03  0.24201917169E+04  0.00000000000E+00 0.  1.
         15    1    5    5    0    0  0.25186572696E+03  0.22753697393E+03  0.38714835532E+02  0.34162590272E+03  0.00000000000E+00 0.  1.
         15    1    4    4    0    0 -0.28595463462E+03  0.81407279379E+02 -0.93753140883E+02  0.31174805472E+03  0.00000000000E+00 0. -1.
        -16    1    4    4    0    0 -0.18876713270E+03 -0.90871183294E+01 -0.39137930722E+02  0.19299581272E+03  0.00000000000E+00 0.  1.
         16    1    5    5    0    0 -0.22135014746E+04 -0.15835698424E+03 -0.40197128946E+02  0.22195228140E+04  0.00000000000E+00 0. -1.
    9900018    1    5    5    0    0 -0.73857016313E+02  0.35346521823E+02  0.32810179195E+02  0.12686970370E+03  0.91187600000E+02 0.  0.
<mgrwt>
<rscale>  0 0.58263006E+04</rscale>
<asrwt>0</asrwt>
<pdfrwt beam="1">  1        2 0.40621498E+00 0.58263006E+04</pdfrwt>
<pdfrwt beam="2">  1       -2 0.49447363E+00 0.58263006E+04</pdfrwt>
<totfact> 0.35450075E-03</totfact>
</mgrwt>
</event>
<event>
13    1  0.3372057E-012  0.6361125E+04  0.7818608E-02  0.7647171E-01
          2   -1    0    0  501    0  0.00000000000E+00  0.00000000000E+00  0.42384130486E+04  0.42384130486E+04  0.00000000000E+00 0. -1.
         -2   -1    0    0    0  501 -0.00000000000E+00 -0.00000000000E+00 -0.23867371615E+04  0.23867371615E+04  0.00000000000E+00 0.  1.
    9900016    2    1    2    0    0  0.25817459171E+02  0.97779859000E+03 -0.12139618373E+04  0.26948250512E+04  0.21980951050E+04 0.  0.
        -24    2    3    3    0    0  0.43871117284E+03 -0.28926560978E+03  0.35276303603E+03  0.63799259964E+03  0.80316321133E+02 0.  0.
    9900016    2    1    2    0    0 -0.41369504085E+00 -0.92889617562E+03  0.28467236375E+04  0.36868598570E+04  0.21508723488E+04 0.  0.
         23    2    5    5    0    0 -0.24662799547E+03  0.40343863830E+03 -0.50207786555E+02  0.48874334665E+03  0.11296518950E+03 0.  0.
        -15    1    3    3    0    0 -0.41289371367E+03  0.12670641998E+04 -0.15667248734E+04  0.20568324516E+04  0.00000000000E+00 0.  1.
        -15    1    6    6    0    0 -0.20453730226E+03  0.26492769826E+03  0.24287387578E+01  0.33470597857E+03  0.00000000000E+00 0.  1.
         15    1    4    4    0    0  0.41444778607E+03 -0.27020579789E+03  0.30524752110E+03  0.58133827479E+03  0.00000000000E+00 0. -1.
         15    1    6    6    0    0 -0.42090693205E+02  0.13851094004E+03 -0.52636525313E+02  0.15403736807E+03  0.00000000000E+00 0. -1.
        -16    1    4    4    0    0  0.24263386770E+02 -0.19059811886E+02  0.47515514924E+02  0.56654324858E+02  0.00000000000E+00 0.  1.
         16    1    5    5    0    0  0.24621430043E+03 -0.13323348139E+04  0.28969314241E+04  0.31981165104E+04  0.00000000000E+00 0. -1.
    9900018    1    1    2    0    0 -0.25403764130E+02 -0.48902414379E+02  0.21891408697E+03  0.24346530190E+03  0.91187600000E+02 0.  0.
<mgrwt>
<rscale>  0 0.63611250E+04</rscale>
<asrwt>0</asrwt>
<pdfrwt beam="1">  1        2 0.65206354E+00 0.63611250E+04</pdfrwt>
<pdfrwt beam="2">  1       -2 0.36719033E+00 0.63611250E+04</pdfrwt>
<totfact> 0.16915095E-03</totfact>
</mgrwt>
</event>
<event>
13    1  0.3372057E-012  0.5468906E+04  0.7818608E-02  0.7759982E-01
          1   -1    0    0  501    0  0.00000000000E+00  0.00000000000E+00  0.20703928002E+04  0.20703928002E+04  0.00000000000E+00 0. -1.
         -1   -1    0    0    0  501 -0.00000000000E+00 -0.00000000000E+00 -0.36115041173E+04  0.36115041173E+04  0.00000000000E+00 0.  1.
    9900016    2    1    2    0    0  0.17692532753E+02  0.11732919690E+04  0.34878130859E+03  0.25192266568E+04  0.22018009621E+04 0.  0.
         24    2    3    3    0    0 -0.10344692806E+04  0.73234954377E+03 -0.14084181683E+03  0.12777736739E+04  0.80041223133E+02 0.  0.
    9900016    2    1    2    0    0 -0.30780071239E+02 -0.11367907122E+04 -0.18169610029E+04  0.30396343903E+04  0.21551773487E+04 0.  0.
         23    2    5    5    0    0  0.31769261821E+03  0.26140325411E+02  0.39672853471E+03  0.51490407151E+03  0.78235262661E+02 0.  0.
        -15    1    6    6    0    0  0.10933456753E+03  0.45689362715E+02  0.15662141214E+03  0.19639712896E+03  0.00000000000E+00 0. -1.
        -15    1    4    4    0    0 -0.21099020715E+03  0.17344672678E+03 -0.56993130673E+02  0.27901407041E+03  0.00000000000E+00 0.  1.
         15    1    3    3    0    0  0.10521618134E+04  0.44094242526E+03  0.48962312543E+03  0.12414529829E+04  0.00000000000E+00 0. -1.
         15    1    6    6    0    0  0.20835805069E+03 -0.19549037304E+02  0.24010712257E+03  0.31850694255E+03  0.00000000000E+00 0.  1.
        -16    1    5    5    0    0 -0.34847268945E+03 -0.11629310376E+04 -0.22136895376E+04  0.25247303187E+04  0.00000000000E+00 0.  1.
         16    1    4    4    0    0 -0.82347907348E+03  0.55890281699E+03 -0.83848686161E+02  0.99875960344E+03  0.00000000000E+00 0. -1.
    9900018    1    1    2    0    0  0.13087538486E+02 -0.36501256845E+02 -0.72931622854E+02  0.12303587046E+03  0.91187600000E+02 0.  0.
<mgrwt>
<rscale>  0 0.54689056E+04</rscale>
<asrwt>0</asrwt>
<pdfrwt beam="1">  1        1 0.31852197E+00 0.54689056E+04</pdfrwt>
<pdfrwt beam="2">  1       -1 0.55561601E+00 0.54689056E+04</pdfrwt>
<totfact> 0.13214781E-03</totfact>
</mgrwt>
</event>
<event>
12    1  0.3372057E-012  0.5119866E+04  0.7818608E-02  0.7810278E-01
         -2   -1    0    0    0  501 -0.00000000000E+00  0.00000000000E+00  0.15813857931E+04  0.15813857931E+04  0.00000000000E+00 0.  1.
          2   -1    0    0  501    0  0.00000000000E+00 -0.00000000000E+00 -0.41439966631E+04  0.41439966631E+04  0.00000000000E+00 0. -1.
    9900016    2    1    2    0    0 -0.23129497683E+03  0.90091153822E+03 -0.32933847390E+03  0.24158949768E+04  0.22052087753E+04 0.  0.
         24    2    3    3    0    0 -0.99947691252E+03  0.50969677922E+02  0.37432389122E+03  0.10714079459E+04  0.79022808566E+02 0.  0.
    9900016    2    1    2    0    0  0.22808952206E+03 -0.82542864778E+03 -0.20579329227E+04  0.30979052236E+04  0.21514115313E+04 0.  0.
        -15    1    5    5    0    0 -0.73914801452E+02 -0.76695362580E+02 -0.75085885915E+02  0.13032063067E+03  0.00000000000E+00 0. -1.
        -15    1    4    4    0    0 -0.22530359612E+03 -0.10098249990E+02  0.11128351192E+03  0.25149096426E+03  0.00000000000E+00 0.  1.
         15    1    5    5    0    0 -0.66896901016E+03 -0.64240345075E+03 -0.22154513586E+03  0.95356382970E+03  0.00000000000E+00 0.  1.
         15    1    3    3    0    0  0.76818193569E+03  0.84994186029E+03 -0.70366236511E+03  0.13444870309E+04  0.00000000000E+00 0. -1.
        -16    1    5    5    0    0  0.97097333367E+03 -0.10632983446E+03 -0.17613019009E+04  0.20140207632E+04  0.00000000000E+00 0.  1.
         16    1    4    4    0    0 -0.77417331640E+03  0.61067927912E+02  0.26304037929E+03  0.81991698164E+03  0.00000000000E+00 0. -1.
    9900018    1    1    2    0    0  0.32054547663E+01 -0.75482890433E+02 -0.17533947336E+03  0.21158225587E+03  0.91187600000E+02 0.  0.
<mgrwt>
<rscale>  0 0.51198662E+04</rscale>
<asrwt>0</asrwt>
<pdfrwt beam="1">  1        2 0.63753793E+00 0.51198662E+04</pdfrwt>
<pdfrwt beam="2">  1       -2 0.24329013E+00 0.51198662E+04</pdfrwt>
<totfact> 0.13163883E-02</totfact>
</mgrwt>
</event>
