<event>
11    1  0.1833540E-013  0.3221854E+04  0.7818608E-02  0.8183069E-01
          2   -1    0    0  501    0  0.00000000000E+00  0.00000000000E+00  0.15903118755E+04  0.15903118755E+04  0.00000000000E+00 0. -1.
         -2   -1    0    0    0  501 -0.00000000000E+00 -0.00000000000E+00 -0.16318092240E+04  0.16318092240E+04  0.00000000000E+00 0.  1.
         23    2    1    2    0    0  0.18490326213E+03 -0.34550799818E+03 -0.15632191681E+02  0.40214494866E+03  0.88944933334E+02 0.  0.
    9900016    2    1    2    0    0 -0.21953500364E+03  0.29373005635E+03 -0.74502095012E+02  0.22383658653E+04  0.22068661538E+04 0.  0.
        -15    1    4    4    0    0 -0.10748497738E+04 -0.29197216290E+03 -0.33613335886E+03  0.11634154095E+04  0.00000000000E+00 0.  1.
        -15    1    3    3    0    0  0.73766858922E+02 -0.15739299240E+03  0.36287368493E+02  0.17756935728E+03  0.00000000000E+00 0.  1.
         15    1    4    4    0    0  0.57325571918E+03  0.41835549291E+03  0.22730622926E+03  0.74519229725E+03  0.00000000000E+00 0. -1.
         15    1    3    3    0    0  0.11113640320E+03 -0.18811500578E+03 -0.51919560174E+02  0.22457559139E+03  0.00000000000E+00 0. -1.
        -16    1    4    4    0    0  0.28205905102E+03  0.16734672634E+03  0.34325034593E+02  0.32975815847E+03  0.00000000000E+00 0.  1.
         16    1    1    2    0    0 -0.14393890101E+03 -0.19645462912E+03  0.90430349937E+02  0.25978929292E+03  0.00000000000E+00 0. -1.
    9900018    1    1    2    0    0  0.17857064253E+03  0.24823257095E+03 -0.41793411702E+02  0.32182099265E+03  0.91187600000E+02 0.  0.
<mgrwt>
<rscale>  0 0.32218539E+04</rscale>
<asrwt>0</asrwt>
<pdfrwt beam="1">  1        2 0.24466336E+00 0.32218539E+04</pdfrwt>
<pdfrwt beam="2">  1       -2 0.25104757E+00 0.32218539E+04</pdfrwt>
<totfact> 0.60097686E-01</totfact>
</mgrwt>
</event>
<event>
12    1  0.1833540E-013  0.4498561E+04  0.7818608E-02  0.8549096E-01
          2   -1    0    0  501    0  0.00000000000E+00  0.00000000000E+00  0.25623632876E+04  0.25623632876E+04  0.00000000000E+00 0.  1.
         -2   -1    0    0    0  501 -0.00000000000E+00 -0.00000000000E+00 -0.21770839471E+04  0.21770839471E+04  0.00000000000E+00 0. -1.
         23    2    1    2    0    0  0.18426466725E+03  0.91425108115E+02  0.14495105709E+02  0.22563127718E+03  0.91582460999E+02 0.  0.
    9900016    2    1    2    0    0  0.53401698561E+03 -0.94078032796E+03 -0.25457424990E+03  0.24676901510E+04  0.22032804784E+04 0.  0.
         24    2    4    4    0    0 -0.81197966906E+03 -0.25877612100E+02  0.31408233584E+02  0.81525559717E+03  0.60618296028E+02 0.  0.
        -15    1    3    3    0    0  0.11870535652E+03  0.87771702895E+01 -0.82307264555E+00  0.11903225543E+03  0.00000000000E+00 0.  1.
        -15    1    5    5    0    0 -0.70179484060E+03 -0.14884683272E+01  0.27704495098E+02  0.70234304501E+03  0.00000000000E+00 0.  1.
         15    1    4    4    0    0  0.13459966547E+04 -0.91490271586E+03 -0.28598248348E+03  0.16524345538E+04  0.00000000000E+00 0. -1.
         15    1    3    3    0    0  0.65559310736E+02  0.82647937825E+02  0.15318178355E+02  0.10659902175E+03  0.00000000000E+00 0. -1.
        -16    1    1    2    0    0  0.37683317533E+03  0.63331297116E+03  0.55762422771E+03  0.92413924319E+03  0.00000000000E+00 0.  1.
         16    1    5    5    0    0 -0.11018482846E+03 -0.24389143773E+02  0.37037384862E+01  0.11291255216E+03  0.00000000000E+00 0. -1.
    9900018    1    1    2    0    0 -0.10951148282E+04  0.21604224869E+03  0.67734256967E+02  0.11219865632E+04  0.91187600000E+02 0.  0.
<mgrwt>
<rscale>  0 0.21277987E+04</rscale>
<asrwt>0</asrwt>
<pdfrwt beam="1">  1        2 0.39420974E+00 0.44985613E+04</pdfrwt>
<pdfrwt beam="2">  1       -2 0.33493599E+00 0.44985613E+04</pdfrwt>
<totfact> 0.46526149E-02</totfact>
</mgrwt>
</event>
<event>
11    1  0.1833540E-013  0.2809178E+04  0.7818608E-02  0.8712619E-01
         -1   -1    0    0    0  501 -0.00000000000E+00  0.00000000000E+00  0.12296785999E+04  0.12296785999E+04  0.00000000000E+00 0.  1.
          1   -1    0    0  501    0  0.00000000000E+00 -0.00000000000E+00 -0.22037677983E+04  0.22037677983E+04  0.00000000000E+00 0. -1.
         23    2    1    2    0    0 -0.11448222979E+03  0.43661195349E+03 -0.31714468190E+01  0.46121412119E+03  0.94721848785E+02 0.  0.
    9900016    2    1    2    0    0  0.14587262960E+03 -0.56586452070E+03 -0.72528911166E+03  0.23955437269E+04  0.22070577637E+04 0.  0.
        -15    1    3    3    0    0 -0.12028180851E+03  0.28898811711E+03  0.73015043959E+01  0.31310566468E+03  0.00000000000E+00 0. -1.
        -15    1    4    4    0    0  0.92523324940E+02 -0.11566297334E+04 -0.11653622925E+04  0.16445127481E+04  0.00000000000E+00 0.  1.
         15    1    3    3    0    0  0.57995787157E+01  0.14762383638E+03 -0.10472951215E+02  0.14810845651E+03  0.00000000000E+00 0.  1.
         15    1    4    4    0    0  0.17266449034E+02  0.21348058345E+03  0.81128679514E+02  0.22902827863E+03  0.00000000000E+00 0. -1.
        -16    1    4    4    0    0  0.36082855626E+02  0.37728462929E+03  0.35894450132E+03  0.52200270018E+03  0.00000000000E+00 0.  1.
         16    1    1    2    0    0  0.16288473480E+03 -0.10639294385E+03 -0.43766155387E+02  0.19941507387E+03  0.00000000000E+00 0. -1.
    9900018    1    1    2    0    0 -0.19427513460E+03  0.23564551105E+03 -0.20186248447E+03  0.37727347619E+03  0.91187600000E+02 0.  0.
<mgrwt>
<rscale>  0 0.17881649E+04</rscale>
<asrwt>0</asrwt>
<pdfrwt beam="1">  1        1 0.33904120E+00 0.28091784E+04</pdfrwt>
<pdfrwt beam="2">  1       -1 0.18918132E+00 0.28091784E+04</pdfrwt>
<totfact> 0.33032614E-01</totfact>
</mgrwt>
</event>
<event>
12    1  0.1833540E-013  0.3086159E+04  0.7818608E-02  0.8732169E-01
          2   -1    0    0  501    0  0.00000000000E+00  0.00000000000E+00  0.24029341580E+04  0.24029341580E+04  0.00000000000E+00 0.  1.
         -2   -1    0    0    0  501 -0.00000000000E+00 -0.00000000000E+00 -0.12103621266E+04  0.12103621266E+04  0.00000000000E+00 0. -1.
         23    2    1    2    0    0 -0.30619732676E+03 -0.27847190538E+02  0.16465069105E+03  0.36045112195E+03  0.91010396757E+02 0.  0.
    9900016    2    1    2    0    0  0.45135023004E+03 -0.26832819833E+03  0.85052656224E+03  0.24201117291E+04  0.22040481610E+04 0.  0.
        -24    2    4    4    0    0  0.24389935853E+03 -0.11365008612E+04 -0.29294466471E+02  0.11667783021E+04  0.96914063926E+02 0.  0.
        -15    1    4    4    0    0  0.20745087151E+03  0.86817266288E+03  0.87982102871E+03  0.12533334270E+04  0.00000000000E+00 0.  1.
        -15    1    3    3    0    0 -0.11579066076E+03 -0.17849056421E+02  0.11331578676E+03  0.16299243376E+03  0.00000000000E+00 0.  1.
         15    1    3    3    0    0 -0.19040666600E+03 -0.99981341165E+01  0.51334904287E+02  0.19745868819E+03  0.00000000000E+00 0. -1.
         15    1    5    5    0    0  0.43684263149E+02 -0.42612942603E+03 -0.10187719410E+02  0.42848382956E+03  0.00000000000E+00 0. -1.
        -16    1    5    5    0    0  0.20021509538E+03 -0.71037143519E+03 -0.19106747061E+02  0.73829447250E+03  0.00000000000E+00 0.  1.
         16    1    1    2    0    0 -0.18288839375E+03  0.51589166785E+03  0.21669936191E+03  0.58868581687E+03  0.00000000000E+00 0. -1.
    9900018    1    1    2    0    0  0.37735490472E+02 -0.21971627899E+03 -0.39304583770E+02  0.24404761665E+03  0.91187600000E+02 0.  0.
<mgrwt>
<rscale>  0 0.17521485E+04</rscale>
<asrwt>0</asrwt>
<pdfrwt beam="1">  1        2 0.36968218E+00 0.30861593E+04</pdfrwt>
<pdfrwt beam="2">  1       -2 0.18620956E+00 0.30861593E+04</pdfrwt>
<totfact> 0.54712497E-01</totfact>
</mgrwt>
</event>
<event>
12    1  0.1833540E-013  0.3050551E+04  0.7818608E-02  0.8740333E-01
         -2   -1    0    0    0  501 -0.00000000000E+00  0.00000000000E+00  0.22758793371E+04  0.22758793371E+04  0.00000000000E+00 0.  1.
          2   -1    0    0  501    0  0.00000000000E+00 -0.00000000000E+00 -0.16686104566E+04  0.16686104566E+04  0.00000000000E+00 0. -1.
         23    2    1    2    0    0 -0.15716844518E+03 -0.26505891799E+03  0.82594490412E+03  0.88611106324E+03  0.89720017768E+02 0.  0.
    9900016    2    1    2    0    0  0.58966557062E+03 -0.12236634888E+03 -0.28985416423E+03  0.22919321286E+04  0.21923180511E+04 0.  0.
        -24    2    4    4    0    0 -0.48040301561E+03 -0.66977711258E+03 -0.63348030784E+03  0.10418184338E+04  0.68555894511E+02 0.  0.
        -15    1    4    4    0    0  0.10700685862E+04  0.54741076370E+03  0.34362614361E+03  0.12501136948E+04  0.00000000000E+00 0.  1.
        -15    1    3    3    0    0 -0.13144136253E+03 -0.22389891037E+03  0.58053305764E+03  0.63594511152E+03  0.00000000000E+00 0.  1.
         15    1    5    5    0    0 -0.14107020153E+03 -0.17833732643E+03 -0.13935065624E+03  0.26669009947E+03  0.00000000000E+00 0. -1.
         15    1    3    3    0    0 -0.25727082653E+02 -0.41160007616E+02  0.24541184648E+03  0.25016595172E+03  0.00000000000E+00 0. -1.
        -16    1    5    5    0    0 -0.33933281408E+03 -0.49143978615E+03 -0.49412965160E+03  0.77512833435E+03  0.00000000000E+00 0.  1.
         16    1    1    2    0    0  0.81697117974E+02  0.15719403929E+03 -0.47732096621E+02  0.18347408024E+03  0.00000000000E+00 0. -1.
    9900018    1    1    2    0    0 -0.51419424340E+03  0.23023122758E+03  0.11891023723E+03  0.58297252166E+03  0.91187600000E+02 0.  0.
<mgrwt>
<rscale>  0 0.17373707E+04</rscale>
<asrwt>0</asrwt>
<pdfrwt beam="1">  1        2 0.25670930E+00 0.30505510E+04</pdfrwt>
<pdfrwt beam="2">  1       -2 0.35013528E+00 0.30505510E+04</pdfrwt>
<totfact> 0.13149235E-01</totfact>
</mgrwt>
</event>
<event>
11    1  0.1833540E-013  0.4574088E+04  0.7818608E-02  0.8482677E-01
          2   -1    0    0  501    0  0.00000000000E+00  0.00000000000E+00  0.34317344280E+04  0.34317344280E+04  0.00000000000E+00 0. -1.
         -2   -1    0    0    0  501 -0.00000000000E+00 -0.00000000000E+00 -0.17322010015E+04  0.17322010015E+04  0.00000000000E+00 0.  1.
         23    2    1    2    0    0 -0.26197252283E+03 -0.70443020304E+02  0.20393539911E+03  0.35154568375E+03  0.91667327488E+02 0.  0.
    9900016    2    1    2    0    0 -0.12285678465E+04  0.34894392097E+03  0.92116798272E+03  0.26992515282E+04  0.21923201287E+04 0.  0.
        -15    1    4    4    0    0  0.33741124993E+03  0.24680464758E+01  0.65617438507E+03  0.73784637050E+03  0.00000000000E+00 0.  1.
        -15    1    3    3    0    0 -0.24923502461E+03 -0.61479739854E+02  0.15426854642E+03  0.29949397376E+03  0.00000000000E+00 0. -1.
         15    1    4    4    0    0 -0.17143371375E+04  0.31877487454E+03  0.11326414935E+03  0.17473974961E+04  0.00000000000E+00 0. -1.
         15    1    3    3    0    0 -0.12737498220E+02 -0.89632804499E+01  0.49666852684E+02  0.52051709990E+02  0.00000000000E+00 0.  1.
        -16    1    1    2    0    0  0.16687419359E+04 -0.23548997976E+03  0.21426264289E+03  0.16988418582E+04  0.00000000000E+00 0.  1.
         16    1    4    4    0    0  0.14835804109E+03  0.27700999948E+02  0.15172944830E+03  0.21400766163E+03  0.00000000000E+00 0. -1.
    9900018    1    1    2    0    0 -0.17820156655E+03 -0.43010920903E+02  0.36016740185E+03  0.41429635937E+03  0.91187600000E+02 0.  0.
<mgrwt>
<rscale>  0 0.22879769E+04</rscale>
<asrwt>0</asrwt>
<pdfrwt beam="1">  1        2 0.52795914E+00 0.45740881E+04</pdfrwt>
<pdfrwt beam="2">  1       -2 0.26649246E+00 0.45740881E+04</pdfrwt>
<totfact> 0.34337424E-02</totfact>
</mgrwt>
</event>
<event>
11    1  0.1833540E-013  0.4036551E+04  0.7818608E-02  0.8557793E-01
         -2   -1    0    0    0  501 -0.00000000000E+00  0.00000000000E+00  0.20815671212E+04  0.20815671212E+04  0.00000000000E+00 0.  1.
          2   -1    0    0  501    0  0.00000000000E+00 -0.00000000000E+00 -0.22943853274E+04  0.22943853274E+04  0.00000000000E+00 0. -1.
         23    2    1    2    0    0  0.25432585160E+03 -0.12698704837E+03 -0.15764437505E+03  0.33902454895E+03  0.96325212473E+02 0.  0.
    9900016    2    1    2    0    0  0.36977095110E+03 -0.52790317205E+03 -0.37423396493E+02  0.22871447770E+04  0.21941327228E+04 0.  0.
        -15    1    3    3    0    0  0.91263126367E+02 -0.52300085891E+02 -0.11262802111E+03  0.15410817096E+03  0.00000000000E+00 0.  1.
        -15    1    4    4    0    0 -0.57753279295E+03  0.24492588788E+03 -0.22215813485E+03  0.66549759907E+03  0.00000000000E+00 0.  1.
         15    1    3    3    0    0  0.16306272523E+03 -0.74686962480E+02 -0.45016353942E+02  0.18491637798E+03  0.00000000000E+00 0. -1.
         15    1    4    4    0    0  0.11557183268E+04 -0.76230896737E+03  0.24148618987E+03  0.14053879865E+04  0.00000000000E+00 0. -1.
        -16    1    1    2    0    0  0.76438356025E+02 -0.27115142224E+03  0.41980192196E+03  0.50556856086E+03  0.00000000000E+00 0.  1.
         16    1    4    4    0    0 -0.20841458275E+03 -0.10520092557E+02 -0.56751451518E+02  0.21625919148E+03  0.00000000000E+00 0. -1.
    9900018    1    1    2    0    0 -0.70053515872E+03  0.92604164266E+03 -0.43755235656E+03  0.12442145617E+04  0.91187600000E+02 0.  0.
<mgrwt>
<rscale>  0 0.21078511E+04</rscale>
<asrwt>0</asrwt>
<pdfrwt beam="1">  1        2 0.35298236E+00 0.40365508E+04</pdfrwt>
<pdfrwt beam="2">  1       -2 0.32024110E+00 0.40365508E+04</pdfrwt>
<totfact> 0.84662637E-02</totfact>
</mgrwt>
</event>
<event>
12    1  0.1833540E-013  0.3215221E+04  0.7818608E-02  0.8812385E-01
          2   -1    0    0  501    0  0.00000000000E+00  0.00000000000E+00  0.12555085818E+04  0.12555085818E+04  0.00000000000E+00 0.  1.
         -2   -1    0    0    0  501 -0.00000000000E+00 -0.00000000000E+00 -0.23683204491E+04  0.23683204491E+04  0.00000000000E+00 0. -1.
         23    2    1    2    0    0  0.23762961374E+02 -0.18079351906E+03 -0.19034631338E+03  0.27889469092E+03  0.91101892065E+02 0.  0.
    9900016    2    1    2    0    0 -0.19548948626E+03  0.73083096716E+02 -0.30162237345E+03  0.22653091242E+04  0.22354176554E+04 0.  0.
         24    2    4    4    0    0  0.55795281503E+03  0.23985422747E+03 -0.10328461773E+04  0.12022116862E+04  0.98490193020E+02 0.  0.
        -15    1    3    3    0    0  0.52682420580E+02 -0.13845939838E+03 -0.16485366470E+03  0.22163748149E+03  0.00000000000E+00 0. -1.
        -15    1    5    5    0    0  0.14309932099E+03  0.31603048216E+02 -0.18947637609E+03  0.23953593764E+03  0.00000000000E+00 0.  1.
         15    1    3    3    0    0 -0.28919459206E+02 -0.42334120680E+02 -0.25492648685E+02  0.57257209428E+02  0.00000000000E+00 0.  1.
         15    1    4    4    0    0 -0.75344230129E+03 -0.16677113076E+03  0.73122380389E+03  0.10630974381E+04  0.00000000000E+00 0. -1.
        -16    1    1    2    0    0 -0.33352952712E+03  0.51441739936E+02 -0.11458771295E+03  0.35639660777E+03  0.00000000000E+00 0.  1.
         16    1    5    5    0    0  0.41485349403E+03  0.20825117926E+03 -0.84336980125E+03  0.96267574855E+03  0.00000000000E+00 0. -1.
    9900018    1    1    2    0    0  0.50525605201E+03  0.56268682410E+02 -0.50625546749E+03  0.72322860803E+03  0.91187600000E+02 0.  0.
<mgrwt>
<rscale>  0 0.16133558E+04</rscale>
<asrwt>0</asrwt>
<pdfrwt beam="1">  1        2 0.19315517E+00 0.32152205E+04</pdfrwt>
<pdfrwt beam="2">  1       -2 0.36435699E+00 0.32152205E+04</pdfrwt>
<totfact> 0.18468640E-01</totfact>
</mgrwt>
</event>
