<event>
12    1  0.9615540E-012  0.2641537E+04  0.7818608E-02  0.8354227E-01
         -2   -1    0    0    0  501 -0.00000000000E+00  0.00000000000E+00  0.16896389803E+04  0.16896389803E+04  0.00000000000E+00 0.  1.
          2   -1    0    0  501    0  0.00000000000E+00 -0.00000000000E+00 -0.10324270588E+04  0.10324270588E+04  0.00000000000E+00 0. -1.
    9900016    2    1    2    0    0  0.31688356877E+03  0.14261010853E+03  0.10872035690E+04  0.21692137477E+04  0.18446473494E+04 0.  0.
    9900016    2    3    3    0    0  0.32685776617E+03  0.17974339557E+03  0.10653787090E+04  0.21116957675E+04  0.17846802328E+04 0.  0.
        -24    2    4    4    0    0 -0.23241888620E+03  0.20596530579E+03 -0.19618136356E+03  0.37597181089E+03  0.80171249972E+02 0.  0.
        -15    1    3    3    0    0 -0.20640898080E+02 -0.82643990797E+01  0.11663279532E+02  0.25107350620E+02  0.00000000000E+00 0. -1.
        -15    1    4    4    0    0  0.68355454261E+03 -0.38910259876E+03  0.72360351350E+03  0.10687608197E+04  0.00000000000E+00 0.  1.
         15    1    3    3    0    0  0.10666700683E+02 -0.28868887961E+02  0.10161580494E+02  0.32410629640E+02  0.00000000000E+00 0.  1.
         15    1    5    5    0    0 -0.11852218009E+03  0.14187203144E+03 -0.14753374924E+03  0.23651931769E+03  0.00000000000E+00 0. -1.
        -16    1    5    5    0    0 -0.11389670611E+03  0.64093274357E+02 -0.48647614329E+02  0.13945249320E+03  0.00000000000E+00 0.  1.
         16    1    1    2    0    0 -0.31688356877E+03 -0.14261010853E+03 -0.42999164746E+03  0.55285229139E+03  0.00000000000E+00 0. -1.
    9900018    1    4    4    0    0 -0.12427789024E+03  0.36288068854E+03  0.53795655902E+03  0.66696313684E+03  0.91187600000E+02 0.  0.
<mgrwt>
<rscale>  0 0.26415367E+04</rscale>
<asrwt>0</asrwt>
<pdfrwt beam="1">  1        2 0.15883493E+00 0.26415367E+04</pdfrwt>
<pdfrwt beam="2">  1       -2 0.25994446E+00 0.26415367E+04</pdfrwt>
<totfact> 0.11819805E+00</totfact>
</mgrwt>
</event>
<event>
12    1  0.9615540E-012  0.2331225E+04  0.7818608E-02  0.8465710E-01
         -2   -1    0    0    0  501 -0.00000000000E+00  0.00000000000E+00  0.45365646577E+03  0.45365646577E+03  0.00000000000E+00 0.  1.
          2   -1    0    0  501    0  0.00000000000E+00 -0.00000000000E+00 -0.29948925358E+04  0.29948925358E+04  0.00000000000E+00 0. -1.
    9900016    2    1    2    0    0  0.31769029337E+03 -0.85893569535E+02 -0.16995491240E+04  0.25448113500E+04  0.18652862393E+04 0.  0.
    9900016    2    3    3    0    0  0.29965623075E+03 -0.76876470905E+02 -0.16306791104E+04  0.24487449390E+04  0.18004259403E+04 0.  0.
        -24    2    4    4    0    0 -0.13129589293E+03  0.47277887471E+03  0.83974725341E+02  0.50467581877E+03  0.82990672243E+02 0.  0.
        -15    1    3    3    0    0  0.35543796985E+02 -0.19751102442E+02 -0.62499480488E+02  0.74563078082E+02  0.00000000000E+00 0. -1.
        -15    1    4    4    0    0  0.28226130380E+03 -0.19013348178E+03 -0.24053333091E+03  0.41674748685E+03  0.00000000000E+00 0.  1.
         15    1    5    5    0    0 -0.34674653924E+02  0.23050864965E+03  0.70379774100E+02  0.24349513710E+03  0.00000000000E+00 0. -1.
         15    1    3    3    0    0 -0.17509734374E+02  0.10734003813E+02 -0.63705331193E+01  0.21503332949E+02  0.00000000000E+00 0.  1.
        -16    1    5    5    0    0 -0.96621239003E+02  0.24227022506E+03  0.13594951242E+02  0.26118068167E+03  0.00000000000E+00 0.  1.
         16    1    1    2    0    0 -0.31769029337E+03  0.85893569535E+02 -0.84168694597E+03  0.90373765154E+03  0.00000000000E+00 0. -1.
    9900018    1    4    4    0    0  0.14869081988E+03 -0.35952186383E+03 -0.14741205049E+04  0.15273216334E+04  0.91187600000E+02 0.  0.
<mgrwt>
<rscale>  0 0.23312249E+04</rscale>
<asrwt>0</asrwt>
<pdfrwt beam="1">  1        2 0.46075271E+00 0.23312249E+04</pdfrwt>
<pdfrwt beam="2">  1       -2 0.69793300E-01 0.23312249E+04</pdfrwt>
<totfact> 0.29697481E+00</totfact>
</mgrwt>
</event>
<event>
12    1  0.9615540E-012  0.2873366E+04  0.7818608E-02  0.8280846E-01
          1   -1    0    0  501    0  0.00000000000E+00  0.00000000000E+00  0.13956345432E+04  0.13956345432E+04  0.00000000000E+00 0. -1.
         -1   -1    0    0    0  501 -0.00000000000E+00 -0.00000000000E+00 -0.14789387183E+04  0.14789387183E+04  0.00000000000E+00 0.  1.
    9900016    2    1    2    0    0  0.54776308632E+03 -0.33817168264E+03 -0.57013664260E+03  0.20674733067E+04  0.18801557374E+04 0.  0.
    9900016    2    3    3    0    0  0.52097142823E+03 -0.33687842508E+03 -0.50377075857E+03  0.19654411830E+04  0.17956268444E+04 0.  0.
        -24    2    4    4    0    0  0.88351593292E+03 -0.21072871622E+03 -0.50134339785E+03  0.10408317420E+04  0.83537519186E+02 0.  0.
        -15    1    4    4    0    0 -0.41917996970E+03  0.69315554536E+02  0.32047651861E+03  0.53218576839E+03  0.00000000000E+00 0.  1.
        -15    1    3    3    0    0 -0.22820558146E+02 -0.81301231572E+01 -0.36229946286E+02  0.43583090580E+02  0.00000000000E+00 0.  1.
         15    1    5    5    0    0  0.60995258090E+03 -0.18325776543E+03 -0.33774025135E+03  0.72089807666E+03  0.00000000000E+00 0. -1.
         15    1    3    3    0    0  0.49612216227E+02  0.68368656012E+01 -0.30135937742E+02  0.58449033130E+02  0.00000000000E+00 0. -1.
        -16    1    5    5    0    0  0.27356335201E+03 -0.27470950785E+02 -0.16360314650E+03  0.31993366538E+03  0.00000000000E+00 0.  1.
         16    1    1    2    0    0 -0.54776308632E+03  0.33817168264E+03  0.48683246748E+03  0.80709995482E+03  0.00000000000E+00 0. -1.
    9900018    1    4    4    0    0  0.56635465012E+02 -0.19546526340E+03 -0.32290387933E+03  0.39242367255E+03  0.91187600000E+02 0.  0.
<mgrwt>
<rscale>  0 0.28733659E+04</rscale>
<asrwt>0</asrwt>
<pdfrwt beam="1">  1        1 0.21471301E+00 0.28733659E+04</pdfrwt>
<pdfrwt beam="2">  1       -1 0.22752903E+00 0.28733659E+04</pdfrwt>
<totfact> 0.65253852E-01</totfact>
</mgrwt>
</event>
<event>
12    1  0.9615540E-012  0.2193539E+04  0.7818608E-02  0.8521122E-01
         -1   -1    0    0    0  501 -0.00000000000E+00  0.00000000000E+00  0.53371320541E+03  0.53371320541E+03  0.00000000000E+00 0.  1.
          1   -1    0    0  501    0  0.00000000000E+00 -0.00000000000E+00 -0.22538375867E+04  0.22538375867E+04  0.00000000000E+00 0. -1.
    9900016    2    1    2    0    0 -0.22727164547E+03 -0.11291261818E+03 -0.12048387851E+04  0.22131633743E+04  0.18390361505E+04 0.  0.
    9900016    2    3    3    0    0 -0.22980735700E+03 -0.11474357871E+03 -0.11884936353E+04  0.21641211946E+04  0.17902306872E+04 0.  0.
        -24    2    4    4    0    0  0.49583850261E+03  0.24842431061E+03 -0.12320569838E+03  0.57380748072E+03  0.80653096901E+02 0.  0.
        -15    1    3    3    0    0 -0.37372362856E+01  0.23233490163E+02 -0.51579532808E+01  0.24090796630E+02  0.00000000000E+00 0.  1.
        -15    1    4    4    0    0 -0.37359499295E+03 -0.50081373306E+03 -0.10236168298E+04  0.11992410217E+04  0.00000000000E+00 0.  1.
         15    1    3    3    0    0  0.62729478115E+01 -0.21402529629E+02 -0.11187196522E+02  0.24951383024E+02  0.00000000000E+00 0. -1.
         15    1    5    5    0    0  0.31505412782E+03  0.14687908710E+03 -0.11556214456E+03  0.36631568208E+03  0.00000000000E+00 0. -1.
        -16    1    5    5    0    0  0.18078437478E+03  0.10154522351E+03 -0.76435538228E+01  0.20749179863E+03  0.00000000000E+00 0.  1.
         16    1    1    2    0    0  0.22727164547E+03  0.11291261818E+03 -0.51528559618E+03  0.57438741787E+03  0.00000000000E+00 0. -1.
    9900018    1    4    4    0    0 -0.35205086666E+03  0.13764584373E+03 -0.41671107200E+02  0.39107269219E+03  0.91187600000E+02 0.  0.
<mgrwt>
<rscale>  0 0.21935386E+04</rscale>
<asrwt>0</asrwt>
<pdfrwt beam="1">  1        1 0.34674425E+00 0.21935386E+04</pdfrwt>
<pdfrwt beam="2">  1       -1 0.82109723E-01 0.21935386E+04</pdfrwt>
<totfact> 0.26935965E+00</totfact>
</mgrwt>
</event>
<event>
12    1  0.9615540E-012  0.2270490E+04  0.7818608E-02  0.8489648E-01
          1   -1    0    0  501    0  0.00000000000E+00  0.00000000000E+00  0.25145465166E+04  0.25145465166E+04  0.00000000000E+00 0. -1.
         -1   -1    0    0    0  501 -0.00000000000E+00 -0.00000000000E+00 -0.51253016367E+03  0.51253016367E+03  0.00000000000E+00 0.  1.
    9900016    2    1    2    0    0 -0.28121114297E+02  0.32478836350E+03  0.18950260767E+04  0.26839656234E+04  0.18725035001E+04 0.  0.
    9900016    2    3    3    0    0  0.80722898543E+01  0.32796459652E+03  0.18123016839E+04  0.25696707102E+04  0.17919665808E+04 0.  0.
         24    2    4    4    0    0  0.60890482152E+03  0.33150722768E+03  0.16391264747E+04  0.17814523387E+04  0.78579330631E+02 0.  0.
        -15    1    5    5    0    0  0.20489758534E+03  0.14762157760E+03  0.54271381306E+03  0.59859287795E+03  0.00000000000E+00 0.  1.
        -15    1    3    3    0    0 -0.40683380352E+02 -0.18983896535E+02  0.19459335008E+02  0.48930476020E+02  0.00000000000E+00 0.  1.
         15    1    3    3    0    0  0.44899762007E+01  0.15807663516E+02  0.63265057768E+02  0.65364437169E+02  0.00000000000E+00 0. -1.
         15    1    4    4    0    0 -0.89361183509E+02  0.56656960446E+02 -0.14237573122E+03  0.17738737589E+03  0.00000000000E+00 0. -1.
        -16    1    1    2    0    0  0.28121114297E+02 -0.32478836350E+03  0.10699027621E+03  0.34311105686E+03  0.00000000000E+00 0.  1.
         16    1    5    5    0    0  0.40400723618E+03  0.18388565007E+03  0.10964126616E+04  0.11828594607E+04  0.00000000000E+00 0. -1.
    9900018    1    4    4    0    0 -0.51147134816E+03 -0.60199591601E+02  0.31555094044E+03  0.61083099563E+03  0.91187600000E+02 0.  0.
<mgrwt>
<rscale>  0 0.22704898E+04</rscale>
<asrwt>0</asrwt>
<pdfrwt beam="1">  1        1 0.38685330E+00 0.22704898E+04</pdfrwt>
<pdfrwt beam="2">  1       -1 0.78850796E-01 0.22704898E+04</pdfrwt>
<totfact> 0.19293564E+00</totfact>
</mgrwt>
</event>
