<event>
12    1  0.8144583E-011  0.2873236E+04  0.7818608E-02  0.8280885E-01
          2   -1    0    0  501    0  0.00000000000E+00  0.00000000000E+00  0.31478362416E+04  0.31478362416E+04  0.00000000000E+00 0. -1.
         -2   -1    0    0    0  501 -0.00000000000E+00 -0.00000000000E+00 -0.65564761303E+03  0.65564761303E+03  0.00000000000E+00 0.  1.
    9900016    2    1    2    0    0  0.28446825855E+03 -0.91670360982E+02  0.25594766308E+04  0.34971289617E+04  0.23642471752E+04 0.  0.
         23    2    3    3    0    0  0.29849253737E+03 -0.19077935225E+03 -0.24427920092E-01  0.36559495325E+03  0.90361015569E+02 0.  0.
        -24    2    3    3    0    0 -0.49127107473E+03 -0.48920203566E+03  0.15761106511E+04  0.17245192628E+04  0.95791455120E+02 0.  0.
        -15    1    4    4    0    0  0.18871200367E+03 -0.70825234642E+02 -0.16039112749E+02  0.20220209527E+03  0.00000000000E+00 0. -1.
        -15    1    3    3    0    0  0.39270304906E+03  0.72285742445E+03  0.78780848285E+03  0.11390262273E+04  0.00000000000E+00 0.  1.
         15    1    4    4    0    0  0.10978053369E+03 -0.11995411761E+03  0.16014684828E+02  0.16339285798E+03  0.00000000000E+00 0.  1.
         15    1    5    5    0    0 -0.26955686897E+03 -0.31542057904E+03  0.10191000529E+04  0.11003253905E+04  0.00000000000E+00 0. -1.
        -16    1    5    5    0    0 -0.22171420576E+03 -0.17378145662E+03  0.55701059824E+03  0.62419387233E+03  0.00000000000E+00 0.  1.
         16    1    1    2    0    0 -0.28446825855E+03  0.91670360982E+02 -0.67288002240E+02  0.30635489298E+03  0.00000000000E+00 0. -1.
    9900018    1    3    3    0    0  0.84543746861E+02 -0.13454639753E+03  0.19558192480E+03  0.26798851827E+03  0.91187600000E+02 0.  0.
<mgrwt>
<rscale>  0 0.28732360E+04</rscale>
<asrwt>0</asrwt>
<pdfrwt beam="1">  1        2 0.48428249E+00 0.28732360E+04</pdfrwt>
<pdfrwt beam="2">  1       -2 0.10086887E+00 0.28732360E+04</pdfrwt>
<totfact> 0.98075843E-01</totfact>
</mgrwt>
</event>
<event>
12    1  0.8144583E-011  0.2532781E+04  0.7818608E-02  0.8391399E-01
         -2   -1    0    0    0  501 -0.00000000000E+00  0.00000000000E+00  0.42219830076E+03  0.42219830076E+03  0.00000000000E+00 0.  1.
          2   -1    0    0  501    0  0.00000000000E+00 -0.00000000000E+00 -0.37985592242E+04  0.37985592242E+04  0.00000000000E+00 0. -1.
    9900016    2    1    2    0    0  0.18379563936E+03  0.15813496751E+03 -0.29489489154E+04  0.37293630504E+04  0.22700355837E+04 0.  0.
         23    2    3    3    0    0  0.42554723821E+02  0.25839519182E+03 -0.31199433142E+03  0.41736597418E+03  0.90966553687E+02 0.  0.
        -24    2    3    3    0    0 -0.86778428544E+03 -0.12456063401E+02 -0.13032740034E+04  0.15669180671E+04  0.59197815809E+02 0.  0.
        -15    1    3    3    0    0  0.99223445849E+03  0.45232390873E+01 -0.11399961682E+04  0.15113374685E+04  0.00000000000E+00 0.  1.
        -15    1    4    4    0    0 -0.86239043812E+00  0.14782712935E+03 -0.22857685914E+03  0.27221495995E+03  0.00000000000E+00 0.  1.
         15    1    5    5    0    0 -0.56197852140E+03  0.14055230132E+02 -0.87441335303E+03  0.10395268731E+04  0.00000000000E+00 0. -1.
         15    1    4    4    0    0  0.43417114259E+02  0.11056806247E+03 -0.83417472277E+02  0.14515101422E+03  0.00000000000E+00 0. -1.
        -16    1    5    5    0    0 -0.30580576404E+03 -0.26511293533E+02 -0.42886065037E+03  0.52739119394E+03  0.00000000000E+00 0.  1.
         16    1    1    2    0    0 -0.18379563936E+03 -0.15813496751E+03 -0.42741200806E+03  0.49139447456E+03  0.00000000000E+00 0. -1.
    9900018    1    3    3    0    0  0.16790742487E+02 -0.92327399998E+02 -0.19368441236E+03  0.23374154062E+03  0.91187600000E+02 0.  0.
<mgrwt>
<rscale>  0 0.25327813E+04</rscale>
<asrwt>0</asrwt>
<pdfrwt beam="1">  1        2 0.58439370E+00 0.25327813E+04</pdfrwt>
<pdfrwt beam="2">  1       -2 0.64953588E-01 0.25327813E+04</pdfrwt>
<totfact> 0.95966065E-01</totfact>
</mgrwt>
</event>
<event>
12    1  0.8144583E-011  0.2602080E+04  0.7818608E-02  0.8367495E-01
          1   -1    0    0  501    0  0.00000000000E+00  0.00000000000E+00  0.16492032315E+04  0.16492032315E+04  0.00000000000E+00 0. -1.
         -1   -1    0    0    0  501 -0.00000000000E+00 -0.00000000000E+00 -0.10263772324E+04  0.10263772324E+04  0.00000000000E+00 0.  1.
    9900016    2    1    2    0    0 -0.43905626696E+03  0.17052338118E+02  0.42385561354E+03  0.21932419913E+04  0.21065601495E+04 0.  0.
         23    2    3    3    0    0  0.43201401780E+02 -0.93718681790E+02  0.30227114239E+03  0.33221608033E+03  0.91379035208E+02 0.  0.
        -24    2    3    3    0    0  0.26762591766E+03 -0.19237884264E+03 -0.63956865709E+02  0.34194638629E+03  0.64835171967E+02 0.  0.
        -15    1    3    3    0    0 -0.66355909660E+03  0.75929970958E+03  0.25693342673E+03  0.10406063182E+04  0.00000000000E+00 0.  1.
        -15    1    4    4    0    0  0.59893051986E+02 -0.94307723298E+02  0.20448098707E+03  0.23300986766E+03  0.00000000000E+00 0. -1.
         15    1    5    5    0    0  0.16812612784E+03 -0.89783383450E+02 -0.56657393641E+02  0.19884041606E+03  0.00000000000E+00 0. -1.
         15    1    4    4    0    0 -0.16691650205E+02  0.58904150802E+00  0.97790155320E+02  0.99206212678E+02  0.00000000000E+00 0.  1.
        -16    1    5    5    0    0  0.99499789819E+02 -0.10259545919E+03 -0.72994720681E+01  0.14310597022E+03  0.00000000000E+00 0.  1.
         16    1    1    2    0    0  0.43905626696E+03 -0.17052338118E+02  0.19897038558E+03  0.48233847258E+03  0.00000000000E+00 0. -1.
    9900018    1    3    3    0    0 -0.86324489796E+02 -0.45614984703E+03 -0.71392089875E+02  0.47847320653E+03  0.91187600000E+02 0.  0.
<mgrwt>
<rscale>  0 0.26020797E+04</rscale>
<asrwt>0</asrwt>
<pdfrwt beam="1">  1        1 0.25372357E+00 0.26020797E+04</pdfrwt>
<pdfrwt beam="2">  1       -1 0.15790419E+00 0.26020797E+04</pdfrwt>
<totfact> 0.13783339E+00</totfact>
</mgrwt>
</event>
