<event>
11    1  0.4015579E-012  0.8618073E+03  0.7818608E-02  0.9474625E-01
         -1   -1    0    0    0  501 -0.00000000000E+00  0.00000000000E+00  0.37317434134E+03  0.37317434134E+03  0.00000000000E+00 0.  1.
          1   -1    0    0  501    0  0.00000000000E+00 -0.00000000000E+00 -0.49756354437E+03  0.49756354437E+03  0.00000000000E+00 0. -1.
    9900016    2    1    2    0    0 -0.11376659940E+03  0.39103477853E+02 -0.44945427911E+02  0.72657397024E+03  0.71513475767E+03 0.  0.
         23    2    3    3    0    0  0.96938931461E+02 -0.40713012280E+02 -0.23740742068E+03  0.27003125713E+03  0.74161247492E+02 0.  0.
        -15    1    4    4    0    0  0.41206904621E+02 -0.30485145997E-01 -0.16477121143E+03  0.16984570066E+03  0.00000000000E+00 0.  1.
        -15    1    3    3    0    0 -0.87064520871E+02  0.10482214849E+02  0.25909086234E+02  0.91440627579E+02  0.00000000000E+00 0.  1.
         15    1    3    3    0    0  0.48179733566E+02  0.68127686670E+02  0.68348476171E+02  0.10786186820E+03  0.00000000000E+00 0. -1.
         15    1    4    4    0    0  0.55732026840E+02 -0.40682527134E+02 -0.72636209254E+02  0.10018555647E+03  0.00000000000E+00 0. -1.
        -16    1    1    2    0    0  0.11376659940E+03 -0.39103477853E+02 -0.79443775116E+02  0.14416391547E+03  0.00000000000E+00 0.  1.
         16    1    3    3    0    0 -0.18967995600E+02  0.13625988649E+01  0.75444688923E+02  0.77804515418E+02  0.00000000000E+00 0. -1.
    9900018    1    3    3    0    0 -0.15285274796E+03 -0.15601025095E+00  0.22759741445E+02  0.17943570192E+03  0.91187600000E+02 0.  0.
<mgrwt>
<rscale>  0 0.86180728E+03</rscale>
<asrwt>0</asrwt>
<pdfrwt beam="1">  1        1 0.76548238E-01 0.86180728E+03</pdfrwt>
<pdfrwt beam="2">  1       -1 0.57411437E-01 0.86180728E+03</pdfrwt>
<totfact> 0.13843228E+02</totfact>
</mgrwt>
</event>
<event>
12    1  0.4015579E-012  0.9979037E+03  0.7818608E-02  0.9310847E-01
          1   -1    0    0  501    0  0.00000000000E+00  0.00000000000E+00  0.61864436547E+03  0.61864436547E+03  0.00000000000E+00 0. -1.
         -1   -1    0    0    0  501 -0.00000000000E+00 -0.00000000000E+00 -0.40241687394E+03  0.40241687394E+03  0.00000000000E+00 0.  1.
    9900016    2    1    2    0    0 -0.70052252977E+02 -0.22951050358E+03  0.16994985892E+03  0.77667627939E+03  0.71886069514E+03 0.  0.
         23    2    3    3    0    0 -0.32264334308E+02 -0.13973583258E+03  0.22876993008E+02  0.15559728271E+03  0.55857563546E+02 0.  0.
         23    2    3    3    0    0 -0.10090042067E+03  0.12587054081E+03 -0.99989222508E+01  0.20620981000E+03  0.12805553232E+03 0.  0.
        -15    1    5    5    0    0 -0.27326527110E+02  0.47763400976E+02  0.57383594943E+02  0.79504456008E+02  0.00000000000E+00 0.  1.
        -15    1    4    4    0    0  0.97769939697E+00 -0.10656846437E+03  0.10855660666E+02  0.10712440835E+03  0.00000000000E+00 0.  1.
         15    1    4    4    0    0 -0.33242033705E+02 -0.33167368203E+02  0.12021332342E+02  0.48472874369E+02  0.00000000000E+00 0. -1.
         15    1    5    5    0    0 -0.73573893557E+02  0.78107139839E+02 -0.67382517193E+02  0.12670535399E+03  0.00000000000E+00 0. -1.
        -16    1    1    2    0    0  0.70052252977E+02  0.22951050358E+03  0.46277632614E+02  0.24438496002E+03  0.00000000000E+00 0.  1.
         16    1    3    3    0    0  0.73323104410E+02 -0.15171087182E+03  0.22720069680E+03  0.28286502593E+03  0.00000000000E+00 0. -1.
    9900018    1    3    3    0    0 -0.10210602412E+02 -0.63934340005E+02 -0.70128908638E+02  0.13200416074E+03  0.91187600000E+02 0.  0.
<mgrwt>
<rscale>  0 0.99790367E+03</rscale>
<asrwt>0</asrwt>
<pdfrwt beam="1">  1        1 0.95176056E-01 0.99790367E+03</pdfrwt>
<pdfrwt beam="2">  1       -1 0.61910288E-01 0.99790367E+03</pdfrwt>
<totfact> 0.86940500E+01</totfact>
</mgrwt>
</event>
<event>
12    1  0.4015579E-012  0.1223101E+04  0.7818608E-02  0.9092873E-01
         -3   -1    0    0    0  501 -0.00000000000E+00  0.00000000000E+00  0.21137756239E+03  0.21137756239E+03  0.00000000000E+00 0.  1.
          3   -1    0    0  501    0  0.00000000000E+00 -0.00000000000E+00 -0.17693163936E+04  0.17693163936E+04  0.00000000000E+00 0. -1.
    9900016    2    1    2    0    0 -0.36041852769E+02 -0.40580290790E+03 -0.10375795785E+04  0.13198242509E+04  0.70667507127E+03 0.  0.
         23    2    3    3    0    0 -0.33551593031E+02 -0.18887555381E+03 -0.68807697939E+03  0.71842115827E+03  0.76676899099E+02 0.  0.
         23    2    3    3    0    0 -0.12370588917E+02 -0.15627975576E+03 -0.67042774621E+02  0.18774005708E+03  0.78582452712E+02 0.  0.
        -15    1    5    5    0    0  0.13340005467E+02 -0.13002524337E+03 -0.74203520819E+02  0.15030196992E+03  0.00000000000E+00 0. -1.
        -15    1    4    4    0    0 -0.37235993086E+02 -0.13262106902E+03 -0.35842611818E+03  0.38398456912E+03  0.00000000000E+00 0. -1.
         15    1    4    4    0    0  0.36844000550E+01 -0.56254484795E+02 -0.32965086121E+03  0.33443658915E+03  0.00000000000E+00 0.  1.
         15    1    5    5    0    0 -0.25710594384E+02 -0.26254512384E+02  0.71607461981E+01  0.37438087161E+02  0.00000000000E+00 0.  1.
        -16    1    3    3    0    0  0.63610231575E+02  0.85475406403E+02 -0.17132933627E+03  0.20175739919E+03  0.00000000000E+00 0.  1.
         16    1    1    2    0    0  0.36041852769E+02  0.40580290790E+03 -0.52035925265E+03  0.66086970503E+03  0.00000000000E+00 0. -1.
    9900018    1    3    3    0    0 -0.53729902397E+02 -0.14612300473E+03 -0.11113048825E+03  0.21190563640E+03  0.91187600000E+02 0.  0.
<mgrwt>
<rscale>  0 0.12231006E+04</rscale>
<asrwt>0</asrwt>
<pdfrwt beam="1">  1        3 0.27220253E+00 0.12231006E+04</pdfrwt>
<pdfrwt beam="2">  1       -3 0.32519624E-01 0.12231006E+04</pdfrwt>
<totfact> 0.13358666E+00</totfact>
</mgrwt>
</event>
<event>
11    1  0.4015579E-012  0.1556238E+04  0.7818608E-02  0.8847893E-01
          2   -1    0    0  501    0  0.00000000000E+00  0.00000000000E+00  0.62117872283E+03  0.62117872283E+03  0.00000000000E+00 0. -1.
         -2   -1    0    0    0  501 -0.00000000000E+00 -0.00000000000E+00 -0.97471046498E+03  0.97471046498E+03  0.00000000000E+00 0.  1.
    9900016    2    1    2    0    0  0.38545126938E+03 -0.10596515049E+03 -0.68347452759E+03  0.10775615541E+04  0.73088999096E+03 0.  0.
         23    2    3    3    0    0  0.91648523759E+01  0.26583264695E+02 -0.13529406778E+03  0.17708387224E+03  0.11074090730E+03 0.  0.
        -15    1    4    4    0    0  0.40538053601E+02  0.36343545943E+02 -0.13350405992E+03  0.14417878185E+03  0.00000000000E+00 0.  1.
        -15    1    3    3    0    0  0.22114584318E+02 -0.52650497140E+02  0.53431381164E+01  0.57355721716E+02  0.00000000000E+00 0. -1.
         15    1    4    4    0    0 -0.31373201225E+02 -0.97602812479E+01 -0.17900078577E+01  0.32905090386E+02  0.00000000000E+00 0. -1.
         15    1    3    3    0    0 -0.97491259274E+01 -0.55207054528E+01 -0.16981264683E+02  0.20344212820E+02  0.00000000000E+00 0.  1.
        -16    1    3    3    0    0 -0.19050346664E+02 -0.14011576229E+03  0.14747635599E+02  0.14217185132E+03  0.00000000000E+00 0.  1.
         16    1    1    2    0    0 -0.38545126938E+03  0.10596515049E+03  0.32994278543E+03  0.51832763368E+03  0.00000000000E+00 0. -1.
    9900018    1    3    3    0    0  0.38297130527E+03  0.65738549705E+02 -0.55128996884E+03  0.68060589604E+03  0.91187600000E+02 0.  0.
<mgrwt>
<rscale>  0 0.15562383E+04</rscale>
<asrwt>0</asrwt>
<pdfrwt beam="1">  1        2 0.95565957E-01 0.15562383E+04</pdfrwt>
<pdfrwt beam="2">  1       -2 0.14995546E+00 0.15562383E+04</pdfrwt>
<totfact> 0.13707053E+01</totfact>
</mgrwt>
</event>
<event>
11    1  0.4015579E-012  0.8879983E+03  0.7818608E-02  0.9440710E-01
          2   -1    0    0  501    0  0.00000000000E+00  0.00000000000E+00  0.31277611803E+04  0.31277611803E+04  0.00000000000E+00 0. -1.
         -2   -1    0    0    0  501 -0.00000000000E+00 -0.00000000000E+00 -0.63027591015E+02  0.63027591015E+02  0.00000000000E+00 0.  1.
    9900016    2    1    2    0    0 -0.26377627500E+02  0.34242152538E+02  0.19683107746E+04  0.20935142875E+04  0.71181912195E+03 0.  0.
         23    2    3    3    0    0  0.91246900908E+02 -0.16074246198E+03  0.35549012390E+03  0.40496407418E+03  0.58809328950E+02 0.  0.
        -15    1    4    4    0    0 -0.24829908977E+00 -0.18687296988E+02  0.76885135591E+02  0.79123958420E+02  0.00000000000E+00 0. -1.
        -15    1    3    3    0    0  0.20799234398E+02 -0.35274720887E+00  0.79066735042E+01  0.22254169678E+02  0.00000000000E+00 0. -1.
         15    1    4    4    0    0  0.91495199998E+02 -0.14205516499E+03  0.27860498831E+03  0.32584011576E+03  0.00000000000E+00 0.  1.
         15    1    3    3    0    0 -0.58799186733E+02  0.10089878061E+03  0.66256292760E+03  0.67277599639E+03  0.00000000000E+00 0.  1.
        -16    1    3    3    0    0 -0.94954999137E+02 -0.27855036115E+02  0.69851012365E+03  0.70548476081E+03  0.00000000000E+00 0.  1.
         16    1    1    2    0    0  0.26377627500E+02 -0.34242152538E+02  0.10964228146E+04  0.10972744838E+04  0.00000000000E+00 0. -1.
    9900018    1    3    3    0    0  0.15330423063E+02  0.12229361723E+03  0.24384092596E+03  0.28803528647E+03  0.91187600000E+02 0.  0.
<mgrwt>
<rscale>  0 0.88799832E+03</rscale>
<asrwt>0</asrwt>
<pdfrwt beam="1">  1        2 0.48119391E+00 0.88799832E+03</pdfrwt>
<pdfrwt beam="2">  1       -2 0.96965549E-02 0.88799832E+03</pdfrwt>
<totfact> 0.10871144E+02</totfact>
</mgrwt>
</event>
<event>
12    1  0.4015579E-012  0.1140941E+04  0.7818608E-02  0.9166182E-01
          2   -1    0    0  501    0  0.00000000000E+00  0.00000000000E+00  0.39312642578E+03  0.39312642578E+03  0.00000000000E+00 0. -1.
         -2   -1    0    0    0  501 -0.00000000000E+00 -0.00000000000E+00 -0.82781644994E+03  0.82781644994E+03  0.00000000000E+00 0.  1.
    9900016    2    1    2    0    0  0.22715391204E+03 -0.19109259744E+03 -0.11045323057E+03  0.78134672143E+03  0.71427410872E+03 0.  0.
         23    2    3    3    0    0  0.16094976658E+03 -0.13178753422E+03 -0.62559364477E+02  0.24070729161E+03  0.10369929899E+03 0.  0.
         23    2    3    3    0    0  0.29420742646E+02 -0.96581899710E+02 -0.21604908709E+03  0.25089882981E+03  0.77970323303E+02 0.  0.
        -15    1    5    5    0    0  0.45761407745E+02 -0.99521647667E+02 -0.17303922291E+03  0.20479559921E+03  0.00000000000E+00 0.  1.
        -15    1    4    4    0    0  0.64738608558E+02 -0.14416210683E+02 -0.59204939824E+02  0.88905227450E+02  0.00000000000E+00 0. -1.
         15    1    5    5    0    0 -0.16340665099E+02  0.29397479569E+01 -0.43009864187E+02  0.46103230595E+02  0.00000000000E+00 0. -1.
         15    1    4    4    0    0  0.96211158022E+02 -0.11737132354E+03 -0.33544246532E+01  0.15180206416E+03  0.00000000000E+00 0.  1.
        -16    1    1    2    0    0 -0.22715391204E+03  0.19109259744E+03 -0.32423679359E+03  0.43959615429E+03  0.00000000000E+00 0.  1.
         16    1    3    3    0    0 -0.14755711227E+02 -0.22967264396E+02  0.16667699952E+03  0.16889774545E+03  0.00000000000E+00 0. -1.
    9900018    1    3    3    0    0  0.51539114043E+02  0.60244100886E+02  0.14782214816E+01  0.12084285457E+03  0.91187600000E+02 0.  0.
<mgrwt>
<rscale>  0 0.11409409E+04</rscale>
<asrwt>0</asrwt>
<pdfrwt beam="1">  1        2 0.60480989E-01 0.11409409E+04</pdfrwt>
<pdfrwt beam="2">  1       -2 0.12735638E+00 0.11409409E+04</pdfrwt>
<totfact> 0.36718941E+01</totfact>
</mgrwt>
</event>
<event>
12    1  0.4015579E-012  0.8987146E+03  0.7818608E-02  0.9427190E-01
         -1   -1    0    0    0  501 -0.00000000000E+00  0.00000000000E+00  0.25366001297E+03  0.25366001297E+03  0.00000000000E+00 0.  1.
          1   -1    0    0  501    0  0.00000000000E+00 -0.00000000000E+00 -0.79603398941E+03  0.79603398941E+03  0.00000000000E+00 0. -1.
    9900016    2    1    2    0    0 -0.25279882771E+02  0.75053732912E+02 -0.62092312826E+03  0.93814982034E+03  0.69878996766E+03 0.  0.
         23    2    3    3    0    0  0.38639810394E+02  0.13587418351E+03 -0.23361465053E+03  0.28369733737E+03  0.77159222347E+02 0.  0.
         23    2    3    3    0    0  0.47398439304E+02 -0.78570179467E+02 -0.10413664491E+03  0.15565774995E+03  0.70462821080E+02 0.  0.
        -15    1    5    5    0    0  0.51994939428E+02 -0.32261256502E+02 -0.30057286849E+02  0.68174063176E+02  0.00000000000E+00 0. -1.
        -15    1    4    4    0    0  0.39855072567E+02  0.57822944679E+02 -0.56467523640E+02  0.90113822284E+02  0.00000000000E+00 0.  1.
         15    1    4    4    0    0 -0.12152621725E+01  0.78051238834E+02 -0.17714712689E+03  0.19358351508E+03  0.00000000000E+00 0. -1.
         15    1    5    5    0    0 -0.45965001242E+01 -0.46308922965E+02 -0.74079358066E+02  0.87483686771E+02  0.00000000000E+00 0.  1.
        -16    1    1    2    0    0  0.25279882771E+02 -0.75053732912E+02  0.78549151817E+02  0.11154418205E+03  0.00000000000E+00 0.  1.
         16    1    3    3    0    0 -0.21214888539E+03 -0.89758588914E+02 -0.11568739357E+03  0.25777379015E+03  0.00000000000E+00 0. -1.
    9900018    1    3    3    0    0  0.10083075292E+03  0.10750831778E+03 -0.16748443924E+03  0.24102094288E+03  0.91187600000E+02 0.  0.
<mgrwt>
<rscale>  0 0.89871462E+03</rscale>
<asrwt>0</asrwt>
<pdfrwt beam="1">  1        1 0.12246677E+00 0.89871462E+03</pdfrwt>
<pdfrwt beam="2">  1       -1 0.39024618E-01 0.89871462E+03</pdfrwt>
<totfact> 0.14297311E+02</totfact>
</mgrwt>
</event>
<event>
11    1  0.4015579E-012  0.1055329E+04  0.7818608E-02  0.9249860E-01
          2   -1    0    0  501    0  0.00000000000E+00  0.00000000000E+00  0.46756183015E+03  0.46756183015E+03  0.00000000000E+00 0.  1.
         -2   -1    0    0    0  501 -0.00000000000E+00 -0.00000000000E+00 -0.59549264298E+03  0.59549264298E+03  0.00000000000E+00 0. -1.
    9900016    2    1    2    0    0 -0.26767370852E+03  0.22227728521E+02 -0.18326443111E+01  0.76633232322E+03  0.71771762197E+03 0.  0.
         23    2    3    3    0    0 -0.16534953919E+02  0.64580953906E+02 -0.70813210304E+02  0.15679659952E+03  0.12299007505E+03 0.  0.
        -15    1    3    3    0    0 -0.15367056287E+02 -0.32210900386E+02 -0.33428326497E+02  0.48899299944E+02  0.00000000000E+00 0.  1.
        -15    1    4    4    0    0 -0.13765786044E+02  0.80191048471E+02  0.28823517347E+01  0.81415042048E+02  0.00000000000E+00 0.  1.
         15    1    4    4    0    0 -0.27691678755E+01 -0.15610094564E+02 -0.73695562039E+02  0.75381557475E+02  0.00000000000E+00 0. -1.
         15    1    3    3    0    0 -0.20996962411E+03  0.14746411165E+03 -0.72448205244E+02  0.26661142083E+03  0.00000000000E+00 0. -1.
        -16    1    3    3    0    0  0.19954116929E+02 -0.67415258298E+02 -0.25845277701E+01  0.70353845791E+02  0.00000000000E+00 0.  1.
         16    1    1    2    0    0  0.26767370852E+03 -0.22227728521E+02 -0.12609816852E+03  0.29672214991E+03  0.00000000000E+00 0. -1.
    9900018    1    3    3    0    0 -0.45756191130E+02 -0.90191178349E+02  0.17744162550E+03  0.22367115714E+03  0.91187600000E+02 0.  0.
<mgrwt>
<rscale>  0 0.10553286E+04</rscale>
<asrwt>0</asrwt>
<pdfrwt beam="1">  1        2 0.71932589E-01 0.10553286E+04</pdfrwt>
<pdfrwt beam="2">  1       -2 0.91614253E-01 0.10553286E+04</pdfrwt>
<totfact> 0.67224273E+01</totfact>
</mgrwt>
</event>
<event>
12    1  0.4252521E-012  0.8417354E+03  0.7818608E-02  0.9501497E-01
         -2   -1    0    0    0  501 -0.00000000000E+00  0.00000000000E+00  0.81779921634E+02  0.81779921634E+02  0.00000000000E+00 0.  1.
          2   -1    0    0  501    0  0.00000000000E+00 -0.00000000000E+00 -0.21659302963E+04  0.21659302963E+04  0.00000000000E+00 0. -1.
    9900016    2    1    2    0    0 -0.34724086050E+01 -0.96310888635E+02 -0.19986293560E+04  0.21188626742E+04  0.69697337437E+03 0.  0.
         23    2    3    3    0    0  0.29216435609E+02 -0.32397575353E+02 -0.23380363056E+03  0.25050880920E+03  0.78659537393E+02 0.  0.
         23    2    3    3    0    0 -0.11405381275E+03 -0.78808613052E+02 -0.17412062853E+03  0.23138204050E+03  0.63250183361E+02 0.  0.
        -15    1    4    4    0    0 -0.22162132739E+02 -0.23030668443E+02 -0.13522042177E+03  0.13894651590E+03  0.00000000000E+00 0. -1.
        -15    1    5    5    0    0 -0.10669560831E+02 -0.27692328219E+02 -0.11088399733E+02  0.31680548909E+02  0.00000000000E+00 0. -1.
         15    1    4    4    0    0  0.51378568348E+02 -0.93669069100E+01 -0.98583208795E+02  0.11156229330E+03  0.00000000000E+00 0.  1.
         15    1    5    5    0    0 -0.10338425192E+03 -0.51116284833E+02 -0.16303222879E+03  0.19970149159E+03  0.00000000000E+00 0.  1.
        -16    1    1    2    0    0  0.34724086050E+01  0.96310888635E+02 -0.85521018657E+02  0.12884754372E+03  0.00000000000E+00 0.  1.
         16    1    3    3    0    0 -0.51311330500E+01 -0.84074014094E+01 -0.14371103758E+04  0.14371441282E+04  0.00000000000E+00 0. -1.
    9900018    1    3    3    0    0  0.86496101586E+02  0.23302701180E+02 -0.15359472112E+03  0.19982769633E+03  0.91187600000E+02 0.  0.
<mgrwt>
<rscale>  0 0.84173537E+03</rscale>
<asrwt>0</asrwt>
<pdfrwt beam="1">  1        2 0.33322005E+00 0.84173537E+03</pdfrwt>
<pdfrwt beam="2">  1       -2 0.12581526E-01 0.84173537E+03</pdfrwt>
<totfact> 0.25906316E+02</totfact>
</mgrwt>
</event>
<event>
11    1  0.4015579E-012  0.1126548E+04  0.7818608E-02  0.9179696E-01
         -1   -1    0    0    0  501 -0.00000000000E+00  0.00000000000E+00  0.14828818377E+03  0.14828818377E+03  0.00000000000E+00 0.  1.
          1   -1    0    0  501    0  0.00000000000E+00 -0.00000000000E+00 -0.21396011355E+04  0.21396011355E+04  0.00000000000E+00 0. -1.
    9900016    2    1    2    0    0 -0.31693751771E+03  0.88177079724E+02 -0.12821805147E+04  0.15061646870E+04  0.71855452432E+03 0.  0.
         23    2    3    3    0    0 -0.26554571795E+03 -0.14364373053E+02 -0.47282442919E+03  0.54569696675E+03  0.59172418844E+02 0.  0.
        -15    1    4    4    0    0 -0.23808829892E+03 -0.25062240412E+02 -0.38815916519E+03  0.45605009757E+03  0.00000000000E+00 0.  1.
        -15    1    3    3    0    0  0.30794999223E+02  0.54821588055E+02 -0.15726107285E+03  0.16936582751E+03  0.00000000000E+00 0. -1.
         15    1    3    3    0    0 -0.76681655946E+02 -0.75715539521E+02 -0.22936540858E+03  0.25341943481E+03  0.00000000000E+00 0. -1.
         15    1    4    4    0    0 -0.27457419035E+02  0.10697867359E+02 -0.84665263997E+02  0.89646869180E+02  0.00000000000E+00 0.  1.
        -16    1    3    3    0    0 -0.17454787768E+02 -0.94208085814E+02 -0.11404060079E+03  0.14894660680E+03  0.00000000000E+00 0.  1.
         16    1    1    2    0    0  0.31693751771E+03 -0.88177079724E+02 -0.70913243698E+03  0.78172463227E+03  0.00000000000E+00 0. -1.
    9900018    1    3    3    0    0  0.11949644729E+02  0.21764349006E+03 -0.30868900333E+03  0.38873585111E+03  0.91187600000E+02 0.  0.
<mgrwt>
<rscale>  0 0.11265479E+04</rscale>
<asrwt>0</asrwt>
<pdfrwt beam="1">  1        1 0.32916938E+00 0.11265479E+04</pdfrwt>
<pdfrwt beam="2">  1       -1 0.22813568E-01 0.11265479E+04</pdfrwt>
<totfact> 0.39175289E+01</totfact>
</mgrwt>
</event>
<event>
12    1  0.4015579E-012  0.8314293E+03  0.7818608E-02  0.9515607E-01
         -1   -1    0    0    0  501 -0.00000000000E+00  0.00000000000E+00  0.32098192089E+03  0.32098192089E+03  0.00000000000E+00 0.  1.
          1   -1    0    0  501    0  0.00000000000E+00 -0.00000000000E+00 -0.53840618843E+03  0.53840618843E+03  0.00000000000E+00 0. -1.
    9900016    2    1    2    0    0 -0.20167113280E+02 -0.73773078045E+02 -0.16838367833E+03  0.76853570764E+03  0.74595233848E+03 0.  0.
         23    2    3    3    0    0 -0.49556096978E+02  0.72290340876E+02 -0.16369127978E+02  0.10528789707E+03  0.55999042738E+02 0.  0.
         23    2    3    3    0    0 -0.16921375064E+03 -0.13326904664E+03  0.97802986512E+02  0.24457588761E+03  0.62112868471E+02 0.  0.
        -15    1    5    5    0    0 -0.93473196101E+02 -0.11104087891E+03  0.60053511904E+02  0.15707876837E+03  0.00000000000E+00 0. -1.
        -15    1    4    4    0    0 -0.14271973499E+02  0.34085183958E+02 -0.34160290662E+02  0.50323100571E+02  0.00000000000E+00 0. -1.
         15    1    5    5    0    0 -0.75740554538E+02 -0.22228167728E+02  0.37749474608E+02  0.87497119241E+02  0.00000000000E+00 0.  1.
         15    1    4    4    0    0 -0.35284123479E+02  0.38205156918E+02  0.17791162684E+02  0.54964796502E+02  0.00000000000E+00 0.  1.
        -16    1    3    3    0    0  0.21216504551E+03  0.35869372599E+02 -0.10286558632E+03  0.23849936536E+03  0.00000000000E+00 0.  1.
         16    1    1    2    0    0  0.20167113280E+02  0.73773078045E+02 -0.49040589208E+02  0.90852401686E+02  0.00000000000E+00 0. -1.
    9900018    1    3    3    0    0 -0.13562311179E+02 -0.48663744878E+02 -0.14695195054E+03  0.18017255760E+03  0.91187600000E+02 0.  0.
<mgrwt>
<rscale>  0 0.83142926E+03</rscale>
<asrwt>0</asrwt>
<pdfrwt beam="1">  1        1 0.82831721E-01 0.83142926E+03</pdfrwt>
<pdfrwt beam="2">  1       -1 0.49381834E-01 0.83142926E+03</pdfrwt>
<totfact> 0.16600846E+02</totfact>
</mgrwt>
</event>
<event>
12    1  0.4015579E-012  0.1242823E+04  0.7818608E-02  0.9076178E-01
          1   -1    0    0  501    0  0.00000000000E+00  0.00000000000E+00  0.50534642056E+03  0.50534642056E+03  0.00000000000E+00 0. -1.
         -1   -1    0    0    0  501 -0.00000000000E+00 -0.00000000000E+00 -0.76413325971E+03  0.76413325971E+03  0.00000000000E+00 0.  1.
    9900016    2    1    2    0    0 -0.15107406470E+03  0.33932925066E+03 -0.36605443039E+03  0.88286094105E+03  0.71237622213E+03 0.  0.
         23    2    3    3    0    0  0.34123503745E-01  0.14900269217E+03 -0.82328258363E+02  0.18699318201E+03  0.77373797594E+02 0.  0.
         23    2    3    3    0    0  0.10498876871E+03 -0.81573140466E+02 -0.12108121398E+03  0.19191923979E+03  0.67048604908E+02 0.  0.
        -15    1    5    5    0    0  0.21288829135E+02 -0.37175453433E+02 -0.75435327258E+02  0.86750891537E+02  0.00000000000E+00 0.  1.
        -15    1    4    4    0    0 -0.13943123692E+02  0.14920924327E+03 -0.85672729771E+02  0.17261988762E+03  0.00000000000E+00 0.  1.
         15    1    5    5    0    0  0.83699939577E+02 -0.44397687033E+02 -0.45645886726E+02  0.10516834825E+03  0.00000000000E+00 0. -1.
         15    1    4    4    0    0  0.13977247196E+02 -0.20655110100E+00  0.33444714084E+01  0.14373294387E+02  0.00000000000E+00 0. -1.
        -16    1    3    3    0    0 -0.29165412809E+03  0.22358394461E+03 -0.11738935748E+03  0.38578772916E+03  0.00000000000E+00 0.  1.
         16    1    1    2    0    0  0.15107406470E+03 -0.33932925066E+03  0.10726759124E+03  0.38661873921E+03  0.00000000000E+00 0. -1.
    9900018    1    3    3    0    0  0.35557171174E+02  0.48315754348E+02 -0.45255600559E+02  0.11816079009E+03  0.91187600000E+02 0.  0.
<mgrwt>
<rscale>  0 0.12428226E+04</rscale>
<asrwt>0</asrwt>
<pdfrwt beam="1">  1        1 0.77745603E-01 0.12428226E+04</pdfrwt>
<pdfrwt beam="2">  1       -1 0.11755896E+00 0.12428226E+04</pdfrwt>
<totfact> 0.28061086E+01</totfact>
</mgrwt>
</event>
<event>
12    1  0.4015579E-012  0.9292350E+03  0.7818608E-02  0.9389756E-01
         -3   -1    0    0    0  501 -0.00000000000E+00  0.00000000000E+00  0.12852823709E+03  0.12852823709E+03  0.00000000000E+00 0.  1.
          3   -1    0    0  501    0  0.00000000000E+00 -0.00000000000E+00 -0.16795486644E+04  0.16795486644E+04  0.00000000000E+00 0. -1.
    9900016    2    1    2    0    0  0.15861496788E+03 -0.99740991328E+02 -0.12446771438E+04  0.14489763852E+04  0.71777740241E+03 0.  0.
         23    2    3    3    0    0  0.34754795414E+02 -0.11895350626E+03 -0.34785179657E+03  0.37522301084E+03  0.66585306390E+02 0.  0.
         23    2    3    3    0    0  0.17587558998E+03  0.98820229234E+01 -0.49330807398E+02  0.19792981022E+03  0.75583091266E+02 0.  0.
        -15    1    5    5    0    0  0.48786782891E+02 -0.18655472325E+01  0.19911072808E+02  0.52726476003E+02  0.00000000000E+00 0.  1.
        -15    1    4    4    0    0 -0.63267048463E+01 -0.49815529927E+02 -0.20724090880E+03  0.21323791524E+03  0.00000000000E+00 0. -1.
         15    1    5    5    0    0  0.12708880709E+03  0.11747570156E+02 -0.69241880206E+02  0.14520333422E+03  0.00000000000E+00 0. -1.
         15    1    4    4    0    0  0.41081500260E+02 -0.69137976336E+02 -0.14061088778E+03  0.16198509560E+03  0.00000000000E+00 0.  1.
        -16    1    3    3    0    0 -0.99709008272E+02 -0.27533736001E+02 -0.53106490597E+03  0.54104521743E+03  0.00000000000E+00 0.  1.
         16    1    1    2    0    0 -0.15861496788E+03  0.99740991328E+02 -0.30634328353E+03  0.35910051622E+03  0.00000000000E+00 0. -1.
    9900018    1    3    3    0    0  0.47693590757E+02  0.36864228013E+02 -0.31642963382E+03  0.33477834676E+03  0.91187600000E+02 0.  0.
<mgrwt>
<rscale>  0 0.92923502E+03</rscale>
<asrwt>0</asrwt>
<pdfrwt beam="1">  1        3 0.25839211E+00 0.92923502E+03</pdfrwt>
<pdfrwt beam="2">  1       -3 0.19773574E-01 0.92923502E+03</pdfrwt>
<totfact> 0.41176076E+00</totfact>
</mgrwt>
</event>
<event>
12    1  0.4015579E-012  0.7915285E+03  0.7818608E-02  0.9572361E-01
          1   -1    0    0  501    0  0.00000000000E+00  0.00000000000E+00  0.33641572290E+03  0.33641572290E+03  0.00000000000E+00 0. -1.
         -1   -1    0    0    0  501 -0.00000000000E+00 -0.00000000000E+00 -0.46558264934E+03  0.46558264934E+03  0.00000000000E+00 0.  1.
    9900016    2    1    2    0    0  0.29057559711E+02  0.16718945358E+02 -0.19132104353E+03  0.73137968362E+03  0.70511604364E+03 0.  0.
         23    2    3    3    0    0  0.26362313658E+02 -0.17291806457E+02  0.55434673640E+02  0.10015462097E+03  0.77226724053E+02 0.  0.
         23    2    3    3    0    0 -0.15833884689E+03 -0.53668063418E+02 -0.30744915074E+02  0.18363158627E+03  0.69454000652E+02 0.  0.
        -15    1    5    5    0    0 -0.10815276791E+03 -0.23161637522E+02  0.11622670151E+02  0.11121406890E+03  0.00000000000E+00 0.  1.
        -15    1    4    4    0    0 -0.11262691530E+02  0.18804099138E+02 -0.26757675370E+01  0.22081714082E+02  0.00000000000E+00 0. -1.
         15    1    4    4    0    0  0.37625005188E+02 -0.36095905594E+02  0.58110441177E+02  0.78072906887E+02  0.00000000000E+00 0.  1.
         15    1    5    5    0    0 -0.50186078985E+02 -0.30506425896E+02 -0.42367585225E+02  0.72417517374E+02  0.00000000000E+00 0. -1.
        -16    1    3    3    0    0  0.80878088313E+02  0.20145156574E+03 -0.16776935817E+03  0.27435479957E+03  0.00000000000E+00 0.  1.
         16    1    1    2    0    0 -0.29057559711E+02 -0.16718945358E+02  0.62154117101E+02  0.70618688623E+02  0.00000000000E+00 0. -1.
    9900018    1    3    3    0    0  0.80156004635E+02 -0.11377275050E+03 -0.48241443932E+02  0.17323867681E+03  0.91187600000E+02 0.  0.
<mgrwt>
<rscale>  0 0.79152845E+03</rscale>
<asrwt>0</asrwt>
<pdfrwt beam="1">  1        1 0.51756265E-01 0.79152845E+03</pdfrwt>
<pdfrwt beam="2">  1       -1 0.71628099E-01 0.79152845E+03</pdfrwt>
<totfact> 0.15034454E+02</totfact>
</mgrwt>
</event>
<event>
12    1  0.4015579E-012  0.1002681E+04  0.7818608E-02  0.9305609E-01
         -2   -1    0    0    0  501 -0.00000000000E+00  0.00000000000E+00  0.82822409634E+03  0.82822409634E+03  0.00000000000E+00 0. -1.
          2   -1    0    0  501    0  0.00000000000E+00 -0.00000000000E+00 -0.30347128923E+03  0.30347128923E+03  0.00000000000E+00 0.  1.
    9900016    2    1    2    0    0  0.23386187895E+03  0.11137755685E+03  0.35263601853E+03  0.82069614521E+03  0.69432964981E+03 0.  0.
         23    2    3    3    0    0  0.49694700854E+02 -0.26511390208E+02 -0.73308697411E+02  0.12056534240E+03  0.77391340388E+02 0.  0.
         23    2    3    3    0    0 -0.26193877808E+01  0.18368014940E+03  0.73555784667E+02  0.20635940902E+03  0.58553341138E+02 0.  0.
        -15    1    4    4    0    0  0.69712625303E+02 -0.16686596438E+02 -0.45429838843E+02  0.84865557705E+02  0.00000000000E+00 0.  1.
        -15    1    5    5    0    0 -0.75257966146E+01  0.14059567000E+03  0.28168247470E+02  0.14358701266E+03  0.00000000000E+00 0. -1.
         15    1    5    5    0    0  0.49064088338E+01  0.43084479392E+02  0.45387537197E+02  0.62772396361E+02  0.00000000000E+00 0.  1.
         15    1    4    4    0    0 -0.20017924449E+02 -0.98247937697E+01 -0.27878858568E+02  0.35699784690E+02  0.00000000000E+00 0. -1.
        -16    1    1    2    0    0 -0.23386187895E+03 -0.11137755685E+03  0.17211678858E+03  0.31099924036E+03  0.00000000000E+00 0.  1.
         16    1    3    3    0    0  0.12494595834E+03 -0.14626367305E+03  0.23690357025E+03  0.30516857007E+03  0.00000000000E+00 0. -1.
    9900018    1    3    3    0    0  0.61840607532E+02  0.10047247072E+03  0.11548536102E+03  0.18860282372E+03  0.91187600000E+02 0.  0.
<mgrwt>
<rscale>  0 0.10026809E+04</rscale>
<asrwt>0</asrwt>
<pdfrwt beam="1">  1        2 0.46687891E-01 0.10026809E+04</pdfrwt>
<pdfrwt beam="2">  1       -2 0.12741909E+00 0.10026809E+04</pdfrwt>
<totfact> 0.49405482E+01</totfact>
</mgrwt>
</event>
