<event>
11    1  0.1069583E-013  0.3267279E+04  0.7818608E-02  0.8171272E-01
          2   -1    0    0  501    0  0.00000000000E+00  0.00000000000E+00  0.24226807029E+04  0.24226807029E+04  0.00000000000E+00 0. -1.
         -2   -1    0    0    0  501 -0.00000000000E+00 -0.00000000000E+00 -0.11015802771E+04  0.11015802771E+04  0.00000000000E+00 0.  1.
    9900016    2    1    2    0    0  0.12747325494E+03 -0.57907802923E+03  0.16439049149E+04  0.28491435585E+04  0.22502477315E+04 0.  0.
         23    2    3    3    0    0 -0.26685814716E+03 -0.12313596464E+03  0.37012972869E+02  0.31483170929E+03  0.10664571495E+03 0.  0.
        -15    1    4    4    0    0 -0.78479383064E+02 -0.33749796407E+02 -0.37649725986E+02  0.93357186067E+02  0.00000000000E+00 0. -1.
        -15    1    3    3    0    0  0.15667947016E+00  0.15433854879E+03  0.31476681913E+03  0.35056891279E+03  0.00000000000E+00 0.  1.
         15    1    4    4    0    0 -0.18837876410E+03 -0.89386168237E+02  0.74662698855E+02  0.22147452322E+03  0.00000000000E+00 0.  1.
         15    1    3    3    0    0  0.33888147948E+03 -0.10272953132E+04  0.47628900643E+03  0.11819591936E+04  0.00000000000E+00 0. -1.
        -16    1    1    2    0    0 -0.12747325494E+03  0.57907802923E+03 -0.32280448907E+03  0.67511742151E+03  0.00000000000E+00 0.  1.
         16    1    3    3    0    0  0.32955331747E+02  0.43567429424E+03  0.78978104701E+03  0.90258088101E+03  0.00000000000E+00 0. -1.
    9900018    1    3    3    0    0  0.22337911399E+02 -0.18659594373E+02  0.26055069457E+02  0.99202861783E+02  0.91187600000E+02 0.  0.
<mgrwt>
<rscale>  0 0.32672785E+04</rscale>
<asrwt>0</asrwt>
<pdfrwt beam="1">  1        2 0.37272011E+00 0.32672785E+04</pdfrwt>
<pdfrwt beam="2">  1       -2 0.16947389E+00 0.32672785E+04</pdfrwt>
<totfact> 0.69449357E-01</totfact>
</mgrwt>
</event>
<event>
11    1  0.1069583E-013  0.2805044E+04  0.7818608E-02  0.8301704E-01
          1   -1    0    0  501    0  0.00000000000E+00  0.00000000000E+00  0.35445565327E+04  0.35445565327E+04  0.00000000000E+00 0. -1.
         -1   -1    0    0    0  501 -0.00000000000E+00 -0.00000000000E+00 -0.55495444735E+03  0.55495444735E+03  0.00000000000E+00 0.  1.
    9900016    2    1    2    0    0 -0.56010031465E+02 -0.39277432447E+03  0.19697661664E+04  0.29352611312E+04  0.21397126826E+04 0.  0.
        -24    2    3    3    0    0 -0.50707914446E+03 -0.78328297140E+03  0.45079761584E+03  0.10402297729E+04  0.90542906747E+02 0.  0.
        -15    1    3    3    0    0  0.67122029882E+03  0.40018959460E+03  0.77075161556E+03  0.10976094269E+04  0.00000000000E+00 0.  1.
        -15    1    3    3    0    0 -0.18403337607E+03  0.55918276834E+02  0.61763982506E+03  0.64689573401E+03  0.00000000000E+00 0.  1.
         15    1    4    4    0    0 -0.29706945791E+03 -0.45487253022E+03  0.31162226283E+03  0.62631279426E+03  0.00000000000E+00 0. -1.
         15    1    3    3    0    0 -0.36117809761E+02 -0.65599224503E+02  0.13057710999E+03  0.15052619736E+03  0.00000000000E+00 0. -1.
        -16    1    4    4    0    0 -0.21000968655E+03 -0.32841044118E+03  0.13917535302E+03  0.41391697864E+03  0.00000000000E+00 0.  1.
         16    1    1    2    0    0  0.13860757567E+03  0.39313400171E+03  0.90302615970E+03  0.99459672654E+03  0.00000000000E+00 0. -1.
    9900018    1    1    2    0    0 -0.82597544209E+02 -0.35967723738E+00  0.11680975924E+03  0.16965312235E+03  0.91187600000E+02 0.  0.
<mgrwt>
<rscale>  0 0.28050436E+04</rscale>
<asrwt>0</asrwt>
<pdfrwt beam="1">  1        1 0.54531637E+00 0.28050436E+04</pdfrwt>
<pdfrwt beam="2">  1       -1 0.85377610E-01 0.28050436E+04</pdfrwt>
<totfact> 0.27025016E-01</totfact>
</mgrwt>
</event>
<event>
11    1  0.1069583E-013  0.2890089E+04  0.7818608E-02  0.8275832E-01
          1   -1    0    0  501    0  0.00000000000E+00  0.00000000000E+00  0.12729004055E+04  0.12729004055E+04  0.00000000000E+00 0. -1.
         -1   -1    0    0    0  501 -0.00000000000E+00 -0.00000000000E+00 -0.16404693167E+04  0.16404693167E+04  0.00000000000E+00 0.  1.
    9900016    2    1    2    0    0  0.46390021692E+03 -0.12686692919E+03 -0.59819886036E+03  0.23799948048E+04  0.22528281704E+04 0.  0.
         24    2    3    3    0    0 -0.15865697328E+03 -0.50211135138E+03  0.40894384739E+03  0.67425681748E+03  0.10049547871E+03 0.  0.
        -15    1    4    4    0    0 -0.14301890445E+03 -0.29439399906E+03  0.26378881861E+03  0.42036504914E+03  0.00000000000E+00 0.  1.
        -15    1    3    3    0    0 -0.24876451981E+03 -0.21916806763E+02 -0.37163316218E+02  0.25247820660E+03  0.00000000000E+00 0.  1.
         15    1    3    3    0    0  0.80923681329E+03  0.38113085132E+03 -0.96579198132E+03  0.13163886573E+04  0.00000000000E+00 0. -1.
         15    1    3    3    0    0  0.14259858782E+02 -0.22581155459E+02  0.15541831016E+01  0.26751965151E+02  0.00000000000E+00 0. -1.
        -16    1    1    2    0    0 -0.46390021692E+03  0.12686692919E+03  0.23062994924E+03  0.53337491736E+03  0.00000000000E+00 0.  1.
         16    1    4    4    0    0 -0.15638068839E+02 -0.20771735232E+03  0.14515502878E+03  0.25389176834E+03  0.00000000000E+00 0. -1.
    9900018    1    3    3    0    0  0.47825037941E+02  0.38611533097E+02 -0.57415933221E+01  0.11011915832E+03  0.91187600000E+02 0.  0.
<mgrwt>
<rscale>  0 0.28900893E+04</rscale>
<asrwt>0</asrwt>
<pdfrwt beam="1">  1        1 0.19583083E+00 0.28900893E+04</pdfrwt>
<pdfrwt beam="2">  1       -1 0.25237989E+00 0.28900893E+04</pdfrwt>
<totfact> 0.54665838E-01</totfact>
</mgrwt>
</event>
<event>
11    1  0.1069583E-013  0.2701453E+04  0.7818608E-02  0.8334534E-01
         -2   -1    0    0    0  501 -0.00000000000E+00  0.00000000000E+00  0.10402940981E+04  0.10402940981E+04  0.00000000000E+00 0. -1.
          2   -1    0    0  501    0  0.00000000000E+00 -0.00000000000E+00 -0.17537939264E+04  0.17537939264E+04  0.00000000000E+00 0.  1.
    9900016    2    1    2    0    0  0.14889556925E+03 -0.12841021562E+03 -0.25629470285E+03  0.21752355042E+04  0.21511167914E+04 0.  0.
         23    2    3    3    0    0  0.34599030523E+03 -0.26052712936E+03 -0.28692402454E+02  0.44715453902E+03  0.10742556195E+03 0.  0.
        -15    1    3    3    0    0  0.20761990394E+01  0.83399684197E+02  0.27478549315E+03  0.28717048103E+03  0.00000000000E+00 0.  1.
        -15    1    4    4    0    0  0.23143146573E+03 -0.20913459809E+03  0.19808248162E+02  0.31255426752E+03  0.00000000000E+00 0. -1.
         15    1    3    3    0    0 -0.16534516644E+03 -0.24716941320E+03 -0.89787074636E+03  0.94583487991E+03  0.00000000000E+00 0. -1.
         15    1    4    4    0    0  0.11455883950E+03 -0.51392531266E+02 -0.48500650616E+02  0.13460027150E+03  0.00000000000E+00 0.  1.
        -16    1    1    2    0    0 -0.12628022310E+03  0.11920878070E+03 -0.48925482600E+03  0.51916058489E+03  0.00000000000E+00 0.  1.
         16    1    3    3    0    0 -0.33825768582E+02  0.29588664273E+03  0.39548295281E+03  0.49507560426E+03  0.00000000000E+00 0. -1.
    9900018    1    1    2    0    0 -0.22615346155E+02  0.92014349210E+01  0.32049700606E+02  0.99691935426E+02  0.91187600000E+02 0.  0.
<mgrwt>
<rscale>  0 0.27014526E+04</rscale>
<asrwt>0</asrwt>
<pdfrwt beam="1">  1        2 0.26981445E+00 0.27014526E+04</pdfrwt>
<pdfrwt beam="2">  1       -2 0.16004525E+00 0.27014526E+04</pdfrwt>
<totfact> 0.20214193E+00</totfact>
</mgrwt>
</event>
<event>
11    1  0.1069583E-013  0.2764597E+04  0.7818608E-02  0.8314345E-01
          2   -1    0    0  501    0  0.00000000000E+00  0.00000000000E+00  0.17758567307E+04  0.17758567307E+04  0.00000000000E+00 0. -1.
         -2   -1    0    0    0  501 -0.00000000000E+00 -0.00000000000E+00 -0.10759591045E+04  0.10759591045E+04  0.00000000000E+00 0.  1.
    9900016    2    1    2    0    0 -0.37778988956E+03  0.22799589809E+03  0.39272085046E+03  0.23141682725E+04  0.22375070495E+04 0.  0.
        -24    2    3    3    0    0 -0.17730508258E+03  0.40274495875E+03  0.53629192786E+03  0.69687616720E+03  0.66232668800E+02 0.  0.
        -15    1    3    3    0    0 -0.72580178511E+03 -0.29062123264E+03 -0.42343194063E+03  0.88912515456E+03  0.00000000000E+00 0.  1.
        -15    1    3    3    0    0  0.27092158754E+03 -0.64585497481E+02  0.83194902341E+02  0.29067367417E+03  0.00000000000E+00 0.  1.
         15    1    3    3    0    0  0.24829595079E+03  0.14474151978E+03  0.17664475557E+03  0.33734901275E+03  0.00000000000E+00 0. -1.
         15    1    4    4    0    0 -0.86696684659E+02  0.23077328296E+03  0.34614020708E+03  0.42495372244E+03  0.00000000000E+00 0. -1.
        -16    1    4    4    0    0 -0.90608397924E+02  0.17197167579E+03  0.19015172078E+03  0.27192244476E+03  0.00000000000E+00 0.  1.
         16    1    1    2    0    0  0.37778988956E+03 -0.22799589809E+03  0.30717677571E+03  0.53764756275E+03  0.00000000000E+00 0. -1.
    9900018    1    3    3    0    0  0.60994397985E+01  0.35716149671E+02  0.20021205313E+02  0.10014426379E+03  0.91187600000E+02 0.  0.
<mgrwt>
<rscale>  0 0.27645971E+04</rscale>
<asrwt>0</asrwt>
<pdfrwt beam="1">  1        2 0.27320873E+00 0.27645971E+04</pdfrwt>
<pdfrwt beam="2">  1       -2 0.16553217E+00 0.27645971E+04</pdfrwt>
<totfact> 0.17823970E+00</totfact>
</mgrwt>
</event>
