<event>
13    1  0.1168751E-007  0.5252924E+04  0.7818608E-02  0.7790633E-01
         -3   -1    0    0    0  501 -0.00000000000E+00  0.00000000000E+00  0.23046188354E+04  0.23046188354E+04  0.00000000000E+00 0.  1.
          3   -1    0    0  501    0  0.00000000000E+00 -0.00000000000E+00 -0.29932513268E+04  0.29932513268E+04  0.00000000000E+00 0. -1.
    9900016    2    1    2    0    0  0.17418154348E+03  0.77117303435E+03  0.68222205187E+03  0.24331698250E+04  0.21976900169E+04 0.  0.
         23    2    3    3    0    0  0.39113363540E+02  0.41487034783E+03 -0.79772139260E+03  0.90495923205E+03  0.94575529290E+02 0.  0.
    9900016    2    1    2    0    0 -0.26772165809E+03 -0.62349800433E+03 -0.11859825876E+04  0.25944218032E+04  0.22054580357E+04 0.  0.
         24    2    5    5    0    0  0.44174519970E+02 -0.42884872100E+03  0.61565534275E+03  0.75565406328E+03  0.78223708532E+02 0.  0.
        -15    1    4    4    0    0 -0.22039473364E+02  0.24537262839E+03 -0.48708015514E+03  0.54583930115E+03  0.00000000000E+00 0.  1.
        -15    1    6    6    0    0  0.64053980091E+02 -0.33050377788E+03  0.49664003440E+03  0.59998915267E+03  0.00000000000E+00 0.  1.
         15    1    5    5    0    0 -0.31189617806E+03 -0.19464928333E+03 -0.18016379304E+04  0.18387677400E+04  0.00000000000E+00 0. -1.
         15    1    4    4    0    0  0.61152836904E+02  0.16949771944E+03 -0.31064123745E+03  0.35911993089E+03  0.00000000000E+00 0. -1.
        -16    1    3    3    0    0  0.13506817994E+03  0.35630268651E+03  0.14799434445E+04  0.15282105930E+04  0.00000000000E+00 0.  1.
         16    1    6    6    0    0 -0.19879460120E+02 -0.98344943126E+02  0.11901530835E+03  0.15566491061E+03  0.00000000000E+00 0. -1.
    9900018    1    1    2    0    0  0.93540114608E+02 -0.14767503001E+03 -0.18487195567E+03  0.27027853396E+03  0.91187600000E+02 0.  0.
<mgrwt>
<rscale>  0 0.52529243E+04</rscale>
<asrwt>0</asrwt>
<pdfrwt beam="1">  1        3 0.46050020E+00 0.52529243E+04</pdfrwt>
<pdfrwt beam="2">  1       -3 0.35455674E+00 0.52529243E+04</pdfrwt>
<totfact> 0.18627178E-04</totfact>
</mgrwt>
</event>
<event>
13    1  0.1168751E-007  0.6888815E+04  0.7818608E-02  0.7589012E-01
          2   -1    0    0  501    0  0.00000000000E+00  0.00000000000E+00  0.30256778824E+04  0.30256778824E+04  0.00000000000E+00 0. -1.
         -2   -1    0    0    0  501 -0.00000000000E+00 -0.00000000000E+00 -0.39210859772E+04  0.39210859772E+04  0.00000000000E+00 0.  1.
    9900016    2    1    2    0    0 -0.14435653556E+04  0.29166924990E+03 -0.11292655212E+04  0.28829028770E+04  0.22061134362E+04 0.  0.
         23    2    3    3    0    0 -0.19865476544E+03  0.61813808005E+03  0.48670480269E+03  0.81705090695E+03  0.95562637742E+02 0.  0.
    9900016    2    1    2    0    0  0.13768113910E+04 -0.99320062823E+03 -0.72202533496E+03  0.28727986844E+04  0.22021795118E+04 0.  0.
        -24    2    5    5    0    0  0.31022718543E+02 -0.10369617218E+04 -0.10591527260E+04  0.14847363436E+04  0.79909270676E+02 0.  0.
        -15    1    5    5    0    0  0.13457886724E+04  0.43761093533E+02  0.33712739101E+03  0.13880623408E+04  0.00000000000E+00 0.  1.
        -15    1    4    4    0    0 -0.20341236395E+03  0.54214868595E+03  0.44458002050E+03  0.73003642520E+03  0.00000000000E+00 0.  1.
         15    1    4    4    0    0  0.47575985031E+01  0.75989394101E+02  0.42124782191E+02  0.87014481749E+02  0.00000000000E+00 0. -1.
         15    1    6    6    0    0  0.43037785979E+02 -0.26936297637E+03 -0.27303843357E+03  0.38595161648E+03  0.00000000000E+00 0. -1.
        -16    1    6    6    0    0 -0.12015067436E+02 -0.76759874539E+03 -0.78611429241E+03  0.10987847271E+04  0.00000000000E+00 0.  1.
         16    1    3    3    0    0 -0.12449105901E+04 -0.32646883015E+03 -0.16159703238E+04  0.20658519700E+04  0.00000000000E+00 0. -1.
    9900018    1    1    2    0    0  0.66753964613E+02  0.70153137833E+03  0.95588276129E+03  0.11910622982E+04  0.91187600000E+02 0.  0.
<mgrwt>
<rscale>  0 0.68888150E+04</rscale>
<asrwt>0</asrwt>
<pdfrwt beam="1">  1        2 0.46548891E+00 0.68888150E+04</pdfrwt>
<pdfrwt beam="2">  1       -2 0.60324399E+00 0.68888150E+04</pdfrwt>
<totfact> 0.53492875E-04</totfact>
</mgrwt>
</event>
<event>
13    1  0.1168751E-007  0.5328400E+04  0.7818608E-02  0.7779753E-01
         -2   -1    0    0    0  501 -0.00000000000E+00  0.00000000000E+00  0.22391873110E+04  0.22391873110E+04  0.00000000000E+00 0.  1.
          2   -1    0    0  501    0  0.00000000000E+00 -0.00000000000E+00 -0.31698830240E+04  0.31698830240E+04  0.00000000000E+00 0. -1.
    9900016    2    1    2    0    0  0.54194731175E+03 -0.11649070142E+04 -0.31744294624E+03  0.25750095810E+04  0.22088886522E+04 0.  0.
         23    2    3    3    0    0 -0.69211840992E+03 -0.15545578806E+03  0.40800730199E+03  0.82338517892E+03  0.91097744199E+02 0.  0.
    9900016    2    1    2    0    0 -0.28986356512E+03  0.10580209093E+04 -0.47011044632E+03  0.25119183055E+04  0.22102716148E+04 0.  0.
         24    2    5    5    0    0  0.74276211164E+03 -0.23542541391E+03  0.26133266934E+02  0.78403607509E+03  0.83120030129E+02 0.  0.
        -15    1    4    4    0    0 -0.62240014605E+03 -0.11091084838E+03  0.36763197127E+03  0.73132511539E+03  0.00000000000E+00 0.  1.
        -15    1    6    6    0    0  0.46380998913E+03 -0.11215688009E+03 -0.73051767630E+01  0.47723394407E+03  0.00000000000E+00 0.  1.
         15    1    4    4    0    0 -0.69718263870E+02 -0.44544939673E+02  0.40375330721E+02  0.92060063536E+02  0.00000000000E+00 0. -1.
         15    1    5    5    0    0 -0.10326256768E+04  0.12934463232E+04 -0.49624371325E+03  0.17278822304E+04  0.00000000000E+00 0. -1.
        -16    1    3    3    0    0  0.12340657217E+04 -0.10094512261E+04 -0.72545024823E+03  0.17516244021E+04  0.00000000000E+00 0.  1.
         16    1    6    6    0    0  0.27895212250E+03 -0.12326853382E+03  0.33438443697E+02  0.30680213102E+03  0.00000000000E+00 0. -1.
    9900018    1    1    2    0    0 -0.25208374662E+03  0.10688610490E+03 -0.14314232044E+03  0.32214244834E+03  0.91187600000E+02 0.  0.
<mgrwt>
<rscale>  0 0.53284001E+04</rscale>
<asrwt>0</asrwt>
<pdfrwt beam="1">  1        2 0.48767431E+00 0.53284001E+04</pdfrwt>
<pdfrwt beam="2">  1       -2 0.34449036E+00 0.53284001E+04</pdfrwt>
<totfact> 0.16204296E-02</totfact>
</mgrwt>
</event>
<event>
13    1  0.1168751E-007  0.7666297E+04  0.7818608E-02  0.7512369E-01
          1   -1    0    0  501    0  0.00000000000E+00  0.00000000000E+00  0.48448059438E+04  0.48448059438E+04  0.00000000000E+00 0. -1.
         -1   -1    0    0    0  501 -0.00000000000E+00 -0.00000000000E+00 -0.30327376763E+04  0.30327376763E+04  0.00000000000E+00 0.  1.
    9900016    2    1    2    0    0 -0.18716948841E+03  0.89942555546E+03  0.35208203802E+04  0.42425730633E+04  0.21815708333E+04 0.  0.
         23    2    3    3    0    0  0.18133741925E+03 -0.24400628596E+02 -0.26070535336E+03  0.33243380325E+03  0.95217130670E+02 0.  0.
    9900016    2    1    2    0    0 -0.20587178866E+03 -0.89970125002E+02 -0.71556577773E+03  0.22916784017E+04  0.21654740123E+04 0.  0.
        -24    2    5    5    0    0 -0.47119533635E+03 -0.73401477229E+03  0.41070107522E+03  0.96741743171E+03  0.80114811741E+02 0.  0.
        -15    1    5    5    0    0  0.26532354769E+03  0.64404464729E+03 -0.11262668529E+04  0.13242609700E+04  0.00000000000E+00 0.  1.
        -15    1    4    4    0    0  0.17463665806E+03 -0.42044325589E+02 -0.19981305094E+03  0.26868372295E+03  0.00000000000E+00 0.  1.
         15    1    6    6    0    0 -0.24259474548E+03 -0.43009160193E+03  0.26280486091E+03  0.55937231922E+03  0.00000000000E+00 0. -1.
         15    1    4    4    0    0  0.67007611993E+01  0.17643696993E+02 -0.60892302419E+02  0.63750080299E+02  0.00000000000E+00 0. -1.
        -16    1    6    6    0    0 -0.22860059087E+03 -0.30392317036E+03  0.14789621431E+03  0.40804511250E+03  0.00000000000E+00 0.  1.
         16    1    3    3    0    0 -0.36850690767E+03  0.92382618405E+03  0.37815257335E+04  0.39101392600E+04  0.00000000000E+00 0. -1.
    9900018    1    1    2    0    0  0.39304127707E+03 -0.80945543046E+03 -0.99318633501E+03  0.13432921550E+04  0.91187600000E+02 0.  0.
<mgrwt>
<rscale>  0 0.76662965E+04</rscale>
<asrwt>0</asrwt>
<pdfrwt beam="1">  1        1 0.74535476E+00 0.76662965E+04</pdfrwt>
<pdfrwt beam="2">  1       -1 0.46657503E+00 0.76662965E+04</pdfrwt>
<totfact> 0.19580839E-05</totfact>
</mgrwt>
</event>
<event>
13    1  0.1168751E-007  0.5140354E+04  0.7818608E-02  0.7807214E-01
         -2   -1    0    0    0  501 -0.00000000000E+00  0.00000000000E+00  0.13390941573E+04  0.13390941573E+04  0.00000000000E+00 0.  1.
          2   -1    0    0  501    0  0.00000000000E+00 -0.00000000000E+00 -0.49330443759E+04  0.49330443759E+04  0.00000000000E+00 0. -1.
    9900016    2    1    2    0    0  0.68828770595E+03  0.51523964270E+03 -0.27903567757E+04  0.36587680341E+04  0.22048312262E+04 0.  0.
         23    2    3    3    0    0 -0.94526225640E+02  0.51482023559E+02  0.35613724687E+03  0.38336066783E+03  0.92444885999E+02 0.  0.
    9900016    2    1    2    0    0 -0.70516317781E+03 -0.47027985536E+03 -0.84238114657E+03  0.25032531601E+04  0.21996027227E+04 0.  0.
        -24    2    5    5    0    0 -0.43671363581E+03  0.87465494529E+03 -0.27038437472E+03  0.10172871169E+04  0.77622773966E+02 0.  0.
        -15    1    4    4    0    0 -0.35192462306E+02  0.58363412327E+02  0.27047669343E+03  0.27893088569E+03  0.00000000000E+00 0. -1.
        -15    1    5    5    0    0 -0.26844954200E+03 -0.13449348006E+04 -0.57199677184E+03  0.14859660432E+04  0.00000000000E+00 0.  1.
         15    1    4    4    0    0 -0.59333763334E+02 -0.68813887678E+01  0.85660553443E+02  0.10442978215E+03  0.00000000000E+00 0.  1.
         15    1    6    6    0    0 -0.30256737916E+03  0.55543243306E+03 -0.20512891726E+03  0.66492862724E+03  0.00000000000E+00 0. -1.
        -16    1    6    6    0    0 -0.13414625665E+03  0.31922251223E+03 -0.65255457462E+02  0.35235848963E+03  0.00000000000E+00 0.  1.
         16    1    3    3    0    0  0.78281393159E+03  0.46375761914E+03 -0.31464940226E+04  0.32754073662E+04  0.00000000000E+00 0. -1.
    9900018    1    1    2    0    0  0.16875471859E+02 -0.44959787340E+02  0.38787703609E+02  0.11011733911E+03  0.91187600000E+02 0.  0.
<mgrwt>
<rscale>  0 0.51403544E+04</rscale>
<asrwt>0</asrwt>
<pdfrwt beam="1">  1        2 0.75892990E+00 0.51403544E+04</pdfrwt>
<pdfrwt beam="2">  1       -2 0.20601449E+00 0.51403544E+04</pdfrwt>
<totfact> 0.35758819E-03</totfact>
</mgrwt>
</event>
<event>
13    1  0.1168751E-007  0.5414156E+04  0.7818608E-02  0.7767613E-01
          1   -1    0    0  501    0  0.00000000000E+00  0.00000000000E+00  0.20985792067E+04  0.20985792067E+04  0.00000000000E+00 0. -1.
         -1   -1    0    0    0  501 -0.00000000000E+00 -0.00000000000E+00 -0.34920150874E+04  0.34920150874E+04  0.00000000000E+00 0.  1.
    9900016    2    1    2    0    0  0.15287041693E+03  0.59360379508E+03  0.48530325391E+03  0.23390834765E+04  0.22045537942E+04 0.  0.
         23    2    3    3    0    0 -0.19828681438E+03 -0.34614817392E+03 -0.68500073668E+03  0.79763720925E+03  0.88672934221E+02 0.  0.
    9900016    2    1    2    0    0  0.14272088755E+03 -0.31218285653E+03 -0.14652863231E+04  0.26634373786E+04  0.21975002329E+04 0.  0.
        -24    2    5    5    0    0 -0.41593845070E+03 -0.10840052811E+04 -0.39223219758E+03  0.12284268325E+04  0.84345371009E+02 0.  0.
        -15    1    5    5    0    0  0.55865933825E+03  0.77182242460E+03 -0.10730541255E+04  0.14350105461E+04  0.00000000000E+00 0.  1.
        -15    1    4    4    0    0 -0.43534720192E+02 -0.13829233314E+03 -0.30477796077E+03  0.33750503202E+03  0.00000000000E+00 0.  1.
         15    1    4    4    0    0 -0.15475209419E+03 -0.20785584078E+03 -0.38022277590E+03  0.46013217723E+03  0.00000000000E+00 0. -1.
         15    1    6    6    0    0 -0.24395634975E+03 -0.74563390500E+03 -0.26042063846E+03  0.82662175740E+03  0.00000000000E+00 0. -1.
        -16    1    6    6    0    0 -0.17198210094E+03 -0.33837137613E+03 -0.13181155912E+03  0.40180507506E+03  0.00000000000E+00 0.  1.
         16    1    3    3    0    0  0.35115723131E+03  0.93975196901E+03  0.11703039906E+04  0.15414462672E+04  0.00000000000E+00 0. -1.
    9900018    1    1    2    0    0 -0.29559130448E+03 -0.28142093856E+03 -0.41345281153E+03  0.58807343903E+03  0.91187600000E+02 0.  0.
<mgrwt>
<rscale>  0 0.54141556E+04</rscale>
<asrwt>0</asrwt>
<pdfrwt beam="1">  1        1 0.32285834E+00 0.54141556E+04</pdfrwt>
<pdfrwt beam="2">  1       -1 0.53723309E+00 0.54141556E+04</pdfrwt>
<totfact> 0.15947518E-03</totfact>
</mgrwt>
</event>
<event>
13    1  0.1168751E-007  0.5212622E+04  0.7818608E-02  0.7796520E-01
          1   -1    0    0  501    0  0.00000000000E+00  0.00000000000E+00  0.23582101838E+04  0.23582101838E+04  0.00000000000E+00 0. -1.
         -1   -1    0    0    0  501 -0.00000000000E+00 -0.00000000000E+00 -0.28805143184E+04  0.28805143184E+04  0.00000000000E+00 0.  1.
    9900016    2    1    2    0    0  0.37012917151E+03  0.33856688923E+03  0.53292425284E+03  0.23186960937E+04  0.22001636697E+04 0.  0.
         23    2    3    3    0    0  0.10775333880E+03  0.27659482328E+03 -0.85240140760E+03  0.90738152915E+03  0.92938697389E+02 0.  0.
    9900016    2    1    2    0    0 -0.33020488994E+03 -0.46791500272E+03 -0.47933999946E+03  0.23214571959E+04  0.21980484431E+04 0.  0.
        -24    2    5    5    0    0 -0.27634091466E+02  0.53307838173E+03  0.60799807926E+03  0.81286813948E+03  0.78464920258E+02 0.  0.
        -15    1    4    4    0    0  0.11725170073E+02  0.15439971017E+03 -0.39301257294E+03  0.42241642085E+03  0.00000000000E+00 0.  1.
        -15    1    5    5    0    0 -0.30257079848E+03 -0.10009933844E+04 -0.10873380787E+04  0.15085890564E+04  0.00000000000E+00 0.  1.
         15    1    4    4    0    0  0.96028168728E+02  0.12219511311E+03 -0.45938883466E+03  0.48496510830E+03  0.00000000000E+00 0. -1.
         15    1    6    6    0    0 -0.45112566267E+02  0.31243876833E+03  0.39554793191E+03  0.50607439575E+03  0.00000000000E+00 0. -1.
        -16    1    6    6    0    0  0.17478474801E+02  0.22063961340E+03  0.21245014735E+03  0.30679374373E+03  0.00000000000E+00 0.  1.
         16    1    3    3    0    0  0.26237583271E+03  0.61972065952E+02  0.13853256604E+04  0.14113145645E+04  0.00000000000E+00 0. -1.
    9900018    1    1    2    0    0 -0.39924281569E+02  0.12934811348E+03 -0.57588838796E+03  0.59857121255E+03  0.91187600000E+02 0.  0.
<mgrwt>
<rscale>  0 0.52126224E+04</rscale>
<asrwt>0</asrwt>
<pdfrwt beam="1">  1        1 0.36280157E+00 0.52126224E+04</pdfrwt>
<pdfrwt beam="2">  1       -1 0.44315605E+00 0.52126224E+04</pdfrwt>
<totfact> 0.43579108E-03</totfact>
</mgrwt>
</event>
<event>
13    1  0.1168751E-007  0.6428021E+04  0.7818608E-02  0.7639485E-01
          2   -1    0    0  501    0  0.00000000000E+00  0.00000000000E+00  0.35110222129E+04  0.35110222129E+04  0.00000000000E+00 0. -1.
         -2   -1    0    0    0  501 -0.00000000000E+00 -0.00000000000E+00 -0.29421244064E+04  0.29421244064E+04  0.00000000000E+00 0.  1.
    9900016    2    1    2    0    0  0.22790530945E+03  0.17108598917E+04  0.72553459038E+02  0.27530305479E+04  0.21435789685E+04 0.  0.
         23    2    3    3    0    0 -0.58794805563E+02  0.21945946518E+03  0.96211065541E+03  0.99297822090E+03  0.93432049673E+02 0.  0.
    9900016    2    1    2    0    0 -0.77550557016E+03 -0.73823716990E+03  0.73785569060E+03  0.25544704404E+04  0.21987462797E+04 0.  0.
        -24    2    5    5    0    0 -0.23066490542E+02 -0.63327705550E+03 -0.68814110423E+03  0.93872044336E+03  0.78012815913E+02 0.  0.
        -15    1    4    4    0    0 -0.39063953751E+02  0.97303464097E+02  0.62793773244E+03  0.63663156726E+03  0.00000000000E+00 0. -1.
        -15    1    5    5    0    0 -0.75243907962E+03 -0.10496011441E+03  0.14259967948E+04  0.16157499971E+04  0.00000000000E+00 0.  1.
         15    1    4    4    0    0 -0.19730851812E+02  0.12215600108E+03  0.33417292297E+03  0.35634665364E+03  0.00000000000E+00 0.  1.
         15    1    6    6    0    0 -0.11017779760E+01 -0.44195300595E+03 -0.42966244487E+03  0.61638745114E+03  0.00000000000E+00 0. -1.
        -16    1    6    6    0    0 -0.21964712566E+02 -0.19132404954E+03 -0.25847865936E+03  0.32233299222E+03  0.00000000000E+00 0.  1.
         16    1    3    3    0    0  0.28670011502E+03  0.14914004265E+04 -0.88955719637E+03  0.17600523270E+04  0.00000000000E+00 0. -1.
    9900018    1    1    2    0    0  0.54760026071E+03 -0.97262272178E+03 -0.24151134310E+03  0.11456456309E+04  0.91187600000E+02 0.  0.
<mgrwt>
<rscale>  0 0.64280212E+04</rscale>
<asrwt>0</asrwt>
<pdfrwt beam="1">  1        2 0.54015726E+00 0.64280212E+04</pdfrwt>
<pdfrwt beam="2">  1       -2 0.45263453E+00 0.64280212E+04</pdfrwt>
<totfact> 0.17406368E-03</totfact>
</mgrwt>
</event>
<event>
13    1  0.1168751E-007  0.5376761E+04  0.7818608E-02  0.7772878E-01
          2   -1    0    0  501    0  0.00000000000E+00  0.00000000000E+00  0.25970942998E+04  0.25970942998E+04  0.00000000000E+00 0. -1.
         -2   -1    0    0    0  501 -0.00000000000E+00 -0.00000000000E+00 -0.27828754935E+04  0.27828754935E+04  0.00000000000E+00 0.  1.
    9900016    2    1    2    0    0  0.65444995486E+02  0.42127569370E+03  0.61893389381E+02  0.22361853871E+04  0.21942967065E+04 0.  0.
         23    2    3    3    0    0 -0.28022763177E+03 -0.33215650463E+03  0.93365179970E+03  0.10332255504E+04  0.83629454869E+02 0.  0.
    9900016    2    1    2    0    0 -0.42811997568E+03 -0.81587460938E+03 -0.65265586958E+03  0.24658710885E+04  0.21921729971E+04 0.  0.
         24    2    5    5    0    0  0.19099579951E+03 -0.32162576290E+03 -0.13543622275E+04  0.14075809213E+04  0.84050460621E+02 0.  0.
        -15    1    6    6    0    0  0.14022241049E+03 -0.22394454000E+03 -0.80358392288E+03  0.84590815252E+03  0.00000000000E+00 0.  1.
        -15    1    4    4    0    0 -0.22636921893E+03 -0.21527709807E+03  0.62171401513E+03  0.69578413955E+03  0.00000000000E+00 0. -1.
         15    1    4    4    0    0 -0.53858412838E+02 -0.11687940656E+03  0.31193778456E+03  0.33744141084E+03  0.00000000000E+00 0.  1.
         15    1    5    5    0    0 -0.61911577519E+03 -0.49424884649E+03  0.70170635788E+03  0.10582901672E+04  0.00000000000E+00 0. -1.
        -16    1    3    3    0    0  0.34567262725E+03  0.75343219833E+03 -0.87175841032E+03  0.12029598367E+04  0.00000000000E+00 0.  1.
         16    1    6    6    0    0  0.50773389023E+02 -0.97681222899E+02 -0.55077830459E+03  0.56167276874E+03  0.00000000000E+00 0. -1.
    9900018    1    1    2    0    0  0.36267498019E+03  0.39459891569E+03  0.40498128653E+03  0.67791331772E+03  0.91187600000E+02 0.  0.
<mgrwt>
<rscale>  0 0.53767611E+04</rscale>
<asrwt>0</asrwt>
<pdfrwt beam="1">  1        2 0.39955297E+00 0.53767611E+04</pdfrwt>
<pdfrwt beam="2">  1       -2 0.42813469E+00 0.53767611E+04</pdfrwt>
<totfact> 0.10481345E-02</totfact>
</mgrwt>
</event>
<event>
13    1  0.1168751E-007  0.5928301E+04  0.7818608E-02  0.7699356E-01
          2   -1    0    0  501    0  0.00000000000E+00  0.00000000000E+00  0.37274847990E+04  0.37274847990E+04  0.00000000000E+00 0.  1.
         -2   -1    0    0    0  501 -0.00000000000E+00 -0.00000000000E+00 -0.23571354894E+04  0.23571354894E+04  0.00000000000E+00 0. -1.
    9900016    2    1    2    0    0  0.14119056625E+04 -0.73629455601E+03  0.12967030732E+04  0.30092364154E+04  0.21996494427E+04 0.  0.
         23    2    3    3    0    0 -0.29293186475E+03  0.34446516648E+03  0.81093538529E+03  0.93306618669E+03  0.92363311552E+02 0.  0.
    9900016    2    1    2    0    0 -0.77499243872E+03  0.52426080109E+03  0.12302897966E+03  0.23961412054E+04  0.22024744900E+04 0.  0.
         24    2    5    5    0    0  0.76282720339E+03  0.21035833428E+03  0.21550883230E+03  0.82388914757E+03  0.78697520026E+02 0.  0.
        -15    1    6    6    0    0  0.44632656998E+03  0.82850528801E+02  0.11930950610E+03  0.46936805967E+03  0.00000000000E+00 0.  1.
        -15    1    4    4    0    0 -0.17569167009E+03  0.26634610082E+03  0.59683828323E+03  0.67677451539E+03  0.00000000000E+00 0.  1.
         15    1    5    5    0    0 -0.15378196421E+04  0.31390246681E+03 -0.92479852639E+02  0.15722520579E+04  0.00000000000E+00 0. -1.
         15    1    4    4    0    0 -0.11724019466E+03  0.78119065663E+02  0.21409710207E+03  0.25629167130E+03  0.00000000000E+00 0. -1.
        -16    1    3    3    0    0  0.17048375272E+04 -0.10807597225E+04  0.48576768792E+03  0.20761702287E+04  0.00000000000E+00 0.  1.
         16    1    6    6    0    0  0.31650063341E+03  0.12750780548E+03  0.96199326199E+02  0.35452108790E+03  0.00000000000E+00 0. -1.
    9900018    1    1    2    0    0 -0.63691322375E+03  0.21203375492E+03 -0.49382743280E+02  0.67924266764E+03  0.91187600000E+02 0.  0.
<mgrwt>
<rscale>  0 0.59283005E+04</rscale>
<asrwt>0</asrwt>
<pdfrwt beam="1">  1        2 0.57345920E+00 0.59283005E+04</pdfrwt>
<pdfrwt beam="2">  1       -2 0.36263623E+00 0.59283005E+04</pdfrwt>
<totfact> 0.48618249E-03</totfact>
</mgrwt>
</event>
<event>
13    1  0.1168751E-007  0.6678557E+04  0.7818608E-02  0.7611526E-01
          1   -1    0    0  501    0  0.00000000000E+00  0.00000000000E+00  0.42774871668E+04  0.42774871668E+04  0.00000000000E+00 0. -1.
         -1   -1    0    0    0  501 -0.00000000000E+00 -0.00000000000E+00 -0.26068527697E+04  0.26068527697E+04  0.00000000000E+00 0.  1.
    9900016    2    1    2    0    0  0.12973909470E+04 -0.31005264051E+02  0.23513410121E+04  0.34738408503E+04  0.22033113947E+04 0.  0.
         23    2    3    3    0    0 -0.41516203963E+03  0.97144545895E+02 -0.13154342068E+03  0.45490474423E+03  0.88532891368E+02 0.  0.
    9900016    2    1    2    0    0 -0.13586585337E+04  0.21117725662E+03  0.10714256764E+03  0.25948783549E+04  0.21980366926E+04 0.  0.
        -24    2    5    5    0    0 -0.11691575596E+04  0.98221331504E+03  0.61965429970E+03  0.16498516368E+04  0.79790832053E+02 0.  0.
        -15    1    4    4    0    0 -0.26182652559E+03  0.85799324572E+02 -0.47213147890E+02  0.27954200925E+03  0.00000000000E+00 0. -1.
        -15    1    5    5    0    0 -0.18950097416E+03 -0.77103605841E+03 -0.51251173206E+03  0.94502671818E+03  0.00000000000E+00 0.  1.
         15    1    4    4    0    0 -0.15333551404E+03  0.11345221322E+02 -0.84330272792E+02  0.17536273498E+03  0.00000000000E+00 0.  1.
         15    1    6    6    0    0 -0.10390857950E+04  0.84169177101E+03  0.52993136960E+03  0.14383920130E+04  0.00000000000E+00 0. -1.
        -16    1    6    6    0    0 -0.13007176460E+03  0.14052154402E+03  0.89722930100E+02  0.21145962373E+03  0.00000000000E+00 0.  1.
         16    1    3    3    0    0  0.17125529866E+04 -0.12814980995E+03  0.24828844328E+04  0.30189361061E+04  0.00000000000E+00 0. -1.
    9900018    1    1    2    0    0  0.61267586707E+02 -0.18017199257E+03 -0.78784918275E+03  0.81562073125E+03  0.91187600000E+02 0.  0.
<mgrwt>
<rscale>  0 0.66785565E+04</rscale>
<asrwt>0</asrwt>
<pdfrwt beam="1">  1        1 0.65807495E+00 0.66785565E+04</pdfrwt>
<pdfrwt beam="2">  1       -1 0.40105427E+00 0.66785565E+04</pdfrwt>
<totfact> 0.23747886E-04</totfact>
</mgrwt>
</event>
<event>
13    1  0.1421558E-007  0.5562136E+04  0.7818608E-02  0.7747197E-01
         -2   -1    0    0    0  501 -0.00000000000E+00  0.00000000000E+00  0.25923763375E+04  0.25923763375E+04  0.00000000000E+00 0. -1.
          2   -1    0    0  501    0  0.00000000000E+00 -0.00000000000E+00 -0.29834935911E+04  0.29834935911E+04  0.00000000000E+00 0.  1.
    9900016    2    1    2    0    0 -0.22406512869E+02 -0.14295434127E+04 -0.28457867754E+03  0.26391732904E+04  0.22000350480E+04 0.  0.
         23    2    3    3    0    0 -0.21446465755E+03  0.48727163138E+03 -0.45382574114E+03  0.70534009887E+03  0.90100608627E+02 0.  0.
    9900016    2    1    2    0    0  0.30176085907E+01  0.87998786873E+03  0.14260567833E+02  0.23663503950E+04  0.21965935157E+04 0.  0.
        -24    2    5    5    0    0 -0.37369947123E+03  0.15229791623E+03  0.10017921560E+04  0.10831251369E+04  0.82015780584E+02 0.  0.
        -15    1    5    5    0    0  0.37671707983E+03  0.72768995250E+03 -0.98753158822E+03  0.12832252581E+04  0.00000000000E+00 0.  1.
        -15    1    4    4    0    0 -0.79443835583E+02  0.89795070455E+02 -0.11028403804E+03  0.16290195436E+03  0.00000000000E+00 0.  1.
         15    1    6    6    0    0 -0.21190873237E+03  0.81443692042E+02  0.45460480760E+03  0.50813769484E+03  0.00000000000E+00 0. -1.
         15    1    4    4    0    0 -0.13502082196E+03  0.39747656092E+03 -0.34354170311E+03  0.54243814451E+03  0.00000000000E+00 0. -1.
        -16    1    6    6    0    0 -0.16179073886E+03  0.70854224193E+02  0.54718734845E+03  0.57498744210E+03  0.00000000000E+00 0.  1.
         16    1    3    3    0    0  0.19205814468E+03 -0.19168150441E+04  0.16924706361E+03  0.19338331915E+04  0.00000000000E+00 0. -1.
    9900018    1    1    2    0    0  0.19388904278E+02  0.54955554397E+03 -0.12079914396E+03  0.57034624317E+03  0.91187600000E+02 0.  0.
<mgrwt>
<rscale>  0 0.55621356E+04</rscale>
<asrwt>0</asrwt>
<pdfrwt beam="1">  1        2 0.45899901E+00 0.55621356E+04</pdfrwt>
<pdfrwt beam="2">  1       -2 0.39882713E+00 0.55621356E+04</pdfrwt>
<totfact> 0.93865192E-03</totfact>
</mgrwt>
</event>
<event>
13    1  0.1168751E-007  0.5716652E+04  0.7818608E-02  0.7726562E-01
         -2   -1    0    0    0  501 -0.00000000000E+00  0.00000000000E+00  0.31287952180E+04  0.31287952180E+04  0.00000000000E+00 0.  1.
          2   -1    0    0  501    0  0.00000000000E+00 -0.00000000000E+00 -0.26112373833E+04  0.26112373833E+04  0.00000000000E+00 0. -1.
    9900016    2    1    2    0    0 -0.16288081637E+04  0.12583026677E+03  0.67354980904E+03  0.28314638314E+04  0.22123898374E+04 0.  0.
         23    2    3    3    0    0  0.40983152675E+03  0.84780732889E+02 -0.34719247857E+03  0.55118935895E+03  0.90096832638E+02 0.  0.
    9900016    2    1    2    0    0  0.14199689593E+04 -0.14050063548E+03  0.15647442696E+02  0.26229041049E+04  0.22007564215E+04 0.  0.
        -24    2    5    5    0    0  0.18470815306E+04 -0.51991200759E+02 -0.53044766392E+03  0.19239914251E+04  0.77168737648E+02 0.  0.
        -15    1    5    5    0    0 -0.42711257122E+03 -0.88509434722E+02  0.54609510662E+03  0.69891267981E+03  0.00000000000E+00 0.  1.
        -15    1    4    4    0    0  0.12127615943E+03  0.63712430466E+02 -0.88618182608E+02  0.16315747893E+03  0.00000000000E+00 0.  1.
         15    1    4    4    0    0  0.28855536732E+03  0.21068302424E+02 -0.25857429596E+03  0.38803188001E+03  0.00000000000E+00 0. -1.
         15    1    6    6    0    0  0.22151938844E+03  0.18834996601E+02 -0.63213784228E+02  0.23113108633E+03  0.00000000000E+00 0. -1.
        -16    1    6    6    0    0  0.16255621421E+04 -0.70826197360E+02 -0.46723387970E+03  0.16928603387E+04  0.00000000000E+00 0.  1.
         16    1    3    3    0    0 -0.20386396905E+04  0.41049533877E+02  0.10207422876E+04  0.22802744724E+04  0.00000000000E+00 0. -1.
    9900018    1    1    2    0    0  0.20883920439E+03  0.14670368715E+02 -0.17163941703E+03  0.28566466509E+03  0.91187600000E+02 0.  0.
<mgrwt>
<rscale>  0 0.57166518E+04</rscale>
<asrwt>0</asrwt>
<pdfrwt beam="1">  1        2 0.40172883E+00 0.57166518E+04</pdfrwt>
<pdfrwt beam="2">  1       -2 0.48135311E+00 0.57166518E+04</pdfrwt>
<totfact> 0.44981245E-03</totfact>
</mgrwt>
</event>
<event>
13    1  0.1168751E-007  0.5379600E+04  0.7818608E-02  0.7772477E-01
         -1   -1    0    0    0  501 -0.00000000000E+00  0.00000000000E+00  0.42375546356E+04  0.42375546356E+04  0.00000000000E+00 0.  1.
          1   -1    0    0  501    0  0.00000000000E+00 -0.00000000000E+00 -0.17073580922E+04  0.17073580922E+04  0.00000000000E+00 0. -1.
    9900016    2    1    2    0    0 -0.87005026796E+03 -0.44066203611E+02  0.21765215200E+04  0.32128344173E+04  0.21968454126E+04 0.  0.
         23    2    3    3    0    0  0.54401464089E+03  0.56612791381E+02 -0.67799635429E+02  0.55827357319E+03  0.88969962969E+02 0.  0.
    9900016    2    1    2    0    0  0.47007797873E+03  0.10376898691E+03  0.11959751704E+03  0.22560008883E+04  0.22007942051E+04 0.  0.
         24    2    5    5    0    0 -0.59290529270E+03 -0.65967715284E+03  0.28919943573E+03  0.93632355859E+03  0.79717379825E+02 0.  0.
        -15    1    6    6    0    0 -0.30046722517E+03 -0.33434634744E+03  0.18845598499E+03  0.48742557557E+03  0.00000000000E+00 0.  1.
        -15    1    4    4    0    0  0.11364113153E+02  0.93548566271E+01 -0.14861121548E+02  0.20916724025E+02  0.00000000000E+00 0.  1.
         15    1    4    4    0    0  0.53265052774E+03  0.47257934754E+02 -0.52938513881E+02  0.53735684917E+03  0.00000000000E+00 0. -1.
         15    1    5    5    0    0  0.10629832714E+04  0.76344613975E+03 -0.16960191868E+03  0.13196773297E+04  0.00000000000E+00 0. -1.
        -16    1    3    3    0    0 -0.14140649089E+04 -0.10067899499E+03  0.22443211555E+04  0.26545608442E+04  0.00000000000E+00 0.  1.
         16    1    6    6    0    0 -0.29243806753E+03 -0.32533080540E+03  0.10074345074E+03  0.44889798302E+03  0.00000000000E+00 0. -1.
    9900018    1    1    2    0    0  0.39997228923E+03 -0.59702783301E+02  0.23407750635E+03  0.47607742212E+03  0.91187600000E+02 0.  0.
<mgrwt>
<rscale>  0 0.53795997E+04</rscale>
<asrwt>0</asrwt>
<pdfrwt beam="1">  1        1 0.26267048E+00 0.53795997E+04</pdfrwt>
<pdfrwt beam="2">  1       -1 0.65193148E+00 0.53795997E+04</pdfrwt>
<totfact> 0.96671349E-04</totfact>
</mgrwt>
</event>
<event>
13    1  0.1168751E-007  0.9055068E+04  0.7818608E-02  0.7396117E-01
          2   -1    0    0  501    0  0.00000000000E+00  0.00000000000E+00  0.55386309620E+04  0.55386309620E+04  0.00000000000E+00 0. -1.
         -2   -1    0    0    0  501 -0.00000000000E+00 -0.00000000000E+00 -0.37010167098E+04  0.37010167098E+04  0.00000000000E+00 0.  1.
    9900016    2    1    2    0    0 -0.14339354672E+04 -0.13610435697E+04  0.37998864305E+04  0.48169130194E+04  0.22033845849E+04 0.  0.
         23    2    3    3    0    0 -0.31378573900E+03  0.64913110391E+02 -0.22558318255E+03  0.40188261490E+03  0.89144051997E+02 0.  0.
    9900016    2    1    2    0    0  0.24134754107E+03  0.27764537556E+03 -0.63703261844E+03  0.23345314349E+04  0.22156016955E+04 0.  0.
        -24    2    5    5    0    0  0.10121018816E+04 -0.51581978590E+03 -0.28729034219E+03  0.11743724476E+04  0.78706000959E+02 0.  0.
        -15    1    5    5    0    0 -0.77075434058E+03  0.79346516147E+03 -0.34974227625E+03  0.11601589873E+04  0.00000000000E+00 0.  1.
        -15    1    4    4    0    0 -0.27878132702E+02 -0.13253289063E+02 -0.45763300774E+02  0.55200721478E+02  0.00000000000E+00 0. -1.
         15    1    6    6    0    0  0.26320884122E+03 -0.17342095253E+03 -0.83407296762E+02  0.32605290679E+03  0.00000000000E+00 0. -1.
         15    1    4    4    0    0 -0.28590760630E+03  0.78166399454E+02 -0.17981988178E+03  0.34668189342E+03  0.00000000000E+00 0.  1.
        -16    1    6    6    0    0  0.74889304043E+03 -0.34239883337E+03 -0.20388304543E+03  0.84831954081E+03  0.00000000000E+00 0.  1.
         16    1    3    3    0    0 -0.11201497282E+04 -0.14259566801E+04  0.40254696130E+04  0.44150304045E+04  0.00000000000E+00 0. -1.
    9900018    1    1    2    0    0  0.11925879261E+04  0.10833981942E+04 -0.13252395598E+04  0.20882032176E+04  0.91187600000E+02 0.  0.
<mgrwt>
<rscale>  0 0.90550684E+04</rscale>
<asrwt>0</asrwt>
<pdfrwt beam="1">  1        2 0.85209707E+00 0.90550684E+04</pdfrwt>
<pdfrwt beam="2">  1       -2 0.56938719E+00 0.90550684E+04</pdfrwt>
<totfact> 0.18343973E-06</totfact>
</mgrwt>
</event>
<event>
13    1  0.1168751E-007  0.4900354E+04  0.7818608E-02  0.7844065E-01
          2   -1    0    0  501    0  0.00000000000E+00  0.00000000000E+00  0.38392620281E+04  0.38392620281E+04  0.00000000000E+00 0. -1.
         -2   -1    0    0    0  501 -0.00000000000E+00 -0.00000000000E+00 -0.15636776355E+04  0.15636776355E+04  0.00000000000E+00 0.  1.
    9900016    2    1    2    0    0 -0.53167018323E+03 -0.19690198956E+03  0.10336736453E+04  0.24887115360E+04  0.21917482354E+04 0.  0.
         23    2    3    3    0    0 -0.13364795689E+03 -0.78992612101E+03  0.14520323639E+04  0.16609897648E+04  0.92972898537E+02 0.  0.
    9900016    2    1    2    0    0  0.73916228100E+03  0.34476025514E+03  0.12157619213E+04  0.26423568770E+04  0.21997164147E+04 0.  0.
         24    2    5    5    0    0  0.25335784374E+03 -0.92060934444E+03  0.72193392037E+03  0.11997785362E+04  0.81044361877E+02 0.  0.
        -15    1    6    6    0    0  0.76594389050E+02 -0.16457032986E+03  0.12480115425E+03  0.22028486558E+03  0.00000000000E+00 0.  1.
        -15    1    4    4    0    0  0.12848160656E+02 -0.41361384228E+02  0.91327070373E+02  0.10107657058E+03  0.00000000000E+00 0. -1.
         15    1    4    4    0    0 -0.14649611755E+03 -0.74856473678E+03  0.13607052935E+04  0.15599131942E+04  0.00000000000E+00 0.  1.
         15    1    5    5    0    0  0.48580443726E+03  0.12653695996E+04  0.49382800091E+03  0.14425783408E+04  0.00000000000E+00 0. -1.
        -16    1    3    3    0    0 -0.39802222634E+03  0.59302413145E+03 -0.41835871864E+03  0.82772177125E+03  0.00000000000E+00 0.  1.
         16    1    6    6    0    0  0.17676345469E+03 -0.75603901459E+03  0.59713276612E+03  0.97949367066E+03  0.00000000000E+00 0. -1.
    9900018    1    1    2    0    0 -0.20749209777E+03 -0.14785826557E+03  0.26148826027E+02  0.27187125047E+03  0.91187600000E+02 0.  0.
<mgrwt>
<rscale>  0 0.49003543E+04</rscale>
<asrwt>0</asrwt>
<pdfrwt beam="1">  1        2 0.59065569E+00 0.49003543E+04</pdfrwt>
<pdfrwt beam="2">  1       -2 0.24056579E+00 0.49003543E+04</pdfrwt>
<totfact> 0.24621930E-02</totfact>
</mgrwt>
</event>
<event>
13    1  0.1168751E-007  0.5970085E+04  0.7818608E-02  0.7694122E-01
         -2   -1    0    0    0  501 -0.00000000000E+00  0.00000000000E+00  0.26631467163E+04  0.26631467163E+04  0.00000000000E+00 0.  1.
          2   -1    0    0  501    0  0.00000000000E+00 -0.00000000000E+00 -0.33458460474E+04  0.33458460474E+04  0.00000000000E+00 0. -1.
    9900016    2    1    2    0    0  0.68642579769E+03 -0.89034523080E+03  0.17646342267E+03  0.24723374253E+04  0.21948617267E+04 0.  0.
         23    2    3    3    0    0  0.74190536532E+02 -0.23715848555E+03  0.11322334487E+04  0.11627644866E+04  0.91215602461E+02 0.  0.
    9900016    2    1    2    0    0 -0.35863965403E+03  0.92523868875E+03 -0.14781429489E+04  0.28294686799E+04  0.21991583391E+04 0.  0.
        -24    2    5    5    0    0 -0.10078035638E+04  0.11522633596E+02 -0.13707379795E+04  0.17034905990E+04  0.84597979872E+02 0.  0.
        -15    1    5    5    0    0  0.64916390977E+03  0.91371605516E+03 -0.10740496941E+03  0.11259780809E+04  0.00000000000E+00 0.  1.
        -15    1    4    4    0    0  0.44149610304E+01 -0.15096312476E+03  0.56797956041E+03  0.58771603514E+03  0.00000000000E+00 0. -1.
         15    1    4    4    0    0  0.69775575502E+02 -0.86195360785E+02  0.56425388825E+03  0.57504845150E+03  0.00000000000E+00 0.  1.
         15    1    6    6    0    0 -0.20682664651E+03 -0.25472260619E+02 -0.31720497849E+03  0.37953273396E+03  0.00000000000E+00 0. -1.
        -16    1    6    6    0    0 -0.80097691729E+03  0.36994894214E+02 -0.10535330010E+04  0.13239578651E+04  0.00000000000E+00 0.  1.
         16    1    3    3    0    0  0.61223526116E+03 -0.65318674526E+03 -0.95577002599E+03  0.13095729387E+04  0.00000000000E+00 0. -1.
    9900018    1    1    2    0    0 -0.32778614365E+03 -0.34893457948E+02  0.61898019521E+03  0.70718665841E+03  0.91187600000E+02 0.  0.
<mgrwt>
<rscale>  0 0.59700851E+04</rscale>
<asrwt>0</asrwt>
<pdfrwt beam="1">  1        2 0.51474554E+00 0.59700851E+04</pdfrwt>
<pdfrwt beam="2">  1       -2 0.40971488E+00 0.59700851E+04</pdfrwt>
<totfact> 0.44882169E-03</totfact>
</mgrwt>
</event>
<event>
13    1  0.1168751E-007  0.6293148E+04  0.7818608E-02  0.7655081E-01
          2   -1    0    0  501    0  0.00000000000E+00  0.00000000000E+00  0.48256972482E+04  0.48256972482E+04  0.00000000000E+00 0. -1.
         -2   -1    0    0    0  501 -0.00000000000E+00 -0.00000000000E+00 -0.20517092828E+04  0.20517092828E+04  0.00000000000E+00 0.  1.
    9900016    2    1    2    0    0  0.13882014875E+04  0.78145882470E+03  0.20462273799E+04  0.34032442624E+04  0.22039155507E+04 0.  0.
         23    2    3    3    0    0 -0.46678396340E+03  0.11780095866E+03 -0.90147004658E+02  0.49712859071E+03  0.85123550848E+02 0.  0.
    9900016    2    1    2    0    0 -0.40074218165E+03 -0.79366826604E+03  0.30459204356E+03  0.23959175171E+04  0.22038921986E+04 0.  0.
        -24    2    5    5    0    0  0.86550101898E+03 -0.33016689458E+03 -0.20900820352E+03  0.95300706307E+03  0.80223693482E+02 0.  0.
        -15    1    5    5    0    0 -0.12662432006E+04 -0.46350137146E+03  0.51360024709E+03  0.14429104540E+04  0.00000000000E+00 0.  1.
        -15    1    4    4    0    0 -0.97989815408E+02  0.31005922429E+02  0.15173143358E+02  0.10389222988E+03  0.00000000000E+00 0. -1.
         15    1    4    4    0    0 -0.36879414799E+03  0.86795036231E+02 -0.10532014802E+03  0.39323636084E+03  0.00000000000E+00 0.  1.
         15    1    6    6    0    0  0.27264803266E+03 -0.14212565877E+03 -0.56398333548E+02  0.31259786408E+03  0.00000000000E+00 0. -1.
        -16    1    6    6    0    0  0.59285298631E+03 -0.18804123580E+03 -0.15260986997E+03  0.64040919900E+03  0.00000000000E+00 0.  1.
         16    1    3    3    0    0  0.18549854509E+04  0.66365786604E+03  0.21363743846E+04  0.29061156717E+04  0.00000000000E+00 0. -1.
    9900018    1    1    2    0    0 -0.98745930580E+03  0.12209441335E+02  0.42316854186E+03  0.10782447516E+04  0.91187600000E+02 0.  0.
<mgrwt>
<rscale>  0 0.62931480E+04</rscale>
<asrwt>0</asrwt>
<pdfrwt beam="1">  1        2 0.74241496E+00 0.62931480E+04</pdfrwt>
<pdfrwt beam="2">  1       -2 0.31564758E+00 0.62931480E+04</pdfrwt>
<totfact> 0.91574246E-04</totfact>
</mgrwt>
</event>
<event>
13    1  0.1168751E-007  0.5610164E+04  0.7818608E-02  0.7740710E-01
         -2   -1    0    0    0  501 -0.00000000000E+00  0.00000000000E+00  0.41158938028E+04  0.41158938028E+04  0.00000000000E+00 0.  1.
          2   -1    0    0  501    0  0.00000000000E+00 -0.00000000000E+00 -0.19117320928E+04  0.19117320928E+04  0.00000000000E+00 0. -1.
    9900016    2    1    2    0    0  0.15384790183E+04 -0.51569573868E+03  0.12768540944E+04  0.30126274200E+04  0.21937884603E+04 0.  0.
         23    2    3    3    0    0  0.74956797088E+01  0.25959655957E+03 -0.48210384684E+03  0.55520576916E+03  0.91557457464E+02 0.  0.
    9900016    2    1    2    0    0 -0.13737215132E+04  0.47655124171E+03  0.74564982425E+03  0.27504383526E+04  0.22123981535E+04 0.  0.
        -24    2    5    5    0    0  0.53169957250E+02  0.29418455673E+03  0.12017687082E+04  0.12413587283E+04  0.85743025472E+02 0.  0.
        -15    1    4    4    0    0 -0.32988697691E+02  0.11431202679E+03 -0.26894432606E+03  0.29408594690E+03  0.00000000000E+00 0. -1.
        -15    1    5    5    0    0 -0.14268914705E+04  0.18236668497E+03 -0.45611888400E+03  0.15090796243E+04  0.00000000000E+00 0.  1.
         15    1    4    4    0    0  0.40484377400E+02  0.14528453278E+03 -0.21315952077E+03  0.26111982226E+03  0.00000000000E+00 0.  1.
         15    1    6    6    0    0 -0.10829621082E+02  0.17004563046E+03  0.70826572890E+03  0.72847315659E+03  0.00000000000E+00 0. -1.
        -16    1    6    6    0    0  0.63999578332E+02  0.12413892627E+03  0.49350297935E+03  0.51288557171E+03  0.00000000000E+00 0.  1.
         16    1    3    3    0    0  0.15309833386E+04 -0.77529229825E+03  0.17589579412E+04  0.24574216508E+04  0.00000000000E+00 0. -1.
    9900018    1    1    2    0    0 -0.16475750514E+03  0.39144496974E+02  0.18165779140E+03  0.26456012306E+03  0.91187600000E+02 0.  0.
<mgrwt>
<rscale>  0 0.56101644E+04</rscale>
<asrwt>0</asrwt>
<pdfrwt beam="1">  1        2 0.29411263E+00 0.56101644E+04</pdfrwt>
<pdfrwt beam="2">  1       -2 0.63321443E+00 0.56101644E+04</pdfrwt>
<totfact> 0.20232752E-03</totfact>
</mgrwt>
</event>
<event>
13    1  0.1168751E-007  0.6432185E+04  0.7818608E-02  0.7639009E-01
          2   -1    0    0  501    0  0.00000000000E+00  0.00000000000E+00  0.33429935334E+04  0.33429935334E+04  0.00000000000E+00 0.  1.
         -2   -1    0    0    0  501 -0.00000000000E+00 -0.00000000000E+00 -0.30940089014E+04  0.30940089014E+04  0.00000000000E+00 0. -1.
    9900016    2    1    2    0    0  0.11617814687E+04 -0.18760293631E+03  0.15936415124E+04  0.29773040815E+04  0.22225470257E+04 0.  0.
         23    2    3    3    0    0 -0.51371356534E+03  0.42011593110E+03  0.74968213029E+03  0.10052814474E+04  0.90379584679E+02 0.  0.
    9900016    2    1    2    0    0 -0.52056013257E+03  0.67630160277E+03 -0.81132437154E+03  0.24887452483E+04  0.21925416679E+04 0.  0.
         24    2    5    5    0    0 -0.56475701744E+03  0.14243706854E+04 -0.81933424669E+03  0.17393288920E+04  0.78575114054E+02 0.  0.
        -15    1    4    4    0    0 -0.46240036020E+03  0.34898085925E+03  0.67964087794E+03  0.89303608897E+03  0.00000000000E+00 0.  1.
        -15    1    6    6    0    0 -0.47430397462E+03  0.11947129946E+04 -0.65384400409E+03  0.14421565038E+04  0.00000000000E+00 0.  1.
         15    1    5    5    0    0  0.44196884861E+02 -0.74806908263E+03  0.80098751516E+01  0.74941635632E+03  0.00000000000E+00 0. -1.
         15    1    4    4    0    0 -0.51313205132E+02  0.71135071850E+02  0.70041252354E+02  0.11224535848E+03  0.00000000000E+00 0. -1.
        -16    1    3    3    0    0  0.16754950340E+04 -0.60771886741E+03  0.84395938213E+03  0.19720226341E+04  0.00000000000E+00 0.  1.
         16    1    6    6    0    0 -0.90453042818E+02  0.22965769076E+03 -0.16549024260E+03  0.29717238814E+03  0.00000000000E+00 0. -1.
    9900018    1    1    2    0    0 -0.64122133608E+03 -0.48869866646E+03 -0.53333250888E+03  0.97095310487E+03  0.91187600000E+02 0.  0.
<mgrwt>
<rscale>  0 0.64321852E+04</rscale>
<asrwt>0</asrwt>
<pdfrwt beam="1">  1        2 0.51430670E+00 0.64321852E+04</pdfrwt>
<pdfrwt beam="2">  1       -2 0.47600137E+00 0.64321852E+04</pdfrwt>
<totfact> 0.16025474E-03</totfact>
</mgrwt>
</event>
