<event>
12    1  0.1905483E-016  0.2268051E+04  0.7818608E-02  0.9346081E-01
         -1   -1    0    0    0  501 -0.00000000000E+00  0.00000000000E+00  0.13778786887E+04  0.13778786887E+04  0.00000000000E+00 0.  1.
          1   -1    0    0  501    0  0.00000000000E+00 -0.00000000000E+00 -0.11920112389E+04  0.11920112389E+04  0.00000000000E+00 0. -1.
        -24    2    1    2    0    0 -0.37165309595E+02 -0.56609007714E+01  0.28996207086E+03  0.29945155773E+03  0.64652353808E+02 0.  0.
    9900016    2    1    2    0    0  0.18909012520E+03  0.62535519717E+02 -0.38987665921E+03  0.19418242418E+04  0.18918276375E+04 0.  0.
         24    2    4    4    0    0  0.94793781975E+03  0.79882233611E+02 -0.38543595641E+03  0.10295703406E+04  0.80541470253E+02 0.  0.
        -15    1    1    2    0    0 -0.15192481560E+03 -0.56874618946E+02  0.28578203815E+03  0.32861412812E+03  0.00000000000E+00 0.  1.
        -15    1    5    5    0    0  0.37070344179E+03  0.63460236196E+02 -0.12756431957E+03  0.39714090567E+03  0.00000000000E+00 0.  1.
         15    1    3    3    0    0  0.29105083752E+00 -0.29148700934E+02  0.87835137987E+02  0.92545896408E+02  0.00000000000E+00 0. -1.
         15    1    4    4    0    0 -0.80262182070E+03 -0.38951739747E+02  0.27395869743E+02  0.80403330701E+03  0.00000000000E+00 0. -1.
        -16    1    3    3    0    0 -0.37456360433E+02  0.23487800162E+02  0.20212693287E+03  0.20690566132E+03  0.00000000000E+00 0.  1.
         16    1    5    5    0    0  0.57723437796E+03  0.16421997415E+02 -0.25787163684E+03  0.63242943495E+03  0.00000000000E+00 0. -1.
    9900018    1    4    4    0    0  0.43774126148E+02  0.21605025854E+02 -0.31836572550E+02  0.10822059419E+03  0.91187600000E+02 0.  0.
<mgrwt>
<rscale>  0 0.96649032E+03</rscale>
<asrwt>0</asrwt>
<pdfrwt beam="1">  1        1 0.18338634E+00 0.22680509E+04</pdfrwt>
<pdfrwt beam="2">  1       -1 0.21198134E+00 0.22680509E+04</pdfrwt>
<totfact> 0.12124302E+00</totfact>
</mgrwt>
</event>
<event>
12    1  0.1905483E-016  0.3784328E+04  0.7818608E-02  0.8486375E-01
          1   -1    0    0  501    0  0.00000000000E+00  0.00000000000E+00  0.19060540900E+04  0.19060540900E+04  0.00000000000E+00 0. -1.
         -1   -1    0    0    0  501 -0.00000000000E+00 -0.00000000000E+00 -0.30244840187E+04  0.30244840187E+04  0.00000000000E+00 0.  1.
         24    2    1    2    0    0 -0.15169848994E+03  0.46262553516E+03  0.59569628347E+03  0.77609903568E+03  0.10218039647E+03 0.  0.
    9900016    2    1    2    0    0  0.13041930393E+04  0.26983882242E+03 -0.10119125591E+04  0.24643804267E+04  0.18098263415E+04 0.  0.
        -24    2    4    4    0    0  0.82286986171E+03  0.37952361288E+03  0.38126636228E+03  0.98632418235E+03  0.79488185511E+02 0.  0.
        -15    1    4    4    0    0  0.48132317755E+03 -0.10968479046E+03 -0.13931789214E+04  0.14780562443E+04  0.00000000000E+00 0.  1.
        -15    1    3    3    0    0 -0.65102328997E+02  0.32944711831E+03  0.44159314367E+03  0.55477763252E+03  0.00000000000E+00 0.  1.
         15    1    1    2    0    0 -0.12140242642E+04 -0.74800094762E+03 -0.64409945397E+03  0.15646802991E+04  0.00000000000E+00 0. -1.
         15    1    5    5    0    0  0.20326409387E+03  0.12215518233E+03  0.74373642510E+02  0.24853494548E+03  0.00000000000E+00 0. -1.
        -16    1    5    5    0    0  0.61960576785E+03  0.25736843055E+03  0.30689271977E+03  0.73778923687E+03  0.00000000000E+00 0.  1.
         16    1    3    3    0    0 -0.86596160948E+02  0.13317841685E+03  0.15410313979E+03  0.22132140317E+03  0.00000000000E+00 0. -1.
    9900018    1    1    2    0    0  0.61529714862E+02  0.15536590041E+02 -0.58114199067E+02  0.12537834729E+03  0.91187600000E+02 0.  0.
<mgrwt>
<rscale>  0 0.22786790E+04</rscale>
<asrwt>0</asrwt>
<pdfrwt beam="1">  1        1 0.29323909E+00 0.37843276E+04</pdfrwt>
<pdfrwt beam="2">  1       -1 0.46530523E+00 0.37843276E+04</pdfrwt>
<totfact> 0.67676602E-03</totfact>
</mgrwt>
</event>
<event>
12    1  0.1905483E-016  0.2599338E+04  0.7818608E-02  0.8807204E-01
          2   -1    0    0  501    0  0.00000000000E+00  0.00000000000E+00  0.16860498405E+04  0.16860498405E+04  0.00000000000E+00 0. -1.
         -2   -1    0    0    0  501 -0.00000000000E+00 -0.00000000000E+00 -0.13285723965E+04  0.13285723965E+04  0.00000000000E+00 0.  1.
        -24    2    1    2    0    0 -0.27366666129E+03 -0.26168361799E+03  0.46311232469E+02  0.39672590858E+03  0.10897228481E+03 0.  0.
    9900016    2    1    2    0    0  0.51395732826E+03  0.37940768804E+03  0.67036762446E+03  0.20279514218E+04  0.18041873207E+04 0.  0.
         24    2    4    4    0    0  0.50450804684E+03 -0.63370040279E+03  0.14369008470E+01  0.81388980657E+03  0.79435399732E+02 0.  0.
        -15    1    5    5    0    0  0.36426214395E+03 -0.44394752997E+03 -0.34099997488E+02  0.57527309055E+03  0.00000000000E+00 0.  1.
        -15    1    1    2    0    0 -0.25502417234E+03 -0.14181848685E+03 -0.39228427848E+03  0.48891386443E+03  0.00000000000E+00 0.  1.
         15    1    3    3    0    0 -0.22063845541E+03 -0.16762883563E+03 -0.50934915510E+01  0.27714021397E+03  0.00000000000E+00 0. -1.
         15    1    4    4    0    0  0.94492814248E+01  0.10131080908E+04  0.66893072362E+03  0.12140616152E+04  0.00000000000E+00 0. -1.
        -16    1    3    3    0    0 -0.53028205878E+02 -0.94054782360E+02  0.51404724020E+02  0.11958569461E+03  0.00000000000E+00 0.  1.
         16    1    5    5    0    0  0.14024590289E+03 -0.18975287282E+03  0.35536898335E+02  0.23861671602E+03  0.00000000000E+00 0. -1.
    9900018    1    1    2    0    0  0.14733505372E+02  0.24094416800E+02  0.33082865497E+02  0.10103104218E+03  0.91187600000E+02 0.  0.
<mgrwt>
<rscale>  0 0.16219029E+04</rscale>
<asrwt>0</asrwt>
<pdfrwt beam="1">  1        2 0.25939228E+00 0.25993378E+04</pdfrwt>
<pdfrwt beam="2">  1       -2 0.20439575E+00 0.25993378E+04</pdfrwt>
<totfact> 0.10847453E+00</totfact>
</mgrwt>
</event>
<event>
12    1  0.1905483E-016  0.3438016E+04  0.7818608E-02  0.8906423E-01
          2   -1    0    0  501    0  0.00000000000E+00  0.00000000000E+00  0.24087846517E+04  0.24087846517E+04  0.00000000000E+00 0. -1.
         -2   -1    0    0    0  501 -0.00000000000E+00 -0.00000000000E+00 -0.14101247035E+04  0.14101247035E+04  0.00000000000E+00 0.  1.
        -24    2    1    2    0    0 -0.47364625430E+02  0.81854742911E+02 -0.15502511421E+03  0.19248632357E+03  0.63832531261E+02 0.  0.
    9900016    2    1    2    0    0 -0.10949036324E+04 -0.23379553747E+03  0.11389907521E+04  0.24740000621E+04  0.18894184439E+04 0.  0.
         24    2    4    4    0    0  0.33207483288E+03  0.30433557532E+03 -0.96887381079E+02  0.46757260160E+03  0.79643807777E+02 0.  0.
        -15    1    1    2    0    0  0.11422682578E+04  0.15194079456E+03  0.14694310271E+02  0.11524229695E+04  0.00000000000E+00 0.  1.
        -15    1    5    5    0    0  0.11733493798E+03  0.14214004473E+03 -0.92246717515E+01  0.18454369281E+03  0.00000000000E+00 0.  1.
         15    1    3    3    0    0  0.11460902822E+02  0.40728781301E+02 -0.56218983313E+02  0.70361637307E+02  0.00000000000E+00 0. -1.
         15    1    4    4    0    0 -0.13587233511E+04 -0.51320288174E+03  0.12012079770E+04  0.18847829972E+04  0.00000000000E+00 0. -1.
        -16    1    3    3    0    0 -0.58825528251E+02  0.41125961610E+02 -0.98806130899E+02  0.12212468627E+03  0.00000000000E+00 0.  1.
         16    1    5    5    0    0  0.21473989490E+03  0.16219553059E+03 -0.87662709327E+02  0.28302890879E+03  0.00000000000E+00 0. -1.
    9900018    1    4    4    0    0 -0.68255114184E+02 -0.24928231055E+02  0.34670156211E+02  0.12164446326E+03  0.91187600000E+02 0.  0.
<mgrwt>
<rscale>  0 0.14674043E+04</rscale>
<asrwt>0</asrwt>
<pdfrwt beam="1">  1        2 0.37058225E+00 0.34380161E+04</pdfrwt>
<pdfrwt beam="2">  1       -2 0.21694226E+00 0.34380161E+04</pdfrwt>
<totfact> 0.33240245E-01</totfact>
</mgrwt>
</event>
<event>
12    1  0.1905483E-016  0.3169156E+04  0.7818608E-02  0.8651036E-01
          1   -1    0    0  501    0  0.00000000000E+00  0.00000000000E+00  0.29259017288E+04  0.29259017288E+04  0.00000000000E+00 0. -1.
         -1   -1    0    0    0  501 -0.00000000000E+00 -0.00000000000E+00 -0.11026486817E+04  0.11026486817E+04  0.00000000000E+00 0.  1.
        -24    2    1    2    0    0  0.19853171664E+03 -0.35316997961E+03  0.29559710397E+03  0.51041398558E+03  0.94873135240E+02 0.  0.
    9900016    2    1    2    0    0 -0.88009044855E+03  0.72446641666E+03  0.16188822333E+04  0.27366598832E+04  0.18892106405E+04 0.  0.
         24    2    4    4    0    0  0.59422913490E+02 -0.24970003183E+03  0.12261564830E+04  0.12551914836E+04  0.78515929285E+02 0.  0.
        -15    1    1    2    0    0  0.68155873191E+03 -0.37129643706E+03 -0.91226290234E+02  0.78147654171E+03  0.00000000000E+00 0.  1.
        -15    1    5    5    0    0  0.64003031673E+02 -0.10379115500E+03  0.52033888114E+03  0.53443572405E+03  0.00000000000E+00 0.  1.
         15    1    3    3    0    0  0.20194715029E+03 -0.29731276172E+03  0.24503679170E+03  0.43499489546E+03  0.00000000000E+00 0. -1.
         15    1    4    4    0    0 -0.89694955291E+03  0.90338537851E+03  0.25781307153E+03  0.12988807576E+04  0.00000000000E+00 0. -1.
        -16    1    3    3    0    0 -0.34154336477E+01 -0.55857217884E+02  0.50560312274E+02  0.75419090117E+02  0.00000000000E+00 0.  1.
         16    1    5    5    0    0 -0.45801181830E+01 -0.14590887683E+03  0.70581760188E+03  0.72075575956E+03  0.00000000000E+00 0. -1.
    9900018    1    4    4    0    0 -0.42563809134E+02  0.70781069983E+02  0.13491267878E+03  0.18258764199E+03  0.91187600000E+02 0.  0.
<mgrwt>
<rscale>  0 0.19076949E+04</rscale>
<asrwt>0</asrwt>
<pdfrwt beam="1">  1        1 0.45013873E+00 0.31691562E+04</pdfrwt>
<pdfrwt beam="2">  1       -1 0.16963826E+00 0.31691562E+04</pdfrwt>
<totfact> 0.13859764E-01</totfact>
</mgrwt>
</event>
<event>
11    1  0.1905483E-016  0.4402983E+04  0.7818608E-02  0.8321439E-01
         -2   -1    0    0    0  501 -0.00000000000E+00  0.00000000000E+00  0.16931065438E+04  0.16931065438E+04  0.00000000000E+00 0. -1.
          2   -1    0    0  501    0  0.00000000000E+00 -0.00000000000E+00 -0.38520332265E+04  0.38520332265E+04  0.00000000000E+00 0.  1.
    9900016    2    1    2    0    0  0.87395652409E+03  0.34341611245E+03 -0.26430661452E+04  0.33366082834E+04  0.18070477460E+04 0.  0.
         24    2    3    3    0    0  0.53866731521E+03  0.10487070210E+04 -0.11358036664E+04  0.16390528942E+04  0.80594845318E+02 0.  0.
        -15    1    1    2    0    0 -0.65999826399E+03 -0.95886430284E+03  0.69522333078E+03  0.13558591149E+04  0.00000000000E+00 0.  1.
        -15    1    4    4    0    0  0.42997520867E+03  0.87740738431E+03 -0.90583854855E+03  0.13323910365E+04  0.00000000000E+00 0.  1.
         15    1    1    2    0    0 -0.46506977913E+02  0.83408082005E+02  0.27278156296E+01  0.95536632327E+02  0.00000000000E+00 0. -1.
         15    1    3    3    0    0  0.33528920888E+03 -0.70529090854E+03 -0.15072624788E+04  0.16975553892E+04  0.00000000000E+00 0. -1.
        -16    1    1    2    0    0 -0.21354509468E+03  0.52449126057E+03 -0.56102766163E+02  0.56906951267E+03  0.00000000000E+00 0.  1.
         16    1    4    4    0    0  0.10869210653E+03  0.17129963667E+03 -0.22996511784E+03  0.30666185771E+03  0.00000000000E+00 0. -1.
    9900018    1    1    2    0    0  0.46093812491E+02  0.75488478095E+01 -0.15770891768E+03  0.18806622706E+03  0.91187600000E+02 0.  0.
<mgrwt>
<rscale>  0 0.27422060E+04</rscale>
<asrwt>0</asrwt>
<pdfrwt beam="1">  1        2 0.59262050E+00 0.44029831E+04</pdfrwt>
<pdfrwt beam="2">  1       -2 0.26047793E+00 0.44029831E+04</pdfrwt>
<totfact> 0.18445166E-02</totfact>
</mgrwt>
</event>
<event>
11    1  0.1905483E-016  0.2529941E+04  0.7818608E-02  0.8392396E-01
          2   -1    0    0  501    0  0.00000000000E+00  0.00000000000E+00  0.14819408365E+04  0.14819408365E+04  0.00000000000E+00 0. -1.
         -2   -1    0    0    0  501 -0.00000000000E+00 -0.00000000000E+00 -0.10797668381E+04  0.10797668381E+04  0.00000000000E+00 0.  1.
    9900016    2    1    2    0    0  0.11019545422E+03 -0.11775869960E+03  0.71277485549E+03  0.19337418964E+04  0.17903350462E+04 0.  0.
         24    2    3    3    0    0  0.23944505551E+03  0.77825413932E+03  0.65189043099E+02  0.82067772424E+03  0.79049830873E+02 0.  0.
        -15    1    1    2    0    0 -0.57402293470E+02  0.56859988010E+02 -0.90640751608E+02  0.12142416310E+03  0.00000000000E+00 0. -1.
        -15    1    4    4    0    0  0.38895480857E+02  0.10022489661E+03 -0.17023941911E+02  0.10884715398E+03  0.00000000000E+00 0.  1.
         15    1    3    3    0    0 -0.12924960129E+03 -0.89601283892E+03  0.64758581239E+03  0.11130641722E+04  0.00000000000E+00 0. -1.
         15    1    1    2    0    0 -0.85530971969E+02  0.17911010650E+02 -0.26441651423E+03  0.27848239525E+03  0.00000000000E+00 0.  1.
        -16    1    1    2    0    0  0.90248909640E+01  0.61902370012E+02 -0.59608542979E+02  0.86409087867E+02  0.00000000000E+00 0.  1.
         16    1    4    4    0    0  0.20054957465E+03  0.67802924270E+03  0.82212985010E+02  0.71183057026E+03  0.00000000000E+00 0. -1.
    9900018    1    1    2    0    0  0.23712920251E+02 -0.18914669071E+02  0.10406495173E+03  0.14165013190E+03  0.91187600000E+02 0.  0.
<mgrwt>
<rscale>  0 0.25299412E+04</rscale>
<asrwt>0</asrwt>
<pdfrwt beam="1">  1        2 0.22799090E+00 0.25299412E+04</pdfrwt>
<pdfrwt beam="2">  1       -2 0.16611797E+00 0.25299412E+04</pdfrwt>
<totfact> 0.26278754E+00</totfact>
</mgrwt>
</event>
<event>
11    1  0.1905483E-016  0.3313075E+04  0.7818608E-02  0.8945180E-01
         -2   -1    0    0    0  501 -0.00000000000E+00  0.00000000000E+00  0.14980779600E+04  0.14980779600E+04  0.00000000000E+00 0.  1.
          2   -1    0    0  501    0  0.00000000000E+00 -0.00000000000E+00 -0.20350415422E+04  0.20350415422E+04  0.00000000000E+00 0. -1.
    9900016    2    1    2    0    0 -0.76215257885E+03  0.20051772305E+03  0.39888258256E+03  0.20033375608E+04  0.17981018205E+04 0.  0.
        -24    2    3    3    0    0  0.47175326405E+03 -0.35190225548E+03  0.29000076781E+00  0.59388110238E+03  0.79425059669E+02 0.  0.
        -15    1    1    2    0    0  0.13234516477E+02  0.44043826663E+02 -0.10085601952E+03  0.11084650544E+03  0.00000000000E+00 0.  1.
        -15    1    3    3    0    0 -0.12339058429E+04  0.55241997853E+03  0.39859258179E+03  0.14094564584E+04  0.00000000000E+00 0.  1.
         15    1    1    2    0    0  0.83094897762E+03 -0.29834903179E+03 -0.81505575037E+03  0.12015840480E+04  0.00000000000E+00 0. -1.
         15    1    4    4    0    0  0.17394907671E+03 -0.11141455422E+03 -0.34850653443E+02  0.20948998120E+03  0.00000000000E+00 0. -1.
        -16    1    4    4    0    0  0.29780418735E+03 -0.24048770127E+03  0.35140654211E+02  0.38439112118E+03  0.00000000000E+00 0.  1.
         16    1    1    2    0    0 -0.37946318448E+01  0.59017448678E+02 -0.65951907089E+02  0.88583929287E+02  0.00000000000E+00 0. -1.
    9900018    1    1    2    0    0 -0.78236283400E+02 -0.52299665989E+01  0.46017512183E+02  0.12876745867E+03  0.91187600000E+02 0.  0.
<mgrwt>
<rscale>  0 0.14119965E+04</rscale>
<asrwt>0</asrwt>
<pdfrwt beam="1">  1        2 0.31308331E+00 0.33130752E+04</pdfrwt>
<pdfrwt beam="2">  1       -2 0.23047353E+00 0.33130752E+04</pdfrwt>
<totfact> 0.44958234E-01</totfact>
</mgrwt>
</event>
<event>
12    1  0.1905483E-016  0.3922624E+04  0.7818608E-02  0.8416559E-01
          1   -1    0    0  501    0  0.00000000000E+00  0.00000000000E+00  0.18617132954E+04  0.18617132954E+04  0.00000000000E+00 0. -1.
         -1   -1    0    0    0  501 -0.00000000000E+00 -0.00000000000E+00 -0.27874062147E+04  0.27874062147E+04  0.00000000000E+00 0.  1.
        -24    2    1    2    0    0 -0.59655690996E+03 -0.72765374507E+02 -0.29301259231E+03  0.67580042035E+03  0.98360979799E+02 0.  0.
    9900016    2    1    2    0    0 -0.74387660007E+03 -0.84620479650E+03 -0.80604941773E+02  0.21217158107E+04  0.17960417231E+04 0.  0.
         24    2    4    4    0    0 -0.14853506984E+03 -0.47440130789E+03 -0.90723973823E+03  0.10372830288E+04  0.75847685345E+02 0.  0.
        -15    1    1    2    0    0  0.13370938710E+04  0.96508346453E+03 -0.57581403394E+03  0.17466447593E+04  0.00000000000E+00 0.  1.
        -15    1    5    5    0    0 -0.39679869824E+02 -0.10846047683E+03 -0.15068173496E+03  0.18985034199E+03  0.00000000000E+00 0.  1.
         15    1    3    3    0    0 -0.16538487709E+03 -0.30297348188E+02 -0.35674580682E+02  0.17188008198E+03  0.00000000000E+00 0. -1.
         15    1    4    4    0    0 -0.59534153023E+03 -0.37180348861E+03  0.82663479646E+03  0.10844327819E+04  0.00000000000E+00 0. -1.
        -16    1    3    3    0    0 -0.43117203287E+03 -0.42468026318E+02 -0.25733801163E+03  0.50392033836E+03  0.00000000000E+00 0.  1.
         16    1    5    5    0    0 -0.10885520001E+03 -0.36594083105E+03 -0.75655800327E+03  0.84743268684E+03  0.00000000000E+00 0. -1.
    9900018    1    1    2    0    0  0.33396390036E+01 -0.46113293522E+02  0.23738648656E+02  0.10495851972E+03  0.91187600000E+02 0.  0.
<mgrwt>
<rscale>  0 0.24622511E+04</rscale>
<asrwt>0</asrwt>
<pdfrwt beam="1">  1        1 0.28641743E+00 0.39226241E+04</pdfrwt>
<pdfrwt beam="2">  1       -1 0.42883172E+00 0.39226241E+04</pdfrwt>
<totfact> 0.12924473E-02</totfact>
</mgrwt>
</event>
<event>
11    1  0.1905483E-016  0.4368890E+04  0.7818608E-02  0.8355637E-01
          2   -1    0    0  501    0  0.00000000000E+00  0.00000000000E+00  0.33504540069E+04  0.33504540069E+04  0.00000000000E+00 0. -1.
         -2   -1    0    0    0  501 -0.00000000000E+00 -0.00000000000E+00 -0.18778281664E+04  0.18778281664E+04  0.00000000000E+00 0.  1.
    9900016    2    1    2    0    0  0.90511222101E+03 -0.13209550543E+04  0.14642600314E+04  0.28849879563E+04  0.19013015753E+04 0.  0.
         24    2    3    3    0    0  0.50712996920E+03  0.20572850749E+03 -0.15129574613E+03  0.57309779834E+03  0.77753837276E+02 0.  0.
        -15    1    4    4    0    0  0.22121690606E+03  0.77215820825E+02 -0.26880037488E+02  0.23584261474E+03  0.00000000000E+00 0.  1.
        -15    1    1    2    0    0 -0.47074594558E+03  0.16885197475E+04  0.10094260483E+03  0.17558160759E+04  0.00000000000E+00 0.  1.
         15    1    3    3    0    0  0.27926207803E+03 -0.14626217021E+04  0.14875477466E+04  0.21047678851E+04  0.00000000000E+00 0. -1.
         15    1    1    2    0    0 -0.25421826068E+02 -0.54681627611E+02 -0.34055669557E+02  0.69254157043E+02  0.00000000000E+00 0. -1.
        -16    1    1    2    0    0 -0.40894444936E+03 -0.31288306560E+03 -0.58521126123E+02  0.51822398401E+03  0.00000000000E+00 0.  1.
         16    1    4    4    0    0  0.28591306314E+03  0.12851268667E+03 -0.12441570864E+03  0.33725518360E+03  0.00000000000E+00 0. -1.
    9900018    1    3    3    0    0  0.11872017379E+03 -0.64061859679E+02  0.12800803094E+03  0.20712227284E+03  0.91187600000E+02 0.  0.
<mgrwt>
<rscale>  0 0.26373100E+04</rscale>
<asrwt>0</asrwt>
<pdfrwt beam="1">  1        2 0.51545446E+00 0.43688903E+04</pdfrwt>
<pdfrwt beam="2">  1       -2 0.28889664E+00 0.43688903E+04</pdfrwt>
<totfact> 0.28613941E-02</totfact>
</mgrwt>
</event>
