<event>
10    1  0.3831662E-011  0.2446037E+04  0.7818608E-02  0.8422466E-01
          1   -1    0    0  501    0  0.00000000000E+00  0.00000000000E+00  0.31932294662E+04  0.31932294662E+04  0.00000000000E+00 0. -1.
         -1   -1    0    0    0  501 -0.00000000000E+00 -0.00000000000E+00 -0.46842063444E+03  0.46842063444E+03  0.00000000000E+00 0.  1.
        -24    2    1    2    0    0 -0.33787950066E+03 -0.36635637682E+03  0.77375259217E+03  0.92585055379E+03  0.10063111978E+03 0.  0.
        -15    1    1    2    0    0 -0.18943393723E+03  0.63773534652E+02 -0.20970021978E+02  0.20097766572E+03  0.00000000000E+00 0.  1.
        -15    1    1    2    0    0  0.53654447821E+03 -0.99657074503E+02  0.76109526887E+03  0.93652416835E+03  0.00000000000E+00 0.  1.
         15    1    3    3    0    0 -0.95342621364E+02 -0.16607120895E+03  0.25012562979E+03  0.31501221019E+03  0.00000000000E+00 0. -1.
         15    1    1    2    0    0 -0.40810986245E+03  0.24579105413E+03  0.57632710091E+03  0.74774315735E+03  0.00000000000E+00 0. -1.
        -16    1    3    3    0    0 -0.24253687929E+03 -0.20028516787E+03  0.52362696238E+03  0.61083834361E+03  0.00000000000E+00 0.  1.
         16    1    1    2    0    0  0.60808131797E+02 -0.10550227338E+02  0.38351541043E+03  0.38844948993E+03  0.00000000000E+00 0. -1.
    9900018    1    1    2    0    0  0.33807069033E+03  0.16699908988E+03  0.25108848135E+03  0.46210506548E+03  0.91187600000E+02 0.  0.
<mgrwt>
<rscale>  0 0.24460373E+04</rscale>
<asrwt>0</asrwt>
<pdfrwt beam="1">  1        1 0.49126606E+00 0.24460373E+04</pdfrwt>
<pdfrwt beam="2">  1       -1 0.72064715E-01 0.24460373E+04</pdfrwt>
<totfact> 0.74620634E-01</totfact>
</mgrwt>
</event>
<event>
11    1  0.3831662E-011  0.3302731E+04  0.7818608E-02  0.8162201E-01
         -2   -1    0    0    0  501 -0.00000000000E+00  0.00000000000E+00  0.30942688348E+04  0.30942688348E+04  0.00000000000E+00 0.  1.
          2   -1    0    0  501    0  0.00000000000E+00 -0.00000000000E+00 -0.88130949900E+03  0.88130949900E+03  0.00000000000E+00 0. -1.
    9900016    2    1    2    0    0  0.48506108585E+03 -0.70781091490E+03  0.10855763585E+04  0.23175083177E+04  0.18590557345E+04 0.  0.
         24    2    3    3    0    0 -0.16594853212E+03 -0.15753494699E+03  0.20082969225E+03  0.32209086763E+03  0.10513699105E+03 0.  0.
        -15    1    4    4    0    0 -0.14009991003E+03 -0.12037858815E+03  0.96579284068E+02  0.20843835392E+03  0.00000000000E+00 0.  1.
        -15    1    3    3    0    0  0.27390620393E+03 -0.59716249658E+03  0.67638354155E+02  0.66045635951E+03  0.00000000000E+00 0.  1.
         15    1    3    3    0    0  0.63654439984E+03 -0.13314212367E+03  0.78223796149E+03  0.10172570110E+04  0.00000000000E+00 0. -1.
         15    1    3    3    0    0 -0.25944098580E+03  0.18002865234E+03  0.34870350639E+02  0.31770407950E+03  0.00000000000E+00 0. -1.
        -16    1    1    2    0    0 -0.10508326380E+03  0.67508215103E+03  0.10586346783E+04  0.12599546758E+04  0.00000000000E+00 0.  1.
         16    1    4    4    0    0 -0.25848622088E+02 -0.37156358838E+02  0.10425040818E+03  0.11365251371E+03  0.00000000000E+00 0. -1.
    9900018    1    1    2    0    0 -0.37997782206E+03  0.32728763876E+02  0.68748299013E+02  0.39811534039E+03  0.91187600000E+02 0.  0.
<mgrwt>
<rscale>  0 0.33027313E+04</rscale>
<asrwt>0</asrwt>
<pdfrwt beam="1">  1        2 0.13558608E+00 0.33027313E+04</pdfrwt>
<pdfrwt beam="2">  1       -2 0.47604135E+00 0.33027313E+04</pdfrwt>
<totfact> 0.58955059E-02</totfact>
</mgrwt>
</event>
<event>
10    1  0.3831662E-011  0.2639342E+04  0.7818608E-02  0.8354959E-01
          1   -1    0    0  501    0  0.00000000000E+00  0.00000000000E+00  0.16659431077E+04  0.16659431077E+04  0.00000000000E+00 0. -1.
         -1   -1    0    0    0  501 -0.00000000000E+00 -0.00000000000E+00 -0.10453729510E+04  0.10453729510E+04  0.00000000000E+00 0.  1.
    9900016    2    1    2    0    0 -0.42475465361E+03 -0.27481834998E+03  0.51143450515E+03  0.20736300719E+04  0.19448482668E+04 0.  0.
        -15    1    3    3    0    0 -0.23201859797E+03  0.48373904731E+03 -0.73122089767E+02  0.54146369749E+03  0.00000000000E+00 0.  1.
        -15    1    3    3    0    0 -0.47115806139E+02 -0.47853217887E+03  0.66894965652E+03  0.82383650585E+03  0.00000000000E+00 0.  1.
         15    1    3    3    0    0 -0.15134905652E+03  0.56146186025E+02  0.19790329921E+03  0.25539116460E+03  0.00000000000E+00 0. -1.
         15    1    3    3    0    0  0.56508006420E+02 -0.21879218780E+03 -0.18976429062E+03  0.29508246682E+03  0.00000000000E+00 0. -1.
        -16    1    3    3    0    0 -0.50779199402E+02 -0.11737921664E+03 -0.92532070198E+02  0.15785623714E+03  0.00000000000E+00 0.  1.
         16    1    1    2    0    0  0.15260661170E+03  0.11862752414E+03  0.21979107890E+03  0.29269333061E+03  0.00000000000E+00 0. -1.
    9900018    1    1    2    0    0  0.27214804192E+03  0.15619082584E+03 -0.11065542738E+03  0.34499265615E+03  0.91187600000E+02 0.  0.
<mgrwt>
<rscale>  0 0.26393422E+04</rscale>
<asrwt>0</asrwt>
<pdfrwt beam="1">  1        1 0.25629894E+00 0.26393422E+04</pdfrwt>
<pdfrwt beam="2">  1       -1 0.16082661E+00 0.26393422E+04</pdfrwt>
<totfact> 0.12714052E+00</totfact>
</mgrwt>
</event>
