<event>
13    1  0.8288545E-007  0.4130435E+04  0.7818608E-02  0.7978738E-01
         -2   -1    0    0    0  501 -0.00000000000E+00  0.00000000000E+00  0.19786800871E+04  0.19786800871E+04  0.00000000000E+00 0. -1.
          2   -1    0    0  501    0  0.00000000000E+00 -0.00000000000E+00 -0.21555394960E+04  0.21555394960E+04  0.00000000000E+00 0.  1.
    9900016    2    1    2    0    0  0.79342448272E+03 -0.40962627110E+03 -0.30756130795E+03  0.20745612687E+04  0.18471313996E+04 0.  0.
        -24    2    3    3    0    0  0.87631152546E+03 -0.78705074419E+03 -0.81656172345E+03  0.14354987383E+04  0.80702018763E+02 0.  0.
    9900016    2    1    2    0    0 -0.79342448272E+03  0.40962627110E+03  0.13070189908E+03  0.20596583144E+04  0.18514300672E+04 0.  0.
         24    2    5    5    0    0 -0.74874222148E+03 -0.55407446967E+03 -0.24739945703E+03  0.96543298079E+03  0.56929051347E+02 0.  0.
        -15    1    3    3    0    0 -0.82887042739E+02  0.37742447309E+03  0.50900041550E+03  0.63906253037E+03  0.00000000000E+00 0.  1.
        -15    1    6    6    0    0 -0.56630857718E+03 -0.40970838622E+03 -0.16112159572E+03  0.71730505012E+03  0.00000000000E+00 0.  1.
         15    1    4    4    0    0  0.46524385686E+03 -0.37214396913E+03 -0.38592621039E+03  0.70984647634E+03  0.00000000000E+00 0. -1.
         15    1    5    5    0    0 -0.32697402214E+02  0.75842999530E+03  0.14988103765E+03  0.77378905610E+03  0.00000000000E+00 0. -1.
        -16    1    4    4    0    0  0.41106766860E+03 -0.41490677506E+03 -0.43063551306E+03  0.72565226195E+03  0.00000000000E+00 0.  1.
         16    1    6    6    0    0 -0.18243364431E+03 -0.14436608345E+03 -0.86277861308E+02  0.24812793067E+03  0.00000000000E+00 0. -1.
    9900018    1    5    5    0    0 -0.11984859021E+02  0.20527074546E+03  0.22822031846E+03  0.32043627750E+03  0.91187600000E+02 0.  0.
<mgrwt>
<rscale>  0 0.41304349E+04</rscale>
<asrwt>0</asrwt>
<pdfrwt beam="1">  1        2 0.33162146E+00 0.41304349E+04</pdfrwt>
<pdfrwt beam="2">  1       -2 0.30441232E+00 0.41304349E+04</pdfrwt>
<totfact> 0.12751908E-01</totfact>
</mgrwt>
</event>
<event>
12    1  0.8288545E-007  0.4766625E+04  0.7818608E-02  0.7865552E-01
         -1   -1    0    0    0  501 -0.00000000000E+00  0.00000000000E+00  0.22060273433E+04  0.22060273433E+04  0.00000000000E+00 0.  1.
          1   -1    0    0  501    0  0.00000000000E+00 -0.00000000000E+00 -0.25748447297E+04  0.25748447297E+04  0.00000000000E+00 0. -1.
    9900016    2    1    2    0    0  0.26818239649E+03 -0.20907536659E+03 -0.16626602148E+04  0.25058505111E+04  0.18436956060E+04 0.  0.
         24    2    3    3    0    0  0.77536301283E+03 -0.15411880944E+03 -0.29944493329E+02  0.79529123776E+03  0.81554099152E+02 0.  0.
    9900016    2    1    2    0    0 -0.26818239649E+03  0.20907536659E+03  0.12938428284E+04  0.22750215618E+04  0.18401248696E+04 0.  0.
        -15    1    4    4    0    0  0.59787115613E+03 -0.83392929336E+02 -0.23831215559E+02  0.60412931301E+03  0.00000000000E+00 0.  1.
        -15    1    5    5    0    0 -0.15516394559E+03 -0.27999756643E+03  0.59554634171E+02  0.32560903192E+03  0.00000000000E+00 0.  1.
         15    1    5    5    0    0  0.16950570728E+03  0.18251303137E+03  0.27082502735E+02  0.25055269580E+03  0.00000000000E+00 0. -1.
         15    1    3    3    0    0 -0.50718061633E+03 -0.54956557151E+02 -0.16327157214E+04  0.17105592734E+04  0.00000000000E+00 0. -1.
        -16    1    5    5    0    0  0.26917897856E+03  0.34111461991E+03  0.82436700715E+02  0.44228081129E+03  0.00000000000E+00 0.  1.
         16    1    4    4    0    0  0.17749185669E+03 -0.70725880102E+02 -0.61132777701E+01  0.19116192475E+03  0.00000000000E+00 0. -1.
    9900018    1    5    5    0    0 -0.55170313673E+03 -0.34554718267E+02  0.11247689908E+04  0.12565790228E+04  0.91187600000E+02 0.  0.
<mgrwt>
<rscale>  0 0.47666248E+04</rscale>
<asrwt>0</asrwt>
<pdfrwt beam="1">  1        1 0.39612996E+00 0.47666248E+04</pdfrwt>
<pdfrwt beam="2">  1       -1 0.33938882E+00 0.47666248E+04</pdfrwt>
<totfact> 0.16138877E-02</totfact>
</mgrwt>
</event>
<event>
12    1  0.8288545E-007  0.4220141E+04  0.7818608E-02  0.7961552E-01
          2   -1    0    0  501    0  0.00000000000E+00  0.00000000000E+00  0.33082010053E+04  0.33082010053E+04  0.00000000000E+00 0. -1.
         -2   -1    0    0    0  501 -0.00000000000E+00 -0.00000000000E+00 -0.13458668094E+04  0.13458668094E+04  0.00000000000E+00 0.  1.
    9900016    2    1    2    0    0  0.60552416949E+03 -0.17077937174E+03  0.10129903390E+03  0.19502564098E+04  0.18432073828E+04 0.  0.
        -24    2    3    3    0    0 -0.23384188428E+03 -0.71289007115E+03  0.46565436809E+03  0.88668967837E+03  0.80562490183E+02 0.  0.
    9900016    2    1    2    0    0 -0.60552416949E+03  0.17077937174E+03  0.18610351620E+04  0.27038114049E+04  0.18577726248E+04 0.  0.
        -15    1    3    3    0    0  0.83936605376E+03  0.54211069941E+03 -0.36435533420E+03  0.10635667314E+04  0.00000000000E+00 0.  1.
        -15    1    5    5    0    0  0.13834110096E+03  0.69321005888E+02  0.47801919633E+03  0.50244006023E+03  0.00000000000E+00 0.  1.
         15    1    4    4    0    0 -0.54193427044E+02 -0.25785222316E+03  0.19314126218E+03  0.32669288893E+03  0.00000000000E+00 0. -1.
         15    1    5    5    0    0 -0.71376656271E+03  0.11499198278E+03  0.18191323175E+03  0.74550538967E+03  0.00000000000E+00 0. -1.
        -16    1    4    4    0    0 -0.17964845723E+03 -0.45503784799E+03  0.27251310591E+03  0.55999678944E+03  0.00000000000E+00 0.  1.
         16    1    5    5    0    0  0.27552808836E+03  0.14757248129E+03  0.99594086064E+03  0.10438350265E+04  0.00000000000E+00 0. -1.
    9900018    1    5    5    0    0 -0.30562679610E+03 -0.16110609821E+03  0.20516187329E+03  0.41203092848E+03  0.91187600000E+02 0.  0.
<mgrwt>
<rscale>  0 0.42201412E+04</rscale>
<asrwt>0</asrwt>
<pdfrwt beam="1">  1        2 0.50895400E+00 0.42201412E+04</pdfrwt>
<pdfrwt beam="2">  1       -2 0.20705643E+00 0.42201412E+04</pdfrwt>
<totfact> 0.10184414E-01</totfact>
</mgrwt>
</event>
<event>
12    1  0.8288545E-007  0.5006932E+04  0.7818608E-02  0.7827439E-01
          2   -1    0    0  501    0  0.00000000000E+00  0.00000000000E+00  0.47902341454E+04  0.47902341454E+04  0.00000000000E+00 0. -1.
         -2   -1    0    0    0  501 -0.00000000000E+00 -0.00000000000E+00 -0.13083582564E+04  0.13083582564E+04  0.00000000000E+00 0.  1.
    9900016    2    1    2    0    0  0.18824422036E+03 -0.78716136892E+03 -0.70098787968E+02  0.20115138659E+04  0.18401671895E+04 0.  0.
        -24    2    3    3    0    0  0.53675196384E+03  0.11607461038E+03  0.61282291505E+03  0.82674598399E+03  0.79881230436E+02 0.  0.
    9900016    2    1    2    0    0 -0.18824422036E+03  0.78716136892E+03  0.35519746769E+04  0.40870785359E+04  0.18527352607E+04 0.  0.
        -15    1    5    5    0    0 -0.48920151198E+03  0.18572452842E+03  0.78992415661E+03  0.94751880877E+03  0.00000000000E+00 0.  1.
        -15    1    3    3    0    0 -0.34850774348E+03 -0.90323597930E+03 -0.68292170301E+03  0.11847678819E+04  0.00000000000E+00 0.  1.
         15    1    5    5    0    0  0.11811919336E+03  0.51262219826E+02  0.51565149393E+02  0.13870444713E+03  0.00000000000E+00 0. -1.
         15    1    4    4    0    0  0.82757654328E+02 -0.48385484537E+01  0.67148569224E+02  0.10668257238E+03  0.00000000000E+00 0. -1.
        -16    1    4    4    0    0  0.45399430951E+03  0.12091315883E+03  0.54567434582E+03  0.72006341161E+03  0.00000000000E+00 0.  1.
         16    1    5    5    0    0 -0.47468765750E+03  0.31295201065E+03  0.99167009479E+03  0.11430996938E+04  0.00000000000E+00 0. -1.
    9900018    1    5    5    0    0  0.65752575575E+03  0.23722261003E+03  0.17188152761E+04  0.18577555862E+04  0.91187600000E+02 0.  0.
<mgrwt>
<rscale>  0 0.50069322E+04</rscale>
<asrwt>0</asrwt>
<pdfrwt beam="1">  1        2 0.73695909E+00 0.50069322E+04</pdfrwt>
<pdfrwt beam="2">  1       -2 0.20128589E+00 0.50069322E+04</pdfrwt>
<totfact> 0.57152223E-03</totfact>
</mgrwt>
</event>
<event>
12    1  0.8288545E-007  0.3918548E+04  0.7818608E-02  0.8021183E-01
          2   -1    0    0  501    0  0.00000000000E+00  0.00000000000E+00  0.26692242255E+04  0.26692242255E+04  0.00000000000E+00 0. -1.
         -2   -1    0    0    0  501 -0.00000000000E+00 -0.00000000000E+00 -0.14381540237E+04  0.14381540237E+04  0.00000000000E+00 0.  1.
    9900016    2    1    2    0    0  0.11263037073E+03 -0.11475285704E+03  0.13146239755E+04  0.22600159729E+04  0.18312788379E+04 0.  0.
         24    2    3    3    0    0  0.51171368633E+03 -0.64612244514E+03  0.48027754876E+02  0.82967086834E+03  0.81987643179E+02 0.  0.
    9900016    2    1    2    0    0 -0.11263037073E+03  0.11475285704E+03 -0.83553773738E+02  0.18473622763E+04  0.18384537873E+04 0.  0.
        -15    1    5    5    0    0 -0.43874307017E+03  0.13984425220E+03 -0.40751100852E+03  0.61491228526E+03  0.00000000000E+00 0.  1.
        -15    1    4    4    0    0  0.19569997791E+03 -0.25462437368E+03 -0.21021885934E+02  0.32182910483E+03  0.00000000000E+00 0.  1.
         15    1    5    5    0    0  0.24408934552E+02  0.28998497986E+02  0.64316036327E+02  0.74654279852E+02  0.00000000000E+00 0. -1.
         15    1    3    3    0    0 -0.39908331560E+03  0.53136958811E+03  0.12665962206E+04  0.14303451045E+04  0.00000000000E+00 0. -1.
        -16    1    5    5    0    0  0.25431456374E+03  0.16099876847E+03  0.64095052903E+03  0.70810598179E+03  0.00000000000E+00 0.  1.
         16    1    4    4    0    0  0.31601370842E+03 -0.39149807146E+03  0.69049640810E+02  0.50784176351E+03  0.00000000000E+00 0. -1.
    9900018    1    5    5    0    0  0.47389201151E+02 -0.21508866162E+03 -0.38130933058E+03  0.44968972939E+03  0.91187600000E+02 0.  0.
<mgrwt>
<rscale>  0 0.39185485E+04</rscale>
<asrwt>0</asrwt>
<pdfrwt beam="1">  1        2 0.41064988E+00 0.39185485E+04</pdfrwt>
<pdfrwt beam="2">  1       -2 0.22125447E+00 0.39185485E+04</pdfrwt>
<totfact> 0.21341315E-01</totfact>
</mgrwt>
</event>
<event>
13    1  0.8288545E-007  0.4683587E+04  0.7818608E-02  0.7879261E-01
          2   -1    0    0  501    0  0.00000000000E+00  0.00000000000E+00  0.38519025187E+04  0.38519025187E+04  0.00000000000E+00 0.  1.
         -2   -1    0    0    0  501 -0.00000000000E+00 -0.00000000000E+00 -0.14237110656E+04  0.14237110656E+04  0.00000000000E+00 0. -1.
    9900016    2    1    2    0    0  0.28760375209E+03 -0.13828211652E+04  0.15733095137E+04  0.27984249218E+04  0.18332945547E+04 0.  0.
        -24    2    3    3    0    0 -0.46961584499E+03  0.23240242876E+03  0.35827623737E+03  0.64003787615E+03  0.82077340848E+02 0.  0.
    9900016    2    1    2    0    0 -0.28760375209E+03  0.13828211652E+04  0.85488193946E+03  0.24771886624E+04  0.18468162458E+04 0.  0.
         24    2    5    5    0    0  0.87381403727E+02 -0.30383476646E+03  0.62552085382E+03  0.70728568107E+03  0.95003268660E+02 0.  0.
        -15    1    3    3    0    0  0.75721959708E+03 -0.16152235939E+04  0.12150332763E+04  0.21583870457E+04  0.00000000000E+00 0.  1.
        -15    1    6    6    0    0  0.33414306430E+01 -0.13081946100E+03  0.18501942497E+03  0.22662101436E+03  0.00000000000E+00 0.  1.
         15    1    4    4    0    0 -0.16387642282E+03  0.38997721960E+02  0.10711400174E+03  0.19962393054E+03  0.00000000000E+00 0. -1.
         15    1    5    5    0    0  0.16149044843E+02  0.50700862395E+03  0.10040090300E+03  0.51710625381E+03  0.00000000000E+00 0. -1.
        -16    1    4    4    0    0 -0.30573942216E+03  0.19340470680E+03  0.25116223564E+03  0.44041394561E+03  0.00000000000E+00 0.  1.
         16    1    6    6    0    0  0.84039973084E+02 -0.17301530545E+03  0.44050142886E+03  0.48066466671E+03  0.00000000000E+00 0. -1.
    9900018    1    5    5    0    0 -0.39113420066E+03  0.11796473077E+04  0.12896018264E+03  0.12527967275E+04  0.91187600000E+02 0.  0.
<mgrwt>
<rscale>  0 0.46835868E+04</rscale>
<asrwt>0</asrwt>
<pdfrwt beam="1">  1        2 0.59260038E+00 0.46835868E+04</pdfrwt>
<pdfrwt beam="2">  1       -2 0.21903247E+00 0.46835868E+04</pdfrwt>
<totfact> 0.33416283E-02</totfact>
</mgrwt>
</event>
<event>
13    1  0.8288545E-007  0.4895156E+04  0.7818608E-02  0.7844887E-01
         -1   -1    0    0    0  501 -0.00000000000E+00  0.00000000000E+00  0.19172648002E+04  0.19172648002E+04  0.00000000000E+00 0.  1.
          1   -1    0    0  501    0  0.00000000000E+00 -0.00000000000E+00 -0.31245746588E+04  0.31245746588E+04  0.00000000000E+00 0. -1.
    9900016    2    1    2    0    0  0.69318560084E+03 -0.12997772850E+04  0.39253690031E+02  0.23686428101E+04  0.18544542706E+04 0.  0.
        -24    2    3    3    0    0 -0.62181401071E+03 -0.55535743419E+03  0.15970020405E+03  0.85276278333E+03  0.81398193040E+02 0.  0.
    9900016    2    1    2    0    0 -0.69318560084E+03  0.12997772850E+04 -0.12465635486E+04  0.26731966489E+04  0.18499006393E+04 0.  0.
         24    2    5    5    0    0 -0.14636323172E+03  0.50053629965E+02  0.19954240531E+03  0.26819260328E+03  0.90457390325E+02 0.  0.
        -15    1    3    3    0    0  0.13149996116E+04 -0.74441985082E+03 -0.12044651402E+03  0.15158800267E+04  0.00000000000E+00 0.  1.
        -15    1    6    6    0    0 -0.65842816326E+02  0.31475006977E+02  0.28710153711E+02  0.78423373124E+02  0.00000000000E+00 0.  1.
         15    1    5    5    0    0  0.39985686763E+03  0.99052720200E+02 -0.45146859444E+03  0.61116351963E+03  0.00000000000E+00 0. -1.
         15    1    4    4    0    0 -0.44552000868E+03 -0.36189071925E+03  0.13654874143E+03  0.58999875389E+03  0.00000000000E+00 0. -1.
        -16    1    4    4    0    0 -0.17629400204E+03 -0.19346671495E+03  0.23151462620E+02  0.26276402944E+03  0.00000000000E+00 0.  1.
         16    1    6    6    0    0 -0.80520415389E+02  0.18578622988E+02  0.17083225160E+03  0.18976923015E+03  0.00000000000E+00 0. -1.
    9900018    1    5    5    0    0 -0.94667923676E+03  0.11506709348E+04 -0.99463735945E+03  0.17938405260E+04  0.91187600000E+02 0.  0.
<mgrwt>
<rscale>  0 0.48951556E+04</rscale>
<asrwt>0</asrwt>
<pdfrwt beam="1">  1        1 0.48070379E+00 0.48951556E+04</pdfrwt>
<pdfrwt beam="2">  1       -1 0.29496382E+00 0.48951556E+04</pdfrwt>
<totfact> 0.12538890E-02</totfact>
</mgrwt>
</event>
<event>
13    1  0.8288545E-007  0.4318789E+04  0.7818608E-02  0.7943153E-01
          2   -1    0    0  501    0  0.00000000000E+00  0.00000000000E+00  0.33235046782E+04  0.33235046782E+04  0.00000000000E+00 0. -1.
         -2   -1    0    0    0  501 -0.00000000000E+00 -0.00000000000E+00 -0.14030325268E+04  0.14030325268E+04  0.00000000000E+00 0.  1.
    9900016    2    1    2    0    0  0.10889187147E+04 -0.15084568297E+03  0.80178349682E+03  0.23053520734E+04  0.18609924823E+04 0.  0.
         24    2    3    3    0    0 -0.45326663658E+02 -0.67817308652E+03 -0.18765948284E+03  0.71049026782E+03  0.87218676059E+02 0.  0.
    9900016    2    1    2    0    0 -0.10889187147E+04  0.15084568297E+03  0.11186886546E+04  0.24211851316E+04  0.18444985087E+04 0.  0.
        -24    2    5    5    0    0 -0.22538211461E+03  0.83709329688E+03  0.55831849799E+03  0.10333956341E+04  0.68298654557E+02 0.  0.
        -15    1    4    4    0    0  0.21093805267E+02 -0.31813656338E+03 -0.98056719366E+02  0.33357299320E+03  0.00000000000E+00 0.  1.
        -15    1    5    5    0    0 -0.31625254142E+03 -0.15908388291E+03 -0.10965259635E+03  0.37060362065E+03  0.00000000000E+00 0.  1.
         15    1    6    6    0    0 -0.75611307741E+02  0.20962663971E+03  0.17168115656E+03  0.28130911370E+03  0.00000000000E+00 0. -1.
         15    1    3    3    0    0  0.11342453784E+04  0.52732740354E+03  0.98944297965E+03  0.15948618056E+04  0.00000000000E+00 0. -1.
        -16    1    6    6    0    0 -0.14977080687E+03  0.62746665717E+03  0.38663734143E+03  0.75208652044E+03  0.00000000000E+00 0.  1.
         16    1    4    4    0    0 -0.66420468925E+02 -0.36003652314E+03 -0.89602763474E+02  0.37691727462E+03  0.00000000000E+00 0. -1.
    9900018    1    5    5    0    0 -0.54728405869E+03 -0.52716373100E+03  0.67002275296E+03  0.10171858768E+04  0.91187600000E+02 0.  0.
<mgrwt>
<rscale>  0 0.43187893E+04</rscale>
<asrwt>0</asrwt>
<pdfrwt beam="1">  1        2 0.51130841E+00 0.43187893E+04</pdfrwt>
<pdfrwt beam="2">  1       -2 0.21585116E+00 0.43187893E+04</pdfrwt>
<totfact> 0.86631017E-02</totfact>
</mgrwt>
</event>
<event>
13    1  0.8288545E-007  0.4200878E+04  0.7818608E-02  0.7965205E-01
          1   -1    0    0  501    0  0.00000000000E+00  0.00000000000E+00  0.24810729009E+04  0.24810729009E+04  0.00000000000E+00 0. -1.
         -1   -1    0    0    0  501 -0.00000000000E+00 -0.00000000000E+00 -0.17781999967E+04  0.17781999967E+04  0.00000000000E+00 0.  1.
    9900016    2    1    2    0    0  0.60742914442E+02  0.57741940652E+03 -0.47431047266E+03  0.19867910604E+04  0.18399090794E+04 0.  0.
         24    2    3    3    0    0  0.83631294221E+03 -0.15081347721E+03 -0.32174712258E+03  0.91203174930E+03  0.78209069926E+02 0.  0.
    9900016    2    1    2    0    0 -0.60742914442E+02 -0.57741940652E+03  0.11771833769E+04  0.22724818373E+04  0.18550768516E+04 0.  0.
        -24    2    5    5    0    0  0.43211654500E+03  0.14352740715E+03 -0.15595648027E+03  0.48462681078E+03  0.56708878765E+02 0.  0.
        -15    1    5    5    0    0 -0.61097483433E+03 -0.77603469380E+03  0.12868546271E+04  0.16221944783E+04  0.00000000000E+00 0.  1.
        -15    1    4    4    0    0  0.45783541126E+03 -0.87632159627E+02 -0.13509566338E+03  0.48532823683E+03  0.00000000000E+00 0.  1.
         15    1    6    6    0    0  0.16402595169E+03  0.63510848231E+02 -0.88174908842E+02  0.19675608052E+03  0.00000000000E+00 0. -1.
         15    1    3    3    0    0 -0.77557002777E+03  0.72823288373E+03 -0.15256335008E+03  0.10747593111E+04  0.00000000000E+00 0. -1.
        -16    1    6    6    0    0  0.26809059330E+03  0.80016558917E+02 -0.67781571430E+02  0.28787073027E+03  0.00000000000E+00 0.  1.
         16    1    4    4    0    0  0.37847753096E+03 -0.63181317585E+02 -0.18665145920E+03  0.42670351247E+03  0.00000000000E+00 0. -1.
    9900018    1    5    5    0    0  0.11811537489E+03  0.55087880133E+02  0.46285230027E+02  0.16566054822E+03  0.91187600000E+02 0.  0.
<mgrwt>
<rscale>  0 0.42008779E+04</rscale>
<asrwt>0</asrwt>
<pdfrwt beam="1">  1        1 0.38170352E+00 0.42008779E+04</pdfrwt>
<pdfrwt beam="2">  1       -1 0.27356923E+00 0.42008779E+04</pdfrwt>
<totfact> 0.52667757E-02</totfact>
</mgrwt>
</event>
