<event>
12    1  0.1436280E-010  0.2276757E+04  0.7818608E-02  0.9147245E-01
          4   -1    0    0  501    0  0.00000000000E+00  0.00000000000E+00  0.16592852933E+04  0.16592852933E+04  0.00000000000E+00 0. -1.
         -4   -1    0    0    0  501 -0.00000000000E+00 -0.00000000000E+00 -0.89341698931E+03  0.89341698931E+03  0.00000000000E+00 0.  1.
         23    2    1    2    0    0 -0.12409471477E+03 -0.14250490776E+02  0.86164210177E+02  0.17665118025E+03  0.90436683085E+02 0.  0.
    9900016    2    1    2    0    0 -0.18598612972E+03  0.24484355471E+03  0.48902222516E+02  0.71904064649E+03  0.64814259018E+03 0.  0.
         23    2    4    4    0    0 -0.30675142448E+02 -0.19379855323E+03 -0.87639327390E+02  0.23409529237E+03  0.92849935967E+02 0.  0.
        -15    1    3    3    0    0 -0.86327698804E+02 -0.18560052832E+02  0.10248978964E+03  0.13528157347E+03  0.00000000000E+00 0. -1.
        -15    1    5    5    0    0 -0.51311395670E+02 -0.18492104919E+03 -0.89099739740E+02  0.21158312168E+03  0.00000000000E+00 0. -1.
         15    1    5    5    0    0  0.20636253222E+02 -0.88775040343E+01  0.14604123492E+01  0.22512170689E+02  0.00000000000E+00 0.  1.
         15    1    3    3    0    0 -0.37767015963E+02  0.43095620565E+01 -0.16325579461E+02  0.41369606774E+02  0.00000000000E+00 0.  1.
        -16    1    4    4    0    0 -0.15531098728E+03  0.43864210794E+03  0.13654154991E+03  0.48494535411E+03  0.00000000000E+00 0.  1.
         16    1    1    2    0    0  0.43298917847E+03 -0.80317119128E+02  0.10761146691E+04  0.11627352447E+04  0.00000000000E+00 0. -1.
    9900018    1    1    2    0    0 -0.12290833397E+03 -0.15027594481E+03 -0.44531279776E+03  0.49427521118E+03  0.91187600000E+02 0.  0.
<mgrwt>
<rscale>  0 0.11614943E+04</rscale>
<asrwt>0</asrwt>
<pdfrwt beam="1">  1        4 0.25527466E+00 0.22767567E+04</pdfrwt>
<pdfrwt beam="2">  1       -4 0.13744877E+00 0.22767567E+04</pdfrwt>
<totfact> 0.39517990E-02</totfact>
</mgrwt>
</event>
<event>
12    1  0.1436280E-010  0.2467472E+04  0.7818608E-02  0.8996569E-01
         -2   -1    0    0    0  501 -0.00000000000E+00  0.00000000000E+00  0.11620894862E+04  0.11620894862E+04  0.00000000000E+00 0.  1.
          2   -1    0    0  501    0  0.00000000000E+00 -0.00000000000E+00 -0.16778356446E+04  0.16778356446E+04  0.00000000000E+00 0. -1.
         23    2    1    2    0    0  0.13010222682E+03  0.14673774888E+03 -0.29061275257E+03  0.36220386806E+03  0.90979743386E+02 0.  0.
    9900016    2    1    2    0    0  0.18803260063E+03  0.16761551063E+03 -0.46384546541E+02  0.89599004714E+03  0.85860085029E+03 0.  0.
         23    2    4    4    0    0 -0.17052293180E+03  0.40068622601E+03  0.74480280159E+02  0.45158895069E+03  0.93582831033E+02 0.  0.
        -15    1    5    5    0    0 -0.13682133751E+03  0.38428276737E+03  0.67386862206E+02  0.41344203087E+03  0.00000000000E+00 0. -1.
        -15    1    3    3    0    0 -0.88949593878E+01  0.24557509592E+02 -0.67203088626E+02  0.72100254512E+02  0.00000000000E+00 0.  1.
         15    1    3    3    0    0  0.13899718621E+03  0.12218023929E+03 -0.22340966395E+03  0.29010361354E+03  0.00000000000E+00 0. -1.
         15    1    5    5    0    0 -0.33701594288E+02  0.16403458646E+02  0.70934179529E+01  0.38146919815E+02  0.00000000000E+00 0.  1.
        -16    1    1    2    0    0  0.21977712239E+03 -0.23210013140E+03  0.56889085538E+03  0.65254061932E+03  0.00000000000E+00 0.  1.
         16    1    4    4    0    0  0.35855553242E+03 -0.23307071538E+03 -0.12086482670E+03  0.44440109646E+03  0.00000000000E+00 0. -1.
    9900018    1    1    2    0    0 -0.53791194983E+03 -0.82253128111E+02 -0.74763971463E+03  0.92919059624E+03  0.91187600000E+02 0.  0.
<mgrwt>
<rscale>  0 0.13424418E+04</rscale>
<asrwt>0</asrwt>
<pdfrwt beam="1">  1        2 0.25812856E+00 0.24674719E+04</pdfrwt>
<pdfrwt beam="2">  1       -2 0.17878300E+00 0.24674719E+04</pdfrwt>
<totfact> 0.16499551E+00</totfact>
</mgrwt>
</event>
<event>
12    1  0.1436280E-010  0.1315950E+04  0.7818608E-02  0.9592351E-01
          2   -1    0    0  501    0  0.00000000000E+00  0.00000000000E+00  0.36267921078E+03  0.36267921078E+03  0.00000000000E+00 0.  1.
         -2   -1    0    0    0  501 -0.00000000000E+00 -0.00000000000E+00 -0.15136810259E+04  0.15136810259E+04  0.00000000000E+00 0. -1.
         23    2    1    2    0    0  0.76717186150E+02  0.10786803871E+03 -0.17718707987E+03  0.23927756885E+03  0.91309655867E+02 0.  0.
    9900016    2    1    2    0    0 -0.10490765147E+03 -0.48074537775E+03 -0.57764706012E+03  0.98019649999E+03  0.62047346354E+03 0.  0.
         23    2    4    4    0    0  0.13143988958E+03 -0.42126868715E+03 -0.12628676416E+03  0.46724060164E+03  0.87302243217E+02 0.  0.
        -15    1    3    3    0    0  0.81773609221E+02  0.51121216214E+02 -0.74567832062E+02  0.12190432105E+03  0.00000000000E+00 0.  1.
        -15    1    5    5    0    0  0.58091286580E+02 -0.31039327167E+03 -0.73645702779E+02  0.32425648831E+03  0.00000000000E+00 0. -1.
         15    1    5    5    0    0  0.73348603005E+02 -0.11087541548E+03 -0.52641061383E+02  0.14298411333E+03  0.00000000000E+00 0.  1.
         15    1    3    3    0    0 -0.50564230711E+01  0.56746822492E+02 -0.10261924781E+03  0.11737324780E+03  0.00000000000E+00 0. -1.
        -16    1    1    2    0    0 -0.26678102818E+02  0.34739550964E+03 -0.13489135264E+03  0.37361884094E+03  0.00000000000E+00 0.  1.
         16    1    4    4    0    0 -0.23634754105E+03 -0.59476690601E+02 -0.45136029596E+03  0.51295589835E+03  0.00000000000E+00 0. -1.
    9900018    1    1    2    0    0  0.54868568134E+02  0.25481829403E+02 -0.26127632250E+03  0.28326732690E+03  0.91187600000E+02 0.  0.
<mgrwt>
<rscale>  0 0.77804543E+03</rscale>
<asrwt>0</asrwt>
<pdfrwt beam="1">  1        2 0.55796802E-01 0.13159500E+04</pdfrwt>
<pdfrwt beam="2">  1       -2 0.23287400E+00 0.13159500E+04</pdfrwt>
<totfact> 0.71165462E+00</totfact>
</mgrwt>
</event>
<event>
12    1  0.1436280E-010  0.1278992E+04  0.7818608E-02  0.9514304E-01
          2   -1    0    0  501    0  0.00000000000E+00  0.00000000000E+00  0.13941681974E+04  0.13941681974E+04  0.00000000000E+00 0. -1.
         -2   -1    0    0    0  501 -0.00000000000E+00 -0.00000000000E+00 -0.43912442837E+03  0.43912442837E+03  0.00000000000E+00 0.  1.
         23    2    1    2    0    0 -0.13967909367E+03 -0.15869659874E+03 -0.12161324887E+02  0.22976321598E+03  0.89153675946E+02 0.  0.
    9900016    2    1    2    0    0 -0.52736907414E+02 -0.14587215130E+03  0.67397223723E+03  0.93387529671E+03  0.62755448155E+03 0.  0.
         23    2    4    4    0    0  0.22671467938E+03  0.41606485041E+02  0.96701091573E+02  0.26568116020E+03  0.90026286887E+02 0.  0.
        -15    1    3    3    0    0 -0.71060246753E+02 -0.13542205945E+03  0.11946117685E+02  0.15339948690E+03  0.00000000000E+00 0.  1.
        -15    1    5    5    0    0  0.78291607208E+02  0.58213351465E+02  0.46882191785E+02  0.10824190480E+03  0.00000000000E+00 0.  1.
         15    1    5    5    0    0  0.14842307218E+03 -0.16606866423E+02  0.49818899788E+02  0.15743925541E+03  0.00000000000E+00 0. -1.
         15    1    3    3    0    0 -0.68618846920E+02 -0.23274539293E+02 -0.24107442572E+02  0.76363729082E+02  0.00000000000E+00 0. -1.
        -16    1    4    4    0    0 -0.27945158680E+03 -0.18747863635E+03  0.57727114565E+03  0.66819413650E+03  0.00000000000E+00 0.  1.
         16    1    1    2    0    0  0.30980357782E+03  0.32824824309E+03  0.21314089311E+03  0.49915348966E+03  0.00000000000E+00 0. -1.
    9900018    1    1    2    0    0 -0.11738757674E+03 -0.23679493038E+02  0.80091963589E+02  0.17050062342E+03  0.91187600000E+02 0.  0.
<mgrwt>
<rscale>  0 0.83237443E+03</rscale>
<asrwt>0</asrwt>
<pdfrwt beam="1">  1        2 0.21448741E+00 0.12789921E+04</pdfrwt>
<pdfrwt beam="2">  1       -2 0.67557605E-01 0.12789921E+04</pdfrwt>
<totfact> 0.28627571E+01</totfact>
</mgrwt>
</event>
<event>
12    1  0.1436280E-010  0.1926510E+04  0.7818608E-02  0.8641772E-01
         -1   -1    0    0    0  501 -0.00000000000E+00  0.00000000000E+00  0.60789975430E+03  0.60789975430E+03  0.00000000000E+00 0.  1.
          1   -1    0    0  501    0  0.00000000000E+00 -0.00000000000E+00 -0.15263373797E+04  0.15263373797E+04  0.00000000000E+00 0. -1.
    9900016    2    1    2    0    0  0.52465006513E+02 -0.38100290673E+03 -0.82948482925E+03  0.11059812905E+04  0.62228107884E+03 0.  0.
         23    2    3    3    0    0 -0.96984469321E+02 -0.62427034068E+02 -0.15134825675E+03  0.21042532626E+03  0.89829846020E+02 0.  0.
         23    2    3    3    0    0  0.20362728205E+03 -0.31288753509E+03 -0.23462161629E+03  0.44870799427E+03  0.83239904389E+02 0.  0.
        -15    1    4    4    0    0 -0.41639533919E+02 -0.78160526510E+02 -0.88009251176E+02  0.12485410278E+03  0.00000000000E+00 0. -1.
        -15    1    5    5    0    0  0.86333285932E+02 -0.20667597457E+03 -0.14563063124E+03  0.26716413584E+03  0.00000000000E+00 0.  1.
         15    1    4    4    0    0 -0.55344935403E+02  0.15733492443E+02 -0.63339005579E+02  0.85571223474E+02  0.00000000000E+00 0.  1.
         15    1    5    5    0    0  0.11729399612E+03 -0.10621156052E+03 -0.88990985053E+02  0.18154385843E+03  0.00000000000E+00 0. -1.
        -16    1    1    2    0    0 -0.64990308227E+02  0.68269939955E+03  0.41225693689E+02  0.68702384829E+03  0.00000000000E+00 0.  1.
         16    1    3    3    0    0 -0.54177806215E+02 -0.56883375721E+01 -0.44351495620E+03  0.44684796994E+03  0.00000000000E+00 0. -1.
    9900018    1    1    2    0    0  0.12525301714E+02 -0.30169649282E+03 -0.13017848986E+03  0.34123199524E+03  0.91187600000E+02 0.  0.
<mgrwt>
<rscale>  0 0.19265099E+04</rscale>
<asrwt>0</asrwt>
<pdfrwt beam="1">  1        1 0.23482113E+00 0.19265099E+04</pdfrwt>
<pdfrwt beam="2">  1       -1 0.93523040E-01 0.19265099E+04</pdfrwt>
<totfact> 0.64936953E+00</totfact>
</mgrwt>
</event>
<event>
12    1  0.1436280E-010  0.1982731E+04  0.7818608E-02  0.8614737E-01
          2   -1    0    0  501    0  0.00000000000E+00  0.00000000000E+00  0.17526430841E+04  0.17526430841E+04  0.00000000000E+00 0. -1.
         -2   -1    0    0    0  501 -0.00000000000E+00 -0.00000000000E+00 -0.56075609424E+03  0.56075609424E+03  0.00000000000E+00 0.  1.
    9900016    2    1    2    0    0  0.12140328570E+03  0.11591682287E+03  0.15909925016E+01  0.64581811642E+03  0.62362091100E+03 0.  0.
         23    2    3    3    0    0  0.13070103640E+03  0.57608966049E+02  0.14184728983E+03  0.22187946944E+03  0.93318226743E+02 0.  0.
         23    2    3    3    0    0 -0.90423584694E+02  0.19198028581E+03 -0.29710464000E+02  0.23244425938E+03  0.90082002877E+02 0.  0.
        -15    1    5    5    0    0 -0.84348925527E+02  0.10945317682E+03 -0.50499963135E+02  0.14712234851E+03  0.00000000000E+00 0.  1.
        -15    1    4    4    0    0  0.97935059412E+01 -0.20622232396E+02  0.38006635155E+02  0.44336142632E+02  0.00000000000E+00 0.  1.
         15    1    5    5    0    0 -0.60746591672E+01  0.82527108982E+02  0.20789499135E+02  0.85321910874E+02  0.00000000000E+00 0. -1.
         15    1    4    4    0    0  0.12090753046E+03  0.78231198445E+02  0.10384065468E+03  0.17754332681E+03  0.00000000000E+00 0. -1.
        -16    1    3    3    0    0  0.81125833990E+02 -0.13367242898E+03 -0.11054583333E+03  0.19149438759E+03  0.00000000000E+00 0.  1.
         16    1    1    2    0    0 -0.60040291866E+03  0.24143527917E+02  0.90272606619E+03  0.10844265421E+04  0.00000000000E+00 0. -1.
    9900018    1    1    2    0    0  0.47899963297E+03 -0.14006035079E+03  0.28756993116E+03  0.58315451978E+03  0.91187600000E+02 0.  0.
<mgrwt>
<rscale>  0 0.19827307E+04</rscale>
<asrwt>0</asrwt>
<pdfrwt beam="1">  1        2 0.26963740E+00 0.19827307E+04</pdfrwt>
<pdfrwt beam="2">  1       -2 0.86270169E-01 0.19827307E+04</pdfrwt>
<totfact> 0.99341578E+00</totfact>
</mgrwt>
</event>
<event>
12    1  0.1436280E-010  0.1157688E+04  0.7818608E-02  0.9150720E-01
          3   -1    0    0  501    0  0.00000000000E+00  0.00000000000E+00  0.49207813938E+03  0.49207813938E+03  0.00000000000E+00 0. -1.
         -3   -1    0    0    0  501 -0.00000000000E+00 -0.00000000000E+00 -0.68090865562E+03  0.68090865562E+03  0.00000000000E+00 0.  1.
         23    2    1    2    0    0 -0.65559449321E+02  0.14098259403E+03 -0.27897768020E+03  0.33205893441E+03  0.90887054418E+02 0.  0.
    9900016    2    1    2    0    0  0.19328896576E+02 -0.14393539158E+03  0.15535517266E+03  0.58324662798E+03  0.54309335862E+03 0.  0.
         23    2    4    4    0    0  0.11562844710E+03  0.11184751593E+03  0.23430020438E+03  0.29876320625E+03  0.92103545187E+02 0.  0.
        -15    1    3    3    0    0  0.21777736257E+01  0.10168072083E+03 -0.15272999835E+03  0.18349431621E+03  0.00000000000E+00 0.  1.
        -15    1    5    5    0    0  0.45144857512E+02  0.56951832355E+02  0.18024271656E+03  0.19434249726E+03  0.00000000000E+00 0. -1.
         15    1    5    5    0    0  0.70483589586E+02  0.54895683574E+02  0.54057487823E+02  0.10442070899E+03  0.00000000000E+00 0.  1.
         15    1    3    3    0    0 -0.67737222947E+02  0.39301873204E+02 -0.12624768184E+03  0.14856461820E+03  0.00000000000E+00 0. -1.
        -16    1    4    4    0    0 -0.96299550522E+02 -0.25578290751E+03 -0.78945031716E+02  0.28448342173E+03  0.00000000000E+00 0.  1.
         16    1    1    2    0    0 -0.19201640694E+02  0.94381612414E+01  0.74986031401E+02  0.77978758635E+02  0.00000000000E+00 0. -1.
    9900018    1    1    2    0    0  0.65432193440E+02 -0.64853636867E+01 -0.14019404010E+03  0.17970247398E+03  0.91187600000E+02 0.  0.
<mgrwt>
<rscale>  0 0.11576878E+04</rscale>
<asrwt>0</asrwt>
<pdfrwt beam="1">  1        3 0.75704329E-01 0.11576878E+04</pdfrwt>
<pdfrwt beam="2">  1       -3 0.10475518E+00 0.11576878E+04</pdfrwt>
<totfact> 0.33400414E+00</totfact>
</mgrwt>
</event>
<event>
12    1  0.1436280E-010  0.1825601E+04  0.7818608E-02  0.8692803E-01
          2   -1    0    0  501    0  0.00000000000E+00  0.00000000000E+00  0.18651832431E+04  0.18651832431E+04  0.00000000000E+00 0. -1.
         -2   -1    0    0    0  501 -0.00000000000E+00 -0.00000000000E+00 -0.44671453205E+03  0.44671453205E+03  0.00000000000E+00 0.  1.
    9900016    2    1    2    0    0  0.32917150957E+03 -0.18275350444E+03  0.46791467778E+03  0.87658400371E+03  0.63851596986E+03 0.  0.
         23    2    3    3    0    0  0.74194958333E+02 -0.48009653936E+02 -0.52484785743E+02  0.13614868567E+03  0.89286018849E+02 0.  0.
         23    2    3    3    0    0  0.29006645440E+03  0.28935657401E+02  0.16342782008E+03  0.34616252309E+03  0.90244222976E+02 0.  0.
        -15    1    5    5    0    0  0.56435430279E+02  0.38055158585E+02  0.59056726755E+02  0.90115758116E+02  0.00000000000E+00 0.  1.
        -15    1    4    4    0    0  0.41568834700E+02  0.36026865480E+01 -0.61611562555E+02  0.74410563827E+02  0.00000000000E+00 0.  1.
         15    1    5    5    0    0  0.23363102412E+03 -0.91195011836E+01  0.10437109332E+03  0.25604676498E+03  0.00000000000E+00 0. -1.
         15    1    4    4    0    0  0.32626123633E+02 -0.51612340484E+02  0.91267768117E+01  0.61738121842E+02  0.00000000000E+00 0. -1.
        -16    1    3    3    0    0 -0.35089903157E+02 -0.16367950790E+03  0.35697164345E+03  0.39427279495E+03  0.00000000000E+00 0.  1.
         16    1    1    2    0    0  0.66648396346E+02  0.15781159685E+03  0.10096610786E+04  0.10240908175E+04  0.00000000000E+00 0. -1.
    9900018    1    1    2    0    0 -0.39581990592E+03  0.24941907583E+02 -0.59107045310E+02  0.41122295397E+03  0.91187600000E+02 0.  0.
<mgrwt>
<rscale>  0 0.18256007E+04</rscale>
<asrwt>0</asrwt>
<pdfrwt beam="1">  1        2 0.28695126E+00 0.18256007E+04</pdfrwt>
<pdfrwt beam="2">  1       -2 0.68725314E-01 0.18256007E+04</pdfrwt>
<totfact> 0.14471660E+01</totfact>
</mgrwt>
</event>
