<event>
12    1  0.9870597E-013  0.1423622E+04  0.7818608E-02  0.8936895E-01
          2   -1    0    0  501    0  0.00000000000E+00  0.00000000000E+00  0.12866631796E+04  0.12866631796E+04  0.00000000000E+00 0.  1.
         -2   -1    0    0    0  501 -0.00000000000E+00 -0.00000000000E+00 -0.39378980832E+03  0.39378980832E+03  0.00000000000E+00 0. -1.
    9900016    2    1    2    0    0  0.18715082433E+03  0.11313659153E+03  0.54591173210E+03  0.96145251093E+03  0.76062210862E+03 0.  0.
         23    2    3    3    0    0 -0.44767777303E+01  0.91867370334E+01  0.21408601567E+02  0.95036938741E+02  0.92028548984E+02 0.  0.
         23    2    3    3    0    0 -0.16079837609E+03  0.19862758202E+03  0.38715924003E+03  0.47650367647E+03  0.10887810824E+03 0.  0.
        -15    1    5    5    0    0 -0.87680927062E+02  0.10135483524E+03  0.29447766391E+03  0.32353955267E+03  0.00000000000E+00 0. -1.
        -15    1    4    4    0    0  0.19215328717E+02  0.85719053387E+01  0.52141718902E+02  0.56226908761E+02  0.00000000000E+00 0.  1.
         15    1    5    5    0    0 -0.73117449028E+02  0.97272746777E+02  0.92681576121E+02  0.15296412380E+03  0.00000000000E+00 0.  1.
         15    1    4    4    0    0 -0.23692106447E+02  0.61483169468E+00 -0.30733117335E+02  0.38810029980E+02  0.00000000000E+00 0. -1.
        -16    1    1    2    0    0  0.42222713909E+02 -0.21873295680E+03 -0.60684493884E+02  0.23088844007E+03  0.00000000000E+00 0.  1.
         16    1    3    3    0    0  0.35242597815E+03 -0.94677727517E+02  0.13734389050E+03  0.38991189572E+03  0.00000000000E+00 0. -1.
    9900018    1    1    2    0    0 -0.22937353824E+03  0.10559636527E+03  0.40764613310E+03  0.48811203696E+03  0.91187600000E+02 0.  0.
<mgrwt>
<rscale>  0 0.14236219E+04</rscale>
<asrwt>0</asrwt>
<pdfrwt beam="1">  1        2 0.19794818E+00 0.14236219E+04</pdfrwt>
<pdfrwt beam="2">  1       -2 0.60583048E-01 0.14236219E+04</pdfrwt>
<totfact> 0.41493951E+01</totfact>
</mgrwt>
</event>
<event>
12    1  0.9870597E-013  0.2599619E+04  0.7818608E-02  0.8368331E-01
          2   -1    0    0  501    0  0.00000000000E+00  0.00000000000E+00  0.21082538184E+04  0.21082538184E+04  0.00000000000E+00 0. -1.
         -2   -1    0    0    0  501 -0.00000000000E+00 -0.00000000000E+00 -0.80137639015E+03  0.80137639015E+03  0.00000000000E+00 0.  1.
    9900016    2    1    2    0    0 -0.30990525962E+03 -0.82561972149E+02 -0.89394757005E+02  0.82673235200E+03  0.75672796307E+03 0.  0.
         23    2    3    3    0    0 -0.40276536010E+02 -0.61543783924E+02 -0.34913886724E+02  0.12094729277E+03  0.89439540744E+02 0.  0.
         23    2    3    3    0    0 -0.28343392869E+03  0.27023291358E+03 -0.79673344497E+02  0.41312066313E+03  0.10469107398E+03 0.  0.
        -15    1    5    5    0    0 -0.20389589931E+03  0.20619898822E+03 -0.11248339944E+02  0.29020352453E+03  0.00000000000E+00 0.  1.
        -15    1    4    4    0    0  0.25372030931E+02 -0.35812635776E+02 -0.43753462770E+01  0.44107011799E+02  0.00000000000E+00 0. -1.
         15    1    5    5    0    0 -0.79538029378E+02  0.64033925357E+02 -0.68425004553E+02  0.12291713860E+03  0.00000000000E+00 0. -1.
         15    1    4    4    0    0 -0.65648566941E+02 -0.25731148148E+02 -0.30538540447E+02  0.76840280967E+02  0.00000000000E+00 0.  1.
        -16    1    3    3    0    0  0.13805205084E+02 -0.29125110180E+03  0.25192474216E+02  0.29266439610E+03  0.00000000000E+00 0.  1.
         16    1    1    2    0    0  0.30959276346E+03  0.87697668060E+02  0.17183000853E+04  0.17481686827E+04  0.00000000000E+00 0. -1.
    9900018    1    1    2    0    0  0.31249615246E+00 -0.51356959106E+01 -0.32202790002E+03  0.33472917383E+03  0.91187600000E+02 0.  0.
<mgrwt>
<rscale>  0 0.25996191E+04</rscale>
<asrwt>0</asrwt>
<pdfrwt beam="1">  1        2 0.32434674E+00 0.25996191E+04</pdfrwt>
<pdfrwt beam="2">  1       -2 0.12328868E+00 0.25996191E+04</pdfrwt>
<totfact> 0.25525060E+00</totfact>
</mgrwt>
</event>
<event>
12    1  0.9870597E-013  0.1521737E+04  0.7818608E-02  0.9616401E-01
         -2   -1    0    0    0  501 -0.00000000000E+00  0.00000000000E+00  0.19286802974E+03  0.19286802974E+03  0.00000000000E+00 0.  1.
          2   -1    0    0  501    0  0.00000000000E+00 -0.00000000000E+00 -0.33933338122E+04  0.33933338122E+04  0.00000000000E+00 0. -1.
         23    2    1    2    0    0 -0.22447152263E+02 -0.10813175993E+02 -0.16994797913E+03  0.19507811149E+03  0.92478941121E+02 0.  0.
    9900016    2    1    2    0    0  0.28799937186E+02 -0.50817896519E+01 -0.16085938636E+04  0.17417727072E+04  0.66734000678E+03 0.  0.
         23    2    4    4    0    0  0.69094039509E+01  0.18681069704E+03 -0.13012663750E+03  0.25074378042E+03  0.10485001308E+03 0.  0.
        -15    1    5    5    0    0  0.31563419468E+02  0.11414877626E+03 -0.12742805263E+03  0.17396580459E+03  0.00000000000E+00 0.  1.
        -15    1    3    3    0    0  0.10059391624E+02  0.32245302631E+02 -0.10683833731E+03  0.11205079750E+03  0.00000000000E+00 0.  1.
         15    1    5    5    0    0 -0.24654015518E+02  0.72661920780E+02 -0.26985848674E+01  0.76777975832E+02  0.00000000000E+00 0. -1.
         15    1    3    3    0    0 -0.32506543887E+02 -0.43058478624E+02 -0.63109641822E+02  0.83027313987E+02  0.00000000000E+00 0. -1.
        -16    1    4    4    0    0  0.21890533235E+02 -0.19189248669E+03 -0.14784672261E+04  0.14910289268E+04  0.00000000000E+00 0.  1.
         16    1    1    2    0    0 -0.33328553526E+02  0.15210460325E+03 -0.14685730689E+04  0.14768051536E+04  0.00000000000E+00 0. -1.
    9900018    1    1    2    0    0  0.26975768603E+02 -0.13620963761E+03  0.46649129250E+02  0.17254586962E+03  0.91187600000E+02 0.  0.
<mgrwt>
<rscale>  0 0.76220085E+03</rscale>
<asrwt>0</asrwt>
<pdfrwt beam="1">  1        2 0.52205128E+00 0.15217365E+04</pdfrwt>
<pdfrwt beam="2">  1       -2 0.29672009E-01 0.15217365E+04</pdfrwt>
<totfact> 0.98351304E+00</totfact>
</mgrwt>
</event>
<event>
12    1  0.9870598E-013  0.1092774E+04  0.7818608E-02  0.9912335E-01
          2   -1    0    0  501    0  0.00000000000E+00  0.00000000000E+00  0.18848458194E+04  0.18848458194E+04  0.00000000000E+00 0. -1.
         -2   -1    0    0    0  501 -0.00000000000E+00 -0.00000000000E+00 -0.18808562317E+03  0.18808562317E+03  0.00000000000E+00 0.  1.
         23    2    1    2    0    0  0.12098329093E+02 -0.68566654205E+01  0.16188487932E+03  0.18878797655E+03  0.96129092945E+02 0.  0.
    9900016    2    1    2    0    0  0.31788593118E+02 -0.50109630160E+02  0.10340699440E+04  0.12351727160E+04  0.67292607289E+03 0.  0.
         23    2    4    4    0    0 -0.28901721132E+03 -0.94578092333E+02  0.33979515764E+03  0.46907136026E+03  0.10996011947E+03 0.  0.
        -15    1    3    3    0    0 -0.36685288490E+02 -0.25655665379E+02  0.70796578728E+02  0.83762635568E+02  0.00000000000E+00 0.  1.
        -15    1    5    5    0    0 -0.14062935092E+03 -0.80377496371E+02  0.11234337852E+03  0.19712481062E+03  0.00000000000E+00 0. -1.
         15    1    3    3    0    0  0.48783617584E+02  0.18798999959E+02  0.91088300595E+02  0.10502534099E+03  0.00000000000E+00 0. -1.
         15    1    5    5    0    0 -0.14838786040E+03 -0.14200595962E+02  0.22745177912E+03  0.27194654965E+03  0.00000000000E+00 0.  1.
        -16    1    1    2    0    0 -0.57343905467E+02  0.59253636126E+02 -0.46017048483E+02  0.94429262623E+02  0.00000000000E+00 0.  1.
         16    1    4    4    0    0  0.32080580443E+03  0.44468462173E+02  0.69427478640E+03  0.76610135577E+03  0.00000000000E+00 0. -1.
    9900018    1    1    2    0    0  0.13456983256E+02 -0.22873405457E+01  0.54682242132E+03  0.55454148733E+03  0.91187600000E+02 0.  0.
<mgrwt>
<rscale>  0 0.59667210E+03</rscale>
<asrwt>0</asrwt>
<pdfrwt beam="1">  1        2 0.28997627E+00 0.10927737E+04</pdfrwt>
<pdfrwt beam="2">  1       -2 0.28936251E-01 0.10927737E+04</pdfrwt>
<totfact> 0.84457751E+01</totfact>
</mgrwt>
</event>
<event>
12    1  0.9870597E-013  0.2624655E+04  0.7818608E-02  0.8359874E-01
          1   -1    0    0  501    0  0.00000000000E+00  0.00000000000E+00  0.26433123293E+04  0.26433123293E+04  0.00000000000E+00 0. -1.
         -1   -1    0    0    0  501 -0.00000000000E+00 -0.00000000000E+00 -0.65153233788E+03  0.65153233788E+03  0.00000000000E+00 0.  1.
    9900016    2    1    2    0    0  0.47322556118E+03  0.23031047474E+03 -0.50298072388E+02  0.91711431678E+03  0.74938870250E+03 0.  0.
         23    2    3    3    0    0  0.71065945343E+02  0.29123476706E+02 -0.48803385820E+01  0.11870767595E+03  0.90383345487E+02 0.  0.
         23    2    3    3    0    0 -0.59960214467E+02  0.30313781102E+03  0.28183146914E+02  0.31948514886E+03  0.76083577646E+02 0.  0.
        -15    1    4    4    0    0  0.13062186791E+02 -0.31475845848E+02  0.41830353353E+01  0.34334346946E+02  0.00000000000E+00 0. -1.
        -15    1    5    5    0    0  0.90849103919E+01  0.83093603257E+02  0.30133752215E+02  0.88854518859E+02  0.00000000000E+00 0. -1.
         15    1    5    5    0    0 -0.69045124859E+02  0.22004420776E+03 -0.19506053007E+01  0.23063063000E+03  0.00000000000E+00 0.  1.
         15    1    4    4    0    0  0.58003758552E+02  0.60599322553E+02 -0.90633739172E+01  0.84373329002E+02  0.00000000000E+00 0.  1.
        -16    1    3    3    0    0  0.46211983030E+03 -0.10195081298E+03 -0.73600880720E+02  0.47892149197E+03  0.00000000000E+00 0.  1.
         16    1    1    2    0    0 -0.63092372821E+03 -0.47298902689E+03  0.18686848088E+04  0.20282421663E+04  0.00000000000E+00 0. -1.
    9900018    1    1    2    0    0  0.15769816703E+03  0.24267855215E+03  0.17339325497E+03  0.34948818409E+03  0.91187600000E+02 0.  0.
<mgrwt>
<rscale>  0 0.26246550E+04</rscale>
<asrwt>0</asrwt>
<pdfrwt beam="1">  1        1 0.40666343E+00 0.26246550E+04</pdfrwt>
<pdfrwt beam="2">  1       -1 0.10023575E+00 0.26246550E+04</pdfrwt>
<totfact> 0.89601153E-01</totfact>
</mgrwt>
</event>
