<event>
13    1  0.8851382E-011  0.6397688E+04  0.7818608E-02  0.7642958E-01
         -2   -1    0    0    0  501 -0.00000000000E+00  0.00000000000E+00  0.28345305874E+04  0.28345305874E+04  0.00000000000E+00 0.  1.
          2   -1    0    0  501    0  0.00000000000E+00 -0.00000000000E+00 -0.36099816160E+04  0.36099816160E+04  0.00000000000E+00 0. -1.
    9900016    2    1    2    0    0 -0.59211392484E+03  0.16075617847E+03  0.18424285780E+04  0.29411952489E+04  0.22089918465E+04 0.  0.
        -24    2    3    3    0    0  0.39904244037E+03 -0.76264190624E+02 -0.33780830683E+03  0.53453730274E+03  0.81022094937E+02 0.  0.
    9900016    2    1    2    0    0  0.59211392484E+03 -0.16075617847E+03 -0.26178796066E+04  0.35033169546E+04  0.22457726067E+04 0.  0.
         23    2    5    5    0    0 -0.61163143801E+02 -0.48363352907E+03  0.21620632444E+03  0.54089721639E+03  0.90456085304E+02 0.  0.
        -15    1    6    6    0    0  0.63804167175E+00 -0.10822555846E+03  0.11433818492E+02  0.10882973310E+03  0.00000000000E+00 0. -1.
        -15    1    3    3    0    0 -0.99115636520E+03  0.23702036910E+03  0.21802368848E+04  0.24066579461E+04  0.00000000000E+00 0.  1.
         15    1    4    4    0    0  0.12216587222E+03  0.30496786423E+01 -0.13611987671E+03  0.18292736731E+03  0.00000000000E+00 0. -1.
         15    1    6    6    0    0 -0.61801185473E+02 -0.37540797061E+03  0.20477250595E+03  0.43206748329E+03  0.00000000000E+00 0.  1.
        -16    1    4    4    0    0  0.27687656815E+03 -0.79313869266E+02 -0.20168843012E+03  0.35160993543E+03  0.00000000000E+00 0.  1.
         16    1    5    5    0    0  0.60242831846E+03  0.36983312075E+03 -0.26723816984E+04  0.27642938263E+04  0.00000000000E+00 0. -1.
    9900018    1    5    5    0    0  0.50848750178E+02 -0.46955770148E+02 -0.16170423260E+03  0.19812591193E+03  0.91187600000E+02 0.  0.
<mgrwt>
<rscale>  0 0.63976881E+04</rscale>
<asrwt>0</asrwt>
<pdfrwt beam="1">  1        2 0.55538179E+00 0.63976881E+04</pdfrwt>
<pdfrwt beam="2">  1       -2 0.43608163E+00 0.63976881E+04</pdfrwt>
<totfact> 0.19047101E-03</totfact>
</mgrwt>
</event>
<event>
13    1  0.8851384E-011  0.5075708E+04  0.7818608E-02  0.7816934E-01
          2   -1    0    0  501    0  0.00000000000E+00  0.00000000000E+00  0.18937723676E+04  0.18937723676E+04  0.00000000000E+00 0. -1.
         -2   -1    0    0    0  501 -0.00000000000E+00 -0.00000000000E+00 -0.34009911828E+04  0.34009911828E+04  0.00000000000E+00 0.  1.
    9900016    2    1    2    0    0  0.27193173234E+02  0.60963931927E+03 -0.18452505202E+04  0.29314431055E+04  0.21945408700E+04 0.  0.
        -24    2    3    3    0    0 -0.39985813703E+03  0.47064876543E+03  0.33384461227E+03  0.70655057056E+03  0.79779029024E+02 0.  0.
    9900016    2    1    2    0    0 -0.13669838846E+02 -0.54535232124E+03  0.27174567000E+03  0.22328416515E+04  0.21480549603E+04 0.  0.
         23    2    5    5    0    0  0.16980730097E+03  0.37593646676E+03 -0.74029679252E+03  0.85202057775E+03  0.87960089752E+02 0.  0.
        -15    1    6    6    0    0  0.16634446128E+03  0.28164937849E+03 -0.58824170715E+03  0.67307143621E+03  0.00000000000E+00 0.  1.
        -15    1    3    3    0    0  0.42705131026E+03  0.13899055384E+03 -0.21790951325E+04  0.22248925349E+04  0.00000000000E+00 0.  1.
         15    1    4    4    0    0 -0.16657254462E+03  0.16623881179E+03  0.89340157929E+02  0.25172091488E+03  0.00000000000E+00 0. -1.
         15    1    6    6    0    0  0.34628396897E+01  0.94287088262E+02 -0.15205508537E+03  0.17894914154E+03  0.00000000000E+00 0. -1.
        -16    1    4    4    0    0 -0.23328559241E+03  0.30440995364E+03  0.24450445434E+03  0.45482965569E+03  0.00000000000E+00 0.  1.
         16    1    5    5    0    0 -0.18347713981E+03 -0.92128878800E+03  0.10120424625E+04  0.13808210737E+04  0.00000000000E+00 0. -1.
    9900018    1    1    2    0    0 -0.13523334389E+02 -0.64286998030E+02  0.66286035014E+02  0.13047879337E+03  0.91187600000E+02 0.  0.
<mgrwt>
<rscale>  0 0.50757081E+04</rscale>
<asrwt>0</asrwt>
<pdfrwt beam="1">  1        2 0.29134960E+00 0.50757081E+04</pdfrwt>
<pdfrwt beam="2">  1       -2 0.52322941E+00 0.50757081E+04</pdfrwt>
<totfact> 0.66881161E-03</totfact>
</mgrwt>
</event>
<event>
13    1  0.8851382E-011  0.4514616E+04  0.7818608E-02  0.7908083E-01
          1   -1    0    0  501    0  0.00000000000E+00  0.00000000000E+00  0.29898280470E+04  0.29898280470E+04  0.00000000000E+00 0. -1.
         -1   -1    0    0    0  501 -0.00000000000E+00 -0.00000000000E+00 -0.17042586275E+04  0.17042586275E+04  0.00000000000E+00 0.  1.
    9900016    2    1    2    0    0  0.31211876699E+03 -0.20059589244E+03  0.57514331464E+03  0.22955600375E+04  0.21911524859E+04 0.  0.
        -24    2    3    3    0    0  0.10512953677E+04  0.29732639380E+03 -0.20055827602E+03  0.11140264544E+04  0.84890426059E+02 0.  0.
    9900016    2    1    2    0    0 -0.30497872036E+03  0.17235395563E+03  0.70639885142E+03  0.23027144017E+04  0.21635101971E+04 0.  0.
         23    2    5    5    0    0 -0.32604603011E+03  0.29186332988E+03 -0.73274362910E+03  0.85846463064E+03  0.92509885939E+02 0.  0.
        -15    1    3    3    0    0 -0.73917660072E+03 -0.49792228624E+03  0.77570159066E+03  0.11815335831E+04  0.00000000000E+00 0.  1.
        -15    1    6    6    0    0 -0.11911315439E+03  0.13143797340E+03 -0.37805947629E+03  0.41760370210E+03  0.00000000000E+00 0.  1.
         15    1    6    6    0    0 -0.20693287571E+03  0.16042535648E+03 -0.35468415281E+03  0.44086092853E+03  0.00000000000E+00 0. -1.
         15    1    4    4    0    0  0.39052656438E+02 -0.46854354044E+01 -0.10719755791E+02  0.40767345314E+02  0.00000000000E+00 0. -1.
        -16    1    4    4    0    0  0.10122427113E+04  0.30201182921E+03 -0.18983852023E+03  0.10732591091E+04  0.00000000000E+00 0.  1.
         16    1    5    5    0    0  0.21067309750E+02 -0.11950937424E+03  0.14391424805E+04  0.14442497711E+04  0.00000000000E+00 0. -1.
    9900018    1    1    2    0    0 -0.71400466369E+01  0.28241936808E+02  0.40272533936E+01  0.95812235254E+02  0.91187600000E+02 0.  0.
<mgrwt>
<rscale>  0 0.45146164E+04</rscale>
<asrwt>0</asrwt>
<pdfrwt beam="1">  1        1 0.45997354E+00 0.45146164E+04</pdfrwt>
<pdfrwt beam="2">  1       -1 0.26219364E+00 0.45146164E+04</pdfrwt>
<totfact> 0.26491996E-02</totfact>
</mgrwt>
</event>
<event>
13    1  0.8851382E-011  0.5253867E+04  0.7818608E-02  0.7790496E-01
         -1   -1    0    0    0  501 -0.00000000000E+00  0.00000000000E+00  0.19460440820E+04  0.19460440820E+04  0.00000000000E+00 0.  1.
          1   -1    0    0  501    0  0.00000000000E+00 -0.00000000000E+00 -0.35460548573E+04  0.35460548573E+04  0.00000000000E+00 0. -1.
    9900016    2    1    2    0    0  0.89105737593E+03 -0.17307371987E+03 -0.18975743158E+04  0.30390668858E+04  0.21934451196E+04 0.  0.
         24    2    3    3    0    0  0.12431569087E+03 -0.78978314592E+03  0.10258559312E+03  0.80997222898E+03  0.79494649033E+02 0.  0.
    9900016    2    1    2    0    0 -0.77197684456E+03  0.18224873765E+03  0.28185810191E+03  0.23019486557E+04  0.21425127241E+04 0.  0.
         23    2    5    5    0    0  0.37805517136E+03  0.55362631679E+02 -0.68818969864E+03  0.79209221983E+03  0.88398471807E+02 0.  0.
        -15    1    4    4    0    0  0.97318644651E+02 -0.49502941975E+03  0.31029591643E+02  0.50545808983E+03  0.00000000000E+00 0.  1.
        -15    1    6    6    0    0  0.34065718165E+03  0.70296005245E+02 -0.64648064804E+03  0.73411584376E+03  0.00000000000E+00 0. -1.
         15    1    3    3    0    0  0.76674168506E+03  0.61670942605E+03 -0.20001599089E+04  0.22290946568E+04  0.00000000000E+00 0. -1.
         15    1    6    6    0    0  0.37397989712E+02 -0.14933373566E+02 -0.41709050604E+02  0.57976376075E+02  0.00000000000E+00 0.  1.
        -16    1    5    5    0    0 -0.11500320159E+04  0.12688610598E+03  0.97004780055E+03  0.15098564359E+04  0.00000000000E+00 0.  1.
         16    1    4    4    0    0  0.26997046218E+02 -0.29475372617E+03  0.71556001473E+02  0.30451413915E+03  0.00000000000E+00 0. -1.
    9900018    1    1    2    0    0 -0.11908053138E+03 -0.91750177888E+01  0.15705438528E+02  0.15108339782E+03  0.91187600000E+02 0.  0.
<mgrwt>
<rscale>  0 0.52538668E+04</rscale>
<asrwt>0</asrwt>
<pdfrwt beam="1">  1        1 0.54554689E+00 0.52538668E+04</pdfrwt>
<pdfrwt beam="2">  1       -1 0.29939140E+00 0.52538668E+04</pdfrwt>
<totfact> 0.54117447E-03</totfact>
</mgrwt>
</event>
<event>
13    1  0.8851382E-011  0.6172576E+04  0.7818608E-02  0.7669365E-01
          2   -1    0    0  501    0  0.00000000000E+00  0.00000000000E+00  0.46415318674E+04  0.46415318674E+04  0.00000000000E+00 0. -1.
         -2   -1    0    0    0  501 -0.00000000000E+00 -0.00000000000E+00 -0.20521615420E+04  0.20521615420E+04  0.00000000000E+00 0.  1.
    9900016    2    1    2    0    0  0.92935835672E+03  0.18649930713E+04  0.18226151154E+04  0.35344228511E+04  0.21973422400E+04 0.  0.
        -24    2    3    3    0    0  0.12697924575E+03 -0.40100188549E+03 -0.11909557937E+03  0.44431188147E+03  0.79391749991E+02 0.  0.
    9900016    2    1    2    0    0 -0.92935835672E+03 -0.18649930713E+04  0.76675520999E+03  0.31592705584E+04  0.22474809894E+04 0.  0.
         23    2    5    5    0    0 -0.75902666298E+02  0.36996313747E+03  0.59232645824E+03  0.70819088603E+03  0.89720455268E+02 0.  0.
        -15    1    3    3    0    0  0.80237911098E+03  0.22659949568E+04  0.19417106948E+04  0.30901109696E+04  0.00000000000E+00 0.  1.
        -15    1    6    6    0    0 -0.76210864897E+01  0.10143877004E+03  0.23466544157E+03  0.25576507677E+03  0.00000000000E+00 0.  1.
         15    1    6    6    0    0 -0.68281579809E+02  0.26852436743E+03  0.35766101666E+03  0.45242580926E+03  0.00000000000E+00 0. -1.
         15    1    4    4    0    0  0.39236273129E+02 -0.13404916995E+03 -0.78988293395E+02  0.16046125884E+03  0.00000000000E+00 0. -1.
        -16    1    4    4    0    0  0.87742972617E+02 -0.26695271554E+03 -0.40107285975E+02  0.28385062263E+03  0.00000000000E+00 0.  1.
         16    1    5    5    0    0 -0.82943306474E+03 -0.21870217391E+04  0.16336283837E+03  0.23447197515E+04  0.00000000000E+00 0. -1.
    9900018    1    5    5    0    0 -0.24022625684E+02 -0.47934469679E+02  0.11065913383E+02  0.10635992084E+03  0.91187600000E+02 0.  0.
<mgrwt>
<rscale>  0 0.61725759E+04</rscale>
<asrwt>0</asrwt>
<pdfrwt beam="1">  1        2 0.71408183E+00 0.61725759E+04</pdfrwt>
<pdfrwt beam="2">  1       -2 0.31571716E+00 0.61725759E+04</pdfrwt>
<totfact> 0.14744986E-03</totfact>
</mgrwt>
</event>
<event>
13    1  0.8851382E-011  0.5177143E+04  0.7818608E-02  0.7801747E-01
          1   -1    0    0  501    0  0.00000000000E+00  0.00000000000E+00  0.26864882559E+04  0.26864882559E+04  0.00000000000E+00 0. -1.
         -1   -1    0    0    0  501 -0.00000000000E+00 -0.00000000000E+00 -0.24942238525E+04  0.24942238525E+04  0.00000000000E+00 0.  1.
    9900016    2    1    2    0    0  0.12735089717E+03 -0.11595570545E+04  0.72449723137E+03  0.25902520028E+04  0.21962965160E+04 0.  0.
         24    2    3    3    0    0  0.17985552361E+03  0.64306300472E+03  0.84756737625E+02  0.67675684659E+03  0.70271526379E+02 0.  0.
    9900016    2    1    2    0    0 -0.12735089717E+03  0.11595570545E+04 -0.53223282794E+03  0.25904601056E+04  0.22508711562E+04 0.  0.
         23    2    5    5    0    0  0.34553969019E+03  0.28203142300E+03 -0.11907251949E+04  0.12742869291E+04  0.83912376077E+02 0.  0.
        -15    1    6    6    0    0  0.29600677193E+03  0.25856298104E+03 -0.96427651262E+03  0.10412991967E+04  0.00000000000E+00 0. -1.
        -15    1    4    4    0    0  0.84712701056E+02  0.39249364336E+03  0.26032433433E+02  0.40237443929E+03  0.00000000000E+00 0.  1.
         15    1    3    3    0    0 -0.52504626436E+02 -0.18026200592E+04  0.63974049374E+03  0.19134951562E+04  0.00000000000E+00 0. -1.
         15    1    6    6    0    0  0.49532918266E+02  0.23468441961E+02 -0.22644868226E+03  0.23298773241E+03  0.00000000000E+00 0.  1.
        -16    1    5    5    0    0 -0.44524194621E+03  0.78811257555E+03  0.73388828314E+03  0.11653127625E+04  0.00000000000E+00 0.  1.
         16    1    4    4    0    0  0.95142822550E+02  0.25056936135E+03  0.58724304192E+02  0.27438240730E+03  0.00000000000E+00 0. -1.
    9900018    1    5    5    0    0 -0.27648641150E+02  0.89413055909E+02 -0.75395916202E+02  0.15086041395E+03  0.91187600000E+02 0.  0.
<mgrwt>
<rscale>  0 0.51771433E+04</rscale>
<asrwt>0</asrwt>
<pdfrwt beam="1">  1        1 0.41330588E+00 0.51771433E+04</pdfrwt>
<pdfrwt beam="2">  1       -1 0.38372675E+00 0.51771433E+04</pdfrwt>
<totfact> 0.65959975E-03</totfact>
</mgrwt>
</event>
