<event>
11    1  0.2311445E-015  0.3118947E+04  0.7818608E-02  0.8210557E-01
          1   -1    0    0  501    0  0.00000000000E+00  0.00000000000E+00  0.26505059527E+04  0.26505059527E+04  0.00000000000E+00 0. -1.
         -1   -1    0    0    0  501 -0.00000000000E+00 -0.00000000000E+00 -0.91754450182E+03  0.91754450182E+03  0.00000000000E+00 0.  1.
    9900016    2    1    2    0    0  0.32206375379E+03  0.78280473270E+02  0.15183491729E+03  0.75561569537E+03  0.66185220630E+03 0.  0.
         23    2    3    3    0    0  0.18227282321E+03  0.34915377142E+03 -0.22463946738E+02  0.40448332443E+03  0.89277055651E+02 0.  0.
        -15    1    4    4    0    0  0.12666705695E+03  0.14761595218E+03 -0.18334016722E+02  0.19537438118E+03  0.00000000000E+00 0.  1.
        -15    1    1    2    0    0 -0.72037211698E+03  0.37455617178E+03 -0.40667759604E+01  0.81193894562E+03  0.00000000000E+00 0.  1.
         15    1    4    4    0    0  0.55605766263E+02  0.20153781924E+03 -0.41299300166E+01  0.20910894325E+03  0.00000000000E+00 0. -1.
         15    1    1    2    0    0  0.56186417856E+03 -0.19094569989E+03  0.14100411833E+04  0.15298260535E+04  0.00000000000E+00 0. -1.
        -16    1    1    2    0    0 -0.18077188698E+03 -0.28236856644E+03  0.10108455937E+03  0.35018362409E+03  0.00000000000E+00 0.  1.
         16    1    3    3    0    0  0.13979093058E+03 -0.27087329815E+03  0.17429886403E+03  0.35113237094E+03  0.00000000000E+00 0. -1.
    9900018    1    1    2    0    0  0.17216071616E+02  0.20477621279E+02  0.74067566954E+02  0.12048613598E+03  0.91187600000E+02 0.  0.
<mgrwt>
<rscale>  0 0.31189467E+04</rscale>
<asrwt>0</asrwt>
<pdfrwt beam="1">  1        1 0.40777014E+00 0.31189467E+04</pdfrwt>
<pdfrwt beam="2">  1       -1 0.14116069E+00 0.31189467E+04</pdfrwt>
<totfact> 0.36730056E-01</totfact>
</mgrwt>
</event>
<event>
11    1  0.2311445E-015  0.3204923E+04  0.7818608E-02  0.8187518E-01
         -2   -1    0    0    0  501 -0.00000000000E+00  0.00000000000E+00  0.17532739501E+04  0.17532739501E+04  0.00000000000E+00 0. -1.
          2   -1    0    0  501    0  0.00000000000E+00 -0.00000000000E+00 -0.14646213495E+04  0.14646213495E+04  0.00000000000E+00 0.  1.
    9900016    2    1    2    0    0  0.28706696883E+03 -0.32593891634E+03 -0.18151772776E+03  0.80786820075E+03  0.65655062449E+03 0.  0.
         23    2    3    3    0    0  0.35399671560E+03 -0.31618695301E+03  0.12082147882E+03  0.49805585816E+03  0.90409867808E+02 0.  0.
        -15    1    1    2    0    0 -0.35711058144E+03 -0.18740088692E+00 -0.68622928809E+03  0.77358815808E+03  0.00000000000E+00 0.  1.
        -15    1    4    4    0    0  0.99041271436E+02 -0.38888264719E+02  0.22762974443E+02  0.10881003440E+03  0.00000000000E+00 0.  1.
         15    1    1    2    0    0  0.75068408075E+02  0.49036007163E+03  0.26852840776E+03  0.56408844299E+03  0.00000000000E+00 0. -1.
         15    1    4    4    0    0  0.25495544416E+03 -0.27729868829E+03  0.98058504374E+02  0.38924582376E+03  0.00000000000E+00 0. -1.
        -16    1    3    3    0    0 -0.66929746769E+02 -0.97519633347E+01 -0.30233920657E+03  0.30981234259E+03  0.00000000000E+00 0.  1.
         16    1    1    2    0    0 -0.85986430869E+02 -0.16545070331E+03  0.92599509115E+03  0.94458165891E+03  0.00000000000E+00 0. -1.
    9900018    1    1    2    0    0  0.80961635405E+02  0.12169489173E+01 -0.38123882510E+02  0.12776883886E+03  0.91187600000E+02 0.  0.
<mgrwt>
<rscale>  0 0.32049228E+04</rscale>
<asrwt>0</asrwt>
<pdfrwt beam="1">  1        2 0.22532636E+00 0.32049228E+04</pdfrwt>
<pdfrwt beam="2">  1       -2 0.26973445E+00 0.32049228E+04</pdfrwt>
<totfact> 0.54432933E-01</totfact>
</mgrwt>
</event>
<event>
11    1  0.2311445E-015  0.9667898E+03  0.7818608E-02  0.9611150E-01
          2   -1    0    0  501    0  0.00000000000E+00  0.00000000000E+00  0.28427284583E+04  0.28427284583E+04  0.00000000000E+00 0. -1.
         -2   -1    0    0    0  501 -0.00000000000E+00 -0.00000000000E+00 -0.16165647221E+03  0.16165647221E+03  0.00000000000E+00 0.  1.
    9900016    2    1    2    0    0 -0.17955144547E+03  0.23834221862E+03  0.13286456970E+04  0.15121011283E+04  0.65734671170E+03 0.  0.
         23    2    3    3    0    0  0.21676117884E+03 -0.35600129612E+02  0.49708179253E+03  0.55105657496E+03  0.91215472694E+02 0.  0.
        -15    1    1    2    0    0  0.75525634052E+02  0.66054382517E+01 -0.52927064556E+01  0.75998460215E+02  0.00000000000E+00 0.  1.
        -15    1    4    4    0    0  0.56605509374E+02 -0.14100293527E+02  0.24329976839E+03  0.25019548211E+03  0.00000000000E+00 0. -1.
         15    1    1    2    0    0  0.12495426932E+03 -0.13753485759E+03  0.61597033669E+03  0.64338857789E+03  0.00000000000E+00 0. -1.
         15    1    4    4    0    0  0.16015566946E+03 -0.21499836084E+02  0.25378202414E+03  0.30086109285E+03  0.00000000000E+00 0.  1.
        -16    1    3    3    0    0 -0.39631262431E+03  0.27394234823E+03  0.83156390447E+03  0.96104455337E+03  0.00000000000E+00 0.  1.
         16    1    1    2    0    0 -0.94914323154E+01 -0.72510610742E+02  0.57263765795E+03  0.57728828436E+03  0.00000000000E+00 0. -1.
    9900018    1    1    2    0    0 -0.11437025586E+02 -0.34902188542E+02  0.16911100087E+03  0.19560847969E+03  0.91187600000E+02 0.  0.
<mgrwt>
<rscale>  0 0.76562577E+03</rscale>
<asrwt>0</asrwt>
<pdfrwt beam="1">  1        2 0.43734280E+00 0.96678983E+03</pdfrwt>
<pdfrwt beam="2">  1       -2 0.24870229E-01 0.96678983E+03</pdfrwt>
<totfact> 0.32229006E+01</totfact>
</mgrwt>
</event>
<event>
11    1  0.2311445E-015  0.3254355E+04  0.7818608E-02  0.8174608E-01
         -2   -1    0    0    0  501 -0.00000000000E+00  0.00000000000E+00  0.28411761999E+04  0.28411761999E+04  0.00000000000E+00 0. -1.
          2   -1    0    0  501    0  0.00000000000E+00 -0.00000000000E+00 -0.93190539200E+03  0.93190539200E+03  0.00000000000E+00 0.  1.
    9900016    2    1    2    0    0 -0.33274412049E+03 -0.35111543955E+03  0.15571439235E+04  0.17603052578E+04  0.66330739532E+03 0.  0.
         23    2    3    3    0    0 -0.17026746697E+03 -0.39754792805E+03  0.41788780030E+03  0.60858517329E+03  0.93329170683E+02 0.  0.
        -15    1    4    4    0    0 -0.70296927652E+02 -0.92224807067E+02  0.15431500459E+03  0.19302899709E+03  0.00000000000E+00 0.  1.
        -15    1    1    2    0    0  0.37588073596E+03  0.49869941088E+03 -0.33964811537E+03  0.71087852152E+03  0.00000000000E+00 0.  1.
         15    1    1    2    0    0 -0.25271471486E+03  0.11461315505E+03  0.49786745713E+03  0.56997623397E+03  0.00000000000E+00 0. -1.
         15    1    4    4    0    0 -0.99970539320E+02 -0.30532312098E+03  0.26357279572E+03  0.41555617620E+03  0.00000000000E+00 0. -1.
        -16    1    1    2    0    0  0.30325458015E+03 -0.20444535094E+03 -0.12170978663E+03  0.38545364710E+03  0.00000000000E+00 0.  1.
         16    1    3    3    0    0 -0.16247665352E+03  0.46432488500E+02  0.11392561232E+04  0.11517200845E+04  0.00000000000E+00 0. -1.
    9900018    1    1    2    0    0 -0.93676480750E+02 -0.57751775445E+02  0.31561732931E+03  0.34646793152E+03  0.91187600000E+02 0.  0.
<mgrwt>
<rscale>  0 0.32543555E+04</rscale>
<asrwt>0</asrwt>
<pdfrwt beam="1">  1        2 0.14337006E+00 0.32543555E+04</pdfrwt>
<pdfrwt beam="2">  1       -2 0.43710403E+00 0.32543555E+04</pdfrwt>
<totfact> 0.98722939E-02</totfact>
</mgrwt>
</event>
<event>
11    1  0.2311445E-015  0.2326586E+04  0.7818608E-02  0.8467512E-01
         -2   -1    0    0    0  501 -0.00000000000E+00  0.00000000000E+00  0.39037254619E+03  0.39037254619E+03  0.00000000000E+00 0. -1.
          2   -1    0    0  501    0  0.00000000000E+00 -0.00000000000E+00 -0.34665609674E+04  0.34665609674E+04  0.00000000000E+00 0.  1.
    9900016    2    1    2    0    0  0.33915317623E+03 -0.42923970881E+03 -0.11049285063E+04  0.14490422569E+04  0.76130470489E+03 0.  0.
         23    2    3    3    0    0  0.15072459161E+01  0.29475640562E+01  0.81354877084E+02  0.12292789182E+03  0.92096094585E+02 0.  0.
        -15    1    1    2    0    0 -0.75236174408E+03  0.13394589644E+03 -0.11544661130E+04  0.13844788562E+04  0.00000000000E+00 0.  1.
        -15    1    4    4    0    0 -0.40881046059E+02 -0.95621336307E+01  0.61530618746E+02  0.74489672907E+02  0.00000000000E+00 0. -1.
         15    1    1    2    0    0  0.26532668962E+03  0.62565555321E+02 -0.17250750156E+03  0.32260120743E+03  0.00000000000E+00 0. -1.
         15    1    4    4    0    0  0.42388291975E+02  0.12509697687E+02  0.19824258338E+02  0.48438218913E+02  0.00000000000E+00 0.  1.
        -16    1    3    3    0    0  0.23981887410E+03 -0.35256999432E+03 -0.97064081589E+03  0.10601708762E+04  0.00000000000E+00 0.  1.
         16    1    1    2    0    0  0.14788187823E+03  0.23272825705E+03 -0.64428630029E+03  0.70081119303E+03  0.00000000000E+00 0. -1.
    9900018    1    3    3    0    0  0.97827056214E+02 -0.79617278551E+02 -0.21564256752E+03  0.26594348891E+03  0.91187600000E+02 0.  0.
<mgrwt>
<rscale>  0 0.23265857E+04</rscale>
<asrwt>0</asrwt>
<pdfrwt beam="1">  1        2 0.53331707E+00 0.23265857E+04</pdfrwt>
<pdfrwt beam="2">  1       -2 0.60057316E-01 0.23265857E+04</pdfrwt>
<totfact> 0.20105512E+00</totfact>
</mgrwt>
</event>
<event>
11    1  0.2311445E-015  0.9265140E+03  0.7818608E-02  0.9849630E-01
         -2   -1    0    0    0  501 -0.00000000000E+00  0.00000000000E+00  0.23462051424E+03  0.23462051424E+03  0.00000000000E+00 0.  1.
          2   -1    0    0  501    0  0.00000000000E+00 -0.00000000000E+00 -0.14874375893E+04  0.14874375893E+04  0.00000000000E+00 0. -1.
    9900016    2    1    2    0    0 -0.11836602373E+03 -0.89190857728E+02 -0.45140475745E+03  0.82107716048E+03  0.66965358487E+03 0.  0.
         23    2    3    3    0    0 -0.80503617175E+02  0.27748313949E+03 -0.11930889064E+03  0.32492088790E+03  0.88663673132E+02 0.  0.
        -15    1    4    4    0    0 -0.92848702121E+02  0.25031723117E+03 -0.86670220362E+02  0.28069792448E+03  0.00000000000E+00 0.  1.
        -15    1    1    2    0    0 -0.50923695891E+02  0.47323401291E+02 -0.26255156721E+03  0.27159906583E+03  0.00000000000E+00 0. -1.
         15    1    4    4    0    0  0.12345084946E+02  0.27165908311E+02 -0.32638670277E+02  0.44222963426E+02  0.00000000000E+00 0. -1.
         15    1    1    2    0    0  0.42634211827E+02  0.79694660222E+02 -0.17418211681E+03  0.19623538087E+03  0.00000000000E+00 0.  1.
        -16    1    1    2    0    0  0.10057500267E+03 -0.11125229927E+02 -0.29659510275E+03  0.31338116867E+03  0.00000000000E+00 0.  1.
         16    1    3    3    0    0 -0.37862406552E+02 -0.36667399721E+03 -0.33209586681E+03  0.49615627257E+03  0.00000000000E+00 0. -1.
    9900018    1    1    2    0    0  0.26080505123E+02 -0.26701973857E+02 -0.68083530845E+02  0.11976532771E+03  0.91187600000E+02 0.  0.
<mgrwt>
<rscale>  0 0.62765801E+03</rscale>
<asrwt>0</asrwt>
<pdfrwt beam="1">  1        2 0.22883655E+00 0.92651400E+03</pdfrwt>
<pdfrwt beam="2">  1       -2 0.36095464E-01 0.92651400E+03</pdfrwt>
<totfact> 0.93521273E+01</totfact>
</mgrwt>
</event>
