<event>
12    1  0.3782800E-018  0.2708653E+04  0.7818608E-02  0.8787958E-01
          2   -1    0    0  501    0  0.00000000000E+00  0.00000000000E+00  0.35846438661E+04  0.35846438661E+04  0.00000000000E+00 0. -1.
         -2   -1    0    0    0  501 -0.00000000000E+00 -0.00000000000E+00 -0.77106258649E+03  0.77106258649E+03  0.00000000000E+00 0.  1.
         23    2    1    2    0    0 -0.14838431506E+03 -0.33802568607E+03 -0.87427228687E+02  0.38674570031E+03  0.75162803229E+02 0.  0.
    9900016    2    1    2    0    0  0.19701121335E+03  0.39627211466E+03  0.19112012258E+04  0.29124366602E+04  0.21526151926E+04 0.  0.
        -24    2    4    4    0    0  0.11473568632E+04  0.38957828369E+03  0.13179840461E+04  0.17921205068E+04  0.80093410180E+02 0.  0.
        -15    1    4    4    0    0 -0.95034564983E+03  0.66938309698E+01  0.59321717967E+03  0.11203161535E+04  0.00000000000E+00 0.  1.
        -15    1    3    3    0    0 -0.32627107989E+02 -0.11280222142E+03 -0.60480514698E+02  0.13208619152E+03  0.00000000000E+00 0. -1.
         15    1    5    5    0    0  0.63736085149E+03  0.20589566232E+03  0.78507084866E+03  0.10319680791E+04  0.00000000000E+00 0. -1.
         15    1    3    3    0    0 -0.11575720707E+03 -0.22522346465E+03 -0.26946713989E+02  0.25465950878E+03  0.00000000000E+00 0.  1.
        -16    1    5    5    0    0  0.50999601169E+03  0.18368262137E+03  0.53291319743E+03  0.76015242770E+03  0.00000000000E+00 0.  1.
         16    1    1    2    0    0 -0.90192102739E+02 -0.55539287540E+02  0.93746852404E+03  0.94343333703E+03  0.00000000000E+00 0. -1.
    9900018    1    1    2    0    0  0.41565204455E+02 -0.27071410471E+01  0.52338758488E+02  0.11309075501E+03  0.91187600000E+02 0.  0.
<mgrwt>
<rscale>  0 0.16541457E+04</rscale>
<asrwt>0</asrwt>
<pdfrwt beam="1">  1        2 0.55148366E+00 0.27086526E+04</pdfrwt>
<pdfrwt beam="2">  1       -2 0.11862502E+00 0.27086526E+04</pdfrwt>
<totfact> 0.33378212E-01</totfact>
</mgrwt>
</event>
<event>
11    1  0.3782800E-018  0.2879571E+04  0.7818608E-02  0.8645538E-01
         -2   -1    0    0    0  501 -0.00000000000E+00  0.00000000000E+00  0.20054573662E+04  0.20054573662E+04  0.00000000000E+00 0.  1.
          2   -1    0    0  501    0  0.00000000000E+00 -0.00000000000E+00 -0.15006235977E+04  0.15006235977E+04  0.00000000000E+00 0. -1.
    9900016    2    1    2    0    0 -0.60233500396E+03  0.13497676444E+03  0.57169768316E+03  0.24071001401E+04  0.22552752957E+04 0.  0.
        -24    2    3    3    0    0 -0.91202923703E+03 -0.37388689660E+03 -0.47858981664E+03  0.10983819203E+04  0.76196388334E+02 0.  0.
        -15    1    3    3    0    0  0.34293404852E+03  0.55880399791E+03  0.97929909968E+03  0.11785127901E+04  0.00000000000E+00 0.  1.
        -15    1    1    2    0    0  0.47329333483E+01  0.14374730276E+02 -0.16559160316E+02  0.22432996210E+02  0.00000000000E+00 0.  1.
         15    1    1    2    0    0  0.49024122712E+03  0.21678530719E+03  0.24954324327E+03  0.59127333818E+03  0.00000000000E+00 0. -1.
         15    1    4    4    0    0 -0.87418879102E+03 -0.36511370136E+03 -0.47379482445E+03  0.10592429339E+04  0.00000000000E+00 0. -1.
        -16    1    4    4    0    0 -0.37840446010E+02 -0.87731952475E+01 -0.47949921931E+01  0.39138986436E+02  0.00000000000E+00 0.  1.
         16    1    1    2    0    0  0.10736084350E+03 -0.36613680191E+03 -0.29984799759E+03  0.48527448942E+03  0.00000000000E+00 0. -1.
    9900018    1    3    3    0    0 -0.33239815444E+02 -0.49940336867E+02  0.70988400123E+02  0.13020542970E+03  0.91187600000E+02 0.  0.
<mgrwt>
<rscale>  0 0.19188342E+04</rscale>
<asrwt>0</asrwt>
<pdfrwt beam="1">  1        2 0.23086517E+00 0.28795709E+04</pdfrwt>
<pdfrwt beam="2">  1       -2 0.30853191E+00 0.28795709E+04</pdfrwt>
<totfact> 0.30299217E-01</totfact>
</mgrwt>
</event>
<event>
12    1  0.3782800E-018  0.3027649E+04  0.7818608E-02  0.8736100E-01
         -2   -1    0    0    0  501 -0.00000000000E+00  0.00000000000E+00  0.14116677278E+04  0.14116677278E+04  0.00000000000E+00 0.  1.
          2   -1    0    0  501    0  0.00000000000E+00 -0.00000000000E+00 -0.21884811195E+04  0.21884811195E+04  0.00000000000E+00 0. -1.
         23    2    1    2    0    0 -0.85561932078E+02 -0.30528718576E+03  0.23436391163E+03  0.40810587885E+03  0.10537008716E+03 0.  0.
    9900016    2    1    2    0    0 -0.19206782094E+03  0.10559462560E+03 -0.14840309834E+03  0.22639617613E+04  0.22484348121E+04 0.  0.
        -24    2    4    4    0    0  0.86219509920E+03  0.26150663593E+03  0.31752113667E+03  0.95874120416E+03  0.81233703597E+02 0.  0.
        -15    1    3    3    0    0 -0.10530329889E+03 -0.24193613179E+03  0.21067848788E+03  0.33764967330E+03  0.00000000000E+00 0.  1.
        -15    1    4    4    0    0 -0.10806420491E+04 -0.15801201052E+03 -0.50413006874E+03  0.12028724620E+04  0.00000000000E+00 0.  1.
         15    1    5    5    0    0  0.37240650723E+03  0.71149473918E+02  0.13566641842E+03  0.40268378581E+03  0.00000000000E+00 0. -1.
         15    1    3    3    0    0  0.19741366810E+02 -0.63351053974E+02  0.23685423744E+02  0.70456205554E+02  0.00000000000E+00 0. -1.
        -16    1    5    5    0    0  0.48978859197E+03  0.19035716201E+03  0.18185471824E+03  0.55605741835E+03  0.00000000000E+00 0.  1.
         16    1    1    2    0    0  0.27762975302E+03  0.19969256016E+03 -0.86277420494E+03  0.92808120714E+03  0.00000000000E+00 0. -1.
    9900018    1    4    4    0    0  0.26379128932E+02  0.21000001962E+01  0.38205833725E+02  0.10234809509E+03  0.91187600000E+02 0.  0.
<mgrwt>
<rscale>  0 0.17450137E+04</rscale>
<asrwt>0</asrwt>
<pdfrwt beam="1">  1        2 0.33668940E+00 0.30276491E+04</pdfrwt>
<pdfrwt beam="2">  1       -2 0.21717965E+00 0.30276491E+04</pdfrwt>
<totfact> 0.45336127E-01</totfact>
</mgrwt>
</event>
<event>
12    1  0.3782800E-018  0.2752007E+04  0.7818608E-02  0.8799755E-01
         -2   -1    0    0    0  501 -0.00000000000E+00  0.00000000000E+00  0.11327779942E+04  0.11327779942E+04  0.00000000000E+00 0.  1.
          2   -1    0    0  501    0  0.00000000000E+00 -0.00000000000E+00 -0.24518815012E+04  0.24518815012E+04  0.00000000000E+00 0. -1.
         23    2    1    2    0    0  0.23930786312E+03  0.22092277425E+03  0.24342543928E+03  0.42000499033E+03  0.10522890231E+03 0.  0.
    9900016    2    1    2    0    0  0.86081337825E+02 -0.18811297404E+03 -0.10055175548E+04  0.23758657136E+04  0.21426329243E+04 0.  0.
        -24    2    4    4    0    0 -0.79050486606E+03 -0.74127549360E+03 -0.31839191753E+03  0.11322685975E+04  0.79192569445E+02 0.  0.
        -15    1    3    3    0    0  0.23030151541E+03  0.15987635624E+03  0.20502976221E+03  0.34732756971E+03  0.00000000000E+00 0.  1.
        -15    1    4    4    0    0  0.87658620388E+03  0.55316251956E+03 -0.68712563725E+03  0.12435971161E+04  0.00000000000E+00 0.  1.
         15    1    5    5    0    0 -0.25583180573E+03 -0.27780812502E+03 -0.84182807780E+02  0.38692894991E+03  0.00000000000E+00 0. -1.
         15    1    3    3    0    0  0.90063477008E+01  0.61046418005E+02  0.38395677072E+02  0.72677420620E+02  0.00000000000E+00 0. -1.
        -16    1    5    5    0    0 -0.53467306033E+03 -0.46346736858E+03 -0.23420910975E+03  0.74533964759E+03  0.00000000000E+00 0.  1.
         16    1    1    2    0    0 -0.40359684337E+03 -0.30852370770E+02 -0.52779671837E+03  0.66514032857E+03  0.00000000000E+00 0. -1.
    9900018    1    1    2    0    0  0.78207642430E+02 -0.19574294319E+01 -0.29214673082E+02  0.12364846292E+03  0.91187600000E+02 0.  0.
<mgrwt>
<rscale>  0 0.16342899E+04</rscale>
<asrwt>0</asrwt>
<pdfrwt beam="1">  1        2 0.37721254E+00 0.27520068E+04</pdfrwt>
<pdfrwt beam="2">  1       -2 0.17427354E+00 0.27520068E+04</pdfrwt>
<totfact> 0.63257630E-01</totfact>
</mgrwt>
</event>
<event>
12    1  0.3782800E-018  0.3284249E+04  0.7818608E-02  0.8586927E-01
          1   -1    0    0  501    0  0.00000000000E+00  0.00000000000E+00  0.18780615468E+04  0.18780615468E+04  0.00000000000E+00 0. -1.
         -1   -1    0    0    0  501 -0.00000000000E+00 -0.00000000000E+00 -0.19236774581E+04  0.19236774581E+04  0.00000000000E+00 0.  1.
         23    2    1    2    0    0  0.15754438696E+03 -0.44859541852E+03  0.14371486567E+03  0.51203694926E+03  0.12437761619E+03 0.  0.
    9900016    2    1    2    0    0 -0.61040716229E+03 -0.25898506554E+03 -0.27374273560E+03  0.22713537367E+04  0.21550968758E+04 0.  0.
         24    2    4    4    0    0  0.46204106613E+03 -0.28696167404E+03  0.65304274067E+03  0.85365870167E+03  0.80245925909E+02 0.  0.
        -15    1    3    3    0    0  0.33695206703E+02 -0.47881171517E+02 -0.19897427193E+02  0.61837538353E+02  0.00000000000E+00 0.  1.
        -15    1    5    5    0    0  0.23368719872E+03 -0.14831210941E+03  0.39432704588E+03  0.48176758687E+03  0.00000000000E+00 0.  1.
         15    1    4    4    0    0 -0.10724482284E+04  0.27976608501E+02 -0.92678547627E+03  0.14176950350E+04  0.00000000000E+00 0. -1.
         15    1    3    3    0    0  0.12384918026E+03 -0.40071424700E+03  0.16361229287E+03  0.45019941090E+03  0.00000000000E+00 0. -1.
        -16    1    1    2    0    0  0.47562478273E+03  0.76780766607E+03  0.72703951367E+02  0.90610893968E+03  0.00000000000E+00 0.  1.
         16    1    5    5    0    0  0.22835386741E+03 -0.13864956464E+03  0.25871569479E+03  0.37189111480E+03  0.00000000000E+00 0. -1.
    9900018    1    1    2    0    0 -0.22762007402E+02 -0.60227182005E+02  0.11708007283E+02  0.11223937928E+03  0.91187600000E+02 0.  0.
<mgrwt>
<rscale>  0 0.20426690E+04</rscale>
<asrwt>0</asrwt>
<pdfrwt beam="1">  1        1 0.28893255E+00 0.32842493E+04</pdfrwt>
<pdfrwt beam="2">  1       -1 0.29595038E+00 0.32842493E+04</pdfrwt>
<totfact> 0.10328784E-01</totfact>
</mgrwt>
</event>
<event>
12    1  0.3782800E-018  0.2823273E+04  0.7818608E-02  0.8914543E-01
          1   -1    0    0  501    0  0.00000000000E+00  0.00000000000E+00  0.21614540502E+04  0.21614540502E+04  0.00000000000E+00 0. -1.
         -1   -1    0    0    0  501 -0.00000000000E+00 -0.00000000000E+00 -0.10702602788E+04  0.10702602788E+04  0.00000000000E+00 0.  1.
         23    2    1    2    0    0 -0.11867282585E+03 -0.11801888162E+03 -0.13691766413E+02  0.19994188940E+03  0.10852464538E+03 0.  0.
    9900016    2    1    2    0    0  0.45813782051E+03 -0.17306257281E+03  0.11630205928E+04  0.25808349935E+04  0.22512777367E+04 0.  0.
        -24    2    4    4    0    0  0.11233738776E+04  0.18113402629E+03  0.90716957618E+02  0.11445492471E+04  0.83576361644E+02 0.  0.
        -15    1    4    4    0    0 -0.74487115140E+03 -0.34093916980E+03  0.10069030234E+04  0.12980470901E+04  0.00000000000E+00 0.  1.
        -15    1    3    3    0    0 -0.22773663816E+02 -0.20132892670E+02 -0.49697605639E+02  0.58256545873E+02  0.00000000000E+00 0.  1.
         15    1    5    5    0    0  0.83763077781E+03  0.16246648487E+03  0.43671634408E+02  0.85435817448E+03  0.00000000000E+00 0. -1.
         15    1    3    3    0    0 -0.95899162038E+02 -0.97885988946E+02  0.36005839225E+02  0.14168534352E+03  0.00000000000E+00 0. -1.
        -16    1    5    5    0    0  0.28574309977E+03  0.18667541415E+02  0.47045323210E+02  0.29019107258E+03  0.00000000000E+00 0.  1.
         16    1    1    2    0    0 -0.33946499466E+03  0.29108145443E+03 -0.58135054938E+02  0.45093744613E+03  0.00000000000E+00 0. -1.
    9900018    1    4    4    0    0  0.79635094330E+02 -0.13257429293E+02  0.65400611786E+02  0.13823865630E+03  0.91187600000E+02 0.  0.
<mgrwt>
<rscale>  0 0.14555780E+04</rscale>
<asrwt>0</asrwt>
<pdfrwt beam="1">  1        1 0.33253139E+00 0.28232733E+04</pdfrwt>
<pdfrwt beam="2">  1       -1 0.16465543E+00 0.28232733E+04</pdfrwt>
<totfact> 0.53516998E-01</totfact>
</mgrwt>
</event>
<event>
11    1  0.3782801E-018  0.3011147E+04  0.7818608E-02  0.8576344E-01
         -2   -1    0    0    0  501 -0.00000000000E+00  0.00000000000E+00  0.21323098027E+04  0.21323098027E+04  0.00000000000E+00 0.  1.
          2   -1    0    0  501    0  0.00000000000E+00 -0.00000000000E+00 -0.16660074269E+04  0.16660074269E+04  0.00000000000E+00 0. -1.
    9900016    2    1    2    0    0  0.49871670191E+03  0.35941495801E+03  0.40506912581E+03  0.22721547809E+04  0.21495834227E+04 0.  0.
         24    2    3    3    0    0 -0.36987783868E+03 -0.44664832270E+03 -0.50902020737E+03  0.77557407897E+03  0.78161632181E+02 0.  0.
        -15    1    1    2    0    0 -0.28318366230E+02  0.42370112920E+02 -0.37945499075E+02  0.63537526194E+02  0.00000000000E+00 0. -1.
        -15    1    4    4    0    0 -0.63862282216E+02 -0.10419643540E+03 -0.73284979562E+02  0.14249904024E+03  0.00000000000E+00 0.  1.
         15    1    3    3    0    0  0.86859454059E+03  0.80606328071E+03  0.91408933319E+03  0.14965807020E+04  0.00000000000E+00 0. -1.
         15    1    1    2    0    0 -0.58640731408E+03  0.17885154906E+03 -0.19531837424E+03  0.64343661842E+03  0.00000000000E+00 0.  1.
        -16    1    1    2    0    0  0.97459083475E+02 -0.62819153752E+03  0.31987588253E+03  0.71164841108E+03  0.00000000000E+00 0.  1.
         16    1    4    4    0    0 -0.30601555646E+03 -0.34245188730E+03 -0.43573522781E+03  0.63307503873E+03  0.00000000000E+00 0. -1.
    9900018    1    1    2    0    0  0.18549894929E+02  0.47554917532E+02 -0.25378759236E+02  0.10753989305E+03  0.91187600000E+02 0.  0.
<mgrwt>
<rscale>  0 0.20660596E+04</rscale>
<asrwt>0</asrwt>
<pdfrwt beam="1">  1        2 0.25630884E+00 0.30111475E+04</pdfrwt>
<pdfrwt beam="2">  1       -2 0.32804766E+00 0.30111475E+04</pdfrwt>
<totfact> 0.18243576E-01</totfact>
</mgrwt>
</event>
<event>
11    1  0.3782800E-018  0.3248773E+04  0.7818608E-02  0.8653209E-01
          1   -1    0    0  501    0  0.00000000000E+00  0.00000000000E+00  0.17253042567E+04  0.17253042567E+04  0.00000000000E+00 0. -1.
         -1   -1    0    0    0  501 -0.00000000000E+00 -0.00000000000E+00 -0.20349954064E+04  0.20349954064E+04  0.00000000000E+00 0.  1.
    9900016    2    1    2    0    0  0.82774677512E+01  0.56720910762E+03 -0.42187794766E+03  0.23638233539E+04  0.22556340921E+04 0.  0.
        -24    2    3    3    0    0  0.80073452028E+03  0.18483297987E+02 -0.91871354074E+03  0.12214352819E+04  0.79700524470E+02 0.  0.
        -15    1    1    2    0    0  0.15797355143E+02  0.15843925041E+03  0.19491181177E+03  0.25168068433E+03  0.00000000000E+00 0. -1.
        -15    1    3    3    0    0 -0.77576751971E+03  0.50865388628E+03  0.45115804517E+03  0.10315462192E+04  0.00000000000E+00 0.  1.
         15    1    4    4    0    0  0.54334153273E+03 -0.24722950146E+02 -0.62295012596E+03  0.82698132076E+03  0.00000000000E+00 0. -1.
         15    1    1    2    0    0 -0.36995119846E+02  0.19700350504E+03  0.64096362764E+02  0.21044563101E+03  0.00000000000E+00 0.  1.
        -16    1    4    4    0    0  0.25739298755E+03  0.43206248132E+02 -0.29576341478E+03  0.39445396112E+03  0.00000000000E+00 0.  1.
         16    1    1    2    0    0  0.12920296952E+02 -0.92265186307E+03 -0.14682137664E+03  0.93434999392E+03  0.00000000000E+00 0. -1.
    9900018    1    3    3    0    0 -0.16689532817E+02  0.40071923351E+02  0.45677547913E+02  0.11084185276E+03  0.91187600000E+02 0.  0.
<mgrwt>
<rscale>  0 0.19033129E+04</rscale>
<asrwt>0</asrwt>
<pdfrwt beam="1">  1        1 0.26543142E+00 0.32487734E+04</pdfrwt>
<pdfrwt beam="2">  1       -1 0.31307622E+00 0.32487734E+04</pdfrwt>
<totfact> 0.10192330E-01</totfact>
</mgrwt>
</event>
<event>
12    1  0.3782800E-018  0.3306115E+04  0.7818608E-02  0.8548539E-01
         -1   -1    0    0    0  501 -0.00000000000E+00  0.00000000000E+00  0.35255149410E+04  0.35255149410E+04  0.00000000000E+00 0.  1.
          1   -1    0    0  501    0  0.00000000000E+00 -0.00000000000E+00 -0.14970314672E+04  0.14970314672E+04  0.00000000000E+00 0. -1.
         23    2    1    2    0    0 -0.46604284561E+03  0.29968238697E+03 -0.57930208771E+03  0.81173367497E+03  0.12773090171E+03 0.  0.
    9900016    2    1    2    0    0 -0.49490500021E+02 -0.96885797702E+03  0.21058783990E+04  0.32282236021E+04  0.22462343387E+04 0.  0.
        -24    2    4    4    0    0  0.72131617535E+03  0.31760678873E+01 -0.94642581987E+01  0.72576833957E+03  0.79642942677E+02 0.  0.
        -15    1    4    4    0    0 -0.78618631658E+03 -0.91544899119E+03  0.20408752892E+04  0.23709297177E+04  0.00000000000E+00 0.  1.
        -15    1    3    3    0    0 -0.29040167306E+03  0.24928476653E+03 -0.35094596284E+03  0.51926784550E+03  0.00000000000E+00 0.  1.
         15    1    5    5    0    0  0.50218223494E+03  0.38820540059E+02 -0.85041541501E+01  0.50375227251E+03  0.00000000000E+00 0. -1.
         15    1    3    3    0    0 -0.17564117256E+03  0.50397620447E+02 -0.22835612487E+03  0.29246582948E+03  0.00000000000E+00 0. -1.
        -16    1    5    5    0    0  0.21913394040E+03 -0.35644472172E+02 -0.96010404865E+00  0.22201606706E+03  0.00000000000E+00 0.  1.
         16    1    1    2    0    0  0.51553334564E+03  0.66917559005E+03  0.50190716244E+03  0.98258913107E+03  0.00000000000E+00 0. -1.
    9900018    1    4    4    0    0  0.15379641213E+02 -0.56585053716E+02  0.74467367988E+02  0.13152554488E+03  0.91187600000E+02 0.  0.
<mgrwt>
<rscale>  0 0.21290834E+04</rscale>
<asrwt>0</asrwt>
<pdfrwt beam="1">  1        1 0.23031253E+00 0.33061153E+04</pdfrwt>
<pdfrwt beam="2">  1       -1 0.54238691E+00 0.33061153E+04</pdfrwt>
<totfact> 0.43266324E-03</totfact>
</mgrwt>
</event>
<event>
11    1  0.3782800E-018  0.3311042E+04  0.7818608E-02  0.8160091E-01
         -2   -1    0    0    0  501 -0.00000000000E+00  0.00000000000E+00  0.10613889889E+04  0.10613889889E+04  0.00000000000E+00 0.  1.
          2   -1    0    0  501    0  0.00000000000E+00 -0.00000000000E+00 -0.25822296259E+04  0.25822296259E+04  0.00000000000E+00 0. -1.
    9900016    2    1    2    0    0 -0.39709790230E+03 -0.31082444163E+03 -0.11407680090E+04  0.24868576383E+04  0.21514671006E+04 0.  0.
        -24    2    3    3    0    0  0.19847194454E+03  0.68747418924E+03 -0.11111999474E+04  0.13240258064E+04  0.79165266067E+02 0.  0.
        -15    1    1    2    0    0  0.12011546783E+03  0.36602687338E+03 -0.24431098729E+03  0.45617020525E+03  0.00000000000E+00 0. -1.
        -15    1    3    3    0    0 -0.59556984684E+03 -0.99829863087E+03 -0.29568061608E+02  0.11628318318E+04  0.00000000000E+00 0.  1.
         15    1    1    2    0    0  0.15130629315E+03  0.11392062079E+03 -0.18231026704E+03  0.26288502365E+03  0.00000000000E+00 0.  1.
         15    1    4    4    0    0  0.18228531413E+03  0.51036018677E+03 -0.84726600249E+03  0.10057609731E+04  0.00000000000E+00 0. -1.
        -16    1    4    4    0    0  0.16186630415E+02  0.17711400246E+03 -0.26393394490E+03  0.31826483335E+03  0.00000000000E+00 0.  1.
         16    1    1    2    0    0  0.18254380199E+03 -0.17374554256E+03  0.14596714094E+03  0.29123214012E+03  0.00000000000E+00 0. -1.
    9900018    1    1    2    0    0 -0.56867660672E+02  0.46224900175E+01 -0.99418514672E+02  0.14647360751E+03  0.91187600000E+02 0.  0.
<mgrwt>
<rscale>  0 0.33110422E+04</rscale>
<asrwt>0</asrwt>
<pdfrwt beam="1">  1        2 0.39726609E+00 0.33110422E+04</pdfrwt>
<pdfrwt beam="2">  1       -2 0.16329062E+00 0.33110422E+04</pdfrwt>
<totfact> 0.61957394E-01</totfact>
</mgrwt>
</event>
<event>
12    1  0.3782800E-018  0.2535064E+04  0.7818608E-02  0.8786256E-01
         -2   -1    0    0    0  501 -0.00000000000E+00  0.00000000000E+00  0.17044649276E+04  0.17044649276E+04  0.00000000000E+00 0.  1.
          2   -1    0    0  501    0  0.00000000000E+00 -0.00000000000E+00 -0.13311833680E+04  0.13311833680E+04  0.00000000000E+00 0. -1.
         23    2    1    2    0    0  0.35126503024E+03  0.27767175591E+03 -0.50118815719E+02  0.46547025194E+03  0.11688427720E+03 0.  0.
    9900016    2    1    2    0    0 -0.31314452345E+03 -0.77551006302E+02  0.33390271339E+03  0.22002136120E+04  0.21506685624E+04 0.  0.
         24    2    4    4    0    0  0.88027257434E+03 -0.34929807946E+03  0.16735190775E+03  0.96496869223E+03  0.79176780116E+02 0.  0.
        -15    1    5    5    0    0  0.53034378450E+02 -0.85034133434E+01 -0.45987952881E+01  0.53908276305E+02  0.00000000000E+00 0.  1.
        -15    1    3    3    0    0  0.17661366374E+03  0.17536463111E+03  0.23713144956E+02  0.25001490617E+03  0.00000000000E+00 0.  1.
         15    1    4    4    0    0 -0.11934170978E+04  0.27174707316E+03  0.16655080564E+03  0.12352449198E+04  0.00000000000E+00 0. -1.
         15    1    3    3    0    0  0.17465136650E+03  0.10230712480E+03 -0.73831960675E+02  0.21545534577E+03  0.00000000000E+00 0. -1.
        -16    1    1    2    0    0 -0.48846988979E+02 -0.24983279640E+03  0.62840555508E+02  0.26220486248E+03  0.00000000000E+00 0.  1.
         16    1    5    5    0    0  0.82723819589E+03 -0.34079466612E+03  0.17195070304E+03  0.91106041592E+03  0.00000000000E+00 0. -1.
    9900018    1    1    2    0    0  0.10726482189E+02  0.49712046798E+02  0.26657106423E+02  0.10775956910E+03  0.91187600000E+02 0.  0.
<mgrwt>
<rscale>  0 0.16570346E+04</rscale>
<asrwt>0</asrwt>
<pdfrwt beam="1">  1        2 0.20479744E+00 0.25350636E+04</pdfrwt>
<pdfrwt beam="2">  1       -2 0.26222537E+00 0.25350636E+04</pdfrwt>
<totfact> 0.75062511E-01</totfact>
</mgrwt>
</event>
<event>
12    1  0.3782800E-018  0.4414766E+04  0.7818608E-02  0.8556597E-01
         -2   -1    0    0    0  501 -0.00000000000E+00  0.00000000000E+00  0.25682328212E+04  0.25682328212E+04  0.00000000000E+00 0. -1.
          2   -1    0    0  501    0  0.00000000000E+00 -0.00000000000E+00 -0.22732143177E+04  0.22732143177E+04  0.00000000000E+00 0.  1.
         23    2    1    2    0    0  0.20114645665E+03 -0.90899293515E+02  0.35844903736E+03  0.42622526411E+03  0.66780871475E+02 0.  0.
    9900016    2    1    2    0    0 -0.54477027336E+03  0.53935839963E+03  0.14639452333E+04  0.27867042571E+04  0.22438589164E+04 0.  0.
         24    2    4    4    0    0  0.72928857541E+03 -0.88641341100E+02  0.71901446238E+02  0.74236251364E+03  0.78823664696E+02 0.  0.
        -15    1    5    5    0    0  0.25235916190E+03 -0.68598296717E+02  0.24087606213E+02  0.26262346750E+03  0.00000000000E+00 0.  1.
        -15    1    3    3    0    0  0.20632599812E+02 -0.27149440224E+02  0.27134500406E+02  0.43578405108E+02  0.00000000000E+00 0. -1.
         15    1    4    4    0    0 -0.12647979946E+04  0.60094776081E+03  0.12810818904E+04  0.18978996254E+04  0.00000000000E+00 0. -1.
         15    1    3    3    0    0  0.18051385684E+03 -0.63749853291E+02  0.33131453695E+03  0.38264685900E+03  0.00000000000E+00 0.  1.
        -16    1    1    2    0    0  0.34362381671E+03 -0.44845910611E+03 -0.15273757671E+04  0.16285176177E+04  0.00000000000E+00 0.  1.
         16    1    5    5    0    0  0.47692941351E+03 -0.20043044383E+02  0.47813840024E+02  0.47973904614E+03  0.00000000000E+00 0. -1.
    9900018    1    4    4    0    0 -0.92608542184E+01  0.27051979919E+02  0.11096189665E+03  0.14644211806E+03  0.91187600000E+02 0.  0.
<mgrwt>
<rscale>  0 0.21105791E+04</rscale>
<asrwt>0</asrwt>
<pdfrwt beam="1">  1        2 0.34972528E+00 0.44147662E+04</pdfrwt>
<pdfrwt beam="2">  1       -2 0.39511274E+00 0.44147662E+04</pdfrwt>
<totfact> 0.28184794E-02</totfact>
</mgrwt>
</event>
<event>
12    1  0.3782800E-018  0.2876620E+04  0.7818608E-02  0.8830102E-01
         -3   -1    0    0    0  501 -0.00000000000E+00  0.00000000000E+00  0.15876749984E+04  0.15876749984E+04  0.00000000000E+00 0.  1.
          3   -1    0    0  501    0  0.00000000000E+00 -0.00000000000E+00 -0.15982594185E+04  0.15982594185E+04  0.00000000000E+00 0. -1.
         23    2    1    2    0    0 -0.16174826813E+03  0.18026863319E+03  0.15086634031E+03  0.30478762497E+03  0.10712404652E+03 0.  0.
    9900016    2    1    2    0    0 -0.16539649084E+03 -0.27329083098E+03 -0.50924190913E+03  0.22328909334E+04  0.21504489580E+04 0.  0.
         24    2    4    4    0    0 -0.82339969506E+02  0.23742287810E+03  0.79079213359E+03  0.83367136855E+03  0.80661382163E+02 0.  0.
        -15    1    5    5    0    0 -0.44415922452E+02  0.49092988736E+02  0.13564641175E+03  0.15093987125E+03  0.00000000000E+00 0.  1.
        -15    1    3    3    0    0 -0.72808046408E+01  0.12925498984E+02  0.56258399172E+02  0.58181492913E+02  0.00000000000E+00 0.  1.
         15    1    4    4    0    0 -0.83056521333E+02 -0.51071370907E+03 -0.13000340427E+04  0.13992195648E+04  0.00000000000E+00 0. -1.
         15    1    3    3    0    0 -0.15446746349E+03  0.16734313421E+03  0.94607941143E+02  0.24660613206E+03  0.00000000000E+00 0. -1.
        -16    1    1    2    0    0  0.35978206265E+03  0.15517968312E+03  0.36055301790E+03  0.53246816372E+03  0.00000000000E+00 0.  1.
         16    1    5    5    0    0 -0.37924047054E+02  0.18832988936E+03  0.65514572184E+03  0.68273149730E+03  0.00000000000E+00 0. -1.
    9900018    1    1    2    0    0 -0.32637303683E+02 -0.62157485340E+02 -0.12761869220E+02  0.11578769484E+03  0.91187600000E+02 0.  0.
<mgrwt>
<rscale>  0 0.15845413E+04</rscale>
<asrwt>0</asrwt>
<pdfrwt beam="1">  1        3 0.24588606E+00 0.28766196E+04</pdfrwt>
<pdfrwt beam="2">  1       -3 0.24425769E+00 0.28766196E+04</pdfrwt>
<totfact> 0.13626055E-02</totfact>
</mgrwt>
</event>
<event>
11    1  0.3782800E-018  0.2608439E+04  0.7818608E-02  0.8754040E-01
         -5   -1    0    0    0  501 -0.00000000000E+00  0.00000000000E+00  0.20714739387E+04  0.20714739387E+04  0.00000000000E+00 0.  1.
          5   -1    0    0  501    0  0.00000000000E+00 -0.00000000000E+00 -0.11779257038E+04  0.11779257038E+04  0.00000000000E+00 0. -1.
    9900016    2    1    2    0    0  0.29975660114E+02  0.25724686345E+03  0.41842568006E+03  0.22042259546E+04  0.21485943126E+04 0.  0.
        -24    2    3    3    0    0 -0.45981042074E+02  0.76471687294E+03 -0.65717381376E+03  0.10125005239E+04  0.79835689720E+02 0.  0.
        -15    1    1    2    0    0  0.16000341757E+03 -0.19818796221E+03  0.13541837317E+03  0.28847477843E+03  0.00000000000E+00 0.  1.
        -15    1    3    3    0    0  0.75956702187E+02 -0.50747000949E+03  0.10755994938E+04  0.11917254307E+04  0.00000000000E+00 0.  1.
         15    1    1    2    0    0  0.39949385067E+02 -0.22425671292E+03  0.17716059228E+03  0.28857044567E+03  0.00000000000E+00 0. -1.
         15    1    4    4    0    0  0.20062156020E+02  0.31973914737E+03 -0.27750178752E+03  0.42384295976E+03  0.00000000000E+00 0. -1.
        -16    1    4    4    0    0 -0.66043198094E+02  0.44497772557E+03 -0.37967202624E+03  0.58865756411E+03  0.00000000000E+00 0.  1.
         16    1    1    2    0    0 -0.26739550542E+03  0.18389336477E+03  0.17209444768E+03  0.36733312517E+03  0.00000000000E+00 0. -1.
    9900018    1    1    2    0    0  0.37467042669E+02 -0.18695553091E+02 -0.95508582647E+01  0.10079533858E+03  0.91187600000E+02 0.  0.
<mgrwt>
<rscale>  0 0.17129023E+04</rscale>
<asrwt>0</asrwt>
<pdfrwt beam="1">  1        5 0.18121934E+00 0.26084388E+04</pdfrwt>
<pdfrwt beam="2">  1       -5 0.31868830E+00 0.26084388E+04</pdfrwt>
<totfact> 0.22385577E-03</totfact>
</mgrwt>
</event>
<event>
11    1  0.3782800E-018  0.2582427E+04  0.7818608E-02  0.8737450E-01
         -2   -1    0    0    0  501 -0.00000000000E+00  0.00000000000E+00  0.11730836574E+04  0.11730836574E+04  0.00000000000E+00 0. -1.
          2   -1    0    0  501    0  0.00000000000E+00 -0.00000000000E+00 -0.25173481017E+04  0.25173481017E+04  0.00000000000E+00 0.  1.
    9900016    2    1    2    0    0  0.18320504261E+03  0.79333775260E+01 -0.38404989774E+03  0.22928170036E+04  0.22529732493E+04 0.  0.
         24    2    3    3    0    0  0.50357402565E+03  0.95210691481E+03 -0.32107082926E+03  0.11268217308E+04  0.80909573555E+02 0.  0.
        -15    1    1    2    0    0 -0.10914754088E+03 -0.64824861663E+02 -0.69702138805E+03  0.70848730671E+03  0.00000000000E+00 0.  1.
        -15    1    4    4    0    0  0.19928276882E+03  0.44701154004E+03 -0.12130867023E+03  0.50423083240E+03  0.00000000000E+00 0.  1.
         15    1    1    2    0    0  0.22865043867E+03  0.16378398017E+03 -0.23563577047E+03  0.36692019785E+03  0.00000000000E+00 0. -1.
         15    1    3    3    0    0 -0.33599619675E+03 -0.10001771585E+04 -0.71414787793E+02  0.10575196757E+04  0.00000000000E+00 0. -1.
        -16    1    1    2    0    0 -0.30270794040E+03 -0.10689249603E+03 -0.27557388048E+02  0.32220725089E+03  0.00000000000E+00 0.  1.
         16    1    4    4    0    0  0.30429125683E+03  0.50509537478E+03 -0.19976215903E+03  0.62259089841E+03  0.00000000000E+00 0. -1.
    9900018    1    3    3    0    0  0.15627213704E+02  0.56003621232E+02  0.84357193101E+01  0.10847559704E+03  0.91187600000E+02 0.  0.
<mgrwt>
<rscale>  0 0.17425709E+04</rscale>
<asrwt>0</asrwt>
<pdfrwt beam="1">  1        2 0.38728432E+00 0.25824274E+04</pdfrwt>
<pdfrwt beam="2">  1       -2 0.18047441E+00 0.25824274E+04</pdfrwt>
<totfact> 0.52842615E-01</totfact>
</mgrwt>
</event>
<event>
11    1  0.3782800E-018  0.3100314E+04  0.7818608E-02  0.8595156E-01
          2   -1    0    0  501    0  0.00000000000E+00  0.00000000000E+00  0.20616376758E+04  0.20616376758E+04  0.00000000000E+00 0. -1.
         -2   -1    0    0    0  501 -0.00000000000E+00 -0.00000000000E+00 -0.16283222574E+04  0.16283222574E+04  0.00000000000E+00 0.  1.
    9900016    2    1    2    0    0 -0.77972452015E+02  0.88019898753E+02 -0.36266763008E+03  0.22840946342E+04  0.22520509058E+04 0.  0.
        -24    2    3    3    0    0  0.99889139640E+03  0.37867066693E+01 -0.33946175920E+03  0.10578711173E+04  0.77837356094E+02 0.  0.
        -15    1    3    3    0    0 -0.11134027930E+04  0.90010974608E+02  0.23531303893E+02  0.11172830784E+04  0.00000000000E+00 0.  1.
        -15    1    1    2    0    0  0.14219349882E+03 -0.15795936001E+03  0.82802723585E+02  0.22809305459E+03  0.00000000000E+00 0.  1.
         15    1    1    2    0    0  0.13099896452E+03 -0.31532621609E+03 -0.29655436545E+01  0.34146763494E+03  0.00000000000E+00 0. -1.
         15    1    4    4    0    0  0.29501229788E+03 -0.29457200291E+02 -0.11973787019E+03  0.31974543016E+03  0.00000000000E+00 0. -1.
        -16    1    4    4    0    0  0.70387909851E+03  0.33243906961E+02 -0.21972388901E+03  0.73812568718E+03  0.00000000000E+00 0.  1.
         16    1    1    2    0    0 -0.19522001132E+03  0.38526567735E+03  0.71614586855E+03  0.83630460958E+03  0.00000000000E+00 0. -1.
    9900018    1    3    3    0    0  0.36538944542E+02 -0.57777825245E+01 -0.46737174777E+02  0.10894043849E+03  0.91187600000E+02 0.  0.
<mgrwt>
<rscale>  0 0.20247059E+04</rscale>
<asrwt>0</asrwt>
<pdfrwt beam="1">  1        2 0.31717503E+00 0.31003136E+04</pdfrwt>
<pdfrwt beam="2">  1       -2 0.25051112E+00 0.31003136E+04</pdfrwt>
<totfact> 0.32790109E-01</totfact>
</mgrwt>
</event>
<event>
12    1  0.3782800E-018  0.2859254E+04  0.7818608E-02  0.8285105E-01
          2   -1    0    0  501    0  0.00000000000E+00  0.00000000000E+00  0.13813766081E+04  0.13813766081E+04  0.00000000000E+00 0. -1.
         -2   -1    0    0    0  501 -0.00000000000E+00 -0.00000000000E+00 -0.14795626522E+04  0.14795626522E+04  0.00000000000E+00 0.  1.
         23    2    1    2    0    0  0.34860454466E+03  0.15829991432E+03  0.12842895270E+03  0.41060079147E+03  0.74263198348E+02 0.  0.
    9900016    2    1    2    0    0 -0.40631110441E+03 -0.18386924676E+03 -0.88262662286E+02  0.22982687275E+04  0.22528542413E+04 0.  0.
         24    2    4    4    0    0  0.47010117726E+03 -0.77719700710E+03 -0.45579860784E+03  0.10194255810E+04  0.80285985890E+02 0.  0.
        -15    1    3    3    0    0  0.55301572610E+02  0.84253343067E+01  0.42348488673E+02  0.70161561301E+02  0.00000000000E+00 0. -1.
        -15    1    5    5    0    0  0.32372813066E+03 -0.53119568252E+03 -0.35316402680E+03  0.71532760713E+03  0.00000000000E+00 0.  1.
         15    1    4    4    0    0 -0.90999920178E+03  0.63359189348E+03  0.38170686117E+03  0.11727051473E+04  0.00000000000E+00 0. -1.
         15    1    3    3    0    0  0.29330297205E+03  0.14987458001E+03  0.86080464024E+02  0.34043923016E+03  0.00000000000E+00 0.  1.
        -16    1    1    2    0    0  0.57706559747E+02  0.25569332445E+02 -0.13835233443E+03  0.15206974137E+03  0.00000000000E+00 0.  1.
         16    1    5    5    0    0  0.14637304660E+03 -0.24600132458E+03 -0.10263458104E+03  0.30409797384E+03  0.00000000000E+00 0. -1.
    9900018    1    4    4    0    0  0.33586920116E+02 -0.40264133141E+02 -0.14170915616E+02  0.10613799915E+03  0.91187600000E+02 0.  0.
<mgrwt>
<rscale>  0 0.28592539E+04</rscale>
<asrwt>0</asrwt>
<pdfrwt beam="1">  1        2 0.21251948E+00 0.28592539E+04</pdfrwt>
<pdfrwt beam="2">  1       -2 0.22762502E+00 0.28592539E+04</pdfrwt>
<totfact> 0.11364007E+00</totfact>
</mgrwt>
</event>
<event>
12    1  0.3782800E-018  0.3769656E+04  0.7818608E-02  0.8052698E-01
          2   -1    0    0  501    0  0.00000000000E+00  0.00000000000E+00  0.37351560285E+04  0.37351560285E+04  0.00000000000E+00 0. -1.
         -2   -1    0    0    0  501 -0.00000000000E+00 -0.00000000000E+00 -0.95111872195E+03  0.95111872195E+03  0.00000000000E+00 0.  1.
         23    2    1    2    0    0  0.12814967776E+03  0.43154061268E+03 -0.14562256291E+03  0.48456164529E+03  0.10461556748E+03 0.  0.
    9900016    2    1    2    0    0 -0.24783520319E+03 -0.83739572250E+03  0.25391661344E+04  0.34413473978E+04  0.21524064138E+04 0.  0.
         24    2    4    4    0    0 -0.76426232519E+03  0.47411390514E+03  0.83554888531E+03  0.12302241070E+04  0.80178032680E+02 0.  0.
        -15    1    5    5    0    0 -0.74959490533E+03  0.45781194086E+03  0.82783535350E+03  0.12069779069E+04  0.00000000000E+00 0.  1.
        -15    1    3    3    0    0  0.79219241846E+02  0.27856743328E+03 -0.40065468098E+02  0.29237090296E+03  0.00000000000E+00 0. -1.
         15    1    3    3    0    0  0.48930435915E+02  0.15297317940E+03 -0.10555709481E+03  0.19219074233E+03  0.00000000000E+00 0.  1.
         15    1    4    4    0    0  0.51642712200E+03 -0.13115096276E+04  0.17036172491E+04  0.22111232908E+04  0.00000000000E+00 0. -1.
        -16    1    1    2    0    0  0.18339785991E+03  0.47336798454E+03  0.24033500261E+03  0.56166977601E+03  0.00000000000E+00 0.  1.
         16    1    5    5    0    0 -0.14667419861E+02  0.16301964281E+02  0.77135318156E+01  0.23246200074E+02  0.00000000000E+00 0. -1.
    9900018    1    1    2    0    0 -0.63712334487E+02 -0.67512874724E+02  0.15015873249E+03  0.19869593140E+03  0.91187600000E+02 0.  0.
<mgrwt>
<rscale>  0 0.37696561E+04</rscale>
<asrwt>0</asrwt>
<pdfrwt beam="1">  1        2 0.57463938E+00 0.37696561E+04</pdfrwt>
<pdfrwt beam="2">  1       -2 0.14632596E+00 0.37696561E+04</pdfrwt>
<totfact> 0.14099792E-01</totfact>
</mgrwt>
</event>
<event>
12    1  0.3782800E-018  0.2733087E+04  0.7818608E-02  0.8945057E-01
          1   -1    0    0  501    0  0.00000000000E+00  0.00000000000E+00  0.31639537171E+04  0.31639537171E+04  0.00000000000E+00 0. -1.
         -1   -1    0    0    0  501 -0.00000000000E+00 -0.00000000000E+00 -0.67780534699E+03  0.67780534699E+03  0.00000000000E+00 0.  1.
         23    2    1    2    0    0  0.50203731952E+02  0.14939033602E+03  0.14149919768E+03  0.24076666180E+03  0.11449312334E+03 0.  0.
    9900016    2    1    2    0    0  0.65968012473E+02 -0.47038998367E+03  0.20020090237E+04  0.29707448010E+04  0.21428173106E+04 0.  0.
         24    2    4    4    0    0  0.27316255132E+03  0.38719059341E+03  0.20319394078E+04  0.20879821766E+04  0.79733793942E+02 0.  0.
        -15    1    3    3    0    0  0.81681586295E+01  0.15241867158E+03  0.11218141809E+03  0.18942766647E+03  0.00000000000E+00 0. -1.
        -15    1    5    5    0    0  0.22178687410E+03  0.28522089932E+03  0.14038294886E+04  0.14495784257E+04  0.00000000000E+00 0.  1.
         15    1    4    4    0    0 -0.20719453885E+03 -0.85758057709E+03 -0.29930384152E+02  0.88276262439E+03  0.00000000000E+00 0. -1.
         15    1    3    3    0    0  0.42035573322E+02 -0.30283355613E+01  0.29317779594E+02  0.51338995327E+02  0.00000000000E+00 0.  1.
        -16    1    1    2    0    0 -0.11566048720E+03  0.35758579400E+03  0.13289646649E+03  0.39863068017E+03  0.00000000000E+00 0.  1.
         16    1    5    5    0    0  0.51375677219E+02  0.10196969409E+03  0.62810991917E+03  0.63840375099E+03  0.00000000000E+00 0. -1.
    9900018    1    1    2    0    0 -0.51125722384E+00 -0.36586146338E+02  0.20974368232E+03  0.23161692113E+03  0.91187600000E+02 0.  0.
<mgrwt>
<rscale>  0 0.14121691E+04</rscale>
<asrwt>0</asrwt>
<pdfrwt beam="1">  1        1 0.48676210E+00 0.27330874E+04</pdfrwt>
<pdfrwt beam="2">  1       -1 0.10427775E+00 0.27330874E+04</pdfrwt>
<totfact> 0.33870926E-01</totfact>
</mgrwt>
</event>
<event>
11    1  0.3782800E-018  0.2973255E+04  0.7818608E-02  0.8671772E-01
          2   -1    0    0  501    0  0.00000000000E+00  0.00000000000E+00  0.23154812258E+04  0.23154812258E+04  0.00000000000E+00 0.  1.
         -2   -1    0    0    0  501 -0.00000000000E+00 -0.00000000000E+00 -0.12765008693E+04  0.12765008693E+04  0.00000000000E+00 0. -1.
    9900016    2    1    2    0    0 -0.71424305815E+03  0.25729619365E+03  0.10054691104E+04  0.24967438596E+04  0.21555549845E+04 0.  0.
        -24    2    3    3    0    0  0.41434392408E+03  0.37255959865E+03  0.12186022606E+04  0.13424388875E+04  0.81664894355E+02 0.  0.
        -15    1    1    2    0    0  0.24787251987E+03  0.14279382228E+03  0.10554992142E+03  0.30491252467E+03  0.00000000000E+00 0.  1.
        -15    1    3    3    0    0 -0.11285869822E+04 -0.11526340500E+03 -0.21313315028E+03  0.11543049722E+04  0.00000000000E+00 0.  1.
         15    1    4    4    0    0  0.32395898350E+03  0.31466701722E+03  0.91426019821E+03  0.10197237198E+04  0.00000000000E+00 0. -1.
         15    1    1    2    0    0  0.13035542043E+03 -0.98089837720E+02 -0.20762193255E+02  0.16445431149E+03  0.00000000000E+00 0. -1.
        -16    1    4    4    0    0  0.90384940583E+02  0.57892581428E+02  0.30434206243E+03  0.32271516765E+03  0.00000000000E+00 0.  1.
         16    1    1    2    0    0  0.33754109278E+03 -0.34051978068E+03 -0.13291826027E+03  0.49754896669E+03  0.00000000000E+00 0. -1.
    9900018    1    1    2    0    0 -0.15259749214E+01  0.38519602469E+02  0.81641778208E+02  0.12832243263E+03  0.91187600000E+02 0.  0.
<mgrwt>
<rscale>  0 0.18663846E+04</rscale>
<asrwt>0</asrwt>
<pdfrwt beam="1">  1        2 0.35622788E+00 0.29732545E+04</pdfrwt>
<pdfrwt beam="2">  1       -2 0.19638475E+00 0.29732545E+04</pdfrwt>
<totfact> 0.52706630E-01</totfact>
</mgrwt>
</event>
<event>
11    1  0.3782800E-018  0.3169091E+04  0.7818608E-02  0.8471129E-01
          2   -1    0    0  501    0  0.00000000000E+00  0.00000000000E+00  0.26930765858E+04  0.26930765858E+04  0.00000000000E+00 0. -1.
         -2   -1    0    0    0  501 -0.00000000000E+00 -0.00000000000E+00 -0.15554445572E+04  0.15554445572E+04  0.00000000000E+00 0.  1.
    9900016    2    1    2    0    0 -0.75085124373E+03  0.58906252565E+03  0.26882647827E+03  0.23606257311E+04  0.21423150837E+04 0.  0.
        -24    2    3    3    0    0 -0.37179902826E+03 -0.78763394314E+03 -0.11546491037E+03  0.88189194151E+03  0.76154482303E+02 0.  0.
        -15    1    3    3    0    0 -0.37905221547E+03  0.13766964688E+04  0.38429138864E+03  0.14787337896E+04  0.00000000000E+00 0.  1.
        -15    1    1    2    0    0  0.49137371610E+02 -0.70307650319E+03  0.31800494358E+03  0.77321290391E+03  0.00000000000E+00 0.  1.
         15    1    1    2    0    0  0.10299197406E+03 -0.17248172975E+03  0.10485780883E+03  0.22661079827E+03  0.00000000000E+00 0. -1.
         15    1    4    4    0    0 -0.23127481777E+03 -0.51062662046E+03 -0.10988836182E+03  0.57122941007E+03  0.00000000000E+00 0. -1.
        -16    1    4    4    0    0 -0.14052421049E+03 -0.27700732267E+03 -0.55765485450E+01  0.31066253144E+03  0.00000000000E+00 0.  1.
         16    1    1    2    0    0  0.61079110193E+03  0.20354967613E+03  0.38322540522E+03  0.74923958255E+03  0.00000000000E+00 0. -1.
    9900018    1    1    2    0    0 -0.12069203871E+02  0.82946031168E+02  0.62717392766E+02  0.13883212711E+03  0.91187600000E+02 0.  0.
<mgrwt>
<rscale>  0 0.23173040E+04</rscale>
<asrwt>0</asrwt>
<pdfrwt beam="1">  1        2 0.41431947E+00 0.31690913E+04</pdfrwt>
<pdfrwt beam="2">  1       -2 0.23929916E+00 0.31690913E+04</pdfrwt>
<totfact> 0.16427250E-01</totfact>
</mgrwt>
</event>
<event>
12    1  0.3782800E-018  0.3241563E+04  0.7818608E-02  0.8552805E-01
         -2   -1    0    0    0  501 -0.00000000000E+00  0.00000000000E+00  0.21360383266E+04  0.21360383266E+04  0.00000000000E+00 0.  1.
          2   -1    0    0  501    0  0.00000000000E+00 -0.00000000000E+00 -0.18301477098E+04  0.18301477098E+04  0.00000000000E+00 0. -1.
         23    2    1    2    0    0  0.36242981963E+03  0.45338390074E+03 -0.30721121830E+03  0.66715194494E+03  0.11747616514E+03 0.  0.
    9900016    2    1    2    0    0 -0.90352204243E+03 -0.63282995415E+02  0.88601425315E+03  0.25783117470E+04  0.22455096057E+04 0.  0.
         24    2    4    4    0    0  0.78244331509E+02  0.98764750235E+02 -0.66866079277E+03  0.68502830017E+03  0.79245598945E+02 0.  0.
        -15    1    5    5    0    0  0.80498074432E+02  0.65477447029E+02 -0.36262220561E+03  0.37717648396E+03  0.00000000000E+00 0.  1.
        -15    1    3    3    0    0  0.44027720939E+02  0.11901407499E+03 -0.37013119948E+02  0.13218457287E+03  0.00000000000E+00 0.  1.
         15    1    4    4    0    0 -0.95227453795E+03 -0.19047228036E+03  0.14723644751E+04  0.17637924007E+04  0.00000000000E+00 0. -1.
         15    1    3    3    0    0  0.31840209869E+03  0.33436982576E+03 -0.27019809835E+03  0.53496737207E+03  0.00000000000E+00 0. -1.
        -16    1    1    2    0    0  0.54109222279E+03 -0.39010090533E+03 -0.27291241806E+03  0.72072234448E+03  0.00000000000E+00 0.  1.
         16    1    5    5    0    0 -0.22537429237E+01  0.33287303206E+02 -0.30603858716E+03  0.30785181621E+03  0.00000000000E+00 0. -1.
    9900018    1    4    4    0    0 -0.29491835984E+02  0.28424534711E+02  0.82310570773E+02  0.12949104609E+03  0.91187600000E+02 0.  0.
<mgrwt>
<rscale>  0 0.21192630E+04</rscale>
<asrwt>0</asrwt>
<pdfrwt beam="1">  1        2 0.28156119E+00 0.32415632E+04</pdfrwt>
<pdfrwt beam="2">  1       -2 0.32862128E+00 0.32415632E+04</pdfrwt>
<totfact> 0.14399182E-01</totfact>
</mgrwt>
</event>
