<event>
10    1  0.4721360E-014  0.3250996E+04  0.7818608E-02  0.8345367E-01
         -1   -1    0    0    0  501 -0.00000000000E+00  0.00000000000E+00  0.20926370337E+04  0.20926370337E+04  0.00000000000E+00 0.  1.
          1   -1    0    0  501    0  0.00000000000E+00 -0.00000000000E+00 -0.28498207044E+04  0.28498207044E+04  0.00000000000E+00 0. -1.
    9900016    2    1    2    0    0  0.36934049661E+03 -0.78123181073E+03 -0.49793309867E+03  0.25323171700E+04  0.23276506040E+04 0.  0.
        -15    1    1    2    0    0 -0.36182380675E+03  0.83363767322E+03 -0.27506888854E+03  0.94948993191E+03  0.00000000000E+00 0.  1.
        -15    1    3    3    0    0 -0.26388693431E+02 -0.58177759906E+03 -0.19032222042E+03  0.61268595993E+03  0.00000000000E+00 0.  1.
         15    1    1    2    0    0 -0.33927377536E+02 -0.49490563358E+03 -0.55078456273E+03  0.74124644190E+03  0.00000000000E+00 0. -1.
         15    1    3    3    0    0 -0.25930408651E+03  0.12720494112E+03 -0.45430416533E+03  0.53834188112E+03  0.00000000000E+00 0. -1.
        -16    1    1    2    0    0  0.26410687684E+02  0.44249977108E+03  0.56660287924E+03  0.71940419417E+03  0.00000000000E+00 0.  1.
         16    1    3    3    0    0 -0.42133832044E+02 -0.54704442169E+03 -0.17697221490E+03  0.57649980394E+03  0.00000000000E+00 0. -1.
    9900018    1    3    3    0    0  0.69716710859E+03  0.22038526890E+03  0.32366550197E+03  0.80478952504E+03  0.91187600000E+02 0.  0.
<mgrwt>
<rscale>  0 0.26682933E+04</rscale>
<asrwt>0</asrwt>
<pdfrwt beam="1">  1        1 0.43843395E+00 0.32509962E+04</pdfrwt>
<pdfrwt beam="2">  1       -1 0.32194416E+00 0.32509962E+04</pdfrwt>
<totfact> 0.14502163E-02</totfact>
</mgrwt>
</event>
<event>
10    1  0.4721360E-014  0.3620004E+04  0.7818608E-02  0.8271708E-01
          2   -1    0    0  501    0  0.00000000000E+00  0.00000000000E+00  0.26638577062E+04  0.26638577062E+04  0.00000000000E+00 0. -1.
         -2   -1    0    0    0  501 -0.00000000000E+00 -0.00000000000E+00 -0.24636065491E+04  0.24636065491E+04  0.00000000000E+00 0.  1.
        -24    2    1    2    0    0  0.13259756519E+03  0.51374519132E+03  0.11143957793E+04  0.12387147603E+04  0.10497651484E+03 0.  0.
        -15    1    1    2    0    0 -0.28502632327E+03 -0.30674131463E+03  0.16823094094E+03  0.45125590140E+03  0.00000000000E+00 0.  1.
        -15    1    1    2    0    0  0.73505313513E+03 -0.12682426337E+03 -0.56645240505E+03  0.93661936369E+03  0.00000000000E+00 0.  1.
         15    1    1    2    0    0 -0.97146414334E+03  0.46974219749E+03 -0.51156619754E+03  0.11941944098E+04  0.00000000000E+00 0. -1.
         15    1    3    3    0    0  0.11342146793E+03  0.23677512002E+03  0.51031863914E+03  0.57389197616E+03  0.00000000000E+00 0. -1.
        -16    1    3    3    0    0  0.19176097259E+02  0.27697007130E+03  0.60407714014E+03  0.66482278416E+03  0.00000000000E+00 0.  1.
         16    1    1    2    0    0  0.17800915010E+03 -0.83533389089E+02  0.52748694915E+03  0.56294543797E+03  0.00000000000E+00 0. -1.
    9900018    1    1    2    0    0  0.21083061619E+03 -0.46638842171E+03 -0.53184390959E+03  0.74373438215E+03  0.91187600000E+02 0.  0.
<mgrwt>
<rscale>  0 0.29039324E+04</rscale>
<asrwt>0</asrwt>
<pdfrwt beam="1">  1        2 0.40982426E+00 0.36200041E+04</pdfrwt>
<pdfrwt beam="2">  1       -2 0.37901639E+00 0.36200041E+04</pdfrwt>
<totfact> 0.21983254E-02</totfact>
</mgrwt>
</event>
<event>
10    1  0.4721360E-014  0.3343988E+04  0.7818608E-02  0.8372979E-01
          2   -1    0    0  501    0  0.00000000000E+00  0.00000000000E+00  0.22534528888E+04  0.22534528888E+04  0.00000000000E+00 0. -1.
         -2   -1    0    0    0  501 -0.00000000000E+00 -0.00000000000E+00 -0.22959088788E+04  0.22959088788E+04  0.00000000000E+00 0.  1.
         24    2    1    2    0    0 -0.14211882918E+03 -0.11991920616E+04  0.23788073517E+02  0.12094347924E+04  0.62508258668E+02 0.  0.
        -15    1    3    3    0    0 -0.68818072818E+02 -0.34917722573E+03 -0.12982796149E+01  0.35589654064E+03  0.00000000000E+00 0.  1.
        -15    1    1    2    0    0 -0.27617682624E+03  0.36134772424E+03 -0.58918856764E+02  0.45860358574E+03  0.00000000000E+00 0.  1.
         15    1    1    2    0    0 -0.53221537344E+02 -0.16425475265E+03  0.24011191019E+03  0.29574631903E+03  0.00000000000E+00 0. -1.
         15    1    1    2    0    0 -0.87414414286E+02  0.71666718002E+03  0.17545630184E+03  0.74299262486E+03  0.00000000000E+00 0. -1.
        -16    1    1    2    0    0  0.76675517902E+03 -0.26598837559E+03 -0.79794367154E+03  0.11381464859E+04  0.00000000000E+00 0.  1.
         16    1    3    3    0    0 -0.73300756364E+02 -0.85001483590E+03  0.25086353132E+02  0.85353825178E+03  0.00000000000E+00 0. -1.
    9900018    1    1    2    0    0 -0.20782357197E+03  0.55142028561E+03  0.37505025282E+03  0.70443795964E+03  0.91187600000E+02 0.  0.
<mgrwt>
<rscale>  0 0.25859797E+04</rscale>
<asrwt>0</asrwt>
<pdfrwt beam="1">  1        2 0.34668506E+00 0.33439879E+04</pdfrwt>
<pdfrwt beam="2">  1       -2 0.35321675E+00 0.33439879E+04</pdfrwt>
<totfact> 0.57252513E-02</totfact>
</mgrwt>
</event>
<event>
10    1  0.4721360E-014  0.3288723E+04  0.7818608E-02  0.8345087E-01
         -2   -1    0    0    0  501 -0.00000000000E+00  0.00000000000E+00  0.20193507652E+04  0.20193507652E+04  0.00000000000E+00 0.  1.
          2   -1    0    0  501    0  0.00000000000E+00 -0.00000000000E+00 -0.54878387887E+04  0.54878387887E+04  0.00000000000E+00 0. -1.
    9900016    2    1    2    0    0  0.55874461674E+03  0.73245335961E+03 -0.27374474490E+04  0.35789311417E+04  0.21133968180E+04 0.  0.
        -15    1    1    2    0    0 -0.67978931053E+03  0.53293345867E+03  0.88898106487E+03  0.12395236633E+04  0.00000000000E+00 0.  1.
        -15    1    3    3    0    0 -0.18419129477E+03  0.86133421594E+03 -0.14429930827E+04  0.16905774462E+04  0.00000000000E+00 0.  1.
         15    1    1    2    0    0 -0.28693213964E+03 -0.44953703740E+03  0.26432593776E+03  0.59521576099E+03  0.00000000000E+00 0. -1.
         15    1    3    3    0    0  0.23747386295E+03 -0.27946726995E+03 -0.10281745438E+04  0.10916220423E+04  0.00000000000E+00 0. -1.
        -16    1    3    3    0    0  0.17384682009E+03 -0.63705302508E+02 -0.33783094659E+03  0.38524126323E+03  0.00000000000E+00 0.  1.
         16    1    1    2    0    0  0.40797683343E+03 -0.81584978088E+03 -0.18843475771E+04  0.20935189879E+04  0.00000000000E+00 0. -1.
    9900018    1    3    3    0    0  0.33161522847E+03  0.21429171612E+03  0.71551124151E+02  0.41149039006E+03  0.91187600000E+02 0.  0.
<mgrwt>
<rscale>  0 0.26691426E+04</rscale>
<asrwt>0</asrwt>
<pdfrwt beam="1">  1        2 0.84428287E+00 0.32887233E+04</pdfrwt>
<pdfrwt beam="2">  1       -2 0.31066935E+00 0.32887233E+04</pdfrwt>
<totfact> 0.13232444E-04</totfact>
</mgrwt>
</event>
<event>
11    1  0.4721360E-014  0.3995654E+04  0.7818608E-02  0.8121004E-01
         -2   -1    0    0    0  501 -0.00000000000E+00  0.00000000000E+00  0.20800593250E+04  0.20800593250E+04  0.00000000000E+00 0.  1.
          2   -1    0    0  501    0  0.00000000000E+00 -0.00000000000E+00 -0.49240283328E+04  0.49240283328E+04  0.00000000000E+00 0. -1.
    9900016    2    1    2    0    0  0.96138714600E+02  0.47337919364E+03 -0.37499251119E+03  0.23971077358E+04  0.23177954181E+04 0.  0.
        -24    2    3    3    0    0  0.10497237335E+04  0.22139995905E+03 -0.74596096264E+03  0.13077288733E+04  0.52527990895E+02 0.  0.
        -15    1    3    3    0    0 -0.53011425810E+03  0.23460424546E+03  0.29060076920E+03  0.64846671903E+03  0.00000000000E+00 0.  1.
        -15    1    1    2    0    0  0.30409341319E+03  0.13413889898E+04 -0.46370409345E+03  0.14514884471E+04  0.00000000000E+00 0.  1.
         15    1    1    2    0    0 -0.55866083653E+03 -0.23517212821E+03 -0.12673602337E+04  0.14048522421E+04  0.00000000000E+00 0. -1.
         15    1    4    4    0    0  0.63814912032E+03  0.11420213275E+03 -0.47007777725E+03  0.80078058390E+03  0.00000000000E+00 0. -1.
        -16    1    4    4    0    0  0.41157461314E+03  0.10719782630E+03 -0.27588318540E+03  0.50694828941E+03  0.00000000000E+00 0.  1.
         16    1    1    2    0    0  0.15842870874E+03 -0.15795960552E+04 -0.73791216941E+03  0.17506392327E+04  0.00000000000E+00 0. -1.
    9900018    1    3    3    0    0 -0.42347076077E+03  0.17374989127E+02  0.80367682253E+02  0.44091214342E+03  0.91187600000E+02 0.  0.
<mgrwt>
<rscale>  0 0.34697179E+04</rscale>
<asrwt>0</asrwt>
<pdfrwt beam="1">  1        2 0.75754281E+00 0.39956536E+04</pdfrwt>
<pdfrwt beam="2">  1       -2 0.32000913E+00 0.39956536E+04</pdfrwt>
<totfact> 0.74455666E-04</totfact>
</mgrwt>
</event>
<event>
11    1  0.4721360E-014  0.6062829E+04  0.7818608E-02  0.7682660E-01
          1   -1    0    0  501    0  0.00000000000E+00  0.00000000000E+00  0.44342620737E+04  0.44342620737E+04  0.00000000000E+00 0. -1.
         -1   -1    0    0    0  501 -0.00000000000E+00 -0.00000000000E+00 -0.20723794971E+04  0.20723794971E+04  0.00000000000E+00 0.  1.
    9900016    2    1    2    0    0 -0.11424815592E+04 -0.11862728111E+03  0.75050230518E+03  0.26778391415E+04  0.22996156663E+04 0.  0.
        -24    2    3    3    0    0 -0.69188562344E+03 -0.16223136443E+03  0.13901526902E+04  0.15627333281E+04  0.67721644344E+02 0.  0.
        -15    1    3    3    0    0 -0.18655736953E+03 -0.91985812288E+02  0.15665928988E+03  0.26039810846E+03  0.00000000000E+00 0.  1.
        -15    1    1    2    0    0 -0.17975441268E+03 -0.11864883166E+03 -0.73610712544E+03  0.76696994351E+03  0.00000000000E+00 0.  1.
         15    1    1    2    0    0  0.44322260545E+02  0.61871523909E+03  0.59423684476E+03  0.85900549330E+03  0.00000000000E+00 0. -1.
         15    1    4    4    0    0 -0.28151911283E+03 -0.36205694938E+02  0.58867917612E+03  0.65353426508E+03  0.00000000000E+00 0. -1.
        -16    1    4    4    0    0 -0.41036651061E+03 -0.12602566949E+03  0.80147351404E+03  0.90919906297E+03  0.00000000000E+00 0.  1.
         16    1    1    2    0    0  0.12779137114E+04 -0.38143912631E+03  0.17532505521E+04  0.22028269926E+04  0.00000000000E+00 0. -1.
    9900018    1    3    3    0    0 -0.26403856626E+03  0.13558989560E+03 -0.79630967486E+03  0.85470770497E+03  0.91187600000E+02 0.  0.
<mgrwt>
<rscale>  0 0.60628290E+04</rscale>
<asrwt>0</asrwt>
<pdfrwt beam="1">  1        1 0.68219416E+00 0.60628290E+04</pdfrwt>
<pdfrwt beam="2">  1       -1 0.31882762E+00 0.60628290E+04</pdfrwt>
<totfact> 0.61719634E-04</totfact>
</mgrwt>
</event>
