<event>
12    1  0.7048023E-007  0.2958893E+04  0.7818608E-02  0.8366586E-01
          2   -1    0    0  501    0  0.00000000000E+00  0.00000000000E+00  0.23807010907E+04  0.23807010907E+04  0.00000000000E+00 0. -1.
         -2   -1    0    0    0  501 -0.00000000000E+00 -0.00000000000E+00 -0.25755592007E+04  0.25755592007E+04  0.00000000000E+00 0.  1.
         24    2    1    2    0    0 -0.20070972626E+03 -0.17638065482E+04 -0.77904561265E+03  0.19402491467E+04  0.79729235689E+02 0.  0.
    9900016    2    1    2    0    0 -0.46644404780E+02  0.11890876179E+04  0.51802229584E+03  0.23868341032E+04  0.20031287711E+04 0.  0.
        -24    2    4    4    0    0  0.37252642946E+03  0.13911414830E+04  0.94707942012E+03  0.17263014829E+04  0.95429636723E+02 0.  0.
        -15    1    4    4    0    0 -0.28733510899E+03 -0.18050100070E+03 -0.26940337402E+03  0.43326695471E+03  0.00000000000E+00 0.  1.
        -15    1    3    3    0    0 -0.14852106942E+03 -0.12962225597E+04 -0.61062001902E+03  0.14405235993E+04  0.00000000000E+00 0.  1.
         15    1    1    2    0    0  0.24735413104E+03  0.57471893027E+03  0.66165206836E+02  0.62917704150E+03  0.00000000000E+00 0. -1.
         15    1    5    5    0    0  0.30390620092E+03  0.97782388697E+03  0.68989909925E+03  0.12346899611E+04  0.00000000000E+00 0. -1.
        -16    1    5    5    0    0  0.68620228537E+02  0.41331759599E+03  0.25718032087E+03  0.49161152179E+03  0.00000000000E+00 0.  1.
         16    1    3    3    0    0 -0.52188656841E+02 -0.46758398849E+03 -0.16842559364E+03  0.49972554746E+03  0.00000000000E+00 0. -1.
    9900018    1    4    4    0    0 -0.13183572525E+03 -0.21552864325E+02 -0.15965375026E+03  0.22726566564E+03  0.91187600000E+02 0.  0.
<mgrwt>
<rscale>  0 0.26047592E+04</rscale>
<asrwt>0</asrwt>
<pdfrwt beam="1">  1        2 0.36626171E+00 0.29588931E+04</pdfrwt>
<pdfrwt beam="2">  1       -2 0.39623988E+00 0.29588931E+04</pdfrwt>
<totfact> 0.26023719E-02</totfact>
</mgrwt>
</event>
<event>
12    1  0.7048023E-007  0.4763177E+04  0.7818608E-02  0.7866115E-01
          1   -1    0    0  501    0  0.00000000000E+00  0.00000000000E+00  0.25842982112E+04  0.25842982112E+04  0.00000000000E+00 0. -1.
         -1   -1    0    0    0  501 -0.00000000000E+00 -0.00000000000E+00 -0.21947787188E+04  0.21947787188E+04  0.00000000000E+00 0.  1.
         24    2    1    2    0    0  0.16248436113E+04 -0.39150492111E+03 -0.30598105184E+03  0.17009069450E+04  0.77892021595E+02 0.  0.
    9900016    2    1    2    0    0 -0.16689515188E+04  0.56367592591E+03  0.10258019659E+04  0.27030868055E+04  0.17751841829E+04 0.  0.
        -24    2    4    4    0    0 -0.12038520142E+04 -0.12780226805E+03  0.53422197443E+03  0.13278590916E+04  0.11056019747E+03 0.  0.
        -15    1    3    3    0    0  0.10847549027E+04 -0.22427361100E+03 -0.21021166584E+03  0.11274665387E+04  0.00000000000E+00 0.  1.
        -15    1    4    4    0    0  0.27083475197E+03  0.27477988757E+03  0.33364179036E+03  0.51007087131E+03  0.00000000000E+00 0.  1.
         15    1    5    5    0    0 -0.61069403080E+03 -0.11793659045E+03  0.29122108628E+03  0.68677941125E+03  0.00000000000E+00 0. -1.
         15    1    1    2    0    0  0.44107907479E+02 -0.17217100479E+03 -0.33030142173E+03  0.37508317956E+03  0.00000000000E+00 0. -1.
        -16    1    5    5    0    0 -0.59315798344E+03 -0.98656776032E+01  0.24300088815E+03  0.64107968034E+03  0.00000000000E+00 0.  1.
         16    1    3    3    0    0  0.54008870865E+03 -0.16723131011E+03 -0.95769386001E+02  0.57344040631E+03  0.00000000000E+00 0. -1.
    9900018    1    4    4    0    0 -0.73593425653E+03  0.41669830638E+03  0.15793820114E+03  0.86515684257E+03  0.91187600000E+02 0.  0.
<mgrwt>
<rscale>  0 0.47631766E+04</rscale>
<asrwt>0</asrwt>
<pdfrwt beam="1">  1        1 0.39758434E+00 0.47631766E+04</pdfrwt>
<pdfrwt beam="2">  1       -1 0.33765827E+00 0.47631766E+04</pdfrwt>
<totfact> 0.16322486E-02</totfact>
</mgrwt>
</event>
<event>
12    1  0.7048023E-007  0.3571301E+04  0.7818608E-02  0.8492817E-01
          1   -1    0    0  501    0  0.00000000000E+00  0.00000000000E+00  0.41353346480E+04  0.41353346480E+04  0.00000000000E+00 0. -1.
         -1   -1    0    0    0  501 -0.00000000000E+00 -0.00000000000E+00 -0.10578309453E+04  0.10578309453E+04  0.00000000000E+00 0.  1.
         24    2    1    2    0    0 -0.55190562661E+03 -0.14225731193E+03  0.20779463145E+03  0.61174428469E+03  0.78838426631E+02 0.  0.
    9900016    2    1    2    0    0 -0.78327921545E+03 -0.49948158504E+03  0.22006228452E+04  0.29559294592E+04  0.17411978286E+04 0.  0.
        -24    2    4    4    0    0 -0.19953621043E+03  0.13506672558E+03  0.97800468791E+03  0.10089904137E+04  0.59251715735E+02 0.  0.
        -15    1    3    3    0    0 -0.42758951349E+03 -0.75779334446E+02  0.16273948063E+03  0.46374501413E+03  0.00000000000E+00 0.  1.
        -15    1    4    4    0    0 -0.95699878636E+03 -0.57095672399E+03  0.10059995684E+04  0.15012905746E+04  0.00000000000E+00 0.  1.
         15    1    5    5    0    0 -0.19420390365E+03  0.13594559263E+03  0.89668755523E+03  0.92749389866E+03  0.00000000000E+00 0. -1.
         15    1    1    2    0    0  0.13351848421E+04  0.64173889697E+03  0.66908622612E+03  0.16254918494E+04  0.00000000000E+00 0. -1.
        -16    1    5    5    0    0 -0.53323067768E+01 -0.87886705667E+00  0.81317132673E+02  0.81496515073E+02  0.00000000000E+00 0.  1.
         16    1    3    3    0    0 -0.12431611312E+03 -0.66477977482E+02  0.45055150829E+02  0.14799927056E+03  0.00000000000E+00 0. -1.
    9900018    1    4    4    0    0  0.37325578134E+03 -0.63591586629E+02  0.21661858885E+03  0.44564847091E+03  0.91187600000E+02 0.  0.
<mgrwt>
<rscale>  0 0.22625956E+04</rscale>
<asrwt>0</asrwt>
<pdfrwt beam="1">  1        1 0.63620532E+00 0.35713010E+04</pdfrwt>
<pdfrwt beam="2">  1       -1 0.16274322E+00 0.35713010E+04</pdfrwt>
<totfact> 0.16057686E-02</totfact>
</mgrwt>
</event>
