<event>
13    1  0.1076827E-009  0.5740714E+04  0.7818608E-02  0.7723408E-01
         -1   -1    0    0    0  501 -0.00000000000E+00  0.00000000000E+00  0.38347205223E+04  0.38347205223E+04  0.00000000000E+00 0.  1.
          1   -1    0    0  501    0  0.00000000000E+00 -0.00000000000E+00 -0.21485135558E+04  0.21485135558E+04  0.00000000000E+00 0. -1.
    9900016    2    1    2    0    0  0.40719169781E+03  0.51231040377E+03 -0.64821434121E+03  0.23882940597E+04  0.22035198331E+04 0.  0.
         24    2    3    3    0    0  0.96583889449E+03 -0.10918106660E+03  0.39370990360E+03  0.10526502187E+04  0.91102795788E+02 0.  0.
    9900016    2    1    2    0    0 -0.74177207294E+03 -0.39411771215E+03  0.19109518310E+04  0.30349800948E+04  0.22031370126E+04 0.  0.
         23    2    5    5    0    0 -0.12983873887E+03 -0.34976045612E+03 -0.45199997594E+03  0.59367486743E+03  0.94632949850E+02 0.  0.
        -15    1    4    4    0    0  0.96599828744E+02  0.46840908045E+01  0.64308058684E+02  0.11614212858E+03  0.00000000000E+00 0.  1.
        -15    1    6    6    0    0 -0.10593469474E+03 -0.20423217956E+03 -0.32994765466E+03  0.40224171531E+03  0.00000000000E+00 0. -1.
         15    1    3    3    0    0 -0.55864719667E+03  0.62149147038E+03 -0.10419242448E+04  0.13356438410E+04  0.00000000000E+00 0. -1.
         15    1    6    6    0    0 -0.23904044132E+02 -0.14552827655E+03 -0.12205232128E+03  0.19143315212E+03  0.00000000000E+00 0.  1.
        -16    1    5    5    0    0 -0.61193333407E+03 -0.44357256029E+02  0.23629518069E+04  0.24413052274E+04  0.00000000000E+00 0.  1.
         16    1    4    4    0    0  0.86923906574E+03 -0.11386515741E+03  0.32940184491E+03  0.93650809015E+03  0.00000000000E+00 0. -1.
    9900018    1    1    2    0    0  0.33458037513E+03 -0.11819269162E+03  0.42346947682E+03  0.55995992354E+03  0.91187600000E+02 0.  0.
<mgrwt>
<rscale>  0 0.57407139E+04</rscale>
<asrwt>0</asrwt>
<pdfrwt beam="1">  1        1 0.33054055E+00 0.57407139E+04</pdfrwt>
<pdfrwt beam="2">  1       -1 0.58995701E+00 0.57407139E+04</pdfrwt>
<totfact> 0.79416542E-04</totfact>
</mgrwt>
</event>
<event>
12    1  0.1076827E-009  0.4701064E+04  0.7818608E-02  0.7876352E-01
          2   -1    0    0  501    0  0.00000000000E+00  0.00000000000E+00  0.45351126188E+04  0.45351126188E+04  0.00000000000E+00 0. -1.
         -2   -1    0    0    0  501 -0.00000000000E+00 -0.00000000000E+00 -0.12182718980E+04  0.12182718980E+04  0.00000000000E+00 0.  1.
    9900016    2    1    2    0    0 -0.88191824080E+02  0.85107143396E+02  0.20799035180E+04  0.30306294793E+04  0.22008396971E+04 0.  0.
    9900016    2    1    2    0    0  0.26970266323E+03 -0.90380676848E+02  0.11683714259E+04  0.25083012219E+04  0.22012666893E+04 0.  0.
         23    2    4    4    0    0 -0.63977488258E+03 -0.19087794623E+03 -0.33167988434E+03  0.75120047326E+03  0.92435461855E+02 0.  0.
        -15    1    3    3    0    0 -0.84164576545E+03  0.72089786217E+03  0.63946071494E+03  0.12794418033E+04  0.00000000000E+00 0.  1.
        -15    1    5    5    0    0 -0.40970046528E+02 -0.35018994829E+02 -0.14136211258E+02  0.55719899319E+02  0.00000000000E+00 0.  1.
         15    1    5    5    0    0 -0.59880483605E+03 -0.15585895140E+03 -0.31754367309E+03  0.69548057394E+03  0.00000000000E+00 0. -1.
         15    1    3    3    0    0  0.52074517006E+03 -0.50901729574E+03  0.11111724859E+04  0.13285249087E+04  0.00000000000E+00 0. -1.
        -16    1    3    3    0    0  0.23270877131E+03 -0.12677342303E+03  0.32927031719E+03  0.42266276724E+03  0.00000000000E+00 0.  1.
         16    1    4    4    0    0  0.90947754580E+03  0.10049726938E+03  0.15000513102E+04  0.17571007486E+04  0.00000000000E+00 0. -1.
    9900018    1    1    2    0    0 -0.18151083915E+03  0.52735334518E+01  0.68565776931E+02  0.21445381564E+03  0.91187600000E+02 0.  0.
<mgrwt>
<rscale>  0 0.47010638E+04</rscale>
<asrwt>0</asrwt>
<pdfrwt beam="1">  1        2 0.69770963E+00 0.47010638E+04</pdfrwt>
<pdfrwt beam="2">  1       -2 0.18742645E+00 0.47010638E+04</pdfrwt>
<totfact> 0.13536023E-02</totfact>
</mgrwt>
</event>
<event>
12    1  0.1076827E-009  0.7503976E+04  0.7818608E-02  0.7527581E-01
          1   -1    0    0  501    0  0.00000000000E+00  0.00000000000E+00  0.26236683568E+04  0.26236683568E+04  0.00000000000E+00 0. -1.
         -1   -1    0    0    0  501 -0.00000000000E+00 -0.00000000000E+00 -0.53655459723E+04  0.53655459723E+04  0.00000000000E+00 0.  1.
    9900016    2    1    2    0    0 -0.65276165424E+03  0.39979754263E+03  0.14585788936E+04  0.27476519948E+04  0.21991369314E+04 0.  0.
    9900016    2    1    2    0    0  0.65604785886E+03  0.23389592343E+03 -0.23810389335E+04  0.33127871528E+04  0.21954740310E+04 0.  0.
         23    2    4    4    0    0 -0.48642421208E+03 -0.89314619211E+02 -0.20053716431E+04  0.20674625362E+04  0.91105961200E+02 0.  0.
        -15    1    5    5    0    0 -0.86055423034E+02 -0.49205214172E+02 -0.46064563344E+03  0.47119113801E+03  0.00000000000E+00 0.  1.
        -15    1    3    3    0    0 -0.76004411399E+03 -0.57401443978E+03 -0.40447206657E+02  0.95330771990E+03  0.00000000000E+00 0.  1.
         15    1    5    5    0    0 -0.40036878905E+03 -0.40109405040E+02 -0.15447260097E+04  0.15962713982E+04  0.00000000000E+00 0. -1.
         15    1    3    3    0    0  0.38065206742E+01  0.50938528725E+03  0.73490929711E+03  0.89419211328E+03  0.00000000000E+00 0. -1.
        -16    1    3    3    0    0  0.10347593907E+03  0.46442669516E+03  0.76411680318E+03  0.90015216160E+03  0.00000000000E+00 0.  1.
         16    1    4    4    0    0  0.11424720709E+04  0.32321054264E+03 -0.37566729039E+03  0.12453246166E+04  0.00000000000E+00 0. -1.
    9900018    1    1    2    0    0 -0.32862046136E+01 -0.63369346606E+03 -0.18194175756E+04  0.19287751815E+04  0.91187600000E+02 0.  0.
<mgrwt>
<rscale>  0 0.75039758E+04</rscale>
<asrwt>0</asrwt>
<pdfrwt beam="1">  1        1 0.40364129E+00 0.75039758E+04</pdfrwt>
<pdfrwt beam="2">  1       -1 0.82546861E+00 0.75039758E+04</pdfrwt>
<totfact> 0.31215143E-05</totfact>
</mgrwt>
</event>
<event>
12    1  0.1076827E-009  0.5085371E+04  0.7818608E-02  0.7815471E-01
          2   -1    0    0  501    0  0.00000000000E+00  0.00000000000E+00  0.35935912195E+04  0.35935912195E+04  0.00000000000E+00 0. -1.
         -2   -1    0    0    0  501 -0.00000000000E+00 -0.00000000000E+00 -0.17991051362E+04  0.17991051362E+04  0.00000000000E+00 0.  1.
    9900016    2    1    2    0    0  0.69323623051E+02  0.43329927706E+03  0.16619446566E+04  0.27885965770E+04  0.21958271333E+04 0.  0.
    9900016    2    1    2    0    0 -0.24023380088E+03 -0.23213395440E+03  0.33682375709E+03  0.22580878933E+04  0.22076938734E+04 0.  0.
         23    2    4    4    0    0 -0.47042709872E+03 -0.91575671508E+03 -0.50441101195E+03  0.11499340367E+04  0.89475154635E+02 0.  0.
        -15    1    3    3    0    0  0.45213625773E+03  0.10345981303E+04  0.17905068509E+03  0.11431883636E+04  0.00000000000E+00 0.  1.
        -15    1    5    5    0    0 -0.15339839499E+02 -0.24431736677E+02 -0.32539103666E+02  0.43485787337E+02  0.00000000000E+00 0. -1.
         15    1    3    3    0    0 -0.25935256561E+03 -0.40723398753E+03  0.98594920602E+03  0.10978156087E+04  0.00000000000E+00 0. -1.
         15    1    5    5    0    0 -0.45508725922E+03 -0.89132497840E+03 -0.47187190829E+03  0.11064482493E+04  0.00000000000E+00 0.  1.
        -16    1    3    3    0    0 -0.12346006907E+03 -0.19406486569E+03  0.49694476553E+03  0.54759260472E+03  0.00000000000E+00 0.  1.
         16    1    4    4    0    0  0.23019329784E+03  0.68362276068E+03  0.84123476904E+03  0.11081538566E+04  0.00000000000E+00 0. -1.
    9900018    1    1    2    0    0  0.17091017783E+03 -0.20116532266E+03 -0.20428233041E+03  0.34601188540E+03  0.91187600000E+02 0.  0.
<mgrwt>
<rscale>  0 0.50853706E+04</rscale>
<asrwt>0</asrwt>
<pdfrwt beam="1">  1        2 0.55286019E+00 0.50853706E+04</pdfrwt>
<pdfrwt beam="2">  1       -2 0.27678541E+00 0.50853706E+04</pdfrwt>
<totfact> 0.22176293E-02</totfact>
</mgrwt>
</event>
<event>
13    1  0.1076827E-009  0.4930595E+04  0.7818608E-02  0.7839304E-01
          1   -1    0    0  501    0  0.00000000000E+00  0.00000000000E+00  0.25440681497E+04  0.25440681497E+04  0.00000000000E+00 0. -1.
         -1   -1    0    0    0  501 -0.00000000000E+00 -0.00000000000E+00 -0.23889658361E+04  0.23889658361E+04  0.00000000000E+00 0.  1.
    9900016    2    1    2    0    0 -0.65122478161E+03  0.23794624593E+03  0.44308703902E+03  0.23469202282E+04  0.21979527523E+04 0.  0.
        -24    2    3    3    0    0  0.37843380225E+03 -0.19894287449E+03  0.10044501086E+04  0.10954421426E+04  0.91011302836E+02 0.  0.
    9900016    2    1    2    0    0  0.54330492555E+03 -0.42983644631E+03 -0.37286617394E+03  0.23331541105E+04  0.21965061591E+04 0.  0.
         23    2    5    5    0    0  0.29847685665E+03  0.37976336093E+03 -0.11082183165E+04  0.12123796440E+04  0.91694710158E+02 0.  0.
        -15    1    3    3    0    0 -0.10296585839E+04  0.43688912042E+03 -0.56136306955E+03  0.12514780856E+04  0.00000000000E+00 0.  1.
        -15    1    6    6    0    0  0.27193343852E+03  0.35008355433E+03 -0.93666641341E+03  0.10362674655E+04  0.00000000000E+00 0.  1.
         15    1    4    4    0    0  0.22726284739E+03 -0.16028974863E+03  0.70284826244E+03  0.75586829893E+03  0.00000000000E+00 0. -1.
         15    1    6    6    0    0  0.26543418128E+02  0.29679806603E+02 -0.17155190310E+03  0.17611217852E+03  0.00000000000E+00 0. -1.
        -16    1    4    4    0    0  0.15117095486E+03 -0.38653125857E+02  0.30160184614E+03  0.33957384370E+03  0.00000000000E+00 0.  1.
         16    1    5    5    0    0  0.24482806891E+03 -0.80959980724E+03  0.73535214257E+03  0.11207744665E+04  0.00000000000E+00 0. -1.
    9900018    1    1    2    0    0  0.10791985606E+03  0.19189020038E+03  0.84881448459E+02  0.25295964702E+03  0.91187600000E+02 0.  0.
<mgrwt>
<rscale>  0 0.49305951E+04</rscale>
<asrwt>0</asrwt>
<pdfrwt beam="1">  1        1 0.39139510E+00 0.49305951E+04</pdfrwt>
<pdfrwt beam="2">  1       -1 0.36753320E+00 0.49305951E+04</pdfrwt>
<totfact> 0.10879803E-02</totfact>
</mgrwt>
</event>
<event>
13    1  0.1076827E-009  0.5342694E+04  0.7818608E-02  0.7777713E-01
         -2   -1    0    0    0  501 -0.00000000000E+00  0.00000000000E+00  0.24516880802E+04  0.24516880802E+04  0.00000000000E+00 0.  1.
          2   -1    0    0  501    0  0.00000000000E+00 -0.00000000000E+00 -0.29106866513E+04  0.29106866513E+04  0.00000000000E+00 0. -1.
    9900016    2    1    2    0    0  0.15745791629E+03  0.66548755700E+03 -0.11959607118E+04  0.26000726883E+04  0.22050826008E+04 0.  0.
        -24    2    3    3    0    0 -0.64960370282E+03 -0.48642844490E+03 -0.10699974198E+03  0.82128238977E+03  0.66769875192E+02 0.  0.
    9900016    2    1    2    0    0 -0.30456508912E+03 -0.33099183136E+03  0.79007952210E+03  0.23819541165E+04  0.22016276425E+04 0.  0.
         23    2    5    5    0    0 -0.15550281539E+03  0.42616839666E+03 -0.62047768118E+03  0.77410375157E+03  0.91888179045E+02 0.  0.
        -15    1    3    3    0    0  0.80706161911E+03  0.11519160019E+04 -0.10889609698E+04  0.17787902986E+04  0.00000000000E+00 0.  1.
        -15    1    6    6    0    0 -0.70483066881E+02  0.29636991158E+03 -0.36767522955E+03  0.47748095420E+03  0.00000000000E+00 0.  1.
         15    1    6    6    0    0 -0.85019748508E+02  0.12979848508E+03 -0.25280245164E+03  0.29662279737E+03  0.00000000000E+00 0. -1.
         15    1    4    4    0    0 -0.47062963037E+03 -0.33202755925E+03 -0.10155368580E+03  0.58484844206E+03  0.00000000000E+00 0. -1.
        -16    1    4    4    0    0 -0.17897407245E+03 -0.15440088565E+03 -0.54460561753E+01  0.23643394770E+03  0.00000000000E+00 0.  1.
         16    1    5    5    0    0 -0.14906227373E+03 -0.75716022802E+03  0.14105572033E+04  0.16078503650E+04  0.00000000000E+00 0. -1.
    9900018    1    1    2    0    0  0.14710717283E+03 -0.33449572564E+03 -0.53117381400E+02  0.38034792673E+03  0.91187600000E+02 0.  0.
<mgrwt>
<rscale>  0 0.53426944E+04</rscale>
<asrwt>0</asrwt>
<pdfrwt beam="1">  1        2 0.44779794E+00 0.53426944E+04</pdfrwt>
<pdfrwt beam="2">  1       -2 0.37718278E+00 0.53426944E+04</pdfrwt>
<totfact> 0.14639347E-02</totfact>
</mgrwt>
</event>
<event>
13    1  0.1076827E-009  0.6309192E+04  0.7818608E-02  0.7653205E-01
         -2   -1    0    0    0  501 -0.00000000000E+00  0.00000000000E+00  0.30428557503E+04  0.30428557503E+04  0.00000000000E+00 0.  1.
          2   -1    0    0  501    0  0.00000000000E+00 -0.00000000000E+00 -0.32704395669E+04  0.32704395669E+04  0.00000000000E+00 0. -1.
    9900016    2    1    2    0    0  0.61668445302E+03 -0.25489097712E+03 -0.28471337732E+03  0.23135486444E+04  0.21968560485E+04 0.  0.
         24    2    3    3    0    0  0.35107635175E+03 -0.11183006774E+04  0.33229648521E+03  0.12195993108E+04  0.56129446938E+02 0.  0.
    9900016    2    1    2    0    0  0.20191486754E+03  0.71849875614E+03  0.11256238129E+04  0.25732011370E+04  0.21902796733E+04 0.  0.
         23    2    5    5    0    0 -0.65513112600E+03 -0.45678690976E+03  0.13992671678E+03  0.81609470974E+03  0.92628375862E+02 0.  0.
        -15    1    4    4    0    0  0.11287359962E+03 -0.37412771898E+03  0.83780074511E+02  0.39966373426E+03  0.00000000000E+00 0.  1.
        -15    1    6    6    0    0 -0.57587940021E+02 -0.33474444180E+02 -0.13347093404E+02  0.67934189856E+02  0.00000000000E+00 0. -1.
         15    1    6    6    0    0 -0.59754318598E+03 -0.42331246558E+03  0.15327381018E+03  0.74816051988E+03  0.00000000000E+00 0.  1.
         15    1    3    3    0    0  0.26560810127E+03  0.86340970033E+03 -0.61700986253E+03  0.10939493336E+04  0.00000000000E+00 0. -1.
        -16    1    5    5    0    0  0.85704599354E+03  0.11752856659E+04  0.98569709607E+03  0.17571064273E+04  0.00000000000E+00 0.  1.
         16    1    4    4    0    0  0.23820275213E+03 -0.74417295847E+03  0.24851641070E+03  0.81993557651E+03  0.00000000000E+00 0. -1.
    9900018    1    1    2    0    0 -0.81859932056E+03 -0.46360777901E+03 -0.10684942521E+04  0.14265455357E+04  0.91187600000E+02 0.  0.
<mgrwt>
<rscale>  0 0.63091920E+04</rscale>
<asrwt>0</asrwt>
<pdfrwt beam="1">  1        2 0.50314455E+00 0.63091920E+04</pdfrwt>
<pdfrwt beam="2">  1       -2 0.46813165E+00 0.63091920E+04</pdfrwt>
<totfact> 0.20331362E-03</totfact>
</mgrwt>
</event>
<event>
13    1  0.1076827E-009  0.5682047E+04  0.7818608E-02  0.7731125E-01
         -2   -1    0    0    0  501 -0.00000000000E+00  0.00000000000E+00  0.24004596451E+04  0.24004596451E+04  0.00000000000E+00 0.  1.
          2   -1    0    0  501    0  0.00000000000E+00 -0.00000000000E+00 -0.33624448303E+04  0.33624448303E+04  0.00000000000E+00 0. -1.
    9900016    2    1    2    0    0  0.12591672537E+04  0.10140217107E+04 -0.86391056488E+03  0.28559145977E+04  0.21900147312E+04 0.  0.
        -24    2    3    3    0    0  0.88389894962E+02  0.20460653724E+03 -0.13349262497E+04  0.13566720149E+04  0.94097052554E+02 0.  0.
    9900016    2    1    2    0    0 -0.10983937494E+04 -0.73386258152E+03 -0.18297862288E+02  0.25620018100E+04  0.21951071376E+04 0.  0.
         23    2    5    5    0    0  0.60496821558E+02  0.37454675010E+03  0.70318166825E+03  0.80355610004E+03  0.85397973763E+02 0.  0.
        -15    1    6    6    0    0  0.35544888740E+02  0.16187822863E+03  0.39427106393E+03  0.42768875584E+03  0.00000000000E+00 0.  1.
        -15    1    3    3    0    0  0.11707773587E+04  0.80941517349E+03  0.47101568481E+03  0.14992425828E+04  0.00000000000E+00 0.  1.
         15    1    6    6    0    0  0.24951932818E+02  0.21266852147E+03  0.30891060432E+03  0.37586734420E+03  0.00000000000E+00 0. -1.
         15    1    4    4    0    0  0.80822734609E+02  0.16658810978E+03 -0.83683000473E+03  0.85706964103E+03  0.00000000000E+00 0. -1.
        -16    1    4    4    0    0  0.75671603526E+01  0.38018427458E+02 -0.49809624495E+03  0.49960237387E+03  0.00000000000E+00 0.  1.
         16    1    5    5    0    0 -0.11588905710E+04 -0.11084093316E+04 -0.72147953054E+03  0.17584457100E+04  0.00000000000E+00 0. -1.
    9900018    1    1    2    0    0 -0.16077350428E+03 -0.28015912921E+03 -0.79776757988E+02  0.34498806772E+03  0.91187600000E+02 0.  0.
<mgrwt>
<rscale>  0 0.56820465E+04</rscale>
<asrwt>0</asrwt>
<pdfrwt beam="1">  1        2 0.51729920E+00 0.56820465E+04</pdfrwt>
<pdfrwt beam="2">  1       -2 0.36930148E+00 0.56820465E+04</pdfrwt>
<totfact> 0.81730199E-03</totfact>
</mgrwt>
</event>
<event>
13    1  0.1076827E-009  0.6517960E+04  0.7818608E-02  0.7629300E-01
          1   -1    0    0  501    0  0.00000000000E+00  0.00000000000E+00  0.36052589708E+04  0.36052589708E+04  0.00000000000E+00 0. -1.
         -1   -1    0    0    0  501 -0.00000000000E+00 -0.00000000000E+00 -0.29459607079E+04  0.29459607079E+04  0.00000000000E+00 0.  1.
    9900016    2    1    2    0    0  0.91299268847E+03 -0.14411996814E+04 -0.48841623534E+03  0.28256390484E+04  0.21988800427E+04 0.  0.
        -24    2    3    3    0    0 -0.19462702039E+03 -0.43607100816E+03 -0.11054291147E+04  0.12076742891E+04  0.92011192667E+02 0.  0.
    9900016    2    1    2    0    0 -0.61884100845E+03  0.23696562947E+03  0.85201722780E+03  0.24479042562E+04  0.21970855668E+04 0.  0.
         23    2    5    5    0    0  0.47321894111E+03 -0.25903108452E+03  0.10950277845E+04  0.12241143215E+04  0.91305828595E+02 0.  0.
        -15    1    6    6    0    0  0.50258907676E+02 -0.46094040907E+02  0.20360911590E+03  0.21472608245E+03  0.00000000000E+00 0.  1.
        -15    1    3    3    0    0  0.11076197089E+04 -0.10051286732E+04  0.61701287939E+03  0.16179647594E+04  0.00000000000E+00 0.  1.
         15    1    4    4    0    0 -0.16079984547E+03 -0.25041027217E+03 -0.67360494260E+03  0.73641395519E+03  0.00000000000E+00 0. -1.
         15    1    6    6    0    0  0.42296003343E+03 -0.21293704362E+03  0.89141866856E+03  0.10093882390E+04  0.00000000000E+00 0. -1.
        -16    1    4    4    0    0 -0.33827174914E+02 -0.18566073600E+03 -0.43182417212E+03  0.47126033387E+03  0.00000000000E+00 0.  1.
         16    1    5    5    0    0 -0.10920599496E+04  0.49599671400E+03 -0.24301055666E+03  0.12237899347E+04  0.00000000000E+00 0. -1.
    9900018    1    1    2    0    0 -0.29415168002E+03  0.12042340519E+04  0.29569727049E+03  0.12776763741E+04  0.91187600000E+02 0.  0.
<mgrwt>
<rscale>  0 0.65179602E+04</rscale>
<asrwt>0</asrwt>
<pdfrwt beam="1">  1        1 0.55465523E+00 0.65179602E+04</pdfrwt>
<pdfrwt beam="2">  1       -1 0.45322472E+00 0.65179602E+04</pdfrwt>
<totfact> 0.40832333E-04</totfact>
</mgrwt>
</event>
<event>
12    1  0.1076827E-009  0.5313974E+04  0.7818608E-02  0.7781818E-01
          2   -1    0    0  501    0  0.00000000000E+00  0.00000000000E+00  0.26672791051E+04  0.26672791051E+04  0.00000000000E+00 0. -1.
         -2   -1    0    0    0  501 -0.00000000000E+00 -0.00000000000E+00 -0.26467346739E+04  0.26467346739E+04  0.00000000000E+00 0.  1.
    9900016    2    1    2    0    0 -0.60990020342E+02  0.11261640520E+03  0.10084634475E+04  0.24213410999E+04  0.21976105114E+04 0.  0.
    9900016    2    1    2    0    0 -0.10495901937E+03 -0.31219473541E+03 -0.42602332652E+03  0.22670429657E+04  0.22021593914E+04 0.  0.
         23    2    4    4    0    0  0.10081925408E+04 -0.21548698452E+03  0.85004925704E+02  0.10383816375E+04  0.90131835851E+02 0.  0.
        -15    1    5    5    0    0  0.97747903118E+03 -0.22426055445E+03  0.84601699075E+02  0.10064370324E+04  0.00000000000E+00 0.  1.
        -15    1    3    3    0    0 -0.83471337952E+03 -0.30081283376E+03 -0.21266208614E+03  0.91239243190E+03  0.00000000000E+00 0.  1.
         15    1    5    5    0    0  0.30713509611E+02  0.87735699299E+01  0.40322662906E+00  0.31944605079E+02  0.00000000000E+00 0. -1.
         15    1    3    3    0    0  0.65518724982E+03  0.37896871631E+03  0.98203280826E+03  0.12398693709E+04  0.00000000000E+00 0. -1.
        -16    1    3    3    0    0  0.11853610935E+03  0.34460522649E+02  0.23909272537E+03  0.26907929717E+03  0.00000000000E+00 0.  1.
         16    1    4    4    0    0 -0.11131515602E+04 -0.96707750890E+02 -0.51102825222E+03  0.12286613283E+04  0.00000000000E+00 0. -1.
    9900018    1    1    2    0    0  0.16594903972E+03  0.19957833021E+03 -0.56189568979E+03  0.62562971339E+03  0.91187600000E+02 0.  0.
<mgrwt>
<rscale>  0 0.53139741E+04</rscale>
<asrwt>0</asrwt>
<pdfrwt beam="1">  1        2 0.41035063E+00 0.53139741E+04</pdfrwt>
<pdfrwt beam="2">  1       -2 0.40718995E+00 0.53139741E+04</pdfrwt>
<totfact> 0.13148049E-02</totfact>
</mgrwt>
</event>
<event>
12    1  0.1076827E-009  0.6091366E+04  0.7818608E-02  0.7679176E-01
          2   -1    0    0  501    0  0.00000000000E+00  0.00000000000E+00  0.33301799313E+04  0.33301799313E+04  0.00000000000E+00 0. -1.
         -2   -1    0    0    0  501 -0.00000000000E+00 -0.00000000000E+00 -0.27854906048E+04  0.27854906048E+04  0.00000000000E+00 0.  1.
    9900016    2    1    2    0    0 -0.12296307167E+04  0.56092425442E+03  0.20895917945E+03  0.26026363273E+04  0.22143676738E+04 0.  0.
    9900016    2    1    2    0    0  0.62637031648E+03 -0.10996206510E+04  0.67167002227E+03  0.26325299805E+04  0.22085217069E+04 0.  0.
         23    2    4    4    0    0  0.42001533656E+03  0.13628730330E+03 -0.66297984687E+03  0.80186312861E+03  0.91951550717E+02 0.  0.
        -15    1    5    5    0    0  0.10296301891E+02  0.22266946675E+02 -0.24209998702E+02  0.34466719948E+02  0.00000000000E+00 0. -1.
        -15    1    3    3    0    0  0.29621332678E+03 -0.33566874312E+03 -0.52200535169E+03  0.68768119595E+03  0.00000000000E+00 0.  1.
         15    1    3    3    0    0 -0.82410773624E+03  0.47725545786E+03  0.40560840452E+03  0.10351060384E+04  0.00000000000E+00 0. -1.
         15    1    5    5    0    0  0.40971903467E+03  0.11402035663E+03 -0.63876984817E+03  0.76739640867E+03  0.00000000000E+00 0.  1.
        -16    1    3    3    0    0 -0.70173630725E+03  0.41933753968E+03  0.32535612662E+03  0.87984909288E+03  0.00000000000E+00 0.  1.
         16    1    4    4    0    0  0.20635497991E+03 -0.12359079543E+04  0.13346498691E+04  0.18306668518E+04  0.00000000000E+00 0. -1.
    9900018    1    1    2    0    0  0.60326040023E+03  0.53869639656E+03 -0.33593987523E+03  0.88050422845E+03  0.91187600000E+02 0.  0.
<mgrwt>
<rscale>  0 0.60913660E+04</rscale>
<asrwt>0</asrwt>
<pdfrwt beam="1">  1        2 0.51233538E+00 0.60913660E+04</pdfrwt>
<pdfrwt beam="2">  1       -2 0.42853701E+00 0.60913660E+04</pdfrwt>
<totfact> 0.34268688E-03</totfact>
</mgrwt>
</event>
<event>
12    1  0.1076827E-009  0.7356999E+04  0.7818608E-02  0.7541698E-01
          2   -1    0    0  501    0  0.00000000000E+00  0.00000000000E+00  0.43354783371E+04  0.43354783371E+04  0.00000000000E+00 0.  1.
         -2   -1    0    0    0  501 -0.00000000000E+00 -0.00000000000E+00 -0.31210764144E+04  0.31210764144E+04  0.00000000000E+00 0. -1.
    9900016    2    1    2    0    0 -0.22399650152E+04  0.14876120742E+04 -0.30471630947E+03  0.34943620562E+04  0.22107196110E+04 0.  0.
    9900016    2    1    2    0    0  0.16815542643E+04 -0.11801607129E+04  0.11810063559E+04  0.32348800215E+04  0.22021055126E+04 0.  0.
         23    2    4    4    0    0 -0.40341097351E+03 -0.14126052706E+03 -0.24663988834E+03  0.50274396380E+03  0.96048469839E+02 0.  0.
        -15    1    3    3    0    0 -0.30350225601E+03  0.45492496278E+03 -0.81687227959E+03  0.98303136386E+03  0.00000000000E+00 0.  1.
        -15    1    5    5    0    0 -0.17059377554E+03 -0.10091164628E+03 -0.14469854622E+03  0.24540388319E+03  0.00000000000E+00 0.  1.
         15    1    3    3    0    0 -0.18941680146E+04  0.95438002324E+03  0.75602443730E+03  0.22517297009E+04  0.00000000000E+00 0. -1.
         15    1    5    5    0    0 -0.23281719798E+03 -0.40348880783E+02 -0.10194134212E+03  0.25734008061E+03  0.00000000000E+00 0. -1.
        -16    1    4    4    0    0  0.20849652378E+04 -0.10389001858E+04  0.14276462442E+04  0.27321360577E+04  0.00000000000E+00 0.  1.
         16    1    3    3    0    0 -0.42294744554E+02  0.78307088154E+02 -0.24386846718E+03  0.25960099144E+03  0.00000000000E+00 0. -1.
    9900018    1    1    2    0    0  0.55841075083E+03 -0.30745136131E+03  0.33811187620E+03  0.72731267378E+03  0.91187600000E+02 0.  0.
<mgrwt>
<rscale>  0 0.73569992E+04</rscale>
<asrwt>0</asrwt>
<pdfrwt beam="1">  1        2 0.66699667E+00 0.73569992E+04</pdfrwt>
<pdfrwt beam="2">  1       -2 0.48016560E+00 0.73569992E+04</pdfrwt>
<totfact> 0.23587142E-04</totfact>
</mgrwt>
</event>
<event>
13    1  0.1076827E-009  0.7625486E+04  0.7818608E-02  0.7516157E-01
         -2   -1    0    0    0  501 -0.00000000000E+00  0.00000000000E+00  0.30516502851E+04  0.30516502851E+04  0.00000000000E+00 0.  1.
          2   -1    0    0  501    0  0.00000000000E+00 -0.00000000000E+00 -0.47636544650E+04  0.47636544650E+04  0.00000000000E+00 0. -1.
    9900016    2    1    2    0    0 -0.16754580254E+04 -0.14817167851E+04  0.34653845980E+03  0.31572261495E+04  0.22012141715E+04 0.  0.
        -24    2    3    3    0    0 -0.12405231747E+04  0.23609222675E+03 -0.24782077594E+03  0.12881892246E+04  0.58129637659E+02 0.  0.
    9900016    2    1    2    0    0  0.72246611576E+03  0.35292245130E+03 -0.30529658658E+03  0.23636163262E+04  0.22015822916E+04 0.  0.
         23    2    5    5    0    0  0.28503179338E+03  0.24018321133E+03  0.95263191707E+03  0.10270374685E+04  0.91472913799E+02 0.  0.
        -15    1    6    6    0    0  0.94707588374E+02  0.36072403699E+02  0.19747441500E+03  0.22196146103E+03  0.00000000000E+00 0. -1.
        -15    1    3    3    0    0 -0.43493485070E+03 -0.17178090118E+04  0.59435923574E+03  0.18690369249E+04  0.00000000000E+00 0.  1.
         15    1    4    4    0    0 -0.10118913197E+04  0.21509646459E+03 -0.19923341307E+03  0.10535105528E+04  0.00000000000E+00 0. -1.
         15    1    6    6    0    0  0.19032420500E+03  0.20411080763E+03  0.75515750207E+03  0.80507600743E+03  0.00000000000E+00 0.  1.
        -16    1    4    4    0    0 -0.22863185502E+03  0.20995762161E+02 -0.48587362876E+02  0.23467867179E+03  0.00000000000E+00 0.  1.
         16    1    5    5    0    0  0.43743432238E+03  0.11273923997E+03 -0.12579285036E+04  0.13365788577E+04  0.00000000000E+00 0. -1.
    9900018    1    1    2    0    0  0.95299190968E+03  0.11287943338E+04 -0.17532460531E+04  0.22944622745E+04  0.91187600000E+02 0.  0.
<mgrwt>
<rscale>  0 0.76254856E+04</rscale>
<asrwt>0</asrwt>
<pdfrwt beam="1">  1        2 0.73286992E+00 0.76254856E+04</pdfrwt>
<pdfrwt beam="2">  1       -2 0.46948466E+00 0.76254856E+04</pdfrwt>
<totfact> 0.99623687E-05</totfact>
</mgrwt>
</event>
<event>
13    1  0.1076827E-009  0.5348168E+04  0.7818608E-02  0.7776934E-01
          1   -1    0    0  501    0  0.00000000000E+00  0.00000000000E+00  0.17965658667E+04  0.17965658667E+04  0.00000000000E+00 0. -1.
         -1   -1    0    0    0  501 -0.00000000000E+00 -0.00000000000E+00 -0.39802185760E+04  0.39802185760E+04  0.00000000000E+00 0.  1.
    9900016    2    1    2    0    0 -0.53961040840E+03 -0.50829990255E+03 -0.10599924831E+04  0.25536575291E+04  0.22018252718E+04 0.  0.
         24    2    3    3    0    0 -0.59537765182E+03 -0.63995562445E+03 -0.16920701249E+04  0.19056101852E+04  0.65047066574E+02 0.  0.
    9900016    2    1    2    0    0  0.86221742862E+02  0.84449804740E+03 -0.12050001740E+04  0.26456134159E+04  0.21969601238E+04 0.  0.
         23    2    5    5    0    0  0.30466581614E+03 -0.12904693240E+03  0.53736757432E+03  0.63779046268E+03  0.92403431092E+02 0.  0.
        -15    1    4    4    0    0 -0.37757762616E+03 -0.37886726988E+03 -0.10899763404E+04  0.12141473117E+04  0.00000000000E+00 0.  1.
        -15    1    6    6    0    0  0.11828433508E+03 -0.97539988058E+02  0.21447386540E+03  0.26363662897E+03  0.00000000000E+00 0.  1.
         15    1    6    6    0    0  0.18638148106E+03 -0.31506944341E+02  0.32289370892E+03  0.37415383371E+03  0.00000000000E+00 0. -1.
         15    1    3    3    0    0  0.55767243420E+02  0.13165572190E+03  0.63207764182E+03  0.64804734383E+03  0.00000000000E+00 0. -1.
        -16    1    5    5    0    0 -0.21844407328E+03  0.97354497980E+03 -0.17423677483E+04  0.20078229532E+04  0.00000000000E+00 0.  1.
         16    1    4    4    0    0 -0.21780002566E+03 -0.26108835457E+03 -0.60209378452E+03  0.69146287350E+03  0.00000000000E+00 0. -1.
    9900018    1    1    2    0    0  0.45338866554E+03 -0.33619814485E+03  0.81339947756E+02  0.57751349780E+03  0.91187600000E+02 0.  0.
<mgrwt>
<rscale>  0 0.53481678E+04</rscale>
<asrwt>0</asrwt>
<pdfrwt beam="1">  1        1 0.27639475E+00 0.53481678E+04</pdfrwt>
<pdfrwt beam="2">  1       -1 0.61234131E+00 0.53481678E+04</pdfrwt>
<totfact> 0.11541968E-03</totfact>
</mgrwt>
</event>
<event>
12    1  0.1076827E-009  0.5460349E+04  0.7818608E-02  0.7761169E-01
         -1   -1    0    0    0  501 -0.00000000000E+00  0.00000000000E+00  0.31597874755E+04  0.31597874755E+04  0.00000000000E+00 0.  1.
          1   -1    0    0  501    0  0.00000000000E+00 -0.00000000000E+00 -0.23589729706E+04  0.23589729706E+04  0.00000000000E+00 0. -1.
    9900016    2    1    2    0    0 -0.42460301512E+03  0.33895342345E+03  0.16486627535E+04  0.28005942970E+04  0.21977402936E+04 0.  0.
    9900016    2    1    2    0    0  0.51316105374E+03 -0.56016274663E+03 -0.71007292242E+03  0.24282121704E+04  0.21942867223E+04 0.  0.
         23    2    4    4    0    0  0.39993195725E+02  0.25889522653E+03 -0.12895086995E+04  0.13189378108E+04  0.90211243769E+02 0.  0.
        -15    1    5    5    0    0 -0.11483160168E+01  0.17184278722E+03 -0.97472972551E+03  0.98976224415E+03  0.00000000000E+00 0.  1.
        -15    1    3    3    0    0  0.76063445985E+02 -0.37548715048E+03  0.50719083419E+03  0.63562472441E+03  0.00000000000E+00 0.  1.
         15    1    3    3    0    0 -0.49621168237E+03  0.12180703750E+04  0.67443029708E+03  0.14780993531E+04  0.00000000000E+00 0. -1.
         15    1    5    5    0    0  0.41141511742E+02  0.87052439307E+02 -0.31477897400E+03  0.32917556661E+03  0.00000000000E+00 0. -1.
        -16    1    4    4    0    0  0.47316785801E+03 -0.81905797315E+03  0.57943577709E+03  0.11092743597E+04  0.00000000000E+00 0.  1.
         16    1    3    3    0    0 -0.44547787290E+01 -0.50362980104E+03  0.46704162222E+03  0.68687021950E+03  0.00000000000E+00 0. -1.
    9900018    1    1    2    0    0 -0.88558038619E+02  0.22120932318E+03 -0.13777532615E+03  0.28995397868E+03  0.91187600000E+02 0.  0.
<mgrwt>
<rscale>  0 0.54603492E+04</rscale>
<asrwt>0</asrwt>
<pdfrwt beam="1">  1        1 0.36291892E+00 0.54603492E+04</pdfrwt>
<pdfrwt beam="2">  1       -1 0.48612115E+00 0.54603492E+04</pdfrwt>
<totfact> 0.21841688E-03</totfact>
</mgrwt>
</event>
<event>
13    1  0.1076827E-009  0.5451903E+04  0.7818608E-02  0.7762342E-01
         -2   -1    0    0    0  501 -0.00000000000E+00  0.00000000000E+00  0.24703884430E+04  0.24703884430E+04  0.00000000000E+00 0.  1.
          2   -1    0    0  501    0  0.00000000000E+00 -0.00000000000E+00 -0.30079527109E+04  0.30079527109E+04  0.00000000000E+00 0. -1.
    9900016    2    1    2    0    0 -0.63288875352E+03  0.88415731731E+03 -0.61525872217E+03  0.25314860946E+04  0.22017257358E+04 0.  0.
         24    2    3    3    0    0  0.64957422606E+02 -0.70243081429E+03 -0.85655745348E+02  0.71910354723E+03  0.11020203860E+03 0.  0.
    9900016    2    1    2    0    0  0.71388017882E+03 -0.60318746455E+03 -0.36414647555E+03  0.24092285581E+04  0.21905066908E+04 0.  0.
         23    2    5    5    0    0  0.30630300077E+02  0.38702908763E+03 -0.97981062289E+03  0.10577843087E+04  0.90272127636E+02 0.  0.
        -15    1    4    4    0    0  0.30157263742E+02 -0.39677309487E+02 -0.12766248758E+02  0.51446346341E+02  0.00000000000E+00 0.  1.
        -15    1    6    6    0    0  0.93668311157E+00  0.76764832471E+02 -0.30430903475E+03  0.31384344108E+03  0.00000000000E+00 0. -1.
         15    1    3    3    0    0 -0.69784617613E+03  0.15865881316E+04 -0.52960297682E+03  0.18123825473E+04  0.00000000000E+00 0. -1.
         15    1    6    6    0    0  0.29693616965E+02  0.31026425516E+03 -0.67550158814E+03  0.74394086761E+03  0.00000000000E+00 0.  1.
        -16    1    5    5    0    0  0.68324987874E+03 -0.99021655218E+03  0.61566414735E+03  0.13514442494E+04  0.00000000000E+00 0.  1.
         16    1    4    4    0    0  0.34800158864E+02 -0.66275350480E+03 -0.72889496590E+02  0.66765720089E+03  0.00000000000E+00 0. -1.
    9900018    1    1    2    0    0 -0.80991425298E+02 -0.28096985275E+03  0.44184092982E+03  0.53762650119E+03  0.91187600000E+02 0.  0.
<mgrwt>
<rscale>  0 0.54519030E+04</rscale>
<asrwt>0</asrwt>
<pdfrwt beam="1">  1        2 0.46276195E+00 0.54519030E+04</pdfrwt>
<pdfrwt beam="2">  1       -2 0.38005976E+00 0.54519030E+04</pdfrwt>
<totfact> 0.12095556E-02</totfact>
</mgrwt>
</event>
<event>
13    1  0.1076827E-009  0.6880539E+04  0.7818608E-02  0.7589882E-01
         -1   -1    0    0    0  501 -0.00000000000E+00  0.00000000000E+00  0.29266428929E+04  0.29266428929E+04  0.00000000000E+00 0. -1.
          1   -1    0    0  501    0  0.00000000000E+00 -0.00000000000E+00 -0.40440373237E+04  0.40440373237E+04  0.00000000000E+00 0.  1.
    9900016    2    1    2    0    0 -0.62518613334E+03 -0.22324258647E+04  0.14922386313E+03  0.32149322503E+04  0.22223723068E+04 0.  0.
        -24    2    3    3    0    0  0.12804440631E+03  0.41709939156E+03 -0.91437671425E+02  0.44992622798E+03  0.60872739712E+02 0.  0.
    9900016    2    1    2    0    0  0.58978209349E+03  0.12674779707E+04 -0.80780714123E+03  0.26828077365E+04  0.21425596024E+04 0.  0.
         23    2    5    5    0    0 -0.47388071293E+03 -0.54881620997E-01  0.40516775136E+03  0.63114348830E+03  0.98072743332E+02 0.  0.
        -15    1    3    3    0    0 -0.75323053965E+03 -0.26495252563E+04  0.24066153456E+03  0.27650060224E+04  0.00000000000E+00 0.  1.
        -15    1    6    6    0    0 -0.30105752879E+03 -0.39328087541E+02  0.22085392392E+03  0.37544478932E+03  0.00000000000E+00 0.  1.
         15    1    6    6    0    0 -0.17282318413E+03  0.39273205920E+02  0.18431382743E+03  0.25569869898E+03  0.00000000000E+00 0. -1.
         15    1    4    4    0    0  0.69294070782E+02  0.12930734581E+03 -0.25826034361E+02  0.14895986700E+03  0.00000000000E+00 0. -1.
        -16    1    4    4    0    0  0.58750335523E+02  0.28779204575E+03 -0.65611637064E+02  0.30096636098E+03  0.00000000000E+00 0.  1.
         16    1    5    5    0    0  0.10636628064E+04  0.12675328523E+04 -0.12129748926E+04  0.20516642482E+04  0.00000000000E+00 0. -1.
    9900018    1    1    2    0    0  0.35404039854E+02  0.96494789405E+03 -0.45881115270E+03  0.10729402297E+04  0.91187600000E+02 0.  0.
<mgrwt>
<rscale>  0 0.68805387E+04</rscale>
<asrwt>0</asrwt>
<pdfrwt beam="1">  1        1 0.62215958E+00 0.68805387E+04</pdfrwt>
<pdfrwt beam="2">  1       -1 0.45025276E+00 0.68805387E+04</pdfrwt>
<totfact> 0.17688803E-04</totfact>
</mgrwt>
</event>
<event>
13    1  0.1076827E-009  0.6284559E+04  0.7818608E-02  0.7656087E-01
         -2   -1    0    0    0  501 -0.00000000000E+00  0.00000000000E+00  0.20971683992E+04  0.20971683992E+04  0.00000000000E+00 0.  1.
          2   -1    0    0  501    0  0.00000000000E+00 -0.00000000000E+00 -0.47082156817E+04  0.47082156817E+04  0.00000000000E+00 0. -1.
    9900016    2    1    2    0    0  0.80836276352E+03  0.13708794011E+04  0.29668338182E+02  0.27185685372E+04  0.22038543489E+04 0.  0.
        -24    2    3    3    0    0 -0.61552223763E+03  0.81630093106E+03 -0.44433139420E+03  0.11186680646E+04  0.93664378049E+02 0.  0.
    9900016    2    1    2    0    0 -0.62734512643E+03 -0.69360606848E+03 -0.17982053440E+04  0.29869949689E+04  0.21940704636E+04 0.  0.
         23    2    5    5    0    0 -0.30801099620E+03  0.21813167741E+03  0.41729807932E+03  0.57003501420E+03  0.91378487251E+02 0.  0.
        -15    1    6    6    0    0 -0.11783780269E+03  0.12828643036E+03  0.22908587710E+03  0.28779071396E+03  0.00000000000E+00 0.  1.
        -15    1    3    3    0    0  0.14238850011E+04  0.55457847008E+03  0.47399973239E+03  0.15999004726E+04  0.00000000000E+00 0.  1.
         15    1    6    6    0    0 -0.19017319351E+03  0.89845247048E+02  0.18821220223E+03  0.28224430023E+03  0.00000000000E+00 0. -1.
         15    1    4    4    0    0 -0.43766911909E+03  0.57497686719E+03 -0.26692172333E+03  0.77032451733E+03  0.00000000000E+00 0. -1.
        -16    1    4    4    0    0 -0.17785311854E+03  0.24132406387E+03 -0.17740967087E+03  0.34834354723E+03  0.00000000000E+00 0.  1.
         16    1    5    5    0    0 -0.31933413023E+03 -0.91173774589E+03 -0.22155034233E+04  0.24169599547E+04  0.00000000000E+00 0. -1.
    9900018    1    1    2    0    0 -0.18101763709E+03 -0.67727333267E+03 -0.84251027675E+03  0.10998205749E+04  0.91187600000E+02 0.  0.
<mgrwt>
<rscale>  0 0.62845592E+04</rscale>
<asrwt>0</asrwt>
<pdfrwt beam="1">  1        2 0.72434087E+00 0.62845592E+04</pdfrwt>
<pdfrwt beam="2">  1       -2 0.32264129E+00 0.62845592E+04</pdfrwt>
<totfact> 0.11237111E-03</totfact>
</mgrwt>
</event>
<event>
13    1  0.1076827E-009  0.5074105E+04  0.7818608E-02  0.7817176E-01
         -1   -1    0    0    0  501 -0.00000000000E+00  0.00000000000E+00  0.22687887924E+04  0.22687887924E+04  0.00000000000E+00 0.  1.
          1   -1    0    0  501    0  0.00000000000E+00 -0.00000000000E+00 -0.28370357064E+04  0.28370357064E+04  0.00000000000E+00 0. -1.
    9900016    2    1    2    0    0  0.21478390955E+02  0.32973545645E+02  0.47064458589E+03  0.22466495631E+04  0.21964469849E+04 0.  0.
        -24    2    3    3    0    0  0.48769460919E+03 -0.34779875796E+03 -0.70414635081E+03  0.92661969443E+03  0.63182013997E+02 0.  0.
    9900016    2    1    2    0    0 -0.39479862919E+03 -0.81967148003E+02 -0.69478066638E+03  0.23410091152E+04  0.21988676477E+04 0.  0.
         23    2    5    5    0    0  0.41665357012E+03  0.42368656821E+03 -0.11380546163E+04  0.12871437789E+04  0.91979846518E+02 0.  0.
        -15    1    6    6    0    0  0.13090306878E+02 -0.54564473170E-01 -0.10467340344E+02  0.16760797276E+02  0.00000000000E+00 0. -1.
        -15    1    3    3    0    0 -0.46621621823E+03  0.38077230360E+03  0.11747909367E+04  0.13200298687E+04  0.00000000000E+00 0.  1.
         15    1    6    6    0    0  0.40356326324E+03  0.42374113268E+03 -0.11275872760E+04  0.12703829816E+04  0.00000000000E+00 0.  1.
         15    1    4    4    0    0  0.34629238007E+03 -0.27899842291E+03 -0.50555859503E+03  0.67331123969E+03  0.00000000000E+00 0. -1.
        -16    1    4    4    0    0  0.14140222912E+03 -0.68800335047E+02 -0.19858775578E+03  0.25330845475E+03  0.00000000000E+00 0.  1.
         16    1    5    5    0    0 -0.81145219931E+03 -0.50565371621E+03  0.44327394994E+03  0.10538653364E+04  0.00000000000E+00 0. -1.
    9900018    1    1    2    0    0  0.37332023824E+03  0.48993602358E+02 -0.34411083352E+03  0.51816582046E+03  0.91187600000E+02 0.  0.
<mgrwt>
<rscale>  0 0.50741048E+04</rscale>
<asrwt>0</asrwt>
<pdfrwt beam="1">  1        1 0.43646703E+00 0.50741048E+04</pdfrwt>
<pdfrwt beam="2">  1       -1 0.34904443E+00 0.50741048E+04</pdfrwt>
<totfact> 0.88736339E-03</totfact>
</mgrwt>
</event>
<event>
13    1  0.1076827E-009  0.5730975E+04  0.7818608E-02  0.7724683E-01
         -2   -1    0    0    0  501 -0.00000000000E+00  0.00000000000E+00  0.22286016698E+04  0.22286016698E+04  0.00000000000E+00 0.  1.
          2   -1    0    0  501    0  0.00000000000E+00 -0.00000000000E+00 -0.36843815496E+04  0.36843815496E+04  0.00000000000E+00 0. -1.
    9900016    2    1    2    0    0  0.15939945313E+04  0.16233683102E+03 -0.18976072598E+03  0.27306483454E+04  0.22030114481E+04 0.  0.
         24    2    3    3    0    0 -0.33010740822E+03 -0.14175831598E+03  0.53991918342E+03  0.65048611559E+03  0.50528614035E+02 0.  0.
    9900016    2    1    2    0    0 -0.15681107976E+04 -0.32625364745E+03 -0.12483952799E+04  0.29921652925E+04  0.21975325815E+04 0.  0.
         23    2    5    5    0    0 -0.14835997716E+02 -0.45904881886E+03 -0.13505162890E+04  0.14298830319E+04  0.98617002392E+02 0.  0.
        -15    1    4    4    0    0 -0.87977517452E+02 -0.41187171456E+02  0.18826669607E+03  0.21185083318E+03  0.00000000000E+00 0.  1.
        -15    1    6    6    0    0 -0.37259686102E+02 -0.28293967020E+03 -0.70969266973E+03  0.76492275862E+03  0.00000000000E+00 0.  1.
         15    1    3    3    0    0  0.19241019395E+04  0.30409514700E+03 -0.72967990940E+03  0.20801622298E+04  0.00000000000E+00 0. -1.
         15    1    6    6    0    0  0.22423688387E+02 -0.17610914865E+03 -0.64082361922E+03  0.66496027325E+03  0.00000000000E+00 0. -1.
        -16    1    5    5    0    0 -0.15532747998E+04  0.13279517141E+03  0.10212100910E+03  0.15622822606E+04  0.00000000000E+00 0.  1.
         16    1    4    4    0    0 -0.24212989076E+03 -0.10057114452E+03  0.35165248735E+03  0.43863528241E+03  0.00000000000E+00 0. -1.
    9900018    1    1    2    0    0 -0.25883733759E+02  0.16391681642E+03 -0.17623873926E+02  0.19016958144E+03  0.91187600000E+02 0.  0.
<mgrwt>
<rscale>  0 0.57309751E+04</rscale>
<asrwt>0</asrwt>
<pdfrwt beam="1">  1        2 0.56682792E+00 0.57309751E+04</pdfrwt>
<pdfrwt beam="2">  1       -2 0.34286180E+00 0.57309751E+04</pdfrwt>
<totfact> 0.70856870E-03</totfact>
</mgrwt>
</event>
<event>
12    1  0.1076827E-009  0.6546336E+04  0.7818608E-02  0.7626122E-01
          2   -1    0    0  501    0  0.00000000000E+00  0.00000000000E+00  0.51428264019E+04  0.51428264019E+04  0.00000000000E+00 0. -1.
         -2   -1    0    0    0  501 -0.00000000000E+00 -0.00000000000E+00 -0.20832183273E+04  0.20832183273E+04  0.00000000000E+00 0.  1.
    9900016    2    1    2    0    0  0.48306038266E+03  0.10339991444E+04  0.56682521873E+03  0.25338428366E+04  0.21901066477E+04 0.  0.
    9900016    2    1    2    0    0 -0.12422823381E+04 -0.13530167774E+04  0.11050335796E+04  0.30759242370E+04  0.22059671104E+04 0.  0.
         23    2    4    4    0    0  0.20448612507E+03 -0.36786298087E+03  0.12474279323E+04  0.13198083124E+04  0.93165375854E+02 0.  0.
        -15    1    3    3    0    0 -0.71478304498E+02  0.41275711776E+03  0.13358841504E+04  0.14000228747E+04  0.00000000000E+00 0.  1.
        -15    1    5    5    0    0  0.43348409931E+02 -0.45331260561E+02  0.11024386226E+03  0.12683736435E+03  0.00000000000E+00 0. -1.
         15    1    5    5    0    0  0.16113771514E+03 -0.32253172031E+03  0.11371840700E+04  0.11929709481E+04  0.00000000000E+00 0.  1.
         15    1    3    3    0    0  0.48386701030E+03  0.54096163711E+03 -0.65852790054E+03  0.98001314903E+03  0.00000000000E+00 0. -1.
        -16    1    3    3    0    0  0.70671676863E+02  0.80280389569E+02 -0.11053103115E+03  0.15380681294E+03  0.00000000000E+00 0.  1.
         16    1    4    4    0    0 -0.14467684632E+04 -0.98515379650E+03 -0.14239435270E+03  0.17561159246E+04  0.00000000000E+00 0. -1.
    9900018    1    1    2    0    0  0.75922195547E+03  0.31901763292E+03  0.13877492763E+04  0.16162776556E+04  0.91187600000E+02 0.  0.
<mgrwt>
<rscale>  0 0.65463364E+04</rscale>
<asrwt>0</asrwt>
<pdfrwt beam="1">  1        2 0.79120406E+00 0.65463364E+04</pdfrwt>
<pdfrwt beam="2">  1       -2 0.32049513E+00 0.65463364E+04</pdfrwt>
<totfact> 0.33165295E-04</totfact>
</mgrwt>
</event>
<event>
13    1  0.1076827E-009  0.7927907E+04  0.7818608E-02  0.7488641E-01
          1   -1    0    0  501    0  0.00000000000E+00  0.00000000000E+00  0.36448878177E+04  0.36448878177E+04  0.00000000000E+00 0. -1.
         -1   -1    0    0    0  501 -0.00000000000E+00 -0.00000000000E+00 -0.43109490718E+04  0.43109490718E+04  0.00000000000E+00 0.  1.
    9900016    2    1    2    0    0  0.26142247811E+04 -0.76619850264E+03  0.34196783295E+03  0.35198636518E+04  0.22025591427E+04 0.  0.
         24    2    3    3    0    0 -0.30569310084E+03 -0.17897718354E+02  0.39617750192E+03  0.50509779203E+03  0.66321687704E+02 0.  0.
    9900016    2    1    2    0    0 -0.90191101160E+03 -0.14529590081E+03 -0.63555519614E+03  0.24586284344E+04  0.21923432668E+04 0.  0.
         23    2    5    5    0    0  0.39893150584E+03  0.94497110258E+02  0.54312095259E+03  0.68691474230E+03  0.93784027685E+02 0.  0.
        -15    1    6    6    0    0  0.12027582959E+03 -0.14337665708E+02  0.16799555001E+03  0.20710950887E+03  0.00000000000E+00 0. -1.
        -15    1    4    4    0    0 -0.80603983114E+02 -0.29727780340E+02  0.13600882096E+03  0.16086995492E+03  0.00000000000E+00 0.  1.
         15    1    3    3    0    0  0.29199178820E+04 -0.74830078429E+03 -0.54209668964E+02  0.30147658598E+04  0.00000000000E+00 0. -1.
         15    1    6    6    0    0  0.27865567625E+03  0.10883477597E+03  0.37512540258E+03  0.47980523343E+03  0.00000000000E+00 0.  1.
        -16    1    5    5    0    0 -0.13008425174E+04 -0.23979301107E+03 -0.11786761487E+04  0.17717136921E+04  0.00000000000E+00 0.  1.
         16    1    4    4    0    0 -0.22508911773E+03  0.11830061987E+02  0.26016868096E+03  0.34422783710E+03  0.00000000000E+00 0. -1.
    9900018    1    1    2    0    0 -0.17123137695E+04  0.91149440345E+03 -0.37247389086E+03  0.19773448032E+04  0.91187600000E+02 0.  0.
<mgrwt>
<rscale>  0 0.79279066E+04</rscale>
<asrwt>0</asrwt>
<pdfrwt beam="1">  1        1 0.56075197E+00 0.79279066E+04</pdfrwt>
<pdfrwt beam="2">  1       -1 0.66322293E+00 0.79279066E+04</pdfrwt>
<totfact> 0.30419563E-05</totfact>
</mgrwt>
</event>
<event>
13    1  0.1076827E-009  0.5930469E+04  0.7818608E-02  0.7699083E-01
         -2   -1    0    0    0  501 -0.00000000000E+00  0.00000000000E+00  0.31612132943E+04  0.31612132943E+04  0.00000000000E+00 0. -1.
          2   -1    0    0  501    0  0.00000000000E+00 -0.00000000000E+00 -0.27814051371E+04  0.27814051371E+04  0.00000000000E+00 0.  1.
    9900016    2    1    2    0    0  0.87702485504E+03 -0.86421419631E+01  0.17156790693E+04  0.29279378603E+04  0.22045448877E+04 0.  0.
         24    2    3    3    0    0 -0.41356381369E+03  0.13272660005E+03  0.15594157455E+04  0.16202595897E+04  0.69370687495E+02 0.  0.
    9900016    2    1    2    0    0 -0.75369125773E+03 -0.27585988320E+03 -0.13317440506E+04  0.26914395033E+04  0.21968512004E+04 0.  0.
         23    2    5    5    0    0  0.34706770403E+03  0.85745669818E+02  0.44013850828E+03  0.57436683795E+03  0.91471563860E+02 0.  0.
        -15    1    6    6    0    0  0.12702527125E+03 -0.12659910950E+02  0.16389647188E+03  0.20774442562E+03  0.00000000000E+00 0.  1.
        -15    1    4    4    0    0 -0.78733986646E+02  0.54114472671E+02  0.31221841981E+03  0.32650843553E+03  0.00000000000E+00 0.  1.
         15    1    3    3    0    0  0.12905886687E+04 -0.14136874201E+03  0.15626332385E+03  0.13076782706E+04  0.00000000000E+00 0. -1.
         15    1    6    6    0    0  0.22004243278E+03  0.98405580767E+02  0.27624203640E+03  0.36662241233E+03  0.00000000000E+00 0. -1.
        -16    1    5    5    0    0 -0.11007589618E+04 -0.36160555302E+03 -0.17718825589E+04  0.21170726654E+04  0.00000000000E+00 0.  1.
         16    1    4    4    0    0 -0.33482982705E+03  0.78612127380E+02  0.12471973257E+04  0.12937511541E+04  0.00000000000E+00 0. -1.
    9900018    1    1    2    0    0 -0.12333359731E+03  0.28450202517E+03 -0.41268614716E+01  0.32324106782E+03  0.91187600000E+02 0.  0.
<mgrwt>
<rscale>  0 0.59304687E+04</rscale>
<asrwt>0</asrwt>
<pdfrwt beam="1">  1        2 0.42790848E+00 0.59304687E+04</pdfrwt>
<pdfrwt beam="2">  1       -2 0.48634051E+00 0.59304687E+04</pdfrwt>
<totfact> 0.32586993E-03</totfact>
</mgrwt>
</event>
<event>
12    1  0.1076827E-009  0.6315330E+04  0.7818608E-02  0.7652488E-01
          2   -1    0    0  501    0  0.00000000000E+00  0.00000000000E+00  0.31066583761E+04  0.31066583761E+04  0.00000000000E+00 0. -1.
         -2   -1    0    0    0  501 -0.00000000000E+00 -0.00000000000E+00 -0.32095087906E+04  0.32095087906E+04  0.00000000000E+00 0.  1.
    9900016    2    1    2    0    0 -0.16352710798E+04 -0.60167079749E+03 -0.10872426688E+03  0.28369951862E+04  0.22362024656E+04 0.  0.
    9900016    2    1    2    0    0  0.46757281343E+03  0.31115777489E+03 -0.60791823120E+02  0.22705874578E+04  0.21991880913E+04 0.  0.
         23    2    4    4    0    0  0.46917581852E+03  0.10185371349E+01  0.10304924457E+04  0.11360874482E+04  0.93021627190E+02 0.  0.
        -15    1    3    3    0    0  0.18399161973E+03  0.82844035651E+02 -0.61250878517E+03  0.64488996137E+03  0.00000000000E+00 0.  1.
        -15    1    5    5    0    0  0.11101416133E+03  0.39734331585E+02  0.24198738357E+03  0.26918553997E+03  0.00000000000E+00 0.  1.
         15    1    5    5    0    0  0.35816165719E+03 -0.38715794451E+02  0.78850506213E+03  0.86690190820E+03  0.00000000000E+00 0. -1.
         15    1    3    3    0    0 -0.18112032587E+04 -0.68734401655E+03  0.65171715744E+03  0.20439261960E+04  0.00000000000E+00 0. -1.
        -16    1    4    4    0    0 -0.16030050952E+01  0.31013923775E+03 -0.10912842688E+04  0.11345000096E+04  0.00000000000E+00 0.  1.
         16    1    3    3    0    0 -0.80594408672E+01  0.28291834059E+01 -0.14793263915E+03  0.14817902885E+03  0.00000000000E+00 0. -1.
    9900018    1    1    2    0    0  0.11676982664E+04  0.29051302260E+03  0.66665675499E+02  0.12085845226E+04  0.91187600000E+02 0.  0.
<mgrwt>
<rscale>  0 0.63153297E+04</rscale>
<asrwt>0</asrwt>
<pdfrwt beam="1">  1        2 0.47794744E+00 0.63153297E+04</pdfrwt>
<pdfrwt beam="2">  1       -2 0.49377059E+00 0.63153297E+04</pdfrwt>
<totfact> 0.17856929E-03</totfact>
</mgrwt>
</event>
<event>
12    1  0.1076827E-009  0.4876518E+04  0.7818608E-02  0.7847843E-01
         -1   -1    0    0    0  501 -0.00000000000E+00  0.00000000000E+00  0.22180401370E+04  0.22180401370E+04  0.00000000000E+00 0.  1.
          1   -1    0    0  501    0  0.00000000000E+00 -0.00000000000E+00 -0.26803426210E+04  0.26803426210E+04  0.00000000000E+00 0. -1.
    9900016    2    1    2    0    0  0.38377576512E+03 -0.56089513631E+03  0.22695540592E+03  0.22998734910E+04  0.21854112031E+04 0.  0.
    9900016    2    1    2    0    0 -0.36664412811E+03  0.30585560405E+03 -0.66590192969E+03  0.23261137177E+04  0.21770172440E+04 0.  0.
         23    2    4    4    0    0  0.19948112051E+03 -0.40445082291E+03  0.60738004623E+03  0.76205489288E+03  0.91890987677E+02 0.  0.
        -15    1    3    3    0    0  0.24720465086E+03 -0.13669519444E+04  0.40702799969E+03  0.14475287736E+04  0.00000000000E+00 0.  1.
        -15    1    5    5    0    0  0.53698565603E+02 -0.14748195148E+03  0.14707672128E+03  0.21509538327E+03  0.00000000000E+00 0.  1.
         15    1    5    5    0    0  0.14578255490E+03 -0.25696887143E+03  0.46030332495E+03  0.54695950962E+03  0.00000000000E+00 0. -1.
         15    1    3    3    0    0  0.57998156345E+02  0.22238655060E+03 -0.12294969145E+03  0.26064571865E+03  0.00000000000E+00 0. -1.
        -16    1    3    3    0    0  0.78572957916E+02  0.58367025751E+03 -0.57122902330E+02  0.59169899881E+03  0.00000000000E+00 0.  1.
         16    1    4    4    0    0 -0.56612524862E+03  0.71030642696E+03 -0.12732819759E+04  0.15640588248E+04  0.00000000000E+00 0. -1.
    9900018    1    1    2    0    0 -0.17131637016E+02  0.25503953226E+03 -0.23355960230E+02  0.27239554929E+03  0.91187600000E+02 0.  0.
<mgrwt>
<rscale>  0 0.48765182E+04</rscale>
<asrwt>0</asrwt>
<pdfrwt beam="1">  1        1 0.41236040E+00 0.48765182E+04</pdfrwt>
<pdfrwt beam="2">  1       -1 0.34123694E+00 0.48765182E+04</pdfrwt>
<totfact> 0.13118197E-02</totfact>
</mgrwt>
</event>
<event>
13    1  0.1616948E-009  0.8508798E+04  0.7818608E-02  0.7439135E-01
         -1   -1    0    0    0  501 -0.00000000000E+00  0.00000000000E+00  0.45789139700E+04  0.45789139700E+04  0.00000000000E+00 0.  1.
          1   -1    0    0  501    0  0.00000000000E+00 -0.00000000000E+00 -0.39528826739E+04  0.39528826739E+04  0.00000000000E+00 0. -1.
    9900016    2    1    2    0    0 -0.20097619409E+04 -0.29448998582E+02 -0.14726103778E+04  0.33219327080E+04  0.21969627418E+04 0.  0.
        -24    2    3    3    0    0 -0.20363850660E+04 -0.77715893691E+03 -0.82471700802E+03  0.23322131713E+04  0.90664120987E+02 0.  0.
    9900016    2    1    2    0    0  0.11122260952E+04 -0.98340924571E+03 -0.77593090407E+02  0.26455384213E+04  0.21883126420E+04 0.  0.
         23    2    5    5    0    0 -0.42192943401E+03  0.18060823991E+03  0.44935400083E+03  0.64898060047E+03  0.92806347390E+02 0.  0.
        -15    1    3    3    0    0  0.26623125152E+02  0.74770993832E+03 -0.64789336974E+03  0.98971953664E+03  0.00000000000E+00 0.  1.
        -15    1    6    6    0    0 -0.27389220332E+03  0.11003242320E+03  0.22534460266E+03  0.37135463258E+03  0.00000000000E+00 0.  1.
         15    1    4    4    0    0 -0.10225601342E+04 -0.37846626849E+03 -0.36552445280E+03  0.11499887261E+04  0.00000000000E+00 0. -1.
         15    1    6    6    0    0 -0.14803723069E+03  0.70575816719E+02  0.22400939817E+03  0.27762596789E+03  0.00000000000E+00 0. -1.
        -16    1    4    4    0    0 -0.10138249318E+04 -0.39869266842E+03 -0.45919255522E+03  0.11822244453E+04  0.00000000000E+00 0.  1.
         16    1    5    5    0    0  0.15341555293E+04 -0.11640174856E+04 -0.52694709124E+03  0.19965578208E+04  0.00000000000E+00 0. -1.
    9900018    1    1    2    0    0  0.89753584562E+03  0.10128582443E+04  0.21762347643E+04  0.25643255146E+04  0.91187600000E+02 0.  0.
<mgrwt>
<rscale>  0 0.85087977E+04</rscale>
<asrwt>0</asrwt>
<pdfrwt beam="1">  1        1 0.60813579E+00 0.85087977E+04</pdfrwt>
<pdfrwt beam="2">  1       -1 0.70444831E+00 0.85087977E+04</pdfrwt>
<totfact> 0.11681340E-05</totfact>
</mgrwt>
</event>
<event>
13    1  0.1076827E-009  0.7033476E+04  0.7818608E-02  0.7573993E-01
          1   -1    0    0  501    0  0.00000000000E+00  0.00000000000E+00  0.25805692264E+04  0.25805692264E+04  0.00000000000E+00 0. -1.
         -1   -1    0    0    0  501 -0.00000000000E+00 -0.00000000000E+00 -0.47925265728E+04  0.47925265728E+04  0.00000000000E+00 0.  1.
    9900016    2    1    2    0    0  0.71756312174E+03 -0.53135409882E+03 -0.36539780923E+04  0.43581749729E+04  0.22011131693E+04 0.  0.
        -24    2    3    3    0    0 -0.11092213162E+03 -0.13087803937E+03  0.27036798805E+03  0.32738583837E+03  0.68189865316E+02 0.  0.
    9900016    2    1    2    0    0 -0.80476028192E+03  0.42010860232E+03  0.10807708997E+04  0.26164292518E+04  0.22030673941E+04 0.  0.
         23    2    5    5    0    0 -0.39431435474E+03 -0.16616515064E+01 -0.66270017958E+03  0.77630767686E+03  0.89417614011E+02 0.  0.
        -15    1    3    3    0    0  0.82848525336E+03 -0.40047605946E+03 -0.39243460803E+04  0.40307891346E+04  0.00000000000E+00 0.  1.
        -15    1    6    6    0    0 -0.28461038969E+03  0.13616026986E+02 -0.39904956018E+03  0.49033562137E+03  0.00000000000E+00 0. -1.
         15    1    4    4    0    0 -0.46549318599E+02 -0.10172526617E+03  0.18889193128E+03  0.21953366608E+03  0.00000000000E+00 0. -1.
         15    1    6    6    0    0 -0.10970396506E+03 -0.15277678493E+02 -0.26365061940E+03  0.28597205549E+03  0.00000000000E+00 0.  1.
        -16    1    4    4    0    0 -0.64372813020E+02 -0.29152773196E+02  0.81476056770E+02  0.10785217229E+03  0.00000000000E+00 0.  1.
         16    1    5    5    0    0 -0.41044592717E+03  0.42177025382E+03  0.17434710793E+04  0.18401215749E+04  0.00000000000E+00 0. -1.
    9900018    1    1    2    0    0  0.87197160177E+02  0.11124549651E+03  0.36124984614E+03  0.39849157452E+03  0.91187600000E+02 0.  0.
<mgrwt>
<rscale>  0 0.70334761E+04</rscale>
<asrwt>0</asrwt>
<pdfrwt beam="1">  1        1 0.39701065E+00 0.70334761E+04</pdfrwt>
<pdfrwt beam="2">  1       -1 0.73731177E+00 0.70334761E+04</pdfrwt>
<totfact> 0.10852281E-04</totfact>
</mgrwt>
</event>
<event>
13    1  0.1076827E-009  0.6146805E+04  0.7818608E-02  0.7672462E-01
         -2   -1    0    0    0  501 -0.00000000000E+00  0.00000000000E+00  0.36237849184E+04  0.36237849184E+04  0.00000000000E+00 0.  1.
          2   -1    0    0  501    0  0.00000000000E+00 -0.00000000000E+00 -0.26066124940E+04  0.26066124940E+04  0.00000000000E+00 0. -1.
    9900016    2    1    2    0    0  0.49872304919E+03 -0.72040760340E+01  0.15760698268E+03  0.22737785352E+04  0.22127928704E+04 0.  0.
         24    2    3    3    0    0  0.50783149095E+02 -0.10845816136E+04  0.19280503501E+03  0.11064604913E+04  0.90470064300E+02 0.  0.
    9900016    2    1    2    0    0  0.54163237718E+02 -0.11237976859E+04  0.10126714828E+04  0.26851611037E+04  0.22178213918E+04 0.  0.
         23    2    5    5    0    0 -0.20679465627E+03  0.48788140151E+03 -0.27585585945E+03  0.60527860349E+03  0.97331602480E+02 0.  0.
        -15    1    6    6    0    0 -0.14384623268E+03  0.39087298865E+03 -0.17477037909E+03  0.45168364738E+03  0.00000000000E+00 0.  1.
        -15    1    4    4    0    0  0.35658165048E+02 -0.15476525541E+03  0.13500788102E+02  0.15939278621E+03  0.00000000000E+00 0.  1.
         15    1    3    3    0    0  0.44793990009E+03  0.10773775376E+04 -0.35198052336E+02  0.11673180438E+04  0.00000000000E+00 0. -1.
         15    1    6    6    0    0 -0.62948423587E+02  0.97008412869E+02 -0.10108548036E+03  0.15359495610E+03  0.00000000000E+00 0. -1.
        -16    1    5    5    0    0  0.26095789398E+03 -0.16116790874E+04  0.12885273422E+04  0.20798825002E+04  0.00000000000E+00 0.  1.
         16    1    4    4    0    0  0.15124984047E+02 -0.92981635820E+03  0.17930424691E+03  0.94706770512E+03  0.00000000000E+00 0. -1.
    9900018    1    1    2    0    0 -0.55288628690E+03  0.11310017619E+04 -0.15310604111E+03  0.12714577735E+04  0.91187600000E+02 0.  0.
<mgrwt>
<rscale>  0 0.61468050E+04</rscale>
<asrwt>0</asrwt>
<pdfrwt beam="1">  1        2 0.40101731E+00 0.61468050E+04</pdfrwt>
<pdfrwt beam="2">  1       -2 0.55750537E+00 0.61468050E+04</pdfrwt>
<totfact> 0.16020852E-03</totfact>
</mgrwt>
</event>
<event>
13    1  0.1076827E-009  0.5889055E+04  0.7818608E-02  0.7704312E-01
          2   -1    0    0  501    0  0.00000000000E+00  0.00000000000E+00  0.31471737860E+04  0.31471737860E+04  0.00000000000E+00 0. -1.
         -2   -1    0    0    0  501 -0.00000000000E+00 -0.00000000000E+00 -0.27549293809E+04  0.27549293809E+04  0.00000000000E+00 0.  1.
    9900016    2    1    2    0    0 -0.99140400527E+02 -0.96467163699E+03 -0.65978064699E+03  0.24959705761E+04  0.22032109359E+04 0.  0.
         24    2    3    3    0    0  0.19298510327E+03  0.33643412454E+03  0.56017064443E+03  0.68862593099E+03  0.99916723877E+02 0.  0.
    9900016    2    1    2    0    0  0.80694743590E+03  0.91982852737E+03  0.87555500553E+03  0.26696147299E+04  0.22052205228E+04 0.  0.
         23    2    5    5    0    0 -0.46121550468E+03  0.95153722956E+03 -0.10493700055E+03  0.10663033878E+04  0.88590630102E+02 0.  0.
        -15    1    4    4    0    0  0.45227203541E+01  0.82655500788E+02  0.14284491094E+03  0.16509710898E+03  0.00000000000E+00 0.  1.
        -15    1    6    6    0    0 -0.43556292000E+03  0.93165821030E+03 -0.10551269325E+03  0.10338447691E+04  0.00000000000E+00 0.  1.
         15    1    3    3    0    0 -0.29212550380E+03 -0.13011057615E+04 -0.12199512914E+04  0.18073446451E+04  0.00000000000E+00 0. -1.
         15    1    6    6    0    0 -0.25652584677E+02  0.19879019265E+02  0.57569270088E+00  0.32458618727E+02  0.00000000000E+00 0. -1.
        -16    1    5    5    0    0  0.12681629406E+04 -0.31708702194E+02  0.98049200608E+03  0.16033113421E+04  0.00000000000E+00 0.  1.
         16    1    4    4    0    0  0.18846238292E+03  0.25377862375E+03  0.41732573349E+03  0.52352882201E+03  0.00000000000E+00 0. -1.
    9900018    1    1    2    0    0 -0.70780703537E+03  0.44843109624E+02  0.17647004650E+03  0.73651786096E+03  0.91187600000E+02 0.  0.
<mgrwt>
<rscale>  0 0.58890548E+04</rscale>
<asrwt>0</asrwt>
<pdfrwt beam="1">  1        2 0.48418058E+00 0.58890548E+04</pdfrwt>
<pdfrwt beam="2">  1       -2 0.42383529E+00 0.58890548E+04</pdfrwt>
<totfact> 0.49359086E-03</totfact>
</mgrwt>
</event>
<event>
13    1  0.1076827E-009  0.7119147E+04  0.7818608E-02  0.7565271E-01
          2   -1    0    0  501    0  0.00000000000E+00  0.00000000000E+00  0.47292820056E+04  0.47292820056E+04  0.00000000000E+00 0. -1.
         -2   -1    0    0    0  501 -0.00000000000E+00 -0.00000000000E+00 -0.26791730360E+04  0.26791730360E+04  0.00000000000E+00 0.  1.
    9900016    2    1    2    0    0 -0.62911430418E+03  0.16510687559E+04 -0.10543115632E+04  0.30153776512E+04  0.22043404145E+04 0.  0.
        -24    2    3    3    0    0 -0.12306339061E+04  0.64084496279E+03  0.66848057845E+02  0.13907617460E+04  0.67878526577E+02 0.  0.
    9900016    2    1    2    0    0  0.41213278732E+03 -0.11482520222E+04  0.22732724381E+04  0.33935635185E+04  0.22045792422E+04 0.  0.
         23    2    5    5    0    0  0.57594923290E+02 -0.22479811825E+03 -0.43956031177E+03  0.50601685418E+03  0.94807277516E+02 0.  0.
        -15    1    6    6    0    0  0.60048657423E+02 -0.15721099658E+03 -0.22450275548E+03  0.28057552624E+03  0.00000000000E+00 0.  1.
        -15    1    3    3    0    0  0.60151960188E+03  0.10102237931E+04 -0.11211596210E+04  0.16246159052E+04  0.00000000000E+00 0.  1.
         15    1    6    6    0    0 -0.24537341332E+01 -0.67587121671E+02 -0.21505755629E+03  0.22544132794E+03  0.00000000000E+00 0. -1.
         15    1    4    4    0    0 -0.57932450590E+02  0.28640758058E+02 -0.11148849457E+02  0.65580170004E+02  0.00000000000E+00 0. -1.
        -16    1    4    4    0    0 -0.11727014555E+04  0.61220420473E+03  0.77996907302E+02  0.13251815760E+04  0.00000000000E+00 0.  1.
         16    1    5    5    0    0  0.35453786403E+03 -0.92345390390E+03  0.27128327499E+04  0.28875466643E+04  0.00000000000E+00 0. -1.
    9900018    1    1    2    0    0  0.21698151685E+03 -0.50281673372E+03  0.83114809471E+03  0.99951387188E+03  0.91187600000E+02 0.  0.
<mgrwt>
<rscale>  0 0.71191474E+04</rscale>
<asrwt>0</asrwt>
<pdfrwt beam="1">  1        2 0.72758184E+00 0.71191474E+04</pdfrwt>
<pdfrwt beam="2">  1       -2 0.41218047E+00 0.71191474E+04</pdfrwt>
<totfact> 0.26802766E-04</totfact>
</mgrwt>
</event>
<event>
13    1  0.1076827E-009  0.5245112E+04  0.7818608E-02  0.7791770E-01
          1   -1    0    0  501    0  0.00000000000E+00  0.00000000000E+00  0.36078411490E+04  0.36078411490E+04  0.00000000000E+00 0. -1.
         -1   -1    0    0    0  501 -0.00000000000E+00 -0.00000000000E+00 -0.19063475384E+04  0.19063475384E+04  0.00000000000E+00 0.  1.
    9900016    2    1    2    0    0  0.91597888854E+03 -0.19183068350E+02  0.76423897887E+03  0.24986507850E+04  0.21954063893E+04 0.  0.
         24    2    3    3    0    0 -0.57214144859E+03  0.19502801250E+03  0.78470119921E+03  0.99505269133E+03  0.94826808605E+02 0.  0.
    9900016    2    1    2    0    0 -0.93917591789E+03  0.28772093504E+03  0.11438696178E+04  0.26638908934E+04  0.21961425838E+04 0.  0.
         23    2    5    5    0    0 -0.32640445475E+03 -0.13261942204E+03  0.16982918619E+04  0.17367668961E+04  0.89644988147E+02 0.  0.
        -15    1    6    6    0    0 -0.21907320617E+03 -0.47652480416E+02  0.95387102552E+03  0.97986415481E+03  0.00000000000E+00 0. -1.
        -15    1    4    4    0    0 -0.48740511661E+03  0.18203220857E+03  0.62004616068E+03  0.80941751527E+03  0.00000000000E+00 0.  1.
         15    1    6    6    0    0 -0.10733124858E+03 -0.84966941628E+02  0.74442083636E+03  0.75690274124E+03  0.00000000000E+00 0.  1.
         15    1    3    3    0    0  0.14881203371E+04 -0.21421108085E+03 -0.20462220337E+02  0.15035980937E+04  0.00000000000E+00 0. -1.
        -16    1    5    5    0    0 -0.61277146314E+03  0.42034035708E+03 -0.55442224406E+03  0.92712399739E+03  0.00000000000E+00 0.  1.
         16    1    4    4    0    0 -0.84736331978E+02  0.12995803930E+02  0.16465503853E+03  0.18563517606E+03  0.00000000000E+00 0. -1.
    9900018    1    1    2    0    0  0.23197029349E+02 -0.26853786669E+03 -0.20661498613E+03  0.35164700895E+03  0.91187600000E+02 0.  0.
<mgrwt>
<rscale>  0 0.52451117E+04</rscale>
<asrwt>0</asrwt>
<pdfrwt beam="1">  1        1 0.55505248E+00 0.52451117E+04</pdfrwt>
<pdfrwt beam="2">  1       -1 0.29328424E+00 0.52451117E+04</pdfrwt>
<totfact> 0.52924107E-03</totfact>
</mgrwt>
</event>
<event>
12    1  0.1076827E-009  0.5436387E+04  0.7818608E-02  0.7764503E-01
          2   -1    0    0  501    0  0.00000000000E+00  0.00000000000E+00  0.43777249176E+04  0.43777249176E+04  0.00000000000E+00 0. -1.
         -2   -1    0    0    0  501 -0.00000000000E+00 -0.00000000000E+00 -0.16877663491E+04  0.16877663491E+04  0.00000000000E+00 0.  1.
    9900016    2    1    2    0    0  0.47834925662E+03 -0.52471559276E+03  0.23043483155E+04  0.32499735451E+04  0.21790278613E+04 0.  0.
    9900016    2    1    2    0    0 -0.10484250171E+03  0.40331122849E+03  0.65205182398E+03  0.23322449159E+04  0.22001233759E+04 0.  0.
         23    2    4    4    0    0 -0.40286879165E+03 -0.38103226613E+02  0.13739647208E+04  0.14351247337E+04  0.89715262328E+02 0.  0.
        -15    1    5    5    0    0 -0.26622953262E+03 -0.27985869941E+02  0.10455381145E+04  0.10792642502E+04  0.00000000000E+00 0.  1.
        -15    1    3    3    0    0 -0.33163179872E+03 -0.59019761848E+03  0.16992755624E+03  0.69798871993E+03  0.00000000000E+00 0.  1.
         15    1    3    3    0    0  0.95389109862E+03  0.28511360963E+03  0.20452159302E+04  0.22746661732E+04  0.00000000000E+00 0. -1.
         15    1    5    5    0    0 -0.13663925903E+03 -0.10117356672E+02  0.32842660629E+03  0.35586048352E+03  0.00000000000E+00 0. -1.
        -16    1    4    4    0    0  0.29802628994E+03  0.44141445510E+03 -0.72191289677E+03  0.89712018213E+03  0.00000000000E+00 0.  1.
         16    1    3    3    0    0 -0.14391004328E+03 -0.21963158390E+03  0.89204829080E+02  0.27731865198E+03  0.00000000000E+00 0. -1.
    9900018    1    1    2    0    0 -0.37350675491E+03  0.12140436427E+03 -0.26644157103E+03  0.48327280577E+03  0.91187600000E+02 0.  0.
<mgrwt>
<rscale>  0 0.54363873E+04</rscale>
<asrwt>0</asrwt>
<pdfrwt beam="1">  1        2 0.67349614E+00 0.54363873E+04</pdfrwt>
<pdfrwt beam="2">  1       -2 0.25965636E+00 0.54363873E+04</pdfrwt>
<totfact> 0.62918640E-03</totfact>
</mgrwt>
</event>
<event>
12    1  0.1076827E-009  0.5958546E+04  0.7818608E-02  0.7695563E-01
         -2   -1    0    0    0  501 -0.00000000000E+00  0.00000000000E+00  0.32359287153E+04  0.32359287153E+04  0.00000000000E+00 0.  1.
          2   -1    0    0  501    0  0.00000000000E+00 -0.00000000000E+00 -0.27429738365E+04  0.27429738365E+04  0.00000000000E+00 0. -1.
    9900016    2    1    2    0    0  0.67710376650E+03 -0.17626943939E+03  0.29468957156E+02  0.23044234078E+04  0.21954403651E+04 0.  0.
    9900016    2    1    2    0    0 -0.16587050428E+03  0.24179096429E+03  0.13821505888E+04  0.26171653460E+04  0.22030066508E+04 0.  0.
         23    2    4    4    0    0 -0.31857194998E+03 -0.15430971987E+03 -0.53811761773E+03  0.65053282604E+03  0.91229437591E+02 0.  0.
        -15    1    3    3    0    0  0.36488088326E+03  0.68321259886E+01  0.49416227072E+02  0.36827530519E+03  0.00000000000E+00 0.  1.
        -15    1    5    5    0    0 -0.11423955122E+03 -0.20747695531E+02 -0.12440495861E+03  0.17016972603E+03  0.00000000000E+00 0. -1.
         15    1    5    5    0    0 -0.20433239876E+03 -0.13356202434E+03 -0.41371265912E+03  0.48036310001E+03  0.00000000000E+00 0.  1.
         15    1    3    3    0    0 -0.78345289607E+03 -0.16092912483E+03 -0.20274443715E+03  0.82510722356E+03  0.00000000000E+00 0. -1.
        -16    1    4    4    0    0  0.15270144570E+03  0.39610068416E+03  0.19202682065E+04  0.19666325200E+04  0.00000000000E+00 0.  1.
         16    1    3    3    0    0  0.10956757793E+04 -0.22172440540E+02  0.18279716724E+03  0.11110408790E+04  0.00000000000E+00 0. -1.
    9900018    1    1    2    0    0 -0.51123326221E+03 -0.65521524906E+02 -0.91866466715E+03  0.10573137981E+04  0.91187600000E+02 0.  0.
<mgrwt>
<rscale>  0 0.59585461E+04</rscale>
<asrwt>0</asrwt>
<pdfrwt beam="1">  1        2 0.42199598E+00 0.59585461E+04</pdfrwt>
<pdfrwt beam="2">  1       -2 0.49783519E+00 0.59585461E+04</pdfrwt>
<totfact> 0.29071514E-03</totfact>
</mgrwt>
</event>
<event>
13    1  0.1076827E-009  0.5933999E+04  0.7818608E-02  0.7698639E-01
         -2   -1    0    0    0  501 -0.00000000000E+00  0.00000000000E+00  0.44376969171E+04  0.44376969171E+04  0.00000000000E+00 0.  1.
          2   -1    0    0  501    0  0.00000000000E+00 -0.00000000000E+00 -0.19837057253E+04  0.19837057253E+04  0.00000000000E+00 0. -1.
    9900016    2    1    2    0    0  0.92338995229E+03  0.18230858775E+03  0.20407991026E+04  0.31441213037E+04  0.21988070333E+04 0.  0.
        -24    2    3    3    0    0 -0.48858994449E+03 -0.11591205934E+03 -0.14315776805E+03  0.52643331688E+03  0.66948870189E+02 0.  0.
    9900016    2    1    2    0    0 -0.14123319732E+03  0.42103171823E+03  0.28927334256E+03  0.22775515011E+04  0.22150275957E+04 0.  0.
         23    2    5    5    0    0  0.13784688811E+03 -0.30190213395E+03  0.11019563456E+04  0.11546210882E+04  0.93249165276E+02 0.  0.
        -15    1    3    3    0    0  0.14119798968E+04  0.29822064709E+03  0.21839568707E+04  0.26176879868E+04  0.00000000000E+00 0.  1.
        -15    1    6    6    0    0  0.10451549753E+03 -0.16183387556E+03  0.50372535116E+03  0.53930781740E+03  0.00000000000E+00 0. -1.
         15    1    6    6    0    0  0.33331390582E+02 -0.14006825839E+03  0.59823099441E+03  0.61531327084E+03  0.00000000000E+00 0.  1.
         15    1    4    4    0    0 -0.11087207202E+03 -0.66608519851E+01 -0.10990887765E+02  0.11161443865E+03  0.00000000000E+00 0. -1.
        -16    1    4    4    0    0 -0.37771787247E+03 -0.10925120735E+03 -0.13216688028E+03  0.41481887823E+03  0.00000000000E+00 0.  1.
         16    1    5    5    0    0 -0.27908008544E+03  0.72293385218E+03 -0.81268300301E+03  0.11229304128E+04  0.00000000000E+00 0. -1.
    9900018    1    1    2    0    0 -0.78215675497E+03 -0.60334030598E+03  0.12391874671E+03  0.99972983768E+03  0.91187600000E+02 0.  0.
<mgrwt>
<rscale>  0 0.59339986E+04</rscale>
<asrwt>0</asrwt>
<pdfrwt beam="1">  1        2 0.30518550E+00 0.59339986E+04</pdfrwt>
<pdfrwt beam="2">  1       -2 0.68272260E+00 0.59339986E+04</pdfrwt>
<totfact> 0.12282863E-03</totfact>
</mgrwt>
</event>
<event>
12    1  0.1076827E-009  0.5175584E+04  0.7818608E-02  0.7801978E-01
          1   -1    0    0  501    0  0.00000000000E+00  0.00000000000E+00  0.32632190346E+04  0.32632190346E+04  0.00000000000E+00 0. -1.
         -1   -1    0    0    0  501 -0.00000000000E+00 -0.00000000000E+00 -0.20521661552E+04  0.20521661552E+04  0.00000000000E+00 0.  1.
    9900016    2    1    2    0    0 -0.67452638788E+03  0.47775230047E+03  0.14668850124E+04  0.27800180799E+04  0.22121292404E+04 0.  0.
    9900016    2    1    2    0    0  0.63760785244E+03 -0.37763716092E+03 -0.68630736867E+02  0.23013894175E+04  0.21777349413E+04 0.  0.
         23    2    4    4    0    0  0.36486677680E+03 -0.46273083957E+03 -0.10890879912E+04  0.12416905752E+04  0.91843547972E+02 0.  0.
        -15    1    5    5    0    0  0.24153585037E+02 -0.60915742356E+02 -0.17193660401E+03  0.18400086722E+03  0.00000000000E+00 0.  1.
        -15    1    3    3    0    0 -0.32294963992E+03 -0.74707598979E+03 -0.29639957540E+02  0.81443080217E+03  0.00000000000E+00 0.  1.
         15    1    5    5    0    0  0.34071319176E+03 -0.40181509721E+03 -0.91715138719E+03  0.10576897080E+04  0.00000000000E+00 0. -1.
         15    1    3    3    0    0 -0.10979833235E+03  0.39560517048E+03  0.47587705186E+03  0.62850464850E+03  0.00000000000E+00 0. -1.
        -16    1    3    3    0    0 -0.24177841562E+03  0.82922311978E+03  0.10206479181E+04  0.13370826292E+04  0.00000000000E+00 0.  1.
         16    1    4    4    0    0  0.27274107564E+03  0.85093678652E+02  0.10204572543E+04  0.10596988423E+04  0.00000000000E+00 0. -1.
    9900018    1    1    2    0    0  0.36918535446E+02 -0.10011513956E+03 -0.18720139618E+03  0.23397769243E+03  0.91187600000E+02 0.  0.
<mgrwt>
<rscale>  0 0.51755841E+04</rscale>
<asrwt>0</asrwt>
<pdfrwt beam="1">  1        1 0.50203370E+00 0.51755841E+04</pdfrwt>
<pdfrwt beam="2">  1       -1 0.31571787E+00 0.51755841E+04</pdfrwt>
<totfact> 0.70750300E-03</totfact>
</mgrwt>
</event>
<event>
13    1  0.1076827E-009  0.5668749E+04  0.7818608E-02  0.7732887E-01
          2   -1    0    0  501    0  0.00000000000E+00  0.00000000000E+00  0.28618373660E+04  0.28618373660E+04  0.00000000000E+00 0. -1.
         -2   -1    0    0    0  501 -0.00000000000E+00 -0.00000000000E+00 -0.28071753579E+04  0.28071753579E+04  0.00000000000E+00 0.  1.
    9900016    2    1    2    0    0  0.22655670289E+03 -0.94729044317E+03  0.88372194972E+03  0.25653552360E+04  0.22025884497E+04 0.  0.
        -24    2    3    3    0    0  0.11889098291E+03 -0.13131441689E+04  0.13982201568E+04  0.19249262696E+04  0.10880653692E+03 0.  0.
    9900016    2    1    2    0    0  0.14518321192E+03  0.11391860650E+04 -0.47033367580E+03  0.25450751697E+04  0.22220195313E+04 0.  0.
         23    2    5    5    0    0 -0.39090737891E+03 -0.34015478223E+03 -0.78042693806E+03  0.94132946201E+03  0.92309780865E+02 0.  0.
        -15    1    3    3    0    0  0.10766571998E+03  0.36585372569E+03 -0.51449820709E+03  0.64042896636E+03  0.00000000000E+00 0.  1.
        -15    1    6    6    0    0 -0.94976310255E+02 -0.38207002337E+02 -0.17821680038E+03  0.20552737646E+03  0.00000000000E+00 0. -1.
         15    1    4    4    0    0  0.15427609322E+02 -0.47409535791E+03  0.43882800637E+03  0.64619999899E+03  0.00000000000E+00 0. -1.
         15    1    6    6    0    0 -0.29593106866E+03 -0.30194777989E+03 -0.60221013767E+03  0.73580208554E+03  0.00000000000E+00 0.  1.
        -16    1    4    4    0    0  0.10346337359E+03 -0.83904881094E+03  0.95939215044E+03  0.12787262706E+04  0.00000000000E+00 0.  1.
         16    1    5    5    0    0  0.53609059084E+03  0.14793408472E+04  0.31009326225E+03  0.16037457077E+04  0.00000000000E+00 0. -1.
    9900018    1    1    2    0    0 -0.37173991481E+03 -0.19189562179E+03 -0.35872626582E+03  0.55858231811E+03  0.91187600000E+02 0.  0.
<mgrwt>
<rscale>  0 0.56687492E+04</rscale>
<asrwt>0</asrwt>
<pdfrwt beam="1">  1        2 0.44028267E+00 0.56687492E+04</pdfrwt>
<pdfrwt beam="2">  1       -2 0.43187313E+00 0.56687492E+04</pdfrwt>
<totfact> 0.67175945E-03</totfact>
</mgrwt>
</event>
<event>
13    1  0.1076827E-009  0.5860600E+04  0.7818608E-02  0.7707930E-01
          1   -1    0    0  501    0  0.00000000000E+00  0.00000000000E+00  0.29711322158E+04  0.29711322158E+04  0.00000000000E+00 0. -1.
         -1   -1    0    0    0  501 -0.00000000000E+00 -0.00000000000E+00 -0.28900286020E+04  0.28900286020E+04  0.00000000000E+00 0.  1.
    9900016    2    1    2    0    0 -0.99398684973E+03  0.29893391000E+03  0.18999033084E+03  0.24391037660E+04  0.21990360423E+04 0.  0.
         24    2    3    3    0    0 -0.55458378207E+03 -0.51002240584E+03 -0.78927908720E+03  0.10950598791E+04  0.92242265126E+02 0.  0.
    9900016    2    1    2    0    0  0.39885972145E+03 -0.69619883004E+03 -0.74914174558E+03  0.24575688997E+04  0.21987836759E+04 0.  0.
         23    2    5    5    0    0  0.68739819422E+01  0.27572591504E+03  0.64865173046E+03  0.71053795209E+03  0.89683231844E+02 0.  0.
        -15    1    4    4    0    0 -0.99581748534E+02 -0.47766001163E+02 -0.11681530612E+03  0.16076047789E+03  0.00000000000E+00 0.  1.
        -15    1    6    6    0    0 -0.39015729241E+02  0.15243110366E+03  0.38416261785E+03  0.41513658650E+03  0.00000000000E+00 0.  1.
         15    1    3    3    0    0 -0.43940306765E+03  0.80895631585E+03  0.97926941804E+03  0.13440438869E+04  0.00000000000E+00 0. -1.
         15    1    6    6    0    0  0.45889711183E+02  0.12329481138E+03  0.26448911261E+03  0.29540136559E+03  0.00000000000E+00 0. -1.
        -16    1    5    5    0    0  0.39198573951E+03 -0.97192474508E+03 -0.13977934760E+04  0.17470309476E+04  0.00000000000E+00 0.  1.
         16    1    4    4    0    0 -0.45500203354E+03 -0.46225640468E+03 -0.67246378108E+03  0.93429940119E+03  0.00000000000E+00 0. -1.
    9900018    1    1    2    0    0  0.59512712827E+03  0.39726492004E+03  0.64025502856E+03  0.96448815207E+03  0.91187600000E+02 0.  0.
<mgrwt>
<rscale>  0 0.58605997E+04</rscale>
<asrwt>0</asrwt>
<pdfrwt beam="1">  1        1 0.45709726E+00 0.58605997E+04</pdfrwt>
<pdfrwt beam="2">  1       -1 0.44461978E+00 0.58605997E+04</pdfrwt>
<totfact> 0.14979507E-03</totfact>
</mgrwt>
</event>
<event>
12    1  0.1076827E-009  0.5544390E+04  0.7818608E-02  0.7749610E-01
          2   -1    0    0  501    0  0.00000000000E+00  0.00000000000E+00  0.34622146094E+04  0.34622146094E+04  0.00000000000E+00 0. -1.
         -2   -1    0    0    0  501 -0.00000000000E+00 -0.00000000000E+00 -0.22196964003E+04  0.22196964003E+04  0.00000000000E+00 0.  1.
    9900016    2    1    2    0    0  0.68339486286E+03 -0.64508438148E+03  0.97716589084E+03  0.25844641253E+04  0.22003270754E+04 0.  0.
    9900016    2    1    2    0    0 -0.72939261196E+03  0.55347015603E+02  0.63321593301E+03  0.23949194678E+04  0.21907989330E+04 0.  0.
         23    2    4    4    0    0  0.13712447265E+03 -0.31036094185E+03  0.12312036297E+04  0.12803866269E+04  0.91654249506E+02 0.  0.
        -15    1    3    3    0    0  0.27971815346E+03  0.15887328491E+03  0.80002175274E+02  0.33148652172E+03  0.00000000000E+00 0.  1.
        -15    1    5    5    0    0  0.66128178281E+02 -0.22358085648E+03  0.71157603391E+03  0.74880023196E+03  0.00000000000E+00 0. -1.
         15    1    3    3    0    0 -0.24651234060E+03 -0.12427663468E+04  0.68538388320E+03  0.14404817229E+04  0.00000000000E+00 0. -1.
         15    1    5    5    0    0  0.70996294370E+02 -0.86780085375E+02  0.51962759574E+03  0.53158639494E+03  0.00000000000E+00 0.  1.
        -16    1    4    4    0    0 -0.86651708461E+03  0.36570795745E+03 -0.59798769664E+03  0.11145328409E+04  0.00000000000E+00 0.  1.
         16    1    3    3    0    0  0.65018905000E+03  0.43880868036E+03  0.21177983237E+03  0.81249588066E+03  0.00000000000E+00 0. -1.
    9900018    1    1    2    0    0  0.45997749104E+02  0.58973736588E+03 -0.36786361470E+03  0.70252741658E+03  0.91187600000E+02 0.  0.
<mgrwt>
<rscale>  0 0.55443901E+04</rscale>
<asrwt>0</asrwt>
<pdfrwt beam="1">  1        2 0.53264840E+00 0.55443901E+04</pdfrwt>
<pdfrwt beam="2">  1       -2 0.34149175E+00 0.55443901E+04</pdfrwt>
<totfact> 0.10581586E-02</totfact>
</mgrwt>
</event>
<event>
13    1  0.1076827E-009  0.6338130E+04  0.7818608E-02  0.7649835E-01
          2   -1    0    0  501    0  0.00000000000E+00  0.00000000000E+00  0.22039739106E+04  0.22039739106E+04  0.00000000000E+00 0. -1.
         -2   -1    0    0    0  501 -0.00000000000E+00 -0.00000000000E+00 -0.45567570133E+04  0.45567570133E+04  0.00000000000E+00 0.  1.
    9900016    2    1    2    0    0  0.11603667810E+04 -0.96382478139E+03 -0.23377893226E+04  0.35499001004E+04  0.22047953487E+04 0.  0.
         24    2    3    3    0    0  0.44376518136E+03 -0.39988153512E+03 -0.25449675582E+04  0.26147676718E+04  0.57596241399E+02 0.  0.
    9900016    2    1    2    0    0 -0.80272018876E+03  0.41180972323E+03 -0.44340293553E+03  0.24205895362E+04  0.22019765189E+04 0.  0.
         23    2    5    5    0    0 -0.30301120837E+03  0.33911891651E+03  0.88513771141E+03  0.99931782781E+03  0.91377901561E+02 0.  0.
        -15    1    4    4    0    0  0.23171833991E+03 -0.22935959579E+03 -0.12806757499E+04  0.13215254782E+04  0.00000000000E+00 0.  1.
        -15    1    6    6    0    0 -0.67629790109E+02  0.33529049211E+02  0.18785184806E+03  0.20245074085E+03  0.00000000000E+00 0. -1.
         15    1    6    6    0    0 -0.23538141826E+03  0.30558986730E+03  0.69728586335E+03  0.79686708696E+03  0.00000000000E+00 0.  1.
         15    1    3    3    0    0  0.71660159966E+03 -0.56394324627E+03  0.20717823555E+03  0.93513242855E+03  0.00000000000E+00 0. -1.
        -16    1    5    5    0    0 -0.49970898039E+03  0.72690806719E+02 -0.13285406469E+04  0.14212717084E+04  0.00000000000E+00 0.  1.
         16    1    4    4    0    0  0.21204684144E+03 -0.17052193934E+03 -0.12642918083E+04  0.12932421936E+04  0.00000000000E+00 0. -1.
    9900018    1    1    2    0    0 -0.35764659226E+03  0.55201505817E+03  0.42840915542E+03  0.79024128735E+03  0.91187600000E+02 0.  0.
<mgrwt>
<rscale>  0 0.63381302E+04</rscale>
<asrwt>0</asrwt>
<pdfrwt beam="1">  1        2 0.33907291E+00 0.63381302E+04</pdfrwt>
<pdfrwt beam="2">  1       -2 0.70103954E+00 0.63381302E+04</pdfrwt>
<totfact> 0.77588424E-04</totfact>
</mgrwt>
</event>
<event>
13    1  0.1076827E-009  0.5470530E+04  0.7818608E-02  0.7759757E-01
         -2   -1    0    0    0  501 -0.00000000000E+00  0.00000000000E+00  0.20736044607E+04  0.20736044607E+04  0.00000000000E+00 0.  1.
          2   -1    0    0  501    0  0.00000000000E+00 -0.00000000000E+00 -0.36080525976E+04  0.36080525976E+04  0.00000000000E+00 0. -1.
    9900016    2    1    2    0    0 -0.99095846955E+02 -0.11108500598E+04 -0.10562808916E+04  0.26814832640E+04  0.21979115839E+04 0.  0.
         24    2    3    3    0    0 -0.99662042262E+03 -0.47464477600E+03  0.64777788908E+02  0.11107891206E+04  0.10543423672E+03 0.  0.
    9900016    2    1    2    0    0  0.45071096394E+03  0.65845259939E+03 -0.17330784933E+03  0.23447723278E+04  0.21980039718E+04 0.  0.
         23    2    5    5    0    0 -0.26312059236E+03 -0.31494607858E+03  0.72652535715E+03  0.83919593439E+03  0.89371377796E+02 0.  0.
        -15    1    4    4    0    0 -0.50624076111E+03 -0.23798804924E+03  0.85549106466E+02  0.56589457447E+03  0.00000000000E+00 0.  1.
        -15    1    6    6    0    0 -0.20485171466E+03 -0.28929229910E+03  0.58513109777E+03  0.68412912589E+03  0.00000000000E+00 0.  1.
         15    1    6    6    0    0 -0.58268877706E+02 -0.25653779481E+02  0.14139425938E+03  0.15506680850E+03  0.00000000000E+00 0. -1.
         15    1    3    3    0    0  0.89752457566E+03 -0.63620528375E+03 -0.11210586805E+04  0.15706941434E+04  0.00000000000E+00 0. -1.
        -16    1    5    5    0    0  0.71383155630E+03  0.97339867797E+03 -0.89983320648E+03  0.15055763935E+04  0.00000000000E+00 0.  1.
         16    1    4    4    0    0 -0.49037966151E+03 -0.23665672676E+03 -0.20771317557E+02  0.54489454610E+03  0.00000000000E+00 0. -1.
    9900018    1    1    2    0    0 -0.35161511699E+03  0.45239746036E+03 -0.30485939594E+03  0.65540146652E+03  0.91187600000E+02 0.  0.
<mgrwt>
<rscale>  0 0.54705298E+04</rscale>
<asrwt>0</asrwt>
<pdfrwt beam="1">  1        2 0.55508501E+00 0.54705298E+04</pdfrwt>
<pdfrwt beam="2">  1       -2 0.31901607E+00 0.54705298E+04</pdfrwt>
<totfact> 0.11573044E-02</totfact>
</mgrwt>
</event>
<event>
12    1  0.1076827E-009  0.6009888E+04  0.7818608E-02  0.7689177E-01
         -1   -1    0    0    0  501 -0.00000000000E+00  0.00000000000E+00  0.48291672160E+04  0.48291672160E+04  0.00000000000E+00 0.  1.
          1   -1    0    0  501    0  0.00000000000E+00 -0.00000000000E+00 -0.18698233848E+04  0.18698233848E+04  0.00000000000E+00 0. -1.
    9900016    2    1    2    0    0 -0.89120256272E+03  0.88261418018E+03  0.27171496342E+04  0.37064159008E+04  0.21866336905E+04 0.  0.
    9900016    2    1    2    0    0  0.44045212362E+03 -0.35541387437E+03  0.27359312619E+03  0.22922767691E+04  0.22043961741E+04 0.  0.
         23    2    4    4    0    0 -0.31355321842E+03 -0.40873179739E+03 -0.81400538465E+03  0.96780050377E+03  0.93036261154E+02 0.  0.
        -15    1    3    3    0    0 -0.13406453825E+04  0.89115034559E+03  0.27856541916E+04  0.32173511240E+04  0.00000000000E+00 0.  1.
        -15    1    5    5    0    0 -0.78879988088E+02 -0.10782400561E+03 -0.14170945336E+03  0.19475532824E+03  0.00000000000E+00 0.  1.
         15    1    5    5    0    0 -0.23467323033E+03 -0.30090779178E+03 -0.67229593129E+03  0.77304517553E+03  0.00000000000E+00 0. -1.
         15    1    3    3    0    0  0.38881310443E+03 -0.50364295232E+02 -0.54430054263E+01  0.39209924601E+03  0.00000000000E+00 0. -1.
        -16    1    3    3    0    0  0.60629715316E+02  0.41828129820E+02 -0.63061552000E+02  0.96965530804E+02  0.00000000000E+00 0.  1.
         16    1    4    4    0    0  0.75400534204E+03  0.53317923021E+02  0.10875985108E+04  0.13244762654E+04  0.00000000000E+00 0. -1.
    9900018    1    1    2    0    0  0.45075043909E+03 -0.52720030581E+03 -0.31398929147E+02  0.70029793084E+03  0.91187600000E+02 0.  0.
<mgrwt>
<rscale>  0 0.60098884E+04</rscale>
<asrwt>0</asrwt>
<pdfrwt beam="1">  1        1 0.28766514E+00 0.60098884E+04</pdfrwt>
<pdfrwt beam="2">  1       -1 0.74294880E+00 0.60098884E+04</pdfrwt>
<totfact> 0.33777046E-04</totfact>
</mgrwt>
</event>
<event>
12    1  0.1076827E-009  0.6029187E+04  0.7818608E-02  0.7686793E-01
          2   -1    0    0  501    0  0.00000000000E+00  0.00000000000E+00  0.45548745631E+04  0.45548745631E+04  0.00000000000E+00 0. -1.
         -2   -1    0    0    0  501 -0.00000000000E+00 -0.00000000000E+00 -0.19951757828E+04  0.19951757828E+04  0.00000000000E+00 0.  1.
    9900016    2    1    2    0    0 -0.75643809138E+03  0.31670990963E+03  0.24015941741E+04  0.33652839228E+04  0.22101985321E+04 0.  0.
    9900016    2    1    2    0    0  0.35342497864E+03 -0.32990342132E+03  0.82825201656E+03  0.23973615921E+04  0.21971790363E+04 0.  0.
         23    2    4    4    0    0  0.30974288768E+03 -0.26746127141E+03  0.15835808438E+04  0.16381983788E+04  0.92138219108E+02 0.  0.
        -15    1    5    5    0    0  0.14948930734E+03 -0.18687884560E+03  0.95464347157E+03  0.98418235798E+03  0.00000000000E+00 0.  1.
        -15    1    3    3    0    0  0.24408235365E+02  0.12484838414E+03  0.25322264237E+03  0.28338064081E+03  0.00000000000E+00 0.  1.
         15    1    3    3    0    0 -0.71726171856E+03 -0.83579032129E+03  0.70049056952E+03  0.13052573969E+04  0.00000000000E+00 0. -1.
         15    1    5    5    0    0  0.16025358034E+03 -0.80582425805E+02  0.62893737220E+03  0.65401602084E+03  0.00000000000E+00 0. -1.
        -16    1    4    4    0    0  0.43682090960E+02 -0.62442149913E+02 -0.75532882722E+03  0.75916321327E+03  0.00000000000E+00 0.  1.
         16    1    3    3    0    0 -0.63584608181E+02  0.10276518468E+04  0.14478809622E+04  0.17766458852E+04  0.00000000000E+00 0. -1.
    9900018    1    1    2    0    0  0.40301311274E+03  0.13193511690E+02 -0.67014741039E+03  0.78740483097E+03  0.91187600000E+02 0.  0.
<mgrwt>
<rscale>  0 0.60291875E+04</rscale>
<asrwt>0</asrwt>
<pdfrwt beam="1">  1        2 0.70074993E+00 0.60291875E+04</pdfrwt>
<pdfrwt beam="2">  1       -2 0.30695012E+00 0.60291875E+04</pdfrwt>
<totfact> 0.20744949E-03</totfact>
</mgrwt>
</event>
<event>
13    1  0.1076827E-009  0.7334800E+04  0.7818608E-02  0.7543859E-01
          2   -1    0    0  501    0  0.00000000000E+00  0.00000000000E+00  0.26770647642E+04  0.26770647642E+04  0.00000000000E+00 0. -1.
         -2   -1    0    0    0  501 -0.00000000000E+00 -0.00000000000E+00 -0.50240935959E+04  0.50240935959E+04  0.00000000000E+00 0.  1.
    9900016    2    1    2    0    0  0.16007535877E+04  0.64834458781E+03  0.80996362868E+03  0.29119573908E+04  0.22001572700E+04 0.  0.
        -24    2    3    3    0    0  0.30931548503E+03 -0.33311049212E+02  0.13244752036E+04  0.13636715834E+04  0.92627896093E+02 0.  0.
    9900016    2    1    2    0    0 -0.15786486961E+04 -0.10446780010E+04 -0.19009452429E+04  0.34687697549E+04  0.21989285948E+04 0.  0.
         23    2    5    5    0    0  0.29274600017E+02  0.34919895275E+03 -0.11604623769E+04  0.12156330163E+04  0.91070254632E+02 0.  0.
        -15    1    6    6    0    0 -0.14301533188E+02  0.27573726526E+03 -0.85708827443E+03  0.90046425996E+03  0.00000000000E+00 0. -1.
        -15    1    3    3    0    0  0.12914381027E+04  0.68165563702E+03 -0.51451157494E+03  0.15482858074E+04  0.00000000000E+00 0.  1.
         15    1    6    6    0    0  0.43576133205E+02  0.73461687498E+02 -0.30337410244E+03  0.31516875630E+03  0.00000000000E+00 0.  1.
         15    1    4    4    0    0  0.25474055720E+03 -0.56288513532E+02  0.11566340170E+04  0.11856911055E+04  0.00000000000E+00 0. -1.
        -16    1    4    4    0    0  0.54574927829E+02  0.22977464321E+02  0.16784118658E+03  0.17798047794E+03  0.00000000000E+00 0.  1.
         16    1    5    5    0    0 -0.16079232961E+04 -0.13938769537E+04 -0.74048286600E+03  0.22531367387E+04  0.00000000000E+00 0. -1.
    9900018    1    1    2    0    0 -0.22104891618E+02  0.39633341316E+03 -0.12560472175E+04  0.13204312143E+04  0.91187600000E+02 0.  0.
<mgrwt>
<rscale>  0 0.73348003E+04</rscale>
<asrwt>0</asrwt>
<pdfrwt beam="1">  1        2 0.41185612E+00 0.73348003E+04</pdfrwt>
<pdfrwt beam="2">  1       -2 0.77293747E+00 0.73348003E+04</pdfrwt>
<totfact> 0.18809326E-04</totfact>
</mgrwt>
</event>
<event>
13    1  0.1076827E-009  0.5490964E+04  0.7818608E-02  0.7756934E-01
         -2   -1    0    0    0  501 -0.00000000000E+00  0.00000000000E+00  0.20485326384E+04  0.20485326384E+04  0.00000000000E+00 0.  1.
          2   -1    0    0  501    0  0.00000000000E+00 -0.00000000000E+00 -0.36795471533E+04  0.36795471533E+04  0.00000000000E+00 0. -1.
    9900016    2    1    2    0    0  0.50799561959E+03  0.67362770386E+03  0.50976274513E+03  0.23948690325E+04  0.21825915315E+04 0.  0.
        -24    2    3    3    0    0  0.31450551568E+03 -0.45548745947E+02 -0.81139049271E+03  0.87826128353E+03  0.10954425062E+03 0.  0.
    9900016    2    1    2    0    0 -0.48369056630E+03 -0.42882151447E+03 -0.18700265632E+04  0.29561936188E+04  0.21964145578E+04 0.  0.
         23    2    5    5    0    0 -0.80012527315E+03  0.49092087384E+03 -0.11679415814E+03  0.95122956661E+03  0.99965273525E+02 0.  0.
        -15    1    3    3    0    0  0.19349010391E+03  0.71917644980E+03  0.13211532378E+04  0.15166077489E+04  0.00000000000E+00 0.  1.
        -15    1    6    6    0    0 -0.78100289284E+03  0.45981754761E+03 -0.12149361899E+03  0.91441697008E+03  0.00000000000E+00 0. -1.
         15    1    4    4    0    0  0.25957279746E+03 -0.58780135184E+02 -0.55230062532E+03  0.61308166031E+03  0.00000000000E+00 0. -1.
         15    1    6    6    0    0 -0.19122380314E+02  0.31103326225E+02  0.46994608446E+01  0.36812596531E+02  0.00000000000E+00 0.  1.
        -16    1    4    4    0    0  0.54932718220E+02  0.13231389237E+02 -0.25908986738E+03  0.26517962322E+03  0.00000000000E+00 0.  1.
         16    1    5    5    0    0  0.31643470685E+03 -0.91974238831E+03 -0.17532324051E+04  0.20049640522E+04  0.00000000000E+00 0. -1.
    9900018    1    1    2    0    0 -0.24305053289E+02 -0.24480618939E+03 -0.27075069683E+03  0.37701714047E+03  0.91187600000E+02 0.  0.
<mgrwt>
<rscale>  0 0.54909644E+04</rscale>
<asrwt>0</asrwt>
<pdfrwt beam="1">  1        2 0.56608417E+00 0.54909644E+04</pdfrwt>
<pdfrwt beam="2">  1       -2 0.31515887E+00 0.54909644E+04</pdfrwt>
<totfact> 0.10822788E-02</totfact>
</mgrwt>
</event>
<event>
12    1  0.1076827E-009  0.5623237E+04  0.7818608E-02  0.7738956E-01
         -2   -1    0    0    0  501 -0.00000000000E+00  0.00000000000E+00  0.22881756269E+04  0.22881756269E+04  0.00000000000E+00 0.  1.
          2   -1    0    0  501    0  0.00000000000E+00 -0.00000000000E+00 -0.34548044287E+04  0.34548044287E+04  0.00000000000E+00 0. -1.
    9900016    2    1    2    0    0  0.74429681002E+03  0.11729465381E+04 -0.14362674477E+04  0.29721645351E+04  0.22002537398E+04 0.  0.
    9900016    2    1    2    0    0 -0.69996912310E+03 -0.10451134301E+04  0.10358426706E+03  0.25380162884E+04  0.22019487107E+04 0.  0.
         23    2    4    4    0    0 -0.33768471667E+03  0.31350743600E+03  0.83134828893E+03  0.95474716394E+03  0.89912675652E+02 0.  0.
        -15    1    3    3    0    0  0.11492057906E+04 -0.15256631670E+03 -0.37268198453E+03  0.12177201204E+04  0.00000000000E+00 0.  1.
        -15    1    5    5    0    0 -0.23169774550E+03  0.18364310162E+03  0.45316095847E+03  0.54107623153E+03  0.00000000000E+00 0.  1.
         15    1    3    3    0    0 -0.39594744312E+03  0.10999020133E+04 -0.87364006462E+03  0.14593854114E+04  0.00000000000E+00 0. -1.
         15    1    5    5    0    0 -0.10598697117E+03  0.12986433439E+03  0.37818733046E+03  0.41367093241E+03  0.00000000000E+00 0. -1.
        -16    1    3    3    0    0 -0.89615374389E+01  0.22561084158E+03 -0.18994539854E+03  0.29505900328E+03  0.00000000000E+00 0.  1.
         16    1    4    4    0    0 -0.36228440643E+03 -0.13586208661E+04 -0.72776402186E+03  0.15832691245E+04  0.00000000000E+00 0. -1.
    9900018    1    1    2    0    0 -0.44327686916E+02 -0.12783310803E+03  0.16605437886E+03  0.23279923211E+03  0.91187600000E+02 0.  0.
<mgrwt>
<rscale>  0 0.56232372E+04</rscale>
<asrwt>0</asrwt>
<pdfrwt beam="1">  1        2 0.53150837E+00 0.56232372E+04</pdfrwt>
<pdfrwt beam="2">  1       -2 0.35202702E+00 0.56232372E+04</pdfrwt>
<totfact> 0.91355255E-03</totfact>
</mgrwt>
</event>
<event>
13    1  0.1076827E-009  0.5854654E+04  0.7818608E-02  0.7708689E-01
          2   -1    0    0  501    0  0.00000000000E+00  0.00000000000E+00  0.24178441868E+04  0.24178441868E+04  0.00000000000E+00 0. -1.
         -2   -1    0    0    0  501 -0.00000000000E+00 -0.00000000000E+00 -0.35441664874E+04  0.35441664874E+04  0.00000000000E+00 0.  1.
    9900016    2    1    2    0    0 -0.40039994110E+03  0.92021640009E+03  0.81770362264E+03  0.25468083251E+04  0.21932795295E+04 0.  0.
        -24    2    3    3    0    0  0.47439014537E+03  0.10588082412E+04  0.11169700131E+04  0.16119148733E+04  0.67280360843E+02 0.  0.
    9900016    2    1    2    0    0  0.18038870499E+03 -0.62390275554E+03 -0.12374460685E+04  0.26128452033E+04  0.22076894145E+04 0.  0.
         23    2    5    5    0    0 -0.50911679294E+03  0.16472815600E+03 -0.14460962235E+04  0.15447200077E+04  0.92899625620E+02 0.  0.
        -15    1    3    3    0    0 -0.87479008647E+03 -0.13859184107E+03 -0.29926639050E+03  0.93489345184E+03  0.00000000000E+00 0.  1.
        -15    1    6    6    0    0 -0.42769386248E+03  0.13960268870E+03 -0.12992598823E+04  0.13749498872E+04  0.00000000000E+00 0.  1.
         15    1    6    6    0    0 -0.81422930466E+02  0.25125467307E+02 -0.14683634120E+03  0.16977012049E+03  0.00000000000E+00 0. -1.
         15    1    4    4    0    0  0.97504321824E+02  0.16356070791E+03  0.19919835099E+03  0.27557064609E+03  0.00000000000E+00 0. -1.
        -16    1    4    4    0    0  0.37688582355E+03  0.89524753324E+03  0.91777166216E+03  0.13363442272E+04  0.00000000000E+00 0.  1.
         16    1    5    5    0    0  0.68950549794E+03 -0.78863091154E+03  0.20865015495E+03  0.10681251956E+04  0.00000000000E+00 0. -1.
    9900018    1    1    2    0    0  0.22001123611E+03 -0.29631364455E+03 -0.70657985474E+03  0.80235714584E+03  0.91187600000E+02 0.  0.
<mgrwt>
<rscale>  0 0.58546536E+04</rscale>
<asrwt>0</asrwt>
<pdfrwt beam="1">  1        2 0.37197603E+00 0.58546536E+04</pdfrwt>
<pdfrwt beam="2">  1       -2 0.54525638E+00 0.58546536E+04</pdfrwt>
<totfact> 0.24285930E-03</totfact>
</mgrwt>
</event>
<event>
13    1  0.1076827E-009  0.5789399E+04  0.7818608E-02  0.7717076E-01
          2   -1    0    0  501    0  0.00000000000E+00  0.00000000000E+00  0.23043662694E+04  0.23043662694E+04  0.00000000000E+00 0.  1.
         -2   -1    0    0    0  501 -0.00000000000E+00 -0.00000000000E+00 -0.36362646983E+04  0.36362646983E+04  0.00000000000E+00 0. -1.
    9900016    2    1    2    0    0  0.64868364610E+03  0.27771524134E+03 -0.16329026179E+03  0.23143747512E+04  0.21981243258E+04 0.  0.
        -24    2    3    3    0    0 -0.43040121254E+02 -0.51013868939E+03  0.75760531669E+03  0.91893781141E+03  0.91580297634E+02 0.  0.
    9900016    2    1    2    0    0 -0.12141296183E+04 -0.73316538402E+03 -0.12099717165E+04  0.28933236810E+04  0.22126111629E+04 0.  0.
         23    2    5    5    0    0  0.56719861309E+03 -0.50263092752E+02 -0.72247957119E+03  0.92427964927E+03  0.89863752860E+02 0.  0.
        -15    1    3    3    0    0  0.69172376736E+03  0.78785393073E+03 -0.92089557849E+03  0.13954369398E+04  0.00000000000E+00 0.  1.
        -15    1    6    6    0    0  0.52872539614E+03 -0.69193319355E+02 -0.65978097324E+03  0.84832139701E+03  0.00000000000E+00 0.  1.
         15    1    6    6    0    0  0.38473216945E+02  0.18930226603E+02 -0.62698597952E+02  0.75958252261E+02  0.00000000000E+00 0. -1.
         15    1    4    4    0    0 -0.78529409593E+01 -0.18419577295E+03  0.19930746558E+03  0.27150178137E+03  0.00000000000E+00 0. -1.
        -16    1    4    4    0    0 -0.35187180294E+02 -0.32594291644E+03  0.55829785111E+03  0.64743603004E+03  0.00000000000E+00 0.  1.
         16    1    5    5    0    0 -0.17813282313E+04 -0.68290229126E+03 -0.48749214526E+03  0.19690440317E+04  0.00000000000E+00 0. -1.
    9900018    1    1    2    0    0  0.56544597215E+03  0.45545014268E+03  0.41363549325E+02  0.73293253543E+03  0.91187600000E+02 0.  0.
<mgrwt>
<rscale>  0 0.57893992E+04</rscale>
<asrwt>0</asrwt>
<pdfrwt beam="1">  1        2 0.35451789E+00 0.57893992E+04</pdfrwt>
<pdfrwt beam="2">  1       -2 0.55942534E+00 0.57893992E+04</pdfrwt>
<totfact> 0.24022828E-03</totfact>
</mgrwt>
</event>
<event>
13    1  0.1076827E-009  0.5530805E+04  0.7818608E-02  0.7751465E-01
         -2   -1    0    0    0  501 -0.00000000000E+00  0.00000000000E+00  0.18790657391E+04  0.18790657391E+04  0.00000000000E+00 0.  1.
          2   -1    0    0  501    0  0.00000000000E+00 -0.00000000000E+00 -0.40698160170E+04  0.40698160170E+04  0.00000000000E+00 0. -1.
    9900016    2    1    2    0    0 -0.55311482585E+03  0.47989663375E+03 -0.22879806909E+04  0.32520010540E+04  0.21918983607E+04 0.  0.
         24    2    3    3    0    0  0.34466940635E+03  0.13046180952E+03  0.30223572984E+03  0.48842685920E+03  0.10675709335E+03 0.  0.
    9900016    2    1    2    0    0  0.37563956585E+03 -0.58963820969E+03 -0.19418129984E+03  0.23270474340E+04  0.22110325826E+04 0.  0.
         23    2    5    5    0    0 -0.45945008998E+01 -0.21574552682E+03 -0.11817409853E+04  0.12047071041E+04  0.90775595309E+02 0.  0.
        -15    1    4    4    0    0  0.50947126374E+02 -0.53054327669E+01  0.95357468959E+01  0.52102665685E+02  0.00000000000E+00 0.  1.
        -15    1    6    6    0    0 -0.31462603791E+02 -0.20086851265E+03 -0.10156970148E+04  0.10358467458E+04  0.00000000000E+00 0.  1.
         15    1    3    3    0    0 -0.89778423220E+03  0.34943482422E+03 -0.25902164208E+04  0.27635741948E+04  0.00000000000E+00 0. -1.
         15    1    6    6    0    0  0.26868102891E+02 -0.14877014169E+02 -0.16604397044E+03  0.16886035836E+03  0.00000000000E+00 0. -1.
        -16    1    5    5    0    0  0.38023406675E+03 -0.37389268287E+03  0.98755968542E+03  0.11223403299E+04  0.00000000000E+00 0.  1.
         16    1    4    4    0    0  0.29372227998E+03  0.13576724229E+03  0.29269998294E+03  0.43632419352E+03  0.00000000000E+00 0. -1.
    9900018    1    1    2    0    0  0.17747525999E+03  0.10974157594E+03  0.29141171279E+03  0.36983326803E+03  0.91187600000E+02 0.  0.
<mgrwt>
<rscale>  0 0.55308053E+04</rscale>
<asrwt>0</asrwt>
<pdfrwt beam="1">  1        2 0.62612554E+00 0.55308053E+04</pdfrwt>
<pdfrwt beam="2">  1       -2 0.28908704E+00 0.55308053E+04</pdfrwt>
<totfact> 0.77147297E-03</totfact>
</mgrwt>
</event>
<event>
13    1  0.1076827E-009  0.5359386E+04  0.7818608E-02  0.7775340E-01
          2   -1    0    0  501    0  0.00000000000E+00  0.00000000000E+00  0.31021221994E+04  0.31021221994E+04  0.00000000000E+00 0. -1.
         -2   -1    0    0    0  501 -0.00000000000E+00 -0.00000000000E+00 -0.23147875598E+04  0.23147875598E+04  0.00000000000E+00 0.  1.
    9900016    2    1    2    0    0 -0.58995373500E+02  0.63622032362E+03 -0.63982411192E+03  0.23713194421E+04  0.21921505989E+04 0.  0.
        -24    2    3    3    0    0  0.49092026559E+03 -0.30194836161E+03  0.51889826739E+03  0.78223000337E+03  0.10223916098E+03 0.  0.
    9900016    2    1    2    0    0 -0.17346072699E+03 -0.70888848636E+03  0.95108629970E+03  0.25031175911E+04  0.21973668368E+04 0.  0.
         23    2    5    5    0    0  0.21236950269E+03 -0.36906981197E+03 -0.67205823090E+03  0.80049024940E+03  0.88368783379E+02 0.  0.
        -15    1    3    3    0    0 -0.54991563909E+03  0.93816868523E+03 -0.11587223793E+04  0.15890894388E+04  0.00000000000E+00 0.  1.
        -15    1    6    6    0    0  0.12951448662E+03 -0.13760503485E+03 -0.28516924085E+03  0.34209741856E+03  0.00000000000E+00 0.  1.
         15    1    6    6    0    0  0.82855016066E+02 -0.23146477713E+03 -0.38688899005E+03  0.45839283084E+03  0.00000000000E+00 0. -1.
         15    1    4    4    0    0  0.88925713642E+02 -0.75932841519E+02  0.59170384409E+02  0.13105233061E+03  0.00000000000E+00 0. -1.
        -16    1    4    4    0    0  0.40199455194E+03 -0.22601552009E+03  0.45972788298E+03  0.65117767276E+03  0.00000000000E+00 0.  1.
         16    1    5    5    0    0 -0.38583022968E+03 -0.33981867439E+03  0.16231445306E+04  0.17026273417E+04  0.00000000000E+00 0. -1.
    9900018    1    1    2    0    0  0.23245610049E+03  0.72668162741E+02  0.47607245183E+03  0.54247272587E+03  0.91187600000E+02 0.  0.
<mgrwt>
<rscale>  0 0.53593857E+04</rscale>
<asrwt>0</asrwt>
<pdfrwt beam="1">  1        2 0.47724957E+00 0.53593857E+04</pdfrwt>
<pdfrwt beam="2">  1       -2 0.35612116E+00 0.53593857E+04</pdfrwt>
<totfact> 0.15099711E-02</totfact>
</mgrwt>
</event>
<event>
13    1  0.1076827E-009  0.7495451E+04  0.7818608E-02  0.7528391E-01
         -2   -1    0    0    0  501 -0.00000000000E+00  0.00000000000E+00  0.46101584183E+04  0.46101584183E+04  0.00000000000E+00 0. -1.
          2   -1    0    0  501    0  0.00000000000E+00 -0.00000000000E+00 -0.30466299365E+04  0.30466299365E+04  0.00000000000E+00 0.  1.
    9900016    2    1    2    0    0  0.21378843007E+03  0.84786466170E+03 -0.15227688743E+04  0.28166796292E+04  0.22023349227E+04 0.  0.
         24    2    3    3    0    0  0.58656932647E+03 -0.32632130601E+03 -0.14301678864E+04  0.15812634133E+04  0.66817882785E+02 0.  0.
    9900016    2    1    2    0    0 -0.36240524701E+03 -0.15414604383E+04  0.14957338832E+04  0.30961564903E+04  0.22003470902E+04 0.  0.
         23    2    5    5    0    0 -0.12653577356E+03  0.36391047517E+03 -0.27690920366E+03  0.48304795068E+03  0.90633766630E+02 0.  0.
        -15    1    6    6    0    0 -0.23328797919E+02  0.43704156910E+02 -0.77443974802E+02  0.91933972919E+02  0.00000000000E+00 0. -1.
        -15    1    4    4    0    0  0.44141449816E+03 -0.21153055746E+03 -0.10346301715E+04  0.11445748240E+04  0.00000000000E+00 0.  1.
         15    1    3    3    0    0 -0.37278089640E+03  0.11741859677E+04 -0.92600987843E+02  0.12354162159E+04  0.00000000000E+00 0. -1.
         15    1    6    6    0    0 -0.10320697564E+03  0.32020631826E+03 -0.19946522885E+03  0.39111397776E+03  0.00000000000E+00 0.  1.
        -16    1    5    5    0    0 -0.23586947345E+03 -0.19053709135E+04  0.17726430869E+04  0.26131085397E+04  0.00000000000E+00 0.  1.
         16    1    4    4    0    0  0.14515482831E+03 -0.11479074854E+03 -0.39553771487E+03  0.43668858929E+03  0.00000000000E+00 0. -1.
    9900018    1    1    2    0    0  0.14861681694E+03  0.69359577664E+03  0.15905634728E+04  0.17439522353E+04  0.91187600000E+02 0.  0.
<mgrwt>
<rscale>  0 0.74954511E+04</rscale>
<asrwt>0</asrwt>
<pdfrwt beam="1">  1        2 0.46871230E+00 0.74954511E+04</pdfrwt>
<pdfrwt beam="2">  1       -2 0.70925514E+00 0.74954511E+04</pdfrwt>
<totfact> 0.21158285E-04</totfact>
</mgrwt>
</event>
<event>
13    1  0.1076827E-009  0.5156228E+04  0.7818608E-02  0.7804849E-01
          2   -1    0    0  501    0  0.00000000000E+00  0.00000000000E+00  0.15791130243E+04  0.15791130243E+04  0.00000000000E+00 0. -1.
         -2   -1    0    0    0  501 -0.00000000000E+00 -0.00000000000E+00 -0.42091164210E+04  0.42091164210E+04  0.00000000000E+00 0.  1.
    9900016    2    1    2    0    0 -0.10170500083E+03  0.63853066893E+03 -0.23676850682E+04  0.32917924100E+04  0.21936041953E+04 0.  0.
        -24    2    3    3    0    0 -0.10325418905E+04  0.45870706742E+03 -0.19506043044E+04  0.22560558574E+04  0.91520216661E+02 0.  0.
    9900016    2    1    2    0    0  0.15325983757E+03 -0.48936415731E+03 -0.36183719721E+03  0.22887648586E+04  0.22010344306E+04 0.  0.
         23    2    5    5    0    0 -0.88780325091E+02  0.30725279632E+03  0.79595735242E+03  0.86269675706E+03  0.91713471167E+02 0.  0.
        -15    1    6    6    0    0 -0.20602905310E+02  0.20393816534E+03  0.42964834211E+03  0.47603881445E+03  0.00000000000E+00 0.  1.
        -15    1    3    3    0    0  0.93083688965E+03  0.17982360152E+03 -0.41708076376E+03  0.10357365526E+04  0.00000000000E+00 0.  1.
         15    1    6    6    0    0 -0.68177419781E+02  0.10331463098E+03  0.36630901031E+03  0.38665794261E+03  0.00000000000E+00 0. -1.
         15    1    4    4    0    0 -0.84382614030E+03  0.39514455538E+03 -0.16630313095E+04  0.19062672717E+04  0.00000000000E+00 0. -1.
        -16    1    4    4    0    0 -0.18871575017E+03  0.63562512036E+02 -0.28757299489E+03  0.34978858571E+03  0.00000000000E+00 0.  1.
         16    1    5    5    0    0  0.24204016266E+03 -0.79661695363E+03 -0.11577945496E+04  0.14260681016E+04  0.00000000000E+00 0. -1.
    9900018    1    1    2    0    0 -0.51554836742E+02 -0.14916651162E+03  0.99518868716E+02  0.20767217677E+03  0.91187600000E+02 0.  0.
<mgrwt>
<rscale>  0 0.51562275E+04</rscale>
<asrwt>0</asrwt>
<pdfrwt beam="1">  1        2 0.24294046E+00 0.51562275E+04</pdfrwt>
<pdfrwt beam="2">  1       -2 0.64755638E+00 0.51562275E+04</pdfrwt>
<totfact> 0.28547736E-03</totfact>
</mgrwt>
</event>
<event>
13    1  0.1076827E-009  0.6031917E+04  0.7818608E-02  0.7686457E-01
          1   -1    0    0  501    0  0.00000000000E+00  0.00000000000E+00  0.31910629901E+04  0.31910629901E+04  0.00000000000E+00 0. -1.
         -1   -1    0    0    0  501 -0.00000000000E+00 -0.00000000000E+00 -0.28504622486E+04  0.28504622486E+04  0.00000000000E+00 0.  1.
    9900016    2    1    2    0    0 -0.77049631489E+03  0.14334466857E+04 -0.80917953055E+03  0.28465738560E+04  0.21908393901E+04 0.  0.
        -24    2    3    3    0    0 -0.33757201844E+02 -0.83456419496E+02  0.62357592154E+03  0.63375489896E+03  0.68511454542E+02 0.  0.
    9900016    2    1    2    0    0  0.53184520821E+03 -0.98986534739E+03  0.90960640886E+03  0.26295157830E+04  0.21964236164E+04 0.  0.
         23    2    5    5    0    0 -0.27648794651E+03  0.98080309828E-01  0.12688596776E+04  0.13019266190E+04  0.92533484673E+02 0.  0.
        -15    1    3    3    0    0 -0.73673911305E+03  0.15169031052E+04 -0.14327554521E+04  0.22128189571E+04  0.00000000000E+00 0.  1.
        -15    1    6    6    0    0 -0.22348671751E+03 -0.32097516365E+02  0.10724809155E+04  0.10959889952E+04  0.00000000000E+00 0. -1.
         15    1    6    6    0    0 -0.53001229003E+02  0.32195596675E+02  0.19637876205E+03  0.20593762382E+03  0.00000000000E+00 0.  1.
         15    1    4    4    0    0 -0.62698356562E+01 -0.66478278757E+02  0.24931273194E+03  0.25809980762E+03  0.00000000000E+00 0. -1.
        -16    1    4    4    0    0 -0.27487366188E+02 -0.16978140739E+02  0.37426318959E+03  0.37565509134E+03  0.00000000000E+00 0.  1.
         16    1    5    5    0    0  0.80833315472E+03 -0.98996342770E+03 -0.35925326872E+03  0.13275891640E+04  0.00000000000E+00 0. -1.
    9900018    1    1    2    0    0  0.23865110668E+03 -0.44358133834E+03  0.24017386321E+03  0.56543559970E+03  0.91187600000E+02 0.  0.
<mgrwt>
<rscale>  0 0.60319166E+04</rscale>
<asrwt>0</asrwt>
<pdfrwt beam="1">  1        1 0.49093277E+00 0.60319166E+04</pdfrwt>
<pdfrwt beam="2">  1       -1 0.43853265E+00 0.60319166E+04</pdfrwt>
<totfact> 0.11201171E-03</totfact>
</mgrwt>
</event>
<event>
13    1  0.1076827E-009  0.5393029E+04  0.7818608E-02  0.7770582E-01
          2   -1    0    0  501    0  0.00000000000E+00  0.00000000000E+00  0.42941791730E+04  0.42941791730E+04  0.00000000000E+00 0.  1.
         -2   -1    0    0    0  501 -0.00000000000E+00 -0.00000000000E+00 -0.16932668347E+04  0.16932668347E+04  0.00000000000E+00 0. -1.
    9900016    2    1    2    0    0  0.57543349701E+03  0.72111233581E+03  0.20738595877E+04  0.31601120968E+04  0.21987014725E+04 0.  0.
        -24    2    3    3    0    0  0.53538469065E+03 -0.70664103716E+03  0.11663582788E+04  0.14678821401E+04  0.91148342383E+02 0.  0.
    9900016    2    1    2    0    0 -0.52294788817E+03 -0.22920127544E+03  0.39936470778E+03  0.23083438868E+04  0.22006707185E+04 0.  0.
         23    2    5    5    0    0  0.47228998864E+03 -0.67835591263E+02 -0.67659572188E+03  0.83381746734E+03  0.99046944278E+02 0.  0.
        -15    1    3    3    0    0  0.40048806368E+02  0.14277533730E+04  0.90750130883E+03  0.16922299567E+04  0.00000000000E+00 0.  1.
        -15    1    6    6    0    0  0.17111417067E+03 -0.36743311252E+02 -0.33046230502E+03  0.37394580538E+03  0.00000000000E+00 0.  1.
         15    1    6    6    0    0  0.30117581797E+03 -0.31092280011E+02 -0.34613341686E+03  0.45987166196E+03  0.00000000000E+00 0. -1.
         15    1    4    4    0    0  0.33798228757E+03 -0.38662493737E+03  0.62827115035E+03  0.81144039046E+03  0.00000000000E+00 0. -1.
        -16    1    4    4    0    0  0.19740240308E+03 -0.32001609979E+03  0.53808712848E+03  0.65644174967E+03  0.00000000000E+00 0.  1.
         16    1    5    5    0    0 -0.99523787680E+03 -0.16136568417E+03  0.10759604297E+04  0.14745264194E+04  0.00000000000E+00 0. -1.
    9900018    1    1    2    0    0 -0.52485608846E+02 -0.49191106037E+03  0.12768804289E+03  0.51899002412E+03  0.91187600000E+02 0.  0.
<mgrwt>
<rscale>  0 0.53930293E+04</rscale>
<asrwt>0</asrwt>
<pdfrwt beam="1">  1        2 0.66064294E+00 0.53930293E+04</pdfrwt>
<pdfrwt beam="2">  1       -2 0.26050259E+00 0.53930293E+04</pdfrwt>
<totfact> 0.74468418E-03</totfact>
</mgrwt>
</event>
<event>
12    1  0.1076827E-009  0.4939136E+04  0.7818608E-02  0.7837965E-01
          2   -1    0    0  501    0  0.00000000000E+00  0.00000000000E+00  0.11920592243E+04  0.11920592243E+04  0.00000000000E+00 0. -1.
         -2   -1    0    0    0  501 -0.00000000000E+00 -0.00000000000E+00 -0.51161601059E+04  0.51161601059E+04  0.00000000000E+00 0.  1.
    9900016    2    1    2    0    0 -0.82979536395E+03  0.55037823842E+03 -0.16785692338E+04  0.29421605050E+04  0.22016442067E+04 0.  0.
    9900016    2    1    2    0    0  0.72977737627E+03 -0.49871765851E+03 -0.20866556007E+04  0.31510490810E+04  0.21894484221E+04 0.  0.
         23    2    4    4    0    0 -0.19750247377E+03 -0.21486706835E+03  0.38744248579E+03  0.49368564721E+03  0.91862692449E+02 0.  0.
        -15    1    5    5    0    0 -0.16742962896E+03 -0.11923436734E+03  0.25269094587E+03  0.32573337124E+03  0.00000000000E+00 0. -1.
        -15    1    3    3    0    0 -0.39186433297E+03  0.54022856426E+03  0.41400744232E+03  0.78537043450E+03  0.00000000000E+00 0.  1.
         15    1    3    3    0    0  0.19685373944E+01  0.75323499618E+02 -0.38148460724E+03  0.38885474190E+03  0.00000000000E+00 0. -1.
         15    1    5    5    0    0 -0.30072844809E+02 -0.95632701008E+02  0.13475153991E+03  0.16795227598E+03  0.00000000000E+00 0.  1.
        -16    1    3    3    0    0 -0.43989956837E+03 -0.65173825453E+02 -0.17110920689E+04  0.17679353286E+04  0.00000000000E+00 0.  1.
         16    1    4    4    0    0  0.92727985004E+03 -0.28385059015E+03 -0.24740980864E+04  0.26573634338E+04  0.00000000000E+00 0. -1.
    9900018    1    1    2    0    0  0.10001798768E+03 -0.51660579915E+02 -0.15887604714E+03  0.21500974426E+03  0.91187600000E+02 0.  0.
<mgrwt>
<rscale>  0 0.49391359E+04</rscale>
<asrwt>0</asrwt>
<pdfrwt beam="1">  1        2 0.18339372E+00 0.49391359E+04</pdfrwt>
<pdfrwt beam="2">  1       -2 0.78710157E+00 0.49391359E+04</pdfrwt>
<totfact> 0.13094555E-03</totfact>
</mgrwt>
</event>
<event>
13    1  0.1076827E-009  0.5705633E+04  0.7818608E-02  0.7728011E-01
         -2   -1    0    0    0  501 -0.00000000000E+00  0.00000000000E+00  0.19498115454E+04  0.19498115454E+04  0.00000000000E+00 0.  1.
          2   -1    0    0  501    0  0.00000000000E+00 -0.00000000000E+00 -0.41740242848E+04  0.41740242848E+04  0.00000000000E+00 0. -1.
    9900016    2    1    2    0    0  0.38984738097E+03  0.63018169559E+03 -0.19044118750E+04  0.30021799280E+04  0.21993612210E+04 0.  0.
         24    2    3    3    0    0  0.62990464482E+03  0.86064100881E+03 -0.27281936184E+01  0.10715997538E+04  0.10409506053E+03 0.  0.
    9900016    2    1    2    0    0 -0.64858705558E+03 -0.82166956563E+03  0.25972291534E+03  0.24524946263E+04  0.22026047887E+04 0.  0.
         23    2    5    5    0    0 -0.39732806107E+03  0.16903142744E+03 -0.84156042056E+03  0.95001516688E+03  0.88677304172E+02 0.  0.
        -15    1    4    4    0    0  0.35112944666E+03  0.39320232694E+03 -0.11111043721E+02  0.52727925572E+03  0.00000000000E+00 0.  1.
        -15    1    6    6    0    0 -0.14728470065E+03  0.10947783746E+03 -0.36629937703E+03  0.40969917445E+03  0.00000000000E+00 0. -1.
         15    1    3    3    0    0 -0.24005726385E+03 -0.23045931323E+03 -0.19016836814E+04  0.19305801742E+04  0.00000000000E+00 0. -1.
         15    1    6    6    0    0 -0.25004336042E+03  0.59553589986E+02 -0.47526104353E+03  0.54031599242E+03  0.00000000000E+00 0.  1.
        -16    1    5    5    0    0 -0.25125899451E+03 -0.99070099307E+03  0.11012833359E+04  0.15024794594E+04  0.00000000000E+00 0.  1.
         16    1    4    4    0    0  0.27877519816E+03  0.46743868188E+03  0.83828501028E+01  0.54432049805E+03  0.00000000000E+00 0. -1.
    9900018    1    1    2    0    0  0.25873967461E+03  0.19148787004E+03 -0.57952377969E+03  0.66916127593E+03  0.91187600000E+02 0.  0.
<mgrwt>
<rscale>  0 0.57056326E+04</rscale>
<asrwt>0</asrwt>
<pdfrwt beam="1">  1        2 0.64215758E+00 0.57056326E+04</pdfrwt>
<pdfrwt beam="2">  1       -2 0.29997101E+00 0.57056326E+04</pdfrwt>
<totfact> 0.53240040E-03</totfact>
</mgrwt>
</event>
<event>
13    1  0.1076827E-009  0.5405375E+04  0.7818608E-02  0.7768845E-01
          2   -1    0    0  501    0  0.00000000000E+00  0.00000000000E+00  0.22792806136E+04  0.22792806136E+04  0.00000000000E+00 0. -1.
         -2   -1    0    0    0  501 -0.00000000000E+00 -0.00000000000E+00 -0.32047478477E+04  0.32047478477E+04  0.00000000000E+00 0.  1.
    9900016    2    1    2    0    0 -0.43571728329E+02 -0.92216633500E+03  0.68995371160E+03  0.25001447503E+04  0.22186478772E+04 0.  0.
         24    2    3    3    0    0  0.30923605686E+03 -0.53791477446E+03 -0.74583315706E+03  0.97253009751E+03  0.67590302019E+02 0.  0.
    9900016    2    1    2    0    0  0.68518029032E+02  0.77762108870E+03 -0.15001887289E+04  0.27762559473E+04  0.22017360388E+04 0.  0.
         23    2    5    5    0    0  0.86149656334E+02  0.22709242822E+03  0.57425038775E+03  0.62993576403E+03  0.89793233275E+02 0.  0.
        -15    1    4    4    0    0  0.16484432366E+03 -0.21947448700E+03 -0.32975285832E+03  0.42904504315E+03  0.00000000000E+00 0.  1.
        -15    1    6    6    0    0  0.96085140993E+02  0.14270012256E+03  0.41919102505E+03  0.45311896317E+03  0.00000000000E+00 0.  1.
         15    1    6    6    0    0 -0.99354846588E+01  0.84392305653E+02  0.15505936270E+03  0.17681680087E+03  0.00000000000E+00 0. -1.
         15    1    3    3    0    0 -0.35280778519E+03 -0.38425156054E+03  0.14357868687E+04  0.15276146527E+04  0.00000000000E+00 0. -1.
        -16    1    5    5    0    0 -0.17631627302E+02  0.55052866049E+03 -0.20744391166E+04  0.21463201832E+04  0.00000000000E+00 0.  1.
         16    1    4    4    0    0  0.14439173320E+03 -0.31844028747E+03 -0.41608029874E+03  0.54348505435E+03  0.00000000000E+00 0. -1.
    9900018    1    1    2    0    0 -0.24946300703E+02  0.14454524630E+03 -0.11523221679E+03  0.20762776387E+03  0.91187600000E+02 0.  0.
<mgrwt>
<rscale>  0 0.54053750E+04</rscale>
<asrwt>0</asrwt>
<pdfrwt beam="1">  1        2 0.35065856E+00 0.54053750E+04</pdfrwt>
<pdfrwt beam="2">  1       -2 0.49303813E+00 0.54053750E+04</pdfrwt>
<totfact> 0.60370152E-03</totfact>
</mgrwt>
</event>
<event>
13    1  0.1076827E-009  0.5219594E+04  0.7818608E-02  0.7795498E-01
          2   -1    0    0  501    0  0.00000000000E+00  0.00000000000E+00  0.33744154605E+04  0.33744154605E+04  0.00000000000E+00 0. -1.
         -2   -1    0    0    0  501 -0.00000000000E+00 -0.00000000000E+00 -0.20184353780E+04  0.20184353780E+04  0.00000000000E+00 0.  1.
    9900016    2    1    2    0    0 -0.46597782419E+03 -0.99507660713E+03  0.97807239467E+03  0.26328421264E+04  0.21835565637E+04 0.  0.
        -24    2    3    3    0    0 -0.14561507322E+03  0.64130138090E+03  0.66258865481E+03  0.93581672824E+03  0.65253449587E+02 0.  0.
    9900016    2    1    2    0    0  0.59862606350E+03  0.10849241186E+04  0.28875612109E+03  0.25552373495E+04  0.22159522350E+04 0.  0.
         23    2    5    5    0    0 -0.49527105927E+03 -0.33061474291E+03 -0.29832463882E+03  0.67241367154E+03  0.92428486774E+02 0.  0.
        -15    1    3    3    0    0 -0.32036275097E+03 -0.16363779880E+04  0.31548373987E+03  0.16970253982E+04  0.00000000000E+00 0.  1.
        -15    1    6    6    0    0 -0.41895006566E+03 -0.29130742389E+03 -0.28802343686E+03  0.58594937743E+03  0.00000000000E+00 0.  1.
         15    1    4    4    0    0 -0.89705595936E+02  0.31502830483E+03  0.36834683812E+03  0.49291918195E+03  0.00000000000E+00 0. -1.
         15    1    6    6    0    0 -0.76320993608E+02 -0.39307319021E+02 -0.10301201958E+02  0.86464294109E+02  0.00000000000E+00 0. -1.
        -16    1    4    4    0    0 -0.55909477286E+02  0.32627307608E+03  0.29424181669E+03  0.44289754629E+03  0.00000000000E+00 0.  1.
         16    1    5    5    0    0  0.10938971228E+04  0.14155388615E+04  0.58708075991E+03  0.18828236780E+04  0.00000000000E+00 0. -1.
    9900018    1    1    2    0    0 -0.13264823932E+03 -0.89847511467E+02  0.89151566660E+02  0.20477136260E+03  0.91187600000E+02 0.  0.
<mgrwt>
<rscale>  0 0.52195937E+04</rscale>
<asrwt>0</asrwt>
<pdfrwt beam="1">  1        2 0.51914084E+00 0.52195937E+04</pdfrwt>
<pdfrwt beam="2">  1       -2 0.31052852E+00 0.52195937E+04</pdfrwt>
<totfact> 0.19419037E-02</totfact>
</mgrwt>
</event>
<event>
13    1  0.1076827E-009  0.6917648E+04  0.7818608E-02  0.7585988E-01
         -1   -1    0    0    0  501 -0.00000000000E+00  0.00000000000E+00  0.28490502782E+04  0.28490502782E+04  0.00000000000E+00 0.  1.
          1   -1    0    0  501    0  0.00000000000E+00 -0.00000000000E+00 -0.41991058076E+04  0.41991058076E+04  0.00000000000E+00 0. -1.
    9900016    2    1    2    0    0  0.46105452699E+03 -0.15311970823E+04 -0.16303631960E+04  0.31716008683E+04  0.22008707675E+04 0.  0.
         24    2    3    3    0    0  0.72878505819E+03 -0.17430611697E+04 -0.45261329183E+03  0.19453623655E+04  0.10092590923E+03 0.  0.
    9900016    2    1    2    0    0  0.30094511674E+03  0.19432988209E+04  0.46851722630E+03  0.29853709959E+04  0.21968052534E+04 0.  0.
         23    2    5    5    0    0  0.41445604714E+02 -0.43302903563E+03  0.39335931103E+03  0.59373498877E+03  0.92508407478E+02 0.  0.
        -15    1    4    4    0    0  0.60888776120E+03 -0.13554614654E+04 -0.37008209980E+03  0.15313330306E+04  0.00000000000E+00 0.  1.
        -15    1    6    6    0    0  0.82624683044E+01 -0.30425921808E+03  0.22149582564E+03  0.37643371388E+03  0.00000000000E+00 0.  1.
         15    1    3    3    0    0 -0.26773053120E+03  0.21186408737E+03 -0.11777499041E+04  0.12262385027E+04  0.00000000000E+00 0. -1.
         15    1    6    6    0    0  0.33183136410E+02 -0.12876981755E+03  0.17186348539E+03  0.21730127488E+03  0.00000000000E+00 0. -1.
        -16    1    5    5    0    0  0.25949951202E+03  0.23763278565E+04  0.75157915263E+02  0.23916360072E+04  0.00000000000E+00 0.  1.
         16    1    4    4    0    0  0.11989729699E+03 -0.38759970427E+03 -0.82531192028E+02  0.41402933499E+03  0.00000000000E+00 0. -1.
    9900018    1    1    2    0    0 -0.76199964372E+03 -0.41210173863E+03 -0.18820955970E+03  0.89118422157E+03  0.91187600000E+02 0.  0.
<mgrwt>
<rscale>  0 0.69176480E+04</rscale>
<asrwt>0</asrwt>
<pdfrwt beam="1">  1        1 0.64601627E+00 0.69176480E+04</pdfrwt>
<pdfrwt beam="2">  1       -1 0.43831543E+00 0.69176480E+04</pdfrwt>
<totfact> 0.15365802E-04</totfact>
</mgrwt>
</event>
<event>
12    1  0.1076827E-009  0.5345695E+04  0.7818608E-02  0.7777286E-01
         -2   -1    0    0    0  501 -0.00000000000E+00  0.00000000000E+00  0.11877434334E+04  0.11877434334E+04  0.00000000000E+00 0.  1.
          2   -1    0    0  501    0  0.00000000000E+00 -0.00000000000E+00 -0.60148633592E+04  0.60148633592E+04  0.00000000000E+00 0. -1.
    9900016    2    1    2    0    0 -0.43196498957E+03 -0.65650664153E+03 -0.80989037730E+03  0.24722031241E+04  0.21996070423E+04 0.  0.
    9900016    2    1    2    0    0  0.24452121507E+03  0.54365130837E+03 -0.35788857946E+04  0.42320745407E+04  0.21786886003E+04 0.  0.
         23    2    4    4    0    0 -0.93664975788E+02 -0.29540119671E+03  0.17745484636E+03  0.36833619326E+03  0.90257044408E+02 0.  0.
        -15    1    5    5    0    0 -0.69108188145E+02 -0.13948518388E+03  0.13196008067E+03  0.20407234276E+03  0.00000000000E+00 0. -1.
        -15    1    3    3    0    0 -0.60643878329E+03 -0.13037468937E+04 -0.73037664030E+03  0.16127535451E+04  0.00000000000E+00 0.  1.
         15    1    3    3    0    0 -0.12910280598E+03  0.29397016232E+03 -0.20008152781E+03  0.37831020157E+03  0.00000000000E+00 0. -1.
         15    1    5    5    0    0 -0.24556787643E+02 -0.15591601283E+03  0.45494765692E+02  0.16426385050E+03  0.00000000000E+00 0.  1.
        -16    1    3    3    0    0  0.30357659970E+03  0.35327008983E+03  0.12056779080E+03  0.48113937735E+03  0.00000000000E+00 0.  1.
         16    1    4    4    0    0  0.33818619086E+03  0.83905250508E+03 -0.37563406410E+04  0.38637383474E+04  0.00000000000E+00 0. -1.
    9900018    1    1    2    0    0  0.18744377449E+03  0.11285533316E+03 -0.43834375379E+03  0.49832912789E+03  0.91187600000E+02 0.  0.
<mgrwt>
<rscale>  0 0.53456953E+04</rscale>
<asrwt>0</asrwt>
<pdfrwt beam="1">  1        2 0.92536359E+00 0.53456953E+04</pdfrwt>
<pdfrwt beam="2">  1       -2 0.18272976E+00 0.53456953E+04</pdfrwt>
<totfact> 0.34034299E-05</totfact>
</mgrwt>
</event>
<event>
12    1  0.1076827E-009  0.6075311E+04  0.7818608E-02  0.7681134E-01
          2   -1    0    0  501    0  0.00000000000E+00  0.00000000000E+00  0.35714708475E+04  0.35714708475E+04  0.00000000000E+00 0. -1.
         -2   -1    0    0    0  501 -0.00000000000E+00 -0.00000000000E+00 -0.25836275545E+04  0.25836275545E+04  0.00000000000E+00 0.  1.
    9900016    2    1    2    0    0 -0.13978418121E+04 -0.64858666713E+03 -0.66936821404E+03  0.27612942770E+04  0.21913616501E+04 0.  0.
    9900016    2    1    2    0    0  0.12446081883E+04  0.27198928908E+03  0.13553609298E+04  0.28792799972E+04  0.21977766803E+04 0.  0.
         23    2    4    4    0    0  0.13820783698E+03 -0.24749815767E+03  0.16042300735E+04  0.16319128518E+04  0.96066034114E+02 0.  0.
        -15    1    3    3    0    0  0.20487856080E+03  0.42954405337E+03 -0.26768631966E+02  0.47665488366E+03  0.00000000000E+00 0.  1.
        -15    1    5    5    0    0 -0.57937144641E+01 -0.70582168859E+02  0.41586598964E+03  0.42185297324E+03  0.00000000000E+00 0. -1.
         15    1    5    5    0    0  0.14400155144E+03 -0.17691598881E+03  0.11883640839E+04  0.12100598786E+04  0.00000000000E+00 0.  1.
         15    1    3    3    0    0 -0.16713898762E+04 -0.11907130994E+04 -0.64978617513E+03  0.21525714569E+04  0.00000000000E+00 0. -1.
        -16    1    4    4    0    0  0.11064003513E+04  0.51948744675E+03 -0.24886914376E+03  0.12473671454E+04  0.00000000000E+00 0.  1.
         16    1    3    3    0    0  0.68669503301E+02  0.11258237891E+03  0.71865930568E+01  0.13206793648E+03  0.00000000000E+00 0. -1.
    9900018    1    1    2    0    0  0.15323362388E+03  0.37659737805E+03  0.30185057735E+03  0.51452412779E+03  0.91187600000E+02 0.  0.
<mgrwt>
<rscale>  0 0.60753109E+04</rscale>
<asrwt>0</asrwt>
<pdfrwt beam="1">  1        2 0.54945706E+00 0.60753109E+04</pdfrwt>
<pdfrwt beam="2">  1       -2 0.39748116E+00 0.60753109E+04</pdfrwt>
<totfact> 0.37287070E-03</totfact>
</mgrwt>
</event>
<event>
13    1  0.1076827E-009  0.5759169E+04  0.7818608E-02  0.7721001E-01
          2   -1    0    0  501    0  0.00000000000E+00  0.00000000000E+00  0.22316451527E+04  0.22316451527E+04  0.00000000000E+00 0.  1.
         -2   -1    0    0    0  501 -0.00000000000E+00 -0.00000000000E+00 -0.37156473403E+04  0.37156473403E+04  0.00000000000E+00 0. -1.
    9900016    2    1    2    0    0 -0.46609210120E+03  0.13283081835E+03  0.70345429094E+03  0.23645668125E+04  0.22048678868E+04 0.  0.
        -24    2    3    3    0    0 -0.60442862709E+03 -0.94475895801E+03  0.12221686334E+03  0.11324249101E+04  0.97702412106E+02 0.  0.
    9900016    2    1    2    0    0  0.24441865505E+03  0.27499023894E+03 -0.12801343272E+04  0.25594926688E+04  0.21856117486E+04 0.  0.
         23    2    5    5    0    0  0.42541899686E+03 -0.61024253744E+01  0.54830671865E+03  0.70073747571E+03  0.96820399050E+02 0.  0.
        -15    1    6    6    0    0  0.40092217551E+03 -0.45596785152E+01  0.54403910314E+03  0.67582388773E+03  0.00000000000E+00 0.  1.
        -15    1    3    3    0    0  0.13833652589E+03  0.10775897764E+04  0.58123742759E+03  0.12321419024E+04  0.00000000000E+00 0.  1.
         15    1    6    6    0    0  0.24496821347E+02 -0.15427468593E+01  0.42676155083E+01  0.24913587982E+02  0.00000000000E+00 0. -1.
         15    1    4    4    0    0 -0.28061941259E+03 -0.44456339543E+03  0.83787249787E+01  0.52578899790E+03  0.00000000000E+00 0. -1.
        -16    1    4    4    0    0 -0.32380921449E+03 -0.50019556258E+03  0.11383813837E+03  0.60663591219E+03  0.00000000000E+00 0.  1.
         16    1    5    5    0    0 -0.18100034181E+03  0.28109266431E+03 -0.18284410458E+04  0.18587551931E+04  0.00000000000E+00 0. -1.
    9900018    1    1    2    0    0  0.22167344615E+03 -0.40782105729E+03 -0.90732215133E+03  0.10232330117E+04  0.91187600000E+02 0.  0.
<mgrwt>
<rscale>  0 0.57591688E+04</rscale>
<asrwt>0</asrwt>
<pdfrwt beam="1">  1        2 0.34333003E+00 0.57591688E+04</pdfrwt>
<pdfrwt beam="2">  1       -2 0.57163805E+00 0.57591688E+04</pdfrwt>
<totfact> 0.23178246E-03</totfact>
</mgrwt>
</event>
<event>
12    1  0.1076827E-009  0.5320676E+04  0.7818608E-02  0.7780858E-01
         -2   -1    0    0    0  501 -0.00000000000E+00  0.00000000000E+00  0.25565653358E+04  0.25565653358E+04  0.00000000000E+00 0.  1.
          2   -1    0    0  501    0  0.00000000000E+00 -0.00000000000E+00 -0.27683227214E+04  0.27683227214E+04  0.00000000000E+00 0. -1.
    9900016    2    1    2    0    0  0.85631316213E+03  0.66152126506E+03 -0.75221920991E+03  0.25733326167E+04  0.22102769964E+04 0.  0.
    9900016    2    1    2    0    0 -0.52101900309E+03 -0.53527216323E+03  0.41907996532E+03  0.23624413918E+04  0.22017093864E+04 0.  0.
         23    2    4    4    0    0 -0.13854270917E+03 -0.29913980751E+03 -0.90316532889E+03  0.96588161042E+03  0.92417354070E+02 0.  0.
        -15    1    5    5    0    0 -0.14807350658E+03 -0.24713948661E+03 -0.72884355858E+03  0.78371973439E+03  0.00000000000E+00 0. -1.
        -15    1    3    3    0    0  0.73056081641E+03 -0.53211017866E+02 -0.14127490561E+04  0.15913548989E+04  0.00000000000E+00 0.  1.
         15    1    5    5    0    0  0.95307974098E+01 -0.52000320895E+02 -0.17432177032E+03  0.18216187603E+03  0.00000000000E+00 0.  1.
         15    1    3    3    0    0  0.29036301990E+02  0.14032659898E+03  0.14958937456E+03  0.20715125439E+03  0.00000000000E+00 0. -1.
        -16    1    3    3    0    0  0.96716043726E+02  0.57440568395E+03  0.51094047159E+03  0.77482646339E+03  0.00000000000E+00 0.  1.
         16    1    4    4    0    0 -0.38247629392E+03 -0.23613235573E+03  0.13222452942E+04  0.13965597814E+04  0.00000000000E+00 0. -1.
    9900018    1    1    2    0    0 -0.33529415904E+03 -0.12624910183E+03  0.12138185902E+03  0.38911404869E+03  0.91187600000E+02 0.  0.
<mgrwt>
<rscale>  0 0.53206759E+04</rscale>
<asrwt>0</asrwt>
<pdfrwt beam="1">  1        2 0.42589580E+00 0.53206759E+04</pdfrwt>
<pdfrwt beam="2">  1       -2 0.39331774E+00 0.53206759E+04</pdfrwt>
<totfact> 0.14085466E-02</totfact>
</mgrwt>
</event>
<event>
13    1  0.1076827E-009  0.5884650E+04  0.7818608E-02  0.7704871E-01
         -2   -1    0    0    0  501 -0.00000000000E+00  0.00000000000E+00  0.22431288431E+04  0.22431288431E+04  0.00000000000E+00 0.  1.
          2   -1    0    0  501    0  0.00000000000E+00 -0.00000000000E+00 -0.38594647187E+04  0.38594647187E+04  0.00000000000E+00 0. -1.
    9900016    2    1    2    0    0  0.56405634377E+03 -0.11283371412E+04 -0.15646938361E+04  0.30026224605E+04  0.22307331926E+04 0.  0.
        -24    2    3    3    0    0  0.10721289718E+04  0.63920434919E+02 -0.12841837359E+04  0.16766127172E+04  0.91411058365E+02 0.  0.
    9900016    2    1    2    0    0 -0.39515253468E+03  0.69575927292E+03 -0.54756755878E+03  0.24144717155E+04  0.22112478246E+04 0.  0.
         23    2    5    5    0    0 -0.27181691081E+03  0.82336381336E+03  0.72233906145E+03  0.11322246960E+04  0.91359949403E+02 0.  0.
        -15    1    3    3    0    0 -0.50807262803E+03 -0.11922575761E+04 -0.28051010016E+03  0.13260097433E+04  0.00000000000E+00 0.  1.
        -15    1    6    6    0    0 -0.27515838494E+03  0.77721385676E+03  0.67021525103E+03  0.10625262343E+04  0.00000000000E+00 0.  1.
         15    1    4    4    0    0  0.88597895980E+03  0.54490646591E+02 -0.10043918202E+04  0.13404219024E+04  0.00000000000E+00 0. -1.
         15    1    6    6    0    0  0.33414741342E+01  0.46149956605E+02  0.52123810420E+02  0.69698461652E+02  0.00000000000E+00 0. -1.
        -16    1    4    4    0    0  0.18615001200E+03  0.94297883286E+01 -0.27979191572E+03  0.33619081483E+03  0.00000000000E+00 0.  1.
         16    1    5    5    0    0 -0.12333562387E+03 -0.12760454044E+03 -0.12699066202E+04  0.12822470195E+04  0.00000000000E+00 0. -1.
    9900018    1    1    2    0    0 -0.16890380909E+03  0.43257786827E+03  0.49592551925E+03  0.68549938576E+03  0.91187600000E+02 0.  0.
<mgrwt>
<rscale>  0 0.58846501E+04</rscale>
<asrwt>0</asrwt>
<pdfrwt beam="1">  1        2 0.59376380E+00 0.58846501E+04</pdfrwt>
<pdfrwt beam="2">  1       -2 0.34509675E+00 0.58846501E+04</pdfrwt>
<totfact> 0.49945609E-03</totfact>
</mgrwt>
</event>
<event>
13    1  0.1076827E-009  0.6530893E+04  0.7818608E-02  0.7627850E-01
         -1   -1    0    0    0  501 -0.00000000000E+00  0.00000000000E+00  0.27596654621E+04  0.27596654621E+04  0.00000000000E+00 0.  1.
          1   -1    0    0  501    0  0.00000000000E+00 -0.00000000000E+00 -0.38639250136E+04  0.38639250136E+04  0.00000000000E+00 0. -1.
    9900016    2    1    2    0    0 -0.93110091620E+03 -0.14439078562E+04 -0.21040477513E+04  0.34940512914E+04  0.21976256902E+04 0.  0.
         24    2    3    3    0    0  0.71202933621E+03 -0.51706282316E+03 -0.87442704540E+03  0.12421885465E+04  0.63796462645E+02 0.  0.
    9900016    2    1    2    0    0  0.81096281316E+03  0.12233985413E+04  0.71482472807E+03  0.27389282777E+04  0.21991791749E+04 0.  0.
         23    2    5    5    0    0 -0.54098904256E+03  0.10294570640E+03 -0.37421431234E+03  0.67272538183E+03  0.96208758251E+02 0.  0.
        -15    1    6    6    0    0 -0.44817712244E+03  0.87920749361E+02 -0.35063614760E+03  0.57579379924E+03  0.00000000000E+00 0.  1.
        -15    1    4    4    0    0  0.32730580344E+03 -0.23369179811E+03 -0.35530895389E+03  0.53664270999E+03  0.00000000000E+00 0.  1.
         15    1    3    3    0    0 -0.16431302524E+04 -0.92684503299E+03 -0.12296207059E+04  0.22518627449E+04  0.00000000000E+00 0. -1.
         15    1    6    6    0    0 -0.92811920121E+02  0.15024957038E+02 -0.23578164746E+02  0.96931582589E+02  0.00000000000E+00 0. -1.
        -16    1    5    5    0    0  0.13519518557E+04  0.11204528349E+04  0.10890390404E+04  0.20662028959E+04  0.00000000000E+00 0.  1.
         16    1    4    4    0    0  0.38472353276E+03 -0.28337102505E+03 -0.51911809152E+03  0.70554583653E+03  0.00000000000E+00 0. -1.
    9900018    1    1    2    0    0  0.12013810305E+03  0.22050931487E+03  0.28496347171E+03  0.39061090659E+03  0.91187600000E+02 0.  0.
<mgrwt>
<rscale>  0 0.65308929E+04</rscale>
<asrwt>0</asrwt>
<pdfrwt beam="1">  1        1 0.59445000E+00 0.65308929E+04</pdfrwt>
<pdfrwt beam="2">  1       -1 0.42456392E+00 0.65308929E+04</pdfrwt>
<totfact> 0.39149459E-04</totfact>
</mgrwt>
</event>
<event>
13    1  0.1076827E-009  0.7586651E+04  0.7818608E-02  0.7519785E-01
          2   -1    0    0  501    0  0.00000000000E+00  0.00000000000E+00  0.49672523268E+04  0.49672523268E+04  0.00000000000E+00 0. -1.
         -2   -1    0    0    0  501 -0.00000000000E+00 -0.00000000000E+00 -0.28968366494E+04  0.28968366494E+04  0.00000000000E+00 0.  1.
    9900016    2    1    2    0    0 -0.12716058054E+04  0.21074527876E+04 -0.62836109218E+03  0.33616069235E+04  0.22016414035E+04 0.  0.
        -24    2    3    3    0    0 -0.31323751673E+03 -0.43266619143E+01 -0.96669105930E+03  0.10179880580E+04  0.60593895223E+02 0.  0.
    9900016    2    1    2    0    0  0.66367370216E+03 -0.15487891415E+04  0.19960350399E+04  0.34144344302E+04  0.21988624354E+04 0.  0.
         23    2    5    5    0    0 -0.35844270101E+03 -0.13165176532E+03  0.15662444904E+04  0.16150678191E+04  0.97513586113E+02 0.  0.
        -15    1    3    3    0    0 -0.95836828866E+03  0.21117794495E+04  0.33832996712E+03  0.23436188655E+04  0.00000000000E+00 0.  1.
        -15    1    6    6    0    0 -0.21542925721E+03 -0.85727243925E+02  0.74660628789E+03  0.78177993983E+03  0.00000000000E+00 0.  1.
         15    1    4    4    0    0 -0.92285918326E+02 -0.28906705561E+02 -0.30154395535E+03  0.31667182596E+03  0.00000000000E+00 0. -1.
         15    1    6    6    0    0 -0.14301344380E+03 -0.45924521393E+02  0.81963820250E+03  0.83328787929E+03  0.00000000000E+00 0. -1.
        -16    1    4    4    0    0 -0.22095159840E+03  0.24580043647E+02 -0.66514710396E+03  0.70131623201E+03  0.00000000000E+00 0.  1.
         16    1    5    5    0    0  0.10221164032E+04 -0.14171373762E+04  0.42979054949E+03  0.17993666111E+04  0.00000000000E+00 0. -1.
    9900018    1    1    2    0    0  0.60793210323E+03 -0.55866364610E+03  0.70274172970E+03  0.10880476224E+04  0.91187600000E+02 0.  0.
<mgrwt>
<rscale>  0 0.75866511E+04</rscale>
<asrwt>0</asrwt>
<pdfrwt beam="1">  1        2 0.76419267E+00 0.75866511E+04</pdfrwt>
<pdfrwt beam="2">  1       -2 0.44566718E+00 0.75866511E+04</pdfrwt>
<totfact> 0.81966314E-05</totfact>
</mgrwt>
</event>
<event>
12    1  0.1076827E-009  0.5578103E+04  0.7818608E-02  0.7745033E-01
          1   -1    0    0  501    0  0.00000000000E+00  0.00000000000E+00  0.14367750326E+04  0.14367750326E+04  0.00000000000E+00 0. -1.
         -1   -1    0    0    0  501 -0.00000000000E+00 -0.00000000000E+00 -0.54140755063E+04  0.54140755063E+04  0.00000000000E+00 0.  1.
    9900016    2    1    2    0    0  0.11510302770E+04  0.87498062394E+03 -0.15494660870E+04  0.30560423829E+04  0.22018374374E+04 0.  0.
    9900016    2    1    2    0    0 -0.74368550196E+03 -0.89862499843E+03 -0.20158944799E+04  0.32078682209E+04  0.22058995795E+04 0.  0.
         23    2    4    4    0    0  0.38473408605E+03  0.19017183196E+00 -0.16810379760E+04  0.17268792422E+04  0.90569790723E+02 0.  0.
        -15    1    3    3    0    0 -0.18202673439E+03  0.18360930755E+03 -0.13070513611E+04  0.13323773379E+04  0.00000000000E+00 0.  1.
        -15    1    5    5    0    0  0.26585003137E+03 -0.41904420087E+02 -0.11420831818E+04  0.11733653369E+04  0.00000000000E+00 0.  1.
         15    1    3    3    0    0  0.13492669114E+04  0.64801450267E+03 -0.20476594045E+02  0.14969513301E+04  0.00000000000E+00 0. -1.
         15    1    5    5    0    0  0.11888405469E+03  0.42094591919E+02 -0.53895479424E+03  0.55351390530E+03  0.00000000000E+00 0. -1.
        -16    1    4    4    0    0 -0.11284195880E+04 -0.89881517027E+03 -0.33485650387E+03  0.14809889787E+04  0.00000000000E+00 0.  1.
         16    1    3    3    0    0 -0.16209900040E+02  0.43356813725E+02 -0.22193813184E+03  0.22671371489E+03  0.00000000000E+00 0. -1.
    9900018    1    1    2    0    0 -0.40734477502E+03  0.23644374491E+02 -0.41193990686E+03  0.58693993512E+03  0.91187600000E+02 0.  0.
<mgrwt>
<rscale>  0 0.55781031E+04</rscale>
<asrwt>0</asrwt>
<pdfrwt beam="1">  1        1 0.22104231E+00 0.55781031E+04</pdfrwt>
<pdfrwt beam="2">  1       -1 0.83293470E+00 0.55781031E+04</pdfrwt>
<totfact> 0.20510449E-04</totfact>
</mgrwt>
</event>
<event>
12    1  0.1076827E-009  0.5759594E+04  0.7818608E-02  0.7720945E-01
          2   -1    0    0  501    0  0.00000000000E+00  0.00000000000E+00  0.30317015092E+04  0.30317015092E+04  0.00000000000E+00 0. -1.
         -2   -1    0    0    0  501 -0.00000000000E+00 -0.00000000000E+00 -0.27355040960E+04  0.27355040960E+04  0.00000000000E+00 0.  1.
    9900016    2    1    2    0    0  0.15544578336E+04  0.16130154607E+03  0.58753029730E+03  0.27664368448E+04  0.22058158628E+04 0.  0.
    9900016    2    1    2    0    0 -0.15797361633E+04  0.81356413734E+02 -0.34667382161E+03  0.27344988275E+04  0.22034327508E+04 0.  0.
         23    2    4    4    0    0  0.32334421193E+03 -0.24763481656E+03 -0.65735649087E+03  0.77836134126E+03  0.88624712815E+02 0.  0.
        -15    1    5    5    0    0  0.14918246853E+03 -0.93086461698E+02 -0.20887965772E+03  0.27304067404E+03  0.00000000000E+00 0.  1.
        -15    1    3    3    0    0  0.18506094475E+04  0.26079793522E+03 -0.23736219712E+03  0.18839086238E+04  0.00000000000E+00 0.  1.
         15    1    5    5    0    0  0.17416174340E+03 -0.15454835486E+03 -0.44847683315E+03  0.50532066722E+03  0.00000000000E+00 0. -1.
         15    1    3    3    0    0 -0.21486051890E+02 -0.15279653989E+02  0.73795505014E+02  0.78363861647E+02  0.00000000000E+00 0. -1.
        -16    1    3    3    0    0 -0.27466556196E+03 -0.84216735155E+02  0.75109698940E+03  0.80416435938E+03  0.00000000000E+00 0.  1.
         16    1    4    4    0    0 -0.19030803752E+04  0.32899123030E+03  0.31068266925E+03  0.19561374863E+04  0.00000000000E+00 0. -1.
    9900018    1    1    2    0    0  0.25278329666E+02 -0.24265795981E+03  0.55340937506E+02  0.26626993290E+03  0.91187600000E+02 0.  0.
<mgrwt>
<rscale>  0 0.57595944E+04</rscale>
<asrwt>0</asrwt>
<pdfrwt beam="1">  1        2 0.46641562E+00 0.57595944E+04</pdfrwt>
<pdfrwt beam="2">  1       -2 0.42084678E+00 0.57595944E+04</pdfrwt>
<totfact> 0.61825673E-03</totfact>
</mgrwt>
</event>
<event>
12    1  0.1076827E-009  0.5025962E+04  0.7818608E-02  0.7824515E-01
         -2   -1    0    0    0  501 -0.00000000000E+00  0.00000000000E+00  0.24201733513E+04  0.24201733513E+04  0.00000000000E+00 0. -1.
          2   -1    0    0  501    0  0.00000000000E+00 -0.00000000000E+00 -0.26093478212E+04  0.26093478212E+04  0.00000000000E+00 0.  1.
    9900016    2    1    2    0    0 -0.15130382123E+03 -0.13793998567E+03 -0.40138486907E+03  0.22433643665E+04  0.21976472833E+04 0.  0.
    9900016    2    1    2    0    0  0.24781891092E+02  0.42352211567E+03  0.55235703057E+03  0.23154341053E+04  0.22082010058E+04 0.  0.
         23    2    4    4    0    0  0.57915015694E+02 -0.46649552410E+03 -0.65722099001E+03  0.81333284673E+03  0.92728996643E+02 0.  0.
        -15    1    3    3    0    0 -0.11425199270E+04 -0.12519627582E+03  0.32832403512E+02  0.11498277513E+04  0.00000000000E+00 0.  1.
        -15    1    5    5    0    0  0.39867567142E+02 -0.34580407593E+03 -0.41153898702E+03  0.53901226302E+03  0.00000000000E+00 0.  1.
         15    1    5    5    0    0  0.18047448552E+02 -0.12069144817E+03 -0.24568200299E+03  0.27432058372E+03  0.00000000000E+00 0. -1.
         15    1    3    3    0    0  0.48387069998E+03  0.16115562216E+02 -0.13007644021E+03  0.50130873316E+03  0.00000000000E+00 0. -1.
        -16    1    3    3    0    0  0.50734540575E+03 -0.28859272058E+02 -0.30414083236E+03  0.59222788201E+03  0.00000000000E+00 0.  1.
         16    1    4    4    0    0 -0.33133124602E+02  0.89001763977E+03  0.12095780206E+04  0.15021012585E+04  0.00000000000E+00 0. -1.
    9900018    1    1    2    0    0  0.12652193013E+03 -0.28558213000E+03 -0.34014663136E+03  0.47072270075E+03  0.91187600000E+02 0.  0.
<mgrwt>
<rscale>  0 0.50259622E+04</rscale>
<asrwt>0</asrwt>
<pdfrwt beam="1">  1        2 0.40143813E+00 0.50259622E+04</pdfrwt>
<pdfrwt beam="2">  1       -2 0.37233436E+00 0.50259622E+04</pdfrwt>
<totfact> 0.24493846E-02</totfact>
</mgrwt>
</event>
<event>
13    1  0.1076827E-009  0.5495652E+04  0.7818608E-02  0.7756288E-01
          2   -1    0    0  501    0  0.00000000000E+00  0.00000000000E+00  0.28301267206E+04  0.28301267206E+04  0.00000000000E+00 0. -1.
         -2   -1    0    0    0  501 -0.00000000000E+00 -0.00000000000E+00 -0.26679184121E+04  0.26679184121E+04  0.00000000000E+00 0.  1.
    9900016    2    1    2    0    0 -0.10936747714E+04 -0.59570897529E+02  0.75411687131E+03  0.25855680021E+04  0.22173850456E+04 0.  0.
         24    2    3    3    0    0  0.42415422362E+03  0.50394116423E+03 -0.21312287293E+03  0.69959254497E+03  0.10072173345E+03 0.  0.
    9900016    2    1    2    0    0  0.56067177068E+03 -0.12501930692E+03 -0.36882779639E+03  0.22990882254E+04  0.21954020277E+04 0.  0.
         23    2    5    5    0    0  0.44976225226E+03  0.33408270685E+02 -0.12838618520E+04  0.13638409097E+04  0.91425246691E+02 0.  0.
        -15    1    6    6    0    0  0.10681352823E+03  0.45650331105E+02 -0.36183602246E+03  0.38002419620E+03  0.00000000000E+00 0.  1.
        -15    1    4    4    0    0  0.29579961704E+03  0.27542263201E+03 -0.12436200146E+03  0.42287225857E+03  0.00000000000E+00 0.  1.
         15    1    6    6    0    0  0.34294872402E+03 -0.12242060420E+02 -0.92202582956E+03  0.98381671348E+03  0.00000000000E+00 0. -1.
         15    1    3    3    0    0 -0.15178289951E+04 -0.56351206176E+03  0.96723974424E+03  0.18859754571E+04  0.00000000000E+00 0. -1.
        -16    1    5    5    0    0  0.11090951843E+03 -0.15842757760E+03  0.91503405563E+03  0.93524731573E+03  0.00000000000E+00 0.  1.
         16    1    4    4    0    0  0.12835460658E+03  0.22851853222E+03 -0.88760871471E+02  0.27672028639E+03  0.00000000000E+00 0. -1.
    9900018    1    1    2    0    0  0.53300300076E+03  0.18459020444E+03 -0.22308076644E+03  0.61338890529E+03  0.91187600000E+02 0.  0.
<mgrwt>
<rscale>  0 0.54956518E+04</rscale>
<asrwt>0</asrwt>
<pdfrwt beam="1">  1        2 0.43540411E+00 0.54956518E+04</pdfrwt>
<pdfrwt beam="2">  1       -2 0.41044899E+00 0.54956518E+04</pdfrwt>
<totfact> 0.98499515E-03</totfact>
</mgrwt>
</event>
<event>
13    1  0.1076827E-009  0.5325476E+04  0.7818608E-02  0.7780171E-01
         -1   -1    0    0    0  501 -0.00000000000E+00  0.00000000000E+00  0.15605930005E+04  0.15605930005E+04  0.00000000000E+00 0.  1.
          1   -1    0    0  501    0  0.00000000000E+00 -0.00000000000E+00 -0.45432565150E+04  0.45432565150E+04  0.00000000000E+00 0. -1.
    9900016    2    1    2    0    0 -0.22477634768E+02  0.98879686787E+02 -0.16335364317E+03  0.22120107863E+04  0.22036390062E+04 0.  0.
         24    2    3    3    0    0  0.92018475628E+03 -0.53839296513E+03 -0.77378503064E+02  0.10709058214E+04  0.65152704320E+02 0.  0.
    9900016    2    1    2    0    0 -0.11023481589E+03 -0.23416672312E+03 -0.18105612896E+04  0.28613999603E+04  0.22005662409E+04 0.  0.
         23    2    5    5    0    0  0.41350846484E+03 -0.97527107342E+02 -0.21690614291E+04  0.22121698327E+04  0.91471843909E+02 0.  0.
        -15    1    4    4    0    0  0.80599903811E+03 -0.44739730422E+03 -0.58783766808E+02  0.92371766709E+03  0.00000000000E+00 0.  1.
        -15    1    6    6    0    0  0.39199969968E+03 -0.67940587459E+02 -0.19686899073E+04  0.20084869029E+04  0.00000000000E+00 0. -1.
         15    1    6    6    0    0  0.21508765156E+02 -0.29586519884E+02 -0.20037152180E+03  0.20368292978E+03  0.00000000000E+00 0.  1.
         15    1    3    3    0    0 -0.94266239105E+03  0.63727265192E+03 -0.85975140101E+02  0.11411049650E+04  0.00000000000E+00 0. -1.
        -16    1    5    5    0    0 -0.52374328073E+03 -0.13663961578E+03  0.35850013945E+03  0.64923012769E+03  0.00000000000E+00 0.  1.
         16    1    4    4    0    0  0.11418571817E+03 -0.90995660910E+02 -0.18594736256E+02  0.14718815426E+03  0.00000000000E+00 0. -1.
    9900018    1    1    2    0    0  0.13271245066E+03  0.13528703634E+03 -0.10087485817E+04  0.10304387688E+04  0.91187600000E+02 0.  0.
<mgrwt>
<rscale>  0 0.53254762E+04</rscale>
<asrwt>0</asrwt>
<pdfrwt beam="1">  1        1 0.69896254E+00 0.53254762E+04</pdfrwt>
<pdfrwt beam="2">  1       -1 0.24009123E+00 0.53254762E+04</pdfrwt>
<totfact> 0.16414244E-03</totfact>
</mgrwt>
</event>
<event>
12    1  0.1076827E-009  0.6478561E+04  0.7818608E-02  0.7633741E-01
         -2   -1    0    0    0  501 -0.00000000000E+00  0.00000000000E+00  0.32723542155E+04  0.32723542155E+04  0.00000000000E+00 0.  1.
          2   -1    0    0  501    0  0.00000000000E+00 -0.00000000000E+00 -0.32065410948E+04  0.32065410948E+04  0.00000000000E+00 0. -1.
    9900016    2    1    2    0    0 -0.31010305121E+03  0.20857214402E+03  0.15027802321E+04  0.26916995420E+04  0.22016429677E+04 0.  0.
    9900016    2    1    2    0    0  0.10717287701E+03  0.90247557106E+03 -0.84475911023E+03  0.25086680306E+04  0.21803323489E+04 0.  0.
         23    2    4    4    0    0  0.23944229592E+03 -0.62685368494E+03 -0.68817823038E+03  0.96566422493E+03  0.92951402090E+02 0.  0.
        -15    1    5    5    0    0  0.23277046256E+03 -0.55303878601E+03 -0.63987971500E+03  0.87720011214E+03  0.00000000000E+00 0. -1.
        -15    1    3    3    0    0  0.83956463781E+02  0.31280188255E+03  0.60570721199E+03  0.68685874254E+03  0.00000000000E+00 0.  1.
         15    1    3    3    0    0 -0.52956999018E+03 -0.66823301435E+03 -0.92664355418E+02  0.85765168847E+03  0.00000000000E+00 0. -1.
         15    1    5    5    0    0  0.66718333639E+01 -0.73814898930E+02 -0.48298515379E+02  0.88464112793E+02  0.00000000000E+00 0.  1.
        -16    1    4    4    0    0 -0.13226941891E+03  0.15293292560E+04 -0.15658087985E+03  0.15430038057E+04  0.00000000000E+00 0.  1.
         16    1    3    3    0    0  0.13551047518E+03  0.56400327582E+03  0.98973737548E+03  0.11471891110E+04  0.00000000000E+00 0. -1.
    9900018    1    1    2    0    0  0.20293017421E+03 -0.11110477151E+04 -0.59220800115E+03  0.12785277376E+04  0.91187600000E+02 0.  0.
<mgrwt>
<rscale>  0 0.64785610E+04</rscale>
<asrwt>0</asrwt>
<pdfrwt beam="1">  1        2 0.49331402E+00 0.64785610E+04</pdfrwt>
<pdfrwt beam="2">  1       -2 0.50343911E+00 0.64785610E+04</pdfrwt>
<totfact> 0.13256606E-03</totfact>
</mgrwt>
</event>
<event>
13    1  0.1076827E-009  0.6595105E+04  0.7818608E-02  0.7620698E-01
         -1   -1    0    0    0  501 -0.00000000000E+00  0.00000000000E+00  0.48548946169E+04  0.48548946169E+04  0.00000000000E+00 0.  1.
          1   -1    0    0  501    0  0.00000000000E+00 -0.00000000000E+00 -0.22397712225E+04  0.22397712225E+04  0.00000000000E+00 0. -1.
    9900016    2    1    2    0    0 -0.63237278032E+03 -0.11270400578E+04 -0.71550887718E+03  0.26486460869E+04  0.21984673105E+04 0.  0.
         24    2    3    3    0    0 -0.55469775468E+03  0.72859301858E+02 -0.12207294201E+04  0.13444069678E+04  0.65205068029E+02 0.  0.
    9900016    2    1    2    0    0  0.76155972785E+03  0.13364285256E+04  0.30719059715E+04  0.40775265035E+04  0.21962699438E+04 0.  0.
         23    2    5    5    0    0 -0.11450028420E+03  0.44924549607E+03 -0.24617861261E+03  0.53291648548E+03  0.92001306345E+02 0.  0.
        -15    1    6    6    0    0 -0.40999054887E+02  0.28153126147E+03 -0.11133026567E+03  0.30550810421E+03  0.00000000000E+00 0.  1.
        -15    1    4    4    0    0 -0.62336879965E+02 -0.75781808472E+01 -0.17080164209E+03  0.18197943942E+03  0.00000000000E+00 0.  1.
         15    1    6    6    0    0 -0.73501229316E+02  0.16771423460E+03 -0.13484834693E+03  0.22740838126E+03  0.00000000000E+00 0. -1.
         15    1    3    3    0    0 -0.77675025639E+02 -0.11998993597E+04  0.50522054293E+03  0.13042391192E+04  0.00000000000E+00 0. -1.
        -16    1    5    5    0    0  0.87606001205E+03  0.88718302951E+03  0.33180845841E+04  0.35446100180E+04  0.00000000000E+00 0.  1.
         16    1    4    4    0    0 -0.49236087471E+03  0.80437482705E+02 -0.10499277780E+04  0.11624275283E+04  0.00000000000E+00 0. -1.
    9900018    1    1    2    0    0 -0.12918694753E+03 -0.20938846773E+03  0.25872630004E+03  0.36849324900E+03  0.91187600000E+02 0.  0.
<mgrwt>
<rscale>  0 0.65951052E+04</rscale>
<asrwt>0</asrwt>
<pdfrwt beam="1">  1        1 0.34458019E+00 0.65951052E+04</pdfrwt>
<pdfrwt beam="2">  1       -1 0.74690686E+00 0.65951052E+04</pdfrwt>
<totfact> 0.17463298E-04</totfact>
</mgrwt>
</event>
<event>
13    1  0.1076827E-009  0.6531616E+04  0.7818608E-02  0.7627769E-01
          2   -1    0    0  501    0  0.00000000000E+00  0.00000000000E+00  0.34176158613E+04  0.34176158613E+04  0.00000000000E+00 0. -1.
         -2   -1    0    0    0  501 -0.00000000000E+00 -0.00000000000E+00 -0.31207437002E+04  0.31207437002E+04  0.00000000000E+00 0.  1.
    9900016    2    1    2    0    0  0.47663393066E+03  0.16012728242E+03 -0.65768842692E+02  0.22519726119E+04  0.21941363800E+04 0.  0.
         24    2    3    3    0    0 -0.38468150255E+03  0.91721135782E+02 -0.93865673581E+03  0.10237719157E+04  0.10314961212E+03 0.  0.
    9900016    2    1    2    0    0 -0.11243625689E+04  0.66734993106E+03 -0.83521781558E+03  0.26903130612E+04  0.21978736203E+04 0.  0.
         23    2    5    5    0    0  0.35250946495E+03 -0.30030182099E+03 -0.79435158272E+03  0.92419557737E+03  0.93268009993E+02 0.  0.
        -15    1    6    6    0    0  0.87775331596E+02 -0.34185712400E+02 -0.12170844679E+03  0.15390294926E+03  0.00000000000E+00 0.  1.
        -15    1    4    4    0    0 -0.20059634539E+03  0.47430086946E+02 -0.61706465559E+03  0.65058227466E+03  0.00000000000E+00 0.  1.
         15    1    3    3    0    0  0.86131543320E+03  0.68406146639E+02  0.87288789312E+03  0.12282006963E+04  0.00000000000E+00 0. -1.
         15    1    6    6    0    0  0.26473413336E+03 -0.26611610859E+03 -0.67264313593E+03  0.77029262812E+03  0.00000000000E+00 0. -1.
        -16    1    5    5    0    0 -0.14768720338E+04  0.96765175205E+03 -0.40866232856E+02  0.17661174838E+04  0.00000000000E+00 0.  1.
         16    1    4    4    0    0 -0.18408515715E+03  0.44291048837E+02 -0.32159208022E+03  0.37318964101E+03  0.00000000000E+00 0. -1.
    9900018    1    1    2    0    0  0.64772863824E+03 -0.82747721348E+03  0.11978588194E+04  0.15960738884E+04  0.91187600000E+02 0.  0.
<mgrwt>
<rscale>  0 0.65316164E+04</rscale>
<asrwt>0</asrwt>
<pdfrwt beam="1">  1        2 0.52578705E+00 0.65316164E+04</pdfrwt>
<pdfrwt beam="2">  1       -2 0.48011442E+00 0.65316164E+04</pdfrwt>
<totfact> 0.13317145E-03</totfact>
</mgrwt>
</event>
<event>
13    1  0.1076827E-009  0.6210946E+04  0.7818608E-02  0.7664783E-01
         -2   -1    0    0    0  501 -0.00000000000E+00  0.00000000000E+00  0.40552687342E+04  0.40552687342E+04  0.00000000000E+00 0.  1.
          2   -1    0    0  501    0  0.00000000000E+00 -0.00000000000E+00 -0.23781313762E+04  0.23781313762E+04  0.00000000000E+00 0. -1.
    9900016    2    1    2    0    0 -0.48268023623E+03 -0.79581735866E+03  0.21109057076E+04  0.31866860232E+04  0.21983492501E+04 0.  0.
        -24    2    3    3    0    0  0.82288531878E+03 -0.20997820953E+03  0.36400514313E+03  0.92850744096E+03  0.91625473297E+02 0.  0.
    9900016    2    1    2    0    0  0.51060435150E+03  0.62604080130E+03  0.41031876121E+03  0.23804565824E+04  0.22012651285E+04 0.  0.
         23    2    5    5    0    0 -0.19172008891E+03 -0.49027581081E+03  0.83803084907E+03  0.99396459605E+03  0.92428085761E+02 0.  0.
        -15    1    6    6    0    0 -0.14674750354E+03 -0.38231680220E+03  0.71669829586E+03  0.82544376812E+03  0.00000000000E+00 0. -1.
        -15    1    3    3    0    0 -0.13055655550E+04 -0.58583914913E+03  0.17469005645E+04  0.22581785822E+04  0.00000000000E+00 0.  1.
         15    1    4    4    0    0  0.19634651814E+03 -0.55896177146E+02  0.46350055590E+02  0.20934341514E+03  0.00000000000E+00 0. -1.
         15    1    6    6    0    0 -0.44972585378E+02 -0.10795900862E+03  0.12133255321E+03  0.16852082793E+03  0.00000000000E+00 0.  1.
        -16    1    4    4    0    0  0.62653880063E+03 -0.15408203239E+03  0.31765508754E+03  0.71916402583E+03  0.00000000000E+00 0.  1.
         16    1    5    5    0    0  0.70232444041E+03  0.11163166121E+04 -0.42771208786E+03  0.13864919863E+04  0.00000000000E+00 0. -1.
    9900018    1    1    2    0    0 -0.27924115268E+02  0.16977655736E+03 -0.84408711076E+03  0.86625750478E+03  0.91187600000E+02 0.  0.
<mgrwt>
<rscale>  0 0.62109458E+04</rscale>
<asrwt>0</asrwt>
<pdfrwt beam="1">  1        2 0.36586636E+00 0.62109458E+04</pdfrwt>
<pdfrwt beam="2">  1       -2 0.62388750E+00 0.62109458E+04</pdfrwt>
<totfact> 0.11462626E-03</totfact>
</mgrwt>
</event>
<event>
13    1  0.1076827E-009  0.6677532E+04  0.7818608E-02  0.7611638E-01
          2   -1    0    0  501    0  0.00000000000E+00  0.00000000000E+00  0.42218037684E+04  0.42218037684E+04  0.00000000000E+00 0. -1.
         -2   -1    0    0    0  501 -0.00000000000E+00 -0.00000000000E+00 -0.26404254465E+04  0.26404254465E+04  0.00000000000E+00 0.  1.
    9900016    2    1    2    0    0  0.38901207098E+03  0.15381384200E+04 -0.39285958376E+03  0.27427740575E+04  0.22025600304E+04 0.  0.
        -24    2    3    3    0    0  0.56762478996E+03  0.10284867194E+04  0.80709096306E+03  0.14268984274E+04  0.68267599463E+02 0.  0.
    9900016    2    1    2    0    0 -0.23647625540E+03 -0.53507785453E+03  0.50055542385E+03  0.23279605556E+04  0.21969559136E+04 0.  0.
         23    2    5    5    0    0  0.40924377101E+03 -0.30498984388E+03 -0.74421359127E+03  0.90692405143E+03  0.90322182500E+02 0.  0.
        -15    1    6    6    0    0  0.36155896226E+03 -0.25523471505E+03 -0.58595478547E+03  0.73431100602E+03  0.00000000000E+00 0. -1.
        -15    1    3    3    0    0 -0.17861271898E+03  0.50965170053E+03 -0.11999505468E+04  0.13158756302E+04  0.00000000000E+00 0.  1.
         15    1    4    4    0    0  0.24619656552E+03  0.37931306129E+03  0.30069623858E+03  0.54305559129E+03  0.00000000000E+00 0. -1.
         15    1    6    6    0    0  0.47684808752E+02 -0.49755128832E+02 -0.15825880580E+03  0.17261304540E+03  0.00000000000E+00 0.  1.
        -16    1    4    4    0    0  0.32142822444E+03  0.64917365815E+03  0.50639472448E+03  0.88384283608E+03  0.00000000000E+00 0.  1.
         16    1    5    5    0    0 -0.64572002641E+03 -0.23008801065E+03  0.12447690151E+04  0.14210365042E+04  0.00000000000E+00 0. -1.
    9900018    1    1    2    0    0 -0.15253581558E+03 -0.10030605654E+04  0.14736824818E+04  0.17914946018E+04  0.91187600000E+02 0.  0.
<mgrwt>
<rscale>  0 0.66775319E+04</rscale>
<asrwt>0</asrwt>
<pdfrwt beam="1">  1        2 0.64950827E+00 0.66775319E+04</pdfrwt>
<pdfrwt beam="2">  1       -2 0.40621930E+00 0.66775319E+04</pdfrwt>
<totfact> 0.95487064E-04</totfact>
</mgrwt>
</event>
<event>
12    1  0.1076827E-009  0.5690749E+04  0.7818608E-02  0.7729974E-01
          1   -1    0    0  501    0  0.00000000000E+00  0.00000000000E+00  0.26965150445E+04  0.26965150445E+04  0.00000000000E+00 0. -1.
         -1   -1    0    0    0  501 -0.00000000000E+00 -0.00000000000E+00 -0.30024518878E+04  0.30024518878E+04  0.00000000000E+00 0.  1.
    9900016    2    1    2    0    0  0.89518226790E+03  0.12015002002E+04 -0.10617068189E+04  0.28560212294E+04  0.21873915675E+04 0.  0.
    9900016    2    1    2    0    0 -0.86856061939E+03 -0.12100782347E+04  0.72750451388E+03  0.27434650035E+04  0.21860124712E+04 0.  0.
         23    2    4    4    0    0  0.35003019492E+03  0.19952047827E+03 -0.39283413706E+03  0.56927761575E+03  0.86190405225E+02 0.  0.
        -15    1    5    5    0    0  0.31152318871E+02  0.38925809941E+02 -0.81631433070E+02  0.95652373288E+02  0.00000000000E+00 0.  1.
        -15    1    3    3    0    0  0.14369798194E+04  0.13108150321E+03 -0.69080968088E+03  0.15997847908E+04  0.00000000000E+00 0.  1.
         15    1    3    3    0    0 -0.31189754377E+03  0.61272176939E+03 -0.19448851834E+03  0.71451649964E+03  0.00000000000E+00 0. -1.
         15    1    5    5    0    0  0.31887787605E+03  0.16059466833E+03 -0.31120270399E+03  0.47362524246E+03  0.00000000000E+00 0. -1.
        -16    1    3    3    0    0 -0.22990000772E+03  0.45769692764E+03 -0.17640861966E+03  0.54171993891E+03  0.00000000000E+00 0.  1.
         16    1    4    4    0    0 -0.12185908143E+04 -0.14095987130E+04  0.11203386509E+04  0.21741873878E+04  0.00000000000E+00 0. -1.
    9900018    1    1    2    0    0 -0.26621648514E+02  0.85780344552E+01  0.28265461674E+02  0.99480699445E+02  0.91187600000E+02 0.  0.
<mgrwt>
<rscale>  0 0.56907492E+04</rscale>
<asrwt>0</asrwt>
<pdfrwt beam="1">  1        1 0.41484847E+00 0.56907492E+04</pdfrwt>
<pdfrwt beam="2">  1       -1 0.46191568E+00 0.56907492E+04</pdfrwt>
<totfact> 0.18172713E-03</totfact>
</mgrwt>
</event>
<event>
13    1  0.1076827E-009  0.4954797E+04  0.7818608E-02  0.7835518E-01
         -2   -1    0    0    0  501 -0.00000000000E+00  0.00000000000E+00  0.31884838800E+04  0.31884838800E+04  0.00000000000E+00 0.  1.
          2   -1    0    0  501    0  0.00000000000E+00 -0.00000000000E+00 -0.19248970238E+04  0.19248970238E+04  0.00000000000E+00 0. -1.
    9900016    2    1    2    0    0 -0.31719371713E+03 -0.22824886759E+03 -0.16972134576E+03  0.22456812453E+04  0.22048967142E+04 0.  0.
        -24    2    3    3    0    0 -0.12679592328E+03 -0.11490860548E+03 -0.11887448238E+04  0.12028455997E+04  0.66648981766E+02 0.  0.
    9900016    2    1    2    0    0  0.25656702028E+03  0.22752593658E+03  0.10373192542E+04  0.24568486586E+04  0.22005634297E+04 0.  0.
         23    2    5    5    0    0 -0.82699965861E+03  0.61972893845E+03  0.26835715459E+03  0.10714813236E+04  0.89801290912E+02 0.  0.
        -15    1    6    6    0    0 -0.78028004528E+03  0.60783787362E+03  0.25416357387E+03  0.10212262002E+04  0.00000000000E+00 0.  1.
        -15    1    3    3    0    0 -0.19039779385E+03 -0.11334026211E+03  0.10190234781E+04  0.10428356456E+04  0.00000000000E+00 0.  1.
         15    1    6    6    0    0 -0.46719613326E+02  0.11891064825E+02  0.14193580711E+02  0.50255123375E+02  0.00000000000E+00 0. -1.
         15    1    4    4    0    0 -0.88675406190E+02 -0.37038776185E+02 -0.56730550916E+03  0.57538746887E+03  0.00000000000E+00 0. -1.
        -16    1    4    4    0    0 -0.38120517092E+02 -0.77869829297E+02 -0.62143931465E+03  0.62745813082E+03  0.00000000000E+00 0.  1.
         16    1    5    5    0    0  0.10835666789E+04 -0.39220300187E+03  0.76896209961E+03  0.13853673350E+04  0.00000000000E+00 0. -1.
    9900018    1    1    2    0    0  0.60626696856E+02  0.72293100721E+00  0.39598894780E+03  0.41085099996E+03  0.91187600000E+02 0.  0.
<mgrwt>
<rscale>  0 0.49547969E+04</rscale>
<asrwt>0</asrwt>
<pdfrwt beam="1">  1        2 0.29613800E+00 0.49547969E+04</pdfrwt>
<pdfrwt beam="2">  1       -2 0.49053598E+00 0.49547969E+04</pdfrwt>
<totfact> 0.10220977E-02</totfact>
</mgrwt>
</event>
<event>
13    1  0.1076827E-009  0.6381977E+04  0.7818608E-02  0.7644765E-01
          2   -1    0    0  501    0  0.00000000000E+00  0.00000000000E+00  0.29111112999E+04  0.29111112999E+04  0.00000000000E+00 0.  1.
         -2   -1    0    0    0  501 -0.00000000000E+00 -0.00000000000E+00 -0.34977730377E+04  0.34977730377E+04  0.00000000000E+00 0. -1.
    9900016    2    1    2    0    0  0.45941977405E+03  0.48907414522E+02  0.10598867606E+04  0.24910367043E+04  0.22064554047E+04 0.  0.
        -24    2    3    3    0    0 -0.18476655174E+03 -0.90642755874E+03  0.95925554586E+03  0.13344176768E+04  0.68918328072E+02 0.  0.
    9900016    2    1    2    0    0 -0.88445906738E+03 -0.32126772150E+03 -0.21511567085E+04  0.31982761207E+04  0.21716385908E+04 0.  0.
         23    2    5    5    0    0  0.43080878094E+02  0.42543073440E+03  0.26003643215E+03  0.50908641078E+03  0.93288561795E+02 0.  0.
        -15    1    3    3    0    0  0.64418632579E+03  0.95533497327E+03  0.10063121472E+03  0.11566190275E+04  0.00000000000E+00 0.  1.
        -15    1    6    6    0    0  0.37691749872E+02  0.27523548278E+03  0.21770775938E+03  0.35294745712E+03  0.00000000000E+00 0. -1.
         15    1    4    4    0    0 -0.12747434530E+03 -0.73740982487E+03  0.75188867133E+03  0.10608296435E+04  0.00000000000E+00 0. -1.
         15    1    6    6    0    0  0.53891282224E+01  0.15019525162E+03  0.42328672771E+02  0.15613895366E+03  0.00000000000E+00 0.  1.
        -16    1    4    4    0    0 -0.57292206445E+02 -0.16901773387E+03  0.20736687453E+03  0.27358803324E+03  0.00000000000E+00 0.  1.
         16    1    5    5    0    0 -0.92753994548E+03 -0.74669845590E+03 -0.24111931406E+04  0.26891897099E+04  0.00000000000E+00 0. -1.
    9900018    1    1    2    0    0  0.42503929333E+03  0.27236030698E+03  0.50460821009E+03  0.71957151263E+03  0.91187600000E+02 0.  0.
<mgrwt>
<rscale>  0 0.63819767E+04</rscale>
<asrwt>0</asrwt>
<pdfrwt beam="1">  1        2 0.44786327E+00 0.63819767E+04</pdfrwt>
<pdfrwt beam="2">  1       -2 0.53811893E+00 0.63819767E+04</pdfrwt>
<totfact> 0.12998653E-03</totfact>
</mgrwt>
</event>
<event>
12    1  0.1076827E-009  0.6533199E+04  0.7818608E-02  0.7627591E-01
          2   -1    0    0  501    0  0.00000000000E+00  0.00000000000E+00  0.40077983594E+04  0.40077983594E+04  0.00000000000E+00 0. -1.
         -2   -1    0    0    0  501 -0.00000000000E+00 -0.00000000000E+00 -0.26624774644E+04  0.26624774644E+04  0.00000000000E+00 0.  1.
    9900016    2    1    2    0    0 -0.11736267247E+04  0.19942402383E+04  0.75747821124E+03  0.32719759579E+04  0.21857858109E+04 0.  0.
    9900016    2    1    2    0    0  0.11513645791E+04 -0.16173873539E+04  0.48013744394E+03  0.29952746847E+04  0.21907889504E+04 0.  0.
         23    2    4    4    0    0  0.55193579128E+03 -0.23017699719E+03  0.11828530743E+04  0.13286983430E+04  0.93184353544E+02 0.  0.
        -15    1    3    3    0    0  0.80763984361E+02  0.27672721218E+03 -0.54042361579E+03  0.61250180051E+03  0.00000000000E+00 0.  1.
        -15    1    5    5    0    0  0.46778184787E+03 -0.22156810294E+03  0.96605856942E+03  0.10959842339E+04  0.00000000000E+00 0.  1.
         15    1    5    5    0    0  0.84153943410E+02 -0.86088942533E+01  0.21679450486E+03  0.23271410913E+03  0.00000000000E+00 0. -1.
         15    1    3    3    0    0 -0.12527486749E+04  0.16503803045E+04  0.14257011525E+04  0.25151059954E+04  0.00000000000E+00 0. -1.
        -16    1    4    4    0    0  0.59942878782E+03 -0.13872103567E+04 -0.70271563033E+03  0.16665763417E+04  0.00000000000E+00 0.  1.
         16    1    3    3    0    0 -0.16420341972E+01  0.67132721636E+02 -0.12779932547E+03  0.14436816194E+03  0.00000000000E+00 0. -1.
    9900018    1    1    2    0    0  0.22262145625E+02 -0.37685288439E+03  0.10770523989E+03  0.40302518121E+03  0.91187600000E+02 0.  0.
<mgrwt>
<rscale>  0 0.65331992E+04</rscale>
<asrwt>0</asrwt>
<pdfrwt beam="1">  1        2 0.61658436E+00 0.65331992E+04</pdfrwt>
<pdfrwt beam="2">  1       -2 0.40961192E+00 0.65331992E+04</pdfrwt>
<totfact> 0.13932057E-03</totfact>
</mgrwt>
</event>
<event>
13    1  0.1076827E-009  0.5831128E+04  0.7818608E-02  0.7711700E-01
         -1   -1    0    0    0  501 -0.00000000000E+00  0.00000000000E+00  0.46893007078E+04  0.46893007078E+04  0.00000000000E+00 0.  1.
          1   -1    0    0  501    0  0.00000000000E+00 -0.00000000000E+00 -0.18127464621E+04  0.18127464621E+04  0.00000000000E+00 0. -1.
    9900016    2    1    2    0    0  0.56641230766E+03  0.74744660311E+03  0.13418609279E+04  0.27397047561E+04  0.21967913132E+04 0.  0.
         24    2    3    3    0    0  0.12956564003E+04  0.36398245630E+02  0.10792025234E+04  0.16878605895E+04  0.64381234529E+02 0.  0.
    9900016    2    1    2    0    0 -0.80109411863E+03  0.27372446778E+03  0.12689536103E+04  0.26775388929E+04  0.22005213898E+04 0.  0.
         23    2    5    5    0    0 -0.11365795706E+03 -0.22021804988E+03 -0.58286128420E+03  0.64142345156E+03  0.10140338703E+03 0.  0.
        -15    1    4    4    0    0  0.26990170479E+03 -0.15701426297E+02  0.24051579052E+03  0.36185813591E+03  0.00000000000E+00 0.  1.
        -15    1    6    6    0    0 -0.45599592001E+02 -0.15193571774E+02 -0.69902804849E+02  0.84832597153E+02  0.00000000000E+00 0.  1.
         15    1    6    6    0    0 -0.68058365062E+02 -0.20502447811E+03 -0.51295847935E+03  0.55659085441E+03  0.00000000000E+00 0. -1.
         15    1    3    3    0    0 -0.72924409261E+03  0.71104835748E+03  0.26265840455E+03  0.10518441666E+04  0.00000000000E+00 0. -1.
        -16    1    5    5    0    0 -0.68743616156E+03  0.49394251766E+03  0.18518148945E+04  0.20361154414E+04  0.00000000000E+00 0.  1.
         16    1    4    4    0    0  0.10257546955E+04  0.52099671927E+02  0.83868673284E+03  0.13260024536E+04  0.00000000000E+00 0. -1.
    9900018    1    1    2    0    0  0.23468181096E+03 -0.10211710709E+04  0.26573970740E+03  0.10848035209E+04  0.91187600000E+02 0.  0.
<mgrwt>
<rscale>  0 0.58311279E+04</rscale>
<asrwt>0</asrwt>
<pdfrwt beam="1">  1        1 0.27888407E+00 0.58311279E+04</pdfrwt>
<pdfrwt beam="2">  1       -1 0.72143087E+00 0.58311279E+04</pdfrwt>
<totfact> 0.45835741E-04</totfact>
</mgrwt>
</event>
<event>
13    1  0.1076827E-009  0.5635048E+04  0.7818608E-02  0.7737375E-01
         -2   -1    0    0    0  501 -0.00000000000E+00  0.00000000000E+00  0.20156071394E+04  0.20156071394E+04  0.00000000000E+00 0.  1.
          2   -1    0    0  501    0  0.00000000000E+00 -0.00000000000E+00 -0.39384866916E+04  0.39384866916E+04  0.00000000000E+00 0. -1.
    9900016    2    1    2    0    0  0.68859736130E+03 -0.61284759977E+03 -0.17409206636E+04  0.29536288578E+04  0.22007658135E+04 0.  0.
        -24    2    3    3    0    0 -0.18332916246E+03 -0.12687702036E+04 -0.10834098419E+04  0.16797329414E+04  0.65866968329E+02 0.  0.
    9900016    2    1    2    0    0 -0.69329592994E+01  0.63324247698E+03 -0.26748625755E+03  0.23071306980E+04  0.22023303701E+04 0.  0.
         23    2    5    5    0    0 -0.27004430067E+03  0.25536744207E+02 -0.11609535859E+04  0.11950076372E+04  0.81571898648E+02 0.  0.
        -15    1    6    6    0    0 -0.14026194646E+03 -0.27609588786E+02 -0.59758146597E+03  0.61444227678E+03  0.00000000000E+00 0.  1.
        -15    1    3    3    0    0  0.87192652376E+03  0.65592260385E+03 -0.65751082171E+03  0.12738959164E+04  0.00000000000E+00 0.  1.
         15    1    4    4    0    0 -0.14717536748E+03 -0.10535496507E+04 -0.92983581062E+03  0.14128772381E+04  0.00000000000E+00 0. -1.
         15    1    6    6    0    0 -0.12978235420E+03  0.53146332993E+02 -0.56337211991E+03  0.58056536037E+03  0.00000000000E+00 0. -1.
        -16    1    4    4    0    0 -0.36153794978E+02 -0.21522055296E+03 -0.15357403124E+03  0.26685570329E+03  0.00000000000E+00 0.  1.
         16    1    5    5    0    0  0.26311134137E+03  0.60770573278E+03  0.89346732833E+03  0.11121230608E+04  0.00000000000E+00 0. -1.
    9900018    1    1    2    0    0 -0.68166440200E+03 -0.20394877215E+02  0.85527368940E+02  0.69333427523E+03  0.91187600000E+02 0.  0.
<mgrwt>
<rscale>  0 0.56350481E+04</rscale>
<asrwt>0</asrwt>
<pdfrwt beam="1">  1        2 0.60592103E+00 0.56350481E+04</pdfrwt>
<pdfrwt beam="2">  1       -2 0.31009341E+00 0.56350481E+04</pdfrwt>
<totfact> 0.72793648E-03</totfact>
</mgrwt>
</event>
<event>
12    1  0.1076827E-009  0.5822338E+04  0.7818608E-02  0.7712828E-01
         -2   -1    0    0    0  501 -0.00000000000E+00  0.00000000000E+00  0.49528874514E+04  0.49528874514E+04  0.00000000000E+00 0.  1.
          2   -1    0    0  501    0  0.00000000000E+00 -0.00000000000E+00 -0.17111040811E+04  0.17111040811E+04  0.00000000000E+00 0. -1.
    9900016    2    1    2    0    0  0.51289425679E+03 -0.76367503989E+03  0.20820457765E+04  0.31669073106E+04  0.22018463191E+04 0.  0.
    9900016    2    1    2    0    0 -0.91594943221E+03  0.11852672515E+04  0.11138621980E+04  0.29049582238E+04  0.22258192797E+04 0.  0.
         23    2    4    4    0    0  0.39294089725E+03 -0.40730207706E+03  0.48076288239E+03  0.74850611345E+03  0.93972985905E+02 0.  0.
        -15    1    3    3    0    0  0.47832919190E+03 -0.15287004542E+04  0.15365765008E+04  0.22196376365E+04  0.00000000000E+00 0.  1.
        -15    1    5    5    0    0  0.44680301115E+02 -0.17126413991E+02  0.63176083836E+02  0.79251882834E+02  0.00000000000E+00 0. -1.
         15    1    3    3    0    0  0.19118707404E+02  0.11866645743E+03  0.40298710145E+02  0.12677239105E+03  0.00000000000E+00 0. -1.
         15    1    5    5    0    0  0.34826059614E+03 -0.39017566307E+03  0.41758679856E+03  0.66925423062E+03  0.00000000000E+00 0.  1.
        -16    1    3    3    0    0  0.15446357489E+02  0.64635895690E+03  0.50517056558E+03  0.82049728302E+03  0.00000000000E+00 0.  1.
         16    1    4    4    0    0 -0.13088903295E+04  0.15925693285E+04  0.63309931559E+03  0.21564521103E+04  0.00000000000E+00 0. -1.
    9900018    1    1    2    0    0  0.40305517542E+03 -0.42159221159E+03  0.45875395807E+02  0.59212599811E+03  0.91187600000E+02 0.  0.
<mgrwt>
<rscale>  0 0.58223383E+04</rscale>
<asrwt>0</asrwt>
<pdfrwt beam="1">  1        2 0.26324678E+00 0.58223383E+04</pdfrwt>
<pdfrwt beam="2">  1       -2 0.76198268E+00 0.58223383E+04</pdfrwt>
<totfact> 0.83962380E-04</totfact>
</mgrwt>
</event>
<event>
12    1  0.1076827E-009  0.5769771E+04  0.7818608E-02  0.7719621E-01
         -2   -1    0    0    0  501 -0.00000000000E+00  0.00000000000E+00  0.20533714679E+04  0.20533714679E+04  0.00000000000E+00 0.  1.
          2   -1    0    0  501    0  0.00000000000E+00 -0.00000000000E+00 -0.40531222282E+04  0.40531222282E+04  0.00000000000E+00 0. -1.
    9900016    2    1    2    0    0  0.89558213585E+03  0.65119202500E+03 -0.12312457349E+04  0.27533852732E+04  0.21997831683E+04 0.  0.
    9900016    2    1    2    0    0 -0.86519822507E+03 -0.12357861866E+04 -0.66130486520E+03  0.27510448312E+04  0.22034491305E+04 0.  0.
         23    2    4    4    0    0  0.18798680491E+02 -0.26226101535E+03 -0.12713336762E+04  0.13014459424E+04  0.91312617636E+02 0.  0.
        -15    1    5    5    0    0 -0.12498818631E+02 -0.14387700966E+03 -0.86805649349E+03  0.87998800575E+03  0.00000000000E+00 0.  1.
        -15    1    3    3    0    0  0.43888289861E+03  0.88043713048E+02 -0.17852201532E+04  0.18404838737E+04  0.00000000000E+00 0.  1.
         15    1    5    5    0    0  0.31297499122E+02 -0.11838400569E+03 -0.40327718274E+03  0.42145793666E+03  0.00000000000E+00 0. -1.
         15    1    3    3    0    0  0.33257130271E+03  0.42285555550E+03  0.42251019845E+03  0.68405069988E+03  0.00000000000E+00 0. -1.
        -16    1    3    3    0    0  0.12412793452E+03  0.14029275645E+03  0.13146421981E+03  0.22885069965E+03  0.00000000000E+00 0.  1.
         16    1    4    4    0    0 -0.88399690556E+03 -0.97352517123E+03  0.61002881103E+03  0.14495988888E+04  0.00000000000E+00 0. -1.
    9900018    1    1    2    0    0 -0.30383910774E+02  0.58459416159E+03 -0.10720016021E+03  0.60206359177E+03  0.91187600000E+02 0.  0.
<mgrwt>
<rscale>  0 0.57697714E+04</rscale>
<asrwt>0</asrwt>
<pdfrwt beam="1">  1        2 0.62355726E+00 0.57697714E+04</pdfrwt>
<pdfrwt beam="2">  1       -2 0.31590331E+00 0.57697714E+04</pdfrwt>
<totfact> 0.53520865E-03</totfact>
</mgrwt>
</event>
<event>
13    1  0.1076827E-009  0.5777887E+04  0.7818608E-02  0.7718568E-01
         -2   -1    0    0    0  501 -0.00000000000E+00  0.00000000000E+00  0.19013241800E+04  0.19013241800E+04  0.00000000000E+00 0. -1.
          2   -1    0    0  501    0  0.00000000000E+00 -0.00000000000E+00 -0.43895702061E+04  0.43895702061E+04  0.00000000000E+00 0.  1.
    9900016    2    1    2    0    0 -0.15675391981E+04 -0.98750456855E+02 -0.10399576231E+04  0.28906567335E+04  0.21925906373E+04 0.  0.
         24    2    3    3    0    0 -0.26998268168E+03 -0.23055116197E+03  0.65535941949E+03  0.75170273351E+03  0.97552776283E+02 0.  0.
    9900016    2    1    2    0    0  0.17880496763E+04  0.10366553557E+03 -0.13523295656E+04  0.31429978698E+04  0.22004027285E+04 0.  0.
         23    2    5    5    0    0 -0.15269750393E+03  0.58406816172E+03 -0.90919278786E+03  0.10951559558E+04  0.91010421570E+02 0.  0.
        -15    1    6    6    0    0 -0.11754725413E+03  0.51493776771E+03 -0.74135627910E+03  0.91026775957E+03  0.00000000000E+00 0.  1.
        -15    1    4    4    0    0 -0.17542380726E+03 -0.20269636303E+03  0.50841521126E+03  0.57475677880E+03  0.00000000000E+00 0.  1.
         15    1    3    3    0    0 -0.12975565165E+04  0.13180070511E+03 -0.16953170426E+04  0.21389540000E+04  0.00000000000E+00 0. -1.
         15    1    6    6    0    0 -0.35150249800E+02  0.69130394008E+02 -0.16783650877E+03  0.18488819625E+03  0.00000000000E+00 0. -1.
        -16    1    5    5    0    0  0.19407471803E+04 -0.48040262615E+03 -0.44313677773E+03  0.20478419140E+04  0.00000000000E+00 0.  1.
         16    1    4    4    0    0 -0.94558874413E+02 -0.27854798938E+02  0.14694420823E+03  0.17694595470E+03  0.00000000000E+00 0. -1.
    9900018    1    1    2    0    0 -0.22051047820E+03 -0.49150787124E+01 -0.95958837446E+02  0.25723978284E+03  0.91187600000E+02 0.  0.
<mgrwt>
<rscale>  0 0.57778875E+04</rscale>
<asrwt>0</asrwt>
<pdfrwt beam="1">  1        2 0.67531849E+00 0.57778875E+04</pdfrwt>
<pdfrwt beam="2">  1       -2 0.29251141E+00 0.57778875E+04</pdfrwt>
<totfact> 0.37592677E-03</totfact>
</mgrwt>
</event>
<event>
13    1  0.1076827E-009  0.5303509E+04  0.7818608E-02  0.7783321E-01
         -2   -1    0    0    0  501 -0.00000000000E+00  0.00000000000E+00  0.20563324667E+04  0.20563324667E+04  0.00000000000E+00 0.  1.
          2   -1    0    0  501    0  0.00000000000E+00 -0.00000000000E+00 -0.34195841390E+04  0.34195841390E+04  0.00000000000E+00 0. -1.
    9900016    2    1    2    0    0  0.71624687650E+03  0.87530098861E+03  0.80800952825E+01  0.24775135905E+04  0.22042792233E+04 0.  0.
         24    2    3    3    0    0  0.13370545736E+04  0.11731241397E+04  0.10239003079E+03  0.17825350369E+04  0.54884055490E+02 0.  0.
    9900016    2    1    2    0    0 -0.66450766311E+03 -0.75984288161E+03 -0.10396624819E+04  0.26318962429E+04  0.21970544185E+04 0.  0.
         23    2    5    5    0    0 -0.23677087275E+03 -0.45703539575E+03 -0.17057456843E+04  0.17843598320E+04  0.97107524385E+02 0.  0.
        -15    1    4    4    0    0  0.53400577485E+03  0.49979021730E+03  0.55422420983E+02  0.73350124310E+03  0.00000000000E+00 0.  1.
        -15    1    6    6    0    0 -0.34886341930E+02 -0.87316442611E+02 -0.45397485807E+03  0.46361017004E+03  0.00000000000E+00 0.  1.
         15    1    3    3    0    0 -0.62080769705E+03 -0.29782315109E+03 -0.94309935512E+02  0.69497855361E+03  0.00000000000E+00 0. -1.
         15    1    6    6    0    0 -0.20188453082E+03 -0.36971895314E+03 -0.12517708263E+04  0.13207496620E+04  0.00000000000E+00 0. -1.
        -16    1    5    5    0    0 -0.42773679036E+03 -0.30280748586E+03  0.66608320239E+03  0.84753641092E+03  0.00000000000E+00 0.  1.
         16    1    4    4    0    0  0.80304879870E+03  0.67333392241E+03  0.46967609811E+02  0.10490337938E+04  0.00000000000E+00 0. -1.
    9900018    1    1    2    0    0 -0.51739213392E+02 -0.11545810701E+03 -0.33166928568E+03  0.36650677229E+03  0.91187600000E+02 0.  0.
<mgrwt>
<rscale>  0 0.53035090E+04</rscale>
<asrwt>0</asrwt>
<pdfrwt beam="1">  1        2 0.52608987E+00 0.53035090E+04</pdfrwt>
<pdfrwt beam="2">  1       -2 0.31635884E+00 0.53035090E+04</pdfrwt>
<totfact> 0.16539046E-02</totfact>
</mgrwt>
</event>
<event>
12    1  0.1076827E-009  0.5277122E+04  0.7818608E-02  0.7787125E-01
          2   -1    0    0  501    0  0.00000000000E+00  0.00000000000E+00  0.26596093186E+04  0.26596093186E+04  0.00000000000E+00 0. -1.
         -2   -1    0    0    0  501 -0.00000000000E+00 -0.00000000000E+00 -0.26176789812E+04  0.26176789812E+04  0.00000000000E+00 0.  1.
    9900016    2    1    2    0    0  0.17036321590E+03 -0.71873791864E+03  0.72352664251E+03  0.24341453554E+04  0.22036254191E+04 0.  0.
    9900016    2    1    2    0    0 -0.25508429812E+03  0.85006068842E+03 -0.93148868353E+03  0.25346227492E+04  0.21837971838E+04 0.  0.
         23    2    4    4    0    0  0.10665353534E+03 -0.57988439302E+03 -0.87454870395E+03  0.10585335387E+04  0.89537316411E+02 0.  0.
        -15    1    5    5    0    0 -0.13610366847E+02 -0.54257502559E+02 -0.63808121318E+02  0.84856319834E+02  0.00000000000E+00 0. -1.
        -15    1    3    3    0    0 -0.66421771536E+03  0.44264898099E+03 -0.33119661614E+02  0.79888685417E+03  0.00000000000E+00 0.  1.
         15    1    3    3    0    0  0.26254159375E+03 -0.20485600125E+03  0.21203439297E+03  0.39478177960E+03  0.00000000000E+00 0. -1.
         15    1    5    5    0    0  0.12026390219E+03 -0.52562689046E+03 -0.81074058263E+03  0.97367721883E+03  0.00000000000E+00 0.  1.
        -16    1    3    3    0    0  0.57203933751E+03 -0.95653089838E+03  0.54461191115E+03  0.12404767217E+04  0.00000000000E+00 0.  1.
         16    1    4    4    0    0 -0.36173783346E+03  0.14299450814E+04 -0.56939979580E+02  0.14760892105E+04  0.00000000000E+00 0. -1.
    9900018    1    1    2    0    0  0.84721082220E+02 -0.13132276978E+03  0.24989237843E+03  0.30852019517E+03  0.91187600000E+02 0.  0.
<mgrwt>
<rscale>  0 0.52771217E+04</rscale>
<asrwt>0</asrwt>
<pdfrwt beam="1">  1        2 0.40917066E+00 0.52771217E+04</pdfrwt>
<pdfrwt beam="2">  1       -2 0.40271984E+00 0.52771217E+04</pdfrwt>
<totfact> 0.14253540E-02</totfact>
</mgrwt>
</event>
<event>
13    1  0.1076827E-009  0.7632943E+04  0.7818608E-02  0.7515463E-01
          2   -1    0    0  501    0  0.00000000000E+00  0.00000000000E+00  0.35628749933E+04  0.35628749933E+04  0.00000000000E+00 0. -1.
         -2   -1    0    0    0  501 -0.00000000000E+00 -0.00000000000E+00 -0.40881183206E+04  0.40881183206E+04  0.00000000000E+00 0.  1.
    9900016    2    1    2    0    0 -0.13436856078E+04  0.18320740699E+04 -0.20549745404E+04  0.37717596724E+04  0.22002873117E+04 0.  0.
        -24    2    3    3    0    0 -0.49527801152E+02  0.97993756196E+03  0.22912261346E+03  0.10116725605E+04  0.90849156801E+02 0.  0.
    9900016    2    1    2    0    0  0.13188290976E+04 -0.12813611846E+04  0.79910752853E+03  0.29594354708E+04  0.21768070170E+04 0.  0.
         23    2    5    5    0    0  0.17502403037E+03  0.17494063560E+03 -0.58856023230E+03  0.64540719999E+03  0.94391046038E+02 0.  0.
        -15    1    6    6    0    0  0.72802657306E+02  0.51039785986E+02 -0.32331370832E+03  0.33531632924E+03  0.00000000000E+00 0.  1.
        -15    1    3    3    0    0 -0.12941578067E+04  0.85213650795E+03 -0.22840971539E+04  0.27600871119E+04  0.00000000000E+00 0.  1.
         15    1    4    4    0    0 -0.43968541847E+02  0.23101638368E+03  0.32912099824E+02  0.23745527688E+03  0.00000000000E+00 0. -1.
         15    1    6    6    0    0  0.10222137307E+03  0.12390084961E+03 -0.26524652397E+03  0.31009087076E+03  0.00000000000E+00 0. -1.
        -16    1    4    4    0    0 -0.55592593048E+01  0.74892117827E+03  0.19621051364E+03  0.77421728364E+03  0.00000000000E+00 0.  1.
         16    1    5    5    0    0  0.11438050672E+04 -0.14563018202E+04  0.13876677608E+04  0.23140282708E+04  0.00000000000E+00 0. -1.
    9900018    1    1    2    0    0  0.24856510246E+02 -0.55071288526E+03  0.73062368461E+03  0.91979817079E+03  0.91187600000E+02 0.  0.
<mgrwt>
<rscale>  0 0.76329430E+04</rscale>
<asrwt>0</asrwt>
<pdfrwt beam="1">  1        2 0.54813462E+00 0.76329430E+04</pdfrwt>
<pdfrwt beam="2">  1       -2 0.62894127E+00 0.76329430E+04</pdfrwt>
<totfact> 0.17879860E-04</totfact>
</mgrwt>
</event>
<event>
13    1  0.1297815E-009  0.5481093E+04  0.7818608E-02  0.7758296E-01
         -1   -1    0    0    0  501 -0.00000000000E+00  0.00000000000E+00  0.23132022058E+04  0.23132022058E+04  0.00000000000E+00 0.  1.
          1   -1    0    0  501    0  0.00000000000E+00 -0.00000000000E+00 -0.32468388185E+04  0.32468388185E+04  0.00000000000E+00 0. -1.
    9900016    2    1    2    0    0 -0.71032314456E+02 -0.94149974409E+03 -0.14734636220E+04  0.28123413362E+04  0.22015225160E+04 0.  0.
         24    2    3    3    0    0  0.89526583766E+02 -0.29547589687E+03  0.57622365762E+03  0.65726734327E+03  0.68158947307E+02 0.  0.
    9900016    2    1    2    0    0 -0.15647408069E+03  0.66905569411E+03  0.30644502968E+03  0.23132261596E+04  0.21874613252E+04 0.  0.
         23    2    5    5    0    0 -0.87828984080E+02 -0.60879137348E+03  0.73582629081E+03  0.96342115703E+03  0.91646760451E+02 0.  0.
        -15    1    4    4    0    0  0.72357438424E+02 -0.14981171463E+03  0.35193585655E+03  0.38927881507E+03  0.00000000000E+00 0.  1.
        -15    1    6    6    0    0  0.18463925976E+02 -0.70771237445E+02  0.76842973630E+02  0.10608641387E+03  0.00000000000E+00 0. -1.
         15    1    3    3    0    0 -0.16055889822E+03 -0.64602384721E+03 -0.20496872796E+04  0.21550739929E+04  0.00000000000E+00 0. -1.
         15    1    6    6    0    0 -0.10629291006E+03 -0.53802013603E+03  0.65898331718E+03  0.85733474315E+03  0.00000000000E+00 0.  1.
        -16    1    5    5    0    0 -0.68645096610E+02  0.12778470676E+04 -0.42938126112E+03  0.13498050025E+04  0.00000000000E+00 0.  1.
         16    1    4    4    0    0  0.17169145343E+02 -0.14566418224E+03  0.22428780107E+03  0.26798852820E+03  0.00000000000E+00 0. -1.
    9900018    1    1    2    0    0  0.22750639515E+03  0.27244404997E+03  0.23338197959E+03  0.43447352853E+03  0.91187600000E+02 0.  0.
<mgrwt>
<rscale>  0 0.54810929E+04</rscale>
<asrwt>0</asrwt>
<pdfrwt beam="1">  1        1 0.49951366E+00 0.54810929E+04</pdfrwt>
<pdfrwt beam="2">  1       -1 0.35587726E+00 0.54810929E+04</pdfrwt>
<totfact> 0.38679842E-03</totfact>
</mgrwt>
</event>
<event>
12    1  0.1076827E-009  0.6449961E+04  0.7818608E-02  0.7636985E-01
         -2   -1    0    0    0  501 -0.00000000000E+00  0.00000000000E+00  0.48439322887E+04  0.48439322887E+04  0.00000000000E+00 0.  1.
          2   -1    0    0  501    0  0.00000000000E+00 -0.00000000000E+00 -0.21471191274E+04  0.21471191274E+04  0.00000000000E+00 0. -1.
    9900016    2    1    2    0    0  0.82581937088E+03  0.59913836316E+02 -0.27271383338E+03  0.23747620325E+04  0.22089713839E+04 0.  0.
    9900016    2    1    2    0    0 -0.54091616949E+03  0.31168749195E+03  0.84390230424E+03  0.24377915331E+04  0.22002084139E+04 0.  0.
         23    2    4    4    0    0  0.19172599879E+03  0.38044041837E+03  0.14314279236E+04  0.14961557941E+04  0.89456632071E+02 0.  0.
        -15    1    3    3    0    0  0.11323369634E+04  0.22477479161E+03  0.68125195718E+03  0.13404532572E+04  0.00000000000E+00 0.  1.
        -15    1    5    5    0    0  0.16750036226E+03  0.31200767168E+03  0.10566571888E+04  0.11144189397E+04  0.00000000000E+00 0.  1.
         15    1    3    3    0    0 -0.28602575311E+03 -0.88997832761E+02 -0.86605203591E+03  0.91639373338E+03  0.00000000000E+00 0. -1.
         15    1    5    5    0    0  0.24225636529E+02  0.68432746681E+02  0.37477073485E+03  0.38173685437E+03  0.00000000000E+00 0. -1.
        -16    1    3    3    0    0 -0.20491839405E+02 -0.75863122534E+02 -0.87913754653E+02  0.11791504187E+03  0.00000000000E+00 0.  1.
         16    1    4    4    0    0 -0.73264216828E+03 -0.68752926412E+02 -0.58752561939E+03  0.94163573906E+03  0.00000000000E+00 0. -1.
    9900018    1    1    2    0    0 -0.28490320139E+03 -0.37160132827E+03  0.21256246905E+04  0.21784978505E+04  0.91187600000E+02 0.  0.
<mgrwt>
<rscale>  0 0.64499611E+04</rscale>
<asrwt>0</asrwt>
<pdfrwt beam="1">  1        2 0.33032602E+00 0.64499611E+04</pdfrwt>
<pdfrwt beam="2">  1       -2 0.74522035E+00 0.64499611E+04</pdfrwt>
<totfact> 0.55021178E-04</totfact>
</mgrwt>
</event>
<event>
13    1  0.1076827E-009  0.7003038E+04  0.7818608E-02  0.7577122E-01
         -2   -1    0    0    0  501 -0.00000000000E+00  0.00000000000E+00  0.26768371478E+04  0.26768371478E+04  0.00000000000E+00 0.  1.
          2   -1    0    0  501    0  0.00000000000E+00 -0.00000000000E+00 -0.45802688258E+04  0.45802688258E+04  0.00000000000E+00 0. -1.
    9900016    2    1    2    0    0  0.32448959575E+03  0.81565702051E+03 -0.35735035371E+04  0.42830753403E+04  0.21918524057E+04 0.  0.
         24    2    3    3    0    0  0.38741778452E+03  0.12947333590E+04 -0.10533797080E+04  0.17170476303E+04  0.11052938406E+03 0.  0.
    9900016    2    1    2    0    0 -0.28129865048E+03 -0.76854462582E+03  0.14787299186E+04  0.27526442017E+04  0.21726983583E+04 0.  0.
         23    2    5    5    0    0 -0.26641168690E+03  0.20901616898E+02 -0.52684208876E+03  0.59724027935E+03  0.87870929721E+02 0.  0.
        -15    1    6    6    0    0 -0.94137083685E+02  0.48158378560E+02 -0.22551590946E+03  0.24907518016E+03  0.00000000000E+00 0. -1.
        -15    1    4    4    0    0  0.19048722774E+03  0.63464164774E+03 -0.58650025486E+03  0.88489431794E+03  0.00000000000E+00 0.  1.
         15    1    6    6    0    0 -0.17227460321E+03 -0.27256761662E+02 -0.30132617930E+03  0.34816509920E+03  0.00000000000E+00 0.  1.
         15    1    3    3    0    0 -0.62928188772E+02 -0.47907633844E+03 -0.25201238291E+04  0.25660277101E+04  0.00000000000E+00 0. -1.
        -16    1    5    5    0    0 -0.14886963582E+02 -0.78944624272E+03  0.20055720073E+04  0.21554039223E+04  0.00000000000E+00 0.  1.
         16    1    4    4    0    0  0.19693055678E+03  0.66009171121E+03 -0.46687945318E+03  0.83215331232E+03  0.00000000000E+00 0. -1.
    9900018    1    1    2    0    0 -0.43190945273E+02 -0.47112394691E+02  0.19134194055E+03  0.22138643160E+03  0.91187600000E+02 0.  0.
<mgrwt>
<rscale>  0 0.70030376E+04</rscale>
<asrwt>0</asrwt>
<pdfrwt beam="1">  1        2 0.70465673E+00 0.70030376E+04</pdfrwt>
<pdfrwt beam="2">  1       -2 0.41182111E+00 0.70030376E+04</pdfrwt>
<totfact> 0.39132694E-04</totfact>
</mgrwt>
</event>
<event>
13    1  0.1076827E-009  0.6205613E+04  0.7818608E-02  0.7665418E-01
          2   -1    0    0  501    0  0.00000000000E+00  0.00000000000E+00  0.28926630389E+04  0.28926630389E+04  0.00000000000E+00 0. -1.
         -2   -1    0    0    0  501 -0.00000000000E+00 -0.00000000000E+00 -0.33282158813E+04  0.33282158813E+04  0.00000000000E+00 0.  1.
    9900016    2    1    2    0    0 -0.12627223152E+03 -0.12564451588E+04 -0.14871947669E+04  0.29410599222E+04  0.22007921478E+04 0.  0.
        -24    2    3    3    0    0 -0.13563318041E+03  0.63188509154E+03 -0.39200824851E+03  0.75810040085E+03  0.58057060941E+02 0.  0.
    9900016    2    1    2    0    0 -0.24508807150E+03  0.50440815831E+03  0.68131811155E+03  0.23584488066E+04  0.21871421196E+04 0.  0.
         23    2    5    5    0    0 -0.18796433441E+03 -0.92062105592E+02 -0.76210536662E+03  0.79559525158E+03  0.91439554869E+02 0.  0.
        -15    1    6    6    0    0 -0.21003772446E+02 -0.30023247880E+02 -0.52797274683E+02  0.64265901411E+02  0.00000000000E+00 0.  1.
        -15    1    3    3    0    0  0.93609488905E+01 -0.18883302503E+04 -0.10951865184E+04  0.21829595213E+04  0.00000000000E+00 0.  1.
         15    1    4    4    0    0 -0.40178557705E+02  0.27013086181E+03 -0.19218202575E+03  0.33394450141E+03  0.00000000000E+00 0. -1.
         15    1    6    6    0    0 -0.16696056197E+03 -0.62038857711E+02 -0.70930809194E+03  0.73132935017E+03  0.00000000000E+00 0. -1.
        -16    1    4    4    0    0 -0.95454622708E+02  0.36175422974E+03 -0.19982622277E+03  0.42415589945E+03  0.00000000000E+00 0.  1.
         16    1    5    5    0    0 -0.57123737085E+02  0.59647026390E+03  0.14434234782E+04  0.15628535550E+04  0.00000000000E+00 0. -1.
    9900018    1    1    2    0    0  0.37136030302E+03  0.75203700049E+03  0.37032381292E+03  0.92137019138E+03  0.91187600000E+02 0.  0.
<mgrwt>
<rscale>  0 0.62056126E+04</rscale>
<asrwt>0</asrwt>
<pdfrwt beam="1">  1        2 0.44502508E+00 0.62056126E+04</pdfrwt>
<pdfrwt beam="2">  1       -2 0.51203321E+00 0.62056126E+04</pdfrwt>
<totfact> 0.18995428E-03</totfact>
</mgrwt>
</event>
<event>
13    1  0.1076827E-009  0.5303425E+04  0.7818608E-02  0.7783333E-01
          2   -1    0    0  501    0  0.00000000000E+00  0.00000000000E+00  0.23538953789E+04  0.23538953789E+04  0.00000000000E+00 0. -1.
         -2   -1    0    0    0  501 -0.00000000000E+00 -0.00000000000E+00 -0.29872096337E+04  0.29872096337E+04  0.00000000000E+00 0.  1.
    9900016    2    1    2    0    0 -0.90375003005E+03  0.44220635549E+03 -0.45210947431E+02  0.24188061126E+04  0.21991517462E+04 0.  0.
         24    2    3    3    0    0 -0.31707104177E+03 -0.60090109818E+03  0.72217486316E+03  0.99713583527E+03  0.10548538129E+03 0.  0.
    9900016    2    1    2    0    0  0.10570069008E+04 -0.19135694105E+03 -0.75941768710E+03  0.25700534000E+04  0.22078446930E+04 0.  0.
         23    2    5    5    0    0 -0.39135526548E+03  0.63643643258E+02  0.49233386245E+03  0.63882058018E+03  0.92139266330E+02 0.  0.
        -15    1    6    6    0    0 -0.34432784492E+03  0.59763450464E+02  0.47234569376E+03  0.58757449673E+03  0.00000000000E+00 0. -1.
        -15    1    4    4    0    0 -0.23282657804E+03 -0.44430481522E+03  0.59656790983E+03  0.77942815917E+03  0.00000000000E+00 0.  1.
         15    1    6    6    0    0 -0.47027420564E+02  0.38801927941E+01  0.19988168686E+02  0.51246083445E+02  0.00000000000E+00 0.  1.
         15    1    3    3    0    0 -0.58667898829E+03  0.10431074537E+04 -0.76738581059E+03  0.14216702773E+04  0.00000000000E+00 0. -1.
        -16    1    5    5    0    0  0.14483621663E+04 -0.25500058431E+03 -0.12517515495E+04  0.19312328199E+04  0.00000000000E+00 0.  1.
         16    1    4    4    0    0 -0.84244463731E+02 -0.15659628296E+03  0.12560695334E+03  0.21770767610E+03  0.00000000000E+00 0. -1.
    9900018    1    1    2    0    0 -0.15325687076E+03 -0.25084941443E+03  0.17131437965E+03  0.35224549994E+03  0.91187600000E+02 0.  0.
<mgrwt>
<rscale>  0 0.53034249E+04</rscale>
<asrwt>0</asrwt>
<pdfrwt beam="1">  1        2 0.36213775E+00 0.53034249E+04</pdfrwt>
<pdfrwt beam="2">  1       -2 0.45957071E+00 0.53034249E+04</pdfrwt>
<totfact> 0.90494859E-03</totfact>
</mgrwt>
</event>
<event>
13    1  0.1076827E-009  0.5870872E+04  0.7818608E-02  0.7706621E-01
         -2   -1    0    0    0  501 -0.00000000000E+00  0.00000000000E+00  0.23110001546E+04  0.23110001546E+04  0.00000000000E+00 0. -1.
          2   -1    0    0  501    0  0.00000000000E+00 -0.00000000000E+00 -0.37285959683E+04  0.37285959683E+04  0.00000000000E+00 0.  1.
    9900016    2    1    2    0    0  0.13971868824E+04  0.36457601635E+03 -0.11173127363E+04  0.28560245840E+04  0.21962335526E+04 0.  0.
        -24    2    3    3    0    0 -0.38545245909E+03  0.14767322995E+03 -0.96487735676E+03  0.10537797656E+04  0.95302149254E+02 0.  0.
    9900016    2    1    2    0    0 -0.53336847056E+03 -0.11432505461E+03 -0.25849250924E+03  0.22786574974E+04  0.21972504339E+04 0.  0.
         23    2    5    5    0    0  0.95310419596E+02  0.67441246760E+03 -0.86277918501E+03  0.11028571689E+04  0.89385459821E+02 0.  0.
        -15    1    6    6    0    0  0.11136804532E+02  0.18978013827E+02 -0.54854977015E+02  0.59103823288E+02  0.00000000000E+00 0.  1.
        -15    1    3    3    0    0  0.17826393415E+04  0.21690278639E+03 -0.15243537957E+03  0.18022448185E+04  0.00000000000E+00 0.  1.
         15    1    4    4    0    0 -0.22931185905E+03  0.46748330751E+02 -0.46786180033E+03  0.52312904654E+03  0.00000000000E+00 0. -1.
         15    1    6    6    0    0  0.84173615064E+02  0.65543445377E+03 -0.80792420799E+03  0.10437533456E+04  0.00000000000E+00 0. -1.
        -16    1    4    4    0    0 -0.15614060004E+03  0.10092489920E+03 -0.49701555643E+03  0.53065071902E+03  0.00000000000E+00 0.  1.
         16    1    5    5    0    0 -0.62867889015E+03 -0.78873752220E+03  0.60428667576E+03  0.11758003284E+04  0.00000000000E+00 0. -1.
    9900018    1    1    2    0    0 -0.86381841188E+03 -0.25025096174E+03 -0.41790568194E+02  0.90491404152E+03  0.91187600000E+02 0.  0.
<mgrwt>
<rscale>  0 0.58708725E+04</rscale>
<asrwt>0</asrwt>
<pdfrwt beam="1">  1        2 0.57363015E+00 0.58708725E+04</pdfrwt>
<pdfrwt beam="2">  1       -2 0.35553849E+00 0.58708725E+04</pdfrwt>
<totfact> 0.54068826E-03</totfact>
</mgrwt>
</event>
<event>
12    1  0.1076827E-009  0.5099535E+04  0.7818608E-02  0.7813334E-01
          1   -1    0    0  501    0  0.00000000000E+00  0.00000000000E+00  0.18118624154E+04  0.18118624154E+04  0.00000000000E+00 0. -1.
         -1   -1    0    0    0  501 -0.00000000000E+00 -0.00000000000E+00 -0.35881943031E+04  0.35881943031E+04  0.00000000000E+00 0.  1.
    9900016    2    1    2    0    0  0.49558354766E+03  0.75887563173E+03 -0.10385132447E+04  0.25933219792E+04  0.21966597031E+04 0.  0.
    9900016    2    1    2    0    0 -0.21245170418E+03 -0.39556397413E+03 -0.58309278727E+03  0.23123520230E+04  0.21921149822E+04 0.  0.
         23    2    4    4    0    0  0.17112965137E+03  0.20372454765E+03  0.75032207127E+03  0.80096968429E+03  0.88205303859E+02 0.  0.
        -15    1    5    5    0    0  0.14482957927E+03  0.15883348338E+03  0.68213369972E+03  0.71519931961E+03  0.00000000000E+00 0.  1.
        -15    1    3    3    0    0  0.12212340385E+04  0.92197420079E+02 -0.10583355527E+03  0.12292736402E+04  0.00000000000E+00 0.  1.
         15    1    3    3    0    0 -0.33325752486E+03  0.24818632446E+03 -0.46748537966E+03  0.62545951885E+03  0.00000000000E+00 0. -1.
         15    1    5    5    0    0  0.26300072104E+02  0.44891064264E+02  0.68188371547E+02  0.85770364682E+02  0.00000000000E+00 0. -1.
        -16    1    3    3    0    0 -0.39239296602E+03  0.41849188719E+03 -0.46519430975E+03  0.73858882015E+03  0.00000000000E+00 0.  1.
         16    1    4    4    0    0 -0.38358135555E+03 -0.59928852178E+03 -0.13334148585E+04  0.15113823387E+04  0.00000000000E+00 0. -1.
    9900018    1    1    2    0    0 -0.28313184348E+03 -0.36331165759E+03 -0.15472585574E+03  0.49438271629E+03  0.91187600000E+02 0.  0.
<mgrwt>
<rscale>  0 0.50995350E+04</rscale>
<asrwt>0</asrwt>
<pdfrwt beam="1">  1        1 0.27874807E+00 0.50995350E+04</pdfrwt>
<pdfrwt beam="2">  1       -1 0.55202988E+00 0.50995350E+04</pdfrwt>
<totfact> 0.21207940E-03</totfact>
</mgrwt>
</event>
<event>
13    1  0.1076827E-009  0.5210073E+04  0.7818608E-02  0.7796894E-01
         -1   -1    0    0    0  501 -0.00000000000E+00  0.00000000000E+00  0.26285887084E+04  0.26285887084E+04  0.00000000000E+00 0.  1.
          1   -1    0    0  501    0  0.00000000000E+00 -0.00000000000E+00 -0.25816954016E+04  0.25816954016E+04  0.00000000000E+00 0. -1.
    9900016    2    1    2    0    0  0.25159798128E+03  0.10278393628E+04 -0.63777559188E+03  0.25235120585E+04  0.22003636299E+04 0.  0.
         24    2    3    3    0    0 -0.97098555493E+03  0.41068220380E+03 -0.13426136264E+03  0.10643616067E+04  0.58023235389E+02 0.  0.
    9900016    2    1    2    0    0 -0.28659520519E+03 -0.83758205182E+03  0.56236660855E+03  0.24404071218E+04  0.22035539958E+04 0.  0.
         23    2    5    5    0    0 -0.26963314744E+03  0.39052673289E+03  0.10208221997E+04  0.11294073401E+04  0.90938512293E+02 0.  0.
        -15    1    6    6    0    0 -0.71012177221E+02  0.43720418537E+02  0.18718267052E+03  0.20491841414E+03  0.00000000000E+00 0. -1.
        -15    1    4    4    0    0 -0.78202466617E+03  0.34804087642E+03 -0.92544071680E+02  0.86096424743E+03  0.00000000000E+00 0.  1.
         15    1    6    6    0    0 -0.19862097022E+03  0.34680631435E+03  0.83363952922E+03  0.92448892593E+03  0.00000000000E+00 0.  1.
         15    1    3    3    0    0  0.12225835362E+04  0.61715715902E+03 -0.50351422923E+03  0.14591504518E+04  0.00000000000E+00 0. -1.
        -16    1    5    5    0    0 -0.16962057749E+02 -0.12281087847E+04 -0.45845559120E+03  0.13109997817E+04  0.00000000000E+00 0.  1.
         16    1    4    4    0    0 -0.18896088876E+03  0.62641327377E+02 -0.41717290964E+02  0.20339735923E+03  0.00000000000E+00 0. -1.
    9900018    1    1    2    0    0  0.34997223913E+02 -0.19025731100E+03  0.12230229013E+03  0.24636492980E+03  0.91187600000E+02 0.  0.
<mgrwt>
<rscale>  0 0.52100731E+04</rscale>
<asrwt>0</asrwt>
<pdfrwt beam="1">  1        1 0.39718391E+00 0.52100731E+04</pdfrwt>
<pdfrwt beam="2">  1       -1 0.40439826E+00 0.52100731E+04</pdfrwt>
<totfact> 0.56366018E-03</totfact>
</mgrwt>
</event>
<event>
13    1  0.1076827E-009  0.5815613E+04  0.7818608E-02  0.7713693E-01
          1   -1    0    0  501    0  0.00000000000E+00  0.00000000000E+00  0.26394671437E+04  0.26394671437E+04  0.00000000000E+00 0. -1.
         -1   -1    0    0    0  501 -0.00000000000E+00 -0.00000000000E+00 -0.32034262016E+04  0.32034262016E+04  0.00000000000E+00 0.  1.
    9900016    2    1    2    0    0 -0.79603757476E+03 -0.94145407162E+02  0.88566179066E+03  0.25041542346E+04  0.22008753816E+04 0.  0.
         24    2    3    3    0    0  0.37120543871E+03  0.11361846917E+02 -0.54068704153E+03  0.65806132683E+03  0.52722516045E+02 0.  0.
    9900016    2    1    2    0    0  0.91561170391E+03  0.53921826979E+03 -0.15018620918E+04  0.28660530084E+04  0.21976280325E+04 0.  0.
         23    2    5    5    0    0 -0.58366632427E+02 -0.34604997481E+03 -0.15068900752E+04  0.15498619337E+04  0.90537648272E+02 0.  0.
        -15    1    4    4    0    0  0.11139704716E+03  0.13342302359E+02 -0.12605779531E+03  0.16875392412E+03  0.00000000000E+00 0.  1.
        -15    1    6    6    0    0 -0.51605948432E+02 -0.80922194693E+02 -0.45940103036E+03  0.46931959495E+03  0.00000000000E+00 0. -1.
         15    1    3    3    0    0 -0.11672430135E+04 -0.10550725408E+03  0.14263488322E+04  0.18460929078E+04  0.00000000000E+00 0. -1.
         15    1    6    6    0    0 -0.67606839948E+01 -0.26512778011E+03 -0.10474890449E+04  0.10805423387E+04  0.00000000000E+00 0.  1.
        -16    1    5    5    0    0  0.97397833634E+03  0.88526824460E+03  0.50279834218E+01  0.13161910747E+04  0.00000000000E+00 0.  1.
         16    1    4    4    0    0  0.25980839155E+03 -0.19804554424E+01 -0.41462924622E+03  0.48930740271E+03  0.00000000000E+00 0. -1.
    9900018    1    1    2    0    0 -0.11957412915E+03 -0.44507286263E+03  0.52241243209E+02  0.47268610229E+03  0.91187600000E+02 0.  0.
<mgrwt>
<rscale>  0 0.58156129E+04</rscale>
<asrwt>0</asrwt>
<pdfrwt beam="1">  1        1 0.40607187E+00 0.58156129E+04</pdfrwt>
<pdfrwt beam="2">  1       -1 0.49283479E+00 0.58156129E+04</pdfrwt>
<totfact> 0.12274512E-03</totfact>
</mgrwt>
</event>
<event>
12    1  0.1076827E-009  0.6291555E+04  0.7818608E-02  0.7655267E-01
         -2   -1    0    0    0  501 -0.00000000000E+00  0.00000000000E+00  0.29143484434E+04  0.29143484434E+04  0.00000000000E+00 0.  1.
          2   -1    0    0  501    0  0.00000000000E+00 -0.00000000000E+00 -0.33955840942E+04  0.33955840942E+04  0.00000000000E+00 0. -1.
    9900016    2    1    2    0    0 -0.38008843630E+03  0.21160049202E+04 -0.18399532905E+03  0.30781698792E+04  0.21952975840E+04 0.  0.
    9900016    2    1    2    0    0  0.50394753893E+03 -0.19282068758E+04 -0.26869373536E+03  0.29873464790E+04  0.22090943357E+04 0.  0.
         23    2    4    4    0    0 -0.40454523704E+03  0.40582790391E+02 -0.66355303209E+03  0.78339417958E+03  0.90000014006E+02 0.  0.
        -15    1    3    3    0    0  0.88189612572E+02  0.72822742396E+03  0.33853581783E+03  0.80789794450E+03  0.00000000000E+00 0.  1.
        -15    1    5    5    0    0 -0.37973733718E+03  0.14588608704E+02 -0.61607210667E+03  0.72384951016E+03  0.00000000000E+00 0.  1.
         15    1    5    5    0    0 -0.24807899855E+02  0.25994181687E+02 -0.47480925419E+02  0.59544669412E+02  0.00000000000E+00 0. -1.
         15    1    3    3    0    0 -0.76578103927E+03  0.11516866093E+04 -0.96554852096E+03  0.16867384482E+04  0.00000000000E+00 0. -1.
        -16    1    4    4    0    0  0.90849277597E+03 -0.19687896662E+04  0.39485929672E+03  0.22039522994E+04  0.00000000000E+00 0.  1.
         16    1    3    3    0    0  0.29750299040E+03  0.23609088698E+03  0.44301737409E+03  0.58353348658E+03  0.00000000000E+00 0. -1.
    9900018    1    1    2    0    0 -0.12385910264E+03 -0.18779804440E+03 -0.28546586400E+02  0.24441617945E+03  0.91187600000E+02 0.  0.
<mgrwt>
<rscale>  0 0.62915547E+04</rscale>
<asrwt>0</asrwt>
<pdfrwt beam="1">  1        2 0.52239755E+00 0.62915547E+04</pdfrwt>
<pdfrwt beam="2">  1       -2 0.44836130E+00 0.62915547E+04</pdfrwt>
<totfact> 0.22562912E-03</totfact>
</mgrwt>
</event>
<event>
13    1  0.1076827E-009  0.5339082E+04  0.7818608E-02  0.7778228E-01
         -2   -1    0    0    0  501 -0.00000000000E+00  0.00000000000E+00  0.20525067372E+04  0.20525067372E+04  0.00000000000E+00 0.  1.
          2   -1    0    0  501    0  0.00000000000E+00 -0.00000000000E+00 -0.34720706133E+04  0.34720706133E+04  0.00000000000E+00 0. -1.
    9900016    2    1    2    0    0 -0.84823363684E+03 -0.40584954987E+02 -0.18946257768E+04  0.30206249498E+04  0.21939509593E+04 0.  0.
         24    2    3    3    0    0  0.35302761334E+03 -0.73538574830E+03 -0.22930921481E+03  0.85289434258E+03  0.97084236737E+02 0.  0.
    9900016    2    1    2    0    0  0.72989445886E+03  0.60929627817E+02  0.44745347444E+03  0.23506700784E+04  0.21883731092E+04 0.  0.
         23    2    5    5    0    0  0.30864112000E+03  0.18158288887E+02  0.13317908779E+04  0.13701924366E+04  0.90395278477E+02 0.  0.
        -15    1    6    6    0    0  0.18595639713E+03  0.53142771653E+02  0.85791898846E+03  0.87944808066E+03  0.00000000000E+00 0. -1.
        -15    1    4    4    0    0  0.15536032830E+03 -0.29039083236E+03 -0.13995297237E+03  0.35784144758E+03  0.00000000000E+00 0.  1.
         15    1    3    3    0    0 -0.12012612502E+04  0.69480079331E+03 -0.16653165620E+04  0.21677306072E+04  0.00000000000E+00 0. -1.
         15    1    6    6    0    0  0.12268472287E+03 -0.34984482766E+02  0.47387188947E+03  0.49074435594E+03  0.00000000000E+00 0.  1.
        -16    1    5    5    0    0  0.42125333886E+03  0.42771338930E+02 -0.88433740349E+03  0.98047764184E+03  0.00000000000E+00 0.  1.
         16    1    4    4    0    0  0.19766728504E+03 -0.44499491594E+03 -0.89356242439E+02  0.49505289500E+03  0.00000000000E+00 0. -1.
    9900018    1    1    2    0    0  0.11833917798E+03 -0.20344672829E+02  0.27608426312E+02  0.15328232238E+03  0.91187600000E+02 0.  0.
<mgrwt>
<rscale>  0 0.53390817E+04</rscale>
<asrwt>0</asrwt>
<pdfrwt beam="1">  1        2 0.53416471E+00 0.53390817E+04</pdfrwt>
<pdfrwt beam="2">  1       -2 0.31577027E+00 0.53390817E+04</pdfrwt>
<totfact> 0.15294791E-02</totfact>
</mgrwt>
</event>
<event>
13    1  0.1076827E-009  0.6955796E+04  0.7818608E-02  0.7582011E-01
         -1   -1    0    0    0  501 -0.00000000000E+00  0.00000000000E+00  0.53202230262E+04  0.53202230262E+04  0.00000000000E+00 0.  1.
          1   -1    0    0  501    0  0.00000000000E+00 -0.00000000000E+00 -0.22735467090E+04  0.22735467090E+04  0.00000000000E+00 0. -1.
    9900016    2    1    2    0    0 -0.51026477281E+03  0.54487722281E+03 -0.63171955843E+03  0.24063884326E+04  0.21987210741E+04 0.  0.
        -24    2    3    3    0    0 -0.51637295076E+03 -0.72867685320E+03 -0.69261758570E+03  0.11313645646E+04  0.51533263778E+02 0.  0.
    9900016    2    1    2    0    0 -0.42178648512E+03 -0.46153130932E+03  0.12829363113E+04  0.26140162309E+04  0.21900320291E+04 0.  0.
         23    2    5    5    0    0 -0.46775317049E+03 -0.70508909496E+02  0.18567304778E+04  0.19181346326E+04  0.89598364132E+02 0.  0.
        -15    1    3    3    0    0  0.61081779447E+01  0.12735540760E+04  0.60898027272E+02  0.12750238680E+04  0.00000000000E+00 0.  1.
        -15    1    6    6    0    0 -0.31601896293E+03 -0.66161384889E+02  0.14035316098E+04  0.14401896727E+04  0.00000000000E+00 0.  1.
         15    1    6    6    0    0 -0.15173420756E+03 -0.43475246075E+01  0.45319886800E+03  0.47794495988E+03  0.00000000000E+00 0. -1.
         15    1    4    4    0    0 -0.37040276182E+03 -0.48684333232E+03 -0.45853451923E+03  0.76450542282E+03  0.00000000000E+00 0. -1.
        -16    1    4    4    0    0 -0.14597018894E+03 -0.24183352089E+03 -0.23408306646E+03  0.36685914175E+03  0.00000000000E+00 0.  1.
         16    1    5    5    0    0  0.45966685367E+02 -0.39102239982E+03 -0.57379416654E+03  0.69588159832E+03  0.00000000000E+00 0. -1.
    9900018    1    1    2    0    0  0.93205125794E+03 -0.83345913490E+02  0.23954595644E+04  0.25733650716E+04  0.91187600000E+02 0.  0.
<mgrwt>
<rscale>  0 0.69557963E+04</rscale>
<asrwt>0</asrwt>
<pdfrwt beam="1">  1        1 0.34977642E+00 0.69557963E+04</pdfrwt>
<pdfrwt beam="2">  1       -1 0.81849585E+00 0.69557963E+04</pdfrwt>
<totfact> 0.63785756E-05</totfact>
</mgrwt>
</event>
<event>
13    1  0.1076827E-009  0.5680308E+04  0.7818608E-02  0.7731355E-01
         -2   -1    0    0    0  501 -0.00000000000E+00  0.00000000000E+00  0.39441038935E+04  0.39441038935E+04  0.00000000000E+00 0. -1.
          2   -1    0    0  501    0  0.00000000000E+00 -0.00000000000E+00 -0.20451984915E+04  0.20451984915E+04  0.00000000000E+00 0.  1.
    9900016    2    1    2    0    0 -0.20591321512E+03  0.17030131391E+03  0.27191141815E+04  0.35150088242E+04  0.22114027929E+04 0.  0.
         24    2    3    3    0    0  0.21731952105E+02 -0.95441501690E+03  0.68132739904E+03  0.11763373813E+04  0.90456109821E+02 0.  0.
    9900016    2    1    2    0    0  0.18073216582E+03 -0.96664913113E+02 -0.73100758277E+03  0.23248665330E+04  0.21974130447E+04 0.  0.
         23    2    5    5    0    0  0.27945508482E+03 -0.20069507492E+03  0.75363035666E+03  0.83331757282E+03  0.89921105191E+02 0.  0.
        -15    1    6    6    0    0  0.22147236823E+03 -0.10904110368E+03  0.53901683051E+03  0.59285674135E+03  0.00000000000E+00 0. -1.
        -15    1    4    4    0    0 -0.27184896386E+02 -0.43776486046E+03  0.34347057232E+03  0.55708987219E+03  0.00000000000E+00 0.  1.
         15    1    3    3    0    0 -0.22764516722E+03  0.11247163308E+04  0.20377867825E+04  0.23386714429E+04  0.00000000000E+00 0. -1.
         15    1    6    6    0    0  0.57982716592E+02 -0.91653971247E+02  0.21461352614E+03  0.24046083147E+03  0.00000000000E+00 0.  1.
        -16    1    5    5    0    0 -0.98722919001E+02  0.10403016181E+03 -0.14846379394E+04  0.14915489601E+04  0.00000000000E+00 0.  1.
         16    1    4    4    0    0  0.48916848491E+02 -0.51665015644E+03  0.33785682672E+03  0.61924750914E+03  0.00000000000E+00 0. -1.
    9900018    1    1    2    0    0  0.25181049297E+02 -0.73636400793E+02 -0.89201196770E+02  0.14942702789E+03  0.91187600000E+02 0.  0.
<mgrwt>
<rscale>  0 0.56803082E+04</rscale>
<asrwt>0</asrwt>
<pdfrwt beam="1">  1        2 0.31464592E+00 0.56803082E+04</pdfrwt>
<pdfrwt beam="2">  1       -2 0.60678521E+00 0.56803082E+04</pdfrwt>
<totfact> 0.21160446E-03</totfact>
</mgrwt>
</event>
<event>
12    1  0.1076827E-009  0.7563196E+04  0.7818608E-02  0.7521986E-01
          1   -1    0    0  501    0  0.00000000000E+00  0.00000000000E+00  0.40989977304E+04  0.40989977304E+04  0.00000000000E+00 0.  1.
         -1   -1    0    0    0  501 -0.00000000000E+00 -0.00000000000E+00 -0.34887753241E+04  0.34887753241E+04  0.00000000000E+00 0. -1.
    9900016    2    1    2    0    0 -0.64961998616E+03 -0.43618111205E+03  0.22088138174E+04  0.32109763856E+04  0.21952792032E+04 0.  0.
    9900016    2    1    2    0    0 -0.25412736351E+02  0.50616989983E+03 -0.24213874320E+04  0.33063406552E+04  0.21936083648E+04 0.  0.
         23    2    4    4    0    0 -0.41463468923E+03 -0.52313937445E+03 -0.20290695231E+04  0.21380578760E+04  0.92583047354E+02 0.  0.
        -15    1    5    5    0    0 -0.39396110023E+03 -0.51180433855E+03 -0.18979365332E+04  0.20048222149E+04  0.00000000000E+00 0. -1.
        -15    1    3    3    0    0 -0.79189227754E+02 -0.28180484346E+03  0.49031758911E+03  0.57104837079E+03  0.00000000000E+00 0.  1.
         15    1    5    5    0    0 -0.20673588991E+02 -0.11335035905E+02 -0.13113298991E+03  0.13323566101E+03  0.00000000000E+00 0.  1.
         15    1    3    3    0    0 -0.19821959644E+03  0.82917323393E+03  0.36874954696E+03  0.92886785318E+03  0.00000000000E+00 0. -1.
        -16    1    4    4    0    0  0.38922195287E+03  0.10293092743E+04 -0.39231790884E+03  0.11682827793E+04  0.00000000000E+00 0.  1.
         16    1    3    3    0    0 -0.37221116197E+03 -0.98354950252E+03  0.13497466813E+04  0.17110601616E+04  0.00000000000E+00 0. -1.
    9900018    1    1    2    0    0  0.67503272251E+03 -0.69988787775E+02  0.82279602091E+03  0.10704560137E+04  0.91187600000E+02 0.  0.
<mgrwt>
<rscale>  0 0.75631957E+04</rscale>
<asrwt>0</asrwt>
<pdfrwt beam="1">  1        1 0.63061503E+00 0.75631957E+04</pdfrwt>
<pdfrwt beam="2">  1       -1 0.53673467E+00 0.75631957E+04</pdfrwt>
<totfact> 0.42156280E-05</totfact>
</mgrwt>
</event>
<event>
12    1  0.1076827E-009  0.6092277E+04  0.7818608E-02  0.7679065E-01
         -2   -1    0    0    0  501 -0.00000000000E+00  0.00000000000E+00  0.47320954663E+04  0.47320954663E+04  0.00000000000E+00 0. -1.
          2   -1    0    0  501    0  0.00000000000E+00 -0.00000000000E+00 -0.19608564348E+04  0.19608564348E+04  0.00000000000E+00 0.  1.
    9900016    2    1    2    0    0  0.46602784100E+03  0.15544158009E+04  0.93927570850E+03  0.28892308067E+04  0.21981868362E+04 0.  0.
    9900016    2    1    2    0    0 -0.37571424925E+03 -0.53328296271E+03  0.11059389519E+04  0.25442389057E+04  0.21964741584E+04 0.  0.
         23    2    4    4    0    0 -0.34758631213E+03  0.14365105980E+02 -0.62932627227E+03  0.72438864097E+03  0.87548532558E+02 0.  0.
        -15    1    3    3    0    0  0.74536497887E+02  0.27269864888E+03  0.31598992023E+03  0.42399277388E+03  0.00000000000E+00 0.  1.
        -15    1    5    5    0    0 -0.15194086186E+03 -0.18702147869E+02 -0.20396640188E+03  0.25502566329E+03  0.00000000000E+00 0.  1.
         15    1    3    3    0    0  0.95218055458E+02  0.19016494972E+03 -0.69583656238E+03  0.72761095905E+03  0.00000000000E+00 0. -1.
         15    1    5    5    0    0 -0.19564545027E+03  0.33067253850E+02 -0.42535987038E+03  0.46936297769E+03  0.00000000000E+00 0. -1.
        -16    1    4    4    0    0 -0.28127937124E+02 -0.54764806869E+03  0.17352652241E+04  0.18198502647E+04  0.00000000000E+00 0.  1.
         16    1    3    3    0    0  0.29627328766E+03  0.10915522023E+04  0.13191223506E+04  0.17376270737E+04  0.00000000000E+00 0. -1.
    9900018    1    1    2    0    0 -0.90313591747E+02 -0.10211328382E+04  0.72602437112E+03  0.12594821888E+04  0.91187600000E+02 0.  0.
<mgrwt>
<rscale>  0 0.60922770E+04</rscale>
<asrwt>0</asrwt>
<pdfrwt beam="1">  1        2 0.30167022E+00 0.60922770E+04</pdfrwt>
<pdfrwt beam="2">  1       -2 0.72801468E+00 0.60922770E+04</pdfrwt>
<totfact> 0.84943747E-04</totfact>
</mgrwt>
</event>
<event>
13    1  0.1076827E-009  0.5936119E+04  0.7818608E-02  0.7698373E-01
         -2   -1    0    0    0  501 -0.00000000000E+00  0.00000000000E+00  0.22360906010E+04  0.22360906010E+04  0.00000000000E+00 0. -1.
          2   -1    0    0  501    0  0.00000000000E+00 -0.00000000000E+00 -0.39396339531E+04  0.39396339531E+04  0.00000000000E+00 0.  1.
    9900016    2    1    2    0    0 -0.13812638224E+04  0.10592405997E+04 -0.14116650500E+04  0.31374529379E+04  0.21956621620E+04 0.  0.
        -24    2    3    3    0    0 -0.57214270722E+03 -0.32295035237E+03 -0.13837672716E+04  0.15356080350E+04  0.10787014319E+03 0.  0.
    9900016    2    1    2    0    0  0.14621578400E+04 -0.82838923528E+03 -0.30405024036E+03  0.27769298303E+04  0.21896936908E+04 0.  0.
         23    2    5    5    0    0 -0.32120810531E+03 -0.11063039308E+03  0.56626517111E+03  0.66671165064E+03  0.91839263313E+02 0.  0.
        -15    1    3    3    0    0 -0.80912111514E+03  0.13821909521E+04 -0.27897778395E+02  0.16018449029E+04  0.00000000000E+00 0.  1.
        -15    1    6    6    0    0 -0.65040559713E+02  0.11831938794E+02  0.81804997262E+02  0.10517759629E+03  0.00000000000E+00 0.  1.
         15    1    4    4    0    0 -0.17118406404E+03 -0.11101869358E+03 -0.32418883394E+03  0.38305030239E+03  0.00000000000E+00 0. -1.
         15    1    6    6    0    0 -0.25616754560E+03 -0.12246233188E+03  0.48446017385E+03  0.56153405435E+03  0.00000000000E+00 0. -1.
        -16    1    4    4    0    0 -0.40095864318E+03 -0.21193165879E+03 -0.10595784377E+04  0.11525577327E+04  0.00000000000E+00 0.  1.
         16    1    5    5    0    0  0.17833659453E+04 -0.71775884220E+03 -0.87031541147E+03  0.21102181797E+04  0.00000000000E+00 0. -1.
    9900018    1    1    2    0    0 -0.80894017644E+02 -0.23085136440E+03  0.12171938267E+02  0.26134178581E+03  0.91187600000E+02 0.  0.
<mgrwt>
<rscale>  0 0.59361194E+04</rscale>
<asrwt>0</asrwt>
<pdfrwt beam="1">  1        2 0.60609753E+00 0.59361194E+04</pdfrwt>
<pdfrwt beam="2">  1       -2 0.34401394E+00 0.59361194E+04</pdfrwt>
<totfact> 0.43690905E-03</totfact>
</mgrwt>
</event>
<event>
12    1  0.1076827E-009  0.6125469E+04  0.7818608E-02  0.7675037E-01
         -1   -1    0    0    0  501 -0.00000000000E+00  0.00000000000E+00  0.32456014042E+04  0.32456014042E+04  0.00000000000E+00 0.  1.
          1   -1    0    0  501    0  0.00000000000E+00 -0.00000000000E+00 -0.28901712861E+04  0.28901712861E+04  0.00000000000E+00 0. -1.
    9900016    2    1    2    0    0 -0.46630472394E+03 -0.11641993945E+04 -0.59138258710E+03  0.26001633642E+04  0.21996172009E+04 0.  0.
    9900016    2    1    2    0    0  0.11223970257E+04  0.73940766997E+03  0.49031201217E+03  0.26258768497E+04  0.22018911360E+04 0.  0.
         23    2    4    4    0    0 -0.35157150261E+02 -0.17432672538E+03 -0.70158261210E+03  0.72970834164E+03  0.92899245709E+02 0.  0.
        -15    1    5    5    0    0 -0.55515377998E+02 -0.12148909541E+03 -0.58561465351E+03  0.60065470938E+03  0.00000000000E+00 0.  1.
        -15    1    3    3    0    0  0.10935707760E+02  0.24870968379E+03 -0.61056420966E+03  0.65936693171E+03  0.00000000000E+00 0.  1.
         15    1    5    5    0    0  0.20358227738E+02 -0.52837629977E+02 -0.11596795859E+03  0.12905363225E+03  0.00000000000E+00 0. -1.
         15    1    3    3    0    0 -0.45357947197E+03 -0.15288753336E+04  0.31199102478E+03  0.16249715452E+04  0.00000000000E+00 0. -1.
        -16    1    4    4    0    0  0.11575541760E+04  0.91373439536E+03  0.11918946243E+04  0.18961685081E+04  0.00000000000E+00 0.  1.
         16    1    3    3    0    0 -0.23660959736E+02  0.11596625533E+03 -0.29280940222E+03  0.31582488727E+03  0.00000000000E+00 0. -1.
    9900018    1    1    2    0    0 -0.65609230176E+03  0.42479172455E+03  0.45650069299E+03  0.90973247649E+03  0.91187600000E+02 0.  0.
<mgrwt>
<rscale>  0 0.61254694E+04</rscale>
<asrwt>0</asrwt>
<pdfrwt beam="1">  1        1 0.44464174E+00 0.61254694E+04</pdfrwt>
<pdfrwt beam="2">  1       -1 0.49932329E+00 0.61254694E+04</pdfrwt>
<totfact> 0.72279149E-04</totfact>
</mgrwt>
</event>
<event>
13    1  0.1076827E-009  0.4972537E+04  0.7818608E-02  0.7832758E-01
         -1   -1    0    0    0  501 -0.00000000000E+00  0.00000000000E+00  0.16721650743E+04  0.16721650743E+04  0.00000000000E+00 0.  1.
          1   -1    0    0  501    0  0.00000000000E+00 -0.00000000000E+00 -0.36967235863E+04  0.36967235863E+04  0.00000000000E+00 0. -1.
    9900016    2    1    2    0    0  0.68049886345E+03 -0.43073814650E+03 -0.73034929616E+03  0.24512462058E+04  0.21969487507E+04 0.  0.
         24    2    3    3    0    0 -0.40753604063E+03  0.58081719792E+03 -0.64816713849E+03  0.96335572789E+03  0.67077397366E+02 0.  0.
    9900016    2    1    2    0    0 -0.57962974807E+03  0.11119461781E+03 -0.10662268567E+04  0.25022224508E+04  0.21853930071E+04 0.  0.
         23    2    5    5    0    0  0.83254199112E+03  0.99414234822E+02 -0.50085824114E+03  0.98103558855E+03  0.92533730213E+02 0.  0.
        -15    1    6    6    0    0  0.76613181790E+03  0.11625904593E+03 -0.45537600591E+03  0.89879999717E+03  0.00000000000E+00 0. -1.
        -15    1    4    4    0    0 -0.19275740326E+03  0.28631574121E+03 -0.35973800582E+03  0.49854142557E+03  0.00000000000E+00 0.  1.
         15    1    6    6    0    0  0.66410173216E+02 -0.16844811104E+02 -0.45482235235E+02  0.82235591380E+02  0.00000000000E+00 0.  1.
         15    1    3    3    0    0  0.10880349041E+04 -0.10115553444E+04 -0.82182157668E+02  0.14878904779E+04  0.00000000000E+00 0. -1.
        -16    1    5    5    0    0 -0.14121717392E+04  0.11780382992E+02 -0.56536861552E+03  0.15211868622E+04  0.00000000000E+00 0.  1.
         16    1    4    4    0    0 -0.21477863737E+03  0.29450145671E+03 -0.28842913267E+03  0.46481430232E+03  0.00000000000E+00 0. -1.
    9900018    1    1    2    0    0 -0.10086911537E+03  0.31954352869E+03 -0.22798235919E+03  0.41542000392E+03  0.91187600000E+02 0.  0.
<mgrwt>
<rscale>  0 0.49725374E+04</rscale>
<asrwt>0</asrwt>
<pdfrwt beam="1">  1        1 0.56872670E+00 0.49725374E+04</pdfrwt>
<pdfrwt beam="2">  1       -1 0.25725617E+00 0.49725374E+04</pdfrwt>
<totfact> 0.78379134E-03</totfact>
</mgrwt>
</event>
<event>
13    1  0.1076827E-009  0.6346668E+04  0.7818608E-02  0.7648845E-01
          2   -1    0    0  501    0  0.00000000000E+00  0.00000000000E+00  0.24455292321E+04  0.24455292321E+04  0.00000000000E+00 0. -1.
         -2   -1    0    0    0  501 -0.00000000000E+00 -0.00000000000E+00 -0.41177374161E+04  0.41177374161E+04  0.00000000000E+00 0.  1.
    9900016    2    1    2    0    0  0.35981854632E+03 -0.15579913546E+04 -0.21096307006E+04  0.34382536746E+04  0.21941376872E+04 0.  0.
         24    2    3    3    0    0  0.10250008530E+04 -0.75857487079E+03 -0.20266475131E+04  0.23949797771E+04  0.50649848233E+02 0.  0.
    9900016    2    1    2    0    0 -0.46681868463E+03  0.16710159192E+04  0.17933475100E+03  0.28101351323E+04  0.22032895003E+04 0.  0.
         23    2    5    5    0    0  0.13926103936E+03 -0.50303084878E+03 -0.87774527713E+02  0.53743643954E+03  0.93273184362E+02 0.  0.
        -15    1    6    6    0    0  0.47992698491E+01 -0.89482368040E+01 -0.17980405404E+02  0.20649428841E+02  0.00000000000E+00 0.  1.
        -15    1    4    4    0    0  0.32169172515E+03 -0.23802516445E+03 -0.59248618776E+03  0.71496952916E+03  0.00000000000E+00 0.  1.
         15    1    6    6    0    0  0.13446176952E+03 -0.49408261198E+03 -0.69794122310E+02  0.51678701070E+03  0.00000000000E+00 0. -1.
         15    1    3    3    0    0 -0.66518230672E+03 -0.79941648381E+03 -0.82983187548E+02  0.10432738975E+04  0.00000000000E+00 0. -1.
        -16    1    5    5    0    0 -0.60607972400E+03  0.21740467680E+04  0.26710927871E+03  0.22726986927E+04  0.00000000000E+00 0.  1.
         16    1    4    4    0    0  0.70330912789E+03 -0.52054970634E+03 -0.14341613253E+04  0.16800102479E+04  0.00000000000E+00 0. -1.
    9900018    1    1    2    0    0  0.10700013831E+03 -0.11302456459E+03  0.25808776567E+03  0.31487784136E+03  0.91187600000E+02 0.  0.
<mgrwt>
<rscale>  0 0.63466675E+04</rscale>
<asrwt>0</asrwt>
<pdfrwt beam="1">  1        2 0.37623526E+00 0.63466675E+04</pdfrwt>
<pdfrwt beam="2">  1       -2 0.63349807E+00 0.63466675E+04</pdfrwt>
<totfact> 0.96124969E-04</totfact>
</mgrwt>
</event>
<event>
12    1  0.1076827E-009  0.5920351E+04  0.7818608E-02  0.7700356E-01
          1   -1    0    0  501    0  0.00000000000E+00  0.00000000000E+00  0.23768586906E+04  0.23768586906E+04  0.00000000000E+00 0. -1.
         -1   -1    0    0    0  501 -0.00000000000E+00 -0.00000000000E+00 -0.36866468773E+04  0.36866468773E+04  0.00000000000E+00 0.  1.
    9900016    2    1    2    0    0 -0.25321008197E+03  0.99265267483E+03 -0.19176104916E+04  0.30963106969E+04  0.22046394843E+04 0.  0.
    9900016    2    1    2    0    0  0.42708449892E+03 -0.82395489423E+03  0.66403661200E+02  0.23670777322E+04  0.21765442121E+04 0.  0.
         23    2    4    4    0    0 -0.46223468531E+03  0.20820372652E+03 -0.64870405314E+03  0.82837078388E+03  0.91495961564E+02 0.  0.
        -15    1    3    3    0    0 -0.51635973219E+03  0.63907192319E+03 -0.23356766708E+04  0.24759696699E+04  0.00000000000E+00 0.  1.
        -15    1    5    5    0    0 -0.10599658450E+03  0.91571696072E+02 -0.16551158358E+03  0.21682881668E+03  0.00000000000E+00 0. -1.
         15    1    3    3    0    0  0.20913945279E+03  0.23551378783E+03  0.22262378826E+03  0.38570378021E+03  0.00000000000E+00 0. -1.
         15    1    5    5    0    0 -0.35623810081E+03  0.11663203045E+03 -0.48319246956E+03  0.61154196719E+03  0.00000000000E+00 0.  1.
        -16    1    3    3    0    0  0.54010197428E+02  0.11806696381E+03  0.19544239094E+03  0.23463724671E+03  0.00000000000E+00 0.  1.
         16    1    4    4    0    0  0.88931918423E+03 -0.10321586208E+04  0.71510771434E+03  0.15387069484E+04  0.00000000000E+00 0. -1.
    9900018    1    1    2    0    0 -0.17387441695E+03 -0.16869778060E+03  0.54141864369E+03  0.60011713871E+03  0.91187600000E+02 0.  0.
<mgrwt>
<rscale>  0 0.59203509E+04</rscale>
<asrwt>0</asrwt>
<pdfrwt beam="1">  1        1 0.36567057E+00 0.59203509E+04</pdfrwt>
<pdfrwt beam="2">  1       -1 0.56717644E+00 0.59203509E+04</pdfrwt>
<totfact> 0.69288965E-04</totfact>
</mgrwt>
</event>
<event>
13    1  0.1076827E-009  0.4975005E+04  0.7818608E-02  0.7832374E-01
         -2   -1    0    0    0  501 -0.00000000000E+00  0.00000000000E+00  0.27869390289E+04  0.27869390289E+04  0.00000000000E+00 0.  1.
          2   -1    0    0  501    0  0.00000000000E+00 -0.00000000000E+00 -0.22202384020E+04  0.22202384020E+04  0.00000000000E+00 0. -1.
    9900016    2    1    2    0    0  0.68966521349E+01  0.79256594072E+02  0.12314028399E+04  0.25231680966E+04  0.22008396393E+04 0.  0.
        -24    2    3    3    0    0  0.36954493752E+03 -0.75252188110E+03 -0.16567698924E+03  0.85727456469E+03  0.67957134416E+02 0.  0.
    9900016    2    1    2    0    0 -0.10324324916E+03 -0.11322352891E+03 -0.74333895340E+03  0.23261000732E+04  0.21987974020E+04 0.  0.
         23    2    5    5    0    0  0.13628913930E+03 -0.48714747988E+02  0.77189772965E+03  0.79069154334E+03  0.91755956276E+02 0.  0.
        -15    1    6    6    0    0  0.41420103959E+02 -0.62936042643E+02  0.32647570558E+03  0.33505664716E+03  0.00000000000E+00 0. -1.
        -15    1    3    3    0    0 -0.36264828539E+03  0.83177847517E+03  0.13970798291E+04  0.16658935319E+04  0.00000000000E+00 0.  1.
         15    1    4    4    0    0  0.15559987885E+03 -0.31111792350E+03 -0.34801716618E+02  0.34959525755E+03  0.00000000000E+00 0. -1.
         15    1    6    6    0    0  0.94869035344E+02  0.14221294654E+02  0.44542202407E+03  0.45563489618E+03  0.00000000000E+00 0.  1.
        -16    1    4    4    0    0  0.21394505867E+03 -0.44140395760E+03 -0.13087527262E+03  0.50767930714E+03  0.00000000000E+00 0.  1.
         16    1    5    5    0    0 -0.23953238846E+03 -0.64508780919E+02 -0.15152366830E+04  0.15354085299E+04  0.00000000000E+00 0. -1.
    9900018    1    1    2    0    0  0.96346597021E+02  0.33966934836E+02  0.78636740472E+02  0.15790926118E+03  0.91187600000E+02 0.  0.
<mgrwt>
<rscale>  0 0.49750051E+04</rscale>
<asrwt>0</asrwt>
<pdfrwt beam="1">  1        2 0.34157513E+00 0.49750051E+04</pdfrwt>
<pdfrwt beam="2">  1       -2 0.42875986E+00 0.49750051E+04</pdfrwt>
<totfact> 0.17634326E-02</totfact>
</mgrwt>
</event>
<event>
13    1  0.1076827E-009  0.7605589E+04  0.7818608E-02  0.7518013E-01
          3   -1    0    0  501    0  0.00000000000E+00  0.00000000000E+00  0.39522459346E+04  0.39522459346E+04  0.00000000000E+00 0. -1.
         -3   -1    0    0    0  501 -0.00000000000E+00 -0.00000000000E+00 -0.36589946362E+04  0.36589946362E+04  0.00000000000E+00 0.  1.
    9900016    2    1    2    0    0  0.48546641785E+03 -0.20887482536E+04 -0.13252065008E+04  0.33522311740E+04  0.22096910789E+04 0.  0.
        -24    2    3    3    0    0 -0.52279546243E+03  0.11701625684E+03 -0.62322007194E+03  0.82739968632E+03  0.95807530716E+02 0.  0.
    9900016    2    1    2    0    0 -0.63054112853E+02  0.70811595849E+03  0.32621454557E+03  0.23192193322E+04  0.21833365177E+04 0.  0.
         23    2    5    5    0    0  0.31127525645E+03 -0.70135663671E+02  0.11063284130E+04  0.11554428458E+04  0.96303249530E+02 0.  0.
        -15    1    3    3    0    0  0.10082618803E+04 -0.22057645105E+04 -0.70198642887E+03  0.25248314877E+04  0.00000000000E+00 0.  1.
        -15    1    6    6    0    0  0.23463222225E+03 -0.29659242358E+02  0.66806544641E+03  0.70869132283E+03  0.00000000000E+00 0. -1.
         15    1    4    4    0    0 -0.25965079149E+03  0.13639702826E+02 -0.32930475322E+03  0.41957859276E+03  0.00000000000E+00 0. -1.
         15    1    6    6    0    0  0.76643034203E+02 -0.40476421314E+02  0.43826296663E+03  0.44675152299E+03  0.00000000000E+00 0.  1.
        -16    1    4    4    0    0 -0.26314467095E+03  0.10337655402E+03 -0.29391531872E+03  0.40782109356E+03  0.00000000000E+00 0.  1.
         16    1    5    5    0    0 -0.37432936931E+03  0.77825162216E+03 -0.78011386747E+03  0.11637764864E+04  0.00000000000E+00 0. -1.
    9900018    1    1    2    0    0 -0.42241230500E+03  0.13806322951E+04  0.12922432536E+04  0.19397900646E+04  0.91187600000E+02 0.  0.
<mgrwt>
<rscale>  0 0.76055892E+04</rscale>
<asrwt>0</asrwt>
<pdfrwt beam="1">  1        3 0.60803784E+00 0.76055892E+04</pdfrwt>
<pdfrwt beam="2">  1       -3 0.56292225E+00 0.76055892E+04</pdfrwt>
<totfact> 0.22429602E-06</totfact>
</mgrwt>
</event>
<event>
13    1  0.1076827E-009  0.6799590E+04  0.7818608E-02  0.7598464E-01
         -2   -1    0    0    0  501 -0.00000000000E+00  0.00000000000E+00  0.30963899862E+04  0.30963899862E+04  0.00000000000E+00 0.  1.
          2   -1    0    0  501    0  0.00000000000E+00 -0.00000000000E+00 -0.37329297940E+04  0.37329297940E+04  0.00000000000E+00 0. -1.
    9900016    2    1    2    0    0 -0.39531250390E+03  0.19668131371E+03  0.66796252209E+03  0.23520646028E+04  0.22115782713E+04 0.  0.
        -24    2    3    3    0    0 -0.25393300661E+03  0.60107356361E+03 -0.67390264539E+03  0.94347545700E+03  0.10114228474E+03 0.  0.
    9900016    2    1    2    0    0  0.41563494719E+03 -0.12460608555E+04 -0.19479727854E+04  0.32427593977E+04  0.22350549152E+04 0.  0.
         23    2    5    5    0    0 -0.16534815317E+03  0.43212307003E+03  0.14878355679E+03  0.49499124713E+03  0.93858556129E+02 0.  0.
        -15    1    6    6    0    0 -0.13175011077E+03  0.24348904679E+03  0.57507663588E+02  0.28275809267E+03  0.00000000000E+00 0. -1.
        -15    1    3    3    0    0 -0.14137949729E+03 -0.40439224991E+03  0.13418651675E+04  0.14085891458E+04  0.00000000000E+00 0.  1.
         15    1    4    4    0    0 -0.12117747381E+03  0.22541038530E+03 -0.20315680015E+03  0.32675144592E+03  0.00000000000E+00 0. -1.
         15    1    6    6    0    0 -0.33598042395E+02  0.18863402324E+03  0.91275893197E+02  0.21223315447E+03  0.00000000000E+00 0.  1.
        -16    1    4    4    0    0 -0.13275553280E+03  0.37566317831E+03 -0.47074584524E+03  0.61672401108E+03  0.00000000000E+00 0.  1.
         16    1    5    5    0    0  0.58098310035E+03 -0.16781839256E+04 -0.20967563422E+04  0.27477681506E+04  0.00000000000E+00 0. -1.
    9900018    1    1    2    0    0 -0.20322443289E+02  0.10493795418E+04  0.64347045552E+03  0.12344957797E+04  0.91187600000E+02 0.  0.
<mgrwt>
<rscale>  0 0.67995901E+04</rscale>
<asrwt>0</asrwt>
<pdfrwt beam="1">  1        2 0.57429689E+00 0.67995901E+04</pdfrwt>
<pdfrwt beam="2">  1       -2 0.47636769E+00 0.67995901E+04</pdfrwt>
<totfact> 0.81930957E-04</totfact>
</mgrwt>
</event>
<event>
13    1  0.1076827E-009  0.5828934E+04  0.7818608E-02  0.7711981E-01
         -2   -1    0    0    0  501 -0.00000000000E+00  0.00000000000E+00  0.29698981530E+04  0.29698981530E+04  0.00000000000E+00 0.  1.
          2   -1    0    0  501    0  0.00000000000E+00 -0.00000000000E+00 -0.28600708646E+04  0.28600708646E+04  0.00000000000E+00 0. -1.
    9900016    2    1    2    0    0 -0.11325214608E+04  0.99477893496E+03 -0.35219357372E+03  0.26919297950E+04  0.22023296119E+04 0.  0.
        -24    2    3    3    0    0 -0.30511958539E+02 -0.61552596565E+03  0.21451614996E+03  0.66001770862E+03  0.99010116151E+02 0.  0.
    9900016    2    1    2    0    0  0.62973454679E+03 -0.60931191801E+03  0.49074958827E+02  0.23763181454E+04  0.22083145074E+04 0.  0.
         23    2    5    5    0    0  0.24436340405E+03  0.13459132771E+03  0.10392945158E+04  0.10792299727E+04  0.82316125712E+02 0.  0.
        -15    1    6    6    0    0  0.88756868736E+02  0.11337181241E+02  0.39705751553E+03  0.40701472217E+03  0.00000000000E+00 0. -1.
        -15    1    3    3    0    0 -0.11020095022E+04  0.16103049006E+04 -0.56670972367E+03  0.20319120864E+04  0.00000000000E+00 0.  1.
         15    1    6    6    0    0  0.15560653532E+03  0.12325414646E+03  0.64223700030E+03  0.67221525050E+03  0.00000000000E+00 0.  1.
         15    1    4    4    0    0  0.68458191799E+01 -0.19132488327E+03  0.22091883467E+02  0.19271774053E+03  0.00000000000E+00 0. -1.
        -16    1    4    4    0    0 -0.37357777718E+02 -0.42420108238E+03  0.19242426649E+03  0.46729996810E+03  0.00000000000E+00 0.  1.
         16    1    5    5    0    0  0.38537114274E+03 -0.74390324571E+03 -0.99021955701E+03  0.12970881727E+04  0.00000000000E+00 0. -1.
    9900018    1    1    2    0    0  0.50278691399E+03 -0.38546701696E+03  0.41294590329E+03  0.76172107722E+03  0.91187600000E+02 0.  0.
<mgrwt>
<rscale>  0 0.58289344E+04</rscale>
<asrwt>0</asrwt>
<pdfrwt beam="1">  1        2 0.44001090E+00 0.58289344E+04</pdfrwt>
<pdfrwt beam="2">  1       -2 0.45690741E+00 0.58289344E+04</pdfrwt>
<totfact> 0.45530835E-03</totfact>
</mgrwt>
</event>
<event>
12    1  0.1076827E-009  0.5330781E+04  0.7818608E-02  0.7779413E-01
         -1   -1    0    0    0  501 -0.00000000000E+00  0.00000000000E+00  0.28549360957E+04  0.28549360957E+04  0.00000000000E+00 0. -1.
          1   -1    0    0  501    0  0.00000000000E+00 -0.00000000000E+00 -0.24884290732E+04  0.24884290732E+04  0.00000000000E+00 0.  1.
    9900016    2    1    2    0    0 -0.29166716261E+03 -0.40509744865E+03 -0.86036249256E+03  0.24144539455E+04  0.22000433085E+04 0.  0.
    9900016    2    1    2    0    0  0.28769882012E+03  0.59051125803E+03  0.76645783127E+03  0.24242448728E+04  0.22040942447E+04 0.  0.
         23    2    4    4    0    0  0.66811091101E+03 -0.26447479520E+03  0.11929803964E+04  0.13958305552E+04  0.93923405349E+02 0.  0.
        -15    1    3    3    0    0 -0.24570658089E+03 -0.91876195520E+03  0.54162411006E+02  0.95259058414E+03  0.00000000000E+00 0.  1.
        -15    1    5    5    0    0  0.44756305271E+02 -0.14598288412E+02  0.41191427762E+02  0.62553741752E+02  0.00000000000E+00 0.  1.
         15    1    5    5    0    0  0.62335460574E+03 -0.24987650679E+03  0.11517889686E+04  0.13332768135E+04  0.00000000000E+00 0. -1.
         15    1    3    3    0    0  0.95808028913E+01  0.79041980693E+03 -0.87105564271E+03  0.11762623839E+04  0.00000000000E+00 0. -1.
        -16    1    4    4    0    0 -0.38041209089E+03  0.85498605323E+03 -0.42652256510E+03  0.10284143176E+04  0.00000000000E+00 0.  1.
         16    1    3    3    0    0 -0.55541384617E+02 -0.27675530038E+03 -0.43469260859E+02  0.28560097747E+03  0.00000000000E+00 0. -1.
    9900018    1    1    2    0    0  0.39683424967E+01 -0.18541380938E+03  0.46041168384E+03  0.50466635064E+03  0.91187600000E+02 0.  0.
<mgrwt>
<rscale>  0 0.53307808E+04</rscale>
<asrwt>0</asrwt>
<pdfrwt beam="1">  1        1 0.38283524E+00 0.53307808E+04</pdfrwt>
<pdfrwt beam="2">  1       -1 0.43922094E+00 0.53307808E+04</pdfrwt>
<totfact> 0.37368011E-03</totfact>
</mgrwt>
</event>
<event>
13    1  0.1076827E-009  0.6436636E+04  0.7818608E-02  0.7638502E-01
         -2   -1    0    0    0  501 -0.00000000000E+00  0.00000000000E+00  0.37894436110E+04  0.37894436110E+04  0.00000000000E+00 0.  1.
          2   -1    0    0  501    0  0.00000000000E+00 -0.00000000000E+00 -0.27332692443E+04  0.27332692443E+04  0.00000000000E+00 0. -1.
    9900016    2    1    2    0    0 -0.15164995550E+04  0.13096736657E+04  0.18195520385E+03  0.29796529274E+04  0.21977733870E+04 0.  0.
         24    2    3    3    0    0 -0.37446945545E+03  0.15864584007E+03  0.10575698250E+04  0.11368836070E+04  0.93029702101E+02 0.  0.
    9900016    2    1    2    0    0  0.68599613585E+03 -0.10349454311E+04  0.80199288721E+03  0.26605955685E+04  0.22122100814E+04 0.  0.
         23    2    5    5    0    0  0.15606153519E+03  0.40049802926E+03 -0.48984181162E+03  0.65805580662E+03  0.91315770864E+02 0.  0.
        -15    1    4    4    0    0 -0.31063535653E+03  0.15615652099E+03  0.81538705504E+03  0.88641707638E+03  0.00000000000E+00 0.  1.
        -15    1    6    6    0    0  0.52466323239E+02  0.21003796730E+03 -0.29946844309E+03  0.36952673948E+03  0.00000000000E+00 0. -1.
         15    1    6    6    0    0  0.10359521195E+03  0.19046006196E+03 -0.19037336852E+03  0.28852906714E+03  0.00000000000E+00 0.  1.
         15    1    3    3    0    0 -0.11420300996E+04  0.11510278257E+04 -0.87561462110E+03  0.18427693205E+04  0.00000000000E+00 0. -1.
        -16    1    5    5    0    0  0.52993460066E+03 -0.14354434604E+04  0.12918346988E+04  0.20025397619E+04  0.00000000000E+00 0.  1.
         16    1    4    4    0    0 -0.63834098924E+02  0.24893190828E+01  0.24218276992E+03  0.25046653058E+03  0.00000000000E+00 0. -1.
    9900018    1    1    2    0    0  0.83050341917E+03 -0.27472823462E+03  0.72226275671E+02  0.88246435930E+03  0.91187600000E+02 0.  0.
<mgrwt>
<rscale>  0 0.64366357E+04</rscale>
<asrwt>0</asrwt>
<pdfrwt beam="1">  1        2 0.42050296E+00 0.64366357E+04</pdfrwt>
<pdfrwt beam="2">  1       -2 0.58299133E+00 0.64366357E+04</pdfrwt>
<totfact> 0.10087636E-03</totfact>
</mgrwt>
</event>
