<event>
11    1  0.1393794E-014  0.8923095E+03  0.7818608E-02  0.9435246E-01
          1   -1    0    0  501    0  0.00000000000E+00  0.00000000000E+00  0.21416742304E+03  0.21416742304E+03  0.00000000000E+00 0. -1.
         -1   -1    0    0    0  501 -0.00000000000E+00 -0.00000000000E+00 -0.92943205070E+03  0.92943205070E+03  0.00000000000E+00 0.  1.
    9900016    2    1    2    0    0  0.65696718240E+02 -0.88894107516E+02 -0.69036166462E+03  0.10302929042E+04  0.75676021255E+03 0.  0.
         23    2    3    3    0    0  0.19067687373E+03 -0.20280983394E+03 -0.10459007921E+03  0.31352534667E+03  0.99345656258E+02 0.  0.
        -15    1    4    4    0    0  0.17311115237E+03 -0.19409483546E+03 -0.12202995280E+03  0.28728311055E+03  0.00000000000E+00 0.  1.
        -15    1    3    3    0    0 -0.35329785636E+02  0.84860554008E+02 -0.97987604375E+02  0.13435430023E+03  0.00000000000E+00 0.  1.
         15    1    3    3    0    0 -0.98022926790E+02 -0.61997672350E+01 -0.84947171166E+02  0.12985743405E+03  0.00000000000E+00 0. -1.
         15    1    4    4    0    0  0.17565721368E+02 -0.87149984801E+01  0.17439873596E+02  0.26242236123E+02  0.00000000000E+00 0. -1.
        -16    1    3    3    0    0 -0.56229076764E+01 -0.25622944732E+01 -0.32757609130E+03  0.32763436638E+03  0.00000000000E+00 0.  1.
         16    1    1    2    0    0 -0.65696718240E+02  0.88894107516E+02 -0.24902963045E+02  0.11330656957E+03  0.00000000000E+00 0. -1.
    9900018    1    3    3    0    0  0.13995464607E+02  0.37817234120E+02 -0.75260718570E+02  0.12492145684E+03  0.91187600000E+02 0.  0.
<mgrwt>
<rscale>  0 0.89230951E+03</rscale>
<asrwt>0</asrwt>
<pdfrwt beam="1">  1        1 0.32948834E-01 0.89230951E+03</pdfrwt>
<pdfrwt beam="2">  1       -1 0.14298955E+00 0.89230951E+03</pdfrwt>
<totfact> 0.54438772E+01</totfact>
</mgrwt>
</event>
<event>
11    1  0.1393794E-014  0.9520888E+03  0.7818608E-02  0.9362712E-01
          2   -1    0    0  501    0  0.00000000000E+00  0.00000000000E+00  0.28682680222E+03  0.28682680222E+03  0.00000000000E+00 0. -1.
         -2   -1    0    0    0  501 -0.00000000000E+00 -0.00000000000E+00 -0.79008752121E+03  0.79008752121E+03  0.00000000000E+00 0.  1.
    9900016    2    1    2    0    0  0.15152737592E+03 -0.78354899654E+02 -0.43740508994E+03  0.89405645560E+03  0.76086378356E+03 0.  0.
         23    2    3    3    0    0 -0.15502992339E+03  0.12312089250E+03 -0.10310042347E+03  0.24035830185E+03  0.89159321629E+02 0.  0.
        -15    1    4    4    0    0 -0.13585995225E+03  0.64722327876E+02 -0.95960338615E+02  0.17848051137E+03  0.00000000000E+00 0.  1.
        -15    1    3    3    0    0  0.61049701876E+02  0.27280817786E+02 -0.11124530341E+03  0.12979532599E+03  0.00000000000E+00 0.  1.
         15    1    4    4    0    0 -0.19169971136E+02  0.58398564620E+02 -0.71400848585E+01  0.61877790481E+02  0.00000000000E+00 0. -1.
         15    1    3    3    0    0  0.16509318173E+03 -0.17990059932E+03 -0.31398066957E+02  0.24618249917E+03  0.00000000000E+00 0. -1.
        -16    1    1    2    0    0 -0.15152737592E+03  0.78354899654E+02 -0.65855629045E+02  0.18285786783E+03  0.00000000000E+00 0.  1.
         16    1    3    3    0    0  0.81684865017E+02  0.12239020715E+02 -0.12328555488E+03  0.14839655940E+03  0.00000000000E+00 0. -1.
    9900018    1    3    3    0    0 -0.12704493165E+01 -0.61095031335E+02 -0.68375741220E+02  0.12932376919E+03  0.91187600000E+02 0.  0.
<mgrwt>
<rscale>  0 0.95208881E+03</rscale>
<asrwt>0</asrwt>
<pdfrwt beam="1">  1        2 0.44127200E-01 0.95208881E+03</pdfrwt>
<pdfrwt beam="2">  1       -2 0.12155193E+00 0.95208881E+03</pdfrwt>
<totfact> 0.59382898E+01</totfact>
</mgrwt>
</event>
<event>
12    1  0.1393794E-014  0.9544287E+03  0.7818608E-02  0.9359989E-01
          1   -1    0    0  501    0  0.00000000000E+00  0.00000000000E+00  0.58876072718E+03  0.58876072718E+03  0.00000000000E+00 0. -1.
         -1   -1    0    0    0  501 -0.00000000000E+00 -0.00000000000E+00 -0.38680151318E+03  0.38680151318E+03  0.00000000000E+00 0.  1.
    9900016    2    1    2    0    0  0.12469232072E+03 -0.13161536161E+03  0.14918175950E+03  0.70735278272E+03  0.66724956620E+03 0.  0.
    9900016    2    3    3    0    0  0.13747396066E+03 -0.86579604124E+02  0.97835083766E+02  0.56673941178E+03  0.53406623142E+03 0.  0.
         23    2    4    4    0    0  0.93869225256E+02 -0.30084916043E+03  0.11295938798E+03  0.34755556135E+03  0.93345573591E+02 0.  0.
        -15    1    5    5    0    0  0.72161596253E+02 -0.19425837732E+03  0.27137086744E+02  0.20899769044E+03  0.00000000000E+00 0.  1.
        -15    1    3    3    0    0 -0.14420513437E+02 -0.29662499925E+02 -0.37782593920E+02  0.50153160548E+02  0.00000000000E+00 0.  1.
         15    1    3    3    0    0  0.16388734994E+01 -0.15373257563E+02  0.89129269654E+02  0.90460210388E+02  0.00000000000E+00 0. -1.
         15    1    5    5    0    0  0.21707629003E+02 -0.10659078311E+03  0.85822301233E+02  0.13855787091E+03  0.00000000000E+00 0. -1.
        -16    1    1    2    0    0 -0.10843144763E+03  0.12804750818E+03  0.51464469907E+02  0.17550536985E+03  0.00000000000E+00 0.  1.
         16    1    4    4    0    0  0.43604735405E+02  0.21426955631E+03 -0.15124304211E+02  0.21918385043E+03  0.00000000000E+00 0. -1.
    9900018    1    1    2    0    0 -0.16260873098E+02  0.35678534334E+01  0.13129845919E+01  0.92704087797E+02  0.91187600000E+02 0.  0.
<mgrwt>
<rscale>  0 0.95442871E+03</rscale>
<asrwt>0</asrwt>
<pdfrwt beam="1">  1        1 0.90578574E-01 0.95442871E+03</pdfrwt>
<pdfrwt beam="2">  1       -1 0.59507925E-01 0.95442871E+03</pdfrwt>
<totfact> 0.10129707E+02</totfact>
</mgrwt>
</event>
<event>
11    1  0.1393794E-014  0.1409168E+04  0.7818608E-02  0.8947209E-01
         -1   -1    0    0    0  501 -0.00000000000E+00  0.00000000000E+00  0.89748079858E+03  0.89748079858E+03  0.00000000000E+00 0.  1.
          1   -1    0    0  501    0  0.00000000000E+00 -0.00000000000E+00 -0.55314652350E+03  0.55314652350E+03  0.00000000000E+00 0. -1.
    9900016    2    1    2    0    0 -0.15016067827E+03 -0.42983214341E+03  0.45258577326E+03  0.98262915150E+03  0.74392356222E+03 0.  0.
         23    2    3    3    0    0  0.57635515536E+01 -0.13926823780E+03  0.17342390578E+03  0.24099187935E+03  0.92587116979E+02 0.  0.
        -15    1    4    4    0    0  0.19150420190E+02  0.33382498754E+01  0.43356297779E+02  0.47514745740E+02  0.00000000000E+00 0.  1.
        -15    1    3    3    0    0 -0.25043089330E+02 -0.24945483982E+02 -0.10918154556E+02  0.36995129318E+02  0.00000000000E+00 0.  1.
         15    1    4    4    0    0 -0.13386868636E+02 -0.14260648767E+03  0.13006760800E+03  0.19347713361E+03  0.00000000000E+00 0. -1.
         15    1    3    3    0    0  0.12640955506E+03  0.25744936193E+02 -0.51804222712E+02  0.13901746236E+03  0.00000000000E+00 0. -1.
        -16    1    3    3    0    0 -0.23454371962E+03 -0.23881389810E+03  0.30190852922E+03  0.45076778318E+03  0.00000000000E+00 0.  1.
         16    1    1    2    0    0  0.15016067827E+03  0.42983214341E+03 -0.10825149818E+03  0.46799817058E+03  0.00000000000E+00 0. -1.
    9900018    1    3    3    0    0 -0.22746975924E+02 -0.52549459725E+02  0.39975715530E+02  0.11485689730E+03  0.91187600000E+02 0.  0.
<mgrwt>
<rscale>  0 0.14091677E+04</rscale>
<asrwt>0</asrwt>
<pdfrwt beam="1">  1        1 0.85099466E-01 0.14091677E+04</pdfrwt>
<pdfrwt beam="2">  1       -1 0.13807397E+00 0.14091677E+04</pdfrwt>
<totfact> 0.16297232E+01</totfact>
</mgrwt>
</event>
<event>
11    1  0.1393794E-014  0.7825843E+03  0.7818608E-02  0.9585573E-01
         -1   -1    0    0    0  501 -0.00000000000E+00  0.00000000000E+00  0.35195541703E+03  0.35195541703E+03  0.00000000000E+00 0.  1.
          1   -1    0    0  501    0  0.00000000000E+00 -0.00000000000E+00 -0.43502539560E+03  0.43502539560E+03  0.00000000000E+00 0. -1.
    9900016    2    1    2    0    0  0.37463473540E+02 -0.16669567560E+02 -0.80952315128E+02  0.67333828826E+03  0.66719546370E+03 0.  0.
         23    2    3    3    0    0 -0.22900896206E+03 -0.11138212259E+02 -0.44670405969E+02  0.25029291018E+03  0.89899561965E+02 0.  0.
        -15    1    4    4    0    0 -0.28479953013E+02 -0.37896962495E+00 -0.40398987732E+02  0.49430047050E+02  0.00000000000E+00 0.  1.
        -15    1    3    3    0    0  0.81677990318E+02  0.11735107198E+03  0.25968766082E+02  0.14531670588E+03  0.00000000000E+00 0.  1.
         15    1    3    3    0    0  0.44854765353E+02 -0.10782268178E+03 -0.71067598247E+02  0.13670509940E+03  0.00000000000E+00 0. -1.
         15    1    4    4    0    0 -0.20052900905E+03 -0.10759242635E+02 -0.42714182368E+01  0.20086286313E+03  0.00000000000E+00 0. -1.
        -16    1    3    3    0    0  0.13993967993E+03 -0.15059745500E+02  0.88169230049E+01  0.14102357280E+03  0.00000000000E+00 0.  1.
         16    1    1    2    0    0 -0.42058889910E+01  0.12286582742E+02  0.90674622770E+01  0.15838828549E+02  0.00000000000E+00 0. -1.
    9900018    1    1    2    0    0 -0.33257584549E+02  0.43829848186E+01 -0.11185125716E+02  0.97803695825E+02  0.91187600000E+02 0.  0.
<mgrwt>
<rscale>  0 0.78258429E+03</rscale>
<asrwt>0</asrwt>
<pdfrwt beam="1">  1        1 0.66926984E-01 0.78258429E+03</pdfrwt>
<pdfrwt beam="2">  1       -1 0.54146987E-01 0.78258429E+03</pdfrwt>
<totfact> 0.18688714E+02</totfact>
</mgrwt>
</event>
<event>
11    1  0.1393794E-014  0.1153686E+04  0.7818608E-02  0.9154390E-01
         -4   -1    0    0    0  501 -0.00000000000E+00  0.00000000000E+00  0.81581500449E+03  0.81581500449E+03  0.00000000000E+00 0.  1.
          4   -1    0    0  501    0  0.00000000000E+00 -0.00000000000E+00 -0.40787156273E+03  0.40787156273E+03  0.00000000000E+00 0. -1.
    9900016    2    1    2    0    0  0.30846053573E+03 -0.63929768760E+02  0.19603532202E+03  0.84402886790E+03  0.75810287226E+03 0.  0.
         23    2    3    3    0    0  0.97818834792E+02 -0.10834813184E+03  0.27206527293E+03  0.31886171464E+03  0.79658258923E+02 0.  0.
        -15    1    3    3    0    0  0.66704022729E+02 -0.27446664350E-01  0.31067804492E+02  0.73584209431E+02  0.00000000000E+00 0.  1.
        -15    1    4    4    0    0  0.10194727674E+03 -0.69809439148E+02  0.17393405604E+03  0.21335337092E+03  0.00000000000E+00 0.  1.
         15    1    4    4    0    0 -0.41284419524E+01 -0.38538692693E+02  0.98131216885E+02  0.10550834372E+03  0.00000000000E+00 0. -1.
         15    1    3    3    0    0 -0.71336845402E+02  0.54530915260E+01  0.26445692568E+02  0.76276184845E+02  0.00000000000E+00 0. -1.
        -16    1    1    2    0    0 -0.30846053573E+03  0.63929768760E+02  0.21190811975E+03  0.37965769932E+03  0.00000000000E+00 0.  1.
         16    1    3    3    0    0  0.20651007365E+03  0.78851358670E+02 -0.15889795213E+03  0.27223612264E+03  0.00000000000E+00 0. -1.
    9900018    1    3    3    0    0  0.87644499667E+01 -0.39858640450E+02  0.25354504161E+02  0.10307063635E+03  0.91187600000E+02 0.  0.
<mgrwt>
<rscale>  0 0.11536858E+04</rscale>
<asrwt>0</asrwt>
<pdfrwt beam="1">  1        4 0.62749471E-01 0.11536858E+04</pdfrwt>
<pdfrwt beam="2">  1       -4 0.12551000E+00 0.11536858E+04</pdfrwt>
<totfact> 0.22193423E+00</totfact>
</mgrwt>
</event>
<event>
11    1  0.1393794E-014  0.9258569E+03  0.7818608E-02  0.9393824E-01
         -2   -1    0    0    0  501 -0.00000000000E+00  0.00000000000E+00  0.44779291268E+03  0.44779291268E+03  0.00000000000E+00 0.  1.
          2   -1    0    0  501    0  0.00000000000E+00 -0.00000000000E+00 -0.47857558874E+03  0.47857558874E+03  0.00000000000E+00 0. -1.
    9900016    2    1    2    0    0 -0.35115894589E+02 -0.10861742689E+03 -0.11621577882E+03  0.68175288688E+03  0.66200454685E+03 0.  0.
         23    2    3    3    0    0 -0.97236258571E+02 -0.89517403663E+01 -0.20461074337E+03  0.24526685900E+03  0.93569504562E+02 0.  0.
        -15    1    4    4    0    0 -0.95359984999E+02  0.27103773348E+02 -0.15020160261E+03  0.17996850473E+03  0.00000000000E+00 0. -1.
        -15    1    3    3    0    0  0.39614388097E+02 -0.87921082033E+02 -0.89403794750E+02  0.13150077918E+03  0.00000000000E+00 0.  1.
         15    1    4    4    0    0 -0.18762735719E+01 -0.36055513714E+02 -0.54409140759E+02  0.65298354266E+02  0.00000000000E+00 0.  1.
         15    1    3    3    0    0  0.11813599956E+03  0.37318815128E+02  0.39920386827E+02  0.13016315008E+03  0.00000000000E+00 0. -1.
        -16    1    3    3    0    0 -0.95630023673E+02 -0.49063419618E+02  0.13787837247E+03  0.17482209862E+03  0.00000000000E+00 0.  1.
         16    1    1    2    0    0  0.55920898529E+02  0.85778266209E+02  0.10467722196E+03  0.14643216396E+03  0.00000000000E+00 0. -1.
    9900018    1    1    2    0    0 -0.20805003940E+02  0.22839160681E+02 -0.19244119188E+02  0.98183450574E+02  0.91187600000E+02 0.  0.
<mgrwt>
<rscale>  0 0.92585692E+03</rscale>
<asrwt>0</asrwt>
<pdfrwt beam="1">  1        2 0.73627014E-01 0.92585692E+03</pdfrwt>
<pdfrwt beam="2">  1       -2 0.68891217E-01 0.92585692E+03</pdfrwt>
<totfact> 0.12507065E+02</totfact>
</mgrwt>
</event>
<event>
11    1  0.1393794E-014  0.1914587E+04  0.7818608E-02  0.8647630E-01
          1   -1    0    0  501    0  0.00000000000E+00  0.00000000000E+00  0.13443783663E+04  0.13443783663E+04  0.00000000000E+00 0. -1.
         -1   -1    0    0    0  501 -0.00000000000E+00 -0.00000000000E+00 -0.68166117022E+03  0.68166117022E+03  0.00000000000E+00 0.  1.
    9900016    2    1    2    0    0  0.14755579247E+03  0.28022926446E+03 -0.41101646398E+03  0.90657308982E+03  0.74339698746E+03 0.  0.
         23    2    3    3    0    0  0.11120909877E+03  0.64906583226E+02 -0.25367851242E+03  0.29860186266E+03  0.90719107818E+02 0.  0.
        -15    1    4    4    0    0  0.80975481131E+02 -0.44382031823E+01 -0.11649984467E+03  0.14194696193E+03  0.00000000000E+00 0.  1.
        -15    1    3    3    0    0 -0.60741659285E+01  0.20611334307E+03 -0.99712951753E+02  0.22904645474E+03  0.00000000000E+00 0.  1.
         15    1    3    3    0    0  0.10792348963E+03 -0.33386392588E+02 -0.82773546042E+02  0.14004852998E+03  0.00000000000E+00 0. -1.
         15    1    4    4    0    0  0.30233617641E+02  0.69344786408E+02 -0.13717866775E+03  0.15665490073E+03  0.00000000000E+00 0. -1.
        -16    1    3    3    0    0 -0.77431773843E+02  0.11027588720E+02  0.92095459435E+02  0.12082574627E+03  0.00000000000E+00 0.  1.
         16    1    1    2    0    0 -0.14755579247E+03 -0.28022926446E+03  0.10737336601E+04  0.11194664467E+04  0.00000000000E+00 0. -1.
    9900018    1    3    3    0    0  0.11929143835E+02  0.31568142037E+02 -0.66946913195E+02  0.11805049616E+03  0.91187600000E+02 0.  0.
<mgrwt>
<rscale>  0 0.19145867E+04</rscale>
<asrwt>0</asrwt>
<pdfrwt beam="1">  1        1 0.20682744E+00 0.19145867E+04</pdfrwt>
<pdfrwt beam="2">  1       -1 0.10487095E+00 0.19145867E+04</pdfrwt>
<totfact> 0.67103454E+00</totfact>
</mgrwt>
</event>
<event>
11    1  0.1393794E-014  0.1132267E+04  0.7818608E-02  0.9174301E-01
         -2   -1    0    0    0  501 -0.00000000000E+00  0.00000000000E+00  0.47848043429E+03  0.47848043429E+03  0.00000000000E+00 0.  1.
          2   -1    0    0  501    0  0.00000000000E+00 -0.00000000000E+00 -0.66984391268E+03  0.66984391268E+03  0.00000000000E+00 0. -1.
    9900016    2    1    2    0    0 -0.10538729137E+02  0.22953492539E+03 -0.19815908131E+03  0.73122943056E+03  0.66530602870E+03 0.  0.
         23    2    3    3    0    0 -0.65657225275E+02  0.15699555434E+03 -0.13009247625E+03  0.23467991553E+03  0.95875622869E+02 0.  0.
        -15    1    3    3    0    0 -0.55090630500E+02 -0.45448414488E+02  0.37616458821E+02  0.80718857293E+02  0.00000000000E+00 0.  1.
        -15    1    4    4    0    0  0.77342396935E+01  0.86193460739E+02 -0.90692499541E+02  0.12535653398E+03  0.00000000000E+00 0.  1.
         15    1    4    4    0    0 -0.73391464968E+02  0.70802093599E+02 -0.39399976713E+02  0.10932338155E+03  0.00000000000E+00 0. -1.
         15    1    3    3    0    0 -0.39926411879E+02  0.21434689583E+03 -0.92822707081E+02  0.23696996659E+03  0.00000000000E+00 0. -1.
        -16    1    1    2    0    0  0.52805688549E+02 -0.29326014348E+03  0.79561925619E+01  0.29808262864E+03  0.00000000000E+00 0.  1.
         16    1    3    3    0    0  0.15013553852E+03 -0.96359110291E+02 -0.12860356792E+02  0.17886069115E+03  0.00000000000E+00 0. -1.
    9900018    1    1    2    0    0 -0.42266959412E+02  0.63725218089E+02 -0.11605896534E+01  0.11901228777E+03  0.91187600000E+02 0.  0.
<mgrwt>
<rscale>  0 0.11322671E+04</rscale>
<asrwt>0</asrwt>
<pdfrwt beam="1">  1        2 0.10305291E+00 0.11322671E+04</pdfrwt>
<pdfrwt beam="2">  1       -2 0.73612374E-01 0.11322671E+04</pdfrwt>
<totfact> 0.71468377E+01</totfact>
</mgrwt>
</event>
<event>
11    1  0.1393794E-014  0.1003721E+04  0.7818608E-02  0.9304474E-01
         -2   -1    0    0    0  501 -0.00000000000E+00  0.00000000000E+00  0.16936845564E+03  0.16936845564E+03  0.00000000000E+00 0. -1.
          2   -1    0    0  501    0  0.00000000000E+00 -0.00000000000E+00 -0.14870757550E+04  0.14870757550E+04  0.00000000000E+00 0.  1.
    9900016    2    1    2    0    0 -0.35924976439E+02 -0.20726889653E+03 -0.93299141435E+03  0.12179726476E+04  0.75414414519E+03 0.  0.
         23    2    3    3    0    0  0.10151756062E+03 -0.13727035279E+01 -0.12074298686E+03  0.18217458664E+03  0.91109888114E+02 0.  0.
        -15    1    4    4    0    0  0.64272906337E+02 -0.41383961502E+02 -0.94472164478E+02  0.12152624663E+03  0.00000000000E+00 0.  1.
        -15    1    3    3    0    0 -0.36054003707E+02  0.14061192948E+03 -0.95684836146E+02  0.17385969563E+03  0.00000000000E+00 0.  1.
         15    1    3    3    0    0 -0.54978290531E+02 -0.12032836740E+02 -0.86392750731E+02  0.10310726923E+03  0.00000000000E+00 0. -1.
         15    1    4    4    0    0  0.37244654284E+02  0.40011257974E+02 -0.26270822382E+02  0.60648340010E+02  0.00000000000E+00 0. -1.
        -16    1    1    2    0    0  0.35924976439E+02  0.20726889653E+03 -0.38471588504E+03  0.43847156305E+03  0.00000000000E+00 0.  1.
         16    1    3    3    0    0 -0.37499052775E+02 -0.32868872835E+03 -0.48589082621E+03  0.58782000144E+03  0.00000000000E+00 0. -1.
    9900018    1    3    3    0    0 -0.89111900461E+01 -0.57865574009E+01 -0.14428001441E+03  0.17101109469E+03  0.91187600000E+02 0.  0.
<mgrwt>
<rscale>  0 0.10037205E+04</rscale>
<asrwt>0</asrwt>
<pdfrwt beam="1">  1        2 0.22878089E+00 0.10037205E+04</pdfrwt>
<pdfrwt beam="2">  1       -2 0.26056685E-01 0.10037205E+04</pdfrwt>
<totfact> 0.17128308E+02</totfact>
</mgrwt>
</event>
<event>
11    1  0.1393794E-014  0.9799746E+03  0.7818608E-02  0.9330785E-01
         -2   -1    0    0    0  501 -0.00000000000E+00  0.00000000000E+00  0.89573208413E+02  0.89573208413E+02  0.00000000000E+00 0.  1.
          2   -1    0    0  501    0  0.00000000000E+00 -0.00000000000E+00 -0.26803500770E+04  0.26803500770E+04  0.00000000000E+00 0. -1.
    9900016    2    1    2    0    0 -0.80325395351E+02  0.17589319993E+03 -0.19621587772E+04  0.21122369683E+04  0.75768552601E+03 0.  0.
         23    2    3    3    0    0  0.17075899079E+02  0.38898453777E+01 -0.70639256591E+02  0.11640873358E+03  0.90853571509E+02 0.  0.
        -15    1    4    4    0    0  0.13514616477E+02 -0.38581901193E+02 -0.96516766329E+01  0.42004319064E+02  0.00000000000E+00 0. -1.
        -15    1    3    3    0    0  0.16553424174E+02  0.24924576783E+03 -0.59392762410E+03  0.64431940162E+03  0.00000000000E+00 0.  1.
         15    1    3    3    0    0  0.45516361409E+02 -0.55816157703E+02 -0.14965021061E+03  0.16607940315E+03  0.00000000000E+00 0. -1.
         15    1    4    4    0    0  0.35612826020E+01  0.42471746571E+02 -0.60987579958E+02  0.74404414518E+02  0.00000000000E+00 0.  1.
        -16    1    3    3    0    0 -0.15031167324E+03 -0.30751810534E+02 -0.99596850798E+03  0.10077164988E+04  0.00000000000E+00 0.  1.
         16    1    1    2    0    0  0.80325395351E+02 -0.17589319993E+03 -0.62861809140E+03  0.65768631714E+03  0.00000000000E+00 0. -1.
    9900018    1    3    3    0    0 -0.91594067745E+01  0.93255549533E+01 -0.15197317789E+03  0.17771293116E+03  0.91187600000E+02 0.  0.
<mgrwt>
<rscale>  0 0.97997460E+03</rscale>
<asrwt>0</asrwt>
<pdfrwt beam="1">  1        2 0.41236147E+00 0.97997460E+03</pdfrwt>
<pdfrwt beam="2">  1       -2 0.13780496E-01 0.97997460E+03</pdfrwt>
<totfact> 0.11239114E+02</totfact>
</mgrwt>
</event>
<event>
11    1  0.1393794E-014  0.8949926E+03  0.7818608E-02  0.9431863E-01
          5   -1    0    0  501    0  0.00000000000E+00  0.00000000000E+00  0.14463813608E+03  0.14463813608E+03  0.00000000000E+00 0. -1.
         -5   -1    0    0    0  501 -0.00000000000E+00 -0.00000000000E+00 -0.13845100168E+04  0.13845100168E+04  0.00000000000E+00 0.  1.
    9900016    2    1    2    0    0 -0.15392637696E+02  0.95347350433E+02 -0.90139649690E+03  0.11771628748E+04  0.75091193801E+03 0.  0.
         23    2    3    3    0    0 -0.15474451154E+03 -0.99425605887E+02 -0.51938022392E+03  0.55854275960E+03  0.91558081784E+02 0.  0.
        -15    1    4    4    0    0 -0.13369048720E+03 -0.57878577954E+02 -0.29062386768E+03  0.32509276925E+03  0.00000000000E+00 0. -1.
        -15    1    3    3    0    0  0.32156470758E+02 -0.42318268786E+02 -0.23324565352E+02  0.58042310719E+02  0.00000000000E+00 0. -1.
         15    1    3    3    0    0 -0.35766125684E+02  0.74616346998E+01  0.15305522877E+00  0.36536490866E+02  0.00000000000E+00 0.  1.
         15    1    4    4    0    0 -0.21054024334E+02 -0.41547027933E+02 -0.22875635625E+03  0.23344999035E+03  0.00000000000E+00 0.  1.
        -16    1    3    3    0    0  0.15867848720E+03  0.23884668320E+03 -0.29392431351E+03  0.41063134615E+03  0.00000000000E+00 0.  1.
         16    1    1    2    0    0  0.15392637696E+02 -0.95347350433E+02 -0.33847538380E+03  0.35198527805E+03  0.00000000000E+00 0. -1.
    9900018    1    3    3    0    0 -0.15716958429E+02 -0.92170927908E+01 -0.64920449344E+02  0.11340996746E+03  0.91187600000E+02 0.  0.
<mgrwt>
<rscale>  0 0.89499262E+03</rscale>
<asrwt>0</asrwt>
<pdfrwt beam="1">  1        5 0.22252021E-01 0.89499262E+03</pdfrwt>
<pdfrwt beam="2">  1       -5 0.21300154E+00 0.89499262E+03</pdfrwt>
<totfact> 0.17389447E+00</totfact>
</mgrwt>
</event>
<event>
11    1  0.1393794E-014  0.1029684E+04  0.7818608E-02  0.9276574E-01
          2   -1    0    0  501    0  0.00000000000E+00  0.00000000000E+00  0.15591526918E+04  0.15591526918E+04  0.00000000000E+00 0. -1.
         -2   -1    0    0    0  501 -0.00000000000E+00 -0.00000000000E+00 -0.17000403877E+03  0.17000403877E+03  0.00000000000E+00 0.  1.
    9900016    2    1    2    0    0  0.58904014680E+02 -0.42021440504E+02  0.14479094546E+04  0.16359455928E+04  0.75805059827E+03 0.  0.
         23    2    3    3    0    0 -0.10337862676E+03  0.14106194149E+03  0.22051457226E+03  0.29592020595E+03  0.91413783979E+02 0.  0.
        -15    1    4    4    0    0 -0.69422576340E+00  0.73138268336E+02  0.97437487556E+02  0.12183493844E+03  0.00000000000E+00 0. -1.
        -15    1    3    3    0    0  0.64541400815E+02 -0.55753051860E+02  0.34030655062E+03  0.35083121812E+03  0.00000000000E+00 0.  1.
         15    1    3    3    0    0 -0.11063617511E+03 -0.41504302231E+02  0.12069867737E+03  0.16891163686E+03  0.00000000000E+00 0. -1.
         15    1    4    4    0    0 -0.10268440099E+03  0.67923673158E+02  0.12307708470E+03  0.17408526750E+03  0.00000000000E+00 0.  1.
        -16    1    1    2    0    0 -0.58904014680E+02  0.42021440504E+02 -0.58760801541E+02  0.93211137774E+02  0.00000000000E+00 0.  1.
         16    1    3    3    0    0  0.17893367849E+03 -0.77293884379E+02  0.47554309988E+03  0.51393856219E+03  0.00000000000E+00 0. -1.
    9900018    1    3    3    0    0  0.29443737243E+02 -0.85321435293E+01  0.29084655449E+03  0.30634396972E+03  0.91187600000E+02 0.  0.
<mgrwt>
<rscale>  0 0.10296839E+04</rscale>
<asrwt>0</asrwt>
<pdfrwt beam="1">  1        2 0.23986964E+00 0.10296839E+04</pdfrwt>
<pdfrwt beam="2">  1       -2 0.26154469E-01 0.10296839E+04</pdfrwt>
<totfact> 0.15474980E+02</totfact>
</mgrwt>
</event>
