<event>
12    1  0.1116298E-019  0.1119928E+04  0.7818608E-02  0.9185983E-01
          1   -1    0    0  501    0  0.00000000000E+00  0.00000000000E+00  0.66086351771E+03  0.66086351771E+03  0.00000000000E+00 0. -1.
         -1   -1    0    0    0  501 -0.00000000000E+00 -0.00000000000E+00 -0.47446985730E+03  0.47446985730E+03  0.00000000000E+00 0.  1.
    9900016    2    1    2    0    0  0.10383659382E+03  0.24165098344E+03  0.22159398751E+03  0.79298587123E+03  0.71452463965E+03 0.  0.
         23    2    3    3    0    0 -0.16392367726E+03  0.98321219529E+02  0.39008806890E+03  0.44566866829E+03  0.99568198842E+02 0.  0.
         23    2    4    4    0    0 -0.14105753565E+03  0.81753439170E+02  0.34155479692E+03  0.38901691963E+03  0.89964611272E+02 0.  0.
        -15    1    5    5    0    0 -0.17697175236E+02  0.28773517426E+02  0.17056763425E+02  0.37842284484E+02  0.00000000000E+00 0.  1.
        -15    1    4    4    0    0 -0.11298676576E+02  0.12580256130E+02  0.30173467492E+02  0.34588452945E+02  0.00000000000E+00 0. -1.
         15    1    4    4    0    0 -0.11567465040E+02  0.39875242300E+01  0.18359804490E+02  0.22063295715E+02  0.00000000000E+00 0.  1.
         15    1    5    5    0    0 -0.12336036041E+03  0.52979921743E+02  0.32449803349E+03  0.35117463515E+03  0.00000000000E+00 0. -1.
        -16    1    3    3    0    0  0.26776027109E+03  0.14332976391E+03 -0.16849408139E+03  0.34731720294E+03  0.00000000000E+00 0.  1.
         16    1    1    2    0    0 -0.12778078355E+03 -0.17782621364E+03 -0.57352464195E+02  0.22636120704E+03  0.00000000000E+00 0. -1.
    9900018    1    1    2    0    0  0.23944189731E+02 -0.63824769800E+02  0.22152137098E+02  0.11598629675E+03  0.91187600000E+02 0.  0.
<mgrwt>
<rscale>  0 0.11199282E+04</rscale>
<asrwt>0</asrwt>
<pdfrwt beam="1">  1        1 0.10167131E+00 0.11199282E+04</pdfrwt>
<pdfrwt beam="2">  1       -1 0.72995362E-01 0.11199282E+04</pdfrwt>
<totfact> 0.55970236E+01</totfact>
</mgrwt>
</event>
<event>
12    1  0.1116298E-019  0.1718575E+04  0.7818608E-02  0.8750841E-01
          2   -1    0    0  501    0  0.00000000000E+00  0.00000000000E+00  0.13773242293E+04  0.13773242293E+04  0.00000000000E+00 0.  1.
         -2   -1    0    0    0  501 -0.00000000000E+00 -0.00000000000E+00 -0.53609379937E+03  0.53609379937E+03  0.00000000000E+00 0. -1.
    9900016    2    1    2    0    0  0.28384239946E+03 -0.41643583221E+03  0.58386801778E+03  0.10489813573E+04  0.71096745045E+03 0.  0.
         23    2    3    3    0    0  0.11481178702E+03 -0.26475258462E+02  0.60360134211E+03  0.62350515215E+03  0.10267136316E+03 0.  0.
         23    2    4    4    0    0  0.86276428394E+02 -0.15411950909E+02  0.50789228855E+03  0.52255709262E+03  0.86198537994E+02 0.  0.
        -15    1    4    4    0    0  0.88152187220E+01 -0.61604203512E+01  0.21979686513E+02  0.24469684903E+02  0.00000000000E+00 0.  1.
        -15    1    5    5    0    0  0.60366862371E+02  0.31365168542E+02  0.32306708137E+03  0.33015189070E+03  0.00000000000E+00 0.  1.
         15    1    5    5    0    0  0.25909566023E+02 -0.46777119451E+02  0.18482520718E+03  0.19240520192E+03  0.00000000000E+00 0. -1.
         15    1    4    4    0    0  0.19720139903E+02 -0.49028872024E+01  0.73729367048E+02  0.76478374629E+02  0.00000000000E+00 0. -1.
        -16    1    1    2    0    0 -0.41621907346E+03  0.49398961752E+03  0.18581055902E+03  0.67215297602E+03  0.00000000000E+00 0.  1.
         16    1    3    3    0    0  0.16903061244E+03 -0.38996057375E+03 -0.19733324329E+02  0.42547620510E+03  0.00000000000E+00 0. -1.
    9900018    1    1    2    0    0  0.13237667400E+03 -0.77553785311E+02  0.71551853140E+02  0.19228369540E+03  0.91187600000E+02 0.  0.
<mgrwt>
<rscale>  0 0.17185750E+04</rscale>
<asrwt>0</asrwt>
<pdfrwt beam="1">  1        2 0.21189603E+00 0.17185750E+04</pdfrwt>
<pdfrwt beam="2">  1       -2 0.82475970E-01 0.17185750E+04</pdfrwt>
<totfact> 0.18282345E+01</totfact>
</mgrwt>
</event>
<event>
12    1  0.1116298E-019  0.2251432E+04  0.7818608E-02  0.8497321E-01
          2   -1    0    0  501    0  0.00000000000E+00  0.00000000000E+00  0.11240080457E+04  0.11240080457E+04  0.00000000000E+00 0. -1.
         -2   -1    0    0    0  501 -0.00000000000E+00 -0.00000000000E+00 -0.11274263746E+04  0.11274263746E+04  0.00000000000E+00 0.  1.
    9900016    2    1    2    0    0  0.82625321395E+02  0.67410589868E+02  0.59055873250E+03  0.93096438747E+03  0.71173305589E+03 0.  0.
         23    2    3    3    0    0 -0.69670418103E+02 -0.17750665275E+03  0.60477434312E+03  0.64220751468E+03  0.10156725299E+03 0.  0.
         23    2    4    4    0    0 -0.54625450450E+02 -0.13618768385E+03  0.44587227136E+03  0.47689926094E+03  0.84260296962E+02 0.  0.
        -15    1    4    4    0    0 -0.78308594086E+01 -0.72383328327E+01  0.41370575405E+02  0.42722831491E+02  0.00000000000E+00 0.  1.
        -15    1    5    5    0    0  0.46269077145E+00 -0.49909626518E+02  0.25958385427E+03  0.26433872645E+03  0.00000000000E+00 0.  1.
         15    1    5    5    0    0 -0.55088141221E+02 -0.86278057334E+02  0.18628841709E+03  0.21256053449E+03  0.00000000000E+00 0. -1.
         15    1    4    4    0    0 -0.72141082441E+01 -0.34080636065E+02  0.11753149635E+03  0.12258542225E+03  0.00000000000E+00 0. -1.
        -16    1    1    2    0    0 -0.73953949424E+02 -0.47240248913E+03 -0.73938476008E+03  0.88052434482E+03  0.00000000000E+00 0.  1.
         16    1    3    3    0    0  0.15229573950E+03  0.24491724262E+03 -0.14215610621E+02  0.28875687279E+03  0.00000000000E+00 0. -1.
    9900018    1    1    2    0    0 -0.86713719713E+01  0.40499189926E+03  0.14540769876E+03  0.43994568802E+03  0.91187600000E+02 0.  0.
<mgrwt>
<rscale>  0 0.22514318E+04</rscale>
<asrwt>0</asrwt>
<pdfrwt beam="1">  1        2 0.17292431E+00 0.22514318E+04</pdfrwt>
<pdfrwt beam="2">  1       -2 0.17345021E+00 0.22514318E+04</pdfrwt>
<totfact> 0.38615183E+00</totfact>
</mgrwt>
</event>
