<event>
12    1  0.1233833E-011  0.4235156E+04  0.7818608E-02  0.7958718E-01
         -2   -1    0    0    0  501 -0.00000000000E+00  0.00000000000E+00  0.19772211068E+04  0.19772211068E+04  0.00000000000E+00 0.  1.
          2   -1    0    0  501    0  0.00000000000E+00 -0.00000000000E+00 -0.22678988942E+04  0.22678988942E+04  0.00000000000E+00 0. -1.
    9900016    2    1    2    0    0 -0.57211659975E+03 -0.45240379335E+03 -0.10527465409E+04  0.25458457925E+04  0.22002429238E+04 0.  0.
         24    2    3    3    0    0 -0.74889170102E+03 -0.26831481000E+03 -0.11377235427E+04  0.13912862658E+04  0.91820459925E+02 0.  0.
         23    2    3    3    0    0  0.23403832632E+03  0.26388745563E+02 -0.48505513676E+03  0.54421815475E+03  0.73651952957E+02 0.  0.
        -15    1    5    5    0    0  0.12510241874E+03 -0.92460716422E+01 -0.18992099989E+03  0.22760951478E+03  0.00000000000E+00 0.  1.
        -15    1    4    4    0    0 -0.24506514052E+03 -0.99774683994E+02 -0.30797546552E+03  0.40603053829E+03  0.00000000000E+00 0.  1.
         15    1    5    5    0    0  0.10893590758E+03  0.35634817205E+02 -0.29513413687E+03  0.31660863997E+03  0.00000000000E+00 0. -1.
         15    1    3    3    0    0 -0.57263225049E+02 -0.21047772892E+03  0.57003213852E+03  0.61034137191E+03  0.00000000000E+00 0. -1.
        -16    1    1    2    0    0  0.55992096566E+03  0.57866466436E+03  0.10787651209E+04  0.13461420681E+04  0.00000000000E+00 0.  1.
         16    1    4    4    0    0 -0.50382656050E+03 -0.16854012600E+03 -0.82974807715E+03  0.98525572755E+03  0.00000000000E+00 0. -1.
    9900018    1    1    2    0    0  0.12195634085E+02 -0.12626087101E+03 -0.31669636739E+03  0.35313214036E+03  0.91187600000E+02 0.  0.
<mgrwt>
<rscale>  0 0.42351565E+04</rscale>
<asrwt>0</asrwt>
<pdfrwt beam="1">  1        2 0.34890752E+00 0.42351565E+04</pdfrwt>
<pdfrwt beam="2">  1       -2 0.30418786E+00 0.42351565E+04</pdfrwt>
<totfact> 0.10964044E-01</totfact>
</mgrwt>
</event>
<event>
12    1  0.1163595E-011  0.3827846E+04  0.7818608E-02  0.8040205E-01
         -2   -1    0    0    0  501 -0.00000000000E+00  0.00000000000E+00  0.15294206207E+04  0.15294206207E+04  0.00000000000E+00 0.  1.
          2   -1    0    0  501    0  0.00000000000E+00 -0.00000000000E+00 -0.23950912707E+04  0.23950912707E+04  0.00000000000E+00 0. -1.
    9900016    2    1    2    0    0  0.53011822680E+03  0.47142918263E+03 -0.84211518899E+03  0.24620393627E+04  0.22020919652E+04 0.  0.
         24    2    3    3    0    0  0.57627494010E+03  0.61967420490E+03 -0.14890627549E+04  0.17155173001E+04  0.97993836143E+02 0.  0.
         23    2    3    3    0    0  0.12940815797E+03 -0.26622630029E+02  0.34776062652E+03  0.37892465372E+03  0.72050010811E+02 0.  0.
        -15    1    4    4    0    0  0.21800266946E+03  0.19036403420E+03 -0.43824559667E+03  0.52518837802E+03  0.00000000000E+00 0.  1.
        -15    1    5    5    0    0  0.10829835800E+03 -0.49744242219E+02  0.27456736643E+03  0.29931632546E+03  0.00000000000E+00 0. -1.
         15    1    5    5    0    0  0.21109799973E+02  0.23121612190E+02  0.73193260086E+02  0.79608328252E+02  0.00000000000E+00 0.  1.
         15    1    3    3    0    0 -0.17556487127E+03 -0.12162239224E+03  0.29918693939E+03  0.36759740889E+03  0.00000000000E+00 0. -1.
        -16    1    1    2    0    0 -0.85298004062E+03 -0.46727465983E+03  0.27780733875E+03  0.10114828100E+04  0.00000000000E+00 0.  1.
         16    1    4    4    0    0  0.35827227064E+03  0.42931017070E+03 -0.10508171582E+04  0.11903289220E+04  0.00000000000E+00 0. -1.
    9900018    1    1    2    0    0  0.32286181381E+03 -0.41545227975E+01 -0.30136279976E+03  0.45098971867E+03  0.91187600000E+02 0.  0.
<mgrwt>
<rscale>  0 0.38278464E+04</rscale>
<asrwt>0</asrwt>
<pdfrwt beam="1">  1        2 0.36847558E+00 0.38278464E+04</pdfrwt>
<pdfrwt beam="2">  1       -2 0.23529548E+00 0.38278464E+04</pdfrwt>
<totfact> 0.25362516E-01</totfact>
</mgrwt>
</event>
<event>
11    1  0.1163595E-011  0.2641051E+04  0.7818608E-02  0.8354389E-01
         -2   -1    0    0    0  501 -0.00000000000E+00  0.00000000000E+00  0.76691274779E+03  0.76691274779E+03  0.00000000000E+00 0.  1.
          2   -1    0    0  501    0  0.00000000000E+00 -0.00000000000E+00 -0.22737756551E+04  0.22737756551E+04  0.00000000000E+00 0. -1.
    9900016    2    1    2    0    0  0.26949218987E+03 -0.22538966149E+00 -0.11620991073E+04  0.25092419164E+04  0.22075313291E+04 0.  0.
         24    2    3    3    0    0  0.17452999275E+03  0.82166912860E+03  0.21568928420E+03  0.87426786139E+03  0.11055112333E+03 0.  0.
        -15    1    3    3    0    0 -0.46406355084E+02 -0.35651969834E+03 -0.45594292564E+03  0.58064084987E+03  0.00000000000E+00 0.  1.
        -15    1    4    4    0    0  0.11261985556E+03  0.41359909079E+03  0.58600051158E+02  0.43264466455E+03  0.00000000000E+00 0.  1.
         15    1    3    3    0    0  0.16275576875E+03 -0.33421332125E+03 -0.59596679696E+03  0.70239903719E+03  0.00000000000E+00 0. -1.
         15    1    3    3    0    0 -0.21387216554E+02 -0.13116149867E+03 -0.32587866887E+03  0.35193416797E+03  0.00000000000E+00 0. -1.
        -16    1    1    2    0    0 -0.16320306060E+03  0.84167003277E+02 -0.43388781769E+02  0.18868468357E+03  0.00000000000E+00 0.  1.
         16    1    4    4    0    0  0.61910137193E+02  0.40807003781E+03  0.15708923304E+03  0.44162319684E+03  0.00000000000E+00 0. -1.
    9900018    1    1    2    0    0 -0.10628912927E+03 -0.83941613616E+02 -0.30137501831E+03  0.34276180294E+03  0.91187600000E+02 0.  0.
<mgrwt>
<rscale>  0 0.26410510E+04</rscale>
<asrwt>0</asrwt>
<pdfrwt beam="1">  1        2 0.34981164E+00 0.26410510E+04</pdfrwt>
<pdfrwt beam="2">  1       -2 0.11798658E+00 0.26410510E+04</pdfrwt>
<totfact> 0.22899538E+00</totfact>
</mgrwt>
</event>
<event>
11    1  0.1163595E-011  0.5096346E+04  0.7818608E-02  0.7813814E-01
          1   -1    0    0  501    0  0.00000000000E+00  0.00000000000E+00  0.14072552404E+04  0.14072552404E+04  0.00000000000E+00 0. -1.
         -1   -1    0    0    0  501 -0.00000000000E+00 -0.00000000000E+00 -0.46140777102E+04  0.46140777102E+04  0.00000000000E+00 0.  1.
    9900016    2    1    2    0    0  0.36048131110E+03 -0.10720510782E+03 -0.25503585523E+04  0.33878846789E+04  0.21981797337E+04 0.  0.
        -24    2    3    3    0    0  0.95613348219E+02  0.62094412053E+03 -0.12491506823E+04  0.13999460133E+04  0.68977531783E+02 0.  0.
        -15    1    3    3    0    0 -0.32704140503E+03 -0.76087915769E+03 -0.10147993017E+04  0.13098514404E+04  0.00000000000E+00 0.  1.
        -15    1    3    3    0    0  0.15431154223E+03 -0.50656960967E+02 -0.12244534879E+03  0.20339872959E+03  0.00000000000E+00 0.  1.
         15    1    3    3    0    0  0.43759782568E+03  0.83386890316E+02 -0.16396321952E+03  0.47468849562E+03  0.00000000000E+00 0. -1.
         15    1    4    4    0    0  0.82553383174E+02  0.32401507614E+03 -0.68777228752E+03  0.76474279998E+03  0.00000000000E+00 0. -1.
        -16    1    4    4    0    0  0.13059965045E+02  0.29692904439E+03 -0.56137839474E+03  0.63520321329E+03  0.00000000000E+00 0.  1.
         16    1    1    2    0    0 -0.10098342506E+04 -0.45385048359E+03  0.47978819632E+03  0.12066242947E+04  0.00000000000E+00 0. -1.
    9900018    1    1    2    0    0  0.64935293953E+03  0.56105559141E+03 -0.11362521139E+04  0.14268239771E+04  0.91187600000E+02 0.  0.
<mgrwt>
<rscale>  0 0.50963458E+04</rscale>
<asrwt>0</asrwt>
<pdfrwt beam="1">  1        1 0.21650081E+00 0.50963458E+04</pdfrwt>
<pdfrwt beam="2">  1       -1 0.70985809E+00 0.50963458E+04</pdfrwt>
<totfact> 0.10144675E-03</totfact>
</mgrwt>
</event>
<event>
10    1  0.1212105E-011  0.3852295E+04  0.7818608E-02  0.8035025E-01
          1   -1    0    0  501    0  0.00000000000E+00  0.00000000000E+00  0.77419032465E+03  0.77419032465E+03  0.00000000000E+00 0. -1.
         -1   -1    0    0    0  501 -0.00000000000E+00 -0.00000000000E+00 -0.47921613421E+04  0.47921613421E+04  0.00000000000E+00 0.  1.
    9900016    2    1    2    0    0 -0.72223538800E+02 -0.84678282122E+03 -0.23832899582E+04  0.33484639488E+04  0.21931444106E+04 0.  0.
        -15    1    3    3    0    0 -0.83582052516E+02 -0.17721354438E+03 -0.41681155170E+03  0.46056755144E+03  0.00000000000E+00 0.  1.
        -15    1    3    3    0    0  0.64393829720E+03 -0.60921171293E+03 -0.20302474957E+04  0.22153330079E+04  0.00000000000E+00 0.  1.
         15    1    3    3    0    0 -0.29345994543E+03  0.53005118642E+02  0.68730576151E+02  0.30602642740E+03  0.00000000000E+00 0. -1.
         15    1    3    3    0    0 -0.53593495962E+02 -0.15224805541E+02 -0.30538077172E+02  0.63534491975E+02  0.00000000000E+00 0. -1.
        -16    1    3    3    0    0 -0.28552634210E+03 -0.98137877015E+02  0.25576590265E+02  0.30300247014E+03  0.00000000000E+00 0.  1.
         16    1    1    2    0    0  0.59734219907E+03  0.74533117415E+03 -0.99883076720E+03  0.13820271935E+04  0.00000000000E+00 0. -1.
    9900018    1    1    2    0    0 -0.52511866027E+03  0.10145164707E+03 -0.63585029203E+03  0.83586052445E+03  0.91187600000E+02 0.  0.
<mgrwt>
<rscale>  0 0.38522954E+04</rscale>
<asrwt>0</asrwt>
<pdfrwt beam="1">  1        1 0.11910621E+00 0.38522954E+04</pdfrwt>
<pdfrwt beam="2">  1       -1 0.73725557E+00 0.38522954E+04</pdfrwt>
<totfact> 0.26672053E-03</totfact>
</mgrwt>
</event>
<event>
11    1  0.1163595E-011  0.3448368E+04  0.7818608E-02  0.8126136E-01
          1   -1    0    0  501    0  0.00000000000E+00  0.00000000000E+00  0.24531409192E+04  0.24531409192E+04  0.00000000000E+00 0. -1.
         -1   -1    0    0    0  501 -0.00000000000E+00 -0.00000000000E+00 -0.12118383839E+04  0.12118383839E+04  0.00000000000E+00 0.  1.
    9900016    2    1    2    0    0 -0.59439295119E+03  0.63964252902E+03  0.59417696549E+03  0.24385388770E+04  0.21979490538E+04 0.  0.
         23    2    3    3    0    0 -0.28664481050E+03 -0.34656612037E+03 -0.10308856346E+03  0.47323871347E+03  0.10513945422E+03 0.  0.
        -15    1    4    4    0    0 -0.24634562331E+03 -0.22757538520E+03 -0.87832211897E+02  0.34668605325E+03  0.00000000000E+00 0.  1.
        -15    1    3    3    0    0 -0.51319479234E+03  0.27504774101E+03  0.28201817684E+02  0.58293695821E+03  0.00000000000E+00 0.  1.
         15    1    3    3    0    0 -0.33439836461E+03  0.38875881980E+03  0.53181149908E+03  0.73876867610E+03  0.00000000000E+00 0. -1.
         15    1    4    4    0    0 -0.40299187192E+02 -0.11899073517E+03 -0.15256351560E+02  0.12655266022E+03  0.00000000000E+00 0. -1.
        -16    1    3    3    0    0  0.53984501626E+03  0.32240208858E+03  0.13725221218E+03  0.64359452923E+03  0.00000000000E+00 0.  1.
         16    1    1    2    0    0  0.67596141646E+03 -0.57024326470E+03  0.62761257284E+03  0.10844347648E+04  0.00000000000E+00 0. -1.
    9900018    1    1    2    0    0 -0.81568465267E+02 -0.69399264320E+02  0.19512996958E+02  0.14200566136E+03  0.91187600000E+02 0.  0.
<mgrwt>
<rscale>  0 0.34483679E+04</rscale>
<asrwt>0</asrwt>
<pdfrwt beam="1">  1        1 0.37740629E+00 0.34483679E+04</pdfrwt>
<pdfrwt beam="2">  1       -1 0.18643668E+00 0.34483679E+04</pdfrwt>
<totfact> 0.22393431E-01</totfact>
</mgrwt>
</event>
<event>
12    1  0.1163595E-011  0.3020536E+04  0.7818608E-02  0.8237891E-01
          1   -1    0    0  501    0  0.00000000000E+00  0.00000000000E+00  0.15147596125E+04  0.15147596125E+04  0.00000000000E+00 0. -1.
         -1   -1    0    0    0  501 -0.00000000000E+00 -0.00000000000E+00 -0.15057898037E+04  0.15057898037E+04  0.00000000000E+00 0.  1.
    9900016    2    1    2    0    0  0.12650642334E+03 -0.29453152161E+03 -0.10563376036E+03  0.22215374011E+04  0.21957498129E+04 0.  0.
        -24    2    3    3    0    0  0.20295256019E+03 -0.14652503020E+03  0.38253936966E+03  0.46108571234E+03  0.60036144285E+02 0.  0.
         23    2    3    3    0    0  0.66439922219E+03 -0.34825477855E+03  0.13665217098E+03  0.77082656818E+03  0.11310201215E+03 0.  0.
        -15    1    5    5    0    0  0.33033533669E+02 -0.13492771103E+02 -0.17533396360E+02  0.39757882321E+02  0.00000000000E+00 0.  1.
        -15    1    3    3    0    0 -0.74084535904E+03  0.20024828713E+03 -0.62482530100E+03  0.98962512058E+03  0.00000000000E+00 0.  1.
         15    1    4    4    0    0  0.19119542196E+03 -0.13519715608E+03  0.37707562939E+03  0.44386933963E+03  0.00000000000E+00 0. -1.
         15    1    5    5    0    0  0.63136568852E+03 -0.33476200745E+03  0.15418556734E+03  0.73106868586E+03  0.00000000000E+00 0. -1.
        -16    1    4    4    0    0  0.11757138231E+02 -0.11327874116E+02  0.54637402783E+01  0.17216372708E+02  0.00000000000E+00 0.  1.
         16    1    1    2    0    0 -0.18456107908E+03  0.22759903591E+03  0.39459954347E+03  0.49150067422E+03  0.00000000000E+00 0. -1.
    9900018    1    1    2    0    0  0.58054655743E+02  0.66932485705E+02 -0.27999597440E+03  0.30751134088E+03  0.91187600000E+02 0.  0.
<mgrwt>
<rscale>  0 0.30205361E+04</rscale>
<asrwt>0</asrwt>
<pdfrwt beam="1">  1        1 0.23303994E+00 0.30205361E+04</pdfrwt>
<pdfrwt beam="2">  1       -1 0.23165997E+00 0.30205361E+04</pdfrwt>
<totfact> 0.49956483E-01</totfact>
</mgrwt>
</event>
<event>
11    1  0.1163595E-011  0.3140493E+04  0.7818608E-02  0.8204712E-01
          2   -1    0    0  501    0  0.00000000000E+00  0.00000000000E+00  0.19306385720E+04  0.19306385720E+04  0.00000000000E+00 0.  1.
         -2   -1    0    0    0  501 -0.00000000000E+00 -0.00000000000E+00 -0.12771289925E+04  0.12771289925E+04  0.00000000000E+00 0. -1.
    9900016    2    1    2    0    0 -0.11305106939E+03 -0.41890470874E+03  0.86418124866E+03  0.24057192934E+04  0.22028196451E+04 0.  0.
        -24    2    3    3    0    0  0.55017443567E+02 -0.10383478485E+04 -0.18489758849E+03  0.10577544630E+04  0.58857558418E+02 0.  0.
        -15    1    3    3    0    0 -0.27041116590E+03  0.60761520006E+03  0.81950137394E+03  0.10554150519E+04  0.00000000000E+00 0.  1.
        -15    1    3    3    0    0  0.88713812791E+02  0.72922389849E+02  0.11828172479E+03  0.16485867263E+03  0.00000000000E+00 0.  1.
         15    1    3    3    0    0  0.13628840143E+02 -0.61094450102E+02  0.11129573842E+03  0.12769110583E+03  0.00000000000E+00 0. -1.
         15    1    4    4    0    0  0.57824705454E+02 -0.56023919366E+03 -0.91467765058E+02  0.57059442928E+03  0.00000000000E+00 0. -1.
        -16    1    4    4    0    0 -0.28072618879E+01 -0.47810865488E+03 -0.93429823429E+02  0.48716003376E+03  0.00000000000E+00 0.  1.
         16    1    1    2    0    0  0.37791385996E+02  0.12144401848E+03 -0.40708734228E+03  0.42649377806E+03  0.00000000000E+00 0. -1.
    9900018    1    1    2    0    0  0.75259683398E+02  0.29746069026E+03  0.19641567309E+03  0.37555449301E+03  0.91187600000E+02 0.  0.
<mgrwt>
<rscale>  0 0.31404933E+04</rscale>
<asrwt>0</asrwt>
<pdfrwt beam="1">  1        2 0.29702132E+00 0.31404933E+04</pdfrwt>
<pdfrwt beam="2">  1       -2 0.19648138E+00 0.31404933E+04</pdfrwt>
<totfact> 0.86697361E-01</totfact>
</mgrwt>
</event>
<event>
11    1  0.1163595E-011  0.4094856E+04  0.7818608E-02  0.7985680E-01
         -2   -1    0    0    0  501 -0.00000000000E+00  0.00000000000E+00  0.13890326529E+04  0.13890326529E+04  0.00000000000E+00 0.  1.
          2   -1    0    0  501    0  0.00000000000E+00 -0.00000000000E+00 -0.30178995492E+04  0.30178995492E+04  0.00000000000E+00 0. -1.
    9900016    2    1    2    0    0 -0.23831111677E+03 -0.39912636542E+03 -0.31020981882E+03  0.22690858452E+04  0.21991876676E+04 0.  0.
         23    2    3    3    0    0 -0.36882830916E+02 -0.81071107370E+02  0.11417423595E+03  0.16459112026E+03  0.78240737774E+02 0.  0.
        -15    1    4    4    0    0 -0.59699126680E+02 -0.65560818132E+02  0.99737154472E+02  0.13345301264E+03  0.00000000000E+00 0.  1.
        -15    1    3    3    0    0 -0.20797587544E+03  0.27722454475E+03  0.72826763166E+03  0.80652412010E+03  0.00000000000E+00 0.  1.
         15    1    4    4    0    0  0.22816295764E+02 -0.15510289238E+02  0.14437081479E+02  0.31138107622E+02  0.00000000000E+00 0. -1.
         15    1    3    3    0    0  0.21704706876E+02 -0.19998016006E+03 -0.39286090593E+03  0.44136475859E+03  0.00000000000E+00 0. -1.
        -16    1    3    3    0    0 -0.15157117291E+02 -0.39529964274E+03 -0.75979078051E+03  0.85660584629E+03  0.00000000000E+00 0.  1.
         16    1    1    2    0    0  0.29446391571E+03  0.14116242853E+03 -0.16628341063E+04  0.16945952597E+04  0.00000000000E+00 0. -1.
    9900018    1    1    2    0    0 -0.56152798942E+02  0.25796393689E+03  0.34417702890E+03  0.44325109721E+03  0.91187600000E+02 0.  0.
<mgrwt>
<rscale>  0 0.40948558E+04</rscale>
<asrwt>0</asrwt>
<pdfrwt beam="1">  1        2 0.46429224E+00 0.40948558E+04</pdfrwt>
<pdfrwt beam="2">  1       -2 0.21369733E+00 0.40948558E+04</pdfrwt>
<totfact> 0.14390984E-01</totfact>
</mgrwt>
</event>
