<event>
12    1  0.2981001E-010  0.1072426E+04  0.7818608E-02  0.9232492E-01
         -3   -1    0    0    0  501 -0.00000000000E+00  0.00000000000E+00  0.79509246174E+03  0.79509246174E+03  0.00000000000E+00 0.  1.
          3   -1    0    0  501    0  0.00000000000E+00 -0.00000000000E+00 -0.36162376651E+03  0.36162376651E+03  0.00000000000E+00 0. -1.
    9900016    2    1    2    0    0 -0.72471839054E+02  0.31072614095E+03  0.42562490829E+03  0.83755415795E+03  0.64694474480E+03 0.  0.
         25    2    3    3    0    0 -0.42484043197E+02  0.44588173538E+02 -0.49585857980E+02  0.14790688738E+03  0.12499876350E+03 0.  0.
         23    2    4    4    0    0 -0.36638483555E+02  0.41185324490E+02 -0.26194838643E+02  0.10875675578E+03  0.90018069994E+02 0.  0.
        -15    1    5    5    0    0 -0.20332554130E+02  0.65309624927E+02 -0.36916226460E+02  0.77727521777E+02  0.00000000000E+00 0.  1.
        -15    1    4    4    0    0  0.73346997228E+01  0.11856702998E+02 -0.17604789547E+02  0.22456799438E+02  0.00000000000E+00 0.  1.
         15    1    5    5    0    0 -0.16305929424E+02 -0.24124300437E+02  0.10721387817E+02  0.31029234001E+02  0.00000000000E+00 0. -1.
         15    1    4    4    0    0 -0.13180259365E+02 -0.84538539505E+01 -0.57862297898E+01  0.16693332164E+02  0.00000000000E+00 0. -1.
        -16    1    3    3    0    0 -0.21271636545E+03  0.10424662971E+03  0.19339025149E+03  0.30580287982E+03  0.00000000000E+00 0.  1.
         16    1    1    2    0    0  0.72471839054E+02 -0.31072614095E+03  0.78437869391E+01  0.31916207030E+03  0.00000000000E+00 0. -1.
    9900018    1    3    3    0    0  0.18272856959E+03  0.16189133770E+03  0.28182051478E+03  0.38384439075E+03  0.91187600000E+02 0.  0.
<mgrwt>
<rscale>  0 0.10724259E+04</rscale>
<asrwt>0</asrwt>
<pdfrwt beam="1">  1        3 0.55634426E-01 0.10724259E+04</pdfrwt>
<pdfrwt beam="2">  1       -3 0.12232192E+00 0.10724259E+04</pdfrwt>
<totfact> 0.44735817E+00</totfact>
</mgrwt>
</event>
<event>
12    1  0.2981001E-010  0.9035152E+03  0.7818608E-02  0.9421198E-01
         -2   -1    0    0    0  501 -0.00000000000E+00  0.00000000000E+00  0.50479927920E+03  0.50479927920E+03  0.00000000000E+00 0.  1.
          2   -1    0    0  501    0  0.00000000000E+00 -0.00000000000E+00 -0.40428925341E+03  0.40428925341E+03  0.00000000000E+00 0. -1.
    9900016    2    1    2    0    0  0.69108216305E+02 -0.55466772360E+02  0.69777120001E+02  0.81529610277E+03  0.80745673588E+03 0.  0.
         25    2    3    3    0    0 -0.90117544763E+01 -0.18252499300E+03  0.17997756417E+03  0.28533001322E+03  0.12499883220E+03 0.  0.
         23    2    4    4    0    0  0.12346792131E+02 -0.13243159427E+03  0.11474391032E+03  0.19748857902E+03  0.90249672871E+02 0.  0.
        -15    1    5    5    0    0  0.42345125462E+02 -0.10946409897E+03  0.62375819536E+02  0.13291441410E+03  0.00000000000E+00 0.  1.
        -15    1    4    4    0    0 -0.17008081999E+02 -0.27170412874E+02  0.22533389400E+02  0.39182391796E+02  0.00000000000E+00 0. -1.
         15    1    4    4    0    0 -0.43504646079E+01 -0.22922985859E+02  0.42700264454E+02  0.48659042402E+02  0.00000000000E+00 0.  1.
         15    1    5    5    0    0 -0.29998333331E+02 -0.22967495298E+02  0.52368090784E+02  0.64574164922E+02  0.00000000000E+00 0. -1.
        -16    1    1    2    0    0 -0.69108216305E+02  0.55466772360E+02  0.30732905781E+02  0.93792429836E+02  0.00000000000E+00 0.  1.
         16    1    3    3    0    0  0.46667088846E+02  0.24929488549E+02 -0.29394707335E+03  0.29867068573E+03  0.00000000000E+00 0. -1.
    9900018    1    3    3    0    0  0.31452881935E+02  0.10212873209E+03  0.18374662918E+03  0.23129540382E+03  0.91187600000E+02 0.  0.
<mgrwt>
<rscale>  0 0.90351519E+03</rscale>
<asrwt>0</asrwt>
<pdfrwt beam="1">  1        2 0.62198347E-01 0.90351519E+03</pdfrwt>
<pdfrwt beam="2">  1       -2 0.77661427E-01 0.90351519E+03</pdfrwt>
<totfact> 0.11652120E+02</totfact>
</mgrwt>
</event>
<event>
12    1  0.2981001E-010  0.1261657E+04  0.7818608E-02  0.9060536E-01
         -2   -1    0    0    0  501 -0.00000000000E+00  0.00000000000E+00  0.27946827416E+03  0.27946827416E+03  0.00000000000E+00 0.  1.
          2   -1    0    0  501    0  0.00000000000E+00 -0.00000000000E+00 -0.14239350606E+04  0.14239350606E+04  0.00000000000E+00 0. -1.
    9900016    2    1    2    0    0  0.13930923516E+03 -0.13989574711E+03 -0.45960826670E+03  0.81167092048E+03  0.63921204719E+03 0.  0.
         25    2    3    3    0    0  0.61986710723E+01  0.91762103638E+02  0.10477152175E+03  0.18724452154E+03  0.12499892756E+03 0.  0.
         23    2    4    4    0    0  0.14140096110E+02  0.46794241976E+02  0.63911057738E+02  0.12169801372E+03  0.91302463507E+02 0.  0.
        -15    1    5    5    0    0  0.41935163118E+02  0.15856770102E+02 -0.72364310827E+00  0.44838808226E+02  0.00000000000E+00 0.  1.
        -15    1    4    4    0    0 -0.15482612873E+02  0.28673546253E+02  0.31394323958E+02  0.45249167207E+02  0.00000000000E+00 0.  1.
         15    1    4    4    0    0  0.75411878350E+01  0.16294315408E+02  0.94661400516E+01  0.20297340616E+02  0.00000000000E+00 0. -1.
         15    1    5    5    0    0 -0.27795067008E+02  0.30937471874E+02  0.64634700846E+02  0.76859205495E+02  0.00000000000E+00 0. -1.
        -16    1    1    2    0    0 -0.24589616640E+03  0.25552801156E+03 -0.29392382484E+03  0.46059820250E+03  0.00000000000E+00 0.  1.
         16    1    3    3    0    0  0.13311056408E+03 -0.23165785074E+03 -0.56437978845E+03  0.62442639894E+03  0.00000000000E+00 0. -1.
    9900018    1    1    2    0    0  0.10658693124E+03 -0.11563226445E+03 -0.39093469494E+03  0.43113421181E+03  0.91187600000E+02 0.  0.
<mgrwt>
<rscale>  0 0.12616571E+04</rscale>
<asrwt>0</asrwt>
<pdfrwt beam="1">  1        2 0.21906693E+00 0.12616571E+04</pdfrwt>
<pdfrwt beam="2">  1       -2 0.42995120E-01 0.12616571E+04</pdfrwt>
<totfact> 0.70640167E+01</totfact>
</mgrwt>
</event>
<event>
12    1  0.3026374E-010  0.1277774E+04  0.7818608E-02  0.9047379E-01
          2   -1    0    0  501    0  0.00000000000E+00  0.00000000000E+00  0.28167111997E+04  0.28167111997E+04  0.00000000000E+00 0. -1.
         -2   -1    0    0    0  501 -0.00000000000E+00 -0.00000000000E+00 -0.14491238860E+03  0.14491238860E+03  0.00000000000E+00 0.  1.
    9900016    2    1    2    0    0 -0.11693765172E+01  0.19264648387E+03  0.64280079537E+03  0.92350019089E+03  0.63446489648E+03 0.  0.
         25    2    3    3    0    0 -0.95404699482E+02  0.71723240154E+02  0.17116806412E+01  0.17284290362E+03  0.12500183847E+03 0.  0.
         23    2    4    4    0    0 -0.51971158493E+02  0.53622486146E+02  0.13350794208E+02  0.11611167799E+03  0.87905094989E+02 0.  0.
        -15    1    5    5    0    0  0.73537933910E+01  0.14002049346E+02 -0.29083926875E+02  0.33106048777E+02  0.00000000000E+00 0.  1.
        -15    1    4    4    0    0 -0.23587491473E+02  0.25057366453E+02 -0.87125284376E+01  0.35498584751E+02  0.00000000000E+00 0.  1.
         15    1    4    4    0    0 -0.19846049517E+02 -0.69566124443E+01 -0.29265851295E+01  0.21232640878E+02  0.00000000000E+00 0. -1.
         15    1    5    5    0    0 -0.59324951884E+02  0.39620436800E+02  0.42434721084E+02  0.83005629217E+02  0.00000000000E+00 0. -1.
        -16    1    3    3    0    0  0.15043808471E+03  0.15785008802E+03  0.20219310862E+03  0.29737236051E+03  0.00000000000E+00 0.  1.
         16    1    1    2    0    0  0.11693765172E+01 -0.19264648387E+03  0.20289980158E+04  0.20381233974E+04  0.00000000000E+00 0. -1.
    9900018    1    3    3    0    0 -0.56202761748E+02 -0.36926844312E+02  0.43889600611E+03  0.45328492676E+03  0.91187600000E+02 0.  0.
<mgrwt>
<rscale>  0 0.12777736E+04</rscale>
<asrwt>0</asrwt>
<pdfrwt beam="1">  1        2 0.43334015E+00 0.12777736E+04</pdfrwt>
<pdfrwt beam="2">  1       -2 0.22294216E-01 0.12777736E+04</pdfrwt>
<totfact> 0.39461902E+01</totfact>
</mgrwt>
</event>
<event>
12    1  0.2981001E-010  0.1082328E+04  0.7818608E-02  0.9222590E-01
          2   -1    0    0  501    0  0.00000000000E+00  0.00000000000E+00  0.18228829902E+04  0.18228829902E+04  0.00000000000E+00 0. -1.
         -2   -1    0    0    0  501 -0.00000000000E+00 -0.00000000000E+00 -0.16065666593E+03  0.16065666593E+03  0.00000000000E+00 0.  1.
    9900016    2    1    2    0    0  0.32617853285E+03 -0.12237106474E+03  0.13027795523E+04  0.14829708850E+04  0.61692865960E+03 0.  0.
         25    2    3    3    0    0  0.14500953461E+03  0.27768125172E+02  0.13720684310E+03  0.23717003951E+03  0.12500030378E+03 0.  0.
         23    2    4    4    0    0  0.11937594761E+03  0.29973259809E+02  0.11373627152E+03  0.18959411356E+03  0.88662141099E+02 0.  0.
        -15    1    5    5    0    0  0.10355244189E+03  0.36238140761E+02  0.44659209782E+02  0.11845149254E+03  0.00000000000E+00 0.  1.
        -15    1    4    4    0    0  0.20013462148E+02  0.11666487899E+02  0.22936490883E+02  0.32599512589E+02  0.00000000000E+00 0.  1.
         15    1    5    5    0    0  0.15823505727E+02 -0.62648809522E+01  0.69077061740E+02  0.71142621019E+02  0.00000000000E+00 0. -1.
         15    1    4    4    0    0  0.56201248495E+01 -0.13871622536E+02  0.53408069897E+00  0.14976413365E+02  0.00000000000E+00 0. -1.
        -16    1    1    2    0    0 -0.32617853285E+03  0.12237106474E+03  0.35944677203E+03  0.50056877120E+03  0.00000000000E+00 0.  1.
         16    1    3    3    0    0 -0.68939320166E+02 -0.15580403119E+03  0.52976077479E+03  0.55648360669E+03  0.00000000000E+00 0. -1.
    9900018    1    3    3    0    0  0.25010831840E+03  0.56648412752E+01  0.63581193437E+03  0.68931723875E+03  0.91187600000E+02 0.  0.
<mgrwt>
<rscale>  0 0.10823277E+04</rscale>
<asrwt>0</asrwt>
<pdfrwt beam="1">  1        2 0.28044352E+00 0.10823277E+04</pdfrwt>
<pdfrwt beam="2">  1       -2 0.24716411E-01 0.10823277E+04</pdfrwt>
<totfact> 0.12208510E+02</totfact>
</mgrwt>
</event>
<event>
12    1  0.2981001E-010  0.1111495E+04  0.7818608E-02  0.9194060E-01
         -2   -1    0    0    0  501 -0.00000000000E+00  0.00000000000E+00  0.10884209330E+03  0.10884209330E+03  0.00000000000E+00 0.  1.
          2   -1    0    0  501    0  0.00000000000E+00 -0.00000000000E+00 -0.28376463310E+04  0.28376463310E+04  0.00000000000E+00 0. -1.
    9900016    2    1    2    0    0 -0.20797187562E+03 -0.29832820286E+03 -0.20971884863E+04  0.22176602723E+04  0.62254760366E+03 0.  0.
         25    2    3    3    0    0 -0.97863694084E+02 -0.12241218820E+03 -0.28257020158E+03  0.34645978003E+03  0.12500565553E+03 0.  0.
         23    2    4    4    0    0 -0.77698235205E+02 -0.92611648883E+02 -0.17959360946E+03  0.23160458167E+03  0.82297535975E+02 0.  0.
        -15    1    5    5    0    0 -0.14631530534E+02 -0.51342496711E+02 -0.13219957741E+03  0.14257230419E+03  0.00000000000E+00 0. -1.
        -15    1    4    4    0    0 -0.24466130384E+02 -0.43174588700E+01 -0.45651000445E+02  0.51973510837E+02  0.00000000000E+00 0. -1.
         15    1    5    5    0    0 -0.63066704670E+02 -0.41269152172E+02 -0.47394032049E+02  0.89032277478E+02  0.00000000000E+00 0.  1.
         15    1    4    4    0    0  0.43006715047E+01 -0.25483080444E+02 -0.57325591681E+02  0.62881687525E+02  0.00000000000E+00 0.  1.
        -16    1    1    2    0    0  0.20797187562E+03  0.29832820286E+03 -0.63161575139E+03  0.72882815195E+03  0.00000000000E+00 0.  1.
         16    1    3    3    0    0 -0.21782652907E+02 -0.46163094854E+02 -0.15468995941E+04  0.15477415384E+04  0.00000000000E+00 0. -1.
    9900018    1    3    3    0    0 -0.88325528626E+02 -0.12975291981E+03 -0.26771869058E+03  0.32345895394E+03  0.91187600000E+02 0.  0.
<mgrwt>
<rscale>  0 0.11114951E+04</rscale>
<asrwt>0</asrwt>
<pdfrwt beam="1">  1        2 0.43656087E+00 0.11114951E+04</pdfrwt>
<pdfrwt beam="2">  1       -2 0.16744941E-01 0.11114951E+04</pdfrwt>
<totfact> 0.64290512E+01</totfact>
</mgrwt>
</event>
<event>
11    1  0.2981001E-010  0.1121882E+04  0.7818608E-02  0.9184122E-01
          2   -1    0    0  501    0  0.00000000000E+00  0.00000000000E+00  0.59861120858E+03  0.59861120858E+03  0.00000000000E+00 0. -1.
         -2   -1    0    0    0  501 -0.00000000000E+00 -0.00000000000E+00 -0.52564179449E+03  0.52564179449E+03  0.00000000000E+00 0.  1.
         25    2    1    2    0    0 -0.94322733027E+02  0.14863161640E+03  0.86253142766E+02  0.23249200608E+03  0.12499917157E+03 0.  0.
         23    2    3    3    0    0 -0.74525596042E+02  0.12399737840E+03  0.78980359557E+02  0.18977365116E+03  0.94057042073E+02 0.  0.
        -15    1    4    4    0    0  0.20266402371E+02  0.58887621644E+01  0.90136324380E+01  0.22948859550E+02  0.00000000000E+00 0.  1.
        -15    1    3    3    0    0  0.68028114926E+01  0.86585257120E+01  0.28671671937E+01  0.11378442751E+02  0.00000000000E+00 0. -1.
         15    1    4    4    0    0 -0.94791998413E+02  0.11810861624E+03  0.69966727119E+02  0.16682479161E+03  0.00000000000E+00 0. -1.
         15    1    3    3    0    0 -0.26599948478E+02  0.15975712291E+02  0.44056160149E+01  0.31339912168E+02  0.00000000000E+00 0.  1.
        -16    1    1    2    0    0 -0.50213754847E+02 -0.20587842394E+03 -0.38758464705E+03  0.44173431523E+03  0.00000000000E+00 0.  1.
         16    1    1    2    0    0  0.13658625760E+03  0.58880197361E+02  0.16833593210E+03  0.22463229831E+03  0.00000000000E+00 0. -1.
    9900018    1    1    2    0    0  0.79502302737E+01 -0.16333898272E+01  0.20596498628E+03  0.22539438345E+03  0.91187600000E+02 0.  0.
<mgrwt>
<rscale>  0 0.11218825E+04</rscale>
<asrwt>0</asrwt>
<pdfrwt beam="1">  1        2 0.92094033E-01 0.11218825E+04</pdfrwt>
<pdfrwt beam="2">  1       -2 0.80867968E-01 0.11218825E+04</pdfrwt>
<totfact> 0.66571831E+01</totfact>
</mgrwt>
</event>
<event>
12    1  0.2981001E-010  0.1375768E+04  0.7818608E-02  0.8971548E-01
          2   -1    0    0  501    0  0.00000000000E+00  0.00000000000E+00  0.46433917805E+03  0.46433917805E+03  0.00000000000E+00 0. -1.
         -2   -1    0    0    0  501 -0.00000000000E+00 -0.00000000000E+00 -0.10190485856E+04  0.10190485856E+04  0.00000000000E+00 0.  1.
    9900016    2    1    2    0    0  0.21415344338E+03 -0.33841665176E+03 -0.63042771264E+03  0.10758085821E+04  0.77429805436E+03 0.  0.
         25    2    3    3    0    0 -0.26423074902E+01 -0.71844620049E+02 -0.38880853498E+03  0.41468852445E+03  0.12500345680E+03 0.  0.
         23    2    4    4    0    0  0.96455958224E+01 -0.66078616132E+02 -0.34322746500E+03  0.36147299538E+03  0.91641762487E+02 0.  0.
        -15    1    5    5    0    0 -0.15342778738E+02 -0.19089983998E+01 -0.49155932066E+01  0.16223692270E+02  0.00000000000E+00 0.  1.
        -15    1    4    4    0    0 -0.14606674325E+02  0.57496608345E+01 -0.25077010569E+02  0.29584962288E+02  0.00000000000E+00 0. -1.
         15    1    5    5    0    0  0.24988374561E+02 -0.64169617732E+02 -0.33831187180E+03  0.34524930311E+03  0.00000000000E+00 0. -1.
         15    1    4    4    0    0  0.23187710120E+01 -0.11515664751E+02 -0.20504059414E+02  0.23630566775E+02  0.00000000000E+00 0.  1.
        -16    1    3    3    0    0  0.15373863554E+02 -0.34011567010E+03 -0.25852882055E+03  0.42749523481E+03  0.00000000000E+00 0.  1.
         16    1    1    2    0    0 -0.21415344338E+03  0.33841665176E+03  0.75718305083E+02  0.40757918154E+03  0.00000000000E+00 0. -1.
    9900018    1    3    3    0    0  0.20142188732E+03  0.73543638389E+02  0.16909642895E+02  0.23362482285E+03  0.91187600000E+02 0.  0.
<mgrwt>
<rscale>  0 0.13757677E+04</rscale>
<asrwt>0</asrwt>
<pdfrwt beam="1">  1        2 0.71436798E-01 0.13757677E+04</pdfrwt>
<pdfrwt beam="2">  1       -2 0.15677670E+00 0.13757677E+04</pdfrwt>
<totfact> 0.17394615E+01</totfact>
</mgrwt>
</event>
<event>
12    1  0.2981001E-010  0.9969321E+03  0.7818608E-02  0.9311916E-01
          1   -1    0    0  501    0  0.00000000000E+00  0.00000000000E+00  0.99708135774E+03  0.99708135774E+03  0.00000000000E+00 0. -1.
         -1   -1    0    0    0  501 -0.00000000000E+00 -0.00000000000E+00 -0.24919571874E+03  0.24919571874E+03  0.00000000000E+00 0.  1.
    9900016    2    1    2    0    0 -0.13425813592E+03 -0.67062604371E+02  0.64540263707E+03  0.10645481419E+04  0.83318397884E+03 0.  0.
         25    2    3    3    0    0 -0.13308075979E+02  0.18432012225E+03  0.19893328562E+03  0.29891900432E+03  0.12500842637E+03 0.  0.
         23    2    4    4    0    0 -0.34699081409E+02  0.12652431135E+03  0.11345242165E+03  0.19268613745E+03  0.83928945982E+02 0.  0.
        -15    1    5    5    0    0  0.19914016743E+02  0.62509369599E+02  0.23949513332E+02  0.69839591489E+02  0.00000000000E+00 0. -1.
        -15    1    4    4    0    0  0.21380872642E+02  0.46533100907E+02  0.75217125382E+02  0.90994984179E+02  0.00000000000E+00 0. -1.
         15    1    4    4    0    0  0.10132788102E-01  0.11262709996E+02  0.10263738587E+02  0.15237882691E+02  0.00000000000E+00 0.  1.
         15    1    5    5    0    0 -0.54613098152E+02  0.64014941749E+02  0.89502908315E+02  0.12284654596E+03  0.00000000000E+00 0.  1.
        -16    1    3    3    0    0 -0.25288360629E+03  0.43026235444E+02  0.79458570398E+02  0.26854243552E+03  0.00000000000E+00 0.  1.
         16    1    1    2    0    0  0.13425813592E+03  0.67062604371E+02  0.10248300194E+03  0.18172893454E+03  0.00000000000E+00 0. -1.
    9900018    1    3    3    0    0  0.13193354635E+03 -0.29440896207E+03  0.36701078105E+03  0.49708670210E+03  0.91187600000E+02 0.  0.
<mgrwt>
<rscale>  0 0.99693211E+03</rscale>
<asrwt>0</asrwt>
<pdfrwt beam="1">  1        1 0.15339713E+00 0.99693211E+03</pdfrwt>
<pdfrwt beam="2">  1       -1 0.38337803E-01 0.99693211E+03</pdfrwt>
<totfact> 0.10029155E+02</totfact>
</mgrwt>
</event>
<event>
12    1  0.2981001E-010  0.1100200E+04  0.7818608E-02  0.9204997E-01
          2   -1    0    0  501    0  0.00000000000E+00  0.00000000000E+00  0.10648768608E+04  0.10648768608E+04  0.00000000000E+00 0. -1.
         -2   -1    0    0    0  501 -0.00000000000E+00 -0.00000000000E+00 -0.28417353929E+03  0.28417353929E+03  0.00000000000E+00 0.  1.
    9900016    2    1    2    0    0  0.21629339972E+03 -0.32924167684E+03  0.41599413976E+03  0.81221178021E+03  0.57572036187E+03 0.  0.
         25    2    3    3    0    0  0.11527046754E+02 -0.11796915927E+03 -0.15865418865E+02  0.17299771343E+03  0.12500760772E+03 0.  0.
         23    2    4    4    0    0  0.17833240492E+02 -0.81968062203E+02 -0.24234799105E+02  0.12697240202E+03  0.92183934069E+02 0.  0.
        -15    1    5    5    0    0  0.10573919098E+02 -0.22151702192E+02  0.34820724830E+02  0.42602682460E+02  0.00000000000E+00 0.  1.
        -15    1    4    4    0    0  0.72410903801E+01 -0.29173865911E+02  0.47890997326E+01  0.30438188487E+02  0.00000000000E+00 0.  1.
         15    1    4    4    0    0 -0.13547284118E+02 -0.68272311597E+01  0.35802805075E+01  0.15587122916E+02  0.00000000000E+00 0. -1.
         15    1    5    5    0    0  0.72593213942E+01 -0.59816360011E+02 -0.59055523936E+02  0.84369719565E+02  0.00000000000E+00 0. -1.
        -16    1    1    2    0    0 -0.21629339972E+03  0.32924167684E+03  0.36470918173E+03  0.53683861986E+03  0.00000000000E+00 0.  1.
         16    1    3    3    0    0  0.77272618489E+02 -0.26589062660E+03  0.36985837913E+03  0.46202175652E+03  0.00000000000E+00 0. -1.
    9900018    1    3    3    0    0  0.12749373448E+03  0.54618109036E+02  0.62001179496E+02  0.17719231027E+03  0.91187600000E+02 0.  0.
<mgrwt>
<rscale>  0 0.11001997E+04</rscale>
<asrwt>0</asrwt>
<pdfrwt beam="1">  1        2 0.16382721E+00 0.11001997E+04</pdfrwt>
<pdfrwt beam="2">  1       -2 0.43719007E-01 0.11001997E+04</pdfrwt>
<totfact> 0.11278822E+02</totfact>
</mgrwt>
</event>
<event>
12    1  0.2981001E-010  0.1215233E+04  0.7818608E-02  0.9099627E-01
          2   -1    0    0  501    0  0.00000000000E+00  0.00000000000E+00  0.13715952586E+04  0.13715952586E+04  0.00000000000E+00 0. -1.
         -2   -1    0    0    0  501 -0.00000000000E+00 -0.00000000000E+00 -0.26917395618E+03  0.26917395618E+03  0.00000000000E+00 0.  1.
    9900016    2    1    2    0    0 -0.16358262483E+03 -0.12188753484E+03  0.12381122971E+04  0.13957633122E+04  0.61124243720E+03 0.  0.
         25    2    3    3    0    0 -0.42175318099E+02  0.53879699162E+02  0.10841236790E+03  0.17905327333E+03  0.12500021495E+03 0.  0.
         23    2    4    4    0    0 -0.38521983343E+02  0.26444657190E+02  0.10294497366E+03  0.14464267568E+03  0.90225123620E+02 0.  0.
        -15    1    5    5    0    0 -0.66801552019E+02  0.19717165887E+02  0.55754251283E+02  0.89217433940E+02  0.00000000000E+00 0. -1.
        -15    1    4    4    0    0 -0.10334411801E+02  0.95160794468E+01 -0.13378403282E+01  0.14111897536E+02  0.00000000000E+00 0. -1.
         15    1    4    4    0    0  0.66810770447E+01  0.17918962526E+02  0.68052345640E+01  0.20298700105E+02  0.00000000000E+00 0.  1.
         15    1    5    5    0    0  0.28279568676E+02  0.67274913023E+01  0.47190722380E+02  0.55425241745E+02  0.00000000000E+00 0.  1.
        -16    1    1    2    0    0  0.16358262483E+03  0.12188753484E+03 -0.13569099466E+03  0.24500590264E+03  0.00000000000E+00 0.  1.
         16    1    3    3    0    0  0.33087789746E+02 -0.23009638778E+03  0.84067599917E+03  0.87222433186E+03  0.00000000000E+00 0. -1.
    9900018    1    3    3    0    0 -0.15449509648E+03  0.54329153782E+02  0.28902393002E+03  0.34448570697E+03  0.91187600000E+02 0.  0.
<mgrwt>
<rscale>  0 0.12152329E+04</rscale>
<asrwt>0</asrwt>
<pdfrwt beam="1">  1        2 0.21101465E+00 0.12152329E+04</pdfrwt>
<pdfrwt beam="2">  1       -2 0.41411378E-01 0.12152329E+04</pdfrwt>
<totfact> 0.81774602E+01</totfact>
</mgrwt>
</event>
<event>
11    1  0.2981001E-010  0.9568253E+03  0.7818608E-02  0.9357208E-01
         -2   -1    0    0    0  501 -0.00000000000E+00  0.00000000000E+00  0.93604210270E+03  0.93604210270E+03  0.00000000000E+00 0.  1.
          2   -1    0    0  501    0  0.00000000000E+00 -0.00000000000E+00 -0.24451750047E+03  0.24451750047E+03  0.00000000000E+00 0. -1.
         25    2    1    2    0    0  0.11107296437E+03  0.27060428109E+02  0.91977978324E+02  0.19275261683E+03  0.12499661041E+03 0.  0.
         23    2    3    3    0    0  0.10133927025E+03  0.14982807014E+02  0.78741248307E+02  0.15678330599E+03  0.88807030420E+02 0.  0.
        -15    1    4    4    0    0  0.11163180842E+03  0.86726512558E+01  0.44519164057E+02  0.12049411396E+03  0.00000000000E+00 0. -1.
        -15    1    3    3    0    0  0.14134893238E+02 -0.33361978141E+00 -0.36043480486E+01  0.14591018945E+02  0.00000000000E+00 0.  1.
         15    1    3    3    0    0 -0.44011991159E+01  0.12411240876E+02  0.16841078066E+02  0.21378291891E+02  0.00000000000E+00 0. -1.
         15    1    4    4    0    0 -0.10292538172E+02  0.63101557584E+01  0.34222084250E+02  0.36289192029E+02  0.00000000000E+00 0.  1.
        -16    1    1    2    0    0  0.14109760634E+03 -0.19025585785E+03  0.53419930319E+03  0.58435838446E+03  0.00000000000E+00 0.  1.
         16    1    1    2    0    0 -0.88634976603E+02 -0.59199808804E+02  0.61667808086E+01  0.10676518920E+03  0.00000000000E+00 0. -1.
    9900018    1    1    2    0    0 -0.16353559411E+03  0.22239523854E+03  0.59180539912E+02  0.29668341269E+03  0.91187600000E+02 0.  0.
<mgrwt>
<rscale>  0 0.95682532E+03</rscale>
<asrwt>0</asrwt>
<pdfrwt beam="1">  1        2 0.37618078E-01 0.95682532E+03</pdfrwt>
<pdfrwt beam="2">  1       -2 0.14400648E+00 0.95682532E+03</pdfrwt>
<totfact> 0.46023792E+01</totfact>
</mgrwt>
</event>
<event>
12    1  0.2981001E-010  0.8683917E+03  0.7818608E-02  0.9465979E-01
          1   -1    0    0  501    0  0.00000000000E+00  0.00000000000E+00  0.73068458853E+03  0.73068458853E+03  0.00000000000E+00 0. -1.
         -1   -1    0    0    0  501 -0.00000000000E+00 -0.00000000000E+00 -0.25801287772E+03  0.25801287772E+03  0.00000000000E+00 0.  1.
    9900016    2    1    2    0    0  0.82576958362E+02 -0.12559311155E+03  0.51428655302E+03  0.83273471809E+03  0.63746675865E+03 0.  0.
         25    2    3    3    0    0  0.17345971471E+03  0.10880315985E+03  0.20053743984E+03  0.31267831865E+03  0.12500426376E+03 0.  0.
         23    2    4    4    0    0  0.10523658573E+03  0.51123435360E+02  0.10382184162E+03  0.18028013148E+03  0.89630387631E+02 0.  0.
        -15    1    5    5    0    0  0.88287100257E+02 -0.41747997911E+01  0.73629655600E+02  0.11503637342E+03  0.00000000000E+00 0. -1.
        -15    1    4    4    0    0  0.57456776524E+02  0.46330388510E+02  0.71748932533E+02  0.10293539424E+03  0.00000000000E+00 0.  1.
         15    1    5    5    0    0  0.16949485477E+02  0.55298235151E+02  0.30192186022E+02  0.65243758058E+02  0.00000000000E+00 0.  1.
         15    1    4    4    0    0  0.10766352455E+02  0.11349335983E+02  0.24966665680E+02  0.29462792937E+02  0.00000000000E+00 0. -1.
        -16    1    3    3    0    0 -0.29431982926E+02  0.42063441548E+02 -0.34625235832E+02  0.61923191861E+02  0.00000000000E+00 0.  1.
         16    1    1    2    0    0 -0.82576958362E+02  0.12559311155E+03 -0.41614842202E+02  0.15596274816E+03  0.00000000000E+00 0. -1.
    9900018    1    3    3    0    0 -0.61450773425E+02 -0.27645971295E+03  0.34837434901E+03  0.45813320758E+03  0.91187600000E+02 0.  0.
<mgrwt>
<rscale>  0 0.86839169E+03</rscale>
<asrwt>0</asrwt>
<pdfrwt beam="1">  1        1 0.11241301E+00 0.86839169E+03</pdfrwt>
<pdfrwt beam="2">  1       -1 0.39694289E-01 0.86839169E+03</pdfrwt>
<totfact> 0.15883856E+02</totfact>
</mgrwt>
</event>
<event>
11    1  0.2981001E-010  0.9205112E+03  0.7818608E-02  0.9400299E-01
          2   -1    0    0  501    0  0.00000000000E+00  0.00000000000E+00  0.23630130666E+04  0.23630130666E+04  0.00000000000E+00 0. -1.
         -2   -1    0    0    0  501 -0.00000000000E+00 -0.00000000000E+00 -0.89646231245E+02  0.89646231245E+02  0.00000000000E+00 0.  1.
         25    2    1    2    0    0 -0.98956660548E+02  0.10687221372E+03  0.25783511667E+03  0.32143057127E+03  0.12499829609E+03 0.  0.
         23    2    3    3    0    0 -0.71299415171E+02  0.61809292074E+02  0.20169843416E+03  0.23886809630E+03  0.86439076211E+02 0.  0.
        -15    1    4    4    0    0 -0.58515537871E+02  0.30819702856E+02  0.48418186857E+02  0.81964889281E+02  0.00000000000E+00 0.  1.
        -15    1    3    3    0    0 -0.16095846016E+02  0.28975399010E+02  0.13961815990E+02  0.35966405332E+02  0.00000000000E+00 0. -1.
         15    1    4    4    0    0 -0.12783877301E+02  0.30989589218E+02  0.15328024731E+03  0.15690320702E+03  0.00000000000E+00 0. -1.
         15    1    3    3    0    0 -0.11561399360E+02  0.16087522641E+02  0.42174866512E+02  0.46596069633E+02  0.00000000000E+00 0.  1.
        -16    1    1    2    0    0  0.26811064627E+03 -0.72619821931E+02  0.12512944825E+04  0.12817545940E+04  0.00000000000E+00 0.  1.
         16    1    1    2    0    0  0.28214006845E+02 -0.82877792347E+02  0.48208169883E+03  0.48996685908E+03  0.00000000000E+00 0. -1.
    9900018    1    1    2    0    0 -0.19736799257E+03  0.48625400553E+02  0.28215553731E+03  0.35950727350E+03  0.91187600000E+02 0.  0.
<mgrwt>
<rscale>  0 0.92051120E+03</rscale>
<asrwt>0</asrwt>
<pdfrwt beam="1">  1        2 0.36354042E+00 0.92051120E+03</pdfrwt>
<pdfrwt beam="2">  1       -2 0.13791730E-01 0.92051120E+03</pdfrwt>
<totfact> 0.17145878E+02</totfact>
</mgrwt>
</event>
