<event>
11    1  0.5743676E-012  0.1076402E+04  0.7818608E-02  0.9228502E-01
         -1   -1    0    0    0  501 -0.00000000000E+00  0.00000000000E+00  0.13393486951E+03  0.13393486951E+03  0.00000000000E+00 0. -1.
          1   -1    0    0  501    0  0.00000000000E+00 -0.00000000000E+00 -0.21626949800E+04  0.21626949800E+04  0.00000000000E+00 0.  1.
    9900016    2    1    2    0    0 -0.20510006441E+03  0.90451918927E+01 -0.14997558072E+04  0.17291852224E+04  0.83586254866E+03 0.  0.
         23    2    3    3    0    0 -0.80683746904E+02  0.13941750228E+03 -0.17830677572E+03  0.25705329967E+03  0.91301619081E+02 0.  0.
        -15    1    4    4    0    0 -0.54789774263E+02  0.69189284891E+02 -0.34168364769E+02  0.94639070465E+02  0.00000000000E+00 0.  1.
        -15    1    3    3    0    0  0.20794980978E+02  0.77323987712E+02 -0.14298456029E+03  0.16387804853E+03  0.00000000000E+00 0.  1.
         15    1    3    3    0    0  0.14781116449E+02  0.13355143273E+03 -0.36096086436E+03  0.38515868443E+03  0.00000000000E+00 0. -1.
         15    1    4    4    0    0 -0.25893972641E+02  0.70228217389E+02 -0.14413841095E+03  0.16241422920E+03  0.00000000000E+00 0. -1.
        -16    1    3    3    0    0 -0.10569147632E+03 -0.29012585615E+03 -0.63108207433E+03  0.70257261910E+03  0.00000000000E+00 0.  1.
         16    1    1    2    0    0  0.20510006441E+03 -0.90451918927E+01 -0.52900430336E+03  0.56744462716E+03  0.00000000000E+00 0. -1.
    9900018    1    3    3    0    0 -0.54300938612E+02 -0.51121874682E+02 -0.18642153246E+03  0.22052257064E+03  0.91187600000E+02 0.  0.
<mgrwt>
<rscale>  0 0.10764019E+04</rscale>
<asrwt>0</asrwt>
<pdfrwt beam="1">  1        1 0.33272227E+00 0.10764019E+04</pdfrwt>
<pdfrwt beam="2">  1       -1 0.20605367E-01 0.10764019E+04</pdfrwt>
<totfact> 0.45078101E+01</totfact>
</mgrwt>
</event>
<event>
12    1  0.5743676E-012  0.1954641E+04  0.7818608E-02  0.9350074E-01
         -2   -1    0    0    0  501 -0.00000000000E+00  0.00000000000E+00  0.68368565811E+03  0.68368565811E+03  0.00000000000E+00 0.  1.
          2   -1    0    0  501    0  0.00000000000E+00 -0.00000000000E+00 -0.15695542166E+04  0.15695542166E+04  0.00000000000E+00 0. -1.
         23    2    1    2    0    0  0.13177480653E+02  0.94540804859E+02 -0.72746727054E+02  0.13621663403E+03  0.64430391191E+02 0.  0.
    9900016    2    1    2    0    0 -0.27837997530E+02 -0.84432781251E+03 -0.66836378997E+03  0.13532494665E+04  0.81909068716E+03 0.  0.
         23    2    4    4    0    0  0.55730020660E+02 -0.94994505016E+01 -0.36727938476E+03  0.38284272305E+03  0.92077844034E+02 0.  0.
        -15    1    5    5    0    0  0.57346030273E+02 -0.38792493453E+02 -0.31835406910E+03  0.32579554639E+03  0.00000000000E+00 0. -1.
        -15    1    3    3    0    0  0.35487891347E+02  0.68644253106E+02 -0.33647628995E+02  0.84282779105E+02  0.00000000000E+00 0.  1.
         15    1    5    5    0    0 -0.16160096124E+01  0.29293042952E+02 -0.48925315656E+02  0.57047176657E+02  0.00000000000E+00 0.  1.
         15    1    3    3    0    0 -0.22310410695E+02  0.25896551753E+02 -0.39099098059E+02  0.51933854922E+02  0.00000000000E+00 0. -1.
        -16    1    1    2    0    0  0.14660516877E+02  0.74978700765E+03 -0.14475804150E+03  0.76377377421E+03  0.00000000000E+00 0.  1.
         16    1    4    4    0    0  0.11606413990E+03 -0.47000332530E+03 -0.80045643801E+02  0.49069472735E+03  0.00000000000E+00 0. -1.
    9900018    1    4    4    0    0 -0.19963215809E+03 -0.36482503671E+03 -0.22103876141E+03  0.47971201610E+03  0.91187600000E+02 0.  0.
<mgrwt>
<rscale>  0 0.96300813E+03</rscale>
<asrwt>0</asrwt>
<pdfrwt beam="1">  1        2 0.24146988E+00 0.19546407E+04</pdfrwt>
<pdfrwt beam="2">  1       -2 0.10518241E+00 0.19546407E+04</pdfrwt>
<totfact> 0.78897980E+00</totfact>
</mgrwt>
</event>
<event>
12    1  0.5743676E-012  0.1137770E+04  0.7818608E-02  0.9789388E-01
          2   -1    0    0  501    0  0.00000000000E+00  0.00000000000E+00  0.13042119995E+04  0.13042119995E+04  0.00000000000E+00 0. -1.
         -2   -1    0    0    0  501 -0.00000000000E+00 -0.00000000000E+00 -0.31315028079E+03  0.31315028079E+03  0.00000000000E+00 0.  1.
         23    2    1    2    0    0 -0.20421809948E+02 -0.61409082364E+02  0.17582618789E+03  0.21767339055E+03  0.11080943501E+03 0.  0.
    9900016    2    1    2    0    0  0.53834264063E+02  0.37865719768E+03  0.77421380727E+03  0.10780593815E+04  0.64538795254E+03 0.  0.
         23    2    4    4    0    0  0.10588754209E+03 -0.10524765770E+03  0.31749920859E+03  0.36321318010E+03  0.93961831207E+02 0.  0.
        -15    1    5    5    0    0  0.28800569814E+01 -0.65561726857E+02  0.10687853865E+03  0.12541792846E+03  0.00000000000E+00 0. -1.
        -15    1    3    3    0    0 -0.58899620551E+02 -0.14119712564E+02  0.52723611595E+02  0.80301374855E+02  0.00000000000E+00 0.  1.
         15    1    5    5    0    0  0.10300748510E+03 -0.39685930843E+02  0.21062066994E+03  0.23779525164E+03  0.00000000000E+00 0.  1.
         15    1    3    3    0    0  0.38477810603E+02 -0.47289369800E+02  0.12310257630E+03  0.13737201569E+03  0.00000000000E+00 0. -1.
        -16    1    1    2    0    0 -0.33412454115E+02 -0.31724811532E+03  0.41021723520E+02  0.32162950823E+03  0.00000000000E+00 0.  1.
         16    1    4    4    0    0  0.51843489737E+02  0.19148341535E+03  0.69244109657E+02  0.21011518866E+03  0.00000000000E+00 0. -1.
    9900018    1    4    4    0    0 -0.10389676776E+03  0.29242144003E+03  0.38747048903E+03  0.50473101272E+03  0.91187600000E+02 0.  0.
<mgrwt>
<rscale>  0 0.65935169E+03</rscale>
<asrwt>0</asrwt>
<pdfrwt beam="1">  1        2 0.20064800E+00 0.11377698E+04</pdfrwt>
<pdfrwt beam="2">  1       -2 0.48176967E-01 0.11377698E+04</pdfrwt>
<totfact> 0.66366536E+01</totfact>
</mgrwt>
</event>
<event>
11    1  0.5743676E-012  0.2670646E+04  0.7818608E-02  0.8848396E-01
          1   -1    0    0  501    0  0.00000000000E+00  0.00000000000E+00  0.10247154151E+04  0.10247154151E+04  0.00000000000E+00 0. -1.
         -1   -1    0    0    0  501 -0.00000000000E+00 -0.00000000000E+00 -0.21728919070E+04  0.21728919070E+04  0.00000000000E+00 0.  1.
    9900016    2    1    2    0    0 -0.41034644856E+03  0.48595985056E+02 -0.17167417260E+04  0.18531227238E+04  0.56224185036E+03 0.  0.
         23    2    3    3    0    0 -0.37438912774E+03 -0.59440657536E+02 -0.12304919305E+04  0.12908102394E+04  0.91543827766E+02 0.  0.
        -15    1    4    4    0    0 -0.15680670507E+03 -0.28851631577E+02 -0.37365472299E+03  0.40624944482E+03  0.00000000000E+00 0.  1.
        -15    1    1    2    0    0 -0.14750366257E+03  0.11184365942E+03 -0.26496686175E+02  0.18699841979E+03  0.00000000000E+00 0.  1.
         15    1    4    4    0    0 -0.21758242268E+03 -0.30589025959E+02 -0.85683720748E+03  0.88456079457E+03  0.00000000000E+00 0. -1.
         15    1    1    2    0    0 -0.42795559934E+02  0.51136694173E+02 -0.15786072924E+03  0.17136636565E+03  0.00000000000E+00 0. -1.
        -16    1    3    3    0    0 -0.11125884432E+03 -0.37977056000E+01 -0.13352274809E+03  0.17384267964E+03  0.00000000000E+00 0.  1.
         16    1    1    2    0    0  0.60064567106E+03 -0.21157633865E+03  0.75292264945E+03  0.98611981285E+03  0.00000000000E+00 0. -1.
    9900018    1    3    3    0    0  0.75301523510E+02  0.11183434819E+03 -0.35272704741E+03  0.38846980480E+03  0.91187600000E+02 0.  0.
<mgrwt>
<rscale>  0 0.15554477E+04</rscale>
<asrwt>0</asrwt>
<pdfrwt beam="1">  1        1 0.15764853E+00 0.26706462E+04</pdfrwt>
<pdfrwt beam="2">  1       -1 0.33429106E+00 0.26706462E+04</pdfrwt>
<totfact> 0.24758995E-01</totfact>
</mgrwt>
</event>
<event>
12    1  0.5743676E-012  0.1071649E+04  0.7818608E-02  0.9233274E-01
         -2   -1    0    0    0  501 -0.00000000000E+00  0.00000000000E+00  0.22200509721E+03  0.22200509721E+03  0.00000000000E+00 0. -1.
          2   -1    0    0  501    0  0.00000000000E+00 -0.00000000000E+00 -0.12932498023E+04  0.12932498023E+04  0.00000000000E+00 0.  1.
    9900016    2    1    2    0    0 -0.57608174550E+01  0.97846793570E+02 -0.62876131851E+03  0.10620455335E+04  0.85028979623E+03 0.  0.
         23    2    3    3    0    0  0.65555131634E+02  0.22397730552E+03 -0.40185481021E+03  0.46908896329E+03  0.63983265924E+02 0.  0.
         23    2    3    3    0    0  0.78629076699E+02  0.10232602501E+02 -0.27172418496E+03  0.29812311235E+03  0.93574139427E+02 0.  0.
        -15    1    5    5    0    0  0.85654300561E+02  0.32633965939E+02 -0.16406064316E+03  0.18792958674E+03  0.00000000000E+00 0.  1.
        -15    1    4    4    0    0 -0.98697910732E+01  0.66099545896E+02 -0.10302368498E+03  0.12280245278E+03  0.00000000000E+00 0. -1.
         15    1    4    4    0    0  0.75424922707E+02  0.15787775963E+03 -0.29883112524E+03  0.34628651051E+03  0.00000000000E+00 0. -1.
         15    1    5    5    0    0 -0.70252238621E+01 -0.22401363439E+02 -0.10766354180E+03  0.11019352561E+03  0.00000000000E+00 0.  1.
        -16    1    1    2    0    0  0.57608174550E+01 -0.97846793570E+02 -0.44248338654E+03  0.45320936596E+03  0.00000000000E+00 0.  1.
         16    1    3    3    0    0 -0.93091736491E+02  0.23861372431E+02 -0.27203021594E+01  0.96139672046E+02  0.00000000000E+00 0. -1.
    9900018    1    3    3    0    0 -0.56853289298E+02 -0.16022448688E+03  0.47537978824E+02  0.19869378583E+03  0.91187600000E+02 0.  0.
<mgrwt>
<rscale>  0 0.10716493E+04</rscale>
<asrwt>0</asrwt>
<pdfrwt beam="1">  1        2 0.19896151E+00 0.10716493E+04</pdfrwt>
<pdfrwt beam="2">  1       -2 0.34154630E-01 0.10716493E+04</pdfrwt>
<totfact> 0.13303522E+02</totfact>
</mgrwt>
</event>
<event>
11    1  0.5743676E-012  0.1467438E+04  0.7818608E-02  0.9557667E-01
          1   -1    0    0  501    0  0.00000000000E+00  0.00000000000E+00  0.14233301158E+04  0.14233301158E+04  0.00000000000E+00 0. -1.
         -1   -1    0    0    0  501 -0.00000000000E+00 -0.00000000000E+00 -0.45558832628E+03  0.45558832628E+03  0.00000000000E+00 0.  1.
    9900016    2    1    2    0    0 -0.53405254020E+03  0.23034023814E+03  0.49938507067E+03  0.97832682224E+03  0.60783976615E+03 0.  0.
         23    2    3    3    0    0 -0.21636205762E+03  0.42044064901E+02  0.55575325031E+03  0.60474943635E+03  0.90994297426E+02 0.  0.
        -15    1    1    2    0    0  0.54622650891E+02  0.53258397703E+02 -0.10802847355E+02  0.77050583561E+02  0.00000000000E+00 0.  1.
        -15    1    4    4    0    0 -0.11908501363E+03  0.64004477524E+02  0.36988183899E+03  0.39381517039E+03  0.00000000000E+00 0. -1.
         15    1    1    2    0    0  0.19323089060E+02  0.41237639978E+02  0.31220028811E+02  0.55214263744E+02  0.00000000000E+00 0. -1.
         15    1    4    4    0    0 -0.97277043987E+02 -0.21960412623E+02  0.18587141131E+03  0.21093426595E+03  0.00000000000E+00 0.  1.
        -16    1    3    3    0    0 -0.31769048258E+03  0.18829617324E+03 -0.56368179638E+02  0.37357738590E+03  0.00000000000E+00 0.  1.
         16    1    1    2    0    0  0.23243585698E+03 -0.29074617870E+02  0.12005494217E+03  0.26322034525E+03  0.00000000000E+00 0. -1.
    9900018    1    1    2    0    0  0.22767094327E+03 -0.29576165795E+03  0.32788459527E+03  0.50510642733E+03  0.91187600000E+02 0.  0.
<mgrwt>
<rscale>  0 0.80162586E+03</rscale>
<asrwt>0</asrwt>
<pdfrwt beam="1">  1        1 0.21897386E+00 0.14674382E+04</pdfrwt>
<pdfrwt beam="2">  1       -1 0.70090512E-01 0.14674382E+04</pdfrwt>
<totfact> 0.14729554E+01</totfact>
</mgrwt>
</event>
<event>
12    1  0.5743676E-012  0.2165334E+04  0.7818608E-02  0.8532997E-01
          1   -1    0    0  501    0  0.00000000000E+00  0.00000000000E+00  0.15188477594E+04  0.15188477594E+04  0.00000000000E+00 0. -1.
         -1   -1    0    0    0  501 -0.00000000000E+00 -0.00000000000E+00 -0.77174787878E+03  0.77174787878E+03  0.00000000000E+00 0.  1.
         23    2    1    2    0    0 -0.17502008227E+03 -0.55290630345E+02  0.48375810850E+03  0.53179326678E+03  0.12285392973E+03 0.  0.
    9900016    2    1    2    0    0  0.17910593011E+03  0.22844382319E+03  0.87706178828E+03  0.11211104548E+04  0.63512656761E+03 0.  0.
         23    2    4    4    0    0 -0.57981517595E+02  0.44678735479E+02  0.37581244916E+03  0.39362751409E+03  0.91376020468E+02 0.  0.
        -15    1    5    5    0    0 -0.16322378817E+02  0.60507256996E+02  0.29256593257E+03  0.29920289621E+03  0.00000000000E+00 0.  1.
        -15    1    3    3    0    0 -0.83874661288E+02  0.33350438891E+02  0.15587391015E+03  0.18012186554E+03  0.00000000000E+00 0.  1.
         15    1    3    3    0    0 -0.91145420986E+02 -0.88641069236E+02  0.32788419835E+03  0.35167140124E+03  0.00000000000E+00 0. -1.
         15    1    5    5    0    0 -0.41659138778E+02 -0.15828521518E+02  0.83246516594E+02  0.94424617882E+02  0.00000000000E+00 0. -1.
        -16    1    1    2    0    0 -0.40858478320E+01 -0.17315319285E+03 -0.61372001611E+03  0.63769191662E+03  0.00000000000E+00 0.  1.
         16    1    4    4    0    0  0.19884635245E+03 -0.67281406759E+02  0.74810850781E+02  0.22285269344E+03  0.00000000000E+00 0. -1.
    9900018    1    4    4    0    0  0.38241095252E+02  0.25104649448E+03  0.42643848833E+03  0.50463024729E+03  0.91187600000E+02 0.  0.
<mgrwt>
<rscale>  0 0.21653337E+04</rscale>
<asrwt>0</asrwt>
<pdfrwt beam="1">  1        1 0.23366889E+00 0.21653337E+04</pdfrwt>
<pdfrwt beam="2">  1       -1 0.11873044E+00 0.21653337E+04</pdfrwt>
<totfact> 0.36885243E+00</totfact>
</mgrwt>
</event>
<event>
12    1  0.5743676E-012  0.1239780E+04  0.7818608E-02  0.9078732E-01
         -1   -1    0    0    0  501 -0.00000000000E+00  0.00000000000E+00  0.39850641943E+03  0.39850641943E+03  0.00000000000E+00 0.  1.
          1   -1    0    0  501    0  0.00000000000E+00 -0.00000000000E+00 -0.96425968624E+03  0.96425968624E+03  0.00000000000E+00 0. -1.
         23    2    1    2    0    0 -0.66456199715E+02  0.14116261145E+03 -0.27358984774E+03  0.33297922740E+03  0.10807613863E+03 0.  0.
    9900016    2    1    2    0    0 -0.16259597011E+02 -0.17262167735E+03 -0.38223637305E+03  0.90351450245E+03  0.80010698864E+03 0.  0.
         23    2    4    4    0    0  0.54445251016E+01  0.77186476134E+02  0.71888251822E+01  0.11876149652E+03  0.89806563776E+02 0.  0.
        -15    1    5    5    0    0  0.23054741113E+02  0.93398443630E+01 -0.30355148628E+02  0.39245239568E+02  0.00000000000E+00 0.  1.
        -15    1    3    3    0    0 -0.64765336527E+02  0.24100510961E+02 -0.13419500228E+03  0.15094264500E+03  0.00000000000E+00 0. -1.
         15    1    5    5    0    0 -0.17610216011E+02  0.67846631771E+02  0.37543973810E+02  0.79516256955E+02  0.00000000000E+00 0. -1.
         15    1    3    3    0    0 -0.16908631880E+01  0.11706210049E+03 -0.13939484546E+03  0.18203658240E+03  0.00000000000E+00 0.  1.
        -16    1    1    2    0    0  0.82715796726E+02  0.31459065897E+02  0.90072953980E+02  0.12627237581E+03  0.00000000000E+00 0.  1.
         16    1    4    4    0    0 -0.11332656983E+03 -0.17325458646E+03 -0.53616510365E+03  0.57474610179E+03  0.00000000000E+00 0. -1.
    9900018    1    4    4    0    0  0.91622447719E+02 -0.76553567022E+02  0.14673990541E+03  0.21000690414E+03  0.91187600000E+02 0.  0.
<mgrwt>
<rscale>  0 0.12397801E+04</rscale>
<asrwt>0</asrwt>
<pdfrwt beam="1">  1        1 0.14834764E+00 0.12397801E+04</pdfrwt>
<pdfrwt beam="2">  1       -1 0.61308681E-01 0.12397801E+04</pdfrwt>
<totfact> 0.42998072E+01</totfact>
</mgrwt>
</event>
<event>
12    1  0.5743676E-012  0.1593216E+04  0.7818608E-02  0.8824726E-01
          2   -1    0    0  501    0  0.00000000000E+00  0.00000000000E+00  0.33833013896E+04  0.33833013896E+04  0.00000000000E+00 0. -1.
         -2   -1    0    0    0  501 -0.00000000000E+00 -0.00000000000E+00 -0.18756365217E+03  0.18756365217E+03  0.00000000000E+00 0.  1.
         23    2    1    2    0    0  0.32502802209E+02  0.24422817943E+03  0.26152619926E+03  0.37562433161E+03  0.10951643630E+03 0.  0.
    9900016    2    1    2    0    0  0.13838205169E+03 -0.25546853811E+03  0.29002362174E+04  0.30206488966E+04  0.79280254393E+03 0.  0.
         23    2    4    4    0    0  0.31179538208E+02  0.16738199510E+03  0.27533978422E+03  0.33627127772E+03  0.90980654852E+02 0.  0.
        -15    1    5    5    0    0  0.53010322513E+02  0.60406709047E+02  0.85995634327E+02  0.11770434960E+03  0.00000000000E+00 0. -1.
        -15    1    3    3    0    0  0.32264926342E+02  0.16030253251E+03  0.23746288154E+03  0.28831674857E+03  0.00000000000E+00 0.  1.
         15    1    3    3    0    0  0.23787586683E+00  0.83925646921E+02  0.24063317723E+02  0.87307583038E+02  0.00000000000E+00 0. -1.
         15    1    5    5    0    0 -0.21830784305E+02  0.10697528606E+03  0.18934414989E+03  0.21856692812E+03  0.00000000000E+00 0.  1.
        -16    1    1    2    0    0 -0.17088485390E+03  0.11240358680E+02  0.33975320837E+02  0.17459181362E+03  0.00000000000E+00 0.  1.
         16    1    4    4    0    0 -0.80517846816E+02 -0.25276586184E+03  0.88929228427E+03  0.92801641765E+03  0.00000000000E+00 0. -1.
    9900018    1    4    4    0    0  0.18772036030E+03 -0.17008467137E+03  0.17356041489E+04  0.17563612012E+04  0.91187600000E+02 0.  0.
<mgrwt>
<rscale>  0 0.15932161E+04</rscale>
<asrwt>0</asrwt>
<pdfrwt beam="1">  1        2 0.52050786E+00 0.15932161E+04</pdfrwt>
<pdfrwt beam="2">  1       -2 0.28855949E-01 0.15932161E+04</pdfrwt>
<totfact> 0.10460994E+01</totfact>
</mgrwt>
</event>
<event>
12    1  0.5743676E-012  0.1227477E+04  0.7818608E-02  0.9611465E-01
          1   -1    0    0  501    0  0.00000000000E+00  0.00000000000E+00  0.10870655862E+04  0.10870655862E+04  0.00000000000E+00 0. -1.
         -1   -1    0    0    0  501 -0.00000000000E+00 -0.00000000000E+00 -0.56490861272E+03  0.56490861272E+03  0.00000000000E+00 0.  1.
         23    2    1    2    0    0 -0.14335039255E+03 -0.48648192687E+02  0.37150937823E+03  0.41528720842E+03  0.10736976142E+03 0.  0.
    9900016    2    1    2    0    0  0.22977677892E+03 -0.21940527766E+03 -0.59405562881E+02  0.88534027789E+03  0.82423439795E+03 0.  0.
         23    2    4    4    0    0  0.12972157962E+03 -0.16276677746E+03  0.94704625673E+02  0.24647057912E+03  0.91967756217E+02 0.  0.
        -15    1    5    5    0    0  0.47323437588E+02 -0.12427529209E+02  0.48548823589E+02  0.68927059267E+02  0.00000000000E+00 0. -1.
        -15    1    3    3    0    0 -0.11707127801E+03  0.11656518199E+01  0.17262404030E+03  0.20858116446E+03  0.00000000000E+00 0. -1.
         15    1    5    5    0    0  0.82398142028E+02 -0.15033924825E+03  0.46155802084E+02  0.17754351985E+03  0.00000000000E+00 0.  1.
         15    1    3    3    0    0 -0.26279114545E+02 -0.49813844507E+02  0.19888533793E+03  0.20670604396E+03  0.00000000000E+00 0.  1.
        -16    1    4    4    0    0  0.14977065899E+03 -0.30001509215E+03 -0.16565320048E+03  0.37400707031E+03  0.00000000000E+00 0.  1.
         16    1    1    2    0    0 -0.86426386367E+02  0.26805347035E+03  0.21005315813E+03  0.35134671262E+03  0.00000000000E+00 0. -1.
    9900018    1    4    4    0    0 -0.49715459687E+02  0.24337659195E+03  0.11543011926E+02  0.26486262847E+03  0.91187600000E+02 0.  0.
<mgrwt>
<rscale>  0 0.76541970E+03</rscale>
<asrwt>0</asrwt>
<pdfrwt beam="1">  1        1 0.16724086E+00 0.12274771E+04</pdfrwt>
<pdfrwt beam="2">  1       -1 0.86909017E-01 0.12274771E+04</pdfrwt>
<totfact> 0.16646963E+01</totfact>
</mgrwt>
</event>
