<event>
11    1  0.5680828E-016  0.9860633E+03  0.7818608E-02  0.9323964E-01
          2   -1    0    0  501    0  0.00000000000E+00  0.00000000000E+00  0.44082525856E+03  0.44082525856E+03  0.00000000000E+00 0.  1.
         -2   -1    0    0    0  501 -0.00000000000E+00 -0.00000000000E+00 -0.55142079317E+03  0.55142079317E+03  0.00000000000E+00 0. -1.
    9900016    2    1    2    0    0 -0.13415903667E+03  0.55610332374E+02 -0.22772583749E+03  0.80566989024E+03  0.75904792918E+03 0.  0.
         23    2    3    3    0    0 -0.25871971083E+03  0.83590022623E+02 -0.15898696859E+01  0.29137672725E+03  0.10476014912E+03 0.  0.
        -15    1    3    3    0    0  0.91195597509E+02  0.49447495632E+02  0.56307774636E+02  0.11803498343E+03  0.00000000000E+00 0.  1.
        -15    1    4    4    0    0 -0.19151862743E+02  0.31455024363E+02  0.25376156572E+02  0.44723167671E+02  0.00000000000E+00 0.  1.
         15    1    4    4    0    0 -0.23956784809E+03  0.52134998260E+02 -0.26966026258E+02  0.24665355958E+03  0.00000000000E+00 0. -1.
         15    1    3    3    0    0  0.70521692029E+02  0.11436301965E+02 -0.20589237950E+03  0.21793524264E+03  0.00000000000E+00 0. -1.
        -16    1    1    2    0    0  0.13415903667E+03 -0.55610332374E+02  0.11713030287E+03  0.18657616149E+03  0.00000000000E+00 0.  1.
         16    1    3    3    0    0  0.17631855229E+01 -0.54242813485E+02 -0.38850463265E+02  0.66743914584E+02  0.00000000000E+00 0. -1.
    9900018    1    3    3    0    0 -0.38919800894E+02 -0.34620674361E+02 -0.37700899675E+02  0.11157902233E+03  0.91187600000E+02 0.  0.
<mgrwt>
<rscale>  0 0.98606331E+03</rscale>
<asrwt>0</asrwt>
<pdfrwt beam="1">  1        2 0.67819271E-01 0.98606331E+03</pdfrwt>
<pdfrwt beam="2">  1       -2 0.84833968E-01 0.98606331E+03</pdfrwt>
<totfact> 0.86160979E+01</totfact>
</mgrwt>
</event>
<event>
11    1  0.5680828E-016  0.8930418E+03  0.7818608E-02  0.9434322E-01
          1   -1    0    0  501    0  0.00000000000E+00  0.00000000000E+00  0.13638123545E+03  0.13638123545E+03  0.00000000000E+00 0. -1.
         -1   -1    0    0    0  501 -0.00000000000E+00 -0.00000000000E+00 -0.14619380975E+04  0.14619380975E+04  0.00000000000E+00 0.  1.
    9900016    2    1    2    0    0 -0.12126825426E+03 -0.28836932209E+02 -0.11899348385E+04  0.14141159360E+04  0.75381788427E+03 0.  0.
         23    2    3    3    0    0 -0.16525902666E+03 -0.93814919046E+02 -0.13686608625E+03  0.26351892940E+03  0.12082266202E+03 0.  0.
        -15    1    4    4    0    0 -0.36993448748E+02 -0.65453211352E+02 -0.19433996095E+01  0.75209141257E+02  0.00000000000E+00 0. -1.
        -15    1    3    3    0    0  0.10023944453E+03  0.11340644478E+02 -0.35274742694E+03  0.36688868021E+03  0.00000000000E+00 0.  1.
         15    1    3    3    0    0 -0.14627454615E+03 -0.36329528724E+02 -0.28673005398E+03  0.32392931538E+03  0.00000000000E+00 0. -1.
         15    1    4    4    0    0 -0.12826557792E+03 -0.28361707694E+02 -0.13492268664E+03  0.18830978814E+03  0.00000000000E+00 0.  1.
        -16    1    3    3    0    0  0.78882124657E+02  0.59206103621E+02 -0.26119202396E+03  0.27919352729E+03  0.00000000000E+00 0.  1.
         16    1    1    2    0    0  0.12126825426E+03  0.28836932209E+02 -0.13562202360E+03  0.18420339692E+03  0.00000000000E+00 0. -1.
    9900018    1    3    3    0    0  0.11143749363E+02  0.30760767462E+02 -0.15239924733E+03  0.18058548376E+03  0.91187600000E+02 0.  0.
<mgrwt>
<rscale>  0 0.89304182E+03</rscale>
<asrwt>0</asrwt>
<pdfrwt beam="1">  1        1 0.20981729E-01 0.89304182E+03</pdfrwt>
<pdfrwt beam="2">  1       -1 0.22491355E+00 0.89304182E+03</pdfrwt>
<totfact> 0.25495069E+01</totfact>
</mgrwt>
</event>
<event>
11    1  0.5680828E-016  0.8582153E+03  0.7818608E-02  0.9479376E-01
          2   -1    0    0  501    0  0.00000000000E+00  0.00000000000E+00  0.28094699097E+03  0.28094699097E+03  0.00000000000E+00 0. -1.
         -2   -1    0    0    0  501 -0.00000000000E+00 -0.00000000000E+00 -0.65540261099E+03  0.65540261099E+03  0.00000000000E+00 0.  1.
    9900016    2    1    2    0    0 -0.13599396876E+02  0.49116629623E+02 -0.23126378764E+03  0.70418339306E+03  0.66316960477E+03 0.  0.
         23    2    3    3    0    0 -0.82050611604E+01 -0.14213050215E+03 -0.51836465983E+02  0.19137312438E+03  0.11691129483E+03 0.  0.
        -15    1    3    3    0    0  0.98617705628E+02  0.59739535460E+02 -0.16868794682E+03  0.20432789179E+03  0.00000000000E+00 0.  1.
        -15    1    4    4    0    0 -0.22897935090E+02 -0.10931169011E+03 -0.86625197316E+02  0.14134102672E+03  0.00000000000E+00 0.  1.
         15    1    4    4    0    0  0.14692873930E+02 -0.32818812040E+02  0.34788731332E+02  0.50032097655E+02  0.00000000000E+00 0. -1.
         15    1    3    3    0    0 -0.93252678554E+02  0.13461316159E+03 -0.11723653999E+03  0.20139804279E+03  0.00000000000E+00 0. -1.
        -16    1    1    2    0    0  0.22467701183E+02 -0.13060237399E+02 -0.13030225558E+03  0.13286852602E+03  0.00000000000E+00 0.  1.
         16    1    3    3    0    0 -0.10759362789E+02 -0.31055652778E+01  0.10649716516E+03  0.10708433410E+03  0.00000000000E+00 0. -1.
    9900018    1    1    2    0    0 -0.88683043072E+01 -0.36056392224E+02 -0.12889576794E+02  0.99297682879E+02  0.91187600000E+02 0.  0.
<mgrwt>
<rscale>  0 0.85821534E+03</rscale>
<asrwt>0</asrwt>
<pdfrwt beam="1">  1        2 0.43222615E-01 0.85821534E+03</pdfrwt>
<pdfrwt beam="2">  1       -2 0.10083117E+00 0.85821534E+03</pdfrwt>
<totfact> 0.96159433E+01</totfact>
</mgrwt>
</event>
<event>
11    1  0.5680828E-016  0.1120675E+04  0.7818608E-02  0.9185272E-01
          1   -1    0    0  501    0  0.00000000000E+00  0.00000000000E+00  0.58190757076E+03  0.58190757076E+03  0.00000000000E+00 0. -1.
         -1   -1    0    0    0  501 -0.00000000000E+00 -0.00000000000E+00 -0.53956712818E+03  0.53956712818E+03  0.00000000000E+00 0.  1.
    9900016    2    1    2    0    0  0.18133276539E+03  0.11480249987E+03 -0.13244688467E+03  0.71017991806E+03  0.66389167263E+03 0.  0.
         23    2    3    3    0    0  0.72445398029E+02  0.16557651074E+03  0.98190282164E+02  0.21456574979E+03  0.61100023478E+02 0.  0.
        -15    1    3    3    0    0  0.15861159131E+02  0.15168077121E+02 -0.39509467605E+01  0.22299258123E+02  0.00000000000E+00 0.  1.
        -15    1    4    4    0    0  0.79738531617E+02  0.15514007787E+03  0.10094980469E+03  0.20153793750E+03  0.00000000000E+00 0. -1.
         15    1    4    4    0    0 -0.72931335873E+01  0.10436432869E+02 -0.27595225245E+01  0.13027812292E+02  0.00000000000E+00 0. -1.
         15    1    3    3    0    0 -0.43524565307E+02  0.50950002707E+02  0.88181044659E+02  0.11075282027E+03  0.00000000000E+00 0.  1.
        -16    1    3    3    0    0  0.13655077354E+03 -0.11689209069E+03 -0.31486726473E+03  0.36256208988E+03  0.00000000000E+00 0.  1.
         16    1    1    2    0    0 -0.20427981980E+03 -0.15640251626E+03  0.16998370100E+03  0.30836090944E+03  0.00000000000E+00 0. -1.
    9900018    1    1    2    0    0  0.22947054406E+02  0.41600016381E+02  0.48036262466E+01  0.10293387143E+03  0.91187600000E+02 0.  0.
<mgrwt>
<rscale>  0 0.11206751E+04</rscale>
<asrwt>0</asrwt>
<pdfrwt beam="1">  1        1 0.89524242E-01 0.11206751E+04</pdfrwt>
<pdfrwt beam="2">  1       -1 0.83010327E-01 0.11206751E+04</pdfrwt>
<totfact> 0.51361645E+01</totfact>
</mgrwt>
</event>
