<event>
12    1  0.1961457E-010  0.3613645E+04  0.7818608E-02  0.8456948E-01
          2   -1    0    0  501    0  0.00000000000E+00  0.00000000000E+00  0.30892181647E+04  0.30892181647E+04  0.00000000000E+00 0. -1.
         -2   -1    0    0    0  501 -0.00000000000E+00 -0.00000000000E+00 -0.14770427150E+04  0.14770427150E+04  0.00000000000E+00 0.  1.
         24    2    1    2    0    0  0.61878341175E+03 -0.18463094776E+03  0.34797356362E+03  0.73786180676E+03  0.79830742012E+02 0.  0.
    9900016    2    1    2    0    0  0.69187578546E+03  0.83032990367E+03  0.96817615361E+03  0.23376321874E+04  0.18327627582E+04 0.  0.
         23    2    4    4    0    0  0.13881743587E+03  0.40751391781E+03 -0.24829969457E+03  0.50344358470E+03  0.80404172452E+02 0.  0.
        -15    1    3    3    0    0  0.94280582571E+02 -0.33951723691E+02  0.23353572706E+02  0.10289284304E+03  0.00000000000E+00 0.  1.
        -15    1    5    5    0    0  0.10488150599E+03  0.35042326491E+03 -0.17820989181E+03  0.40688494741E+03  0.00000000000E+00 0.  1.
         15    1    5    5    0    0  0.33935929884E+02  0.57090652894E+02 -0.70089802760E+02  0.96558637293E+02  0.00000000000E+00 0. -1.
         15    1    1    2    0    0 -0.13106591972E+04 -0.64569895591E+03  0.29602573243E+03  0.14907668856E+04  0.00000000000E+00 0. -1.
        -16    1    4    4    0    0 -0.79804861719E+02  0.66727084169E+03  0.74316761878E+03  0.10019567365E+04  0.00000000000E+00 0.  1.
         16    1    3    3    0    0  0.52450282918E+03 -0.15067922407E+03  0.32461999092E+03  0.63496896372E+03  0.00000000000E+00 0. -1.
    9900018    1    4    4    0    0  0.63286321131E+03 -0.24445485583E+03  0.47330822940E+03  0.83223186623E+03  0.91187600000E+02 0.  0.
<mgrwt>
<rscale>  0 0.23539496E+04</rscale>
<asrwt>0</asrwt>
<pdfrwt beam="1">  1        2 0.47526433E+00 0.36136454E+04</pdfrwt>
<pdfrwt beam="2">  1       -2 0.22723734E+00 0.36136454E+04</pdfrwt>
<totfact> 0.10821918E-01</totfact>
</mgrwt>
</event>
<event>
12    1  0.1961457E-010  0.3737004E+04  0.7818608E-02  0.8932078E-01
          1   -1    0    0  501    0  0.00000000000E+00  0.00000000000E+00  0.40540964366E+04  0.40540964366E+04  0.00000000000E+00 0. -1.
         -1   -1    0    0    0  501 -0.00000000000E+00 -0.00000000000E+00 -0.90279719790E+03  0.90279719790E+03  0.00000000000E+00 0.  1.
         24    2    1    2    0    0 -0.45551468591E+01 -0.13918948164E+02  0.12336177484E+03  0.14715276515E+03  0.78875359394E+02 0.  0.
    9900016    2    1    2    0    0 -0.67796954692E+03  0.31274236176E+03  0.33318598797E+03  0.20138830570E+04  0.18404514591E+04 0.  0.
         23    2    4    4    0    0  0.22833097681E+03 -0.28485782974E+03  0.70553030090E+03  0.79952736681E+03  0.90509594294E+02 0.  0.
        -15    1    3    3    0    0 -0.26748075522E+02  0.88002390282E+01  0.10848765997E+03  0.11208245232E+03  0.00000000000E+00 0.  1.
        -15    1    5    5    0    0  0.15386715512E+03 -0.20332397742E+03  0.39698232667E+03  0.47181639322E+03  0.00000000000E+00 0.  1.
         15    1    1    2    0    0  0.68252469378E+03 -0.29882341360E+03  0.26947514759E+04  0.27958578124E+04  0.00000000000E+00 0. -1.
         15    1    5    5    0    0  0.74463821691E+02 -0.81533852323E+02  0.30854797423E+03  0.32771097360E+03  0.00000000000E+00 0. -1.
        -16    1    4    4    0    0 -0.42949748558E+03  0.46025363757E+03 -0.89149070609E+02  0.63580583342E+03  0.00000000000E+00 0.  1.
         16    1    3    3    0    0  0.22192928663E+02 -0.22719187193E+02  0.14874114869E+02  0.35070312837E+02  0.00000000000E+00 0. -1.
    9900018    1    4    4    0    0 -0.47680303815E+03  0.13734655393E+03 -0.28319524232E+03  0.57854985674E+03  0.91187600000E+02 0.  0.
<mgrwt>
<rscale>  0 0.14304351E+04</rscale>
<asrwt>0</asrwt>
<pdfrwt beam="1">  1        1 0.62370713E+00 0.37370044E+04</pdfrwt>
<pdfrwt beam="2">  1       -1 0.13889188E+00 0.37370044E+04</pdfrwt>
<totfact> 0.29237133E-02</totfact>
</mgrwt>
</event>
<event>
12    1  0.1961457E-010  0.2172849E+04  0.7818608E-02  0.9256733E-01
         -1   -1    0    0    0  501 -0.00000000000E+00  0.00000000000E+00  0.13292935589E+04  0.13292935589E+04  0.00000000000E+00 0.  1.
          1   -1    0    0  501    0  0.00000000000E+00 -0.00000000000E+00 -0.99057654194E+03  0.99057654194E+03  0.00000000000E+00 0. -1.
         24    2    1    2    0    0 -0.78864881309E+02 -0.35471267937E+02 -0.13528570678E+02  0.11865442033E+03  0.80112226824E+02 0.  0.
    9900016    2    1    2    0    0  0.17802452540E+03  0.17509727356E+03  0.54928941236E+03  0.19401518468E+04  0.18439410357E+04 0.  0.
         23    2    4    4    0    0 -0.16643572059E+03 -0.28053018145E+03 -0.10934216000E+03  0.35600406537E+03  0.91570490966E+02 0.  0.
        -15    1    3    3    0    0 -0.81526426210E+02 -0.34883934247E+02 -0.36228690226E+02  0.95791257611E+02  0.00000000000E+00 0.  1.
        -15    1    5    5    0    0  0.89390711837E+00 -0.51508587088E+02 -0.36580177291E+02  0.63182616157E+02  0.00000000000E+00 0. -1.
         15    1    5    5    0    0 -0.16732962771E+03 -0.22902159436E+03 -0.72761982709E+02  0.29282144921E+03  0.00000000000E+00 0.  1.
         15    1    1    2    0    0 -0.99159644093E+02 -0.13962600562E+03 -0.19704382469E+03  0.26106383378E+03  0.00000000000E+00 0. -1.
        -16    1    4    4    0    0  0.33385965408E+03 -0.41645571456E+03  0.40889235963E+03  0.67237682335E+03  0.00000000000E+00 0.  1.
         16    1    3    3    0    0  0.26615449011E+01 -0.58733368959E+00  0.22700119548E+02  0.22863162721E+02  0.00000000000E+00 0. -1.
    9900018    1    4    4    0    0  0.10600591914E+02  0.87208316956E+03  0.24973921272E+03  0.91177095805E+03  0.91187600000E+02 0.  0.
<mgrwt>
<rscale>  0 0.10486556E+04</rscale>
<asrwt>0</asrwt>
<pdfrwt beam="1">  1        1 0.15239639E+00 0.21728492E+04</pdfrwt>
<pdfrwt beam="2">  1       -1 0.20450670E+00 0.21728492E+04</pdfrwt>
<totfact> 0.19635197E+00</totfact>
</mgrwt>
</event>
<event>
12    1  0.1961457E-010  0.4127802E+04  0.7818608E-02  0.8632402E-01
         -2   -1    0    0    0  501 -0.00000000000E+00  0.00000000000E+00  0.11297393710E+04  0.11297393710E+04  0.00000000000E+00 0.  1.
          2   -1    0    0  501    0  0.00000000000E+00 -0.00000000000E+00 -0.42443130166E+04  0.42443130166E+04  0.00000000000E+00 0. -1.
         24    2    1    2    0    0  0.92398319666E+02  0.16240283689E+03 -0.35316911753E+03  0.40775513128E+03  0.81386059037E+02 0.  0.
    9900016    2    1    2    0    0  0.45599927549E+03 -0.15738527939E+04 -0.23106672912E+04  0.33863937908E+04  0.18556755157E+04 0.  0.
         23    2    4    4    0    0  0.99827890280E+02  0.36045659319E+03 -0.13673925627E+03  0.40861303949E+03  0.91500975878E+02 0.  0.
        -15    1    3    3    0    0  0.88575818136E+02  0.74549119456E+02 -0.19455273225E+03  0.22639349018E+03  0.00000000000E+00 0.  1.
        -15    1    5    5    0    0  0.53151510865E+02  0.22323145971E+03 -0.12948842763E+03  0.26348552256E+03  0.00000000000E+00 0.  1.
         15    1    5    5    0    0  0.46676379415E+02  0.13722513348E+03 -0.72508286414E+01  0.14512751693E+03  0.00000000000E+00 0. -1.
         15    1    1    2    0    0 -0.54839759516E+03  0.14114499570E+04 -0.45073723685E+03  0.15799034655E+04  0.00000000000E+00 0. -1.
        -16    1    4    4    0    0  0.17847269164E+03 -0.16464917474E+04 -0.19652137609E+04  0.25699907980E+04  0.00000000000E+00 0.  1.
         16    1    3    3    0    0  0.38225015292E+01  0.87853717432E+02 -0.15861638528E+03  0.18136164110E+03  0.00000000000E+00 0. -1.
    9900018    1    4    4    0    0  0.17769869357E+03 -0.28781763970E+03 -0.20871427401E+03  0.40778995327E+03  0.91187600000E+02 0.  0.
<mgrwt>
<rscale>  0 0.19457724E+04</rscale>
<asrwt>0</asrwt>
<pdfrwt beam="1">  1        2 0.65297124E+00 0.41278025E+04</pdfrwt>
<pdfrwt beam="2">  1       -2 0.17380605E+00 0.41278025E+04</pdfrwt>
<totfact> 0.32812273E-02</totfact>
</mgrwt>
</event>
<event>
12    1  0.1961457E-010  0.4015186E+04  0.7818608E-02  0.8444160E-01
          2   -1    0    0  501    0  0.00000000000E+00  0.00000000000E+00  0.31601432688E+04  0.31601432688E+04  0.00000000000E+00 0.  1.
         -2   -1    0    0    0  501 -0.00000000000E+00 -0.00000000000E+00 -0.16224982360E+04  0.16224982360E+04  0.00000000000E+00 0. -1.
         24    2    1    2    0    0  0.48783125199E+03  0.85680244849E+02  0.28141382085E+03  0.57552440136E+03  0.81939997646E+02 0.  0.
    9900016    2    1    2    0    0  0.92878420649E+03 -0.20861153907E+03  0.17503564339E+04  0.27017695704E+04  0.18247334845E+04 0.  0.
         23    2    4    4    0    0 -0.29518100891E+03 -0.50940715104E+03  0.80620462960E+03  0.10024672199E+04  0.91362731380E+02 0.  0.
        -15    1    3    3    0    0  0.71284005322E+02  0.29513384650E+02  0.73649427597E+02  0.10666155574E+03  0.00000000000E+00 0.  1.
        -15    1    5    5    0    0 -0.56677097172E+02 -0.40964501019E+02  0.86458379594E+02  0.11119997792E+03  0.00000000000E+00 0.  1.
         15    1    1    2    0    0 -0.14166154585E+04  0.12293129422E+03 -0.49412522197E+03  0.15053475331E+04  0.00000000000E+00 0. -1.
         15    1    5    5    0    0 -0.23850391174E+03 -0.46844265002E+03  0.71974625000E+03  0.89126724200E+03  0.00000000000E+00 0. -1.
        -16    1    4    4    0    0  0.81026682417E+03  0.46916011770E+03  0.49391032799E+03  0.10585796874E+04  0.00000000000E+00 0.  1.
         16    1    3    3    0    0  0.41654724667E+03  0.56166860199E+02  0.20776439326E+03  0.46886284562E+03  0.00000000000E+00 0. -1.
    9900018    1    4    4    0    0  0.41369839123E+03 -0.16836450573E+03  0.45024147630E+03  0.64072266315E+03  0.91187600000E+02 0.  0.
<mgrwt>
<rscale>  0 0.23876010E+04</rscale>
<asrwt>0</asrwt>
<pdfrwt beam="1">  1        2 0.48617589E+00 0.40151859E+04</pdfrwt>
<pdfrwt beam="2">  1       -2 0.24961511E+00 0.40151859E+04</pdfrwt>
<totfact> 0.68755190E-02</totfact>
</mgrwt>
</event>
