<event>
12    1  0.6958589E-009  0.8487435E+03  0.7818608E-02  0.9492025E-01
          1   -1    0    0  501    0  0.00000000000E+00  0.00000000000E+00  0.10960785632E+04  0.10960785632E+04  0.00000000000E+00 0. -1.
         -1   -1    0    0    0  501 -0.00000000000E+00 -0.00000000000E+00 -0.16430516320E+03  0.16430516320E+03  0.00000000000E+00 0.  1.
    9900016    2    1    2    0    0 -0.45937762719E+01  0.10050925268E+03  0.89369352864E+03  0.11528045032E+04  0.72121209561E+03 0.  0.
         25    2    3    3    0    0 -0.56523268237E+01  0.65251847195E+02  0.12217777938E+03  0.18666020861E+03  0.12499948538E+03 0.  0.
         23    2    4    4    0    0  0.65209945524E+01  0.29665847048E+02  0.80758877978E+02  0.12571644169E+03  0.91433262487E+02 0.  0.
        -15    1    5    5    0    0  0.16493718436E+02  0.35668316325E+02  0.97617190681E+02  0.10523016418E+03  0.00000000000E+00 0.  1.
        -15    1    4    4    0    0 -0.59703488513E+01  0.13643983859E+02  0.14959567446E+01  0.14968007467E+02  0.00000000000E+00 0.  1.
         15    1    5    5    0    0 -0.99727238838E+01 -0.60024692772E+01 -0.16858312704E+02  0.20486277512E+02  0.00000000000E+00 0. -1.
         15    1    4    4    0    0 -0.62029725249E+01  0.21942016288E+02  0.39922944658E+02  0.45975759451E+02  0.00000000000E+00 0. -1.
        -16    1    1    2    0    0  0.45937762719E+01 -0.10050925268E+03  0.38079871321E+02  0.10757922315E+03  0.00000000000E+00 0.  1.
         16    1    3    3    0    0 -0.38369517488E+02 -0.20146721885E+03  0.65099488645E+03  0.68253615459E+03  0.00000000000E+00 0. -1.
    9900018    1    3    3    0    0  0.39428068040E+02  0.23672462434E+03  0.12052086282E+03  0.28360814002E+03  0.91187600000E+02 0.  0.
<mgrwt>
<rscale>  0 0.84874346E+03</rscale>
<asrwt>0</asrwt>
<pdfrwt beam="1">  1        1 0.16862747E+00 0.84874346E+03</pdfrwt>
<pdfrwt beam="2">  1       -1 0.25277718E-01 0.84874346E+03</pdfrwt>
<totfact> 0.17692241E+02</totfact>
</mgrwt>
</event>
<event>
12    1  0.6958589E-009  0.1084707E+04  0.7818608E-02  0.9220227E-01
          2   -1    0    0  501    0  0.00000000000E+00  0.00000000000E+00  0.44596211149E+03  0.44596211149E+03  0.00000000000E+00 0. -1.
         -2   -1    0    0    0  501 -0.00000000000E+00 -0.00000000000E+00 -0.65957877910E+03  0.65957877910E+03  0.00000000000E+00 0.  1.
    9900016    2    1    2    0    0  0.21797598104E+03  0.87643105589E+02  0.49541873363E+02  0.75277005853E+03  0.71345183547E+03 0.  0.
         25    2    3    3    0    0  0.87175498584E+00 -0.16592384950E+03  0.27276472010E+02  0.20952226107E+03  0.12499635262E+03 0.  0.
         23    2    4    4    0    0 -0.51353299628E+01 -0.10461268893E+03  0.11682928249E+02  0.13829232011E+03  0.89543780848E+02 0.  0.
        -15    1    5    5    0    0  0.37479468302E+02 -0.80588245890E+02  0.73860644712E+01  0.89183686110E+02  0.00000000000E+00 0.  1.
        -15    1    4    4    0    0  0.13200042637E+02 -0.37987588570E+02  0.22210576919E+02  0.45941351069E+02  0.00000000000E+00 0. -1.
         15    1    5    5    0    0 -0.42614798265E+02 -0.24024443043E+02  0.42968637773E+01  0.49108633997E+02  0.00000000000E+00 0. -1.
         15    1    4    4    0    0 -0.71929576880E+01 -0.23323572001E+02 -0.66170331574E+01  0.25288589897E+02  0.00000000000E+00 0.  1.
        -16    1    1    2    0    0 -0.21797598104E+03 -0.87643105589E+02 -0.26315854097E+03  0.35277083206E+03  0.00000000000E+00 0.  1.
         16    1    3    3    0    0 -0.10613920136E+03  0.10850999932E+03  0.82055394419E+02  0.17254865335E+03  0.00000000000E+00 0. -1.
    9900018    1    3    3    0    0  0.32324342741E+03  0.14505695577E+03 -0.59789993066E+02  0.37069914411E+03  0.91187600000E+02 0.  0.
<mgrwt>
<rscale>  0 0.10847067E+04</rscale>
<asrwt>0</asrwt>
<pdfrwt beam="1">  1        2 0.68609556E-01 0.10847067E+04</pdfrwt>
<pdfrwt beam="2">  1       -2 0.10147366E+00 0.10847067E+04</pdfrwt>
<totfact> 0.55717840E+01</totfact>
</mgrwt>
</event>
<event>
12    1  0.6958589E-009  0.9121116E+03  0.7818608E-02  0.9410567E-01
         -2   -1    0    0    0  501 -0.00000000000E+00  0.00000000000E+00  0.34346415243E+03  0.34346415243E+03  0.00000000000E+00 0.  1.
          2   -1    0    0  501    0  0.00000000000E+00 -0.00000000000E+00 -0.60555635214E+03  0.60555635214E+03  0.00000000000E+00 0. -1.
    9900016    2    1    2    0    0 -0.63581253902E+02  0.15484480106E+03 -0.11077137241E+03  0.72337148277E+03  0.69496511918E+03 0.  0.
         25    2    3    3    0    0 -0.21930437924E+02 -0.99094790955E+02  0.34486788251E+02  0.16466753455E+03  0.12500134667E+03 0.  0.
         23    2    4    4    0    0 -0.37453282901E+02 -0.93676391491E+02  0.24676829402E+02  0.13930185403E+03  0.92833430961E+02 0.  0.
        -15    1    5    5    0    0 -0.30225686769E+02 -0.72752652628E+02  0.59023550301E+02  0.98439423480E+02  0.00000000000E+00 0.  1.
        -15    1    4    4    0    0  0.55546637710E+01 -0.10552192522E+02  0.69177259973E+01  0.13786152096E+02  0.00000000000E+00 0.  1.
         15    1    4    4    0    0  0.99681812059E+01  0.51337930577E+01  0.28922328525E+01  0.11579528427E+02  0.00000000000E+00 0. -1.
         15    1    5    5    0    0 -0.72275961320E+01 -0.20923738863E+02 -0.34346720900E+02  0.40862430550E+02  0.00000000000E+00 0. -1.
        -16    1    1    2    0    0  0.63581253902E+02 -0.15484480106E+03 -0.15132082730E+03  0.22564902179E+03  0.00000000000E+00 0.  1.
         16    1    3    3    0    0 -0.24271313359E+03  0.73159534664E+02 -0.54718598336E+02  0.25933782549E+03  0.00000000000E+00 0. -1.
    9900018    1    3    3    0    0  0.20106231761E+03  0.18078005735E+03 -0.90539562328E+02  0.29936612273E+03  0.91187600000E+02 0.  0.
<mgrwt>
<rscale>  0 0.91211161E+03</rscale>
<asrwt>0</asrwt>
<pdfrwt beam="1">  1        2 0.93162515E-01 0.91211161E+03</pdfrwt>
<pdfrwt beam="2">  1       -2 0.52840639E-01 0.91211161E+03</pdfrwt>
<totfact> 0.16617591E+02</totfact>
</mgrwt>
</event>
<event>
12    1  0.6958589E-009  0.8768242E+03  0.7818608E-02  0.9455025E-01
          1   -1    0    0  501    0  0.00000000000E+00  0.00000000000E+00  0.11736640883E+04  0.11736640883E+04  0.00000000000E+00 0.  1.
         -1   -1    0    0    0  501 -0.00000000000E+00 -0.00000000000E+00 -0.16376507788E+03  0.16376507788E+03  0.00000000000E+00 0. -1.
    9900016    2    1    2    0    0 -0.73497420442E+02  0.11372349802E+03  0.78553700571E+03  0.10753734203E+04  0.72182040762E+03 0.  0.
         25    2    3    3    0    0  0.30862854948E+02  0.30041554462E+02  0.28971371000E+02  0.13534860056E+03  0.12499957010E+03 0.  0.
         23    2    4    4    0    0  0.10837128724E+02  0.40000600220E+02  0.70902483909E+01  0.10122740707E+03  0.92082707073E+02 0.  0.
        -15    1    5    5    0    0  0.86388958371E+01 -0.21108401054E+02 -0.23590823395E+02  0.32813443355E+02  0.00000000000E+00 0. -1.
        -15    1    4    4    0    0  0.98374293386E+01 -0.12229993569E+02  0.14142138481E+02  0.21126945816E+02  0.00000000000E+00 0.  1.
         15    1    5    5    0    0  0.21982328872E+01  0.61109001275E+02  0.30681071786E+02  0.68413963710E+02  0.00000000000E+00 0.  1.
         15    1    4    4    0    0  0.10188296885E+02  0.22709478114E+01  0.77389841279E+01  0.12994247678E+02  0.00000000000E+00 0. -1.
        -16    1    1    2    0    0  0.73497420442E+02 -0.11372349802E+03  0.22436200474E+03  0.26205574595E+03  0.00000000000E+00 0.  1.
         16    1    3    3    0    0 -0.13459852943E+03 -0.24311171825E+02 -0.30217814895E+02  0.14007467129E+03  0.00000000000E+00 0. -1.
    9900018    1    3    3    0    0  0.30238254044E+02  0.10799311538E+03  0.78678344961E+03  0.79995014841E+03  0.91187600000E+02 0.  0.
<mgrwt>
<rscale>  0 0.87682425E+03</rscale>
<asrwt>0</asrwt>
<pdfrwt beam="1">  1        1 0.18056370E+00 0.87682425E+03</pdfrwt>
<pdfrwt beam="2">  1       -1 0.25194628E-01 0.87682425E+03</pdfrwt>
<totfact> 0.15559193E+02</totfact>
</mgrwt>
</event>
<event>
12    1  0.6958589E-009  0.9359178E+03  0.7818608E-02  0.9381764E-01
          2   -1    0    0  501    0  0.00000000000E+00  0.00000000000E+00  0.56750523008E+03  0.56750523008E+03  0.00000000000E+00 0. -1.
         -2   -1    0    0    0  501 -0.00000000000E+00 -0.00000000000E+00 -0.38587404410E+03  0.38587404410E+03  0.00000000000E+00 0.  1.
    9900016    2    1    2    0    0 -0.18502589672E+03  0.93667286302E+01  0.68749013216E+02  0.73643526530E+03  0.70942804787E+03 0.  0.
         25    2    3    3    0    0 -0.13342153668E+03  0.55953099380E+02  0.29613897821E+02  0.19347905412E+03  0.12500042264E+03 0.  0.
         23    2    4    4    0    0 -0.88889755328E+02  0.62433938602E+02  0.28295364241E+02  0.14223198467E+03  0.87349439235E+02 0.  0.
        -15    1    5    5    0    0  0.16834343627E+02  0.16138715458E+02 -0.31518344660E+00  0.23322791484E+02  0.00000000000E+00 0.  1.
        -15    1    4    4    0    0 -0.27126655191E+02 -0.12691920450E+01  0.12519436611E+02  0.29903219950E+02  0.00000000000E+00 0.  1.
         15    1    4    4    0    0 -0.17405126156E+02 -0.52116471765E+01 -0.11200903031E+02  0.21343849501E+02  0.00000000000E+00 0. -1.
         15    1    5    5    0    0 -0.10572409896E+03  0.46295223143E+02  0.28610547688E+02  0.11890919319E+03  0.00000000000E+00 0. -1.
        -16    1    3    3    0    0  0.92470130599E+02  0.15794952182E+03  0.16681715102E+03  0.24764235980E+03  0.00000000000E+00 0.  1.
         16    1    1    2    0    0  0.18502589672E+03 -0.93667286302E+01  0.11288217276E+03  0.21694400888E+03  0.00000000000E+00 0. -1.
    9900018    1    3    3    0    0 -0.14407449064E+03 -0.20453589257E+03 -0.12768203562E+03  0.29531385138E+03  0.91187600000E+02 0.  0.
<mgrwt>
<rscale>  0 0.93591781E+03</rscale>
<asrwt>0</asrwt>
<pdfrwt beam="1">  1        2 0.87308497E-01 0.93591781E+03</pdfrwt>
<pdfrwt beam="2">  1       -2 0.59365238E-01 0.93591781E+03</pdfrwt>
<totfact> 0.14078984E+02</totfact>
</mgrwt>
</event>
<event>
12    1  0.6958589E-009  0.8413316E+03  0.7818608E-02  0.9502046E-01
         -2   -1    0    0    0  501 -0.00000000000E+00  0.00000000000E+00  0.57416666377E+03  0.57416666377E+03  0.00000000000E+00 0.  1.
          2   -1    0    0  501    0  0.00000000000E+00 -0.00000000000E+00 -0.30820267133E+03  0.30820267133E+03  0.00000000000E+00 0. -1.
    9900016    2    1    2    0    0  0.99802093245E+02  0.11862510949E+02  0.28773546465E+03  0.77953367016E+03  0.71748161532E+03 0.  0.
         25    2    3    3    0    0 -0.44724376570E+01  0.12726877281E+03 -0.57853456268E+02  0.18759041992E+03  0.12500320000E+03 0.  0.
         23    2    4    4    0    0 -0.66564090921E+01  0.55602410288E+02 -0.18904314594E+02  0.10252384698E+03  0.83772491179E+02 0.  0.
        -15    1    5    5    0    0 -0.25186102636E+02  0.26275786719E+02  0.26761046395E+02  0.45176435648E+02  0.00000000000E+00 0.  1.
        -15    1    4    4    0    0 -0.70025759827E+01  0.61428112486E+02 -0.32972008308E+02  0.70068555043E+02  0.00000000000E+00 0. -1.
         15    1    4    4    0    0  0.91865474177E+01  0.10238250040E+02 -0.59771333672E+01  0.14998017890E+02  0.00000000000E+00 0.  1.
         15    1    5    5    0    0  0.18529693544E+02  0.29326623569E+02 -0.45665360988E+02  0.57347411336E+02  0.00000000000E+00 0. -1.
        -16    1    3    3    0    0  0.19792969249E+03 -0.14010271761E+03  0.38339450687E+03  0.45364775162E+03  0.00000000000E+00 0.  1.
         16    1    1    2    0    0 -0.99802093245E+02 -0.11862510949E+02 -0.21771472204E+02  0.10283566494E+03  0.00000000000E+00 0. -1.
    9900018    1    3    3    0    0 -0.93655161584E+02  0.24696455748E+02 -0.37805585953E+02  0.13829549863E+03  0.91187600000E+02 0.  0.
<mgrwt>
<rscale>  0 0.84133156E+03</rscale>
<asrwt>0</asrwt>
<pdfrwt beam="1">  1        2 0.47415796E-01 0.84133156E+03</pdfrwt>
<pdfrwt beam="2">  1       -2 0.88333333E-01 0.84133156E+03</pdfrwt>
<totfact> 0.11825291E+02</totfact>
</mgrwt>
</event>
<event>
12    1  0.6958589E-009  0.9593895E+03  0.7818608E-02  0.9354243E-01
         -2   -1    0    0    0  501 -0.00000000000E+00  0.00000000000E+00  0.23936969709E+03  0.23936969709E+03  0.00000000000E+00 0.  1.
          2   -1    0    0  501    0  0.00000000000E+00 -0.00000000000E+00 -0.96130392715E+03  0.96130392715E+03  0.00000000000E+00 0. -1.
    9900016    2    1    2    0    0  0.19456737287E+03  0.48680563761E+02 -0.66081268067E+03  0.99100220590E+03  0.71076417557E+03 0.  0.
         25    2    3    3    0    0  0.67328880501E+02  0.67926803502E+02 -0.16421591564E+03  0.22746300867E+03  0.12500129831E+03 0.  0.
         23    2    4    4    0    0  0.32958819575E+02  0.61922651746E+02 -0.12050560883E+03  0.16450193892E+03  0.87284520752E+02 0.  0.
        -15    1    5    5    0    0  0.18465645953E+02  0.69613118446E+02 -0.40084249136E+02  0.82423985398E+02  0.00000000000E+00 0. -1.
        -15    1    4    4    0    0  0.17352847866E+02 -0.11521666423E+02 -0.21706380631E+02  0.30083834303E+02  0.00000000000E+00 0. -1.
         15    1    5    5    0    0  0.14493173622E+02 -0.76904666996E+01 -0.80421359694E+02  0.82077953525E+02  0.00000000000E+00 0.  1.
         15    1    4    4    0    0  0.17017213060E+02  0.17525818180E+02 -0.22003926181E+02  0.32877235446E+02  0.00000000000E+00 0.  1.
        -16    1    1    2    0    0 -0.19456737287E+03 -0.48680563761E+02 -0.61121549388E+02  0.20967141835E+03  0.00000000000E+00 0.  1.
         16    1    3    3    0    0  0.33530964522E+03 -0.65963703631E+02 -0.23960624338E+03  0.41736664965E+03  0.00000000000E+00 0. -1.
    9900018    1    3    3    0    0 -0.20807115285E+03  0.46717463890E+02 -0.25699052165E+03  0.34617254758E+03  0.91187600000E+02 0.  0.
<mgrwt>
<rscale>  0 0.95938945E+03</rscale>
<asrwt>0</asrwt>
<pdfrwt beam="1">  1        2 0.14789291E+00 0.95938945E+03</pdfrwt>
<pdfrwt beam="2">  1       -2 0.36826108E-01 0.95938945E+03</pdfrwt>
<totfact> 0.18525733E+02</totfact>
</mgrwt>
</event>
<event>
12    1  0.6958589E-009  0.1117665E+04  0.7818608E-02  0.9188143E-01
          2   -1    0    0  501    0  0.00000000000E+00  0.00000000000E+00  0.12348149358E+04  0.12348149358E+04  0.00000000000E+00 0.  1.
         -2   -1    0    0    0  501 -0.00000000000E+00 -0.00000000000E+00 -0.25290747945E+03  0.25290747945E+03  0.00000000000E+00 0. -1.
    9900016    2    1    2    0    0 -0.30385842159E+03  0.12640624137E+03  0.59106917954E+03  0.97677913381E+03  0.70457520750E+03 0.  0.
         25    2    3    3    0    0 -0.10318445900E+03  0.43371662616E+02  0.17530143788E+03  0.24266019510E+03  0.12500096985E+03 0.  0.
         23    2    4    4    0    0 -0.49708379413E+02  0.32489441219E+02  0.11218017390E+03  0.15586796187E+03  0.90465149906E+02 0.  0.
        -15    1    5    5    0    0 -0.49980328582E+02 -0.20993480547E+02  0.48828315396E+02  0.72958644827E+02  0.00000000000E+00 0.  1.
        -15    1    4    4    0    0 -0.13173336496E+02  0.11339755507E+01  0.32974410418E+02  0.35526531457E+02  0.00000000000E+00 0. -1.
         15    1    4    4    0    0 -0.40302743095E+02  0.97482458454E+01  0.30146853563E+02  0.51265701768E+02  0.00000000000E+00 0.  1.
         15    1    5    5    0    0  0.27194916913E+00  0.53482921767E+02  0.63351858501E+02  0.82909317043E+02  0.00000000000E+00 0. -1.
        -16    1    3    3    0    0 -0.27463366909E+03  0.20002839120E+03  0.45101091384E+03  0.56466437278E+03  0.00000000000E+00 0.  1.
         16    1    1    2    0    0  0.30385842159E+03 -0.12640624137E+03  0.39083827683E+03  0.51094328145E+03  0.00000000000E+00 0. -1.
    9900018    1    3    3    0    0  0.73959706505E+02 -0.11699381245E+03 -0.35243172180E+02  0.16945456593E+03  0.91187600000E+02 0.  0.
<mgrwt>
<rscale>  0 0.11176653E+04</rscale>
<asrwt>0</asrwt>
<pdfrwt beam="1">  1        2 0.18997153E+00 0.11176653E+04</pdfrwt>
<pdfrwt beam="2">  1       -2 0.38908844E-01 0.11176653E+04</pdfrwt>
<totfact> 0.11171996E+02</totfact>
</mgrwt>
</event>
<event>
12    1  0.6958589E-009  0.1074924E+04  0.7818608E-02  0.9229983E-01
         -2   -1    0    0    0  501 -0.00000000000E+00  0.00000000000E+00  0.98198819937E+02  0.98198819937E+02  0.00000000000E+00 0.  1.
          2   -1    0    0  501    0  0.00000000000E+00 -0.00000000000E+00 -0.29416385108E+04  0.29416385108E+04  0.00000000000E+00 0. -1.
    9900016    2    1    2    0    0 -0.91695469078E+01 -0.48521294405E+02 -0.11953386850E+04  0.13909967314E+04  0.70964705187E+03 0.  0.
         25    2    3    3    0    0  0.36266953339E+02 -0.23275457141E+02 -0.33112498861E+03  0.35654640664E+03  0.12499817277E+03 0.  0.
         23    2    4    4    0    0  0.37746798473E+02 -0.27885554265E+02 -0.25050593914E+03  0.26807100326E+03  0.83104827254E+02 0.  0.
        -15    1    5    5    0    0  0.42451250415E+02  0.19909199390E+02 -0.10970964690E+03  0.11930922640E+03  0.00000000000E+00 0. -1.
        -15    1    4    4    0    0 -0.16323620638E+02 -0.15024318048E+01 -0.20490268910E+02  0.26240598546E+02  0.00000000000E+00 0. -1.
         15    1    4    4    0    0  0.14843775503E+02  0.61125289285E+01 -0.60128780556E+02  0.62234804831E+02  0.00000000000E+00 0.  1.
         15    1    5    5    0    0 -0.47044519420E+01 -0.47794753654E+02 -0.14079629224E+03  0.14876177686E+03  0.00000000000E+00 0.  1.
        -16    1    3    3    0    0 -0.79062652469E+02  0.11463396272E+03  0.13921171081E+02  0.13994873143E+03  0.00000000000E+00 0.  1.
         16    1    1    2    0    0  0.91695469078E+01  0.48521294405E+02 -0.16481010058E+04  0.16488405993E+04  0.00000000000E+00 0. -1.
    9900018    1    3    3    0    0  0.33626152223E+02 -0.13987979998E+03 -0.87813486752E+03  0.89450159335E+03  0.91187600000E+02 0.  0.
<mgrwt>
<rscale>  0 0.10749241E+04</rscale>
<asrwt>0</asrwt>
<pdfrwt beam="1">  1        2 0.45255980E+00 0.10749241E+04</pdfrwt>
<pdfrwt beam="2">  1       -2 0.15107510E-01 0.10749241E+04</pdfrwt>
<totfact> 0.66542356E+01</totfact>
</mgrwt>
</event>
<event>
12    1  0.6958589E-009  0.7780261E+03  0.7818608E-02  0.9592380E-01
          1   -1    0    0  501    0  0.00000000000E+00  0.00000000000E+00  0.39023387597E+03  0.39023387597E+03  0.00000000000E+00 0. -1.
         -1   -1    0    0    0  501 -0.00000000000E+00 -0.00000000000E+00 -0.38779603066E+03  0.38779603066E+03  0.00000000000E+00 0.  1.
    9900016    2    1    2    0    0  0.67153854206E+02 -0.19402641532E+02  0.23212927555E+02  0.70510729919E+03  0.70124985613E+03 0.  0.
         25    2    3    3    0    0  0.13875698626E+03  0.65818032300E+02  0.69894407516E+01  0.19813805250E+03  0.12499728379E+03 0.  0.
         23    2    4    4    0    0  0.11483580812E+03  0.58481549197E+02 -0.50872588769E+01  0.15721501105E+03  0.89907313793E+02 0.  0.
        -15    1    5    5    0    0  0.51630023919E+02  0.57558086759E+02  0.32274271584E+02  0.83786761052E+02  0.00000000000E+00 0.  1.
        -15    1    4    4    0    0  0.12727854006E+02 -0.77836389960E+01 -0.47769072201E+01  0.15665316664E+02  0.00000000000E+00 0.  1.
         15    1    4    4    0    0  0.11193324130E+02  0.15120122100E+02  0.16853606849E+02  0.25257724782E+02  0.00000000000E+00 0. -1.
         15    1    5    5    0    0  0.63205784206E+02  0.92346243736E+00 -0.37361530461E+02  0.73428250002E+02  0.00000000000E+00 0. -1.
        -16    1    3    3    0    0  0.74493739908E+02 -0.19455340276E+03 -0.13916563638E+03  0.25053426544E+03  0.00000000000E+00 0.  1.
         16    1    1    2    0    0 -0.67153854206E+02  0.19402641532E+02 -0.20775082252E+02  0.72922607440E+02  0.00000000000E+00 0. -1.
    9900018    1    3    3    0    0 -0.14609687196E+03  0.10933272892E+03  0.15538912318E+03  0.25643498125E+03  0.91187600000E+02 0.  0.
<mgrwt>
<rscale>  0 0.77802609E+03</rscale>
<asrwt>0</asrwt>
<pdfrwt beam="1">  1        1 0.60035981E-01 0.77802609E+03</pdfrwt>
<pdfrwt beam="2">  1       -1 0.59660928E-01 0.77802609E+03</pdfrwt>
<totfact> 0.17886451E+02</totfact>
</mgrwt>
</event>
<event>
12    1  0.6958589E-009  0.1526105E+04  0.7818608E-02  0.8867276E-01
         -2   -1    0    0    0  501 -0.00000000000E+00  0.00000000000E+00  0.22557297364E+03  0.22557297364E+03  0.00000000000E+00 0.  1.
          2   -1    0    0  501    0  0.00000000000E+00 -0.00000000000E+00 -0.25812023685E+04  0.25812023685E+04  0.00000000000E+00 0. -1.
    9900016    2    1    2    0    0 -0.63197602084E+02  0.58226390915E+03 -0.11894528576E+04  0.15017876361E+04  0.70536714323E+03 0.  0.
         25    2    3    3    0    0  0.28588601455E+02  0.18142012345E+03 -0.69376956237E+02  0.23274098680E+03  0.12499854220E+03 0.  0.
         23    2    4    4    0    0  0.31669178805E+02  0.11826863867E+03 -0.36798299773E+02  0.15459859863E+03  0.86926428965E+02 0.  0.
        -15    1    5    5    0    0  0.10623861858E+02  0.16456561745E+02 -0.46228685088E+02  0.50207332037E+02  0.00000000000E+00 0. -1.
        -15    1    4    4    0    0  0.94167112834E+01  0.60703761265E+01  0.75782066777E-01  0.11204001992E+02  0.00000000000E+00 0. -1.
         15    1    5    5    0    0  0.21045316947E+02  0.10181207693E+03  0.94303853155E+01  0.10439126660E+03  0.00000000000E+00 0.  1.
         15    1    4    4    0    0 -0.12497288633E+02  0.57081108649E+02 -0.32654438531E+02  0.66938386173E+02  0.00000000000E+00 0.  1.
        -16    1    3    3    0    0 -0.17965748822E+03  0.43052486611E+03 -0.87847752793E+03  0.99466136976E+03  0.00000000000E+00 0.  1.
         16    1    1    2    0    0  0.63197602084E+02 -0.58226390915E+03 -0.11661765372E+04  0.13049877060E+04  0.00000000000E+00 0. -1.
    9900018    1    3    3    0    0  0.87871284684E+02 -0.29681080401E+02 -0.24159837344E+03  0.27438527958E+03  0.91187600000E+02 0.  0.
<mgrwt>
<rscale>  0 0.15261055E+04</rscale>
<asrwt>0</asrwt>
<pdfrwt beam="1">  1        2 0.39710805E+00 0.15261055E+04</pdfrwt>
<pdfrwt beam="2">  1       -2 0.34703535E-01 0.15261055E+04</pdfrwt>
<totfact> 0.23512436E+01</totfact>
</mgrwt>
</event>
<event>
12    1  0.6958589E-009  0.9772737E+03  0.7818608E-02  0.9333828E-01
          1   -1    0    0  501    0  0.00000000000E+00  0.00000000000E+00  0.10504868551E+04  0.10504868551E+04  0.00000000000E+00 0.  1.
         -1   -1    0    0    0  501 -0.00000000000E+00 -0.00000000000E+00 -0.22729077619E+03  0.22729077619E+03  0.00000000000E+00 0. -1.
    9900016    2    1    2    0    0  0.92381182027E+02  0.51255022304E+02  0.35705392720E+03  0.79981333797E+03  0.70785062588E+03 0.  0.
         25    2    3    3    0    0  0.95002063633E+02  0.12069209585E+02 -0.89073600466E+02  0.18091465650E+03  0.12499979489E+03 0.  0.
         23    2    4    4    0    0  0.43965463080E+02  0.19735591788E+02 -0.46988105848E+02  0.11350306752E+03  0.91392607568E+02 0.  0.
        -15    1    5    5    0    0  0.59382160906E+02  0.44456695350E+02 -0.33180140453E+02  0.81262294552E+02  0.00000000000E+00 0.  1.
        -15    1    4    4    0    0  0.32590032349E+02  0.19605864757E+00 -0.26898778342E+02  0.42257459978E+02  0.00000000000E+00 0. -1.
         15    1    4    4    0    0  0.18446568204E+02 -0.78624408503E+01 -0.15186716276E+02  0.25154129002E+02  0.00000000000E+00 0.  1.
         15    1    5    5    0    0 -0.15416697827E+02 -0.24721103562E+02 -0.13807965395E+02  0.32240772968E+02  0.00000000000E+00 0. -1.
        -16    1    1    2    0    0 -0.92381182027E+02 -0.51255022304E+02  0.46614215172E+03  0.47796429335E+03  0.00000000000E+00 0.  1.
         16    1    3    3    0    0 -0.17435148948E+03 -0.42446537880E+02  0.33618929259E+03  0.38108186904E+03  0.00000000000E+00 0. -1.
    9900018    1    3    3    0    0  0.17173060787E+03  0.81632350599E+02  0.10993823508E+03  0.23781681242E+03  0.91187600000E+02 0.  0.
<mgrwt>
<rscale>  0 0.97727370E+03</rscale>
<asrwt>0</asrwt>
<pdfrwt beam="1">  1        1 0.16161336E+00 0.97727370E+03</pdfrwt>
<pdfrwt beam="2">  1       -1 0.34967812E-01 0.97727370E+03</pdfrwt>
<totfact> 0.10776317E+02</totfact>
</mgrwt>
</event>
