<event>
11    1  0.5622567E-011  0.3405535E+04  0.7818608E-02  0.8136549E-01
          1   -1    0    0  501    0  0.00000000000E+00  0.00000000000E+00  0.35872469532E+04  0.35872469532E+04  0.00000000000E+00 0. -1.
         -1   -1    0    0    0  501 -0.00000000000E+00 -0.00000000000E+00 -0.80825715192E+03  0.80825715192E+03  0.00000000000E+00 0.  1.
    9900016    2    1    2    0    0 -0.63845490666E+03  0.16756225914E+03  0.21162184403E+04  0.31112989313E+04  0.21831396598E+04 0.  0.
         24    2    3    3    0    0 -0.39677773260E+03  0.33910279000E+03  0.17312618194E+04  0.18101837340E+04  0.84109406890E+02 0.  0.
        -15    1    3    3    0    0 -0.62977552191E+02 -0.34153461442E+02 -0.79080660977E+02  0.10670699110E+03  0.00000000000E+00 0.  1.
        -15    1    4    4    0    0 -0.20603703557E+03  0.21459113058E+03  0.87741852812E+03  0.92647929650E+03  0.00000000000E+00 0.  1.
         15    1    3    3    0    0 -0.42368762314E+03 -0.46148589360E+03  0.73347899118E+02  0.63076171911E+03  0.00000000000E+00 0. -1.
         15    1    3    3    0    0  0.24498800127E+03  0.32409882418E+03  0.39068938276E+03  0.56364648709E+03  0.00000000000E+00 0. -1.
        -16    1    1    2    0    0  0.79909697019E+03 -0.88920020436E+02  0.27894144517E+03  0.85104116683E+03  0.00000000000E+00 0.  1.
         16    1    4    4    0    0 -0.19074069703E+03  0.12451165942E+03  0.85384329123E+03  0.88370443748E+03  0.00000000000E+00 0. -1.
    9900018    1    1    2    0    0 -0.16064206354E+03 -0.78642238702E+02  0.38382991589E+03  0.43316400706E+03  0.91187600000E+02 0.  0.
<mgrwt>
<rscale>  0 0.34055355E+04</rscale>
<asrwt>0</asrwt>
<pdfrwt beam="1">  1        1 0.55188414E+00 0.34055355E+04</pdfrwt>
<pdfrwt beam="2">  1       -1 0.12434726E+00 0.34055355E+04</pdfrwt>
<totfact> 0.99140744E-02</totfact>
</mgrwt>
</event>
<event>
12    1  0.5622567E-011  0.2948069E+04  0.7818608E-02  0.8258717E-01
          1   -1    0    0  501    0  0.00000000000E+00  0.00000000000E+00  0.34769247114E+04  0.34769247114E+04  0.00000000000E+00 0. -1.
         -1   -1    0    0    0  501 -0.00000000000E+00 -0.00000000000E+00 -0.62491380575E+03  0.62491380575E+03  0.00000000000E+00 0.  1.
    9900016    2    1    2    0    0 -0.78504212244E+02 -0.28245528543E+03  0.20861436309E+04  0.30460751071E+04  0.22001441793E+04 0.  0.
         23    2    3    3    0    0 -0.53893111095E+03  0.32809434396E+03  0.76930640113E+02  0.64796277260E+03  0.12587609144E+03 0.  0.
         24    2    3    3    0    0 -0.30433587880E+03 -0.26780001246E+03  0.35854440985E+03  0.54688404771E+03  0.78682234396E+02 0.  0.
        -15    1    5    5    0    0 -0.39496712752E+02 -0.66430160743E+02  0.94887931467E+02  0.12237923072E+03  0.00000000000E+00 0.  1.
        -15    1    4    4    0    0 -0.44420311035E+03  0.21913603535E+03  0.30302900806E+02  0.49624114202E+03  0.00000000000E+00 0.  1.
         15    1    4    4    0    0 -0.94728000598E+02  0.10895830861E+03  0.46627739307E+02  0.15172163058E+03  0.00000000000E+00 0. -1.
         15    1    3    3    0    0  0.76476277750E+03 -0.34274961693E+03  0.16506685809E+04  0.18512282868E+04  0.00000000000E+00 0. -1.
        -16    1    1    2    0    0 -0.18667453981E+03  0.36636825162E+03  0.31396068238E+03  0.51734358959E+03  0.00000000000E+00 0.  1.
         16    1    5    5    0    0 -0.26483916604E+03 -0.20136985171E+03  0.26365647839E+03  0.42450481699E+03  0.00000000000E+00 0. -1.
    9900018    1    1    2    0    0  0.26517875205E+03 -0.83912966187E+02  0.45190659242E+03  0.53841982050E+03  0.91187600000E+02 0.  0.
<mgrwt>
<rscale>  0 0.29480694E+04</rscale>
<asrwt>0</asrwt>
<pdfrwt beam="1">  1        1 0.53491148E+00 0.29480694E+04</pdfrwt>
<pdfrwt beam="2">  1       -1 0.96140587E-01 0.29480694E+04</pdfrwt>
<totfact> 0.23200575E-01</totfact>
</mgrwt>
</event>
<event>
12    1  0.5622567E-011  0.2801819E+04  0.7818608E-02  0.8302704E-01
         -2   -1    0    0    0  501 -0.00000000000E+00  0.00000000000E+00  0.70449475285E+03  0.70449475285E+03  0.00000000000E+00 0.  1.
          2   -1    0    0  501    0  0.00000000000E+00 -0.00000000000E+00 -0.27857522676E+04  0.27857522676E+04  0.00000000000E+00 0. -1.
    9900016    2    1    2    0    0  0.81891142472E+02 -0.21680366672E+03 -0.11395384881E+04  0.24815265374E+04  0.21921943346E+04 0.  0.
         23    2    3    3    0    0 -0.21378255970E+03  0.14698516761E+03  0.35315277154E+03  0.44475458329E+03  0.76040364137E+02 0.  0.
        -24    2    3    3    0    0 -0.12028320487E+03 -0.27756067733E+03 -0.15735462518E+04  0.16043451125E+04  0.79796332429E+02 0.  0.
        -15    1    4    4    0    0 -0.14070246553E+03  0.10809519287E+03  0.17957154021E+03  0.25244344432E+03  0.00000000000E+00 0.  1.
        -15    1    3    3    0    0  0.41595690705E+03 -0.86228156995E+02  0.80854992076E+02  0.43242684158E+03  0.00000000000E+00 0.  1.
         15    1    5    5    0    0 -0.52661222419E+02 -0.20104972179E+03 -0.94748718408E+03  0.97001348392E+03  0.00000000000E+00 0. -1.
         15    1    4    4    0    0 -0.73080094169E+02  0.38889974741E+02  0.17358123134E+03  0.19231113897E+03  0.00000000000E+00 0. -1.
        -16    1    5    5    0    0 -0.67621982451E+02 -0.76510955545E+02 -0.62605906767E+03  0.63433162860E+03  0.00000000000E+00 0.  1.
         16    1    1    2    0    0 -0.95091010116E+02  0.10088413706E+03 -0.76819046479E+03  0.78060008936E+03  0.00000000000E+00 0. -1.
    9900018    1    1    2    0    0  0.13199867644E+02  0.11591952966E+03 -0.17352856186E+03  0.22812039374E+03  0.91187600000E+02 0.  0.
<mgrwt>
<rscale>  0 0.28018193E+04</rscale>
<asrwt>0</asrwt>
<pdfrwt beam="1">  1        2 0.42857727E+00 0.28018193E+04</pdfrwt>
<pdfrwt beam="2">  1       -2 0.10838381E+00 0.28018193E+04</pdfrwt>
<totfact> 0.13969827E+00</totfact>
</mgrwt>
</event>
<event>
11    1  0.5622567E-011  0.3993511E+04  0.7818608E-02  0.8005857E-01
         -1   -1    0    0    0  501 -0.00000000000E+00  0.00000000000E+00  0.23079918844E+04  0.23079918844E+04  0.00000000000E+00 0.  1.
          1   -1    0    0  501    0  0.00000000000E+00 -0.00000000000E+00 -0.17274895209E+04  0.17274895209E+04  0.00000000000E+00 0. -1.
    9900016    2    1    2    0    0 -0.74449993787E+02 -0.40836713907E+03 -0.71194177075E+03  0.23372501293E+04  0.21871375266E+04 0.  0.
         24    2    3    3    0    0 -0.58539458885E+03 -0.39274193719E+03 -0.83389514390E+03  0.10947687315E+04  0.78768080628E+02 0.  0.
        -15    1    3    3    0    0 -0.43678979967E+02 -0.86248311481E+02  0.96316037926E+02  0.13646759207E+03  0.00000000000E+00 0.  1.
        -15    1    4    4    0    0 -0.19697678227E+03 -0.17189578296E+03 -0.33722054207E+03  0.42669158294E+03  0.00000000000E+00 0.  1.
         15    1    3    3    0    0  0.69998464136E+03 -0.25826709756E+03  0.20804522870E+02  0.74640017417E+03  0.00000000000E+00 0. -1.
         15    1    3    3    0    0 -0.14536106633E+03  0.32889020716E+03  0.48328123564E+01  0.35961363162E+03  0.00000000000E+00 0. -1.
        -16    1    1    2    0    0  0.19745921247E+03  0.49759691046E+03  0.13944962926E+04  0.14937244511E+04  0.00000000000E+00 0.  1.
         16    1    4    4    0    0 -0.38841780658E+03 -0.22084615423E+03 -0.49667460182E+03  0.66807714854E+03  0.00000000000E+00 0. -1.
    9900018    1    1    2    0    0 -0.12300921868E+03 -0.89229771389E+02 -0.10205215829E+03  0.20450682480E+03  0.91187600000E+02 0.  0.
<mgrwt>
<rscale>  0 0.39935106E+04</rscale>
<asrwt>0</asrwt>
<pdfrwt beam="1">  1        1 0.26576762E+00 0.39935106E+04</pdfrwt>
<pdfrwt beam="2">  1       -1 0.35507568E+00 0.39935106E+04</pdfrwt>
<totfact> 0.51367909E-02</totfact>
</mgrwt>
</event>
<event>
11    1  0.5622567E-011  0.3612674E+04  0.7818608E-02  0.8087595E-01
         -2   -1    0    0    0  501 -0.00000000000E+00  0.00000000000E+00  0.23565977941E+04  0.23565977941E+04  0.00000000000E+00 0.  1.
          2   -1    0    0  501    0  0.00000000000E+00 -0.00000000000E+00 -0.13845611508E+04  0.13845611508E+04  0.00000000000E+00 0. -1.
    9900016    2    1    2    0    0 -0.76756140841E+02  0.30291811390E+03 -0.22831037716E+02  0.22128835298E+04  0.21905892749E+04 0.  0.
         24    2    3    3    0    0  0.51105227066E+03 -0.75083000742E+03  0.18090130239E+03  0.92949141564E+03  0.79428503382E+02 0.  0.
        -15    1    4    4    0    0  0.26452975500E+03 -0.32440356115E+03  0.99562861680E+02  0.43026320455E+03  0.00000000000E+00 0.  1.
        -15    1    3    3    0    0 -0.28769627801E+03  0.33571651520E+03  0.73482290597E+02  0.44819010920E+03  0.00000000000E+00 0.  1.
         15    1    3    3    0    0 -0.29668491636E+03  0.70123868924E+03 -0.24702527445E+03  0.80048680507E+03  0.00000000000E+00 0. -1.
         15    1    3    3    0    0 -0.34272171319E+01  0.16792916894E+02 -0.30189356254E+02  0.34715199929E+02  0.00000000000E+00 0. -1.
        -16    1    1    2    0    0 -0.97344151162E+00 -0.16595107853E+03  0.12242647436E+04  0.12354613999E+04  0.00000000000E+00 0.  1.
         16    1    4    4    0    0  0.24652251567E+03 -0.42642644627E+03  0.81338440710E+02  0.49922821109E+03  0.00000000000E+00 0. -1.
    9900018    1    1    2    0    0  0.77729582353E+02 -0.13696703537E+03 -0.22939706268E+03  0.29281401522E+03  0.91187600000E+02 0.  0.
<mgrwt>
<rscale>  0 0.36126742E+04</rscale>
<asrwt>0</asrwt>
<pdfrwt beam="1">  1        2 0.21300941E+00 0.36126742E+04</pdfrwt>
<pdfrwt beam="2">  1       -2 0.36255351E+00 0.36126742E+04</pdfrwt>
<totfact> 0.15568309E-01</totfact>
</mgrwt>
</event>
<event>
12    1  0.5622567E-011  0.4042139E+04  0.7818608E-02  0.7996099E-01
          2   -1    0    0  501    0  0.00000000000E+00  0.00000000000E+00  0.22118089744E+04  0.22118089744E+04  0.00000000000E+00 0. -1.
         -2   -1    0    0    0  501 -0.00000000000E+00 -0.00000000000E+00 -0.18467785166E+04  0.18467785166E+04  0.00000000000E+00 0.  1.
    9900016    2    1    2    0    0  0.62441460067E+03 -0.63308527858E+03 -0.26313058125E+02  0.23733842868E+04  0.22003567966E+04 0.  0.
         23    2    3    3    0    0  0.46788946667E+03  0.13570316915E+03  0.52073890385E+03  0.72084164523E+03  0.10539339812E+03 0.  0.
        -24    2    3    3    0    0 -0.68785109821E+02  0.12720639382E+03  0.33593113656E+03  0.37456352814E+03  0.80840894010E+02 0.  0.
        -15    1    4    4    0    0  0.13723190168E+03  0.89377325759E+02  0.19063247501E+03  0.25131979971E+03  0.00000000000E+00 0.  1.
        -15    1    3    3    0    0  0.22531024382E+03 -0.89599484155E+03 -0.88298309853E+03  0.12779791134E+04  0.00000000000E+00 0.  1.
         15    1    4    4    0    0  0.33065756499E+03  0.46325843387E+02  0.33010642884E+03  0.46952184551E+03  0.00000000000E+00 0. -1.
         15    1    5    5    0    0 -0.97483468407E+01  0.57593444513E+02  0.59194412638E+02  0.83162573340E+02  0.00000000000E+00 0. -1.
        -16    1    5    5    0    0 -0.59036762981E+02  0.69612949310E+02  0.27673672392E+03  0.29140095480E+03  0.00000000000E+00 0.  1.
         16    1    1    2    0    0 -0.35906853734E+03  0.94213896048E+03  0.64486052188E+03  0.11968296153E+04  0.00000000000E+00 0. -1.
    9900018    1    1    2    0    0 -0.26534606333E+03 -0.30905368190E+03 -0.25351700597E+03  0.48837358890E+03  0.91187600000E+02 0.  0.
<mgrwt>
<rscale>  0 0.40421387E+04</rscale>
<asrwt>0</asrwt>
<pdfrwt beam="1">  1        2 0.34027830E+00 0.40421387E+04</pdfrwt>
<pdfrwt beam="2">  1       -2 0.28411977E+00 0.40421387E+04</pdfrwt>
<totfact> 0.15891327E-01</totfact>
</mgrwt>
</event>
<event>
12    1  0.5622567E-011  0.3246306E+04  0.7818608E-02  0.8176694E-01
         -2   -1    0    0    0  501 -0.00000000000E+00  0.00000000000E+00  0.17277271153E+04  0.17277271153E+04  0.00000000000E+00 0.  1.
          2   -1    0    0  501    0  0.00000000000E+00 -0.00000000000E+00 -0.15249085388E+04  0.15249085388E+04  0.00000000000E+00 0. -1.
    9900016    2    1    2    0    0  0.55669697015E+03  0.39502653579E+03  0.49966108816E+03  0.23537077959E+04  0.21964338608E+04 0.  0.
         23    2    3    3    0    0 -0.14015761359E+03  0.42012608353E+03 -0.16118017292E+03  0.47714116771E+03  0.74394644131E+02 0.  0.
        -24    2    3    3    0    0 -0.35667700817E+03  0.22941248425E+03 -0.21644582671E+03  0.48217148189E+03  0.76104966738E+02 0.  0.
        -15    1    3    3    0    0  0.10535315919E+04 -0.25451203199E+03  0.87728708779E+03  0.13943951463E+04  0.00000000000E+00 0.  1.
        -15    1    4    4    0    0 -0.10804966680E+03  0.36697857164E+03 -0.16098594778E+03  0.41504756103E+03  0.00000000000E+00 0. -1.
         15    1    4    4    0    0 -0.32107946786E+02  0.53147511890E+02 -0.19422514140E+00  0.62093606678E+02  0.00000000000E+00 0.  1.
         15    1    5    5    0    0 -0.26462576903E+03  0.13337882150E+03 -0.16767295088E+03  0.34048630827E+03  0.00000000000E+00 0. -1.
        -16    1    5    5    0    0 -0.92051239135E+02  0.96033662751E+02 -0.48772875830E+02  0.14168517362E+03  0.00000000000E+00 0.  1.
         16    1    1    2    0    0 -0.56816638119E+03 -0.19669061014E+03 -0.31647427534E+03  0.67945286797E+03  0.00000000000E+00 0. -1.
    9900018    1    1    2    0    0  0.11469411043E+02 -0.19833592565E+03  0.19631763638E+02  0.21947499021E+03  0.91187600000E+02 0.  0.
<mgrwt>
<rscale>  0 0.32463061E+04</rscale>
<asrwt>0</asrwt>
<pdfrwt beam="1">  1        2 0.23460131E+00 0.32463061E+04</pdfrwt>
<pdfrwt beam="2">  1       -2 0.26580417E+00 0.32463061E+04</pdfrwt>
<totfact> 0.53004294E-01</totfact>
</mgrwt>
</event>
<event>
12    1  0.5622567E-011  0.3420153E+04  0.7818608E-02  0.8132978E-01
         -2   -1    0    0    0  501 -0.00000000000E+00  0.00000000000E+00  0.13392249048E+04  0.13392249048E+04  0.00000000000E+00 0.  1.
          2   -1    0    0  501    0  0.00000000000E+00 -0.00000000000E+00 -0.21836229144E+04  0.21836229144E+04  0.00000000000E+00 0. -1.
    9900016    2    1    2    0    0  0.25300376076E+03 -0.50509981932E+03  0.24002149162E+01  0.22690961130E+04  0.21976475329E+04 0.  0.
         23    2    3    3    0    0 -0.47576278352E+03  0.44662558203E+02 -0.29816723958E+03  0.57410199179E+03  0.11110546311E+03 0.  0.
        -24    2    3    3    0    0  0.21060231381E+03 -0.79816044306E+03  0.62184592542E+03  0.10366510309E+04  0.80867654210E+02 0.  0.
        -15    1    3    3    0    0  0.51816423047E+03  0.24839806554E+03 -0.32127847092E+03  0.65834309033E+03  0.00000000000E+00 0.  1.
        -15    1    4    4    0    0 -0.16158582277E+03  0.65733772556E+02 -0.86712020706E+02  0.19480729327E+03  0.00000000000E+00 0.  1.
         15    1    4    4    0    0 -0.31417696075E+03 -0.21071214353E+02 -0.21145521888E+03  0.37929469853E+03  0.00000000000E+00 0. -1.
         15    1    5    5    0    0  0.16160154285E+03 -0.57233613172E+03  0.49021562636E+03  0.77071075421E+03  0.00000000000E+00 0. -1.
        -16    1    5    5    0    0  0.49000770962E+02 -0.22582431134E+03  0.13163029906E+03  0.26594027671E+03  0.00000000000E+00 0.  1.
         16    1    1    2    0    0 -0.10503125759E+03  0.33461298058E+03 -0.93200300160E+03  0.99580470316E+03  0.00000000000E+00 0. -1.
    9900018    1    1    2    0    0 -0.14797250317E+03  0.17048683873E+03  0.85204777084E+02  0.25794700290E+03  0.91187600000E+02 0.  0.
<mgrwt>
<rscale>  0 0.34201533E+04</rscale>
<asrwt>0</asrwt>
<pdfrwt beam="1">  1        2 0.33594199E+00 0.34201533E+04</pdfrwt>
<pdfrwt beam="2">  1       -2 0.20603460E+00 0.34201533E+04</pdfrwt>
<totfact> 0.52990864E-01</totfact>
</mgrwt>
</event>
<event>
12    1  0.5622567E-011  0.5178079E+04  0.7818608E-02  0.7801609E-01
         -3   -1    0    0    0  501 -0.00000000000E+00  0.00000000000E+00  0.31280515655E+04  0.31280515655E+04  0.00000000000E+00 0.  1.
          3   -1    0    0  501    0  0.00000000000E+00 -0.00000000000E+00 -0.21429077713E+04  0.21429077713E+04  0.00000000000E+00 0. -1.
    9900016    2    1    2    0    0 -0.27307528244E+03 -0.33926728160E+03  0.14269452976E+04  0.26618706751E+04  0.22044750419E+04 0.  0.
         23    2    3    3    0    0 -0.10816931431E+03  0.14357338776E+03  0.40547539674E+02  0.21491557451E+03  0.11059241820E+03 0.  0.
        -24    2    3    3    0    0 -0.12125320424E+02  0.33045643618E+03 -0.37179177824E+03  0.50375553460E+03  0.78689469807E+02 0.  0.
        -15    1    3    3    0    0 -0.15278064771E+03 -0.81329710554E+03  0.17581895362E+04  0.19431995660E+04  0.00000000000E+00 0.  1.
        -15    1    4    4    0    0 -0.38823947902E+02  0.99266990199E+02  0.69992133465E+02  0.12751522662E+03  0.00000000000E+00 0. -1.
         15    1    5    5    0    0  0.23138055528E+02  0.17837577131E+03 -0.16065481596E+03  0.24117059376E+03  0.00000000000E+00 0. -1.
         15    1    4    4    0    0 -0.69345366409E+02  0.44306397556E+02 -0.29444593791E+02  0.87400347885E+02  0.00000000000E+00 0.  1.
        -16    1    5    5    0    0 -0.35263375952E+02  0.15208066487E+03 -0.21113696228E+03  0.26258494083E+03  0.00000000000E+00 0.  1.
         16    1    1    2    0    0 -0.43238744784E+03  0.12963962829E+04 -0.10865824133E+03  0.13709153295E+04  0.00000000000E+00 0. -1.
    9900018    1    1    2    0    0  0.70546273029E+03 -0.95712900127E+03 -0.33314326209E+03  0.12381733321E+04  0.91187600000E+02 0.  0.
<mgrwt>
<rscale>  0 0.51780792E+04</rscale>
<asrwt>0</asrwt>
<pdfrwt beam="1">  1        3 0.32967812E+00 0.51780792E+04</pdfrwt>
<pdfrwt beam="2">  1       -3 0.48123870E+00 0.51780792E+04</pdfrwt>
<totfact> 0.18685056E-04</totfact>
</mgrwt>
</event>
<event>
12    1  0.5622567E-011  0.2857745E+04  0.7818608E-02  0.8285562E-01
          2   -1    0    0  501    0  0.00000000000E+00  0.00000000000E+00  0.27595612680E+04  0.27595612680E+04  0.00000000000E+00 0. -1.
         -2   -1    0    0    0  501 -0.00000000000E+00 -0.00000000000E+00 -0.73985558949E+03  0.73985558949E+03  0.00000000000E+00 0.  1.
    9900016    2    1    2    0    0  0.29028624779E+03  0.34543802514E+03  0.15839964417E+04  0.27544201499E+04  0.22077572556E+04 0.  0.
         23    2    3    3    0    0 -0.24086924977E+03 -0.38660693923E+03  0.12918943630E+04  0.13716829843E+04  0.70994670003E+02 0.  0.
        -24    2    3    3    0    0 -0.20310418719E+03  0.54208435386E+03  0.20540650344E+03  0.61936409761E+03  0.79456253348E+02 0.  0.
        -15    1    4    4    0    0  0.20998513194E+01 -0.16655329880E+02  0.73339853203E+02  0.75236583234E+02  0.00000000000E+00 0.  1.
        -15    1    3    3    0    0  0.73425968475E+03  0.18996061051E+03  0.86695575257E+02  0.76337306801E+03  0.00000000000E+00 0.  1.
         15    1    4    4    0    0 -0.24296910109E+03 -0.36995160935E+03  0.12185545098E+04  0.12964464010E+04  0.00000000000E+00 0. -1.
         15    1    5    5    0    0 -0.15958542521E+03  0.38412806304E+03  0.11202777374E+03  0.43078080139E+03  0.00000000000E+00 0. -1.
        -16    1    5    5    0    0 -0.43518761984E+02  0.15795629082E+03  0.93378729693E+02  0.18858329622E+03  0.00000000000E+00 0.  1.
         16    1    1    2    0    0 -0.33395041354E+03 -0.37179328576E+03  0.35620909750E+03  0.61370843825E+03  0.00000000000E+00 0. -1.
    9900018    1    1    2    0    0  0.43664165752E+02  0.26355260615E+02  0.79500139328E+02  0.13128826939E+03  0.91187600000E+02 0.  0.
<mgrwt>
<rscale>  0 0.28577451E+04</rscale>
<asrwt>0</asrwt>
<pdfrwt beam="1">  1        2 0.42454788E+00 0.28577451E+04</pdfrwt>
<pdfrwt beam="2">  1       -2 0.11382394E+00 0.28577451E+04</pdfrwt>
<totfact> 0.12804061E+00</totfact>
</mgrwt>
</event>
<event>
12    1  0.5622567E-011  0.2797635E+04  0.7818608E-02  0.8304003E-01
         -2   -1    0    0    0  501 -0.00000000000E+00  0.00000000000E+00  0.63667418205E+03  0.63667418205E+03  0.00000000000E+00 0. -1.
          2   -1    0    0  501    0  0.00000000000E+00 -0.00000000000E+00 -0.30733003415E+04  0.30733003415E+04  0.00000000000E+00 0.  1.
    9900016    2    1    2    0    0  0.36477644766E+03  0.13975255603E+03 -0.15216300386E+04  0.26996072981E+04  0.21954336600E+04 0.  0.
         23    2    3    3    0    0  0.31998960463E+03 -0.28326054124E+02 -0.12336804063E+04  0.12793043160E+04  0.10703492674E+03 0.  0.
         24    2    3    3    0    0 -0.31984369006E+03 -0.48079477313E+03  0.82689749703E+02  0.58881898060E+03  0.80041222275E+02 0.  0.
        -15    1    5    5    0    0 -0.62542973954E+02 -0.10200395734E+03 -0.15035119845E+02  0.12059222916E+03  0.00000000000E+00 0.  1.
        -15    1    4    4    0    0  0.78382414123E+02  0.33729352341E+02 -0.23740658142E+03  0.25227635037E+03  0.00000000000E+00 0.  1.
         15    1    3    3    0    0  0.36463053309E+03  0.64887338329E+03 -0.37063938200E+03  0.83148400146E+03  0.00000000000E+00 0. -1.
         15    1    4    4    0    0  0.24160719050E+03 -0.62055406465E+02 -0.99627382492E+03  0.10270279656E+04  0.00000000000E+00 0. -1.
        -16    1    1    2    0    0 -0.22340608293E+03 -0.90000739386E+02 -0.40692806861E+03  0.47286453028E+03  0.00000000000E+00 0.  1.
         16    1    5    5    0    0 -0.25730071610E+03 -0.37879081579E+03  0.97724869549E+02  0.46822675144E+03  0.00000000000E+00 0. -1.
    9900018    1    1    2    0    0 -0.14137036473E+03 -0.49751816646E+02 -0.50806805223E+03  0.53750269522E+03  0.91187600000E+02 0.  0.
<mgrwt>
<rscale>  0 0.27976354E+04</rscale>
<asrwt>0</asrwt>
<pdfrwt beam="1">  1        2 0.47281544E+00 0.27976354E+04</pdfrwt>
<pdfrwt beam="2">  1       -2 0.97949874E-01 0.27976354E+04</pdfrwt>
<totfact> 0.11810682E+00</totfact>
</mgrwt>
</event>
<event>
11    1  0.5622568E-011  0.3314515E+04  0.7818608E-02  0.8159212E-01
          1   -1    0    0  501    0  0.00000000000E+00  0.00000000000E+00  0.11855459847E+04  0.11855459847E+04  0.00000000000E+00 0. -1.
         -1   -1    0    0    0  501 -0.00000000000E+00 -0.00000000000E+00 -0.23166559643E+04  0.23166559643E+04  0.00000000000E+00 0.  1.
    9900016    2    1    2    0    0 -0.37359941069E+03 -0.24479420585E+02 -0.39733850276E+03  0.22710275010E+04  0.22044301447E+04 0.  0.
         24    2    3    3    0    0  0.53485605836E+02  0.63444629880E+03 -0.25219250912E+03  0.68942744835E+03  0.79538222227E+02 0.  0.
        -15    1    4    4    0    0  0.51328166886E+02  0.39499552805E+03 -0.12050673647E+03  0.41614651438E+03  0.00000000000E+00 0.  1.
        -15    1    3    3    0    0 -0.79279911749E+02 -0.19808021704E+03 -0.18766600116E+03  0.28414715339E+03  0.00000000000E+00 0.  1.
         15    1    3    3    0    0  0.20755894083E+03  0.16217029624E+03  0.32317170856E+03  0.41691710461E+03  0.00000000000E+00 0. -1.
         15    1    3    3    0    0 -0.55536404561E+03 -0.62301579858E+03 -0.28065170104E+03  0.88053579469E+03  0.00000000000E+00 0. -1.
        -16    1    1    2    0    0 -0.15916918871E+03  0.20263995567E+03 -0.59053490979E+03  0.64430525525E+03  0.00000000000E+00 0.  1.
         16    1    4    4    0    0  0.21574389496E+01  0.23945077075E+03 -0.13168577265E+03  0.27328093397E+03  0.00000000000E+00 0. -1.
    9900018    1    1    2    0    0  0.53276859940E+03 -0.17816053508E+03 -0.14323656707E+03  0.58686919267E+03  0.91187600000E+02 0.  0.
<mgrwt>
<rscale>  0 0.33145149E+04</rscale>
<asrwt>0</asrwt>
<pdfrwt beam="1">  1        1 0.18239169E+00 0.33145149E+04</pdfrwt>
<pdfrwt beam="2">  1       -1 0.35640861E+00 0.33145149E+04</pdfrwt>
<totfact> 0.12774763E-01</totfact>
</mgrwt>
</event>
<event>
12    1  0.5622567E-011  0.2785580E+04  0.7818608E-02  0.8307759E-01
          1   -1    0    0  501    0  0.00000000000E+00  0.00000000000E+00  0.28748159196E+04  0.28748159196E+04  0.00000000000E+00 0. -1.
         -1   -1    0    0    0  501 -0.00000000000E+00 -0.00000000000E+00 -0.67477858179E+03  0.67477858179E+03  0.00000000000E+00 0.  1.
    9900016    2    1    2    0    0  0.25930898410E+03 -0.28277683840E+02  0.15627338849E+04  0.27090557308E+04  0.21974542045E+04 0.  0.
         23    2    3    3    0    0  0.68152436307E+02  0.12601310378E+03 -0.20386999553E+03  0.27172188537E+03  0.10837781605E+03 0.  0.
        -24    2    3    3    0    0 -0.72843430957E+03 -0.19222111293E+03  0.83997317956E+03  0.11312976628E+04  0.81938757089E+02 0.  0.
        -15    1    3    3    0    0  0.91959085736E+03  0.37930325317E+02  0.92663070093E+03  0.13060361827E+04  0.00000000000E+00 0.  1.
        -15    1    4    4    0    0  0.34544286115E+02  0.12598580980E+03 -0.10596511053E+03  0.16820920493E+03  0.00000000000E+00 0. -1.
         15    1    4    4    0    0  0.33608150192E+02  0.27293977911E-01 -0.97904885002E+02  0.10351268044E+03  0.00000000000E+00 0.  1.
         15    1    5    5    0    0 -0.29916864234E+03 -0.74977541677E+02  0.40462541628E+03  0.50876835183E+03  0.00000000000E+00 0. -1.
        -16    1    5    5    0    0 -0.42926566722E+03 -0.11724357126E+03  0.43534776327E+03  0.62252931099E+03  0.00000000000E+00 0.  1.
         16    1    1    2    0    0  0.10732043505E+03 -0.10140294048E+02  0.34462802070E+03  0.36109413453E+03  0.00000000000E+00 0. -1.
    9900018    1    1    2    0    0 -0.36662941915E+03  0.38417977888E+02  0.29267543216E+03  0.47944463601E+03  0.91187600000E+02 0.  0.
<mgrwt>
<rscale>  0 0.27855802E+04</rscale>
<asrwt>0</asrwt>
<pdfrwt beam="1">  1        1 0.44227937E+00 0.27855802E+04</pdfrwt>
<pdfrwt beam="2">  1       -1 0.10381209E+00 0.27855802E+04</pdfrwt>
<totfact> 0.55786981E-01</totfact>
</mgrwt>
</event>
<event>
12    1  0.5622567E-011  0.3350956E+04  0.7818608E-02  0.8150049E-01
          1   -1    0    0  501    0  0.00000000000E+00  0.00000000000E+00  0.23670701217E+04  0.23670701217E+04  0.00000000000E+00 0. -1.
         -1   -1    0    0    0  501 -0.00000000000E+00 -0.00000000000E+00 -0.11859497203E+04  0.11859497203E+04  0.00000000000E+00 0.  1.
    9900016    2    1    2    0    0 -0.10812718652E+03  0.14621760833E+03  0.10961385623E+04  0.24682443292E+04  0.22040052731E+04 0.  0.
         23    2    3    3    0    0 -0.29288866026E+03  0.45172205666E+03 -0.43287681684E+03  0.69488415083E+03  0.75133619188E+02 0.  0.
         24    2    3    3    0    0 -0.99320578621E+02 -0.60482680079E+02 -0.50918973939E+02  0.14949724107E+03  0.78955375085E+02 0.  0.
        -15    1    5    5    0    0 -0.94084950256E+02 -0.56394330562E+02 -0.12378019119E+02  0.11038801448E+03  0.00000000000E+00 0.  1.
        -15    1    4    4    0    0 -0.31416810069E+02  0.50010829954E+02 -0.20271040212E+02  0.62442086279E+02  0.00000000000E+00 0.  1.
         15    1    4    4    0    0 -0.26147185019E+03  0.40171122671E+03 -0.41260577663E+03  0.63244206455E+03  0.00000000000E+00 0. -1.
         15    1    3    3    0    0  0.28408205236E+03 -0.24502176825E+03  0.15799343530E+04  0.16238629373E+04  0.00000000000E+00 0. -1.
        -16    1    1    2    0    0  0.47514453674E+03  0.35297065218E+02 -0.25899317008E+03  0.54229666766E+03  0.00000000000E+00 0.  1.
         16    1    5    5    0    0 -0.52356283651E+01 -0.40883495173E+01 -0.38540954820E+02  0.39109226592E+02  0.00000000000E+00 0. -1.
    9900018    1    1    2    0    0 -0.36701735022E+03 -0.18151467355E+03  0.34397500915E+03  0.54247884511E+03  0.91187600000E+02 0.  0.
<mgrwt>
<rscale>  0 0.33509558E+04</rscale>
<asrwt>0</asrwt>
<pdfrwt beam="1">  1        1 0.36416463E+00 0.33509558E+04</pdfrwt>
<pdfrwt beam="2">  1       -1 0.18245380E+00 0.33509558E+04</pdfrwt>
<totfact> 0.27630902E-01</totfact>
</mgrwt>
</event>
<event>
11    1  0.5622567E-011  0.2601071E+04  0.7818608E-02  0.8367838E-01
          4   -1    0    0  501    0  0.00000000000E+00  0.00000000000E+00  0.99016869225E+03  0.99016869225E+03  0.00000000000E+00 0. -1.
         -4   -1    0    0    0  501 -0.00000000000E+00 -0.00000000000E+00 -0.17081857174E+04  0.17081857174E+04  0.00000000000E+00 0.  1.
    9900016    2    1    2    0    0  0.63898365950E+02 -0.83353668569E+02 -0.69507886799E+03  0.23159689759E+04  0.22067049711E+04 0.  0.
        -24    2    3    3    0    0 -0.19279141792E+03  0.48366793057E+03 -0.72785632589E+03  0.89844666914E+03  0.79551167578E+02 0.  0.
        -15    1    3    3    0    0  0.57279595660E+02 -0.28813777659E+02  0.21008833369E+03  0.21965494261E+03  0.00000000000E+00 0.  1.
        -15    1    3    3    0    0 -0.19348180589E+03 -0.32413988870E+03 -0.51413104216E+03  0.63783430855E+03  0.00000000000E+00 0.  1.
         15    1    4    4    0    0 -0.19097777025E+02  0.13644509730E+03 -0.21145111388E+03  0.25237583725E+03  0.00000000000E+00 0. -1.
         15    1    3    3    0    0  0.39289199411E+03 -0.21406793278E+03  0.33682016637E+03  0.56003305559E+03  0.00000000000E+00 0. -1.
        -16    1    4    4    0    0 -0.17369364090E+03  0.34722283327E+03 -0.51640521201E+03  0.64607083189E+03  0.00000000000E+00 0.  1.
         16    1    1    2    0    0 -0.12434059185E+03  0.12180113774E+03  0.11005896361E+03  0.20593463867E+03  0.00000000000E+00 0. -1.
    9900018    1    1    2    0    0  0.60442225900E+02 -0.38447469169E+02 -0.13299712074E+03  0.17645079506E+03  0.91187600000E+02 0.  0.
<mgrwt>
<rscale>  0 0.26010706E+04</rscale>
<asrwt>0</asrwt>
<pdfrwt beam="1">  1        4 0.15233365E+00 0.26010706E+04</pdfrwt>
<pdfrwt beam="2">  1       -4 0.26279780E+00 0.26010706E+04</pdfrwt>
<totfact> 0.26497479E-02</totfact>
</mgrwt>
</event>
<event>
12    1  0.6046554E-011  0.3206168E+04  0.7818608E-02  0.8187190E-01
         -2   -1    0    0    0  501 -0.00000000000E+00  0.00000000000E+00  0.11994594361E+04  0.11994594361E+04  0.00000000000E+00 0.  1.
          2   -1    0    0  501    0  0.00000000000E+00 -0.00000000000E+00 -0.21425303836E+04  0.21425303836E+04  0.00000000000E+00 0. -1.
    9900016    2    1    2    0    0 -0.48438531058E+03 -0.61725079185E+02 -0.71356481926E+03  0.23738620023E+04  0.22107932830E+04 0.  0.
         23    2    3    3    0    0  0.40956576192E+03 -0.14712687405E+03 -0.94484107108E+03  0.10455185654E+04  0.10485223176E+03 0.  0.
        -24    2    3    3    0    0  0.15490168109E+03 -0.74741211367E+02 -0.10314820314E+03  0.21587878705E+03  0.79895678274E+02 0.  0.
        -15    1    4    4    0    0  0.24174529995E+03 -0.12172319552E+03 -0.66850072191E+03  0.72121462934E+03  0.00000000000E+00 0. -1.
        -15    1    3    3    0    0 -0.10488527536E+04  0.16014300623E+03  0.33442445496E+03  0.11124646499E+04  0.00000000000E+00 0.  1.
         15    1    5    5    0    0  0.22640334693E+02  0.17240599436E+02 -0.17799633214E+02  0.33565606898E+02  0.00000000000E+00 0. -1.
         15    1    4    4    0    0  0.16782046198E+03 -0.25403678528E+02 -0.27634034917E+03  0.32430393602E+03  0.00000000000E+00 0.  1.
        -16    1    5    5    0    0  0.13226134640E+03 -0.91981810802E+02 -0.85348569921E+02  0.18231318015E+03  0.00000000000E+00 0.  1.
         16    1    1    2    0    0  0.16740171961E+03 -0.21146272743E+03 -0.42020264492E+03  0.49930960697E+03  0.00000000000E+00 0. -1.
    9900018    1    1    2    0    0  0.31698359097E+03  0.27318780661E+03  0.19069651666E+03  0.46881821049E+03  0.91187600000E+02 0.  0.
<mgrwt>
<rscale>  0 0.32061680E+04</rscale>
<asrwt>0</asrwt>
<pdfrwt beam="1">  1        2 0.32962006E+00 0.32061680E+04</pdfrwt>
<pdfrwt beam="2">  1       -2 0.18453222E+00 0.32061680E+04</pdfrwt>
<totfact> 0.79019047E-01</totfact>
</mgrwt>
</event>
<event>
12    1  0.5622567E-011  0.3179062E+04  0.7818608E-02  0.8194369E-01
          1   -1    0    0  501    0  0.00000000000E+00  0.00000000000E+00  0.42182170812E+04  0.42182170812E+04  0.00000000000E+00 0. -1.
         -1   -1    0    0    0  501 -0.00000000000E+00 -0.00000000000E+00 -0.59897552607E+03  0.59897552607E+03  0.00000000000E+00 0.  1.
    9900016    2    1    2    0    0 -0.34791395353E+03  0.22274297760E+03  0.34528629112E+04  0.41129761192E+04  0.21962813390E+04 0.  0.
         23    2    3    3    0    0 -0.28582353701E+03 -0.52463141099E+03  0.16810924368E+04  0.17877396030E+04  0.11405216026E+03 0.  0.
        -24    2    3    3    0    0  0.34627149721E+03 -0.24361711771E+03  0.57581436674E+03  0.71926807639E+03  0.80815412841E+02 0.  0.
        -15    1    3    3    0    0 -0.40836191373E+03  0.99099150630E+03  0.11959561077E+04  0.16059684398E+04  0.00000000000E+00 0.  1.
        -15    1    4    4    0    0 -0.18692241500E+03 -0.39338207744E+03  0.10780255358E+04  0.11626816004E+04  0.00000000000E+00 0.  1.
         15    1    5    5    0    0  0.24111007566E+03 -0.20941901978E+03  0.44932551887E+03  0.55125657940E+03  0.00000000000E+00 0. -1.
         15    1    4    4    0    0 -0.98901122009E+02 -0.13124933355E+03  0.60306690099E+03  0.62505800256E+03  0.00000000000E+00 0. -1.
        -16    1    5    5    0    0  0.10516142155E+03 -0.34198097928E+02  0.12648884787E+03  0.16801149699E+03  0.00000000000E+00 0.  1.
         16    1    1    2    0    0  0.38233290350E+03 -0.35228341593E+03  0.15102385258E+03  0.54137811027E+03  0.00000000000E+00 0. -1.
    9900018    1    1    2    0    0 -0.34418949970E+02  0.12954043832E+03  0.15354791308E+02  0.16283837781E+03  0.91187600000E+02 0.  0.
<mgrwt>
<rscale>  0 0.31790620E+04</rscale>
<asrwt>0</asrwt>
<pdfrwt beam="1">  1        1 0.64895646E+00 0.31790620E+04</pdfrwt>
<pdfrwt beam="2">  1       -1 0.92150084E-01 0.31790620E+04</pdfrwt>
<totfact> 0.58334188E-02</totfact>
</mgrwt>
</event>
<event>
12    1  0.5622567E-011  0.3011842E+04  0.7818608E-02  0.8240358E-01
          2   -1    0    0  501    0  0.00000000000E+00  0.00000000000E+00  0.19260525425E+04  0.19260525425E+04  0.00000000000E+00 0.  1.
         -2   -1    0    0    0  501 -0.00000000000E+00 -0.00000000000E+00 -0.11774328365E+04  0.11774328365E+04  0.00000000000E+00 0. -1.
    9900016    2    1    2    0    0  0.12919991527E+03  0.19813472107E+03  0.47411673258E+03  0.22592876511E+04  0.21962795880E+04 0.  0.
         23    2    3    3    0    0  0.42772973427E+03  0.19622887141E+03  0.72991770776E+03  0.87562299014E+03  0.11170167951E+03 0.  0.
        -24    2    3    3    0    0  0.90893793351E+02  0.54924729226E+03  0.17094946520E+03  0.58783217669E+03  0.79929209762E+02 0.  0.
        -15    1    4    4    0    0  0.27053044598E+03  0.13527951516E+03  0.36793997433E+03  0.47630567301E+03  0.00000000000E+00 0.  1.
        -15    1    3    3    0    0 -0.38942361235E+03 -0.54734144260E+03 -0.42675044037E+03  0.79583248426E+03  0.00000000000E+00 0.  1.
         15    1    5    5    0    0  0.10493811952E+02  0.30547227063E+03  0.87908829305E+02  0.31804306388E+03  0.00000000000E+00 0. -1.
         15    1    4    4    0    0  0.15719928829E+03  0.60949356252E+02  0.36197773343E+03  0.39931731713E+03  0.00000000000E+00 0. -1.
        -16    1    5    5    0    0  0.80399981398E+02  0.24377502163E+03  0.83040635892E+02  0.26978911281E+03  0.00000000000E+00 0.  1.
         16    1    1    2    0    0  0.83170233758E+02 -0.44539426562E+03  0.21108404566E+03  0.49984979140E+03  0.00000000000E+00 0. -1.
    9900018    1    1    2    0    0 -0.21237014902E+03  0.24725954455E+03  0.63418927752E+02  0.34434793648E+03  0.91187600000E+02 0.  0.
<mgrwt>
<rscale>  0 0.30118416E+04</rscale>
<asrwt>0</asrwt>
<pdfrwt beam="1">  1        2 0.29631578E+00 0.30118416E+04</pdfrwt>
<pdfrwt beam="2">  1       -2 0.18114351E+00 0.30118416E+04</pdfrwt>
<totfact> 0.11185266E+00</totfact>
</mgrwt>
</event>
<event>
12    1  0.5622567E-011  0.3031328E+04  0.7818608E-02  0.8234841E-01
          1   -1    0    0  501    0  0.00000000000E+00  0.00000000000E+00  0.23757912396E+04  0.23757912396E+04  0.00000000000E+00 0. -1.
         -1   -1    0    0    0  501 -0.00000000000E+00 -0.00000000000E+00 -0.96693601209E+03  0.96693601209E+03  0.00000000000E+00 0.  1.
    9900016    2    1    2    0    0  0.19676696146E+03  0.24809371843E+03  0.56275356773E+03  0.22963182957E+04  0.22036602295E+04 0.  0.
         23    2    3    3    0    0 -0.10526958201E+02  0.21520664335E+03 -0.47838940899E+03  0.53495712885E+03  0.10439342360E+03 0.  0.
        -24    2    3    3    0    0 -0.12006704759E+03  0.17484584561E+03  0.13006346891E+04  0.13201656953E+04  0.78738192037E+02 0.  0.
        -15    1    3    3    0    0  0.32736096725E+03 -0.14195877053E+03 -0.25949171235E+03  0.44119547163E+03  0.00000000000E+00 0.  1.
        -15    1    4    4    0    0 -0.40398878779E+02  0.43402672677E+02 -0.17805051245E+03  0.18766418514E+03  0.00000000000E+00 0. -1.
         15    1    5    5    0    0 -0.93788737393E+02  0.17609142140E+03  0.11732999858E+04  0.11901417448E+04  0.00000000000E+00 0. -1.
         15    1    4    4    0    0  0.29871920578E+02  0.17180397067E+03 -0.30033889654E+03  0.34729294371E+03  0.00000000000E+00 0.  1.
        -16    1    5    5    0    0 -0.26278310197E+02 -0.12455757846E+01  0.12733470326E+03  0.13002395049E+03  0.00000000000E+00 0.  1.
         16    1    1    2    0    0 -0.15161419905E+03 -0.95239931723E+01  0.75711408941E+03  0.77220419332E+03  0.00000000000E+00 0. -1.
    9900018    1    1    2    0    0 -0.45152762408E+02 -0.23856972526E+03  0.88987570325E+02  0.27420476260E+03  0.91187600000E+02 0.  0.
<mgrwt>
<rscale>  0 0.30313285E+04</rscale>
<asrwt>0</asrwt>
<pdfrwt beam="1">  1        1 0.36550634E+00 0.30313285E+04</pdfrwt>
<pdfrwt beam="2">  1       -1 0.14875939E+00 0.30313285E+04</pdfrwt>
<totfact> 0.49982468E-01</totfact>
</mgrwt>
</event>
<event>
12    1  0.5622567E-011  0.3357152E+04  0.7818608E-02  0.8148503E-01
          1   -1    0    0  501    0  0.00000000000E+00  0.00000000000E+00  0.15028341722E+04  0.15028341722E+04  0.00000000000E+00 0. -1.
         -1   -1    0    0    0  501 -0.00000000000E+00 -0.00000000000E+00 -0.18748693031E+04  0.18748693031E+04  0.00000000000E+00 0.  1.
    9900016    2    1    2    0    0 -0.62315042016E+03 -0.39477839167E+03  0.17299554041E+03  0.23276299807E+04  0.22008560710E+04 0.  0.
         23    2    3    3    0    0 -0.40624810564E+03  0.40312259949E+03  0.38074154502E+03  0.69613865813E+03  0.10999797126E+03 0.  0.
         24    2    3    3    0    0  0.42392484199E+02 -0.41596295405E+02  0.53259241388E+03  0.54184387528E+03  0.80079531411E+02 0.  0.
        -15    1    5    5    0    0  0.43096672456E+02 -0.35667961059E+02  0.16542736877E+03  0.17463029795E+03  0.00000000000E+00 0.  1.
        -15    1    4    4    0    0 -0.22291432756E+02 -0.30572837726E+01  0.62677643414E+01  0.23356794049E+02  0.00000000000E+00 0.  1.
         15    1    4    4    0    0 -0.38395667288E+03  0.40617988326E+03  0.37447378067E+03  0.67278186408E+03  0.00000000000E+00 0. -1.
         15    1    3    3    0    0 -0.25929479872E+03 -0.75630469576E+03 -0.74033841848E+03  0.10896474473E+04  0.00000000000E+00 0. -1.
        -16    1    1    2    0    0  0.43825359015E+03  0.37563272784E+03 -0.60333597901E+03  0.83497332836E+03  0.00000000000E+00 0.  1.
         16    1    5    5    0    0 -0.70418825702E+00 -0.59283343465E+01  0.36716504511E+03  0.36721357734E+03  0.00000000000E+00 0. -1.
    9900018    1    1    2    0    0  0.18489683001E+03  0.19145663829E+02  0.58305307696E+02  0.21510016618E+03  0.91187600000E+02 0.  0.
<mgrwt>
<rscale>  0 0.33571522E+04</rscale>
<asrwt>0</asrwt>
<pdfrwt beam="1">  1        1 0.23120526E+00 0.33571522E+04</pdfrwt>
<pdfrwt beam="2">  1       -1 0.28844143E+00 0.33571522E+04</pdfrwt>
<totfact> 0.21097659E-01</totfact>
</mgrwt>
</event>
<event>
12    1  0.5622567E-011  0.4682327E+04  0.7818608E-02  0.7879472E-01
          1   -1    0    0  501    0  0.00000000000E+00  0.00000000000E+00  0.25211002025E+04  0.25211002025E+04  0.00000000000E+00 0. -1.
         -1   -1    0    0    0  501 -0.00000000000E+00 -0.00000000000E+00 -0.21740694608E+04  0.21740694608E+04  0.00000000000E+00 0.  1.
    9900016    2    1    2    0    0 -0.20525494770E+03  0.21425008058E+03  0.93987563102E+03  0.24099523011E+04  0.21991978540E+04 0.  0.
         23    2    3    3    0    0 -0.10249442596E+03 -0.25675594913E+03 -0.42976964275E+03  0.51591289452E+03  0.70960863407E+02 0.  0.
         24    2    3    3    0    0 -0.24125838085E+03 -0.19817088738E+03 -0.43408623145E+02  0.32442138968E+03  0.76730845051E+02 0.  0.
        -15    1    5    5    0    0 -0.23879800501E+02 -0.53876895423E+02  0.46762890198E+01  0.59117107603E+02  0.00000000000E+00 0.  1.
        -15    1    4    4    0    0 -0.62926597982E+02 -0.21017828280E+03 -0.29236564916E+03  0.36553021777E+03  0.00000000000E+00 0.  1.
         15    1    3    3    0    0  0.13849785911E+03  0.66917691709E+03  0.14130538969E+04  0.15696180169E+04  0.00000000000E+00 0. -1.
         15    1    4    4    0    0 -0.39567827974E+02 -0.46577666326E+02 -0.13740399359E+03  0.15038267674E+03  0.00000000000E+00 0. -1.
        -16    1    1    2    0    0 -0.42396724842E+01 -0.33627058398E+03 -0.13988020422E+04  0.14386601523E+04  0.00000000000E+00 0.  1.
         16    1    5    5    0    0 -0.21737858035E+03 -0.14429399196E+03 -0.48084912165E+02  0.26530428208E+03  0.00000000000E+00 0. -1.
    9900018    1    1    2    0    0  0.20949462018E+03  0.12202050340E+03  0.80595715281E+03  0.84655720994E+03  0.91187600000E+02 0.  0.
<mgrwt>
<rscale>  0 0.46823272E+04</rscale>
<asrwt>0</asrwt>
<pdfrwt beam="1">  1        1 0.38786157E+00 0.46823272E+04</pdfrwt>
<pdfrwt beam="2">  1       -1 0.33447223E+00 0.46823272E+04</pdfrwt>
<totfact> 0.19081326E-02</totfact>
</mgrwt>
</event>
<event>
11    1  0.5622567E-011  0.3073796E+04  0.7818608E-02  0.8222966E-01
          2   -1    0    0  501    0  0.00000000000E+00  0.00000000000E+00  0.16946225751E+04  0.16946225751E+04  0.00000000000E+00 0. -1.
         -2   -1    0    0    0  501 -0.00000000000E+00 -0.00000000000E+00 -0.13938530427E+04  0.13938530427E+04  0.00000000000E+00 0.  1.
    9900016    2    1    2    0    0  0.18256668434E+02 -0.44192834628E+02  0.38060991787E+03  0.22371620452E+04  0.22040289912E+04 0.  0.
         24    2    3    3    0    0  0.83500562799E+02 -0.38822462407E+03  0.43186616125E+03  0.59195086354E+03  0.78782871812E+02 0.  0.
        -15    1    4    4    0    0  0.29056900163E+02 -0.23974626126E+03  0.21356490058E+03  0.32238570067E+03  0.00000000000E+00 0.  1.
        -15    1    3    3    0    0  0.24226031663E+03 -0.53120988705E+02 -0.18051039688E+03  0.30675055638E+03  0.00000000000E+00 0. -1.
         15    1    3    3    0    0  0.42046788399E+03  0.13177453259E+03 -0.21536012555E+03  0.49044648290E+03  0.00000000000E+00 0.  1.
         15    1    3    3    0    0 -0.72797209499E+03  0.26537824556E+03  0.34461427906E+03  0.84801414235E+03  0.00000000000E+00 0. -1.
        -16    1    1    2    0    0 -0.23366125099E+03 -0.30660993850E+03 -0.16807694860E+03  0.42054380896E+03  0.00000000000E+00 0.  1.
         16    1    4    4    0    0  0.54443662636E+02 -0.14847836281E+03  0.21830126067E+03  0.26956516287E+03  0.00000000000E+00 0. -1.
    9900018    1    1    2    0    0  0.21540458256E+03  0.35080277313E+03  0.88236563091E+02  0.43076976365E+03  0.91187600000E+02 0.  0.
<mgrwt>
<rscale>  0 0.30737956E+04</rscale>
<asrwt>0</asrwt>
<pdfrwt beam="1">  1        2 0.26071117E+00 0.30737956E+04</pdfrwt>
<pdfrwt beam="2">  1       -2 0.21443893E+00 0.30737956E+04</pdfrwt>
<totfact> 0.90104710E-01</totfact>
</mgrwt>
</event>
<event>
12    1  0.5622567E-011  0.3363008E+04  0.7818608E-02  0.8147045E-01
         -2   -1    0    0    0  501 -0.00000000000E+00  0.00000000000E+00  0.10919562451E+04  0.10919562451E+04  0.00000000000E+00 0.  1.
          2   -1    0    0  501    0  0.00000000000E+00 -0.00000000000E+00 -0.25893496408E+04  0.25893496408E+04  0.00000000000E+00 0. -1.
    9900016    2    1    2    0    0  0.36511915059E+03 -0.25479443467E+03 -0.13075990765E+04  0.25942898876E+04  0.21959718755E+04 0.  0.
         23    2    3    3    0    0 -0.18506682444E+02  0.43956090335E+03  0.11905586719E+03  0.46816950772E+03  0.10701450087E+03 0.  0.
         24    2    3    3    0    0  0.31947506488E+03  0.68388754825E+02  0.15422183111E+03  0.36968499845E+03  0.78366357739E+02 0.  0.
        -15    1    4    4    0    0 -0.40013871239E+02  0.41849662404E+03  0.98720413731E+02  0.43184054269E+03  0.00000000000E+00 0. -1.
        -15    1    5    5    0    0  0.30854378284E+03  0.50062086156E+02  0.13334779151E+03  0.33983394754E+03  0.00000000000E+00 0.  1.
         15    1    3    3    0    0  0.64150768154E+02 -0.76274409284E+03 -0.15808767748E+04  0.17564353814E+04  0.00000000000E+00 0. -1.
         15    1    4    4    0    0  0.21507188795E+02  0.21064279310E+02  0.20335453456E+02  0.36328965028E+02  0.00000000000E+00 0.  1.
        -16    1    1    2    0    0 -0.46744696953E+03  0.49448167701E+03  0.98826268527E+02  0.68759394236E+03  0.00000000000E+00 0.  1.
         16    1    5    5    0    0  0.10931282040E+02  0.18326668669E+02  0.20874039602E+02  0.29851050917E+02  0.00000000000E+00 0. -1.
    9900018    1    1    2    0    0  0.10232781894E+03 -0.23968724235E+03 -0.28862058775E+03  0.39942205590E+03  0.91187600000E+02 0.  0.
<mgrwt>
<rscale>  0 0.33630085E+04</rscale>
<asrwt>0</asrwt>
<pdfrwt beam="1">  1        2 0.39836148E+00 0.33630085E+04</pdfrwt>
<pdfrwt beam="2">  1       -2 0.16799327E+00 0.33630085E+04</pdfrwt>
<totfact> 0.56500173E-01</totfact>
</mgrwt>
</event>
<event>
11    1  0.5622567E-011  0.4646283E+04  0.7818608E-02  0.7885516E-01
         -2   -1    0    0    0  501 -0.00000000000E+00  0.00000000000E+00  0.15465090395E+04  0.15465090395E+04  0.00000000000E+00 0.  1.
          2   -1    0    0  501    0  0.00000000000E+00 -0.00000000000E+00 -0.34897861854E+04  0.34897861854E+04  0.00000000000E+00 0. -1.
    9900016    2    1    2    0    0  0.12066448717E+03  0.48636472415E+03  0.16296281333E+03  0.22579764110E+04  0.21956297572E+04 0.  0.
        -24    2    3    3    0    0 -0.23606884436E+03 -0.46534982275E+02  0.49870197716E+03  0.55980526989E+03  0.82366706382E+02 0.  0.
        -15    1    3    3    0    0 -0.61978232116E+02 -0.20756289889E+03 -0.72096879251E+03  0.75280784934E+03  0.00000000000E+00 0.  1.
        -15    1    3    3    0    0  0.12069240175E+02  0.20575139629E+02  0.45726851371E+02  0.51574682408E+02  0.00000000000E+00 0.  1.
         15    1    3    3    0    0  0.40664232347E+03  0.71988746569E+03  0.33950277731E+03  0.89378860940E+03  0.00000000000E+00 0. -1.
         15    1    4    4    0    0 -0.21236160942E+03 -0.12510519177E+02  0.41082487661E+03  0.46263489437E+03  0.00000000000E+00 0. -1.
        -16    1    4    4    0    0 -0.23707234932E+02 -0.34024463098E+02  0.87877100553E+02  0.97170375521E+02  0.00000000000E+00 0.  1.
         16    1    1    2    0    0 -0.41326698648E+03 -0.34064739331E+03 -0.23174970326E+04  0.23785757807E+04  0.00000000000E+00 0. -1.
    9900018    1    1    2    0    0  0.29260249931E+03 -0.14571733084E+03  0.21125707330E+03  0.39974303312E+03  0.91187600000E+02 0.  0.
<mgrwt>
<rscale>  0 0.46462828E+04</rscale>
<asrwt>0</asrwt>
<pdfrwt beam="1">  1        2 0.53689019E+00 0.46462828E+04</pdfrwt>
<pdfrwt beam="2">  1       -2 0.23792447E+00 0.46462828E+04</pdfrwt>
<totfact> 0.47132767E-02</totfact>
</mgrwt>
</event>
<event>
11    1  0.5622567E-011  0.3659324E+04  0.7818608E-02  0.8077036E-01
          2   -1    0    0  501    0  0.00000000000E+00  0.00000000000E+00  0.23502288280E+04  0.23502288280E+04  0.00000000000E+00 0. -1.
         -2   -1    0    0    0  501 -0.00000000000E+00 -0.00000000000E+00 -0.14243983991E+04  0.14243983991E+04  0.00000000000E+00 0.  1.
    9900016    2    1    2    0    0  0.36529042672E+03  0.48982708326E+03  0.48427677363E+02  0.22853173123E+04  0.22015817747E+04 0.  0.
        -24    2    3    3    0    0  0.47413754740E+03 -0.14155765873E+02 -0.39640291051E+03  0.62325394103E+03  0.79394004747E+02 0.  0.
        -15    1    3    3    0    0  0.57956788673E+03  0.23115427258E+03 -0.21234244871E+03  0.65910587054E+03  0.00000000000E+00 0.  1.
        -15    1    3    3    0    0 -0.19047166556E+03  0.34110758676E+02  0.25361321985E+03  0.31900260895E+03  0.00000000000E+00 0. -1.
         15    1    3    3    0    0 -0.49794334185E+03  0.23871781787E+03  0.40355981674E+03  0.68395489175E+03  0.00000000000E+00 0.  1.
         15    1    4    4    0    0  0.18704845438E+03  0.15733114801E+02 -0.19903252289E+03  0.27358472244E+03  0.00000000000E+00 0. -1.
        -16    1    4    4    0    0  0.28708909302E+03 -0.29888880674E+02 -0.19737038763E+03  0.34966921859E+03  0.00000000000E+00 0.  1.
         16    1    1    2    0    0 -0.22578910967E+03 -0.32228932984E+03  0.10977830016E+04  0.11661812264E+04  0.00000000000E+00 0. -1.
    9900018    1    1    2    0    0 -0.13950131705E+03 -0.16753775342E+03 -0.22038025006E+03  0.32312868843E+03  0.91187600000E+02 0.  0.
<mgrwt>
<rscale>  0 0.36593235E+04</rscale>
<asrwt>0</asrwt>
<pdfrwt beam="1">  1        2 0.36157366E+00 0.36593235E+04</pdfrwt>
<pdfrwt beam="2">  1       -2 0.21913822E+00 0.36593235E+04</pdfrwt>
<totfact> 0.34459658E-01</totfact>
</mgrwt>
</event>
<event>
12    1  0.5622567E-011  0.3100400E+04  0.7818608E-02  0.8215628E-01
          2   -1    0    0  501    0  0.00000000000E+00  0.00000000000E+00  0.14110483822E+04  0.14110483822E+04  0.00000000000E+00 0. -1.
         -2   -1    0    0    0  501 -0.00000000000E+00 -0.00000000000E+00 -0.17030743788E+04  0.17030743788E+04  0.00000000000E+00 0.  1.
    9900016    2    1    2    0    0  0.14627882635E+03 -0.40578578366E+02 -0.32767068917E+03  0.22264852047E+04  0.21970034524E+04 0.  0.
         23    2    3    3    0    0 -0.52161529255E+02  0.29361250823E+03 -0.58154629421E+03  0.66192164064E+03  0.10495254125E+03 0.  0.
         24    2    3    3    0    0 -0.11412308847E+03  0.56698699661E+03  0.16602850536E+03  0.60668311370E+03  0.77463554113E+02 0.  0.
        -15    1    4    4    0    0 -0.57884589302E+02  0.15740006860E+03 -0.22828283416E+03  0.28326393990E+03  0.00000000000E+00 0.  1.
        -15    1    5    5    0    0 -0.12377492666E+03  0.50148925701E+03  0.13702664635E+03  0.53440434988E+03  0.00000000000E+00 0.  1.
         15    1    4    4    0    0  0.57230600472E+01  0.13621243963E+03 -0.35326346005E+03  0.37865770074E+03  0.00000000000E+00 0. -1.
         15    1    3    3    0    0  0.31256344407E+03 -0.90117808320E+03  0.87847099685E+02  0.95788045033E+03  0.00000000000E+00 0. -1.
        -16    1    1    2    0    0 -0.40707727889E+03 -0.24030378915E+02 -0.25540851807E+03  0.48116824626E+03  0.00000000000E+00 0.  1.
         16    1    5    5    0    0  0.96518381920E+01  0.65497739598E+02  0.29001859012E+02  0.72278763819E+02  0.00000000000E+00 0. -1.
    9900018    1    1    2    0    0  0.26079845254E+03  0.64608957281E+02  0.29105321063E+03  0.40646931006E+03  0.91187600000E+02 0.  0.
<mgrwt>
<rscale>  0 0.31004002E+04</rscale>
<asrwt>0</asrwt>
<pdfrwt beam="1">  1        2 0.21708437E+00 0.31004002E+04</pdfrwt>
<pdfrwt beam="2">  1       -2 0.26201144E+00 0.31004002E+04</pdfrwt>
<totfact> 0.65665115E-01</totfact>
</mgrwt>
</event>
<event>
12    1  0.5622567E-011  0.3112205E+04  0.7818608E-02  0.8212396E-01
          2   -1    0    0  501    0  0.00000000000E+00  0.00000000000E+00  0.28967831792E+04  0.28967831792E+04  0.00000000000E+00 0. -1.
         -2   -1    0    0    0  501 -0.00000000000E+00 -0.00000000000E+00 -0.83591167952E+03  0.83591167952E+03  0.00000000000E+00 0.  1.
    9900016    2    1    2    0    0  0.16644208384E+03 -0.14003565540E+03  0.21763978749E+04  0.30960123915E+04  0.21911805189E+04 0.  0.
         23    2    3    3    0    0 -0.57729007334E+03  0.62506210728E+02  0.11869504371E+03  0.60321219421E+03  0.11227458613E+03 0.  0.
         24    2    3    3    0    0 -0.10054483807E+03 -0.13304758757E+03  0.14212174344E+04  0.14332027456E+04  0.80001181254E+02 0.  0.
        -15    1    5    5    0    0 -0.65819242044E+02 -0.11074280252E+03  0.77201901901E+03  0.78269375023E+03  0.00000000000E+00 0.  1.
        -15    1    4    4    0    0 -0.11103846443E+03 -0.13318340376E+02 -0.13603339558E+02  0.11265864201E+03  0.00000000000E+00 0.  1.
         15    1    4    4    0    0 -0.46625160891E+03  0.75824551103E+02  0.13229838327E+03  0.49055355220E+03  0.00000000000E+00 0. -1.
         15    1    3    3    0    0  0.84427699524E+03 -0.69494278550E+02  0.63648539680E+03  0.10595974518E+04  0.00000000000E+00 0. -1.
        -16    1    1    2    0    0 -0.23203615761E+03  0.11851257905E+03 -0.31374996706E+03  0.40782968463E+03  0.00000000000E+00 0.  1.
         16    1    5    5    0    0 -0.34725596025E+02 -0.22304785051E+02  0.64919841540E+03  0.65050899534E+03  0.00000000000E+00 0. -1.
    9900018    1    1    2    0    0  0.65594073776E+02  0.21523076348E+02  0.19822359178E+03  0.22885278251E+03  0.91187600000E+02 0.  0.
<mgrwt>
<rscale>  0 0.31122049E+04</rscale>
<asrwt>0</asrwt>
<pdfrwt beam="1">  1        2 0.44565895E+00 0.31122049E+04</pdfrwt>
<pdfrwt beam="2">  1       -2 0.12860180E+00 0.31122049E+04</pdfrwt>
<totfact> 0.76363738E-01</totfact>
</mgrwt>
</event>
<event>
12    1  0.5622567E-011  0.3909106E+04  0.7818608E-02  0.8023138E-01
         -1   -1    0    0    0  501 -0.00000000000E+00  0.00000000000E+00  0.19243261659E+04  0.19243261659E+04  0.00000000000E+00 0.  1.
          1   -1    0    0  501    0  0.00000000000E+00 -0.00000000000E+00 -0.19852548497E+04  0.19852548497E+04  0.00000000000E+00 0. -1.
    9900016    2    1    2    0    0  0.47943677638E+03 -0.37962769072E+03 -0.64256066987E+03  0.23713780085E+04  0.21992209163E+04 0.  0.
         23    2    3    3    0    0 -0.13155465063E+03  0.33733370472E+03 -0.11309055434E+04  0.11897270333E+04  0.73501097117E+02 0.  0.
         24    2    3    3    0    0 -0.37661583162E+02 -0.65864804037E+01 -0.25277945443E+02  0.91150334284E+02  0.78788529266E+02 0.  0.
        -15    1    5    5    0    0 -0.12633844317E+02  0.58371154136E+01  0.27843830872E+02  0.31128200337E+02  0.00000000000E+00 0.  1.
        -15    1    4    4    0    0 -0.39313950230E+02  0.18044030322E+03 -0.49654802182E+03  0.52977752660E+03  0.00000000000E+00 0.  1.
         15    1    4    4    0    0 -0.92240700397E+02  0.15689340149E+03 -0.63435752161E+03  0.65994950675E+03  0.00000000000E+00 0. -1.
         15    1    3    3    0    0  0.64865301017E+03 -0.71037491504E+03  0.51362281901E+03  0.10905006409E+04  0.00000000000E+00 0. -1.
        -16    1    1    2    0    0 -0.87049323460E+03  0.49991424682E+03  0.43631873544E+03  0.10945532260E+04  0.00000000000E+00 0.  1.
         16    1    5    5    0    0 -0.25027738845E+02 -0.12423595817E+02 -0.53121776315E+02  0.60022133948E+02  0.00000000000E+00 0. -1.
    9900018    1    1    2    0    0  0.39105645822E+03 -0.12028655610E+03  0.14531325054E+03  0.44364978110E+03  0.91187600000E+02 0.  0.
<mgrwt>
<rscale>  0 0.39091062E+04</rscale>
<asrwt>0</asrwt>
<pdfrwt beam="1">  1        1 0.30542382E+00 0.39091062E+04</pdfrwt>
<pdfrwt beam="2">  1       -1 0.29605018E+00 0.39091062E+04</pdfrwt>
<totfact> 0.84228464E-02</totfact>
</mgrwt>
</event>
<event>
11    1  0.5622567E-011  0.4515486E+04  0.7818608E-02  0.7907931E-01
         -1   -1    0    0    0  501 -0.00000000000E+00  0.00000000000E+00  0.17599675581E+04  0.17599675581E+04  0.00000000000E+00 0.  1.
          1   -1    0    0  501    0  0.00000000000E+00 -0.00000000000E+00 -0.28963051657E+04  0.28963051657E+04  0.00000000000E+00 0. -1.
    9900016    2    1    2    0    0 -0.10681595131E+04  0.72135662360E+02 -0.23507154493E+03  0.24503991293E+04  0.21915813839E+04 0.  0.
         24    2    3    3    0    0 -0.67276651738E+03  0.73763569121E+03 -0.57488111796E+03  0.11543902911E+04  0.73535327978E+02 0.  0.
        -15    1    3    3    0    0 -0.14194852130E+02 -0.12225867032E+03  0.40619591707E+03  0.42443350403E+03  0.00000000000E+00 0.  1.
        -15    1    4    4    0    0 -0.41058127628E+03  0.39906746625E+03 -0.34241008707E+03  0.66714053600E+03  0.00000000000E+00 0.  1.
         15    1    3    3    0    0 -0.17562934661E+03 -0.21529815880E+03 -0.30839327451E+03  0.41509682766E+03  0.00000000000E+00 0. -1.
         15    1    3    3    0    0 -0.20556879693E+03 -0.32794319973E+03  0.24200693046E+03  0.45647850652E+03  0.00000000000E+00 0. -1.
        -16    1    1    2    0    0  0.13447911515E+04 -0.54694752246E+03 -0.71688974172E+03  0.16191188145E+04  0.00000000000E+00 0.  1.
         16    1    4    4    0    0 -0.26218524110E+03  0.33856822497E+03 -0.23247103088E+03  0.48724975506E+03  0.00000000000E+00 0. -1.
    9900018    1    1    2    0    0 -0.27663163847E+03  0.47481186010E+03 -0.18437632096E+03  0.58675478014E+03  0.91187600000E+02 0.  0.
<mgrwt>
<rscale>  0 0.45154859E+04</rscale>
<asrwt>0</asrwt>
<pdfrwt beam="1">  1        1 0.44558541E+00 0.45154859E+04</pdfrwt>
<pdfrwt beam="2">  1       -1 0.27076424E+00 0.45154859E+04</pdfrwt>
<totfact> 0.27247581E-02</totfact>
</mgrwt>
</event>
<event>
11    1  0.5622567E-011  0.3205817E+04  0.7818608E-02  0.8187282E-01
          2   -1    0    0  501    0  0.00000000000E+00  0.00000000000E+00  0.17719808176E+04  0.17719808176E+04  0.00000000000E+00 0. -1.
         -2   -1    0    0    0  501 -0.00000000000E+00 -0.00000000000E+00 -0.14499685113E+04  0.14499685113E+04  0.00000000000E+00 0.  1.
    9900016    2    1    2    0    0  0.30135784561E+03  0.29258388647E+03 -0.15146362770E+03  0.22472519668E+04  0.22024482491E+04 0.  0.
        -24    2    3    3    0    0  0.12313739663E+03  0.86432086868E+03 -0.34934554629E+03  0.94370300949E+03  0.79496395686E+02 0.  0.
        -15    1    3    3    0    0 -0.18012636856E+03 -0.80528577911E+02  0.97232951527E+02  0.21996501398E+03  0.00000000000E+00 0.  1.
        -15    1    3    3    0    0  0.54785976682E+03 -0.50366904307E+03 -0.15987812192E+03  0.76117924493E+03  0.00000000000E+00 0.  1.
         15    1    4    4    0    0  0.30380940538E+02  0.47614058411E+03 -0.20514035040E+03  0.51934133357E+03  0.00000000000E+00 0. -1.
         15    1    3    3    0    0 -0.18951294927E+03  0.12460638765E+02  0.26052708898E+03  0.32240469841E+03  0.00000000000E+00 0. -1.
        -16    1    4    4    0    0  0.92756456092E+02  0.38818028457E+03 -0.14420519589E+03  0.42436167593E+03  0.00000000000E+00 0.  1.
         16    1    1    2    0    0 -0.23968650720E+03 -0.29905244256E+02  0.61203037087E+03  0.65797045545E+03  0.00000000000E+00 0. -1.
    9900018    1    1    2    0    0 -0.61671338413E+02 -0.26267864221E+03 -0.13855443688E+03  0.31672690670E+03  0.91187600000E+02 0.  0.
<mgrwt>
<rscale>  0 0.32058175E+04</rscale>
<asrwt>0</asrwt>
<pdfrwt beam="1">  1        2 0.27261243E+00 0.32058175E+04</pdfrwt>
<pdfrwt beam="2">  1       -2 0.22307208E+00 0.32058175E+04</pdfrwt>
<totfact> 0.71148070E-01</totfact>
</mgrwt>
</event>
<event>
12    1  0.5622567E-011  0.2961838E+04  0.7818608E-02  0.8254713E-01
         -2   -1    0    0    0  501 -0.00000000000E+00  0.00000000000E+00  0.10556640307E+04  0.10556640307E+04  0.00000000000E+00 0. -1.
          2   -1    0    0  501    0  0.00000000000E+00 -0.00000000000E+00 -0.20774796690E+04  0.20774796690E+04  0.00000000000E+00 0.  1.
    9900016    2    1    2    0    0  0.53248401792E+02  0.29359717250E+03 -0.58348477224E+03  0.22908250571E+04  0.21950832036E+04 0.  0.
         23    2    3    3    0    0 -0.13474035148E+03 -0.49262871363E+03 -0.94071102080E+02  0.53480504168E+03  0.12778516561E+03 0.  0.
         24    2    3    3    0    0  0.82338998199E+03  0.38263659558E+03 -0.12602723483E+03  0.92015594852E+03  0.80139122513E+02 0.  0.
        -15    1    5    5    0    0  0.40391006234E+03  0.23064968589E+03 -0.54862163440E+02  0.46835080125E+03  0.00000000000E+00 0.  1.
        -15    1    4    4    0    0 -0.33306538035E+02 -0.11997705593E+03 -0.80670192715E+02  0.14836272920E+03  0.00000000000E+00 0. -1.
         15    1    4    4    0    0 -0.10143381344E+03 -0.37265165771E+03 -0.13400909365E+02  0.38644231248E+03  0.00000000000E+00 0.  1.
         15    1    3    3    0    0 -0.63540122872E+03  0.40358929055E+03 -0.36338643534E+03  0.83586406688E+03  0.00000000000E+00 0. -1.
        -16    1    1    2    0    0 -0.96570008531E+02 -0.48431015080E+03 -0.36617206720E+03  0.61478782642E+03  0.00000000000E+00 0.  1.
         16    1    5    5    0    0  0.41947991966E+03  0.15198690969E+03 -0.71165071388E+02  0.45180514727E+03  0.00000000000E+00 0. -1.
    9900018    1    1    2    0    0  0.43321606739E+02  0.19071297830E+03 -0.72158798835E+02  0.22753081626E+03  0.91187600000E+02 0.  0.
<mgrwt>
<rscale>  0 0.29618376E+04</rscale>
<asrwt>0</asrwt>
<pdfrwt beam="1">  1        2 0.31961226E+00 0.29618376E+04</pdfrwt>
<pdfrwt beam="2">  1       -2 0.16240985E+00 0.29618376E+04</pdfrwt>
<totfact> 0.12560003E+00</totfact>
</mgrwt>
</event>
<event>
11    1  0.5622567E-011  0.2740296E+04  0.7818608E-02  0.8322048E-01
         -2   -1    0    0    0  501 -0.00000000000E+00  0.00000000000E+00  0.91515254730E+03  0.91515254730E+03  0.00000000000E+00 0. -1.
          2   -1    0    0  501    0  0.00000000000E+00 -0.00000000000E+00 -0.20513579866E+04  0.20513579866E+04  0.00000000000E+00 0.  1.
    9900016    2    1    2    0    0 -0.18301319836E+03  0.28160231468E+03 -0.99784715240E+03  0.24392356088E+04  0.22003130962E+04 0.  0.
         24    2    3    3    0    0 -0.25965274192E+02 -0.39598124724E+02 -0.10037500383E+04  0.10087824822E+04  0.88801745614E+02 0.  0.
        -15    1    3    3    0    0 -0.19128900371E+02  0.18030668113E+02 -0.15031407273E+02  0.30281397369E+02  0.00000000000E+00 0.  1.
        -15    1    4    4    0    0 -0.41303489931E+02 -0.12048011889E+02 -0.20776365033E+03  0.21217178717E+03  0.00000000000E+00 0.  1.
         15    1    3    3    0    0  0.12744339228E+03  0.70462959946E+03 -0.34574069463E+03  0.79516119032E+03  0.00000000000E+00 0. -1.
         15    1    3    3    0    0 -0.26536241608E+03 -0.40145982816E+03  0.36667498782E+03  0.60501053891E+03  0.00000000000E+00 0. -1.
        -16    1    1    2    0    0  0.45609128350E+02 -0.12047778527E+03 -0.24226541242E+03  0.27438589502E+03  0.00000000000E+00 0.  1.
         16    1    4    4    0    0  0.15338215739E+02 -0.27550112836E+02 -0.79598638799E+03  0.79661069504E+03  0.00000000000E+00 0. -1.
    9900018    1    1    2    0    0  0.13740407001E+03 -0.16112452941E+03  0.10390712549E+03  0.25288903012E+03  0.91187600000E+02 0.  0.
<mgrwt>
<rscale>  0 0.27402960E+04</rscale>
<asrwt>0</asrwt>
<pdfrwt beam="1">  1        2 0.31559354E+00 0.27402960E+04</pdfrwt>
<pdfrwt beam="2">  1       -2 0.14079270E+00 0.27402960E+04</pdfrwt>
<totfact> 0.19358692E+00</totfact>
</mgrwt>
</event>
<event>
12    1  0.5622567E-011  0.2731952E+04  0.7818608E-02  0.8324712E-01
          1   -1    0    0  501    0  0.00000000000E+00  0.00000000000E+00  0.24690778795E+04  0.24690778795E+04  0.00000000000E+00 0. -1.
         -1   -1    0    0    0  501 -0.00000000000E+00 -0.00000000000E+00 -0.75570308125E+03  0.75570308125E+03  0.00000000000E+00 0.  1.
    9900016    2    1    2    0    0 -0.11242717999E+03 -0.37662008853E+03  0.12863849412E+04  0.25714542284E+04  0.21915994319E+04 0.  0.
         23    2    3    3    0    0  0.48882806968E+03 -0.35234967665E+03  0.99382942595E+03  0.11678844804E+04  0.11469112999E+03 0.  0.
         24    2    3    3    0    0  0.37375908629E+03  0.81893639317E+02  0.58779245134E+02  0.39531625534E+03  0.80109421019E+02 0.  0.
        -15    1    4    4    0    0  0.11385246560E+03 -0.12170463906E+03  0.35358624407E+03  0.39089338071E+03  0.00000000000E+00 0.  1.
        -15    1    5    5    0    0  0.46384148338E+02  0.38290220755E+02  0.16398868012E+02  0.62342225615E+02  0.00000000000E+00 0.  1.
         15    1    4    4    0    0  0.37497560408E+03 -0.23064503759E+03  0.64024318188E+03  0.77699109967E+03  0.00000000000E+00 0. -1.
         15    1    3    3    0    0 -0.97501433596E+03 -0.10616405120E+03  0.23377627012E+03  0.10082534927E+04  0.00000000000E+00 0. -1.
        -16    1    1    2    0    0  0.53101312526E+02  0.28863624161E+03  0.12210021378E+03  0.31786646814E+03  0.00000000000E+00 0.  1.
         16    1    5    5    0    0  0.32737493795E+03  0.43603418562E+02  0.42380377122E+02  0.33297402973E+03  0.00000000000E+00 0. -1.
    9900018    1    1    2    0    0  0.59325867467E+02  0.87983846921E+02  0.30488964324E+03  0.33546026414E+03  0.91187600000E+02 0.  0.
<mgrwt>
<rscale>  0 0.27319515E+04</rscale>
<asrwt>0</asrwt>
<pdfrwt beam="1">  1        1 0.37985813E+00 0.27319515E+04</pdfrwt>
<pdfrwt beam="2">  1       -1 0.11626201E+00 0.27319515E+04</pdfrwt>
<totfact> 0.82831236E-01</totfact>
</mgrwt>
</event>
<event>
12    1  0.5622567E-011  0.2734570E+04  0.7818608E-02  0.8323875E-01
         -2   -1    0    0    0  501 -0.00000000000E+00  0.00000000000E+00  0.53086795758E+03  0.53086795758E+03  0.00000000000E+00 0.  1.
          2   -1    0    0  501    0  0.00000000000E+00 -0.00000000000E+00 -0.35215321145E+04  0.35215321145E+04  0.00000000000E+00 0. -1.
    9900016    2    1    2    0    0  0.33325306259E+02 -0.28240413847E+03 -0.26572839540E+04  0.34603788518E+04  0.21982268109E+04 0.  0.
         23    2    3    3    0    0  0.10351252319E+04 -0.13421520896E+03 -0.90641242030E+03  0.13874371545E+04  0.11790001700E+03 0.  0.
         24    2    3    3    0    0 -0.85517116760E+03  0.76513397824E+01 -0.11521874368E+04  0.14371674999E+04  0.80859534168E+02 0.  0.
        -15    1    5    5    0    0 -0.44106874824E+03 -0.10059286281E+02 -0.53051403639E+03  0.68999128453E+03  0.00000000000E+00 0.  1.
        -15    1    4    4    0    0  0.72387134880E+02 -0.59643267597E+01 -0.27857289352E+02  0.77791381655E+02  0.00000000000E+00 0.  1.
         15    1    4    4    0    0  0.96273809699E+03 -0.12825088220E+03 -0.87855513095E+03  0.13096457728E+04  0.00000000000E+00 0. -1.
         15    1    3    3    0    0 -0.14662875801E+03 -0.15584026929E+03 -0.59868409689E+03  0.63577419740E+03  0.00000000000E+00 0. -1.
        -16    1    1    2    0    0  0.96053558414E+02  0.56550815469E+02  0.48006353257E+02  0.12136264156E+03  0.00000000000E+00 0.  1.
         16    1    5    5    0    0 -0.41410241936E+03  0.17710626063E+02 -0.62167340046E+03  0.74717621538E+03  0.00000000000E+00 0. -1.
    9900018    1    1    2    0    0 -0.12937886467E+03  0.22585332300E+03 -0.38138655615E+03  0.47065857874E+03  0.91187600000E+02 0.  0.
<mgrwt>
<rscale>  0 0.27345702E+04</rscale>
<asrwt>0</asrwt>
<pdfrwt beam="1">  1        2 0.54177415E+00 0.27345702E+04</pdfrwt>
<pdfrwt beam="2">  1       -2 0.81671997E-01 0.27345702E+04</pdfrwt>
<totfact> 0.90625617E-01</totfact>
</mgrwt>
</event>
<event>
12    1  0.5622567E-011  0.3032517E+04  0.7818608E-02  0.8234506E-01
         -3   -1    0    0    0  501 -0.00000000000E+00  0.00000000000E+00  0.12203295746E+04  0.12203295746E+04  0.00000000000E+00 0.  1.
          3   -1    0    0  501    0  0.00000000000E+00 -0.00000000000E+00 -0.18839497790E+04  0.18839497790E+04  0.00000000000E+00 0. -1.
    9900016    2    1    2    0    0 -0.13416197205E+03  0.12289260854E+02 -0.11355209219E+04  0.24765353626E+04  0.21967405804E+04 0.  0.
         23    2    3    3    0    0  0.11818114518E+03  0.18149109310E+03  0.56159786679E+02  0.25020444461E+03  0.11199349317E+03 0.  0.
         24    2    3    3    0    0 -0.77030708249E+02 -0.80572383532E+03  0.55865400353E+02  0.81485438793E+03  0.75776657105E+02 0.  0.
        -15    1    4    4    0    0  0.10660472784E+03  0.66837095532E+02  0.10536289302E+02  0.12626471688E+03  0.00000000000E+00 0. -1.
        -15    1    5    5    0    0  0.11212791450E+02 -0.12342885021E+03  0.23285930717E+02  0.12610567919E+03  0.00000000000E+00 0.  1.
         15    1    3    3    0    0 -0.17531240899E+03  0.63652200308E+03 -0.12475461089E+04  0.14114765301E+04  0.00000000000E+00 0. -1.
         15    1    4    4    0    0  0.11576417341E+02  0.11465399757E+03  0.45623497378E+02  0.12393972773E+03  0.00000000000E+00 0.  1.
        -16    1    1    2    0    0  0.13097703359E+03  0.99865160613E+02  0.45289918066E+03  0.48191877062E+03  0.00000000000E+00 0.  1.
         16    1    5    5    0    0 -0.88243499699E+02 -0.68229498511E+03  0.32579469636E+02  0.68874870874E+03  0.00000000000E+00 0. -1.
    9900018    1    1    2    0    0  0.31849384632E+01 -0.11215442147E+03  0.19001536786E+02  0.14582522032E+03  0.91187600000E+02 0.  0.
<mgrwt>
<rscale>  0 0.30325169E+04</rscale>
<asrwt>0</asrwt>
<pdfrwt beam="1">  1        3 0.28983843E+00 0.30325169E+04</pdfrwt>
<pdfrwt beam="2">  1       -3 0.18774301E+00 0.30325169E+04</pdfrwt>
<totfact> 0.17120853E-02</totfact>
</mgrwt>
</event>
<event>
11    1  0.5622567E-011  0.3684368E+04  0.7818608E-02  0.8071435E-01
         -2   -1    0    0    0  501 -0.00000000000E+00  0.00000000000E+00  0.89349977890E+03  0.89349977890E+03  0.00000000000E+00 0.  1.
          2   -1    0    0  501    0  0.00000000000E+00 -0.00000000000E+00 -0.37981456548E+04  0.37981456548E+04  0.00000000000E+00 0. -1.
    9900016    2    1    2    0    0 -0.75885492975E+03  0.25601020927E+03 -0.13124766935E+04  0.26782376379E+04  0.21929340489E+04 0.  0.
        -24    2    3    3    0    0  0.12658719478E+03 -0.23695904211E+03 -0.62639007045E+03  0.68604549667E+03  0.78230413692E+02 0.  0.
        -15    1    3    3    0    0 -0.17608897571E+02 -0.82554397394E+02 -0.23976315068E+02  0.87750586818E+02  0.00000000000E+00 0.  1.
        -15    1    3    3    0    0 -0.87136351471E+03  0.77804610133E+03 -0.98181521514E+03  0.15259722236E+04  0.00000000000E+00 0.  1.
         15    1    3    3    0    0  0.35302877590E+01 -0.20252245256E+03  0.31970490717E+03  0.37846933084E+03  0.00000000000E+00 0. -1.
         15    1    4    4    0    0  0.39507175240E+02 -0.36662568503E+02 -0.70160203190E+02  0.88472679039E+02  0.00000000000E+00 0. -1.
        -16    1    4    4    0    0  0.87080019539E+02 -0.20029647361E+03 -0.55622986726E+03  0.59757281763E+03  0.00000000000E+00 0.  1.
         16    1    1    2    0    0  0.52682983254E+03  0.24323272430E+02 -0.15483532176E+04  0.16357074862E+04  0.00000000000E+00 0. -1.
    9900018    1    1    2    0    0  0.23202509721E+03 -0.28033348170E+03 -0.43815964882E+02  0.37770030960E+03  0.91187600000E+02 0.  0.
<mgrwt>
<rscale>  0 0.36843682E+04</rscale>
<asrwt>0</asrwt>
<pdfrwt beam="1">  1        2 0.58433011E+00 0.36843682E+04</pdfrwt>
<pdfrwt beam="2">  1       -2 0.13746150E+00 0.36843682E+04</pdfrwt>
<totfact> 0.14983040E-01</totfact>
</mgrwt>
</event>
<event>
11    1  0.5622567E-011  0.3366468E+04  0.7818608E-02  0.8146186E-01
          2   -1    0    0  501    0  0.00000000000E+00  0.00000000000E+00  0.16623907960E+04  0.16623907960E+04  0.00000000000E+00 0. -1.
         -2   -1    0    0    0  501 -0.00000000000E+00 -0.00000000000E+00 -0.17043383632E+04  0.17043383632E+04  0.00000000000E+00 0.  1.
    9900016    2    1    2    0    0  0.51149293254E+03  0.18527090996E+02 -0.30170758145E+03  0.22927626129E+04  0.22144445492E+04 0.  0.
        -24    2    3    3    0    0  0.49239802503E+02  0.31096429667E+03 -0.58116413295E+03  0.66565800844E+03  0.78901728908E+02 0.  0.
        -15    1    3    3    0    0 -0.20731737851E+03 -0.24830708290E+03 -0.34718469067E+03  0.47452514399E+03  0.00000000000E+00 0.  1.
        -15    1    3    3    0    0  0.55486500254E+03  0.34913804832E+02  0.77192942531E+03  0.95129868205E+03  0.00000000000E+00 0.  1.
         15    1    4    4    0    0  0.29686832104E+02  0.13640132439E+03 -0.33794525448E+03  0.36564138760E+03  0.00000000000E+00 0. -1.
         15    1    3    3    0    0  0.11470550601E+03 -0.79043927607E+02 -0.14528818315E+03  0.20128077842E+03  0.00000000000E+00 0. -1.
        -16    1    4    4    0    0  0.19552970399E+02  0.17456297228E+03 -0.24321887847E+03  0.30001662085E+03  0.00000000000E+00 0.  1.
         16    1    1    2    0    0 -0.23295127206E+03 -0.44335545375E+03  0.24522269853E+03  0.55764193296E+03  0.00000000000E+00 0. -1.
    9900018    1    1    2    0    0 -0.27854166048E+03  0.42482836275E+03  0.14537315724E+02  0.51632461336E+03  0.91187600000E+02 0.  0.
<mgrwt>
<rscale>  0 0.33664678E+04</rscale>
<asrwt>0</asrwt>
<pdfrwt beam="1">  1        2 0.25575243E+00 0.33664678E+04</pdfrwt>
<pdfrwt beam="2">  1       -2 0.26220590E+00 0.33664678E+04</pdfrwt>
<totfact> 0.46240654E-01</totfact>
</mgrwt>
</event>
<event>
12    1  0.5622567E-011  0.2597623E+04  0.7818608E-02  0.8369009E-01
          2   -1    0    0  501    0  0.00000000000E+00  0.00000000000E+00  0.23987693301E+04  0.23987693301E+04  0.00000000000E+00 0. -1.
         -2   -1    0    0    0  501 -0.00000000000E+00 -0.00000000000E+00 -0.70324050375E+03  0.70324050375E+03  0.00000000000E+00 0.  1.
    9900016    2    1    2    0    0  0.70753030090E+02  0.16922298625E+03  0.11948884148E+04  0.25159524158E+04  0.22064940118E+04 0.  0.
         23    2    3    3    0    0 -0.57241550537E+03  0.15949146369E+03  0.57307012945E+03  0.83521821474E+03  0.12681898589E+03 0.  0.
        -24    2    3    3    0    0 -0.10097835378E+03 -0.51707386776E+03  0.55051281963E+03  0.76620537075E+03  0.80276353555E+02 0.  0.
        -15    1    4    4    0    0 -0.28741715727E+03  0.14611382141E+02  0.26377218055E+03  0.39038170810E+03  0.00000000000E+00 0.  1.
        -15    1    3    3    0    0  0.74414688924E+03  0.52680539032E+03  0.71305465746E+02  0.91452883031E+03  0.00000000000E+00 0.  1.
         15    1    5    5    0    0 -0.10669154934E+02 -0.22167533404E+03  0.19703021735E+03  0.29677380467E+03  0.00000000000E+00 0. -1.
         15    1    4    4    0    0 -0.28499834810E+03  0.14488008155E+03  0.30929794890E+03  0.44483650664E+03  0.00000000000E+00 0. -1.
        -16    1    5    5    0    0 -0.90309198846E+02 -0.29539853371E+03  0.35348260228E+03  0.46943156608E+03  0.00000000000E+00 0.  1.
         16    1    1    2    0    0 -0.34764896815E+02 -0.17562464199E+03  0.42782134414E+03  0.46377118865E+03  0.00000000000E+00 0. -1.
    9900018    1    1    2    0    0 -0.35988133275E+02  0.64016557346E+01  0.72819067374E+02  0.12228622940E+03  0.91187600000E+02 0.  0.
<mgrwt>
<rscale>  0 0.25976233E+04</rscale>
<asrwt>0</asrwt>
<pdfrwt beam="1">  1        2 0.36904143E+00 0.25976233E+04</pdfrwt>
<pdfrwt beam="2">  1       -2 0.10819085E+00 0.25976233E+04</pdfrwt>
<totfact> 0.24089842E+00</totfact>
</mgrwt>
</event>
<event>
11    1  0.5622567E-011  0.2488990E+04  0.7818608E-02  0.8406918E-01
         -1   -1    0    0    0  501 -0.00000000000E+00  0.00000000000E+00  0.79212667335E+03  0.79212667335E+03  0.00000000000E+00 0.  1.
          1   -1    0    0  501    0  0.00000000000E+00 -0.00000000000E+00 -0.19552024049E+04  0.19552024049E+04  0.00000000000E+00 0. -1.
    9900016    2    1    2    0    0 -0.89172694242E+02  0.41240072733E+02 -0.10093706053E+04  0.24311854145E+04  0.22095657917E+04 0.  0.
         24    2    3    3    0    0  0.12577140912E+03 -0.74787119754E+02 -0.57372496646E+03  0.59820198077E+03  0.85286059970E+02 0.  0.
        -15    1    3    3    0    0 -0.55193858161E+02 -0.16673920213E+03  0.10618058713E+03  0.20523800961E+03  0.00000000000E+00 0.  1.
        -15    1    4    4    0    0  0.81114298356E+02 -0.70833191367E+02 -0.26197692060E+03  0.28324684875E+03  0.00000000000E+00 0.  1.
         15    1    3    3    0    0 -0.37152994195E+03 -0.31416376434E+03  0.30199649347E+03  0.57265631111E+03  0.00000000000E+00 0. -1.
         15    1    3    3    0    0  0.21177969675E+03  0.59693015896E+03 -0.84382271941E+03  0.10550891130E+04  0.00000000000E+00 0. -1.
        -16    1    1    2    0    0  0.74426934925E+02  0.71335505865E+01  0.48161683823E+02  0.88937078741E+02  0.00000000000E+00 0.  1.
         16    1    4    4    0    0  0.44657110762E+02 -0.39539283868E+01 -0.31174804586E+03  0.31495513203E+03  0.00000000000E+00 0. -1.
    9900018    1    1    2    0    0  0.14745759317E+02 -0.48373623319E+02 -0.20186681015E+03  0.22720658503E+03  0.91187600000E+02 0.  0.
<mgrwt>
<rscale>  0 0.24889901E+04</rscale>
<asrwt>0</asrwt>
<pdfrwt beam="1">  1        1 0.30080037E+00 0.24889901E+04</pdfrwt>
<pdfrwt beam="2">  1       -1 0.12186564E+00 0.24889901E+04</pdfrwt>
<totfact> 0.16937046E+00</totfact>
</mgrwt>
</event>
<event>
12    1  0.5622567E-011  0.4271890E+04  0.7818608E-02  0.7951836E-01
          2   -1    0    0  501    0  0.00000000000E+00  0.00000000000E+00  0.21383610156E+04  0.21383610156E+04  0.00000000000E+00 0.  1.
         -2   -1    0    0    0  501 -0.00000000000E+00 -0.00000000000E+00 -0.21335316257E+04  0.21335316257E+04  0.00000000000E+00 0. -1.
    9900016    2    1    2    0    0  0.95284906296E+03 -0.63987771527E+02 -0.51538127233E+03  0.24537042303E+04  0.22006887154E+04 0.  0.
         23    2    3    3    0    0 -0.29192235018E+03 -0.33140627804E+03  0.18439654903E+03  0.49363900920E+03  0.12094876789E+03 0.  0.
         24    2    3    3    0    0 -0.27227142124E+03  0.18857983007E+02 -0.18403514850E+03  0.33858694497E+03  0.79276939132E+02 0.  0.
        -15    1    5    5    0    0 -0.15077761440E+03 -0.64002477224E+01 -0.57886685859E+02  0.16163452780E+03  0.00000000000E+00 0.  1.
        -15    1    4    4    0    0 -0.17934402435E+03 -0.22224303790E+03  0.17837396014E+03  0.33670984040E+03  0.00000000000E+00 0.  1.
         15    1    3    3    0    0  0.15170428344E+04  0.24856052350E+03 -0.51574267286E+03  0.16214782761E+04  0.00000000000E+00 0. -1.
         15    1    4    4    0    0 -0.11257832583E+03 -0.10916324014E+03  0.60225888885E+01  0.15692916880E+03  0.00000000000E+00 0. -1.
        -16    1    1    2    0    0 -0.12680889042E+04  0.79504253259E+02  0.69269278118E+03  0.14471329187E+04  0.00000000000E+00 0.  1.
         16    1    5    5    0    0 -0.12149380683E+03  0.25258230729E+02 -0.12614846264E+03  0.17695241718E+03  0.00000000000E+00 0. -1.
    9900018    1    1    2    0    0  0.31523984120E+03 -0.15516481732E+02 -0.17248211900E+03  0.37105549242E+03  0.91187600000E+02 0.  0.
<mgrwt>
<rscale>  0 0.42718899E+04</rscale>
<asrwt>0</asrwt>
<pdfrwt beam="1">  1        2 0.32897862E+00 0.42718899E+04</pdfrwt>
<pdfrwt beam="2">  1       -2 0.32823563E+00 0.42718899E+04</pdfrwt>
<totfact> 0.91883552E-02</totfact>
</mgrwt>
</event>
<event>
12    1  0.5622567E-011  0.3237611E+04  0.7818608E-02  0.8178954E-01
         -1   -1    0    0    0  501 -0.00000000000E+00  0.00000000000E+00  0.36115254907E+04  0.36115254907E+04  0.00000000000E+00 0.  1.
          1   -1    0    0  501    0  0.00000000000E+00 -0.00000000000E+00 -0.72560225553E+03  0.72560225553E+03  0.00000000000E+00 0. -1.
    9900016    2    1    2    0    0  0.27631381567E+03 -0.13030239732E+03  0.15380828193E+04  0.26981207311E+04  0.21956385588E+04 0.  0.
         23    2    3    3    0    0  0.38766705247E+03  0.58632348960E+02 -0.13246793604E+03  0.42876975618E+03  0.11212606218E+03 0.  0.
        -24    2    3    3    0    0 -0.33780647629E+03 -0.57235294471E+03  0.15155008560E+03  0.68642532306E+03  0.80691926196E+02 0.  0.
        -15    1    3    3    0    0  0.22645323949E+03  0.38341819842E+03  0.15190006697E+04  0.15829256518E+04  0.00000000000E+00 0.  1.
        -15    1    4    4    0    0  0.35925945493E+03  0.61536959109E+02 -0.86436452868E+02  0.37460033859E+03  0.00000000000E+00 0.  1.
         15    1    5    5    0    0 -0.58286003653E+02 -0.50955160134E+02  0.25857556057E+02  0.81622912049E+02  0.00000000000E+00 0. -1.
         15    1    4    4    0    0  0.28407597543E+02 -0.29046101481E+01 -0.46031483174E+02  0.54169417585E+02  0.00000000000E+00 0. -1.
        -16    1    5    5    0    0 -0.27952047264E+03 -0.52139778457E+03  0.12569252955E+03  0.60480241101E+03  0.00000000000E+00 0.  1.
         16    1    1    2    0    0 -0.77100116776E+02  0.31219251790E+03  0.69057453306E+02  0.32890352400E+03  0.00000000000E+00 0. -1.
    9900018    1    1    2    0    0 -0.19921369889E+03 -0.18189012058E+03  0.12787829626E+04  0.13101034912E+04  0.91187600000E+02 0.  0.
<mgrwt>
<rscale>  0 0.32376109E+04</rscale>
<asrwt>0</asrwt>
<pdfrwt beam="1">  1        1 0.11163112E+00 0.32376109E+04</pdfrwt>
<pdfrwt beam="2">  1       -1 0.55561930E+00 0.32376109E+04</pdfrwt>
<totfact> 0.15006109E-02</totfact>
</mgrwt>
</event>
<event>
12    1  0.5622567E-011  0.3182241E+04  0.7818608E-02  0.8193523E-01
          2   -1    0    0  501    0  0.00000000000E+00  0.00000000000E+00  0.18505851133E+04  0.18505851133E+04  0.00000000000E+00 0. -1.
         -2   -1    0    0    0  501 -0.00000000000E+00 -0.00000000000E+00 -0.13680345670E+04  0.13680345670E+04  0.00000000000E+00 0.  1.
    9900016    2    1    2    0    0  0.10487689358E+03 -0.16219099716E+03  0.65286741861E+03  0.23078847608E+04  0.22051737166E+04 0.  0.
         23    2    3    3    0    0 -0.21793199496E+02  0.35077158122E+03  0.11630943955E+02  0.37060014952E+03  0.11701942674E+03 0.  0.
         24    2    3    3    0    0  0.32511527253E+03 -0.20005605243E+03  0.12028404613E+04  0.12644621822E+04  0.79479998208E+02 0.  0.
        -15    1    5    5    0    0  0.22591362644E+03 -0.16869067119E+03  0.95277010576E+03  0.99361178716E+03  0.00000000000E+00 0.  1.
        -15    1    4    4    0    0  0.17401413348E+02  0.26439868806E+03 -0.30680199643E+02  0.26674097939E+03  0.00000000000E+00 0.  1.
         15    1    3    3    0    0 -0.19844517946E+03 -0.31290652595E+03 -0.56160398668E+03  0.67282242909E+03  0.00000000000E+00 0. -1.
         15    1    4    4    0    0 -0.39194612845E+02  0.86372893153E+02  0.42311143598E+02  0.10385917013E+03  0.00000000000E+00 0. -1.
        -16    1    1    2    0    0 -0.22204766684E+03  0.49585171312E+02 -0.49026060719E+03  0.54048063658E+03  0.00000000000E+00 0.  1.
         16    1    5    5    0    0  0.99201646092E+02 -0.31365381243E+02  0.25007035558E+03  0.27085039499E+03  0.00000000000E+00 0. -1.
    9900018    1    1    2    0    0  0.11717077326E+03  0.11260582585E+03  0.31994373492E+03  0.37025428293E+03  0.91187600000E+02 0.  0.
<mgrwt>
<rscale>  0 0.31822410E+04</rscale>
<asrwt>0</asrwt>
<pdfrwt beam="1">  1        2 0.28470540E+00 0.31822410E+04</pdfrwt>
<pdfrwt beam="2">  1       -2 0.21046686E+00 0.31822410E+04</pdfrwt>
<totfact> 0.77575343E-01</totfact>
</mgrwt>
</event>
<event>
12    1  0.5622567E-011  0.5076356E+04  0.7818608E-02  0.7816835E-01
         -2   -1    0    0    0  501 -0.00000000000E+00  0.00000000000E+00  0.17016438970E+04  0.17016438970E+04  0.00000000000E+00 0.  1.
          2   -1    0    0  501    0  0.00000000000E+00 -0.00000000000E+00 -0.37859552432E+04  0.37859552432E+04  0.00000000000E+00 0. -1.
    9900016    2    1    2    0    0 -0.21102796684E+03 -0.23533576344E+03 -0.13809515683E+04  0.26099418883E+04  0.21919976510E+04 0.  0.
         23    2    3    3    0    0  0.14127415399E+03 -0.12588863991E+03  0.20083664466E+03  0.29891986709E+03  0.11494082328E+03 0.  0.
        -24    2    3    3    0    0 -0.11969168716E+03  0.60959302825E+03 -0.81857755682E+02  0.63146323081E+03  0.78200764901E+02 0.  0.
        -15    1    4    4    0    0  0.11232368430E+03 -0.26961632637E+02  0.12968391024E+03  0.17367053943E+03  0.00000000000E+00 0.  1.
        -15    1    3    3    0    0 -0.23261043367E+03 -0.71904015177E+03 -0.14999304573E+04  0.16795587904E+04  0.00000000000E+00 0.  1.
         15    1    4    4    0    0  0.28950469690E+02 -0.98927007277E+02  0.71152734423E+02  0.12524932766E+03  0.00000000000E+00 0. -1.
         15    1    5    5    0    0 -0.50106332414E+02  0.43558737726E+03 -0.48812593562E+02  0.44116853590E+03  0.00000000000E+00 0. -1.
        -16    1    5    5    0    0 -0.69585354743E+02  0.17400565099E+03 -0.33045162120E+02  0.19029469491E+03  0.00000000000E+00 0.  1.
         16    1    1    2    0    0  0.14675972718E+04  0.24978143556E+03 -0.62711349259E+03  0.16153958804E+04  0.00000000000E+00 0. -1.
    9900018    1    1    2    0    0 -0.12565693050E+04 -0.14445672122E+02 -0.76246285292E+02  0.12622613715E+04  0.91187600000E+02 0.  0.
<mgrwt>
<rscale>  0 0.50763560E+04</rscale>
<asrwt>0</asrwt>
<pdfrwt beam="1">  1        2 0.58245464E+00 0.50763560E+04</pdfrwt>
<pdfrwt beam="2">  1       -2 0.26179137E+00 0.50763560E+04</pdfrwt>
<totfact> 0.19748195E-02</totfact>
</mgrwt>
</event>
<event>
12    1  0.5622567E-011  0.3156681E+04  0.7818608E-02  0.8200352E-01
         -2   -1    0    0    0  501 -0.00000000000E+00  0.00000000000E+00  0.27487419932E+04  0.27487419932E+04  0.00000000000E+00 0.  1.
          2   -1    0    0  501    0  0.00000000000E+00 -0.00000000000E+00 -0.90629068901E+03  0.90629068901E+03  0.00000000000E+00 0. -1.
    9900016    2    1    2    0    0 -0.44365079498E+03 -0.26053477767E+03  0.14157634981E+04  0.26655424124E+04  0.21990965581E+04 0.  0.
         23    2    3    3    0    0  0.18256349238E+03  0.41154228855E+03  0.41441219515E+03  0.62239746760E+03  0.11377458491E+03 0.  0.
        -24    2    3    3    0    0 -0.64004565026E+03 -0.17942402849E+03  0.13032141998E+04  0.14652007169E+04  0.81206365571E+02 0.  0.
        -15    1    4    4    0    0  0.13552724664E+03  0.33428907104E+03  0.26444529899E+03  0.44726740743E+03  0.00000000000E+00 0. -1.
        -15    1    3    3    0    0  0.13831362899E+02 -0.49265303773E+03 -0.30186289683E+03  0.57794422799E+03  0.00000000000E+00 0.  1.
         15    1    5    5    0    0 -0.45136668265E+03 -0.12925543985E+03  0.83568590699E+03  0.95854566196E+03  0.00000000000E+00 0. -1.
         15    1    4    4    0    0  0.47036245742E+02  0.77253217513E+02  0.14996689616E+03  0.17513006016E+03  0.00000000000E+00 0.  1.
        -16    1    5    5    0    0 -0.18867896761E+03 -0.50168588646E+02  0.46752829278E+03  0.50665505490E+03  0.00000000000E+00 0.  1.
         16    1    1    2    0    0  0.60529436707E+03  0.28502065084E+03  0.20586806307E+03  0.69999978686E+03  0.00000000000E+00 0. -1.
    9900018    1    1    2    0    0 -0.16164357209E+03 -0.24485873163E+02  0.22081974303E+03  0.28949048289E+03  0.91187600000E+02 0.  0.
<mgrwt>
<rscale>  0 0.31566813E+04</rscale>
<asrwt>0</asrwt>
<pdfrwt beam="1">  1        2 0.13942934E+00 0.31566813E+04</pdfrwt>
<pdfrwt beam="2">  1       -2 0.42288338E+00 0.31566813E+04</pdfrwt>
<totfact> 0.12861715E-01</totfact>
</mgrwt>
</event>
<event>
11    1  0.5622567E-011  0.3283462E+04  0.7818608E-02  0.8167116E-01
          1   -1    0    0  501    0  0.00000000000E+00  0.00000000000E+00  0.35026510932E+04  0.35026510932E+04  0.00000000000E+00 0. -1.
         -1   -1    0    0    0  501 -0.00000000000E+00 -0.00000000000E+00 -0.76949734545E+03  0.76949734545E+03  0.00000000000E+00 0.  1.
    9900016    2    1    2    0    0 -0.24069236367E+03 -0.23847521554E+03  0.14759484091E+04  0.26725206333E+04  0.22020761991E+04 0.  0.
        -24    2    3    3    0    0  0.24449035243E+03  0.34838463838E+03  0.95401882091E+02  0.44309103091E+03  0.77979188710E+02 0.  0.
        -15    1    3    3    0    0 -0.34157282658E+03 -0.63711652008E+03  0.23236724510E+03  0.75933127989E+03  0.00000000000E+00 0.  1.
        -15    1    3    3    0    0  0.70163412661E+02  0.43582364341E+03  0.77764579219E+03  0.89420251104E+03  0.00000000000E+00 0.  1.
         15    1    3    3    0    0 -0.21377330218E+03 -0.38556697725E+03  0.37053348974E+03  0.57589581149E+03  0.00000000000E+00 0. -1.
         15    1    4    4    0    0  0.18445302136E+03  0.21048007947E+03  0.84248571381E+02  0.29227145383E+03  0.00000000000E+00 0. -1.
        -16    1    4    4    0    0  0.60037331072E+02  0.13790455891E+03  0.11153310709E+02  0.15081957708E+03  0.00000000000E+00 0.  1.
         16    1    1    2    0    0 -0.34551115393E+02  0.18268709100E+03  0.12892801807E+04  0.13026172642E+04  0.00000000000E+00 0. -1.
    9900018    1    1    2    0    0  0.27524347906E+03  0.55788124542E+02 -0.32074842098E+02  0.29701054105E+03  0.91187600000E+02 0.  0.
<mgrwt>
<rscale>  0 0.32834620E+04</rscale>
<asrwt>0</asrwt>
<pdfrwt beam="1">  1        1 0.53886939E+00 0.32834620E+04</pdfrwt>
<pdfrwt beam="2">  1       -1 0.11838421E+00 0.32834620E+04</pdfrwt>
<totfact> 0.13204195E-01</totfact>
</mgrwt>
</event>
<event>
12    1  0.5622567E-011  0.5295503E+04  0.7818608E-02  0.7784472E-01
          2   -1    0    0  501    0  0.00000000000E+00  0.00000000000E+00  0.38668802972E+04  0.38668802972E+04  0.00000000000E+00 0. -1.
         -2   -1    0    0    0  501 -0.00000000000E+00 -0.00000000000E+00 -0.18129831688E+04  0.18129831688E+04  0.00000000000E+00 0.  1.
    9900016    2    1    2    0    0 -0.11939199040E+04 -0.80787591567E+03  0.17648057511E+04  0.31702118611E+04  0.22039953886E+04 0.  0.
         23    2    3    3    0    0 -0.80319787724E+02 -0.88513640708E+03  0.12803130275E+04  0.15622348133E+04  0.10704408420E+03 0.  0.
         24    2    3    3    0    0  0.10265336548E+03 -0.21371830154E+03 -0.38353706138E+02  0.25250311637E+03  0.77933247982E+02 0.  0.
        -15    1    4    4    0    0 -0.98240834114E+02 -0.85090357430E+03  0.12248598477E+04  0.14946470489E+04  0.00000000000E+00 0. -1.
        -15    1    5    5    0    0  0.25280964936E+02 -0.35259499570E+01 -0.57057152621E+01  0.26155586361E+02  0.00000000000E+00 0.  1.
         15    1    4    4    0    0  0.17921046389E+02 -0.34232832775E+02  0.55453179770E+02  0.67587764352E+02  0.00000000000E+00 0.  1.
         15    1    3    3    0    0 -0.12162534818E+04  0.29097879295E+03  0.52284642973E+03  0.13554739315E+04  0.00000000000E+00 0. -1.
        -16    1    1    2    0    0  0.14227474011E+04  0.12730866283E+04  0.17856049581E+00  0.19091777713E+04  0.00000000000E+00 0.  1.
         16    1    5    5    0    0  0.77372400544E+02 -0.21019235159E+03 -0.32647990876E+02  0.22634753001E+03  0.00000000000E+00 0. -1.
    9900018    1    1    2    0    0 -0.22882749707E+03 -0.46521071266E+03  0.28891281684E+03  0.60047383350E+03  0.91187600000E+02 0.  0.
<mgrwt>
<rscale>  0 0.52955033E+04</rscale>
<asrwt>0</asrwt>
<pdfrwt beam="1">  1        2 0.59490466E+00 0.52955033E+04</pdfrwt>
<pdfrwt beam="2">  1       -2 0.27892049E+00 0.52955033E+04</pdfrwt>
<totfact> 0.13213805E-02</totfact>
</mgrwt>
</event>
<event>
12    1  0.5622567E-011  0.3650891E+04  0.7818608E-02  0.8078933E-01
         -2   -1    0    0    0  501 -0.00000000000E+00  0.00000000000E+00  0.18540100288E+04  0.18540100288E+04  0.00000000000E+00 0.  1.
          2   -1    0    0  501    0  0.00000000000E+00 -0.00000000000E+00 -0.17973209677E+04  0.17973209677E+04  0.00000000000E+00 0. -1.
    9900016    2    1    2    0    0 -0.34460027590E+03  0.22300467358E+03  0.64427632694E+03  0.23306776061E+04  0.22019277199E+04 0.  0.
         23    2    3    3    0    0 -0.34238616086E+03 -0.31498084689E+03  0.12827030333E+04  0.13689203883E+04  0.11033920813E+03 0.  0.
         24    2    3    3    0    0  0.98369717635E+02 -0.29888776851E+02 -0.19295356472E+03  0.23302911701E+03  0.80632195221E+02 0.  0.
        -15    1    5    5    0    0 -0.14338166163E+02 -0.31304738606E+01 -0.25286129237E+02  0.29236470500E+02  0.00000000000E+00 0.  1.
        -15    1    4    4    0    0 -0.15024292754E+03 -0.21109023620E+03  0.73021568750E+03  0.77482060850E+03  0.00000000000E+00 0. -1.
         15    1    3    3    0    0 -0.10058383267E+03  0.56787429732E+03 -0.44547314166E+03  0.72872810080E+03  0.00000000000E+00 0. -1.
         15    1    4    4    0    0 -0.19214323332E+03 -0.10389061069E+03  0.55248734582E+03  0.59409977983E+03  0.00000000000E+00 0.  1.
        -16    1    1    2    0    0  0.32598427495E+03 -0.44118070869E+03  0.13096246492E+03  0.56396571922E+03  0.00000000000E+00 0.  1.
         16    1    5    5    0    0  0.11270788380E+03 -0.26758302991E+02 -0.16766743548E+03  0.20379264651E+03  0.00000000000E+00 0. -1.
    9900018    1    1    2    0    0  0.18616000951E+02  0.21817603511E+03 -0.71854973076E+03  0.75668767121E+03  0.91187600000E+02 0.  0.
<mgrwt>
<rscale>  0 0.36508909E+04</rscale>
<asrwt>0</asrwt>
<pdfrwt beam="1">  1        2 0.27651092E+00 0.36508909E+04</pdfrwt>
<pdfrwt beam="2">  1       -2 0.28523231E+00 0.36508909E+04</pdfrwt>
<totfact> 0.27497334E-01</totfact>
</mgrwt>
</event>
<event>
12    1  0.5622567E-011  0.3565801E+04  0.7818608E-02  0.8098371E-01
          1   -1    0    0  501    0  0.00000000000E+00  0.00000000000E+00  0.13305282588E+04  0.13305282588E+04  0.00000000000E+00 0. -1.
         -1   -1    0    0    0  501 -0.00000000000E+00 -0.00000000000E+00 -0.23890773484E+04  0.23890773484E+04  0.00000000000E+00 0.  1.
    9900016    2    1    2    0    0 -0.11874850484E+03 -0.27636623354E+03 -0.15189765537E+04  0.26801301094E+04  0.21875392865E+04 0.  0.
         23    2    3    3    0    0 -0.22182463478E+03 -0.97021391527E+01 -0.55078531941E+03  0.60306924685E+03  0.10501308641E+03 0.  0.
        -24    2    3    3    0    0 -0.33505436544E+03  0.52155362376E+03 -0.99495504203E+03  0.11748625453E+04  0.78018295553E+02 0.  0.
        -15    1    3    3    0    0  0.43813049538E+03 -0.78821771815E+03  0.26763807748E+02  0.90219831721E+03  0.00000000000E+00 0.  1.
        -15    1    4    4    0    0 -0.13232258709E+03 -0.31461678124E+00 -0.19207669595E+03  0.23324412782E+03  0.00000000000E+00 0. -1.
         15    1    5    5    0    0 -0.18007125842E+03  0.32220478679E+03 -0.64797303303E+03  0.74572825766E+03  0.00000000000E+00 0. -1.
         15    1    4    4    0    0 -0.89502047691E+02 -0.93875223715E+01 -0.35870862346E+03  0.36982511902E+03  0.00000000000E+00 0.  1.
        -16    1    5    5    0    0 -0.15498310701E+03  0.19934883696E+03 -0.34698200900E+03  0.42913428764E+03  0.00000000000E+00 0.  1.
         16    1    1    2    0    0  0.74230310887E+02  0.22236772440E+03  0.71913484921E+03  0.75638117061E+03  0.00000000000E+00 0. -1.
    9900018    1    1    2    0    0  0.44518193949E+02  0.53998509141E+02 -0.25870738510E+03  0.28309432718E+03  0.91187600000E+02 0.  0.
<mgrwt>
<rscale>  0 0.35658014E+04</rscale>
<asrwt>0</asrwt>
<pdfrwt beam="1">  1        1 0.20469666E+00 0.35658014E+04</pdfrwt>
<pdfrwt beam="2">  1       -1 0.36755036E+00 0.35658014E+04</pdfrwt>
<totfact> 0.82784046E-02</totfact>
</mgrwt>
</event>
<event>
12    1  0.5622567E-011  0.3957640E+04  0.7818608E-02  0.8013147E-01
         -2   -1    0    0    0  501 -0.00000000000E+00  0.00000000000E+00  0.16258812113E+04  0.16258812113E+04  0.00000000000E+00 0. -1.
          2   -1    0    0  501    0  0.00000000000E+00 -0.00000000000E+00 -0.24083725697E+04  0.24083725697E+04  0.00000000000E+00 0.  1.
    9900016    2    1    2    0    0  0.52320853765E+03 -0.49117785118E+03  0.17621769675E+03  0.23188073728E+04  0.21979108490E+04 0.  0.
         23    2    3    3    0    0  0.37036789452E+03  0.38973879071E+03 -0.29055998528E+02  0.54914313434E+03  0.10791306070E+03 0.  0.
         24    2    3    3    0    0  0.15342182637E+03 -0.49909505870E+02 -0.59174093486E+03  0.61822795341E+03  0.77583843721E+02 0.  0.
        -15    1    5    5    0    0  0.75024846045E+02  0.12049488149E+02 -0.31384248343E+03  0.32291023845E+03  0.00000000000E+00 0.  1.
        -15    1    4    4    0    0  0.29229792282E+03  0.34132501062E+03 -0.57346420453E+02  0.45302257173E+03  0.00000000000E+00 0.  1.
         15    1    3    3    0    0 -0.58118324600E+00 -0.83100713602E+03  0.79701463014E+03  0.11514362851E+04  0.00000000000E+00 0. -1.
         15    1    4    4    0    0  0.78069971700E+02  0.48413780086E+02  0.28290421925E+02  0.96120562608E+02  0.00000000000E+00 0. -1.
        -16    1    1    2    0    0 -0.55014926018E+03  0.74013228025E+03 -0.10821105455E+04  0.14217676440E+04  0.00000000000E+00 0.  1.
         16    1    5    5    0    0  0.78396980328E+02 -0.61958994019E+02 -0.27789845143E+03  0.29531771497E+03  0.00000000000E+00 0. -1.
    9900018    1    1    2    0    0  0.26940722531E+02 -0.24895442907E+03  0.12340149036E+03  0.29367876413E+03  0.91187600000E+02 0.  0.
<mgrwt>
<rscale>  0 0.39576396E+04</rscale>
<asrwt>0</asrwt>
<pdfrwt beam="1">  1        2 0.37051886E+00 0.39576396E+04</pdfrwt>
<pdfrwt beam="2">  1       -2 0.25013557E+00 0.39576396E+04</pdfrwt>
<totfact> 0.19962642E-01</totfact>
</mgrwt>
</event>
<event>
12    1  0.5622567E-011  0.3646829E+04  0.7818608E-02  0.8079848E-01
         -2   -1    0    0    0  501 -0.00000000000E+00  0.00000000000E+00  0.74357419288E+03  0.74357419288E+03  0.00000000000E+00 0. -1.
          2   -1    0    0  501    0  0.00000000000E+00 -0.00000000000E+00 -0.44714309094E+04  0.44714309094E+04  0.00000000000E+00 0.  1.
    9900016    2    1    2    0    0 -0.34610278737E+03  0.57142431566E+03 -0.20989986671E+04  0.31149528990E+04  0.22024584605E+04 0.  0.
         23    2    3    3    0    0 -0.43349127669E+02 -0.48381290635E+03 -0.16286468446E+04  0.17029638792E+04  0.10789510749E+03 0.  0.
         24    2    3    3    0    0 -0.19490877998E+02 -0.10633070675E+03 -0.27348157229E+02  0.13694780311E+03  0.79502613485E+02 0.  0.
        -15    1    4    4    0    0  0.27695306305E+02 -0.28480690919E+03 -0.91737273595E+03  0.96096552601E+03  0.00000000000E+00 0.  1.
        -15    1    5    5    0    0  0.10273623446E+02 -0.82094136086E+02  0.10067703755E+02  0.83344784944E+02  0.00000000000E+00 0.  1.
         15    1    4    4    0    0 -0.71044433974E+02 -0.19900599716E+03 -0.71127410869E+03  0.74199835323E+03  0.00000000000E+00 0. -1.
         15    1    3    3    0    0 -0.28326278170E+03  0.11615679288E+04 -0.44300366524E+03  0.12750412166E+04  0.00000000000E+00 0. -1.
        -16    1    1    2    0    0  0.19067325367E+03 -0.91653820675E+03 -0.11581448798E+04  0.14891937875E+04  0.00000000000E+00 0.  1.
         16    1    5    5    0    0 -0.29764501444E+02 -0.24236570662E+02 -0.37415860984E+02  0.53603018169E+02  0.00000000000E+00 0. -1.
    9900018    1    1    2    0    0  0.15542953371E+03  0.34511389109E+03 -0.47071316962E+03  0.61085841585E+03  0.91187600000E+02 0.  0.
<mgrwt>
<rscale>  0 0.36468291E+04</rscale>
<asrwt>0</asrwt>
<pdfrwt beam="1">  1        2 0.68791243E+00 0.36468291E+04</pdfrwt>
<pdfrwt beam="2">  1       -2 0.11439603E+00 0.36468291E+04</pdfrwt>
<totfact> 0.63287510E-02</totfact>
</mgrwt>
</event>
<event>
12    1  0.5622567E-011  0.2899959E+04  0.7818608E-02  0.8272890E-01
          1   -1    0    0  501    0  0.00000000000E+00  0.00000000000E+00  0.34089025215E+04  0.34089025215E+04  0.00000000000E+00 0. -1.
         -1   -1    0    0    0  501 -0.00000000000E+00 -0.00000000000E+00 -0.61675009397E+03  0.61675009397E+03  0.00000000000E+00 0.  1.
    9900016    2    1    2    0    0  0.36279506457E+03  0.69784890713E+02  0.23123169664E+04  0.32028662774E+04  0.21851893391E+04 0.  0.
         23    2    3    3    0    0  0.25939667387E+03  0.52156179487E+03  0.19395773479E+04  0.20281259850E+04  0.10964206325E+03 0.  0.
        -24    2    3    3    0    0 -0.10582204733E+03  0.12303940466E+03  0.51578275241E+03  0.54652988277E+03  0.79536559379E+02 0.  0.
        -15    1    3    3    0    0  0.20922043802E+03 -0.57481630882E+03 -0.14304313394E+03  0.62821040961E+03  0.00000000000E+00 0.  1.
        -15    1    4    4    0    0  0.23532410749E+03  0.36694876594E+03  0.14568554092E+04  0.15206763350E+04  0.00000000000E+00 0.  1.
         15    1    4    4    0    0  0.24072566385E+02  0.15461302893E+03  0.48272193869E+03  0.50744964998E+03  0.00000000000E+00 0. -1.
         15    1    5    5    0    0 -0.68250916332E+02  0.65304714196E+02  0.17511428067E+03  0.19896709419E+03  0.00000000000E+00 0. -1.
        -16    1    5    5    0    0 -0.37571130995E+02  0.57734690466E+02  0.34066847174E+03  0.34756278858E+03  0.00000000000E+00 0.  1.
         16    1    1    2    0    0 -0.28948894766E+03  0.19025576991E+03  0.39479181322E+03  0.52522536552E+03  0.00000000000E+00 0. -1.
    9900018    1    1    2    0    0 -0.73306116911E+02 -0.26004066062E+03  0.85043647864E+02  0.29756097256E+03  0.91187600000E+02 0.  0.
<mgrwt>
<rscale>  0 0.28999593E+04</rscale>
<asrwt>0</asrwt>
<pdfrwt beam="1">  1        1 0.52444653E+00 0.28999593E+04</pdfrwt>
<pdfrwt beam="2">  1       -1 0.94884632E-01 0.28999593E+04</pdfrwt>
<totfact> 0.27121681E-01</totfact>
</mgrwt>
</event>
<event>
11    1  0.5622567E-011  0.3300439E+04  0.7818608E-02  0.8162784E-01
          3   -1    0    0  501    0  0.00000000000E+00  0.00000000000E+00  0.23620163740E+04  0.23620163740E+04  0.00000000000E+00 0. -1.
         -3   -1    0    0    0  501 -0.00000000000E+00 -0.00000000000E+00 -0.11529238078E+04  0.11529238078E+04  0.00000000000E+00 0.  1.
    9900016    2    1    2    0    0  0.27222620354E+02 -0.48622447072E+02  0.20358760541E+03  0.22113508796E+04  0.22012540940E+04 0.  0.
        -24    2    3    3    0    0  0.45228548923E+02 -0.48684001117E+03 -0.20449474891E+03  0.53605244892E+03  0.80469295657E+02 0.  0.
        -15    1    3    3    0    0  0.16748965995E+03  0.14353104894E+03 -0.41523084277E+03  0.47018145538E+03  0.00000000000E+00 0.  1.
        -15    1    3    3    0    0 -0.36096035551E+03  0.31547312870E+03  0.89430998944E+03  0.10146950431E+04  0.00000000000E+00 0.  1.
         15    1    4    4    0    0  0.51712995890E+02 -0.28406561158E+03 -0.15288466646E+03  0.32671275896E+03  0.00000000000E+00 0. -1.
         15    1    3    3    0    0  0.17546476700E+03 -0.20786613536E+02 -0.70996792348E+02  0.19042193225E+03  0.00000000000E+00 0. -1.
        -16    1    4    4    0    0 -0.64844469674E+01 -0.20277439959E+03 -0.51610082443E+02  0.20933968996E+03  0.00000000000E+00 0.  1.
         16    1    1    2    0    0  0.16971863870E+03 -0.10199912563E+03  0.10199768101E+04  0.10390192160E+04  0.00000000000E+00 0. -1.
    9900018    1    1    2    0    0 -0.19694125905E+03  0.15062157270E+03 -0.14471849331E+02  0.26457008617E+03  0.91187600000E+02 0.  0.
<mgrwt>
<rscale>  0 0.33004393E+04</rscale>
<asrwt>0</asrwt>
<pdfrwt beam="1">  1        3 0.36338713E+00 0.33004393E+04</pdfrwt>
<pdfrwt beam="2">  1       -3 0.17737289E+00 0.33004393E+04</pdfrwt>
<totfact> 0.77744124E-03</totfact>
</mgrwt>
</event>
<event>
12    1  0.5622567E-011  0.4015345E+04  0.7818608E-02  0.8001458E-01
         -2   -1    0    0    0  501 -0.00000000000E+00  0.00000000000E+00  0.15180527005E+04  0.15180527005E+04  0.00000000000E+00 0.  1.
          2   -1    0    0  501    0  0.00000000000E+00 -0.00000000000E+00 -0.26552094577E+04  0.26552094577E+04  0.00000000000E+00 0. -1.
    9900016    2    1    2    0    0  0.28836121320E+03 -0.21768971882E+03 -0.39955129423E+03  0.22721552203E+04  0.22073756150E+04 0.  0.
         23    2    3    3    0    0  0.32464580666E+03 -0.33031985059E+02 -0.19825225710E+03  0.39637781045E+03  0.10642085959E+03 0.  0.
         24    2    3    3    0    0 -0.71660895528E+03  0.43731919720E+01 -0.70492723114E+03  0.10084739532E+04  0.80930794276E+02 0.  0.
        -15    1    5    5    0    0 -0.21669769044E+03 -0.26410070098E+02 -0.24944041243E+03  0.33147533875E+03  0.00000000000E+00 0.  1.
        -15    1    4    4    0    0  0.21191111091E+03 -0.68822733528E+02 -0.10802762052E+03  0.24761432586E+03  0.00000000000E+00 0.  1.
         15    1    4    4    0    0  0.11273469575E+03  0.35790748468E+02 -0.90224636584E+02  0.14876348460E+03  0.00000000000E+00 0. -1.
         15    1    3    3    0    0  0.68032436182E+03 -0.18903092573E+03  0.50362819401E+03  0.86730345668E+03  0.00000000000E+00 0. -1.
        -16    1    1    2    0    0  0.27750614732E+03 -0.35958890773E+01  0.47020962834E+03  0.54600337618E+03  0.00000000000E+00 0.  1.
         16    1    5    5    0    0 -0.49991126483E+03  0.30783262071E+02 -0.45548681871E+03  0.67699861444E+03  0.00000000000E+00 0. -1.
    9900018    1    1    2    0    0 -0.56586736053E+03  0.22128560790E+03 -0.12078150913E+04  0.13551035618E+04  0.91187600000E+02 0.  0.
<mgrwt>
<rscale>  0 0.40153445E+04</rscale>
<asrwt>0</asrwt>
<pdfrwt beam="1">  1        2 0.40849376E+00 0.40153445E+04</pdfrwt>
<pdfrwt beam="2">  1       -2 0.23354657E+00 0.40153445E+04</pdfrwt>
<totfact> 0.18070925E-01</totfact>
</mgrwt>
</event>
<event>
12    1  0.5622567E-011  0.3223862E+04  0.7818608E-02  0.8182544E-01
         -1   -1    0    0    0  501 -0.00000000000E+00  0.00000000000E+00  0.12364660206E+04  0.12364660206E+04  0.00000000000E+00 0.  1.
          1   -1    0    0  501    0  0.00000000000E+00 -0.00000000000E+00 -0.21014098955E+04  0.21014098955E+04  0.00000000000E+00 0. -1.
    9900016    2    1    2    0    0  0.33932658768E+03  0.14072049781E+03 -0.10503989250E+04  0.24748565196E+04  0.22105727990E+04 0.  0.
         23    2    3    3    0    0  0.88530836055E+02 -0.44277947693E+03 -0.10440657634E+04  0.11431898711E+04  0.11365909076E+03 0.  0.
        -24    2    3    3    0    0  0.14501902101E+02 -0.19407166605E+03  0.37801087822E+03  0.43268234345E+03  0.80297381994E+02 0.  0.
        -15    1    4    4    0    0  0.25999243108E+02 -0.84461174319E+02 -0.11200415760E+03  0.14266948493E+03  0.00000000000E+00 0.  1.
        -15    1    3    3    0    0  0.23629384952E+03  0.77757164078E+03 -0.38434403977E+03  0.89898430507E+03  0.00000000000E+00 0.  1.
         15    1    4    4    0    0  0.62531592947E+02 -0.35831830261E+03 -0.93206160580E+03  0.10005203861E+04  0.00000000000E+00 0. -1.
         15    1    5    5    0    0 -0.18373450894E+02 -0.15387133081E+02  0.20021568729E+02  0.31228364936E+02  0.00000000000E+00 0. -1.
        -16    1    5    5    0    0  0.32875352995E+02 -0.17868453297E+03  0.35798930949E+03  0.40145397851E+03  0.00000000000E+00 0.  1.
         16    1    1    2    0    0 -0.23471979748E+03  0.89599288321E+02 -0.24794178627E+03  0.35298235816E+03  0.00000000000E+00 0. -1.
    9900018    1    1    2    0    0 -0.10460679019E+03 -0.23031978613E+03  0.43339683625E+03  0.51003703836E+03  0.91187600000E+02 0.  0.
<mgrwt>
<rscale>  0 0.32238622E+04</rscale>
<asrwt>0</asrwt>
<pdfrwt beam="1">  1        1 0.32329383E+00 0.32238622E+04</pdfrwt>
<pdfrwt beam="2">  1       -1 0.19022554E+00 0.32238622E+04</pdfrwt>
<totfact> 0.37379155E-01</totfact>
</mgrwt>
</event>
<event>
12    1  0.7918777E-011  0.3189087E+04  0.7818608E-02  0.8191705E-01
         -1   -1    0    0    0  501 -0.00000000000E+00  0.00000000000E+00  0.17430242293E+04  0.17430242293E+04  0.00000000000E+00 0.  1.
          1   -1    0    0  501    0  0.00000000000E+00 -0.00000000000E+00 -0.14587111005E+04  0.14587111005E+04  0.00000000000E+00 0. -1.
    9900016    2    1    2    0    0 -0.59154171383E+03 -0.17841157210E+03  0.87650107185E+02  0.23059700230E+04  0.22199240792E+04 0.  0.
         23    2    3    3    0    0  0.26747881230E+03  0.60037846654E+03  0.65722931124E+03  0.93579159610E+03  0.10842659115E+03 0.  0.
        -24    2    3    3    0    0  0.14469849237E+02 -0.28275535468E+02 -0.71955338983E+01  0.88565050028E+02  0.82359637781E+02 0.  0.
        -15    1    3    3    0    0 -0.87349037537E+03 -0.75051450317E+03 -0.56238367016E+03  0.12816133769E+04  0.00000000000E+00 0.  1.
        -15    1    4    4    0    0  0.27609686327E+03  0.56677894970E+03  0.61052585774E+03  0.87761590614E+03  0.00000000000E+00 0.  1.
         15    1    4    4    0    0 -0.86180509699E+01  0.33599516834E+02  0.46703453499E+02  0.58175689964E+02  0.00000000000E+00 0. -1.
         15    1    5    5    0    0 -0.14553652501E+02  0.83658783589E+01  0.26200715930E+02  0.31117105217E+02  0.00000000000E+00 0. -1.
        -16    1    5    5    0    0  0.29023501738E+02 -0.36641413827E+02 -0.33396249828E+02  0.57447944811E+02  0.00000000000E+00 0.  1.
         16    1    1    2    0    0  0.64335851915E+03  0.30146700048E+03  0.18191435486E+03  0.73340668735E+03  0.00000000000E+00 0. -1.
    9900018    1    1    2    0    0 -0.51816805319E+02 -0.12305542838E+03  0.14748666729E+02  0.16235861951E+03  0.91187600000E+02 0.  0.
<mgrwt>
<rscale>  0 0.31890869E+04</rscale>
<asrwt>0</asrwt>
<pdfrwt beam="1">  1        1 0.22441709E+00 0.31890869E+04</pdfrwt>
<pdfrwt beam="2">  1       -1 0.26815757E+00 0.31890869E+04</pdfrwt>
<totfact> 0.31083253E-01</totfact>
</mgrwt>
</event>
<event>
11    1  0.5622567E-011  0.5374555E+04  0.7818608E-02  0.7773190E-01
         -2   -1    0    0    0  501 -0.00000000000E+00  0.00000000000E+00  0.22522699670E+04  0.22522699670E+04  0.00000000000E+00 0. -1.
          2   -1    0    0  501    0  0.00000000000E+00 -0.00000000000E+00 -0.32063034566E+04  0.32063034566E+04  0.00000000000E+00 0.  1.
    9900016    2    1    2    0    0 -0.10275531625E+04 -0.44060595186E+03 -0.59553885342E+03  0.25508430278E+04  0.22140764485E+04 0.  0.
         24    2    3    3    0    0 -0.16212469771E+03 -0.70974958074E+02  0.12253376891E+03  0.22994755289E+03  0.80867114920E+02 0.  0.
        -15    1    4    4    0    0 -0.77198248613E+02 -0.24098075134E+02  0.10306818387E+03  0.13100892084E+03  0.00000000000E+00 0.  1.
        -15    1    3    3    0    0 -0.98964035208E+03 -0.41157476650E+03  0.81696217497E+01  0.10718435322E+04  0.00000000000E+00 0.  1.
         15    1    3    3    0    0  0.53910944284E+03  0.26007526158E+02 -0.61691780193E+03  0.81969686904E+03  0.00000000000E+00 0. -1.
         15    1    3    3    0    0 -0.41489755558E+03  0.15936246551E+02 -0.10932444215E+03  0.42935507361E+03  0.00000000000E+00 0. -1.
        -16    1    1    2    0    0  0.89245574695E+02 -0.81951629835E+03 -0.92140588973E+03  0.12363496874E+04  0.00000000000E+00 0.  1.
         16    1    4    4    0    0 -0.84926449100E+02 -0.46876882940E+02  0.19465585042E+02  0.98938632050E+02  0.00000000000E+00 0. -1.
    9900018    1    1    2    0    0  0.93830758784E+03  0.12601222502E+04  0.56291125356E+03  0.16713807085E+04  0.91187600000E+02 0.  0.
<mgrwt>
<rscale>  0 0.53745552E+04</rscale>
<asrwt>0</asrwt>
<pdfrwt beam="1">  1        2 0.49327746E+00 0.53745552E+04</pdfrwt>
<pdfrwt beam="2">  1       -2 0.34650307E+00 0.53745552E+04</pdfrwt>
<totfact> 0.14846582E-02</totfact>
</mgrwt>
</event>
<event>
11    1  0.5622567E-011  0.2907192E+04  0.7818608E-02  0.8270741E-01
          1   -1    0    0  501    0  0.00000000000E+00  0.00000000000E+00  0.24981053376E+04  0.24981053376E+04  0.00000000000E+00 0. -1.
         -1   -1    0    0    0  501 -0.00000000000E+00 -0.00000000000E+00 -0.84581780703E+03  0.84581780703E+03  0.00000000000E+00 0.  1.
    9900016    2    1    2    0    0  0.25668204964E+03  0.38873451605E+03  0.93106482799E+03  0.23849755755E+04  0.21457461601E+04 0.  0.
        -24    2    3    3    0    0 -0.79648507929E+02 -0.19687095478E+03 -0.11878004041E+02  0.22666237089E+03  0.78311466235E+02 0.  0.
        -15    1    3    3    0    0  0.23760282522E+03 -0.11139227161E+03  0.16422365837E+03  0.30956865263E+03  0.00000000000E+00 0.  1.
        -15    1    3    3    0    0 -0.12343940082E+03  0.10592934112E+04  0.13160261899E+03  0.10745506345E+04  0.00000000000E+00 0.  1.
         15    1    4    4    0    0 -0.89290176782E+02 -0.18211383203E+03  0.41058220103E+01  0.20286705316E+03  0.00000000000E+00 0. -1.
         15    1    3    3    0    0  0.22216713318E+03 -0.36229566876E+03  0.64711655468E+03  0.77419391757E+03  0.00000000000E+00 0. -1.
        -16    1    4    4    0    0  0.96416688530E+01 -0.14757122758E+02 -0.15983826052E+02  0.23795317725E+02  0.00000000000E+00 0.  1.
         16    1    1    2    0    0 -0.26280039050E+02 -0.36119225493E+03  0.54217360625E+03  0.65199900673E+03  0.00000000000E+00 0. -1.
    9900018    1    1    2    0    0 -0.23040201059E+03 -0.27542261119E+02  0.17904909629E+03  0.30694856232E+03  0.91187600000E+02 0.  0.
<mgrwt>
<rscale>  0 0.29071924E+04</rscale>
<asrwt>0</asrwt>
<pdfrwt beam="1">  1        1 0.38432389E+00 0.29071924E+04</pdfrwt>
<pdfrwt beam="2">  1       -1 0.13012582E+00 0.29071924E+04</pdfrwt>
<totfact> 0.58946751E-01</totfact>
</mgrwt>
</event>
<event>
11    1  0.5622567E-011  0.4223208E+04  0.7818608E-02  0.7960972E-01
          2   -1    0    0  501    0  0.00000000000E+00  0.00000000000E+00  0.21083569551E+04  0.21083569551E+04  0.00000000000E+00 0. -1.
         -2   -1    0    0    0  501 -0.00000000000E+00 -0.00000000000E+00 -0.21148564181E+04  0.21148564181E+04  0.00000000000E+00 0.  1.
    9900016    2    1    2    0    0 -0.55687255850E+03 -0.88551582499E+03 -0.20937672505E+03  0.24532702445E+04  0.22091742703E+04 0.  0.
        -24    2    3    3    0    0 -0.10236431001E+04 -0.50404630722E+03 -0.81657559639E+02  0.11466289839E+04  0.78626925306E+02 0.  0.
        -15    1    3    3    0    0 -0.10758445966E+03  0.10018714972E+03  0.15649607168E+02  0.14784042456E+03  0.00000000000E+00 0.  1.
        -15    1    3    3    0    0  0.52245200656E+03 -0.72861040074E+03 -0.13165479726E+03  0.90618000467E+03  0.00000000000E+00 0.  1.
         15    1    4    4    0    0 -0.84391744253E+03 -0.39983820127E+03 -0.93664483897E+02  0.93853091187E+03  0.00000000000E+00 0. -1.
         15    1    3    3    0    0  0.51902994696E+02  0.24695373325E+03 -0.11713975325E+02  0.25262083137E+03  0.00000000000E+00 0. -1.
        -16    1    4    4    0    0 -0.17972565757E+03 -0.10420810596E+03  0.12006924258E+02  0.20809807199E+03  0.00000000000E+00 0.  1.
         16    1    1    2    0    0  0.78848537706E+03  0.11452754463E+04  0.92090184949E+02  0.13935012163E+04  0.00000000000E+00 0. -1.
    9900018    1    1    2    0    0 -0.23161281856E+03 -0.25975962132E+03  0.11078707716E+03  0.37644191245E+03  0.91187600000E+02 0.  0.
<mgrwt>
<rscale>  0 0.42232084E+04</rscale>
<asrwt>0</asrwt>
<pdfrwt beam="1">  1        2 0.32436261E+00 0.42232084E+04</pdfrwt>
<pdfrwt beam="2">  1       -2 0.32536252E+00 0.42232084E+04</pdfrwt>
<totfact> 0.99902750E-02</totfact>
</mgrwt>
</event>
<event>
11    1  0.5622567E-011  0.3426036E+04  0.7818608E-02  0.8131546E-01
         -2   -1    0    0    0  501 -0.00000000000E+00  0.00000000000E+00  0.22205548970E+04  0.22205548970E+04  0.00000000000E+00 0.  1.
          2   -1    0    0  501    0  0.00000000000E+00 -0.00000000000E+00 -0.13214856698E+04  0.13214856698E+04  0.00000000000E+00 0. -1.
    9900016    2    1    2    0    0 -0.11604857318E+03 -0.10770114641E+03  0.10442457990E+02  0.21934571315E+04  0.21877107520E+04 0.  0.
         24    2    3    3    0    0 -0.30940293418E+03  0.23454767004E+03  0.10722306461E+03  0.41070402098E+03  0.80238532256E+02 0.  0.
        -15    1    3    3    0    0 -0.93766256767E+02 -0.24585253506E+03  0.19910747780E+02  0.26387879373E+03  0.00000000000E+00 0.  1.
        -15    1    4    4    0    0 -0.30328426378E+03  0.20614496399E+03  0.92821236520E+02  0.37827618585E+03  0.00000000000E+00 0.  1.
         15    1    3    3    0    0  0.94206936514E+02 -0.73574250183E+03  0.21629835152E+03  0.77264283647E+03  0.00000000000E+00 0. -1.
         15    1    3    3    0    0  0.19291368126E+03  0.63934622043E+03 -0.33298970592E+03  0.74623148034E+03  0.00000000000E+00 0. -1.
        -16    1    1    2    0    0 -0.38483075202E+03 -0.76798965648E+02  0.64453941925E+03  0.75460178359E+03  0.00000000000E+00 0.  1.
         16    1    4    4    0    0 -0.61186704075E+01  0.28402706051E+02  0.14401828090E+02  0.32427835126E+02  0.00000000000E+00 0. -1.
    9900018    1    1    2    0    0  0.50087932520E+03  0.18450011206E+03  0.24408734994E+03  0.59398165170E+03  0.91187600000E+02 0.  0.
<mgrwt>
<rscale>  0 0.34260365E+04</rscale>
<asrwt>0</asrwt>
<pdfrwt beam="1">  1        2 0.20330549E+00 0.34260365E+04</pdfrwt>
<pdfrwt beam="2">  1       -2 0.34162383E+00 0.34260365E+04</pdfrwt>
<totfact> 0.23313458E-01</totfact>
</mgrwt>
</event>
<event>
12    1  0.5622567E-011  0.3219818E+04  0.7818608E-02  0.8183603E-01
         -2   -1    0    0    0  501 -0.00000000000E+00  0.00000000000E+00  0.31036042096E+04  0.31036042096E+04  0.00000000000E+00 0.  1.
          2   -1    0    0  501    0  0.00000000000E+00 -0.00000000000E+00 -0.83509572092E+03  0.83509572092E+03  0.00000000000E+00 0. -1.
    9900016    2    1    2    0    0 -0.34700601003E+03  0.14474624920E+03  0.12315252925E+04  0.25509020969E+04  0.22020631949E+04 0.  0.
         23    2    3    3    0    0  0.50390487828E+03  0.35510466106E+03  0.83151735711E+03  0.10419159485E+04  0.11894655041E+03 0.  0.
         24    2    3    3    0    0 -0.83566554251E+03 -0.12060909778E+03  0.75943336713E+03  0.11382112829E+04  0.76827286488E+02 0.  0.
        -15    1    5    5    0    0 -0.24072733698E+03 -0.66360654024E+01  0.18877070578E+03  0.30598703811E+03  0.00000000000E+00 0.  1.
        -15    1    4    4    0    0 -0.14709435679E+01  0.22474505493E+02  0.36067360729E+02  0.42522012912E+02  0.00000000000E+00 0.  1.
         15    1    3    3    0    0 -0.15245345802E+02 -0.89749314079E+02 -0.35942543173E+03  0.37077486554E+03  0.00000000000E+00 0. -1.
         15    1    4    4    0    0  0.50537582185E+03  0.33263015556E+03  0.79544999638E+03  0.99939393556E+03  0.00000000000E+00 0. -1.
        -16    1    1    2    0    0  0.17077656794E+03  0.29076400929E+03  0.76808606740E+03  0.83884715663E+03  0.00000000000E+00 0.  1.
         16    1    5    5    0    0 -0.59493820553E+03 -0.11397303237E+03  0.57066266135E+03  0.83222424476E+03  0.00000000000E+00 0. -1.
    9900018    1    1    2    0    0  0.17622944209E+03 -0.43551025849E+03  0.26889712877E+03  0.54895067699E+03  0.91187600000E+02 0.  0.
<mgrwt>
<rscale>  0 0.32198178E+04</rscale>
<asrwt>0</asrwt>
<pdfrwt beam="1">  1        2 0.12847627E+00 0.32198178E+04</pdfrwt>
<pdfrwt beam="2">  1       -2 0.47747757E+00 0.32198178E+04</pdfrwt>
<totfact> 0.62545892E-02</totfact>
</mgrwt>
</event>
<event>
12    1  0.5622567E-011  0.3196964E+04  0.7818608E-02  0.8189619E-01
         -1   -1    0    0    0  501 -0.00000000000E+00  0.00000000000E+00  0.12764205211E+04  0.12764205211E+04  0.00000000000E+00 0.  1.
          1   -1    0    0  501    0  0.00000000000E+00 -0.00000000000E+00 -0.20018044674E+04  0.20018044674E+04  0.00000000000E+00 0. -1.
    9900016    2    1    2    0    0 -0.84557360110E+02  0.65484655649E+03 -0.48980810998E+03  0.23489650479E+04  0.22003978850E+04 0.  0.
         23    2    3    3    0    0 -0.63430953508E+02  0.22467039601E+03  0.52869966627E+03  0.58799701288E+03  0.10824452565E+03 0.  0.
         24    2    3    3    0    0 -0.49512976396E+03  0.91006943522E+02  0.80806435772E+02  0.51669849944E+03  0.83737162193E+02 0.  0.
        -15    1    5    5    0    0 -0.29158871266E+03  0.73695225573E+02  0.84454416872E+02  0.31239000008E+03  0.00000000000E+00 0.  1.
        -15    1    4    4    0    0  0.28311541422E+02  0.25752959670E+02  0.78987499435E+02  0.87771199015E+02  0.00000000000E+00 0.  1.
         15    1    3    3    0    0  0.47400335736E+03  0.33916921696E+03 -0.10993142120E+04  0.12442695356E+04  0.00000000000E+00 0. -1.
         15    1    4    4    0    0 -0.91742494929E+02  0.19891743634E+03  0.44971216684E+03  0.50022581387E+03  0.00000000000E+00 0. -1.
        -16    1    1    2    0    0  0.30103401376E+03 -0.55319593739E+03 -0.94034677998E+02  0.63678076545E+03  0.00000000000E+00 0.  1.
         16    1    5    5    0    0 -0.20354105130E+03  0.17311717948E+02 -0.36479811002E+01  0.20430849936E+03  0.00000000000E+00 0. -1.
    9900018    1    1    2    0    0 -0.21647665365E+03 -0.10165061910E+03 -0.14154115837E+03  0.29247917506E+03  0.91187600000E+02 0.  0.
<mgrwt>
<rscale>  0 0.31969637E+04</rscale>
<asrwt>0</asrwt>
<pdfrwt beam="1">  1        1 0.30796992E+00 0.31969637E+04</pdfrwt>
<pdfrwt beam="2">  1       -1 0.19637239E+00 0.31969637E+04</pdfrwt>
<totfact> 0.39659349E-01</totfact>
</mgrwt>
</event>
<event>
12    1  0.5622567E-011  0.4398661E+04  0.7818608E-02  0.7928622E-01
          2   -1    0    0  501    0  0.00000000000E+00  0.00000000000E+00  0.28053111264E+04  0.28053111264E+04  0.00000000000E+00 0. -1.
         -2   -1    0    0    0  501 -0.00000000000E+00 -0.00000000000E+00 -0.17242489916E+04  0.17242489916E+04  0.00000000000E+00 0.  1.
    9900016    2    1    2    0    0 -0.11626109494E+04 -0.31174207466E+03  0.35974881972E+03  0.25320045636E+04  0.21983586050E+04 0.  0.
         23    2    3    3    0    0 -0.27392679990E+03 -0.30828180463E+03 -0.32295928060E+03  0.53665989559E+03  0.11673724273E+03 0.  0.
        -24    2    3    3    0    0 -0.34557979880E+03  0.17136486346E+03 -0.52690535013E+03  0.65792518911E+03  0.80280711863E+02 0.  0.
        -15    1    3    3    0    0 -0.54310435073E+03 -0.17482513348E+03  0.12096134505E+04  0.13374194789E+04  0.00000000000E+00 0.  1.
        -15    1    4    4    0    0 -0.13675031004E+03 -0.83229280847E+02 -0.16241608312E+03  0.22804987293E+03  0.00000000000E+00 0.  1.
         15    1    4    4    0    0 -0.13717648986E+03 -0.22505252378E+03 -0.16054319748E+03  0.30861002267E+03  0.00000000000E+00 0. -1.
         15    1    5    5    0    0 -0.75641169857E+02  0.68806436824E+02 -0.10410357263E+03  0.14592280891E+03  0.00000000000E+00 0. -1.
        -16    1    5    5    0    0 -0.26993862894E+03  0.10255842664E+03 -0.42280177750E+03  0.51200238020E+03  0.00000000000E+00 0.  1.
         16    1    1    2    0    0  0.57691834729E+03  0.57269208467E+03  0.10032115171E+04  0.12912181657E+04  0.00000000000E+00 0. -1.
    9900018    1    1    2    0    0  0.58569260213E+03 -0.26095001001E+03 -0.28189820199E+03  0.70633738865E+03  0.91187600000E+02 0.  0.
<mgrwt>
<rscale>  0 0.43986611E+04</rscale>
<asrwt>0</asrwt>
<pdfrwt beam="1">  1        2 0.43158633E+00 0.43986611E+04</pdfrwt>
<pdfrwt beam="2">  1       -2 0.26526908E+00 0.43986611E+04</pdfrwt>
<totfact> 0.90815415E-02</totfact>
</mgrwt>
</event>
<event>
12    1  0.5622567E-011  0.3349271E+04  0.7818608E-02  0.8150470E-01
         -1   -1    0    0    0  501 -0.00000000000E+00  0.00000000000E+00  0.99703476187E+03  0.99703476187E+03  0.00000000000E+00 0.  1.
          1   -1    0    0  501    0  0.00000000000E+00 -0.00000000000E+00 -0.28127448133E+04  0.28127448133E+04  0.00000000000E+00 0. -1.
    9900016    2    1    2    0    0 -0.89066778681E+02  0.35766668113E+03 -0.12997886362E+04  0.25787073868E+04  0.21964569066E+04 0.  0.
         23    2    3    3    0    0 -0.91219882044E+02 -0.24247674056E+03  0.55200687211E+03  0.61274187761E+03  0.60207849393E+02 0.  0.
         24    2    3    3    0    0 -0.85972977354E+02  0.51555019046E+03 -0.16166471406E+04  0.17009806499E+04  0.81264027947E+02 0.  0.
        -15    1    4    4    0    0 -0.51657674342E+02 -0.71061302064E+02  0.22244699612E+03  0.23916707560E+03  0.00000000000E+00 0.  1.
        -15    1    5    5    0    0 -0.14680906763E+02  0.11491121396E+02 -0.38887718220E+02  0.43125740836E+02  0.00000000000E+00 0.  1.
         15    1    4    4    0    0 -0.39562207702E+02 -0.17141543850E+03  0.32955987599E+03  0.37357480201E+03  0.00000000000E+00 0. -1.
         15    1    3    3    0    0  0.88126080717E+02  0.84593231229E+02 -0.23514836765E+03  0.26498485934E+03  0.00000000000E+00 0. -1.
        -16    1    1    2    0    0 -0.53852123657E+02 -0.38707050029E+03  0.23813278123E+03  0.45763614905E+03  0.00000000000E+00 0.  1.
         16    1    5    5    0    0 -0.71292070591E+02  0.50405906906E+03 -0.15777594224E+04  0.16578549090E+04  0.00000000000E+00 0. -1.
    9900018    1    1    2    0    0  0.14291890234E+03  0.29403819163E+02 -0.75405419649E+03  0.77343603929E+03  0.91187600000E+02 0.  0.
<mgrwt>
<rscale>  0 0.33492712E+04</rscale>
<asrwt>0</asrwt>
<pdfrwt beam="1">  1        1 0.43272997E+00 0.33492712E+04</pdfrwt>
<pdfrwt beam="2">  1       -1 0.15338996E+00 0.33492712E+04</pdfrwt>
<totfact> 0.22128105E-01</totfact>
</mgrwt>
</event>
<event>
11    1  0.5622567E-011  0.2841566E+04  0.7818608E-02  0.8290479E-01
          1   -1    0    0  501    0  0.00000000000E+00  0.00000000000E+00  0.26368906239E+04  0.26368906239E+04  0.00000000000E+00 0. -1.
         -1   -1    0    0    0  501 -0.00000000000E+00 -0.00000000000E+00 -0.76553191390E+03  0.76553191390E+03  0.00000000000E+00 0.  1.
    9900016    2    1    2    0    0 -0.84349141559E+02  0.27017115736E+03  0.15013327820E+04  0.26794015413E+04  0.22011554386E+04 0.  0.
        -24    2    3    3    0    0  0.55910791008E+03 -0.39779079837E+03  0.22139970420E+03  0.72603651749E+03  0.85276147422E+02 0.  0.
        -15    1    3    3    0    0 -0.55032384496E+03  0.88441528874E+03  0.10471442730E+04  0.14770097717E+04  0.00000000000E+00 0.  1.
        -15    1    3    3    0    0  0.45843846491E+02 -0.13269129004E+03 -0.51071322185E+02  0.14938847567E+03  0.00000000000E+00 0.  1.
         15    1    4    4    0    0  0.36923141991E+03 -0.29856755049E+03  0.18012586605E+03  0.50785800306E+03  0.00000000000E+00 0. -1.
         15    1    3    3    0    0 -0.13897705318E+03 -0.83762042965E+02  0.28386012701E+03  0.32696677638E+03  0.00000000000E+00 0. -1.
        -16    1    4    4    0    0  0.18987649017E+03 -0.99223247881E+02  0.41273838142E+02  0.21817851442E+03  0.00000000000E+00 0.  1.
         16    1    1    2    0    0 -0.43852254250E+02 -0.30461332816E+03  0.44844873841E+03  0.54389205812E+03  0.00000000000E+00 0. -1.
    9900018    1    1    2    0    0  0.12820139581E+03  0.34442170799E+02 -0.78422810376E+02  0.17912893847E+03  0.91187600000E+02 0.  0.
<mgrwt>
<rscale>  0 0.28415657E+04</rscale>
<asrwt>0</asrwt>
<pdfrwt beam="1">  1        1 0.40567548E+00 0.28415657E+04</pdfrwt>
<pdfrwt beam="2">  1       -1 0.11777414E+00 0.28415657E+04</pdfrwt>
<totfact> 0.60744163E-01</totfact>
</mgrwt>
</event>
<event>
11    1  0.5622567E-011  0.3594603E+04  0.7818608E-02  0.8091729E-01
         -1   -1    0    0    0  501 -0.00000000000E+00  0.00000000000E+00  0.83718578639E+03  0.83718578639E+03  0.00000000000E+00 0.  1.
          1   -1    0    0  501    0  0.00000000000E+00 -0.00000000000E+00 -0.38585144142E+04  0.38585144142E+04  0.00000000000E+00 0. -1.
    9900016    2    1    2    0    0 -0.20546560584E+03  0.45483661247E+03 -0.99541333880E+03  0.24649934542E+04  0.21991481430E+04 0.  0.
        -24    2    3    3    0    0 -0.41533960394E+03  0.75272803972E+03  0.70608735575E+01  0.86274509475E+03  0.71921861742E+02 0.  0.
        -15    1    3    3    0    0  0.29858635823E+02 -0.91466192903E+02 -0.13883977192E+03  0.16892035059E+03  0.00000000000E+00 0.  1.
        -15    1    3    3    0    0 -0.10350761468E+03  0.43084525454E+03 -0.38931062270E+03  0.58983406192E+03  0.00000000000E+00 0.  1.
         15    1    4    4    0    0 -0.36744490205E+03  0.69836629679E+03  0.18758577518E+02  0.78935614571E+03  0.00000000000E+00 0. -1.
         15    1    3    3    0    0  0.28352297695E+03 -0.63727048888E+03 -0.47432381774E+03  0.84349394695E+03  0.00000000000E+00 0. -1.
        -16    1    4    4    0    0 -0.47894701887E+02  0.54361742923E+02 -0.11697703960E+02  0.73388949035E+02  0.00000000000E+00 0.  1.
         16    1    1    2    0    0  0.11093030891E+03 -0.64303211290E+03 -0.17726014490E+04  0.18888916667E+04  0.00000000000E+00 0. -1.
    9900018    1    1    2    0    0  0.94535296925E+02  0.18819550042E+03 -0.25331384005E+03  0.34181507968E+03  0.91187600000E+02 0.  0.
<mgrwt>
<rscale>  0 0.35946034E+04</rscale>
<asrwt>0</asrwt>
<pdfrwt beam="1">  1        1 0.59361759E+00 0.35946034E+04</pdfrwt>
<pdfrwt beam="2">  1       -1 0.12879782E+00 0.35946034E+04</pdfrwt>
<totfact> 0.53326472E-02</totfact>
</mgrwt>
</event>
