<event>
11    1  0.4005615E-014  0.4468445E+04  0.7818608E-02  0.7916184E-01
          1   -1    0    0  501    0  0.00000000000E+00  0.00000000000E+00  0.25364112575E+04  0.25364112575E+04  0.00000000000E+00 0. -1.
         -1   -1    0    0    0  501 -0.00000000000E+00 -0.00000000000E+00 -0.19680368405E+04  0.19680368405E+04  0.00000000000E+00 0.  1.
    9900016    2    1    2    0    0 -0.70599629954E+03 -0.91681728228E+03  0.79911374286E+02  0.21803844485E+04  0.18462680768E+04 0.  0.
    9900016    2    3    3    0    0 -0.73671954058E+03 -0.86505324163E+03  0.91219167274E+02  0.21162134106E+04  0.17829653587E+04 0.  0.
        -15    1    4    4    0    0  0.15220536315E+03 -0.11573521322E+04  0.93709798680E+02  0.11710729938E+04  0.00000000000E+00 0.  1.
        -15    1    3    3    0    0  0.19031614873E+02 -0.31847712792E+02 -0.16331699029E+02  0.40536447401E+02  0.00000000000E+00 0.  1.
         15    1    4    4    0    0 -0.76560957545E+03  0.21062761793E+03  0.26150168646E+02  0.79448464225E+03  0.00000000000E+00 0. -1.
         15    1    3    3    0    0  0.11691626167E+02 -0.19916327857E+02  0.50239060411E+01  0.23634590533E+02  0.00000000000E+00 0. -1.
        -16    1    4    4    0    0 -0.12331532828E+03  0.81671272653E+02 -0.28640800053E+02  0.15065577451E+03  0.00000000000E+00 0.  1.
         16    1    1    2    0    0  0.44009804283E+03  0.10401096396E+03  0.11521464171E+04  0.12377180351E+04  0.00000000000E+00 0. -1.
    9900018    1    1    2    0    0  0.26589825671E+03  0.81280631832E+03 -0.66368337441E+03  0.10863456144E+04  0.91187600000E+02 0.  0.
<mgrwt>
<rscale>  0 0.44684453E+04</rscale>
<asrwt>0</asrwt>
<pdfrwt beam="1">  1        1 0.39021712E+00 0.44684453E+04</pdfrwt>
<pdfrwt beam="2">  1       -1 0.30277490E+00 0.44684453E+04</pdfrwt>
<totfact> 0.30507624E-02</totfact>
</mgrwt>
</event>
<event>
12    1  0.4005615E-014  0.3198220E+04  0.7818608E-02  0.8189287E-01
         -2   -1    0    0    0  501 -0.00000000000E+00  0.00000000000E+00  0.11010658409E+04  0.11010658409E+04  0.00000000000E+00 0.  1.
          2   -1    0    0  501    0  0.00000000000E+00 -0.00000000000E+00 -0.23224336708E+04  0.23224336708E+04  0.00000000000E+00 0. -1.
    9900016    2    1    2    0    0 -0.37949422233E+03  0.50842259097E+03 -0.10263417381E+04  0.22111435348E+04  0.18529082472E+04 0.  0.
    9900016    2    3    3    0    0 -0.35214077757E+03  0.48898303534E+03 -0.99487883500E+03  0.21336414467E+04  0.17887242355E+04 0.  0.
        -24    2    4    4    0    0 -0.81384791161E+03  0.12900913238E+03  0.15792014284E+03  0.84069899947E+03  0.53331573297E+02 0.  0.
        -15    1    4    4    0    0  0.46170713405E+03  0.35997390296E+03 -0.11527989778E+04  0.12929424472E+04  0.00000000000E+00 0.  1.
        -15    1    3    3    0    0 -0.26080899581E+02  0.37661273891E+02 -0.36478458799E+02  0.58559908046E+02  0.00000000000E+00 0. -1.
         15    1    3    3    0    0 -0.12725451851E+01 -0.18221718258E+02  0.50155557434E+01  0.18942180100E+02  0.00000000000E+00 0.  1.
         15    1    5    5    0    0 -0.45227641342E+03  0.92174012185E+02  0.10572839087E+03  0.47352771333E+03  0.00000000000E+00 0. -1.
        -16    1    5    5    0    0 -0.36157149819E+03  0.36835120195E+02  0.52191751972E+02  0.36717128613E+03  0.00000000000E+00 0.  1.
         16    1    1    2    0    0  0.58889583831E+03 -0.32361319983E+03 -0.46193506301E+03  0.81541879665E+03  0.00000000000E+00 0. -1.
    9900018    1    1    2    0    0 -0.20940161598E+03 -0.18480939115E+03  0.26690897111E+03  0.39693718028E+03  0.91187600000E+02 0.  0.
<mgrwt>
<rscale>  0 0.31982197E+04</rscale>
<asrwt>0</asrwt>
<pdfrwt beam="1">  1        2 0.35729749E+00 0.31982197E+04</pdfrwt>
<pdfrwt beam="2">  1       -2 0.16939475E+00 0.31982197E+04</pdfrwt>
<totfact> 0.79806479E-01</totfact>
</mgrwt>
</event>
<event>
12    1  0.4005615E-014  0.3299260E+04  0.7818608E-02  0.8163084E-01
          1   -1    0    0  501    0  0.00000000000E+00  0.00000000000E+00  0.20047165158E+04  0.20047165158E+04  0.00000000000E+00 0. -1.
         -1   -1    0    0    0  501 -0.00000000000E+00 -0.00000000000E+00 -0.13574382950E+04  0.13574382950E+04  0.00000000000E+00 0.  1.
    9900016    2    1    2    0    0 -0.97683101277E+02 -0.10257383947E+03  0.62608984129E+03  0.19546741357E+04  0.18462662611E+04 0.  0.
    9900016    2    3    3    0    0 -0.13045264935E+03 -0.57449347788E+02  0.60950136992E+03  0.18924414092E+04  0.17859239195E+04 0.  0.
        -24    2    4    4    0    0  0.70902507602E+03  0.34119519476E+03  0.16138585180E+02  0.78984460303E+03  0.66808110680E+02 0.  0.
        -15    1    3    3    0    0  0.21415869437E+02 -0.43178554211E+02  0.15651713253E+02  0.50675468772E+02  0.00000000000E+00 0.  1.
        -15    1    4    4    0    0 -0.83947772537E+03 -0.39864454255E+03  0.59336278474E+03  0.11025968062E+04  0.00000000000E+00 0.  1.
         15    1    3    3    0    0  0.11353678635E+02 -0.19459374718E+01  0.93675811728E+00  0.11557257762E+02  0.00000000000E+00 0. -1.
         15    1    5    5    0    0  0.13956236201E+03  0.85786600696E+02 -0.17934328748E+02  0.16479876788E+03  0.00000000000E+00 0. -1.
        -16    1    5    5    0    0  0.56946271401E+03  0.25540859407E+03  0.34072913928E+02  0.62504583515E+03  0.00000000000E+00 0.  1.
         16    1    1    2    0    0  0.12903219577E+03 -0.41824787647E+03  0.52014719719E+03  0.67980416332E+03  0.00000000000E+00 0. -1.
    9900018    1    1    2    0    0 -0.31349094488E+02  0.52082171594E+03 -0.49895881768E+03  0.72767651168E+03  0.91187600000E+02 0.  0.
<mgrwt>
<rscale>  0 0.32992599E+04</rscale>
<asrwt>0</asrwt>
<pdfrwt beam="1">  1        1 0.30841793E+00 0.32992599E+04</pdfrwt>
<pdfrwt beam="2">  1       -1 0.20883666E+00 0.32992599E+04</pdfrwt>
<totfact> 0.32133230E-01</totfact>
</mgrwt>
</event>
<event>
11    1  0.4005615E-014  0.4047801E+04  0.7818608E-02  0.7994972E-01
          2   -1    0    0  501    0  0.00000000000E+00  0.00000000000E+00  0.34371269759E+04  0.34371269759E+04  0.00000000000E+00 0. -1.
         -2   -1    0    0    0  501 -0.00000000000E+00 -0.00000000000E+00 -0.11917435298E+04  0.11917435298E+04  0.00000000000E+00 0.  1.
    9900016    2    1    2    0    0  0.54188949196E+03  0.32189103463E+03  0.22338521080E+04  0.29687141089E+04  0.18509214354E+04 0.  0.
    9900016    2    3    3    0    0  0.53104568809E+03  0.36628960570E+03  0.21517997062E+04  0.28706478211E+04  0.17872323126E+04 0.  0.
        -15    1    4    4    0    0  0.52430982672E+03 -0.81004751921E+02  0.12670312294E+04  0.13736195618E+04  0.00000000000E+00 0.  1.
        -15    1    3    3    0    0  0.20516398685E+02 -0.29977709412E+02  0.54381018203E+02  0.65397865541E+02  0.00000000000E+00 0. -1.
         15    1    3    3    0    0 -0.96725948195E+01 -0.14420861660E+02  0.27671383642E+02  0.32668422279E+02  0.00000000000E+00 0.  1.
         15    1    4    4    0    0 -0.41456163693E+03  0.48264357007E+03  0.15693278572E+03  0.65531218955E+03  0.00000000000E+00 0. -1.
        -16    1    1    2    0    0 -0.37400706739E+03 -0.64960004116E+03 -0.58664187770E+03  0.95184567689E+03  0.00000000000E+00 0.  1.
         16    1    4    4    0    0  0.42129749830E+03 -0.35349212445E+02  0.72783569103E+03  0.84171606973E+03  0.00000000000E+00 0. -1.
    9900018    1    1    2    0    0 -0.16788242457E+03  0.32770900653E+03  0.59817321579E+03  0.70831071990E+03  0.91187600000E+02 0.  0.
<mgrwt>
<rscale>  0 0.40478013E+04</rscale>
<asrwt>0</asrwt>
<pdfrwt beam="1">  1        2 0.52878876E+00 0.40478013E+04</pdfrwt>
<pdfrwt beam="2">  1       -2 0.18334516E+00 0.40478013E+04</pdfrwt>
<totfact> 0.12129984E-01</totfact>
</mgrwt>
</event>
