<event>
11    1  0.9640949E-012  0.3273469E+04  0.7818608E-02  0.8368321E-01
         -2   -1    0    0    0  501 -0.00000000000E+00  0.00000000000E+00  0.25364130514E+04  0.25364130514E+04  0.00000000000E+00 0.  1.
          2   -1    0    0  501    0  0.00000000000E+00 -0.00000000000E+00 -0.22082525060E+04  0.22082525060E+04  0.00000000000E+00 0. -1.
    9900016    2    1    2    0    0 -0.97305421580E+02 -0.50088975878E+03 -0.76704417409E+03  0.23915842510E+04  0.22070250495E+04 0.  0.
        -24    2    3    3    0    0  0.57176143063E+03 -0.87356875504E+02 -0.13111332759E+04  0.14351884914E+04  0.78442216974E+02 0.  0.
        -15    1    1    2    0    0 -0.66358806402E+03  0.56884527200E+03  0.77139393140E+03  0.11657541163E+04  0.00000000000E+00 0.  1.
        -15    1    3    3    0    0 -0.66906685221E+03 -0.41353288328E+03  0.54408910179E+03  0.95639575960E+03  0.00000000000E+00 0.  1.
         15    1    4    4    0    0  0.27567694026E+03 -0.46936293245E+02 -0.72988139555E+03  0.78161860430E+03  0.00000000000E+00 0. -1.
         15    1    1    2    0    0  0.11162902113E+03  0.23821337472E+03 -0.12117599470E+03  0.28963817418E+03  0.00000000000E+00 0. -1.
        -16    1    4    4    0    0  0.29608449037E+03 -0.40420582259E+02 -0.58125188034E+03  0.65356988709E+03  0.00000000000E+00 0.  1.
         16    1    1    2    0    0  0.50014387687E+03 -0.24387953967E+03  0.44441758138E+03  0.71212928186E+03  0.00000000000E+00 0. -1.
    9900018    1    1    2    0    0  0.14912058760E+03 -0.62289348267E+02  0.56920148620E+00  0.18555973415E+03  0.91187600000E+02 0.  0.
<mgrwt>
<rscale>  0 0.25996485E+04</rscale>
<asrwt>0</asrwt>
<pdfrwt beam="1">  1        2 0.33973116E+00 0.32734688E+04</pdfrwt>
<pdfrwt beam="2">  1       -2 0.39021739E+00 0.32734688E+04</pdfrwt>
<totfact> 0.35132618E-02</totfact>
</mgrwt>
</event>
<event>
11    1  0.9640949E-012  0.4501819E+04  0.7818608E-02  0.8069315E-01
          2   -1    0    0  501    0  0.00000000000E+00  0.00000000000E+00  0.36973775809E+04  0.36973775809E+04  0.00000000000E+00 0. -1.
         -2   -1    0    0    0  501 -0.00000000000E+00 -0.00000000000E+00 -0.29536482357E+04  0.29536482357E+04  0.00000000000E+00 0.  1.
    9900016    2    1    2    0    0 -0.10164546973E+04  0.28130953869E+03 -0.34586140476E+03  0.24552144717E+04  0.21900097676E+04 0.  0.
         24    2    3    3    0    0 -0.42096538932E+03 -0.60204752100E+03 -0.97098815042E+03  0.12200178643E+04  0.77152604072E+02 0.  0.
        -15    1    1    2    0    0 -0.11489993605E+04  0.66123517205E+03  0.14594019876E+03  0.13336903782E+04  0.00000000000E+00 0.  1.
        -15    1    4    4    0    0 -0.17570249542E+03 -0.23072347879E+03 -0.44329682212E+03  0.52973272795E+03  0.00000000000E+00 0.  1.
         15    1    1    2    0    0  0.55298900274E+03  0.55948040494E+01 -0.19174915207E+03  0.58531690246E+03  0.00000000000E+00 0. -1.
         15    1    3    3    0    0 -0.59548930797E+03  0.88335705968E+03  0.62512674566E+03  0.12351966074E+04  0.00000000000E+00 0. -1.
        -16    1    1    2    0    0  0.12349898831E+04 -0.41453685969E+03  0.86426264346E+03  0.15633268168E+04  0.00000000000E+00 0.  1.
         16    1    4    4    0    0 -0.24526289389E+03 -0.37132404221E+03 -0.52769132829E+03  0.69028513630E+03  0.00000000000E+00 0. -1.
    9900018    1    1    2    0    0  0.37747517199E+03 -0.53360265510E+03  0.27113705978E+03  0.71347724742E+03  0.91187600000E+02 0.  0.
<mgrwt>
<rscale>  0 0.36938994E+04</rscale>
<asrwt>0</asrwt>
<pdfrwt beam="1">  1        2 0.56882732E+00 0.45018188E+04</pdfrwt>
<pdfrwt beam="2">  1       -2 0.45440742E+00 0.45018188E+04</pdfrwt>
<totfact> 0.13489751E-03</totfact>
</mgrwt>
</event>
<event>
11    1  0.9640949E-012  0.4939010E+04  0.7818608E-02  0.7946071E-01
         -2   -1    0    0    0  501 -0.00000000000E+00  0.00000000000E+00  0.48774934402E+04  0.48774934402E+04  0.00000000000E+00 0.  1.
          2   -1    0    0  501    0  0.00000000000E+00 -0.00000000000E+00 -0.37327006383E+04  0.37327006383E+04  0.00000000000E+00 0. -1.
    9900016    2    1    2    0    0  0.33534292070E+03  0.94201102663E+03  0.35987137893E+03  0.24503746365E+04  0.22079376805E+04 0.  0.
         24    2    3    3    0    0  0.57983607348E+03  0.14569022063E+04  0.76951153507E+03  0.17484523572E+04  0.78509437778E+02 0.  0.
        -15    1    4    4    0    0  0.16899154533E+03  0.45075959463E+03  0.27543737015E+03  0.55462428671E+03  0.00000000000E+00 0.  1.
        -15    1    1    2    0    0 -0.19502084806E+03 -0.41427985476E+03  0.58421536231E+03  0.74227253674E+03  0.00000000000E+00 0.  1.
         15    1    1    2    0    0 -0.23905156066E+03  0.14651760407E+04 -0.18500331393E+04  0.23720263690E+04  0.00000000000E+00 0. -1.
         15    1    3    3    0    0 -0.24449315278E+03 -0.51489117969E+03 -0.40964015613E+03  0.70192227931E+03  0.00000000000E+00 0. -1.
        -16    1    1    2    0    0  0.41001556450E+03 -0.18455186340E+04  0.16498922818E+04  0.25092222567E+04  0.00000000000E+00 0.  1.
         16    1    4    4    0    0  0.41084452815E+03  0.10061426117E+04  0.49407416492E+03  0.11938280705E+04  0.00000000000E+00 0. -1.
    9900018    1    1    2    0    0 -0.31128607648E+03 -0.14738857848E+03  0.40084691814E+03  0.53629827955E+03  0.91187600000E+02 0.  0.
<mgrwt>
<rscale>  0 0.43029621E+04</rscale>
<asrwt>0</asrwt>
<pdfrwt beam="1">  1        2 0.57426163E+00 0.49390101E+04</pdfrwt>
<pdfrwt beam="2">  1       -2 0.75038361E+00 0.49390101E+04</pdfrwt>
<totfact> 0.52375534E-05</totfact>
</mgrwt>
</event>
<event>
11    1  0.9640949E-012  0.5588395E+04  0.7818608E-02  0.8136396E-01
          2   -1    0    0  501    0  0.00000000000E+00  0.00000000000E+00  0.33302019326E+04  0.33302019326E+04  0.00000000000E+00 0. -1.
         -2   -1    0    0    0  501 -0.00000000000E+00 -0.00000000000E+00 -0.41086144022E+04  0.41086144022E+04  0.00000000000E+00 0.  1.
    9900016    2    1    2    0    0 -0.17682107042E+04 -0.12461783196E+04  0.34418900250E+03  0.31014692084E+04  0.21957039150E+04 0.  0.
        -24    2    3    3    0    0 -0.12463788693E+04 -0.18811662975E+04  0.19831611274E+03  0.22667254777E+04  0.80425035292E+02 0.  0.
        -15    1    1    2    0    0  0.16514828583E+02 -0.56522492596E+03 -0.11442932410E+04  0.12763851213E+04  0.00000000000E+00 0.  1.
        -15    1    3    3    0    0 -0.52183183494E+03  0.63498797785E+03  0.14587288976E+03  0.83474373070E+03  0.00000000000E+00 0.  1.
         15    1    4    4    0    0 -0.20586725191E+03 -0.32277372806E+03  0.41541286955E+01  0.38285958486E+03  0.00000000000E+00 0. -1.
         15    1    1    2    0    0  0.18572104114E+03  0.86412382374E+02 -0.46922134001E+03  0.51198444398E+03  0.00000000000E+00 0. -1.
        -16    1    4    4    0    0 -0.10405116173E+04 -0.15583925694E+04  0.19416198404E+03  0.18838658929E+04  0.00000000000E+00 0.  1.
         16    1    1    2    0    0  0.16332558698E+04  0.14020266440E+04  0.35926471926E+03  0.21822636379E+04  0.00000000000E+00 0. -1.
    9900018    1    1    2    0    0 -0.67281035345E+02  0.32296421921E+03  0.13164838960E+03  0.36671392322E+03  0.91187600000E+02 0.  0.
<mgrwt>
<rscale>  0 0.34061595E+04</rscale>
<asrwt>0</asrwt>
<pdfrwt beam="1">  1        2 0.51233876E+00 0.55883945E+04</pdfrwt>
<pdfrwt beam="2">  1       -2 0.63209452E+00 0.55883945E+04</pdfrwt>
<totfact> 0.27367572E-04</totfact>
</mgrwt>
</event>
