<event>
12    1  0.2696107E-011  0.1677913E+04  0.7818608E-02  0.8774063E-01
         -1   -1    0    0    0  501 -0.00000000000E+00  0.00000000000E+00  0.38185018093E+03  0.38185018093E+03  0.00000000000E+00 0.  1.
          1   -1    0    0  501    0  0.00000000000E+00 -0.00000000000E+00 -0.18432560987E+04  0.18432560987E+04  0.00000000000E+00 0. -1.
    9900016    2    1    2    0    0 -0.20571541307E+03  0.24096510174E+03 -0.65108238045E+03  0.10480788504E+04  0.75774533923E+03 0.  0.
         23    2    3    3    0    0 -0.14498343701E+02  0.27382384198E+02 -0.38002933311E+02  0.10425198390E+03  0.92001392776E+02 0.  0.
         23    2    3    3    0    0 -0.11945128952E+03 -0.13803977459E+03  0.33195409589E+02  0.20459760940E+03  0.86224454880E+02 0.  0.
        -15    1    4    4    0    0  0.26138349523E+02  0.32050301893E+02 -0.46755573703E+02  0.62422102171E+02  0.00000000000E+00 0.  1.
        -15    1    5    5    0    0 -0.83617131922E+02 -0.78957696957E+02 -0.20841001867E+02  0.11687809897E+03  0.00000000000E+00 0. -1.
         15    1    5    5    0    0 -0.35834157599E+02 -0.59082077632E+02  0.54036411456E+02  0.87719510436E+02  0.00000000000E+00 0.  1.
         15    1    4    4    0    0 -0.40636693224E+02 -0.46679176944E+01  0.87526403919E+01  0.41829881731E+02  0.00000000000E+00 0. -1.
        -16    1    1    2    0    0  0.46631689319E+03 -0.14553329428E+03 -0.25856409125E+03  0.55270857955E+03  0.00000000000E+00 0.  1.
         16    1    3    3    0    0 -0.71765779845E+02  0.35162249213E+03 -0.64627485673E+03  0.73922925711E+03  0.00000000000E+00 0. -1.
    9900018    1    1    2    0    0 -0.26060148013E+03 -0.95431807457E+02 -0.55175944603E+03  0.62431884962E+03  0.91187600000E+02 0.  0.
<mgrwt>
<rscale>  0 0.16779126E+04</rscale>
<asrwt>0</asrwt>
<pdfrwt beam="1">  1        1 0.28357786E+00 0.16779126E+04</pdfrwt>
<pdfrwt beam="2">  1       -1 0.58746182E-01 0.16779126E+04</pdfrwt>
<totfact> 0.10660545E+01</totfact>
</mgrwt>
</event>
<event>
12    1  0.2696107E-011  0.1329284E+04  0.7818608E-02  0.9006660E-01
         -2   -1    0    0    0  501 -0.00000000000E+00  0.00000000000E+00  0.65434735212E+03  0.65434735212E+03  0.00000000000E+00 0. -1.
          2   -1    0    0  501    0  0.00000000000E+00 -0.00000000000E+00 -0.67509865526E+03  0.67509865526E+03  0.00000000000E+00 0.  1.
    9900016    2    1    2    0    0 -0.29020162230E+03  0.11193254853E+03  0.24825019020E+03  0.85105709412E+03  0.75227929887E+03 0.  0.
         23    2    3    3    0    0 -0.15095777858E+02 -0.16763215929E+02  0.11820600717E+02  0.85054208836E+02  0.81151733943E+02 0.  0.
         23    2    3    3    0    0 -0.40884219040E+03  0.18425195553E+03 -0.34438378056E+02  0.45885250446E+03  0.90878485880E+02 0.  0.
        -15    1    5    5    0    0 -0.10046126379E+03  0.57164981779E+01 -0.17355680245E+02  0.10210956620E+03  0.00000000000E+00 0.  1.
        -15    1    4    4    0    0 -0.27607711041E+02  0.16772465828E+02 -0.19294639339E+02  0.37626910930E+02  0.00000000000E+00 0.  1.
         15    1    5    5    0    0 -0.30838092662E+03  0.17853545735E+03 -0.17082697811E+02  0.35674293826E+03  0.00000000000E+00 0. -1.
         15    1    4    4    0    0  0.12511933183E+02 -0.33535681757E+02  0.31115240057E+02  0.47427297906E+02  0.00000000000E+00 0. -1.
        -16    1    1    2    0    0  0.25588934171E+03 -0.87272323735E+02 -0.11346354173E+03  0.29320605210E+03  0.00000000000E+00 0.  1.
         16    1    3    3    0    0  0.13373634596E+03 -0.55556191077E+02  0.27086796754E+03  0.30715038082E+03  0.00000000000E+00 0. -1.
    9900018    1    1    2    0    0  0.34312280593E+02 -0.24660224792E+02 -0.15553795160E+03  0.18518286116E+03  0.91187600000E+02 0.  0.
<mgrwt>
<rscale>  0 0.13292840E+04</rscale>
<asrwt>0</asrwt>
<pdfrwt beam="1">  1        2 0.10386133E+00 0.13292840E+04</pdfrwt>
<pdfrwt beam="2">  1       -2 0.10066882E+00 0.13292840E+04</pdfrwt>
<totfact> 0.34116279E+01</totfact>
</mgrwt>
</event>
<event>
12    1  0.2696107E-011  0.1960413E+04  0.7818608E-02  0.8625356E-01
         -1   -1    0    0    0  501 -0.00000000000E+00  0.00000000000E+00  0.10641016510E+04  0.10641016510E+04  0.00000000000E+00 0.  1.
          1   -1    0    0  501    0  0.00000000000E+00 -0.00000000000E+00 -0.90292618881E+03  0.90292618881E+03  0.00000000000E+00 0. -1.
    9900016    2    1    2    0    0  0.16844874278E+03  0.41138720771E+03  0.12063018853E+03  0.88744996103E+03  0.75855215861E+03 0.  0.
         23    2    3    3    0    0  0.43794503036E+02  0.44462256898E+02  0.51058543843E+02  0.12161495040E+03  0.91040488119E+02 0.  0.
         23    2    3    3    0    0 -0.24685741529E+02 -0.14980246897E+03  0.13583118719E+03  0.22389406981E+03  0.92888522093E+02 0.  0.
        -15    1    4    4    0    0  0.69789208962E+02  0.45314593453E+02  0.31104989223E+02  0.88833926075E+02  0.00000000000E+00 0. -1.
        -15    1    5    5    0    0 -0.16601187611E+02 -0.13564858365E+03  0.14955184976E+03  0.20258798938E+03  0.00000000000E+00 0. -1.
         15    1    5    5    0    0 -0.80845539181E+01 -0.14153885325E+02 -0.13720662568E+02  0.21306080427E+02  0.00000000000E+00 0.  1.
         15    1    4    4    0    0 -0.25994705927E+02 -0.85233655471E+00  0.19953554621E+02  0.32781024325E+02  0.00000000000E+00 0.  1.
        -16    1    3    3    0    0  0.14933998127E+03  0.51672741979E+03 -0.66259542497E+02  0.54194094082E+03  0.00000000000E+00 0.  1.
         16    1    1    2    0    0 -0.35840855283E+03 -0.60112440695E+03 -0.17734220141E+03  0.72198164781E+03  0.00000000000E+00 0. -1.
    9900018    1    1    2    0    0  0.18995981005E+03  0.18973719923E+03  0.21788747502E+03  0.35759623092E+03  0.91187600000E+02 0.  0.
<mgrwt>
<rscale>  0 0.19604135E+04</rscale>
<asrwt>0</asrwt>
<pdfrwt beam="1">  1        1 0.13891172E+00 0.19604135E+04</pdfrwt>
<pdfrwt beam="2">  1       -1 0.16370795E+00 0.19604135E+04</pdfrwt>
<totfact> 0.46157194E+00</totfact>
</mgrwt>
</event>
<event>
12    1  0.2696107E-011  0.1586294E+04  0.7818608E-02  0.8829013E-01
          2   -1    0    0  501    0  0.00000000000E+00  0.00000000000E+00  0.59019340463E+03  0.59019340463E+03  0.00000000000E+00 0. -1.
         -2   -1    0    0    0  501 -0.00000000000E+00 -0.00000000000E+00 -0.10658917572E+04  0.10658917572E+04  0.00000000000E+00 0.  1.
    9900016    2    1    2    0    0 -0.28121151452E+03 -0.38873116862E+03  0.19360450955E+02  0.90173362218E+03  0.76325412607E+03 0.  0.
         23    2    3    3    0    0 -0.33751725213E+02  0.14661674138E+02  0.21194794903E+01  0.98265539496E+02  0.91090506727E+02 0.  0.
         23    2    3    3    0    0  0.12635344912E+03 -0.10616619439E+03 -0.20346307533E+03  0.27735944942E+03  0.91074619001E+02 0.  0.
        -15    1    5    5    0    0  0.11079181340E+03 -0.37523955332E+02 -0.11197479311E+03  0.16192969904E+03  0.00000000000E+00 0. -1.
        -15    1    4    4    0    0  0.24231362072E+02 -0.16204794648E+02 -0.11224499214E+02  0.31236895813E+02  0.00000000000E+00 0. -1.
         15    1    5    5    0    0  0.15561635719E+02 -0.68642239054E+02 -0.91488282220E+02  0.11542975038E+03  0.00000000000E+00 0.  1.
         15    1    4    4    0    0 -0.57983087285E+02  0.30866468786E+02  0.13343978704E+02  0.67028643683E+02  0.00000000000E+00 0.  1.
        -16    1    3    3    0    0 -0.37381323843E+03 -0.29722664837E+03  0.22070404679E+03  0.52610863327E+03  0.00000000000E+00 0.  1.
         16    1    1    2    0    0  0.12119425988E+03  0.31578196322E+03 -0.18258128577E+03  0.38437250530E+03  0.00000000000E+00 0. -1.
    9900018    1    1    2    0    0  0.16001725464E+03  0.72949205402E+02 -0.31247751773E+03  0.36997903431E+03  0.91187600000E+02 0.  0.
<mgrwt>
<rscale>  0 0.15862942E+04</rscale>
<asrwt>0</asrwt>
<pdfrwt beam="1">  1        2 0.90798987E-01 0.15862942E+04</pdfrwt>
<pdfrwt beam="2">  1       -2 0.16398334E+00 0.15862942E+04</pdfrwt>
<totfact> 0.11427248E+01</totfact>
</mgrwt>
</event>
<event>
12    1  0.2696107E-011  0.1275242E+04  0.7818608E-02  0.9049432E-01
         -1   -1    0    0    0  501 -0.00000000000E+00  0.00000000000E+00  0.45112953764E+03  0.45112953764E+03  0.00000000000E+00 0.  1.
          1   -1    0    0  501    0  0.00000000000E+00 -0.00000000000E+00 -0.90120542199E+03  0.90120542199E+03  0.00000000000E+00 0. -1.
    9900016    2    1    2    0    0  0.25615415756E+02  0.43168343708E+02 -0.30165733980E+03  0.81386537132E+03  0.75422810645E+03 0.  0.
         23    2    3    3    0    0  0.15150415461E+02  0.14097716572E+02 -0.89189871361E+02  0.13066659637E+03  0.93223631937E+02 0.  0.
         23    2    3    3    0    0 -0.12484102879E+03  0.69692733874E+02 -0.40836433114E+03  0.44167557134E+03  0.88732878599E+02 0.  0.
        -15    1    5    5    0    0 -0.14886420358E+02  0.55433406469E+02 -0.13881999895E+03  0.15021804210E+03  0.00000000000E+00 0. -1.
        -15    1    4    4    0    0 -0.38613574020E+01  0.50599822879E+02 -0.31250170329E+02  0.59597192064E+02  0.00000000000E+00 0. -1.
         15    1    5    5    0    0 -0.10995460843E+03  0.14259327405E+02 -0.26954433220E+03  0.29145752924E+03  0.00000000000E+00 0.  1.
         15    1    4    4    0    0  0.19011772863E+02 -0.36502106307E+02 -0.57939701032E+02  0.71069404303E+02  0.00000000000E+00 0.  1.
        -16    1    1    2    0    0 -0.45145510025E+02 -0.15252363747E+03  0.14277320711E+03  0.21374228812E+03  0.00000000000E+00 0.  1.
         16    1    3    3    0    0  0.13530602909E+03 -0.40622106738E+02  0.19589686271E+03  0.24152320361E+03  0.00000000000E+00 0. -1.
    9900018    1    1    2    0    0  0.19530094268E+02  0.10935529376E+03 -0.29119175167E+03  0.32472730019E+03  0.91187600000E+02 0.  0.
<mgrwt>
<rscale>  0 0.12752418E+04</rscale>
<asrwt>0</asrwt>
<pdfrwt beam="1">  1        1 0.13864699E+00 0.12752418E+04</pdfrwt>
<pdfrwt beam="2">  1       -1 0.69404545E-01 0.12752418E+04</pdfrwt>
<totfact> 0.37533010E+01</totfact>
</mgrwt>
</event>
<event>
12    1  0.2696107E-011  0.1584828E+04  0.7818608E-02  0.8829923E-01
         -2   -1    0    0    0  501 -0.00000000000E+00  0.00000000000E+00  0.14703948684E+04  0.14703948684E+04  0.00000000000E+00 0.  1.
          2   -1    0    0  501    0  0.00000000000E+00 -0.00000000000E+00 -0.42704188418E+03  0.42704188418E+03  0.00000000000E+00 0. -1.
    9900016    2    1    2    0    0 -0.93468784858E+02  0.18897526853E+03  0.91104081307E+03  0.12022050319E+04  0.75554848281E+03 0.  0.
         23    2    3    3    0    0 -0.16889559747E+01 -0.20620339964E+02  0.10866194793E+03  0.14441184221E+03  0.92840240471E+02 0.  0.
         23    2    3    3    0    0  0.24036003147E+03  0.10971102437E+03  0.14530750018E+03  0.31480153726E+03  0.90422810483E+02 0.  0.
        -15    1    5    5    0    0  0.19012770377E+03  0.54447065465E+02  0.72891449445E+02  0.21077521221E+03  0.00000000000E+00 0. -1.
        -15    1    4    4    0    0 -0.67499146008E+01 -0.54111607782E+02  0.91311357059E+02  0.10635502514E+03  0.00000000000E+00 0. -1.
         15    1    4    4    0    0  0.50609586261E+01  0.33491267819E+02  0.17350590871E+02  0.38056817075E+02  0.00000000000E+00 0.  1.
         15    1    5    5    0    0  0.50232327704E+02  0.55263958905E+02  0.72416050737E+02  0.10402632506E+03  0.00000000000E+00 0.  1.
        -16    1    3    3    0    0 -0.33213986036E+03  0.99884584127E+02  0.65707136495E+03  0.74299165246E+03  0.00000000000E+00 0.  1.
         16    1    1    2    0    0  0.77383487620E+02 -0.22593049469E+03 -0.22266756951E+03  0.32651744073E+03  0.00000000000E+00 0. -1.
    9900018    1    1    2    0    0  0.16085297238E+02  0.36955226158E+02  0.35497974063E+03  0.36871427987E+03  0.91187600000E+02 0.  0.
<mgrwt>
<rscale>  0 0.15848283E+04</rscale>
<asrwt>0</asrwt>
<pdfrwt beam="1">  1        2 0.65698752E-01 0.15848283E+04</pdfrwt>
<pdfrwt beam="2">  1       -2 0.22621459E+00 0.15848283E+04</pdfrwt>
<totfact> 0.63976094E+00</totfact>
</mgrwt>
</event>
