<event>
11    1  0.4522420E-020  0.2733597E+04  0.7818608E-02  0.8324186E-01
          2   -1    0    0  501    0  0.00000000000E+00  0.00000000000E+00  0.20675315047E+04  0.20675315047E+04  0.00000000000E+00 0. -1.
         -2   -1    0    0    0  501 -0.00000000000E+00 -0.00000000000E+00 -0.90355937710E+03  0.90355937710E+03  0.00000000000E+00 0.  1.
    9900016    2    1    2    0    0 -0.19781155297E+03  0.25626538406E+03  0.13553378847E+04  0.24273723777E+04  0.19875599414E+04 0.  0.
         24    2    3    3    0    0  0.11737415966E+03 -0.31774454038E+02 -0.50181128742E+03  0.52177220205E+03  0.75135566562E+02 0.  0.
        -15    1    4    4    0    0  0.40063490925E+02 -0.91255739244E+01 -0.93804586608E+02  0.10240927630E+03  0.00000000000E+00 0.  1.
        -15    1    4    4    0    0  0.56794438960E+02 -0.25717599115E+02 -0.26597336183E+03  0.27318278204E+03  0.00000000000E+00 0.  1.
         15    1    4    4    0    0  0.16568974041E+02  0.66816744327E+01 -0.37797239193E+02  0.41806781323E+02  0.00000000000E+00 0. -1.
         15    1    3    3    0    0 -0.31518571263E+03  0.28803983810E+03  0.18571491722E+04  0.19056001756E+04  0.00000000000E+00 0. -1.
        -16    1    1    2    0    0  0.21192635340E+03 -0.27200089943E+03 -0.25643673820E+03  0.42971742954E+03  0.00000000000E+00 0.  1.
         16    1    4    4    0    0  0.39472557317E+01 -0.36129554315E+01 -0.10423609980E+03  0.10437336238E+03  0.00000000000E+00 0. -1.
    9900018    1    1    2    0    0 -0.14114800422E+02  0.15735515370E+02  0.65070981092E+02  0.11400107460E+03  0.91187600000E+02 0.  0.
<mgrwt>
<rscale>  0 0.27335965E+04</rscale>
<asrwt>0</asrwt>
<pdfrwt beam="1">  1        2 0.31808177E+00 0.27335965E+04</pdfrwt>
<pdfrwt beam="2">  1       -2 0.13900914E+00 0.27335965E+04</pdfrwt>
<totfact> 0.19610205E+00</totfact>
</mgrwt>
</event>
<event>
11    1  0.4522420E-020  0.2758513E+04  0.7818608E-02  0.8316265E-01
         -2   -1    0    0    0  501 -0.00000000000E+00  0.00000000000E+00  0.13968688310E+04  0.13968688310E+04  0.00000000000E+00 0. -1.
          2   -1    0    0  501    0  0.00000000000E+00 -0.00000000000E+00 -0.13618664635E+04  0.13618664635E+04  0.00000000000E+00 0.  1.
    9900016    2    1    2    0    0 -0.36426556602E+03 -0.32722297516E+03 -0.34196863646E+03  0.21407778397E+04  0.20557779385E+04 0.  0.
         24    2    3    3    0    0 -0.86779879132E+01  0.21591947459E+03 -0.10475356164E+04  0.10731614809E+04  0.87453813115E+02 0.  0.
        -15    1    4    4    0    0 -0.15824837590E+02  0.68988810981E+02 -0.38588729447E+03  0.39232497443E+03  0.00000000000E+00 0.  1.
        -15    1    4    4    0    0  0.14099611695E+02  0.64069545627E+02 -0.34040384378E+03  0.34666768322E+03  0.00000000000E+00 0. -1.
         15    1    4    4    0    0 -0.10511605215E+00  0.84800934250E+02 -0.30057147572E+03  0.31230501359E+03  0.00000000000E+00 0.  1.
         15    1    3    3    0    0 -0.34039750500E+03 -0.55496643706E+03  0.72286564031E+03  0.97282729280E+03  0.00000000000E+00 0. -1.
        -16    1    1    2    0    0  0.36426556602E+03  0.32722297516E+03  0.37697100399E+03  0.61795745478E+03  0.00000000000E+00 0.  1.
         16    1    4    4    0    0 -0.68476459666E+01 -0.19398162686E+01 -0.20673002408E+02  0.21863809617E+02  0.00000000000E+00 0. -1.
    9900018    1    3    3    0    0 -0.15190073110E+02  0.11823987303E+02 -0.17298660389E+02  0.94789066046E+02  0.91187600000E+02 0.  0.
<mgrwt>
<rscale>  0 0.27585132E+04</rscale>
<asrwt>0</asrwt>
<pdfrwt beam="1">  1        2 0.20951792E+00 0.27585132E+04</pdfrwt>
<pdfrwt beam="2">  1       -2 0.21490290E+00 0.27585132E+04</pdfrwt>
<totfact> 0.14153518E+00</totfact>
</mgrwt>
</event>
<event>
11    1  0.4522420E-020  0.2712909E+04  0.7818608E-02  0.8330829E-01
         -1   -1    0    0    0  501 -0.00000000000E+00  0.00000000000E+00  0.16807821908E+04  0.16807821908E+04  0.00000000000E+00 0.  1.
          1   -1    0    0  501    0  0.00000000000E+00 -0.00000000000E+00 -0.10947099636E+04  0.10947099636E+04  0.00000000000E+00 0. -1.
    9900016    2    1    2    0    0 -0.30096757109E+03 -0.42326502401E+03  0.50309011830E+03  0.21049326152E+04  0.19768426563E+04 0.  0.
        -24    2    3    3    0    0 -0.32869815100E+03  0.12883196929E+03 -0.69552676412E+03  0.78498469730E+03  0.88336541753E+02 0.  0.
        -15    1    4    4    0    0 -0.48703982098E+02  0.73079284213E+01 -0.59323814172E+02  0.77102520179E+02  0.00000000000E+00 0.  1.
        -15    1    3    3    0    0  0.27730579910E+02 -0.55209699331E+03  0.11986168824E+04  0.13199479179E+04  0.00000000000E+00 0.  1.
         15    1    4    4    0    0 -0.11847940514E+02  0.12900451739E+02 -0.21759543076E+02  0.27933368296E+02  0.00000000000E+00 0. -1.
         15    1    4    4    0    0 -0.93997532421E+02  0.21480660080E+02 -0.20818319197E+03  0.22942797623E+03  0.00000000000E+00 0. -1.
        -16    1    4    4    0    0 -0.17414869596E+03  0.87142929054E+02 -0.40626021490E+03  0.45052083259E+03  0.00000000000E+00 0.  1.
         16    1    1    2    0    0  0.31415144875E+03  0.46350786670E+03  0.40465225631E+02  0.56139835210E+03  0.00000000000E+00 0. -1.
    9900018    1    1    2    0    0 -0.13183877666E+02 -0.40242842690E+02  0.42516883217E+02  0.10916118711E+03  0.91187600000E+02 0.  0.
<mgrwt>
<rscale>  0 0.27129091E+04</rscale>
<asrwt>0</asrwt>
<pdfrwt beam="1">  1        1 0.16841692E+00 0.27129091E+04</pdfrwt>
<pdfrwt beam="2">  1       -1 0.25858188E+00 0.27129091E+04</pdfrwt>
<totfact> 0.68398200E-01</totfact>
</mgrwt>
</event>
<event>
11    1  0.4522420E-020  0.2880877E+04  0.7818608E-02  0.8278590E-01
         -1   -1    0    0    0  501 -0.00000000000E+00  0.00000000000E+00  0.14777921174E+04  0.14777921174E+04  0.00000000000E+00 0.  1.
          1   -1    0    0  501    0  0.00000000000E+00 -0.00000000000E+00 -0.14040286013E+04  0.14040286013E+04  0.00000000000E+00 0. -1.
    9900016    2    1    2    0    0 -0.63236648853E+03 -0.13838500095E+03 -0.44136197114E+02  0.20882691628E+04  0.19849136777E+04 0.  0.
         24    2    3    3    0    0  0.24378551934E+03  0.53549664145E+02  0.80886587133E+03  0.85049140191E+03  0.82296299685E+02 0.  0.
        -15    1    4    4    0    0  0.11575142772E+03  0.34461344014E+02  0.38830964709E+03  0.40665754546E+03  0.00000000000E+00 0.  1.
        -15    1    4    4    0    0  0.20332659849E+02 -0.28575548486E+01  0.11336035323E+03  0.11520482785E+03  0.00000000000E+00 0. -1.
         15    1    3    3    0    0 -0.87615200788E+03 -0.19193466509E+03 -0.85300206845E+03  0.12377777609E+04  0.00000000000E+00 0. -1.
         15    1    4    4    0    0  0.56582913290E+02  0.48320214845E+01  0.10503253010E+03  0.11940187137E+03  0.00000000000E+00 0.  1.
        -16    1    1    2    0    0  0.66706244814E+03  0.15053070424E+03  0.12423363869E+03  0.69502935162E+03  0.00000000000E+00 0.  1.
         16    1    4    4    0    0  0.51118518484E+02  0.17113853495E+02  0.20216334092E+03  0.20922715723E+03  0.00000000000E+00 0. -1.
    9900018    1    1    2    0    0 -0.34695959602E+02 -0.12145703285E+02 -0.63339254912E+01  0.98522204233E+02  0.91187600000E+02 0.  0.
<mgrwt>
<rscale>  0 0.28808765E+04</rscale>
<asrwt>0</asrwt>
<pdfrwt beam="1">  1        1 0.21600440E+00 0.28808765E+04</pdfrwt>
<pdfrwt beam="2">  1       -1 0.22735263E+00 0.28808765E+04</pdfrwt>
<totfact> 0.64505556E-01</totfact>
</mgrwt>
</event>
