<event>
10    1  0.2404379E-012  0.9814295E+03  0.7818608E-02  0.9329150E-01
          1   -1    0    0  501    0  0.00000000000E+00  0.00000000000E+00  0.22088056480E+04  0.22088056480E+04  0.00000000000E+00 0. -1.
         -1   -1    0    0    0  501 -0.00000000000E+00 -0.00000000000E+00 -0.10901864082E+03  0.10901864082E+03  0.00000000000E+00 0.  1.
    9900016    2    1    2    0    0 -0.17893946294E+03 -0.71575349641E+02  0.19110420432E+04  0.20480706540E+04  0.71089334699E+03 0.  0.
        -15    1    3    3    0    0  0.27401976516E+02  0.84197394724E+02  0.25765941391E+03  0.27244897352E+03  0.00000000000E+00 0.  1.
        -15    1    3    3    0    0 -0.34713990231E+02  0.14103072511E+03  0.26054059077E+03  0.29828866218E+03  0.00000000000E+00 0.  1.
         15    1    3    3    0    0 -0.13178126020E+02 -0.51734860446E+01  0.17388161213E+02  0.22422669636E+02  0.00000000000E+00 0. -1.
         15    1    3    3    0    0 -0.69238613854E+01  0.77102139600E+01  0.23561959881E+02  0.25740108959E+02  0.00000000000E+00 0. -1.
        -16    1    3    3    0    0  0.26495683472E+02 -0.21235243633E+02  0.62158943281E+03  0.62251616830E+03  0.00000000000E+00 0.  1.
         16    1    1    2    0    0  0.17893946294E+03  0.71575349641E+02  0.18874496399E+03  0.26975363483E+03  0.00000000000E+00 0. -1.
    9900018    1    3    3    0    0 -0.17802114529E+03 -0.27810495376E+03  0.73030248458E+03  0.80665407136E+03  0.91187600000E+02 0.  0.
<mgrwt>
<rscale>  0 0.98142955E+03</rscale>
<asrwt>0</asrwt>
<pdfrwt beam="1">  1        1 0.33981622E+00 0.98142955E+03</pdfrwt>
<pdfrwt beam="2">  1       -1 0.16772100E-01 0.98142955E+03</pdfrwt>
<totfact> 0.59591307E+01</totfact>
</mgrwt>
</event>
<event>
10    1  0.2404379E-012  0.8934156E+03  0.7818608E-02  0.9433850E-01
          1   -1    0    0  501    0  0.00000000000E+00  0.00000000000E+00  0.32290122193E+03  0.32290122193E+03  0.00000000000E+00 0. -1.
         -1   -1    0    0    0  501 -0.00000000000E+00 -0.00000000000E+00 -0.61798420398E+03  0.61798420398E+03  0.00000000000E+00 0.  1.
    9900016    2    1    2    0    0 -0.91202984723E+02 -0.13023038639E+03 -0.20920971982E+03  0.76018635251E+03  0.71332786691E+03 0.  0.
        -15    1    3    3    0    0  0.16454740101E+02 -0.85296929187E+00 -0.98988772573E+01  0.19221701261E+02  0.00000000000E+00 0. -1.
        -15    1    3    3    0    0 -0.60354316724E+02  0.28756651767E+02 -0.20248074101E+03  0.21323235928E+03  0.00000000000E+00 0.  1.
         15    1    3    3    0    0  0.19768863805E+02 -0.86607131268E+01  0.24192919063E+01  0.21717939620E+02  0.00000000000E+00 0. -1.
         15    1    3    3    0    0 -0.43550605058E+02 -0.18023368220E+02 -0.93105161501E+02  0.10435548908E+03  0.00000000000E+00 0.  1.
        -16    1    3    3    0    0 -0.81613528040E+02 -0.19168834624E+03  0.15873227164E+03  0.26191816299E+03  0.00000000000E+00 0.  1.
         16    1    1    2    0    0  0.91202984723E+02  0.13023038639E+03 -0.85873262235E+02  0.18069907340E+03  0.00000000000E+00 0. -1.
    9900018    1    3    3    0    0  0.58091861193E+02  0.60238358723E+02 -0.64876503608E+02  0.13974070027E+03  0.91187600000E+02 0.  0.
<mgrwt>
<rscale>  0 0.89341559E+03</rscale>
<asrwt>0</asrwt>
<pdfrwt beam="1">  1        1 0.49677111E-01 0.89341559E+03</pdfrwt>
<pdfrwt beam="2">  1       -1 0.95074492E-01 0.89341559E+03</pdfrwt>
<totfact> 0.85859780E+01</totfact>
</mgrwt>
</event>
<event>
11    1  0.2404379E-012  0.9634069E+03  0.7818608E-02  0.9349616E-01
         -1   -1    0    0    0  501 -0.00000000000E+00  0.00000000000E+00  0.26082284466E+03  0.26082284466E+03  0.00000000000E+00 0.  1.
          1   -1    0    0  501    0  0.00000000000E+00 -0.00000000000E+00 -0.88963912609E+03  0.88963912609E+03  0.00000000000E+00 0. -1.
    9900016    2    1    2    0    0  0.73511234621E+01 -0.69334674726E+02 -0.72376749839E+03  0.10326609956E+04  0.73327212141E+03 0.  0.
         23    2    3    3    0    0  0.30868712669E+03  0.10663923750E+03 -0.27579319432E+03  0.44092707825E+03  0.10814403886E+03 0.  0.
        -15    1    4    4    0    0  0.94989793225E+02  0.63629302452E+02 -0.74544934514E+02  0.13648698183E+03  0.00000000000E+00 0. -1.
        -15    1    4    4    0    0  0.69217653134E+01  0.11072866496E+02 -0.14989728745E+02  0.19879918896E+02  0.00000000000E+00 0.  1.
         15    1    4    4    0    0  0.15199708398E+03  0.22031276061E+02 -0.16377740904E+03  0.22452512193E+03  0.00000000000E+00 0.  1.
         15    1    4    4    0    0  0.54778484169E+02  0.99057924928E+01 -0.22481122014E+02  0.60035055591E+02  0.00000000000E+00 0. -1.
        -16    1    1    2    0    0 -0.73511234621E+01  0.69334674726E+02  0.94951216967E+02  0.11780097512E+03  0.00000000000E+00 0.  1.
         16    1    3    3    0    0 -0.11678833291E+03 -0.12636902679E+03 -0.23652620360E+03  0.29249494119E+03  0.00000000000E+00 0. -1.
    9900018    1    3    3    0    0 -0.18454767032E+03 -0.49604885438E+02 -0.21144810048E+03  0.29923897619E+03  0.91187600000E+02 0.  0.
<mgrwt>
<rscale>  0 0.96340689E+03</rscale>
<asrwt>0</asrwt>
<pdfrwt beam="1">  1        1 0.13686756E+00 0.96340689E+03</pdfrwt>
<pdfrwt beam="2">  1       -1 0.40126591E-01 0.96340689E+03</pdfrwt>
<totfact> 0.11279035E+02</totfact>
</mgrwt>
</event>
<event>
10    1  0.2404379E-012  0.1213330E+04  0.7818608E-02  0.9101268E-01
          3   -1    0    0  501    0  0.00000000000E+00  0.00000000000E+00  0.48397937273E+03  0.48397937273E+03  0.00000000000E+00 0. -1.
         -3   -1    0    0    0  501 -0.00000000000E+00 -0.00000000000E+00 -0.76045082917E+03  0.76045082917E+03  0.00000000000E+00 0.  1.
    9900016    2    1    2    0    0 -0.25909490687E+03  0.33382949358E+02  0.12632278433E+03  0.76433876012E+03  0.70711505592E+03 0.  0.
        -15    1    3    3    0    0 -0.43408812194E+02 -0.34201876360E+01 -0.37938537164E+02  0.57752534678E+02  0.00000000000E+00 0. -1.
        -15    1    3    3    0    0  0.25137629766E+02 -0.16031724713E+03 -0.56148408263E+02  0.17171535723E+03  0.00000000000E+00 0. -1.
         15    1    3    3    0    0 -0.28504919400E+02 -0.10765048487E+02 -0.12051865283E+02  0.32766814855E+02  0.00000000000E+00 0.  1.
         15    1    3    3    0    0  0.79237134405E+01  0.24393559969E+02 -0.12034854007E+02  0.28331408607E+02  0.00000000000E+00 0.  1.
        -16    1    1    2    0    0  0.25909490687E+03 -0.33382949358E+02 -0.40279424077E+03  0.48009144178E+03  0.00000000000E+00 0.  1.
         16    1    3    3    0    0 -0.25850797139E+03  0.15783964016E+03  0.17000076259E+03  0.34733266843E+03  0.00000000000E+00 0. -1.
    9900018    1    3    3    0    0  0.38265452911E+02  0.25652232486E+02  0.74495686455E+02  0.12643997632E+03  0.91187600000E+02 0.  0.
<mgrwt>
<rscale>  0 0.12133302E+04</rscale>
<asrwt>0</asrwt>
<pdfrwt beam="1">  1        3 0.74458365E-01 0.12133302E+04</pdfrwt>
<pdfrwt beam="2">  1       -3 0.11699244E+00 0.12133302E+04</pdfrwt>
<totfact> 0.26505251E+00</totfact>
</mgrwt>
</event>
<event>
10    1  0.2404379E-012  0.8086297E+03  0.7818608E-02  0.9547609E-01
          1   -1    0    0  501    0  0.00000000000E+00  0.00000000000E+00  0.45545596000E+03  0.45545596000E+03  0.00000000000E+00 0. -1.
         -1   -1    0    0    0  501 -0.00000000000E+00 -0.00000000000E+00 -0.35891617150E+03  0.35891617150E+03  0.00000000000E+00 0.  1.
    9900016    2    1    2    0    0 -0.14120285314E+01 -0.58883123487E+02  0.16463607272E+03  0.72433702735E+03  0.70291526992E+03 0.  0.
        -15    1    3    3    0    0 -0.47797890720E+02 -0.91968107025E+02 -0.66953150245E+02  0.12339163422E+03  0.00000000000E+00 0.  1.
        -15    1    3    3    0    0 -0.12142809705E+02  0.16190449954E+00  0.34899746193E+01  0.12635424941E+02  0.00000000000E+00 0.  1.
         15    1    3    3    0    0  0.15949784992E+02 -0.35985290843E+02 -0.24694615242E+02  0.46466771142E+02  0.00000000000E+00 0. -1.
         15    1    3    3    0    0 -0.60045955068E+02 -0.27967514546E+02  0.54258521073E+01  0.66461556264E+02  0.00000000000E+00 0. -1.
        -16    1    1    2    0    0  0.14120285314E+01  0.58883123487E+02 -0.68096284219E+02  0.90035104157E+02  0.00000000000E+00 0.  1.
         16    1    3    3    0    0  0.19170467679E+03 -0.18836246214E+02  0.23344418136E+03  0.30265768301E+03  0.00000000000E+00 0. -1.
    9900018    1    3    3    0    0 -0.89079834824E+02  0.11571213064E+03  0.13923830123E+02  0.17272395777E+03  0.91187600000E+02 0.  0.
<mgrwt>
<rscale>  0 0.80862973E+03</rscale>
<asrwt>0</asrwt>
<pdfrwt beam="1">  1        1 0.70070148E-01 0.80862973E+03</pdfrwt>
<pdfrwt beam="2">  1       -1 0.55217872E-01 0.80862973E+03</pdfrwt>
<totfact> 0.16894414E+02</totfact>
</mgrwt>
</event>
<event>
10    1  0.2404379E-012  0.1145169E+04  0.7818608E-02  0.9162252E-01
         -2   -1    0    0    0  501 -0.00000000000E+00  0.00000000000E+00  0.51138428253E+03  0.51138428253E+03  0.00000000000E+00 0. -1.
          2   -1    0    0  501    0  0.00000000000E+00 -0.00000000000E+00 -0.64110898627E+03  0.64110898627E+03  0.00000000000E+00 0.  1.
    9900016    2    1    2    0    0  0.24914535302E+03  0.23863416223E+03  0.54672334728E+02  0.76131308256E+03  0.67645315815E+03 0.  0.
        -15    1    3    3    0    0  0.42153106104E+02 -0.12674668450E+02  0.10796131937E+02  0.45322048049E+02  0.00000000000E+00 0.  1.
        -15    1    3    3    0    0  0.58494763418E+01 -0.19552899831E+02 -0.15201119638E+02  0.25448110019E+02  0.00000000000E+00 0. -1.
         15    1    3    3    0    0 -0.32376104413E+02 -0.87109686209E+02 -0.10652045844E+03  0.14136094805E+03  0.00000000000E+00 0. -1.
         15    1    3    3    0    0 -0.17342822116E+02 -0.13753140680E+02 -0.75031520569E+01  0.23371342458E+02  0.00000000000E+00 0.  1.
        -16    1    1    2    0    0 -0.24914535302E+03 -0.23863416223E+03 -0.18439703846E+03  0.39118018624E+03  0.00000000000E+00 0.  1.
         16    1    3    3    0    0  0.92449008920E+02  0.14438254946E+03  0.15889862581E+03  0.23375609751E+03  0.00000000000E+00 0. -1.
    9900018    1    3    3    0    0  0.15841268818E+03  0.22734200794E+03  0.14202307110E+02  0.29205453647E+03  0.91187600000E+02 0.  0.
<mgrwt>
<rscale>  0 0.11451691E+04</rscale>
<asrwt>0</asrwt>
<pdfrwt beam="1">  1        2 0.98632151E-01 0.11451691E+04</pdfrwt>
<pdfrwt beam="2">  1       -2 0.78674506E-01 0.11451691E+04</pdfrwt>
<totfact> 0.65030107E+01</totfact>
</mgrwt>
</event>
<event>
10    1  0.2404379E-012  0.8196417E+03  0.7818608E-02  0.9532014E-01
         -3   -1    0    0    0  501 -0.00000000000E+00  0.00000000000E+00  0.42580096734E+03  0.42580096734E+03  0.00000000000E+00 0.  1.
          3   -1    0    0  501    0  0.00000000000E+00 -0.00000000000E+00 -0.39444046750E+03  0.39444046750E+03  0.00000000000E+00 0. -1.
    9900016    2    1    2    0    0  0.33113108679E+02 -0.97662878847E+02 -0.84346973671E+02  0.66524874050E+03  0.65177216793E+03 0.  0.
        -15    1    3    3    0    0  0.55068909856E+02  0.10844910715E+03  0.82275338376E+02  0.14684353911E+03  0.00000000000E+00 0.  1.
        -15    1    3    3    0    0  0.33825972130E+02  0.19693014199E+00 -0.38420157468E+02  0.51189292551E+02  0.00000000000E+00 0.  1.
         15    1    3    3    0    0  0.56449225214E+01  0.24281039733E+02  0.55714383165E+02  0.61037091447E+02  0.00000000000E+00 0. -1.
         15    1    3    3    0    0  0.34216386321E+02  0.21355548057E+02 -0.39292328114E+02  0.56309036346E+02  0.00000000000E+00 0. -1.
        -16    1    1    2    0    0 -0.33113108679E+02  0.97662878847E+02  0.11570747351E+03  0.15499269434E+03  0.00000000000E+00 0.  1.
         16    1    3    3    0    0 -0.26499421340E+02 -0.58218469563E+02 -0.10270499649E+03  0.12099556122E+03  0.00000000000E+00 0. -1.
    9900018    1    3    3    0    0 -0.69143660809E+02 -0.19372703437E+03 -0.41919213139E+02  0.22887421982E+03  0.91187600000E+02 0.  0.
<mgrwt>
<rscale>  0 0.81964171E+03</rscale>
<asrwt>0</asrwt>
<pdfrwt beam="1">  1        3 0.60683149E-01 0.81964171E+03</pdfrwt>
<pdfrwt beam="2">  1       -3 0.65507841E-01 0.81964171E+03</pdfrwt>
<totfact> 0.15724310E+01</totfact>
</mgrwt>
</event>
<event>
10    1  0.2404379E-012  0.8819500E+03  0.7818608E-02  0.9448430E-01
         -1   -1    0    0    0  501 -0.00000000000E+00  0.00000000000E+00  0.39387972365E+03  0.39387972365E+03  0.00000000000E+00 0.  1.
          1   -1    0    0  501    0  0.00000000000E+00 -0.00000000000E+00 -0.49370138066E+03  0.49370138066E+03  0.00000000000E+00 0. -1.
    9900016    2    1    2    0    0 -0.94945863795E+02 -0.11989496430E+03 -0.12354752636E+03  0.73281535747E+03  0.70594959973E+03 0.  0.
        -15    1    3    3    0    0 -0.19673768551E+02 -0.47396262888E+01  0.10507353065E+02  0.22801879194E+02  0.00000000000E+00 0.  1.
        -15    1    3    3    0    0  0.26177991895E+02 -0.45908613568E+02 -0.11300993375E+03  0.12475629517E+03  0.00000000000E+00 0.  1.
         15    1    3    3    0    0 -0.18670541371E+03  0.30272450476E+02  0.28831632957E+02  0.19132850238E+03  0.00000000000E+00 0. -1.
         15    1    3    3    0    0 -0.50154718780E+02 -0.42462899377E+02 -0.14419096960E+03  0.15846018223E+03  0.00000000000E+00 0. -1.
        -16    1    1    2    0    0  0.94945863795E+02  0.11989496430E+03  0.23725869350E+02  0.15476574683E+03  0.00000000000E+00 0.  1.
         16    1    3    3    0    0  0.42961530131E+02  0.19891086125E+02  0.67060315730E+02  0.82087966988E+02  0.00000000000E+00 0. -1.
    9900018    1    3    3    0    0  0.92448515218E+02 -0.76947361666E+02  0.27254075234E+02  0.15338053150E+03  0.91187600000E+02 0.  0.
<mgrwt>
<rscale>  0 0.88195003E+03</rscale>
<asrwt>0</asrwt>
<pdfrwt beam="1">  1        1 0.75954058E-01 0.88195003E+03</pdfrwt>
<pdfrwt beam="2">  1       -1 0.60596881E-01 0.88195003E+03</pdfrwt>
<totfact> 0.12568276E+02</totfact>
</mgrwt>
</event>
<event>
11    1  0.2404379E-012  0.9221310E+03  0.7818608E-02  0.9398332E-01
         -1   -1    0    0    0  501 -0.00000000000E+00  0.00000000000E+00  0.15689706106E+03  0.15689706106E+03  0.00000000000E+00 0.  1.
          1   -1    0    0  501    0  0.00000000000E+00 -0.00000000000E+00 -0.13549101182E+04  0.13549101182E+04  0.00000000000E+00 0. -1.
    9900016    2    1    2    0    0  0.11546118733E+03 -0.12389268040E+03 -0.82506904038E+03  0.11022123530E+04  0.71095180408E+03 0.  0.
         23    2    3    3    0    0  0.16792445380E+03 -0.56443277895E+02 -0.10994108616E+03  0.24415173910E+03  0.12703764590E+03 0.  0.
        -15    1    4    4    0    0  0.48997213035E+02 -0.34211871032E+02 -0.80515239815E+01  0.60299303836E+02  0.00000000000E+00 0.  1.
        -15    1    4    4    0    0  0.36623035305E+02 -0.68033109208E+01 -0.18105383399E+02  0.41416623021E+02  0.00000000000E+00 0. -1.
         15    1    4    4    0    0  0.56167098244E+02  0.87175584434E+01 -0.63199206763E+01  0.57189860532E+02  0.00000000000E+00 0.  1.
         15    1    4    4    0    0  0.26137107213E+02 -0.24145654386E+02 -0.77464258108E+02  0.85245951712E+02  0.00000000000E+00 0. -1.
        -16    1    3    3    0    0 -0.29178693894E+02  0.19333532234E+03 -0.32883119044E+03  0.38257011756E+03  0.00000000000E+00 0.  1.
         16    1    1    2    0    0 -0.11546118733E+03  0.12389268040E+03 -0.37294401673E+03  0.40959482620E+03  0.00000000000E+00 0. -1.
    9900018    1    3    3    0    0 -0.23284572573E+02 -0.26078472485E+03 -0.38629676378E+03  0.47549049637E+03  0.91187600000E+02 0.  0.
<mgrwt>
<rscale>  0 0.92213104E+03</rscale>
<asrwt>0</asrwt>
<pdfrwt beam="1">  1        1 0.20844772E+00 0.92213104E+03</pdfrwt>
<pdfrwt beam="2">  1       -1 0.24138009E-01 0.92213104E+03</pdfrwt>
<totfact> 0.12375035E+02</totfact>
</mgrwt>
</event>
<event>
11    1  0.2404379E-012  0.1071595E+04  0.7818608E-02  0.9233328E-01
         -1   -1    0    0    0  501 -0.00000000000E+00  0.00000000000E+00  0.12216216936E+03  0.12216216936E+03  0.00000000000E+00 0.  1.
          1   -1    0    0  501    0  0.00000000000E+00 -0.00000000000E+00 -0.23499837320E+04  0.23499837320E+04  0.00000000000E+00 0. -1.
    9900016    2    1    2    0    0  0.16839113576E+03  0.16773348617E+02 -0.10352660147E+04  0.12676436578E+04  0.71169361535E+03 0.  0.
         23    2    3    3    0    0 -0.87517950230E+02  0.31551685546E+02  0.18776025661E+02  0.15692706314E+03  0.12497465156E+03 0.  0.
        -15    1    4    4    0    0 -0.10898109292E+01 -0.21771745396E+02 -0.81549255276E+01  0.23274436531E+02  0.00000000000E+00 0. -1.
        -15    1    4    4    0    0  0.11294817903E+02  0.18659106889E+02 -0.77767516623E+01  0.23156274479E+02  0.00000000000E+00 0.  1.
         15    1    4    4    0    0 -0.87062484467E+02  0.30899220701E+02  0.35930993479E+02  0.99124539514E+02  0.00000000000E+00 0.  1.
         15    1    4    4    0    0 -0.10660472737E+02  0.37651033523E+01 -0.12232906287E+01  0.11371812617E+02  0.00000000000E+00 0. -1.
        -16    1    3    3    0    0  0.16648259989E+03  0.52375595593E+02 -0.79753282550E+03  0.81640569990E+03  0.00000000000E+00 0.  1.
         16    1    1    2    0    0 -0.16839113576E+03 -0.16773348617E+02 -0.11925555479E+04  0.12045022436E+04  0.00000000000E+00 0. -1.
    9900018    1    3    3    0    0  0.89426486098E+02 -0.67153932522E+02 -0.25650921488E+03  0.29431089477E+03  0.91187600000E+02 0.  0.
<mgrwt>
<rscale>  0 0.10715953E+04</rscale>
<asrwt>0</asrwt>
<pdfrwt beam="1">  1        1 0.36153592E+00 0.10715953E+04</pdfrwt>
<pdfrwt beam="2">  1       -1 0.18794182E-01 0.10715953E+04</pdfrwt>
<totfact> 0.39259714E+01</totfact>
</mgrwt>
</event>
<event>
10    1  0.2404379E-012  0.1418108E+04  0.7818608E-02  0.8940814E-01
          2   -1    0    0  501    0  0.00000000000E+00  0.00000000000E+00  0.32398931214E+03  0.32398931214E+03  0.00000000000E+00 0. -1.
         -2   -1    0    0    0  501 -0.00000000000E+00 -0.00000000000E+00 -0.15517723182E+04  0.15517723182E+04  0.00000000000E+00 0.  1.
    9900016    2    1    2    0    0  0.28100359681E+03 -0.18254574862E+03 -0.22494895927E+03  0.81842436288E+03  0.71199047165E+03 0.  0.
        -15    1    3    3    0    0  0.13620204007E+02  0.35531034992E+01  0.59883996586E+02  0.61516075532E+02  0.00000000000E+00 0. -1.
        -15    1    3    3    0    0  0.40351835712E+02 -0.56425199433E+02 -0.83111562215E+02  0.10825712702E+03  0.00000000000E+00 0.  1.
         15    1    3    3    0    0  0.44821520562E+02  0.27262509717E+02 -0.10444988323E+03  0.11688452100E+03  0.00000000000E+00 0. -1.
         15    1    3    3    0    0 -0.19611470418E+02 -0.21812109487E+02 -0.80516680913E+01  0.30417219651E+02  0.00000000000E+00 0.  1.
        -16    1    1    2    0    0 -0.28100359681E+03  0.18254574862E+03 -0.10028340468E+04  0.10573372675E+04  0.00000000000E+00 0.  1.
         16    1    3    3    0    0 -0.90523108784E+02  0.87930900980E+01 -0.13198854791E+03  0.16028951443E+03  0.00000000000E+00 0. -1.
    9900018    1    3    3    0    0  0.29234461573E+03 -0.14391714302E+03  0.42768705587E+02  0.34105990525E+03  0.91187600000E+02 0.  0.
<mgrwt>
<rscale>  0 0.14181081E+04</rscale>
<asrwt>0</asrwt>
<pdfrwt beam="1">  1        2 0.49844510E-01 0.14181081E+04</pdfrwt>
<pdfrwt beam="2">  1       -2 0.23873420E+00 0.14181081E+04</pdfrwt>
<totfact> 0.73897391E+00</totfact>
</mgrwt>
</event>
<event>
10    1  0.2404379E-012  0.9141351E+03  0.7818608E-02  0.9408082E-01
          2   -1    0    0  501    0  0.00000000000E+00  0.00000000000E+00  0.28668070244E+04  0.28668070244E+04  0.00000000000E+00 0. -1.
         -2   -1    0    0    0  501 -0.00000000000E+00 -0.00000000000E+00 -0.72872277560E+02  0.72872277560E+02  0.00000000000E+00 0.  1.
    9900016    2    1    2    0    0  0.14218824048E+02 -0.24507217849E+02  0.28161761549E+04  0.29036590450E+04  0.70681322549E+03 0.  0.
        -15    1    3    3    0    0 -0.83139640743E+01  0.10137561821E+02  0.22395444887E+02  0.25950878790E+02  0.00000000000E+00 0.  1.
        -15    1    3    3    0    0  0.14507501838E+03 -0.35861693400E+02  0.28893200692E+03  0.32529144876E+03  0.00000000000E+00 0.  1.
         15    1    3    3    0    0  0.78373398061E+01 -0.16804518369E+03  0.76136297457E+03  0.77972699498E+03  0.00000000000E+00 0. -1.
         15    1    3    3    0    0 -0.52932458961E+02  0.82342408660E+02  0.38744304736E+03  0.39961760775E+03  0.00000000000E+00 0. -1.
        -16    1    1    2    0    0 -0.14218824048E+02  0.24507217849E+02 -0.22241407992E+02  0.36020256988E+02  0.00000000000E+00 0.  1.
         16    1    3    3    0    0 -0.58153895293E+02  0.10291672551E+03  0.64175222614E+03  0.65254857879E+03  0.00000000000E+00 0. -1.
    9900018    1    3    3    0    0 -0.19293215806E+02 -0.15997036745E+02  0.71429045499E+03  0.72052353594E+03  0.91187600000E+02 0.  0.
<mgrwt>
<rscale>  0 0.91413513E+03</rscale>
<asrwt>0</asrwt>
<pdfrwt beam="1">  1        2 0.44104715E+00 0.91413513E+03</pdfrwt>
<pdfrwt beam="2">  1       -2 0.11211122E-01 0.91413513E+03</pdfrwt>
<totfact> 0.12366779E+02</totfact>
</mgrwt>
</event>
