<event>
13    1  0.6612767E-007  0.4377840E+04  0.7818608E-02  0.7932379E-01
          2   -1    0    0  501    0  0.00000000000E+00  0.00000000000E+00  0.19163333682E+04  0.19163333682E+04  0.00000000000E+00 0. -1.
         -2   -1    0    0    0  501 -0.00000000000E+00 -0.00000000000E+00 -0.25002802903E+04  0.25002802903E+04  0.00000000000E+00 0.  1.
    9900016    2    1    2    0    0 -0.83203470830E+03  0.38700741564E+03 -0.10424981556E+04  0.23078437594E+04  0.18431722431E+04 0.  0.
         23    2    3    3    0    0 -0.75977576208E+03  0.16358475158E+03  0.37708809699E+03  0.86896774992E+03  0.94288588479E+02 0.  0.
    9900016    2    1    2    0    0  0.83203470830E+03 -0.38700741564E+03  0.45855123351E+03  0.21087698990E+04  0.18424398926E+04 0.  0.
         24    2    5    5    0    0 -0.17334778493E+03  0.58820711215E+03  0.21592564576E+03  0.65430262210E+03  0.73830721629E+02 0.  0.
        -15    1    4    4    0    0 -0.66628075560E+02  0.31795264569E+02  0.61299537219E+02  0.95957660273E+02  0.00000000000E+00 0.  1.
        -15    1    6    6    0    0 -0.48730354616E+02  0.10196864131E+03  0.63918205632E+02  0.12983754573E+03  0.00000000000E+00 0.  1.
         15    1    5    5    0    0  0.71426357707E+03 -0.68005100519E+03  0.28838147180E+03  0.10275240632E+04  0.00000000000E+00 0. -1.
         15    1    4    4    0    0 -0.69314768652E+03  0.13178948701E+03  0.31578855977E+03  0.77301008965E+03  0.00000000000E+00 0. -1.
        -16    1    3    3    0    0 -0.72258946216E+02  0.22342266406E+03 -0.14195862526E+04  0.14388760095E+04  0.00000000000E+00 0.  1.
         16    1    6    6    0    0 -0.12461743031E+03  0.48623847084E+03  0.15200744013E+03  0.52446507636E+03  0.00000000000E+00 0. -1.
    9900018    1    5    5    0    0  0.29111891616E+03 -0.29516352260E+03 -0.45755884053E+02  0.42694321372E+03  0.91187600000E+02 0.  0.
<mgrwt>
<rscale>  0 0.43778399E+04</rscale>
<asrwt>0</asrwt>
<pdfrwt beam="1">  1        2 0.29482052E+00 0.43778399E+04</pdfrwt>
<pdfrwt beam="2">  1       -2 0.38465851E+00 0.43778399E+04</pdfrwt>
<totfact> 0.53151835E-02</totfact>
</mgrwt>
</event>
<event>
13    1  0.6612767E-007  0.4306299E+04  0.7818608E-02  0.7945454E-01
          1   -1    0    0  501    0  0.00000000000E+00  0.00000000000E+00  0.19119320120E+04  0.19119320120E+04  0.00000000000E+00 0. -1.
         -1   -1    0    0    0  501 -0.00000000000E+00 -0.00000000000E+00 -0.24248003332E+04  0.24248003332E+04  0.00000000000E+00 0.  1.
    9900016    2    1    2    0    0 -0.71313278546E+02  0.91913447085E+03 -0.86864011367E+03  0.22472393180E+04  0.18562475982E+04 0.  0.
         23    2    3    3    0    0 -0.22844565200E+03 -0.39191044696E+03 -0.80112515749E+03  0.92508666847E+03  0.90568271775E+02 0.  0.
    9900016    2    1    2    0    0  0.71313278546E+02 -0.91913447085E+03  0.35577179246E+03  0.20894930271E+04  0.18410632208E+04 0.  0.
         24    2    5    5    0    0  0.49032591890E+02 -0.11582773601E+04  0.90022150612E+01  0.11620662737E+04  0.79412509293E+02 0.  0.
        -15    1    6    6    0    0 -0.22363800748E+01 -0.31003257830E+02 -0.12292048589E+02  0.33426005601E+02  0.00000000000E+00 0.  1.
        -15    1    4    4    0    0 -0.11042274579E+03 -0.27463244399E+03 -0.49970080449E+03  0.58079002754E+03  0.00000000000E+00 0. -1.
         15    1    5    5    0    0  0.73605327367E+02  0.17085450313E+03 -0.25341728313E+03  0.31437131683E+03  0.00000000000E+00 0. -1.
         15    1    4    4    0    0 -0.11802290622E+03 -0.11727800297E+03 -0.30142435300E+03  0.34429664093E+03  0.00000000000E+00 0.  1.
        -16    1    3    3    0    0  0.15713237346E+03  0.13110449178E+04 -0.67514956178E+02  0.13221526495E+04  0.00000000000E+00 0.  1.
         16    1    6    6    0    0  0.51268971965E+02 -0.11272741022E+04  0.21294263650E+02  0.11286402681E+04  0.00000000000E+00 0. -1.
    9900018    1    5    5    0    0 -0.51324640711E+02  0.68288386083E+02  0.60018686054E+03  0.61305543662E+03  0.91187600000E+02 0.  0.
<mgrwt>
<rscale>  0 0.43062993E+04</rscale>
<asrwt>0</asrwt>
<pdfrwt beam="1">  1        1 0.29414339E+00 0.43062993E+04</pdfrwt>
<pdfrwt beam="2">  1       -1 0.37304620E+00 0.43062993E+04</pdfrwt>
<totfact> 0.28444384E-02</totfact>
</mgrwt>
</event>
<event>
13    1  0.6612767E-007  0.5153618E+04  0.7818608E-02  0.7805237E-01
          1   -1    0    0  501    0  0.00000000000E+00  0.00000000000E+00  0.19133479663E+04  0.19133479663E+04  0.00000000000E+00 0. -1.
         -1   -1    0    0    0  501 -0.00000000000E+00 -0.00000000000E+00 -0.34703281573E+04  0.34703281573E+04  0.00000000000E+00 0.  1.
    9900016    2    1    2    0    0 -0.16312759381E+04  0.68892412781E+03 -0.42776207907E+03  0.25897214273E+04  0.18406517962E+04 0.  0.
         23    2    3    3    0    0  0.11571856672E+03  0.49553377897E+03  0.39324574608E+03  0.64976176904E+03  0.92755737919E+02 0.  0.
    9900016    2    1    2    0    0  0.16312759381E+04 -0.68892412781E+03 -0.11292181119E+04  0.27939546963E+04  0.18426534293E+04 0.  0.
        -24    2    5    5    0    0 -0.26923307701E+03  0.20437118400E+03  0.18820001785E+02  0.34750086023E+03  0.78413167170E+02 0.  0.
        -15    1    4    4    0    0  0.98555090012E+02  0.36724525884E+03  0.33902822955E+03  0.50943333846E+03  0.00000000000E+00 0.  1.
        -15    1    5    5    0    0  0.13895944362E+04 -0.41455231328E+03 -0.70002453752E+03  0.16102362158E+04  0.00000000000E+00 0.  1.
         15    1    6    6    0    0 -0.14996484876E+03  0.14130233775E+03 -0.20249905514E+02  0.20704073317E+03  0.00000000000E+00 0. -1.
         15    1    4    4    0    0  0.17163476703E+02  0.12828852013E+03  0.54217516529E+02  0.14032843058E+03  0.00000000000E+00 0. -1.
        -16    1    6    6    0    0 -0.11926822824E+03  0.63068846248E+02  0.39069907300E+02  0.14046012705E+03  0.00000000000E+00 0.  1.
         16    1    3    3    0    0 -0.17469945048E+04  0.19339034884E+03 -0.82100782515E+03  0.19399596583E+04  0.00000000000E+00 0. -1.
    9900018    1    5    5    0    0  0.51091457890E+03 -0.47874299853E+03 -0.44801357621E+03  0.83621762026E+03  0.91187600000E+02 0.  0.
<mgrwt>
<rscale>  0 0.51536183E+04</rscale>
<asrwt>0</asrwt>
<pdfrwt beam="1">  1        1 0.29436123E+00 0.51536183E+04</pdfrwt>
<pdfrwt beam="2">  1       -1 0.53389664E+00 0.51536183E+04</pdfrwt>
<totfact> 0.22673273E-03</totfact>
</mgrwt>
</event>
<event>
13    1  0.6612767E-007  0.4300043E+04  0.7818608E-02  0.7946610E-01
         -2   -1    0    0    0  501 -0.00000000000E+00  0.00000000000E+00  0.25813825377E+04  0.25813825377E+04  0.00000000000E+00 0. -1.
          2   -1    0    0  501    0  0.00000000000E+00 -0.00000000000E+00 -0.17907428631E+04  0.17907428631E+04  0.00000000000E+00 0.  1.
    9900016    2    1    2    0    0 -0.28409814421E+03  0.52074079189E+03  0.13395681889E+04  0.23569278295E+04  0.18462890167E+04 0.  0.
         23    2    3    3    0    0  0.42062057935E+02 -0.41941396991E+03 -0.23739732273E+03  0.49223169385E+03  0.90869448725E+02 0.  0.
    9900016    2    1    2    0    0  0.28409814421E+03 -0.52074079189E+03 -0.54892851431E+03  0.20151975712E+04  0.18460270879E+04 0.  0.
        -24    2    5    5    0    0 -0.35034214685E+03 -0.36458652362E+03  0.17843557975E+03  0.54198234667E+03  0.79010473473E+02 0.  0.
        -15    1    4    4    0    0 -0.18108702629E+00 -0.29077061718E+03 -0.12600762432E+03  0.31689983590E+03  0.00000000000E+00 0.  1.
        -15    1    5    5    0    0  0.65402792890E+03  0.36680939987E+03 -0.43221812838E+03  0.86551382318E+03  0.00000000000E+00 0.  1.
         15    1    4    4    0    0  0.42243144962E+02 -0.12864335273E+03 -0.11138969841E+03  0.17533185794E+03  0.00000000000E+00 0. -1.
         15    1    6    6    0    0 -0.10833012633E+03 -0.63908225489E+02  0.42063983041E+02  0.13262373930E+03  0.00000000000E+00 0. -1.
        -16    1    6    6    0    0 -0.24201202052E+03 -0.30067829813E+03  0.13637159671E+03  0.40935860737E+03  0.00000000000E+00 0.  1.
         16    1    3    3    0    0 -0.32616020215E+03  0.94015476180E+03  0.15769655116E+04  0.18646961357E+04  0.00000000000E+00 0. -1.
    9900018    1    5    5    0    0 -0.19587637837E+02 -0.52296366815E+03 -0.29514596567E+03  0.60770140135E+03  0.91187600000E+02 0.  0.
<mgrwt>
<rscale>  0 0.43000430E+04</rscale>
<asrwt>0</asrwt>
<pdfrwt beam="1">  1        2 0.27549890E+00 0.43000430E+04</pdfrwt>
<pdfrwt beam="2">  1       -2 0.39713578E+00 0.43000430E+04</pdfrwt>
<totfact> 0.52095775E-02</totfact>
</mgrwt>
</event>
<event>
13    1  0.6612767E-007  0.4210240E+04  0.7818608E-02  0.7963427E-01
          2   -1    0    0  501    0  0.00000000000E+00  0.00000000000E+00  0.16628129201E+04  0.16628129201E+04  0.00000000000E+00 0. -1.
         -2   -1    0    0    0  501 -0.00000000000E+00 -0.00000000000E+00 -0.26650808418E+04  0.26650808418E+04  0.00000000000E+00 0.  1.
    9900016    2    1    2    0    0  0.40705110076E+03  0.14856880880E+03 -0.14562199457E+04  0.23859909288E+04  0.18397317448E+04 0.  0.
         23    2    3    3    0    0  0.43920409349E+03  0.47149813976E+03  0.21367443560E+03  0.68485471664E+03  0.90324343062E+02 0.  0.
    9900016    2    1    2    0    0 -0.40705110076E+03 -0.14856880880E+03  0.45395202402E+03  0.19419028331E+04  0.18377026102E+04 0.  0.
         24    2    5    5    0    0 -0.40779343861E+03 -0.39366410691E+03  0.15584003211E+03  0.59329752253E+03  0.80305149230E+02 0.  0.
        -15    1    6    6    0    0 -0.99745106558E+02 -0.14658048342E+03  0.39918442678E+02  0.18173719066E+03  0.00000000000E+00 0.  1.
        -15    1    4    4    0    0  0.64521908476E+02  0.54743067557E+02 -0.12752374929E+01  0.84625683746E+02  0.00000000000E+00 0.  1.
         15    1    5    5    0    0 -0.15166192276E+03 -0.13515867251E+03 -0.44836435999E+03  0.49223958078E+03  0.00000000000E+00 0. -1.
         15    1    4    4    0    0  0.37468218501E+03  0.41675507220E+03  0.21494967310E+03  0.60022903290E+03  0.00000000000E+00 0. -1.
        -16    1    3    3    0    0 -0.32152992726E+02 -0.32292933096E+03 -0.16698943813E+04  0.17011362122E+04  0.00000000000E+00 0.  1.
         16    1    6    6    0    0 -0.30804833205E+03 -0.24708362348E+03  0.11592158944E+03  0.41156033187E+03  0.00000000000E+00 0. -1.
    9900018    1    5    5    0    0  0.15240426060E+03  0.38025397062E+03  0.74647635190E+03  0.85636572979E+03  0.91187600000E+02 0.  0.
<mgrwt>
<rscale>  0 0.42102403E+04</rscale>
<asrwt>0</asrwt>
<pdfrwt beam="1">  1        2 0.25581738E+00 0.42102403E+04</pdfrwt>
<pdfrwt beam="2">  1       -2 0.41001243E+00 0.42102403E+04</pdfrwt>
<totfact> 0.50896658E-02</totfact>
</mgrwt>
</event>
<event>
13    1  0.6612767E-007  0.4823065E+04  0.7818608E-02  0.7856396E-01
          2   -1    0    0  501    0  0.00000000000E+00  0.00000000000E+00  0.37795747265E+04  0.37795747265E+04  0.00000000000E+00 0. -1.
         -2   -1    0    0    0  501 -0.00000000000E+00 -0.00000000000E+00 -0.15386623002E+04  0.15386623002E+04  0.00000000000E+00 0.  1.
    9900016    2    1    2    0    0 -0.56364507681E+03 -0.27123915792E+03 -0.45321524232E+03  0.20037210516E+04  0.18488449214E+04 0.  0.
         23    2    3    3    0    0  0.58230209648E+02  0.32272296304E+03  0.57220800017E+03  0.66543382558E+03  0.88539892581E+02 0.  0.
    9900016    2    1    2    0    0  0.56364507681E+03  0.27123915792E+03  0.26941276686E+04  0.33145159752E+04  0.18265885694E+04 0.  0.
         24    2    5    5    0    0 -0.11848330750E+03 -0.26562381336E+03  0.40888102019E+03  0.50831121160E+03  0.81254506235E+02 0.  0.
        -15    1    4    4    0    0  0.80093750355E+02  0.28506278541E+03  0.49589997372E+03  0.57757474357E+03  0.00000000000E+00 0.  1.
        -15    1    6    6    0    0 -0.81628601937E+02 -0.86503234739E+02  0.16970641708E+03  0.20723490602E+03  0.00000000000E+00 0.  1.
         15    1    5    5    0    0  0.89925122038E+03  0.81935526410E+02  0.70677385083E+03  0.11466889134E+04  0.00000000000E+00 0. -1.
         15    1    4    4    0    0 -0.21863540707E+02  0.37660177629E+02  0.76308026443E+02  0.87859082006E+02  0.00000000000E+00 0. -1.
        -16    1    3    3    0    0 -0.62187528646E+03 -0.59396212096E+03 -0.10254232425E+04  0.13382872260E+04  0.00000000000E+00 0.  1.
         16    1    6    6    0    0 -0.36854705564E+02 -0.17912057863E+03  0.23917460311E+03  0.30107630558E+03  0.00000000000E+00 0. -1.
    9900018    1    5    5    0    0 -0.21712283607E+03  0.45492744488E+03  0.15784727976E+04  0.16595158502E+04  0.91187600000E+02 0.  0.
<mgrwt>
<rscale>  0 0.48230651E+04</rscale>
<asrwt>0</asrwt>
<pdfrwt beam="1">  1        2 0.58147303E+00 0.48230651E+04</pdfrwt>
<pdfrwt beam="2">  1       -2 0.23671728E+00 0.48230651E+04</pdfrwt>
<totfact> 0.29078555E-02</totfact>
</mgrwt>
</event>
<event>
13    1  0.6612767E-007  0.4059034E+04  0.7818608E-02  0.7992742E-01
         -2   -1    0    0    0  501 -0.00000000000E+00  0.00000000000E+00  0.98753003756E+03  0.98753003756E+03  0.00000000000E+00 0.  1.
          2   -1    0    0  501    0  0.00000000000E+00 -0.00000000000E+00 -0.41709510952E+04  0.41709510952E+04  0.00000000000E+00 0. -1.
    9900016    2    1    2    0    0 -0.71834071102E+03  0.34372290759E+03 -0.12248055624E+04  0.23527398793E+04  0.18442010356E+04 0.  0.
         23    2    3    3    0    0  0.22046299474E+03 -0.59548763410E+03 -0.62530919058E+03  0.89573447799E+03  0.90106696854E+02 0.  0.
    9900016    2    1    2    0    0  0.71834071102E+03 -0.34372290759E+03 -0.19586154953E+04  0.28057412535E+04  0.18444106129E+04 0.  0.
         24    2    5    5    0    0  0.23744970935E+03  0.43817301696E+03 -0.13676563860E+04  0.14577144182E+04  0.77906211088E+02 0.  0.
        -15    1    6    6    0    0  0.15006638178E+03  0.34663559581E+03 -0.10397763663E+04  0.11062599365E+04  0.00000000000E+00 0.  1.
        -15    1    4    4    0    0  0.22395405113E+03 -0.58365065485E+03 -0.59510718781E+03  0.86310837611E+03  0.00000000000E+00 0. -1.
         15    1    5    5    0    0  0.57992247898E+02 -0.72578139105E+03 -0.18297444666E+03  0.75073389196E+03  0.00000000000E+00 0. -1.
         15    1    4    4    0    0 -0.34910563900E+01 -0.11836979245E+02 -0.30202002772E+02  0.32626101879E+02  0.00000000000E+00 0.  1.
        -16    1    3    3    0    0 -0.93880370576E+03  0.93921054168E+03 -0.59949637181E+03  0.14570054013E+04  0.00000000000E+00 0.  1.
         16    1    6    6    0    0  0.87383327572E+02  0.91537421143E+02 -0.32788001972E+03  0.35145448175E+03  0.00000000000E+00 0. -1.
    9900018    1    5    5    0    0  0.42289875377E+03 -0.56114533499E+02 -0.40798466264E+03  0.59729294333E+03  0.91187600000E+02 0.  0.
<mgrwt>
<rscale>  0 0.40590341E+04</rscale>
<asrwt>0</asrwt>
<pdfrwt beam="1">  1        2 0.64168477E+00 0.40590341E+04</pdfrwt>
<pdfrwt beam="2">  1       -2 0.15192770E+00 0.40590341E+04</pdfrwt>
<totfact> 0.55754856E-02</totfact>
</mgrwt>
</event>
<event>
13    1  0.6612767E-007  0.4267520E+04  0.7818608E-02  0.7952651E-01
          1   -1    0    0  501    0  0.00000000000E+00  0.00000000000E+00  0.25799438700E+04  0.25799438700E+04  0.00000000000E+00 0. -1.
         -1   -1    0    0    0  501 -0.00000000000E+00 -0.00000000000E+00 -0.17647402537E+04  0.17647402537E+04  0.00000000000E+00 0.  1.
    9900016    2    1    2    0    0 -0.54855391030E+03  0.90028065035E+03  0.21922155577E+03  0.21332297977E+04  0.18415196544E+04 0.  0.
         23    2    3    3    0    0  0.23712385278E+03 -0.85014400600E+02 -0.58035272235E+03  0.64077714822E+03  0.10164104225E+03 0.  0.
    9900016    2    1    2    0    0  0.54855391030E+03 -0.90028065035E+03  0.59598206049E+03  0.22114543259E+04  0.18503834676E+04 0.  0.
         24    2    5    5    0    0  0.73785261139E+03 -0.36589265067E+03 -0.10508938757E+03  0.83422945690E+03  0.81185586414E+02 0.  0.
        -15    1    4    4    0    0  0.10324558022E+03 -0.16117536980E+02 -0.35256774799E+03  0.36772740142E+03  0.00000000000E+00 0.  1.
        -15    1    6    6    0    0  0.53430382747E+03 -0.25983965786E+03 -0.39143887135E+02  0.59542377492E+03  0.00000000000E+00 0.  1.
         15    1    5    5    0    0 -0.49121320256E+03  0.74634871855E+02  0.34097786973E+03  0.60259993537E+03  0.00000000000E+00 0. -1.
         15    1    4    4    0    0  0.13387827256E+03 -0.68896863621E+02 -0.22778497436E+03  0.27304974679E+03  0.00000000000E+00 0. -1.
        -16    1    3    3    0    0 -0.78567776308E+03  0.98529505095E+03  0.79957427812E+03  0.14924526495E+04  0.00000000000E+00 0.  1.
         16    1    6    6    0    0  0.20354878392E+03 -0.10605299281E+03 -0.65945500433E+02  0.23880568198E+03  0.00000000000E+00 0. -1.
    9900018    1    5    5    0    0  0.30191450146E+03 -0.60902287154E+03  0.36009357833E+03  0.77462493363E+03  0.91187600000E+02 0.  0.
<mgrwt>
<rscale>  0 0.42675196E+04</rscale>
<asrwt>0</asrwt>
<pdfrwt beam="1">  1        1 0.39691444E+00 0.42675196E+04</pdfrwt>
<pdfrwt beam="2">  1       -1 0.27149850E+00 0.42675196E+04</pdfrwt>
<totfact> 0.46109544E-02</totfact>
</mgrwt>
</event>
<event>
13    1  0.6612767E-007  0.5368342E+04  0.7818608E-02  0.7774070E-01
         -1   -1    0    0    0  501 -0.00000000000E+00  0.00000000000E+00  0.25069638549E+04  0.25069638549E+04  0.00000000000E+00 0.  1.
          1   -1    0    0  501    0  0.00000000000E+00 -0.00000000000E+00 -0.28739046603E+04  0.28739046603E+04  0.00000000000E+00 0. -1.
    9900016    2    1    2    0    0 -0.16008465286E+04  0.68810774461E+03 -0.10581539124E+04  0.27493009063E+04  0.18446582054E+04 0.  0.
         23    2    3    3    0    0  0.34522780342E+03 -0.18766798300E+03 -0.16691724058E+03  0.43662037583E+03  0.91512181086E+02 0.  0.
    9900016    2    1    2    0    0  0.16008465286E+04 -0.68810774461E+03  0.69121310696E+03  0.26315676089E+04  0.18469354739E+04 0.  0.
        -24    2    5    5    0    0  0.22945893037E+03 -0.28545180686E+03  0.67934564767E+03  0.77596929726E+03  0.80521466167E+02 0.  0.
        -15    1    4    4    0    0  0.20634280185E+03 -0.12202560926E+03 -0.53366604319E+02  0.24559233630E+03  0.00000000000E+00 0.  1.
        -15    1    5    5    0    0  0.52246270263E+03  0.97786765460E+02 -0.51011727036E+03  0.73671511228E+03  0.00000000000E+00 0.  1.
         15    1    4    4    0    0  0.13888500157E+03 -0.65642373734E+02 -0.11355063626E+03  0.19102803953E+03  0.00000000000E+00 0. -1.
         15    1    6    6    0    0  0.51323904348E+02 -0.11912614312E+03  0.27057229962E+03  0.30005757856E+03  0.00000000000E+00 0. -1.
        -16    1    6    6    0    0  0.17813502603E+03 -0.16632566373E+03  0.40877334806E+03  0.47591171870E+03  0.00000000000E+00 0.  1.
         16    1    3    3    0    0 -0.19460743320E+04  0.87577572761E+03 -0.89123667184E+03  0.23126805304E+04  0.00000000000E+00 0. -1.
    9900018    1    5    5    0    0  0.84892489556E+03 -0.50044270321E+03  0.52198472965E+03  0.11188831994E+04  0.91187600000E+02 0.  0.
<mgrwt>
<rscale>  0 0.53683424E+04</rscale>
<asrwt>0</asrwt>
<pdfrwt beam="1">  1        1 0.44213917E+00 0.53683424E+04</pdfrwt>
<pdfrwt beam="2">  1       -1 0.38568675E+00 0.53683424E+04</pdfrwt>
<totfact> 0.46346521E-03</totfact>
</mgrwt>
</event>
<event>
13    1  0.6612768E-007  0.4026438E+04  0.7818608E-02  0.7999234E-01
          1   -1    0    0  501    0  0.00000000000E+00  0.00000000000E+00  0.18856256223E+04  0.18856256223E+04  0.00000000000E+00 0. -1.
         -1   -1    0    0    0  501 -0.00000000000E+00 -0.00000000000E+00 -0.21494461888E+04  0.21494461888E+04  0.00000000000E+00 0.  1.
    9900016    2    1    2    0    0 -0.34028473734E+03 -0.48285610463E+03 -0.68222016508E+03  0.20568772391E+04  0.18483440975E+04 0.  0.
         23    2    3    3    0    0  0.61177475912E+03 -0.11182567849E+03  0.24666209827E+03  0.67597060899E+03  0.96543954889E+02 0.  0.
    9900016    2    1    2    0    0  0.34028473734E+03  0.48285610463E+03  0.41839959867E+03  0.19781945720E+04  0.18409920750E+04 0.  0.
         24    2    5    5    0    0 -0.57544775590E+03 -0.24959630953E+03  0.95974838307E+02  0.63970407280E+03  0.81065983456E+02 0.  0.
        -15    1    4    4    0    0  0.65042858960E+02 -0.48759974403E+01  0.59472080489E+02  0.88268211778E+02  0.00000000000E+00 0. -1.
        -15    1    6    6    0    0 -0.38020747604E+03 -0.16950948585E+03  0.10197622024E+03  0.42859111064E+03  0.00000000000E+00 0.  1.
         15    1    5    5    0    0  0.44646078880E+03  0.65856249027E+03  0.31209291320E+03  0.85465418503E+03  0.00000000000E+00 0. -1.
         15    1    4    4    0    0  0.54673190016E+03 -0.10694968105E+03  0.18719001779E+03  0.58770239721E+03  0.00000000000E+00 0.  1.
        -16    1    3    3    0    0 -0.95205949646E+03 -0.37103042613E+03 -0.92888226335E+03  0.13809066301E+04  0.00000000000E+00 0.  1.
         16    1    6    6    0    0 -0.19524027986E+03 -0.80086823680E+02 -0.60013819298E+01  0.21111296216E+03  0.00000000000E+00 0. -1.
    9900018    1    5    5    0    0  0.46927170444E+03  0.73889923886E+02  0.10331847164E+02  0.48383631416E+03  0.91187600000E+02 0.  0.
<mgrwt>
<rscale>  0 0.40264380E+04</rscale>
<asrwt>0</asrwt>
<pdfrwt beam="1">  1        1 0.29009625E+00 0.40264380E+04</pdfrwt>
<pdfrwt beam="2">  1       -1 0.33068403E+00 0.40264380E+04</pdfrwt>
<totfact> 0.57967638E-02</totfact>
</mgrwt>
</event>
<event>
13    1  0.6612767E-007  0.3946178E+04  0.7818608E-02  0.8015493E-01
         -1   -1    0    0    0  501 -0.00000000000E+00  0.00000000000E+00  0.43104827501E+04  0.43104827501E+04  0.00000000000E+00 0.  1.
          1   -1    0    0  501    0  0.00000000000E+00 -0.00000000000E+00 -0.90316577848E+03  0.90316577848E+03  0.00000000000E+00 0. -1.
    9900016    2    1    2    0    0 -0.17463639632E+03  0.41468624588E+03  0.23688740364E+04  0.30364287640E+04  0.18455007139E+04 0.  0.
         23    2    3    3    0    0  0.35995812191E+03  0.15925447051E+03 -0.16307770070E+03  0.43607950094E+03  0.92947075115E+02 0.  0.
    9900016    2    1    2    0    0  0.17463639632E+03 -0.41468624588E+03  0.10384429352E+04  0.21772197646E+04  0.18599622631E+04 0.  0.
         24    2    5    5    0    0  0.38917346012E+03 -0.67537619163E+03  0.76767791518E+03  0.10969387342E+04  0.79725923655E+02 0.  0.
        -15    1    6    6    0    0  0.21912186598E+03 -0.35068585078E+03  0.35502777122E+03  0.54501346445E+03  0.00000000000E+00 0.  1.
        -15    1    4    4    0    0  0.21479641607E+02  0.39367152984E+02 -0.25158160302E+02  0.51420625895E+02  0.00000000000E+00 0.  1.
         15    1    4    4    0    0  0.33847848030E+03  0.11988731753E+03 -0.13791954039E+03  0.38465887505E+03  0.00000000000E+00 0. -1.
         15    1    5    5    0    0 -0.57405617358E+03  0.10408387287E+03  0.33473204740E+03  0.67262135453E+03  0.00000000000E+00 0. -1.
        -16    1    3    3    0    0 -0.53459451823E+03  0.25543177537E+03  0.25319517371E+04  0.26003492630E+04  0.00000000000E+00 0.  1.
         16    1    6    6    0    0  0.17005159414E+03 -0.32469034084E+03  0.41265014396E+03  0.55192526977E+03  0.00000000000E+00 0. -1.
    9900018    1    5    5    0    0  0.35951910978E+03  0.15660607288E+03 -0.63967027327E+02  0.40765967588E+03  0.91187600000E+02 0.  0.
<mgrwt>
<rscale>  0 0.39461782E+04</rscale>
<asrwt>0</asrwt>
<pdfrwt beam="1">  1        1 0.13894858E+00 0.39461782E+04</pdfrwt>
<pdfrwt beam="2">  1       -1 0.66315118E+00 0.39461782E+04</pdfrwt>
<totfact> 0.37695828E-03</totfact>
</mgrwt>
</event>
<event>
13    1  0.6612767E-007  0.4872312E+04  0.7818608E-02  0.7848512E-01
         -1   -1    0    0    0  501 -0.00000000000E+00  0.00000000000E+00  0.28830045361E+04  0.28830045361E+04  0.00000000000E+00 0.  1.
          1   -1    0    0  501    0  0.00000000000E+00 -0.00000000000E+00 -0.20585665256E+04  0.20585665256E+04  0.00000000000E+00 0. -1.
    9900016    2    1    2    0    0  0.50352249520E+03 -0.79447141820E+03 -0.87192122189E+03  0.22661628673E+04  0.18682954226E+04 0.  0.
         23    2    3    3    0    0  0.30317933902E+03  0.35337918140E+03  0.34112484534E+03  0.58414647601E+03  0.89813071849E+02 0.  0.
    9900016    2    1    2    0    0 -0.50352249520E+03  0.79447141820E+03  0.16963592325E+04  0.26754081944E+04  0.18426759411E+04 0.  0.
        -24    2    5    5    0    0  0.23930554353E+03  0.12950458686E+02 -0.26257197061E+03  0.36440611327E+03  0.80080697405E+02 0.  0.
        -15    1    5    5    0    0 -0.36427809250E+03  0.65983831872E+03  0.15958231558E+04  0.17648616604E+04  0.00000000000E+00 0.  1.
        -15    1    4    4    0    0  0.17451248066E+02  0.68068877918E+02  0.55672090988E+02  0.89650989482E+02  0.00000000000E+00 0.  1.
         15    1    6    6    0    0  0.16430378083E+03 -0.28385813175E+02 -0.18184675777E+03  0.24671791605E+03  0.00000000000E+00 0. -1.
         15    1    4    4    0    0  0.28572809095E+03  0.28531030349E+03  0.28545275435E+03  0.49449548653E+03  0.00000000000E+00 0. -1.
        -16    1    6    6    0    0  0.75001762693E+02  0.41336271861E+02 -0.80725212837E+02  0.11768819723E+03  0.00000000000E+00 0.  1.
         16    1    3    3    0    0  0.20034315618E+03 -0.11478505996E+04 -0.12130460672E+04  0.16820163913E+04  0.00000000000E+00 0. -1.
    9900018    1    5    5    0    0 -0.37854994623E+03  0.12168264080E+03  0.36310804725E+03  0.54614042080E+03  0.91187600000E+02 0.  0.
<mgrwt>
<rscale>  0 0.48723122E+04</rscale>
<asrwt>0</asrwt>
<pdfrwt beam="1">  1        1 0.31670254E+00 0.48723122E+04</pdfrwt>
<pdfrwt beam="2">  1       -1 0.44353916E+00 0.48723122E+04</pdfrwt>
<totfact> 0.71219942E-03</totfact>
</mgrwt>
</event>
<event>
13    1  0.6612767E-007  0.4122932E+04  0.7818608E-02  0.7980196E-01
         -2   -1    0    0    0  501 -0.00000000000E+00  0.00000000000E+00  0.15948226669E+04  0.15948226669E+04  0.00000000000E+00 0.  1.
          2   -1    0    0  501    0  0.00000000000E+00 -0.00000000000E+00 -0.26646486770E+04  0.26646486770E+04  0.00000000000E+00 0. -1.
    9900016    2    1    2    0    0  0.75085767484E+03  0.54765012119E+03 -0.72350377315E+03  0.21668396206E+04  0.18187985949E+04 0.  0.
         23    2    3    3    0    0  0.28754018034E+03 -0.32393591373E+03  0.45126965271E+03  0.63242835925E+03  0.93313978646E+02 0.  0.
    9900016    2    1    2    0    0 -0.75085767484E+03 -0.54765012119E+03 -0.34632223695E+03  0.20926317232E+04  0.18426775448E+04 0.  0.
        -24    2    5    5    0    0  0.45356793142E+03 -0.17294263431E+03  0.22649980999E+03  0.54168769169E+03  0.80562821639E+02 0.  0.
        -15    1    4    4    0    0  0.89938374108E+02 -0.80234205437E+02  0.18565662469E+03  0.22134773807E+03  0.00000000000E+00 0.  1.
        -15    1    5    5    0    0 -0.79528811939E+03  0.54767562343E+02 -0.51269701297E+03  0.94780847529E+03  0.00000000000E+00 0.  1.
         15    1    4    4    0    0  0.19760180624E+03 -0.24370170829E+03  0.26561302802E+03  0.41108062117E+03  0.00000000000E+00 0. -1.
         15    1    6    6    0    0  0.27554617704E+03 -0.62840737390E+02  0.13605472299E+03  0.31366469615E+03  0.00000000000E+00 0. -1.
        -16    1    6    6    0    0  0.17802175438E+03 -0.11010189692E+03  0.90445086993E+02  0.22802299555E+03  0.00000000000E+00 0.  1.
         16    1    3    3    0    0  0.46331749449E+03  0.87158603492E+03 -0.11747734259E+04  0.15344112614E+04  0.00000000000E+00 0. -1.
    9900018    1    5    5    0    0 -0.40913748687E+03 -0.42947504923E+03 -0.60125033967E+02  0.60313555622E+03  0.91187600000E+02 0.  0.
<mgrwt>
<rscale>  0 0.41229320E+04</rscale>
<asrwt>0</asrwt>
<pdfrwt beam="1">  1        2 0.40994595E+00 0.41229320E+04</pdfrwt>
<pdfrwt beam="2">  1       -2 0.24535734E+00 0.41229320E+04</pdfrwt>
<totfact> 0.14941436E-01</totfact>
</mgrwt>
</event>
<event>
13    1  0.6612767E-007  0.5363488E+04  0.7818608E-02  0.7774758E-01
          1   -1    0    0  501    0  0.00000000000E+00  0.00000000000E+00  0.27090080952E+04  0.27090080952E+04  0.00000000000E+00 0. -1.
         -1   -1    0    0    0  501 -0.00000000000E+00 -0.00000000000E+00 -0.26547544168E+04  0.26547544168E+04  0.00000000000E+00 0.  1.
    9900016    2    1    2    0    0  0.65194818455E+03  0.11584903057E+04  0.14439606170E+04  0.27008751739E+04  0.18554159151E+04 0.  0.
         23    2    3    3    0    0 -0.37330021866E+03 -0.32934138414E+02 -0.19344667973E+03  0.43113308510E+03  0.89534398104E+02 0.  0.
    9900016    2    1    2    0    0 -0.65194818455E+03 -0.11584903057E+04 -0.13897069386E+04  0.26628873381E+04  0.18418869065E+04 0.  0.
        -24    2    5    5    0    0  0.44878098439E+03 -0.89885323504E+03 -0.69917698505E+03  0.12266349925E+04  0.80271030393E+02 0.  0.
        -15    1    5    5    0    0 -0.66680353412E+03 -0.39763999051E+03 -0.31036356857E+03  0.83610409630E+03  0.00000000000E+00 0.  1.
        -15    1    4    4    0    0 -0.76541636978E+02 -0.19979963906E+02 -0.48019621938E+01  0.79252003065E+02  0.00000000000E+00 0. -1.
         15    1    4    4    0    0 -0.29675858168E+03 -0.12954174508E+02 -0.18864471754E+03  0.35188108204E+03  0.00000000000E+00 0.  1.
         15    1    6    6    0    0  0.15473451019E+03 -0.38800587387E+03 -0.26739930535E+03  0.49597753508E+03  0.00000000000E+00 0. -1.
        -16    1    6    6    0    0  0.29404647420E+03 -0.51084736117E+03 -0.43177767970E+03  0.73065745743E+03  0.00000000000E+00 0.  1.
         16    1    3    3    0    0  0.10252484032E+04  0.11914244441E+04  0.16374072967E+04  0.22697420888E+04  0.00000000000E+00 0. -1.
    9900018    1    5    5    0    0 -0.43392563483E+03  0.13800291984E+03 -0.38016638497E+03  0.60014824927E+03  0.91187600000E+02 0.  0.
<mgrwt>
<rscale>  0 0.53634881E+04</rscale>
<asrwt>0</asrwt>
<pdfrwt beam="1">  1        1 0.41677048E+00 0.53634881E+04</pdfrwt>
<pdfrwt beam="2">  1       -1 0.40842376E+00 0.53634881E+04</pdfrwt>
<totfact> 0.42540312E-03</totfact>
</mgrwt>
</event>
<event>
13    1  0.6612767E-007  0.4663975E+04  0.7818608E-02  0.7882542E-01
         -1   -1    0    0    0  501 -0.00000000000E+00  0.00000000000E+00  0.18121104915E+04  0.18121104915E+04  0.00000000000E+00 0.  1.
          1   -1    0    0  501    0  0.00000000000E+00 -0.00000000000E+00 -0.30010127762E+04  0.30010127762E+04  0.00000000000E+00 0. -1.
    9900016    2    1    2    0    0  0.47816905010E+03 -0.30438965250E+03  0.75662945739E+03  0.20672892601E+04  0.18384499036E+04 0.  0.
         23    2    3    3    0    0 -0.94678700765E+02  0.65834550126E+03 -0.70179224957E+02  0.67494371420E+03  0.90780164756E+02 0.  0.
    9900016    2    1    2    0    0 -0.47816905010E+03  0.30438965250E+03 -0.19455317421E+04  0.27458340076E+04  0.18528928563E+04 0.  0.
         24    2    5    5    0    0 -0.21882914443E+03  0.83083555653E+03 -0.10686886406E+04  0.13735168211E+04  0.79240965720E+02 0.  0.
        -15    1    6    6    0    0 -0.65428838075E+02  0.35296674164E+03 -0.49155585890E+03  0.60868186762E+03  0.00000000000E+00 0.  1.
        -15    1    4    4    0    0 -0.29555197905E+02  0.49860503072E+02  0.59503453149E+01  0.58266509242E+02  0.00000000000E+00 0. -1.
         15    1    5    5    0    0  0.24316745099E+03 -0.13529106211E+03  0.79508183026E+01  0.27838336197E+03  0.00000000000E+00 0. -1.
         15    1    4    4    0    0 -0.65123502860E+02  0.60848499818E+03 -0.76129570272E+02  0.61667720495E+03  0.00000000000E+00 0.  1.
        -16    1    3    3    0    0  0.57284775087E+03 -0.96273515376E+03  0.82680868235E+03  0.13923455459E+04  0.00000000000E+00 0.  1.
         16    1    6    6    0    0 -0.15340030635E+03  0.47786881489E+03 -0.57713278175E+03  0.76483495344E+03  0.00000000000E+00 0. -1.
    9900018    1    5    5    0    0 -0.50250735666E+03 -0.39115484191E+03 -0.88479391972E+03  0.10939338246E+04  0.91187600000E+02 0.  0.
<mgrwt>
<rscale>  0 0.46639754E+04</rscale>
<asrwt>0</asrwt>
<pdfrwt beam="1">  1        1 0.46169427E+00 0.46639754E+04</pdfrwt>
<pdfrwt beam="2">  1       -1 0.27878623E+00 0.46639754E+04</pdfrwt>
<totfact> 0.20048926E-02</totfact>
</mgrwt>
</event>
<event>
13    1  0.6612767E-007  0.4397834E+04  0.7818608E-02  0.7928771E-01
         -2   -1    0    0    0  501 -0.00000000000E+00  0.00000000000E+00  0.16411654652E+04  0.16411654652E+04  0.00000000000E+00 0. -1.
          2   -1    0    0  501    0  0.00000000000E+00 -0.00000000000E+00 -0.29462203630E+04  0.29462203630E+04  0.00000000000E+00 0.  1.
    9900016    2    1    2    0    0  0.79067906326E+03  0.82123205822E+03 -0.25819540198E+03  0.21778051688E+04  0.18375459214E+04 0.  0.
         23    2    3    3    0    0  0.94492496451E+02 -0.47250523531E+03  0.33515793041E+03  0.59334939552E+03  0.86848359557E+02 0.  0.
    9900016    2    1    2    0    0 -0.79067906326E+03 -0.82123205822E+03 -0.10468594959E+04  0.24095806594E+04  0.18467725024E+04 0.  0.
         24    2    5    5    0    0 -0.42181582144E+03 -0.20371914376E+03  0.26374908285E+03  0.54334379640E+03  0.78922909424E+02 0.  0.
        -15    1    4    4    0    0  0.31923920908E+02 -0.49045756491E+02  0.20206480590E+02  0.61910619555E+02  0.00000000000E+00 0.  1.
        -15    1    6    6    0    0 -0.26956058853E+03 -0.11979013165E+03  0.20736801554E+03  0.36057465301E+03  0.00000000000E+00 0.  1.
         15    1    5    5    0    0 -0.35030244347E+03  0.20767817920E+03 -0.78246124080E+03  0.88209275100E+03  0.00000000000E+00 0. -1.
         15    1    4    4    0    0  0.62568575543E+02 -0.42345947882E+03  0.31495144982E+03  0.53143877596E+03  0.00000000000E+00 0. -1.
        -16    1    3    3    0    0  0.69618656681E+03  0.12937372935E+04 -0.59335333239E+03  0.15844557733E+04  0.00000000000E+00 0.  1.
         16    1    6    6    0    0 -0.15225523292E+03 -0.83929012109E+02  0.56381067309E+02  0.18276914339E+03  0.00000000000E+00 0. -1.
    9900018    1    5    5    0    0 -0.18560798350E+02 -0.82519109366E+03 -0.52814733791E+03  0.98414411202E+03  0.91187600000E+02 0.  0.
<mgrwt>
<rscale>  0 0.43978336E+04</rscale>
<asrwt>0</asrwt>
<pdfrwt beam="1">  1        2 0.45326466E+00 0.43978336E+04</pdfrwt>
<pdfrwt beam="2">  1       -2 0.25248700E+00 0.43978336E+04</pdfrwt>
<totfact> 0.89114368E-02</totfact>
</mgrwt>
</event>
<event>
13    1  0.6612767E-007  0.4631391E+04  0.7818608E-02  0.7888029E-01
         -2   -1    0    0    0  501 -0.00000000000E+00  0.00000000000E+00  0.13312378490E+04  0.13312378490E+04  0.00000000000E+00 0.  1.
          2   -1    0    0  501    0  0.00000000000E+00 -0.00000000000E+00 -0.40281650355E+04  0.40281650355E+04  0.00000000000E+00 0. -1.
    9900016    2    1    2    0    0 -0.11586572976E+04  0.15290526565E+03 -0.44818382122E+03  0.22243317536E+04  0.18387268038E+04 0.  0.
         23    2    3    3    0    0 -0.42140502864E+03 -0.44129052586E+03  0.56497455246E+03  0.83757314563E+03  0.10006499381E+03 0.  0.
    9900016    2    1    2    0    0  0.11586572976E+04 -0.15290526565E+03 -0.22487433653E+04  0.31350711308E+04  0.18455236436E+04 0.  0.
         24    2    5    5    0    0 -0.13510272888E+03 -0.21328302452E+03  0.20655357715E+02  0.26522627528E+03  0.78587132507E+02 0.  0.
        -15    1    6    6    0    0 -0.64995628958E+02 -0.16929123607E+03  0.81686594587E+01  0.18152322549E+03  0.00000000000E+00 0.  1.
        -15    1    4    4    0    0 -0.76947073292E+02 -0.82802314806E+02  0.16237658169E+03  0.19784648015E+03  0.00000000000E+00 0.  1.
         15    1    5    5    0    0  0.50721588638E+03  0.51473508607E+03 -0.49981365837E+03  0.87865457224E+03  0.00000000000E+00 0. -1.
         15    1    4    4    0    0 -0.34445795535E+03 -0.35848821105E+03  0.40259797077E+03  0.63972666548E+03  0.00000000000E+00 0. -1.
        -16    1    3    3    0    0 -0.73725226892E+03  0.59419579151E+03 -0.10131583737E+04  0.13867586080E+04  0.00000000000E+00 0.  1.
         16    1    6    6    0    0 -0.70107099925E+02 -0.43991788448E+02  0.12486698256E+02  0.83703049789E+02  0.00000000000E+00 0. -1.
    9900018    1    5    5    0    0  0.78654414006E+03 -0.45435732719E+03 -0.17695850646E+04  0.19911902833E+04  0.91187600000E+02 0.  0.
<mgrwt>
<rscale>  0 0.46313910E+04</rscale>
<asrwt>0</asrwt>
<pdfrwt beam="1">  1        2 0.61971770E+00 0.46313910E+04</pdfrwt>
<pdfrwt beam="2">  1       -2 0.20480582E+00 0.46313910E+04</pdfrwt>
<totfact> 0.29964816E-02</totfact>
</mgrwt>
</event>
<event>
13    1  0.6612767E-007  0.4788859E+04  0.7818608E-02  0.7861929E-01
         -3   -1    0    0    0  501 -0.00000000000E+00  0.00000000000E+00  0.26244398906E+04  0.26244398906E+04  0.00000000000E+00 0.  1.
          3   -1    0    0  501    0  0.00000000000E+00 -0.00000000000E+00 -0.21845779061E+04  0.21845779061E+04  0.00000000000E+00 0. -1.
    9900016    2    1    2    0    0  0.82144284298E+03 -0.33742649974E+03  0.14363694696E+04  0.24949279032E+04  0.18365410428E+04 0.  0.
         23    2    3    3    0    0 -0.19803002624E+03  0.47037072776E+03 -0.49255318563E+02  0.52035394841E+03  0.88756027367E+02 0.  0.
    9900016    2    1    2    0    0 -0.82144284298E+03  0.33742649974E+03 -0.99650748507E+03  0.23140898935E+04  0.18903332723E+04 0.  0.
         24    2    5    5    0    0  0.15320046047E+03 -0.30554726752E+03 -0.50545424696E+03  0.61563227967E+03  0.81789939648E+02 0.  0.
        -15    1    6    6    0    0  0.93064228303E+02 -0.25947183410E+03 -0.40017829839E+03  0.48593132620E+03  0.00000000000E+00 0.  1.
        -15    1    4    4    0    0 -0.32247606616E+02  0.52663999266E+02 -0.34439796147E+02  0.70707174387E+02  0.00000000000E+00 0.  1.
         15    1    5    5    0    0 -0.96080154502E+03  0.24454809388E+03  0.81576419178E+02  0.99478544988E+03  0.00000000000E+00 0. -1.
         15    1    4    4    0    0 -0.16578241963E+03  0.41770672849E+03 -0.14815522416E+02  0.44964677402E+03  0.00000000000E+00 0. -1.
        -16    1    3    3    0    0  0.10194728692E+04 -0.80779722749E+03  0.14856247881E+04  0.19745739548E+04  0.00000000000E+00 0.  1.
         16    1    6    6    0    0  0.60136232170E+02 -0.46075433421E+02 -0.10527594857E+03  0.12970095347E+03  0.00000000000E+00 0. -1.
    9900018    1    5    5    0    0 -0.13841758433E+02  0.39842567337E+03 -0.57262965729E+03  0.70367216393E+03  0.91187600000E+02 0.  0.
<mgrwt>
<rscale>  0 0.47888593E+04</rscale>
<asrwt>0</asrwt>
<pdfrwt beam="1">  1        3 0.33608891E+00 0.47888593E+04</pdfrwt>
<pdfrwt beam="2">  1       -3 0.40375999E+00 0.47888593E+04</pdfrwt>
<totfact> 0.46942138E-04</totfact>
</mgrwt>
</event>
