<event>
12    1  0.2027698E-012  0.9997285E+03  0.7818608E-02  0.9308843E-01
         -2   -1    0    0    0  501 -0.00000000000E+00  0.00000000000E+00  0.41264373181E+03  0.41264373181E+03  0.00000000000E+00 0.  1.
          2   -1    0    0  501    0  0.00000000000E+00 -0.00000000000E+00 -0.60552056921E+03  0.60552056921E+03  0.00000000000E+00 0. -1.
    9900016    2    1    2    0    0  0.13067044543E+03  0.93734827131E+02 -0.25599797939E+03  0.84540648877E+03  0.78950375723E+03 0.  0.
         23    2    3    3    0    0 -0.17054515863E+02 -0.80276878133E+02 -0.25805105764E+03  0.27882794408E+03  0.66478871630E+02 0.  0.
         23    2    3    3    0    0 -0.20999273545E+02  0.82899142854E+02  0.62466420911E+02  0.14092436245E+03  0.92975183873E+02 0.  0.
        -15    1    5    5    0    0  0.45353065844E+01  0.96757790045E+02  0.43180219686E+02  0.10605267706E+03  0.00000000000E+00 0. -1.
        -15    1    4    4    0    0  0.25537608198E+02 -0.35675133967E+02 -0.10227889561E+03  0.11129176566E+03  0.00000000000E+00 0.  1.
         15    1    5    5    0    0 -0.25534580129E+02 -0.13858647190E+02  0.19286201225E+02  0.34871685391E+02  0.00000000000E+00 0.  1.
         15    1    4    4    0    0 -0.42592124061E+02 -0.44601744165E+02 -0.15577216203E+03  0.16753617842E+03  0.00000000000E+00 0. -1.
        -16    1    1    2    0    0 -0.13067044543E+03 -0.93734827131E+02  0.63121141987E+02  0.17275781225E+03  0.00000000000E+00 0.  1.
         16    1    3    3    0    0  0.26556341206E+02 -0.13454582332E+03 -0.40912583026E+02  0.14311414074E+03  0.00000000000E+00 0. -1.
    9900018    1    3    3    0    0  0.14216789364E+03  0.22565838573E+03 -0.19500759633E+02  0.28254004150E+03  0.91187600000E+02 0.  0.
<mgrwt>
<rscale>  0 0.99972850E+03</rscale>
<asrwt>0</asrwt>
<pdfrwt beam="1">  1        2 0.93157010E-01 0.99972850E+03</pdfrwt>
<pdfrwt beam="2">  1       -2 0.63483652E-01 0.99972850E+03</pdfrwt>
<totfact> 0.11254340E+02</totfact>
</mgrwt>
</event>
<event>
12    1  0.2027699E-012  0.1516301E+04  0.7818608E-02  0.8873685E-01
          1   -1    0    0  501    0  0.00000000000E+00  0.00000000000E+00  0.93427130068E+03  0.93427130068E+03  0.00000000000E+00 0. -1.
         -1   -1    0    0    0  501 -0.00000000000E+00 -0.00000000000E+00 -0.61523045081E+03  0.61523045081E+03  0.00000000000E+00 0.  1.
    9900016    2    1    2    0    0  0.40569298833E+02  0.12611932275E+03  0.74762648134E+02  0.78690290402E+03  0.77205879000E+03 0.  0.
         23    2    3    3    0    0  0.11404126774E+02 -0.47634838806E+02  0.98878902662E+01  0.11999729477E+03  0.10909834280E+03 0.  0.
         23    2    3    3    0    0  0.30943773607E+03  0.19516299609E+03 -0.38444665473E+01  0.37753840285E+03  0.93167366378E+02 0.  0.
        -15    1    5    5    0    0  0.10156919131E+03  0.15458650847E+02 -0.15821061223E+01  0.10275102710E+03  0.00000000000E+00 0.  1.
        -15    1    4    4    0    0 -0.21741081916E+02  0.15972317031E+01 -0.37951777072E+02  0.43767147210E+02  0.00000000000E+00 0. -1.
         15    1    4    4    0    0  0.33145208690E+02 -0.49232070509E+02  0.47839667338E+02  0.76230147558E+02  0.00000000000E+00 0.  1.
         15    1    5    5    0    0  0.20786854476E+03  0.17970434524E+03 -0.22623604250E+01  0.27478737575E+03  0.00000000000E+00 0. -1.
        -16    1    3    3    0    0 -0.28027256401E+03 -0.21408834530E+02  0.68719224415E+02  0.28936720640E+03  0.00000000000E+00 0.  1.
         16    1    1    2    0    0 -0.26412166259E+03 -0.17632267735E+03 -0.10549747649E+03  0.33463361568E+03  0.00000000000E+00 0. -1.
    9900018    1    1    2    0    0  0.22355236376E+03  0.50203354592E+02  0.34977567822E+03  0.42796523179E+03  0.91187600000E+02 0.  0.
<mgrwt>
<rscale>  0 0.15163010E+04</rscale>
<asrwt>0</asrwt>
<pdfrwt beam="1">  1        1 0.14373405E+00 0.15163010E+04</pdfrwt>
<pdfrwt beam="2">  1       -1 0.94650839E-01 0.15163010E+04</pdfrwt>
<totfact> 0.17803954E+01</totfact>
</mgrwt>
</event>
<event>
12    1  0.2027698E-012  0.2077017E+04  0.7818608E-02  0.8571436E-01
          1   -1    0    0  501    0  0.00000000000E+00  0.00000000000E+00  0.17636313921E+04  0.17636313921E+04  0.00000000000E+00 0. -1.
         -1   -1    0    0    0  501 -0.00000000000E+00 -0.00000000000E+00 -0.61152229191E+03  0.61152229191E+03  0.00000000000E+00 0.  1.
    9900016    2    1    2    0    0 -0.77266703563E+02  0.28628227164E+03 -0.23661979201E+02  0.84462053778E+03  0.79050381470E+03 0.  0.
         23    2    3    3    0    0 -0.85483989380E+02 -0.15372863664E+03  0.31549882326E+02  0.19464254746E+03  0.77138317596E+02 0.  0.
         23    2    3    3    0    0 -0.34422004287E+02  0.40830087777E+02  0.16208137768E+03  0.19349163968E+03  0.91195784939E+02 0.  0.
        -15    1    5    5    0    0  0.30853774477E+02  0.77184436032E+01  0.59615890155E+02  0.67569106329E+02  0.00000000000E+00 0. -1.
        -15    1    4    4    0    0 -0.71927333501E+02 -0.50367181053E+02  0.13296820979E+02  0.88809907555E+02  0.00000000000E+00 0. -1.
         15    1    4    4    0    0 -0.13556655880E+02 -0.10336145559E+03  0.18253061347E+02  0.10583263990E+03  0.00000000000E+00 0.  1.
         15    1    5    5    0    0 -0.65275778764E+02  0.33111644173E+02  0.10246548752E+03  0.12592253335E+03  0.00000000000E+00 0.  1.
        -16    1    3    3    0    0  0.42639290105E+02  0.39918082050E+03 -0.21729323920E+03  0.45648635064E+03  0.00000000000E+00 0.  1.
         16    1    1    2    0    0 -0.10294558596E+03 -0.35054882592E+03  0.12528271450E+04  0.13050126927E+04  0.00000000000E+00 0. -1.
    9900018    1    1    2    0    0  0.18021228953E+03  0.64266554285E+02 -0.77056065597E+02  0.22552045347E+03  0.91187600000E+02 0.  0.
<mgrwt>
<rscale>  0 0.20770170E+04</rscale>
<asrwt>0</asrwt>
<pdfrwt beam="1">  1        1 0.27132791E+00 0.20770170E+04</pdfrwt>
<pdfrwt beam="2">  1       -1 0.94080353E-01 0.20770170E+04</pdfrwt>
<totfact> 0.43490979E+00</totfact>
</mgrwt>
</event>
<event>
12    1  0.2027698E-012  0.2263325E+04  0.7818608E-02  0.8492523E-01
          2   -1    0    0  501    0  0.00000000000E+00  0.00000000000E+00  0.13510267767E+04  0.13510267767E+04  0.00000000000E+00 0. -1.
         -2   -1    0    0    0  501 -0.00000000000E+00 -0.00000000000E+00 -0.94791626986E+03  0.94791626986E+03  0.00000000000E+00 0.  1.
    9900016    2    1    2    0    0  0.15519992949E+03 -0.41886517051E+02 -0.28184984299E+03  0.85569901521E+03  0.79179541057E+03 0.  0.
         23    2    3    3    0    0 -0.58239732503E+02  0.73260535659E+02 -0.40878705017E+03  0.42461938139E+03  0.66601757812E+02 0.  0.
         23    2    3    3    0    0  0.21657508471E+03  0.33278025847E+02  0.24581515423E+01  0.23734045318E+03  0.91171562927E+02 0.  0.
        -15    1    5    5    0    0  0.15011000414E+03 -0.15154147370E+02  0.22894267752E+02  0.15260016062E+03  0.00000000000E+00 0. -1.
        -15    1    4    4    0    0 -0.37362779539E+01  0.44280472757E+02 -0.25609204882E+03  0.25991894412E+03  0.00000000000E+00 0.  1.
         15    1    4    4    0    0 -0.54503454550E+02  0.28980062903E+02 -0.15269500134E+03  0.16470043728E+03  0.00000000000E+00 0. -1.
         15    1    5    5    0    0  0.66465080567E+02  0.48432173217E+02 -0.20436116210E+02  0.84740292559E+02  0.00000000000E+00 0.  1.
        -16    1    3    3    0    0 -0.31354227162E+01 -0.14842507856E+03  0.12447905563E+03  0.19373918063E+03  0.00000000000E+00 0.  1.
         16    1    1    2    0    0 -0.18948292550E+03  0.17784369346E+03  0.10286763006E+04  0.10609934448E+04  0.00000000000E+00 0. -1.
    9900018    1    1    2    0    0  0.34282996009E+02 -0.13595717641E+03 -0.34371595085E+03  0.38225058652E+03  0.91187600000E+02 0.  0.
<mgrwt>
<rscale>  0 0.22633252E+04</rscale>
<asrwt>0</asrwt>
<pdfrwt beam="1">  1        2 0.20785027E+00 0.22633252E+04</pdfrwt>
<pdfrwt beam="2">  1       -2 0.14583327E+00 0.22633252E+04</pdfrwt>
<totfact> 0.45327338E+00</totfact>
</mgrwt>
</event>
