<event>
11    1  0.7033981E-011  0.3213774E+04  0.7818608E-02  0.8185189E-01
          1   -1    0    0  501    0  0.00000000000E+00  0.00000000000E+00  0.27059567922E+04  0.27059567922E+04  0.00000000000E+00 0. -1.
         -1   -1    0    0    0  501 -0.00000000000E+00 -0.00000000000E+00 -0.95422272154E+03  0.95422272154E+03  0.00000000000E+00 0.  1.
    9900016    2    1    2    0    0  0.48028249350E+03  0.46571409796E+03  0.91166357216E+03  0.22474374628E+04  0.19422367996E+04 0.  0.
        -24    2    3    3    0    0 -0.32291121940E+03 -0.21594075560E+03 -0.17651575968E+03  0.43411761038E+03  0.79988878471E+02 0.  0.
        -15    1    3    3    0    0  0.31997050512E+02 -0.11037144938E+03  0.37956062450E+03  0.39657525862E+03  0.00000000000E+00 0.  1.
        -15    1    3    3    0    0  0.82788420121E+03  0.71860289180E+03  0.53486341706E+03  0.12197791774E+04  0.00000000000E+00 0.  1.
         15    1    4    4    0    0 -0.16063062162E+03 -0.64403588945E+02 -0.58576801311E+02  0.18270539270E+03  0.00000000000E+00 0. -1.
         15    1    3    3    0    0 -0.56687538825E+02  0.73423411146E+02  0.17375529028E+03  0.19696541641E+03  0.00000000000E+00 0. -1.
        -16    1    4    4    0    0 -0.16228059778E+03 -0.15153716666E+03 -0.11793895837E+03  0.25141221767E+03  0.00000000000E+00 0.  1.
         16    1    1    2    0    0 -0.53381684697E+03 -0.60929537108E+03  0.91257977991E+03  0.12202471594E+04  0.00000000000E+00 0. -1.
    9900018    1    1    2    0    0  0.53534353468E+02  0.14358127311E+03 -0.72509281392E+02  0.19249489155E+03  0.91187600000E+02 0.  0.
<mgrwt>
<rscale>  0 0.32137738E+04</rscale>
<asrwt>0</asrwt>
<pdfrwt beam="1">  1        1 0.41630104E+00 0.32137738E+04</pdfrwt>
<pdfrwt beam="2">  1       -1 0.14680350E+00 0.32137738E+04</pdfrwt>
<totfact> 0.30010429E-01</totfact>
</mgrwt>
</event>
<event>
11    1  0.7033981E-011  0.2975619E+04  0.7818608E-02  0.8250728E-01
         -1   -1    0    0    0  501 -0.00000000000E+00  0.00000000000E+00  0.13227482614E+04  0.13227482614E+04  0.00000000000E+00 0.  1.
          1   -1    0    0  501    0  0.00000000000E+00 -0.00000000000E+00 -0.16734678765E+04  0.16734678765E+04  0.00000000000E+00 0. -1.
    9900016    2    1    2    0    0 -0.59437946667E+03  0.43477064882E+03 -0.72589631229E+03  0.21697356350E+04  0.19074891355E+04 0.  0.
         24    2    3    3    0    0 -0.58601905462E+03  0.62035953743E+03 -0.36703306072E+03  0.93236472694E+03  0.79538847916E+02 0.  0.
        -15    1    3    3    0    0 -0.36073676676E+02 -0.17750697794E+03 -0.37186067119E+03  0.41363074855E+03  0.00000000000E+00 0. -1.
        -15    1    4    4    0    0 -0.19433759536E+03  0.26184534092E+03 -0.14214779543E+03  0.35571910165E+03  0.00000000000E+00 0.  1.
         15    1    3    3    0    0 -0.60578990244E+02 -0.55841018205E+02 -0.22607557660E+03  0.24062044741E+03  0.00000000000E+00 0.  1.
         15    1    3    3    0    0  0.16908677514E+03 -0.58317437216E+02  0.34593103395E+03  0.38943489990E+03  0.00000000000E+00 0. -1.
        -16    1    1    2    0    0  0.59437946667E+03 -0.43477064882E+03  0.37517669727E+03  0.82648050289E+03  0.00000000000E+00 0.  1.
         16    1    4    4    0    0 -0.39168145925E+03  0.35851419650E+03 -0.22488526529E+03  0.57664562529E+03  0.00000000000E+00 0. -1.
    9900018    1    3    3    0    0 -0.80794520271E+02  0.10607654476E+03 -0.10685803773E+03  0.19368481220E+03  0.91187600000E+02 0.  0.
<mgrwt>
<rscale>  0 0.29756187E+04</rscale>
<asrwt>0</asrwt>
<pdfrwt beam="1">  1        1 0.25745660E+00 0.29756187E+04</pdfrwt>
<pdfrwt beam="2">  1       -1 0.20349973E+00 0.29756187E+04</pdfrwt>
<totfact> 0.60343693E-01</totfact>
</mgrwt>
</event>
<event>
10    1  0.7033981E-011  0.5570383E+04  0.7818608E-02  0.7746078E-01
          1   -1    0    0  501    0  0.00000000000E+00  0.00000000000E+00  0.22041708140E+04  0.22041708140E+04  0.00000000000E+00 0. -1.
         -1   -1    0    0    0  501 -0.00000000000E+00 -0.00000000000E+00 -0.35193694247E+04  0.35193694247E+04  0.00000000000E+00 0.  1.
        -24    2    1    2    0    0 -0.60449486193E+03  0.74471378524E+02  0.44789396293E+03  0.76039081614E+03  0.81395128365E+02 0.  0.
        -15    1    1    2    0    0  0.48132286798E+03 -0.65692022592E+02 -0.43105495123E+03  0.64945786318E+03  0.00000000000E+00 0.  1.
        -15    1    1    2    0    0 -0.38494999607E+02  0.29750723438E+02  0.15590588097E+02  0.51088520991E+02  0.00000000000E+00 0.  1.
         15    1    3    3    0    0 -0.26634902942E+03  0.80402466862E+01  0.23524095774E+03  0.35545007981E+03  0.00000000000E+00 0. -1.
         15    1    1    2    0    0  0.61372218004E+03  0.11519219654E+03  0.10738442004E+04  0.12422018850E+04  0.00000000000E+00 0. -1.
        -16    1    3    3    0    0 -0.33814583251E+03  0.66431131838E+02  0.21265300519E+03  0.40494073633E+03  0.00000000000E+00 0.  1.
         16    1    1    2    0    0 -0.57273127564E+03 -0.87272778995E+03 -0.11598734330E+04  0.15604426584E+04  0.00000000000E+00 0. -1.
    9900018    1    1    2    0    0  0.12067608916E+03  0.71900551404E+03 -0.12615989779E+04  0.14599584950E+04  0.91187600000E+02 0.  0.
<mgrwt>
<rscale>  0 0.55703829E+04</rscale>
<asrwt>0</asrwt>
<pdfrwt beam="1">  1        1 0.33910321E+00 0.55703829E+04</pdfrwt>
<pdfrwt beam="2">  1       -1 0.54144144E+00 0.55703829E+04</pdfrwt>
<totfact> 0.12661466E-03</totfact>
</mgrwt>
</event>
<event>
11    1  0.7033981E-011  0.5774891E+04  0.7818608E-02  0.7718957E-01
         -2   -1    0    0    0  501 -0.00000000000E+00  0.00000000000E+00  0.27731597388E+04  0.27731597388E+04  0.00000000000E+00 0.  1.
          2   -1    0    0  501    0  0.00000000000E+00 -0.00000000000E+00 -0.30064406788E+04  0.30064406788E+04  0.00000000000E+00 0. -1.
    9900016    2    1    2    0    0  0.18063814197E+04  0.16382489993E+03 -0.16776451404E+04  0.31289316004E+04  0.19198612740E+04 0.  0.
         24    2    3    3    0    0  0.45972511232E+03 -0.34709265936E+03  0.83458604048E+02  0.58754413711E+03  0.80139137652E+02 0.  0.
        -15    1    3    3    0    0  0.94140850225E+03 -0.27070039368E+02 -0.12356587022E+04  0.15536522080E+04  0.00000000000E+00 0.  1.
        -15    1    4    4    0    0  0.43178883716E+03 -0.31521581778E+03  0.57135691437E+02  0.53764960607E+03  0.00000000000E+00 0.  1.
         15    1    3    3    0    0  0.38524043982E+03  0.15729672512E+03 -0.12416688586E+03  0.43424632612E+03  0.00000000000E+00 0. -1.
         15    1    3    3    0    0  0.20007365348E+02  0.38069087354E+03 -0.40127815641E+03  0.55348892914E+03  0.00000000000E+00 0. -1.
        -16    1    1    2    0    0 -0.18133529994E+04 -0.37612947904E+03  0.15319635745E+04  0.24034631013E+04  0.00000000000E+00 0.  1.
         16    1    4    4    0    0  0.27936275156E+02 -0.31876841584E+02  0.26322912611E+02  0.49894531036E+02  0.00000000000E+00 0. -1.
    9900018    1    1    2    0    0  0.69715796924E+01  0.21230457911E+03 -0.87599374174E+02  0.24720571592E+03  0.91187600000E+02 0.  0.
<mgrwt>
<rscale>  0 0.57748906E+04</rscale>
<asrwt>0</asrwt>
<pdfrwt beam="1">  1        2 0.46252934E+00 0.57748906E+04</pdfrwt>
<pdfrwt beam="2">  1       -2 0.42663996E+00 0.57748906E+04</pdfrwt>
<totfact> 0.58673593E-03</totfact>
</mgrwt>
</event>
