<event>
10    1  0.8466579E-014  0.1183852E+04  0.7818608E-02  0.9303271E-01
         -1   -1    0    0    0  501 -0.00000000000E+00  0.00000000000E+00  0.16363210856E+04  0.16363210856E+04  0.00000000000E+00 0.  1.
          1   -1    0    0  501    0  0.00000000000E+00 -0.00000000000E+00 -0.95322730896E+03  0.95322730896E+03  0.00000000000E+00 0. -1.
         24    2    1    2    0    0 -0.11890459847E+03 -0.28572647255E+03  0.82012123223E+02  0.33014421934E+03  0.80568582938E+02 0.  0.
        -15    1    3    3    0    0 -0.89387736925E+02 -0.11268942573E+03  0.45383531863E+02  0.15082685155E+03  0.00000000000E+00 0.  1.
        -15    1    1    2    0    0  0.21150157275E+03  0.93579364434E+02  0.46677696684E+03  0.52093257673E+03  0.00000000000E+00 0.  1.
         15    1    1    2    0    0 -0.18434602818E+03  0.17528936340E+03 -0.33540673054E+03  0.42096020468E+03  0.00000000000E+00 0. -1.
         15    1    1    2    0    0  0.22931551057E+03  0.30613182990E+03  0.69367860538E+03  0.79214412087E+03  0.00000000000E+00 0. -1.
        -16    1    1    2    0    0 -0.67192348917E+02 -0.33912424914E+03 -0.19360946093E+03  0.39623817517E+03  0.00000000000E+00 0.  1.
         16    1    3    3    0    0 -0.29516861550E+02 -0.17303704682E+03  0.36628591360E+02  0.17931736779E+03  0.00000000000E+00 0. -1.
    9900018    1    1    2    0    0 -0.70374107756E+02  0.49850163949E+02 -0.30357727328E+02  0.12912909777E+03  0.91187600000E+02 0.  0.
<mgrwt>
<rscale>  0 0.10048231E+04</rscale>
<asrwt>0</asrwt>
<pdfrwt beam="1">  1        1 0.14665036E+00 0.11838521E+04</pdfrwt>
<pdfrwt beam="2">  1       -1 0.25174170E+00 0.11838521E+04</pdfrwt>
<totfact> 0.11016990E+00</totfact>
</mgrwt>
</event>
<event>
11    1  0.8466579E-014  0.2511093E+04  0.7818608E-02  0.8399044E-01
         -1   -1    0    0    0  501 -0.00000000000E+00  0.00000000000E+00  0.10269827726E+04  0.10269827726E+04  0.00000000000E+00 0.  1.
          1   -1    0    0  501    0  0.00000000000E+00 -0.00000000000E+00 -0.15349792888E+04  0.15349792888E+04  0.00000000000E+00 0. -1.
        -24    2    1    2    0    0 -0.12784511820E+03 -0.21567001365E+03  0.25046382132E+03  0.36364138277E+03  0.81516872101E+02 0.  0.
    9900016    2    1    2    0    0  0.26901610346E+02  0.12020890032E+03 -0.93066895254E+03  0.19770556271E+04  0.17399512572E+04 0.  0.
        -15    1    4    4    0    0  0.40407774934E+03 -0.15773029236E+03 -0.32973799685E+03  0.54487137858E+03  0.00000000000E+00 0. -1.
        -15    1    1    2    0    0  0.10094350785E+03  0.95461113331E+02  0.17220861503E+03  0.22126505152E+03  0.00000000000E+00 0.  1.
         15    1    4    4    0    0  0.10038182983E+03  0.23183725243E+02 -0.54955544096E+02  0.11676518618E+03  0.00000000000E+00 0.  1.
         15    1    3    3    0    0 -0.97330705563E+01 -0.52994280737E+02  0.96127082400E+02  0.11019774237E+03  0.00000000000E+00 0. -1.
        -16    1    3    3    0    0 -0.11811204764E+03 -0.16267573291E+03  0.15433673892E+03  0.25344364039E+03  0.00000000000E+00 0.  1.
         16    1    4    4    0    0 -0.19158317343E+03 -0.15839570733E+03  0.26099737844E+03  0.36043438237E+03  0.00000000000E+00 0. -1.
    9900018    1    4    4    0    0 -0.28597479539E+03  0.41315117476E+03 -0.80697279004E+03  0.95498468002E+03  0.91187600000E+02 0.  0.
<mgrwt>
<rscale>  0 0.25110932E+04</rscale>
<asrwt>0</asrwt>
<pdfrwt beam="1">  1        1 0.23615066E+00 0.25110932E+04</pdfrwt>
<pdfrwt beam="2">  1       -1 0.15799735E+00 0.25110932E+04</pdfrwt>
<totfact> 0.16620668E+00</totfact>
</mgrwt>
</event>
<event>
11    1  0.8466579E-014  0.2866274E+04  0.7818608E-02  0.8888558E-01
          2   -1    0    0  501    0  0.00000000000E+00  0.00000000000E+00  0.30200122397E+04  0.30200122397E+04  0.00000000000E+00 0.  1.
         -2   -1    0    0    0  501 -0.00000000000E+00 -0.00000000000E+00 -0.86539534532E+03  0.86539534532E+03  0.00000000000E+00 0. -1.
        -24    2    1    2    0    0 -0.10857315162E+03 -0.16262608959E+03 -0.10448112443E+03  0.23588029350E+03  0.80547087068E+02 0.  0.
    9900016    2    1    2    0    0 -0.57704967374E+02  0.23387290453E+03  0.53291066746E+03  0.18022476774E+04  0.17047218285E+04 0.  0.
        -15    1    1    2    0    0  0.26920757536E+03 -0.71990966091E+02  0.28164336644E+03  0.39620500210E+03  0.00000000000E+00 0.  1.
        -15    1    4    4    0    0 -0.53537343403E+02  0.68143018619E+02  0.77793967597E+02  0.11645436668E+03  0.00000000000E+00 0.  1.
         15    1    4    4    0    0 -0.25751858323E+03 -0.43841840142E+03  0.79811340792E+03  0.94631470839E+03  0.00000000000E+00 0. -1.
         15    1    3    3    0    0 -0.21981132285E+02 -0.75718968794E+02 -0.69451261891E+01  0.79150282309E+02  0.00000000000E+00 0. -1.
        -16    1    3    3    0    0 -0.86592019333E+02 -0.86907120791E+02 -0.97535998240E+02  0.15673001119E+03  0.00000000000E+00 0.  1.
         16    1    4    4    0    0  0.25335095926E+03  0.60414828733E+03 -0.34299670806E+03  0.73947860238E+03  0.00000000000E+00 0. -1.
    9900018    1    1    2    0    0 -0.10292945636E+03  0.74415114964E+00  0.14445439849E+04  0.14510746119E+04  0.91187600000E+02 0.  0.
<mgrwt>
<rscale>  0 0.14938427E+04</rscale>
<asrwt>0</asrwt>
<pdfrwt beam="1">  1        2 0.46461726E+00 0.28662738E+04</pdfrwt>
<pdfrwt beam="2">  1       -2 0.13313775E+00 0.28662738E+04</pdfrwt>
<totfact> 0.59143601E-01</totfact>
</mgrwt>
</event>
<event>
11    1  0.8466579E-014  0.2574233E+04  0.7818608E-02  0.9084317E-01
          3   -1    0    0  501    0  0.00000000000E+00  0.00000000000E+00  0.10705507379E+04  0.10705507379E+04  0.00000000000E+00 0. -1.
         -3   -1    0    0    0  501 -0.00000000000E+00 -0.00000000000E+00 -0.25302842188E+04  0.25302842188E+04  0.00000000000E+00 0.  1.
        -24    2    1    2    0    0  0.69364429346E+02 -0.84644173391E+02  0.40179688121E+03  0.42404878555E+03  0.80003616317E+02 0.  0.
         23    2    1    2    0    0  0.27219038369E+03  0.14523265797E+03 -0.52093755339E+03  0.61590492892E+03  0.11306112074E+03 0.  0.
        -15    1    1    2    0    0 -0.91751958070E+02 -0.92059653607E+03 -0.64117422979E+03  0.11256201833E+04  0.00000000000E+00 0.  1.
        -15    1    4    4    0    0  0.19328123949E+03  0.12671858954E+03 -0.28799763949E+03  0.36926667712E+03  0.00000000000E+00 0.  1.
         15    1    3    3    0    0  0.40494681406E+02 -0.46319363670E+02  0.92759474824E+02  0.11130868269E+03  0.00000000000E+00 0. -1.
         15    1    4    4    0    0  0.78909144201E+02  0.18514068430E+02 -0.23293991390E+03  0.24663825181E+03  0.00000000000E+00 0. -1.
        -16    1    3    3    0    0  0.28869747940E+02 -0.38324809721E+02  0.30903740639E+03  0.31274010285E+03  0.00000000000E+00 0.  1.
         16    1    1    2    0    0 -0.27747108585E+03  0.91039840504E+03 -0.83217553483E+03  0.12642513912E+04  0.00000000000E+00 0. -1.
    9900018    1    1    2    0    0  0.27668230884E+02 -0.50390353552E+02  0.13275695595E+03  0.17100966779E+03  0.91187600000E+02 0.  0.
<mgrwt>
<rscale>  0 0.12331592E+04</rscale>
<asrwt>0</asrwt>
<pdfrwt beam="1">  1        3 0.16470012E+00 0.25742329E+04</pdfrwt>
<pdfrwt beam="2">  1       -3 0.38927449E+00 0.25742329E+04</pdfrwt>
<totfact> 0.68624747E-03</totfact>
</mgrwt>
</event>
<event>
12    1  0.8466579E-014  0.2085667E+04  0.7818608E-02  0.9240954E-01
         -1   -1    0    0    0  501 -0.00000000000E+00  0.00000000000E+00  0.16205788237E+04  0.16205788237E+04  0.00000000000E+00 0.  1.
          1   -1    0    0  501    0  0.00000000000E+00 -0.00000000000E+00 -0.81041202317E+03  0.81041202317E+03  0.00000000000E+00 0. -1.
         24    2    1    2    0    0 -0.65163385631E+02  0.97221862035E+02  0.22344412746E+03  0.26436865074E+03  0.79152688586E+02 0.  0.
    9900016    2    1    2    0    0  0.15120231226E+03  0.21229456400E+03  0.70069132723E+03  0.18257527651E+04  0.16656751490E+04 0.  0.
         23    2    4    4    0    0 -0.51324642771E+03  0.65519259328E+02  0.41564140938E+03  0.66641579877E+03  0.60312243856E+02 0.  0.
        -15    1    5    5    0    0 -0.47422819923E+03  0.65617856433E+02  0.36257494437E+03  0.60054864774E+03  0.00000000000E+00 0.  1.
        -15    1    3    3    0    0 -0.72497207973E+02  0.44146143213E+02  0.11029937441E+03  0.13917858714E+03  0.00000000000E+00 0.  1.
         15    1    5    5    0    0 -0.39018228486E+02 -0.98597104313E-01  0.53066465013E+02  0.65867151028E+02  0.00000000000E+00 0. -1.
         15    1    1    2    0    0 -0.86038926630E+02 -0.30951642604E+03 -0.11396865414E+03  0.34086943103E+03  0.00000000000E+00 0. -1.
        -16    1    4    4    0    0  0.16665208608E+03  0.33851615582E+03 -0.20486065005E+03  0.42934134611E+03  0.00000000000E+00 0.  1.
         16    1    3    3    0    0  0.73338223422E+01  0.53075718822E+02  0.11314475306E+03  0.12519006360E+03  0.00000000000E+00 0. -1.
    9900018    1    4    4    0    0  0.49779665390E+03 -0.19174085114E+03  0.48991056791E+03  0.72999562024E+03  0.91187600000E+02 0.  0.
<mgrwt>
<rscale>  0 0.10640533E+04</rscale>
<asrwt>0</asrwt>
<pdfrwt beam="1">  1        1 0.12467877E+00 0.20856673E+04</pdfrwt>
<pdfrwt beam="2">  1       -1 0.24931982E+00 0.20856673E+04</pdfrwt>
<totfact> 0.13961936E+00</totfact>
</mgrwt>
</event>
<event>
11    1  0.8549394E-014  0.2812952E+04  0.7818608E-02  0.8958022E-01
         -2   -1    0    0    0  501 -0.00000000000E+00  0.00000000000E+00  0.21099886733E+04  0.21099886733E+04  0.00000000000E+00 0.  1.
          2   -1    0    0  501    0  0.00000000000E+00 -0.00000000000E+00 -0.10617595513E+04  0.10617595513E+04  0.00000000000E+00 0. -1.
         24    2    1    2    0    0  0.14666521336E+03 -0.29768539828E+02  0.12624541693E+03  0.21155302278E+03  0.80124436839E+02 0.  0.
    9900016    2    1    2    0    0 -0.59819854670E+03  0.22990401830E+03  0.11671678688E+04  0.24087862474E+04  0.20073049078E+04 0.  0.
        -15    1    3    3    0    0  0.21603535419E+02 -0.38262028645E+02  0.39803658429E+02  0.59287661473E+02  0.00000000000E+00 0.  1.
        -15    1    4    4    0    0 -0.14001039410E+03  0.26142216324E+03  0.16404156298E+03  0.33890130167E+03  0.00000000000E+00 0.  1.
         15    1    4    4    0    0 -0.95577414010E+02 -0.10091474095E+03  0.55770259359E+02  0.14976364325E+03  0.00000000000E+00 0. -1.
         15    1    1    2    0    0  0.45153333335E+03 -0.20013547847E+03 -0.24518416374E+03  0.55140895442E+03  0.00000000000E+00 0. -1.
        -16    1    4    4    0    0 -0.21816749218E+03  0.79620776179E+03  0.81837714710E+03  0.11624478524E+04  0.00000000000E+00 0.  1.
         16    1    3    3    0    0  0.12506167794E+03  0.84934888171E+01  0.86441758499E+02  0.15226536130E+03  0.00000000000E+00 0. -1.
    9900018    1    4    4    0    0 -0.14444324641E+03 -0.72681116579E+03  0.12897889941E+03  0.75767345013E+03  0.91187600000E+02 0.  0.
<mgrwt>
<rscale>  0 0.13942079E+04</rscale>
<asrwt>0</asrwt>
<pdfrwt beam="1">  1        2 0.16334762E+00 0.28129525E+04</pdfrwt>
<pdfrwt beam="2">  1       -2 0.32461364E+00 0.28129525E+04</pdfrwt>
<totfact> 0.44580045E-01</totfact>
</mgrwt>
</event>
<event>
11    1  0.8466579E-014  0.2556243E+04  0.7818608E-02  0.8964860E-01
         -2   -1    0    0    0  501 -0.00000000000E+00  0.00000000000E+00  0.43645978829E+03  0.43645978829E+03  0.00000000000E+00 0.  1.
          2   -1    0    0  501    0  0.00000000000E+00 -0.00000000000E+00 -0.50299461750E+04  0.50299461750E+04  0.00000000000E+00 0. -1.
         24    2    1    2    0    0  0.10414915373E+03 -0.17661949126E+03 -0.12590387168E+02  0.22055175533E+03  0.80268723762E+02 0.  0.
    9900016    2    1    2    0    0  0.29566355947E+03 -0.59962955771E+02 -0.23638257846E+04  0.29743591098E+04  0.17799233909E+04 0.  0.
        -15    1    3    3    0    0  0.10523779084E+03 -0.17286439176E+03 -0.28313744355E+02  0.20434959917E+03  0.00000000000E+00 0.  1.
        -15    1    4    4    0    0  0.19247284347E+03  0.66419108508E+01 -0.72162226790E+03  0.74687924592E+03  0.00000000000E+00 0.  1.
         15    1    4    4    0    0  0.48983284298E+03  0.22725282782E+03 -0.16558280794E+04  0.17416505650E+04  0.00000000000E+00 0. -1.
         15    1    1    2    0    0 -0.21787912862E+03  0.13291772046E+03 -0.14015294270E+04  0.14245782428E+04  0.00000000000E+00 0. -1.
        -16    1    4    4    0    0 -0.38664212698E+03 -0.29385769444E+03  0.13624562758E+02  0.48582929888E+03  0.00000000000E+00 0.  1.
         16    1    3    3    0    0 -0.10886371125E+01 -0.37550994943E+01  0.15723357187E+02  0.16202156159E+02  0.00000000000E+00 0. -1.
    9900018    1    1    2    0    0 -0.18193358457E+03  0.10366472657E+03 -0.81554078793E+03  0.84691685536E+03  0.91187600000E+02 0.  0.
<mgrwt>
<rscale>  0 0.13848479E+04</rscale>
<asrwt>0</asrwt>
<pdfrwt beam="1">  1        2 0.77383792E+00 0.25562430E+04</pdfrwt>
<pdfrwt beam="2">  1       -2 0.67147655E-01 0.25562430E+04</pdfrwt>
<totfact> 0.56793778E-02</totfact>
</mgrwt>
</event>
<event>
11    1  0.8466579E-014  0.3403315E+04  0.7818608E-02  0.8137093E-01
         -2   -1    0    0    0  501 -0.00000000000E+00  0.00000000000E+00  0.85849912971E+03  0.85849912971E+03  0.00000000000E+00 0.  1.
          2   -1    0    0  501    0  0.00000000000E+00 -0.00000000000E+00 -0.33729078041E+04  0.33729078041E+04  0.00000000000E+00 0. -1.
         24    2    1    2    0    0  0.44756804556E+03  0.42192299517E+03 -0.10070235101E+04  0.11827358694E+04  0.80197366884E+02 0.  0.
    9900016    2    1    2    0    0 -0.28730697553E+03 -0.75904879338E+03 -0.74739140465E+03  0.22019550972E+04  0.19056001599E+04 0.  0.
        -15    1    4    4    0    0 -0.34878185102E+03 -0.14155506282E+03 -0.66603410244E+03  0.76504120218E+03  0.00000000000E+00 0.  1.
        -15    1    3    3    0    0  0.26838935870E+03  0.19892331090E+03 -0.52909873863E+03  0.62573860893E+03  0.00000000000E+00 0.  1.
         15    1    4    4    0    0 -0.13146909729E+03 -0.14999952495E+03 -0.40268201522E+03  0.44937377139E+03  0.00000000000E+00 0. -1.
         15    1    1    2    0    0 -0.16026107002E+03  0.33712579821E+03 -0.75999375968E+03  0.84671596721E+03  0.00000000000E+00 0. -1.
        -16    1    4    4    0    0  0.45818939584E+03 -0.19030967595E+03  0.29595112591E+02  0.49702229921E+03  0.00000000000E+00 0.  1.
         16    1    3    3    0    0  0.17917868685E+03  0.22299968427E+03 -0.47792477142E+03  0.55699726044E+03  0.00000000000E+00 0. -1.
    9900018    1    4    4    0    0 -0.26524542306E+03 -0.27718452966E+03  0.29172960042E+03  0.49051782444E+03  0.91187600000E+02 0.  0.
<mgrwt>
<rscale>  0 0.34033151E+04</rscale>
<asrwt>0</asrwt>
<pdfrwt beam="1">  1        2 0.51890890E+00 0.34033151E+04</pdfrwt>
<pdfrwt beam="2">  1       -2 0.13207679E+00 0.34033151E+04</pdfrwt>
<totfact> 0.34325739E-01</totfact>
</mgrwt>
</event>
<event>
11    1  0.8466579E-014  0.1835613E+04  0.7818608E-02  0.9277701E-01
          1   -1    0    0  501    0  0.00000000000E+00  0.00000000000E+00  0.16519475125E+04  0.16519475125E+04  0.00000000000E+00 0. -1.
         -1   -1    0    0    0  501 -0.00000000000E+00 -0.00000000000E+00 -0.61568317614E+03  0.61568317614E+03  0.00000000000E+00 0.  1.
         24    2    1    2    0    0 -0.10643013400E+03  0.11973494857E+03  0.80378501879E+02  0.19804338636E+03  0.84241604830E+02 0.  0.
         23    2    1    2    0    0  0.36616975992E+03  0.14662013515E+03  0.99050910571E+03  0.10713433162E+04  0.10531123239E+03 0.  0.
        -15    1    3    3    0    0 -0.13943281882E+02 -0.76862245589E+01 -0.76432136793E+01  0.17661026951E+02  0.00000000000E+00 0.  1.
        -15    1    4    4    0    0  0.21446946945E+03  0.31110654030E+02  0.49199877755E+03  0.53761307949E+03  0.00000000000E+00 0.  1.
         15    1    1    2    0    0  0.20455254239E+03 -0.92023769654E+02 -0.14205558736E+01  0.22430366640E+03  0.00000000000E+00 0. -1.
         15    1    4    4    0    0  0.15170029047E+03  0.11550948112E+03  0.49851032815E+03  0.53373023676E+03  0.00000000000E+00 0. -1.
        -16    1    1    2    0    0 -0.54203887192E+03 -0.13574414605E+02 -0.12020343344E+03  0.55537308975E+03  0.00000000000E+00 0.  1.
         16    1    3    3    0    0 -0.92486852115E+02  0.12742117313E+03  0.88021715558E+02  0.18038235941E+03  0.00000000000E+00 0. -1.
    9900018    1    1    2    0    0  0.77746703605E+02 -0.16075689946E+03  0.87000718093E+02  0.21856722990E+03  0.91187600000E+02 0.  0.
<mgrwt>
<rscale>  0 0.10286191E+04</rscale>
<asrwt>0</asrwt>
<pdfrwt beam="1">  1        1 0.25414577E+00 0.18356127E+04</pdfrwt>
<pdfrwt beam="2">  1       -1 0.94720489E-01 0.18356127E+04</pdfrwt>
<totfact> 0.51886869E+00</totfact>
</mgrwt>
</event>
<event>
11    1  0.8466579E-014  0.2112288E+04  0.7818608E-02  0.9304146E-01
          1   -1    0    0  501    0  0.00000000000E+00  0.00000000000E+00  0.15780102410E+04  0.15780102410E+04  0.00000000000E+00 0. -1.
         -1   -1    0    0    0  501 -0.00000000000E+00 -0.00000000000E+00 -0.81402718363E+03  0.81402718363E+03  0.00000000000E+00 0.  1.
        -24    2    1    2    0    0 -0.72743885041E+02  0.65145199377E+01  0.16386121056E+03  0.19615369904E+03  0.79320019784E+02 0.  0.
         23    2    1    2    0    0  0.48479812781E+03  0.55379850787E+03  0.78541182909E+02  0.74883128653E+03  0.11339120881E+03 0.  0.
        -15    1    4    4    0    0  0.15407894367E+02  0.52468078913E+02  0.24537837651E+02  0.59936699862E+02  0.00000000000E+00 0. -1.
        -15    1    1    2    0    0 -0.13096773433E+03 -0.97672924698E+01 -0.32943927022E+03  0.35465219610E+03  0.00000000000E+00 0.  1.
         15    1    3    3    0    0 -0.55147011779E+02 -0.15767579404E+02  0.42161044611E+02  0.71185413893E+02  0.00000000000E+00 0. -1.
         15    1    4    4    0    0  0.46939023344E+03  0.50133042895E+03  0.54003345258E+02  0.68889458667E+03  0.00000000000E+00 0.  1.
        -16    1    3    3    0    0 -0.17596873262E+02  0.22282099341E+02  0.12170016595E+03  0.12496828514E+03  0.00000000000E+00 0.  1.
         16    1    1    2    0    0 -0.30420089701E+03 -0.46594173928E+03  0.72382099498E+03  0.91299327649E+03  0.00000000000E+00 0. -1.
    9900018    1    1    2    0    0  0.23114388568E+02 -0.84603996050E+02  0.12719893917E+03  0.17940696649E+03  0.91187600000E+02 0.  0.
<mgrwt>
<rscale>  0 0.10040204E+04</rscale>
<asrwt>0</asrwt>
<pdfrwt beam="1">  1        1 0.24277081E+00 0.21122876E+04</pdfrwt>
<pdfrwt beam="2">  1       -1 0.12523495E+00 0.21122876E+04</pdfrwt>
<totfact> 0.29431567E+00</totfact>
</mgrwt>
</event>
<event>
11    1  0.8466579E-014  0.1795184E+04  0.7818608E-02  0.9369543E-01
         -1   -1    0    0    0  501 -0.00000000000E+00  0.00000000000E+00  0.11157009934E+04  0.11157009934E+04  0.00000000000E+00 0.  1.
          1   -1    0    0  501    0  0.00000000000E+00 -0.00000000000E+00 -0.88839131928E+03  0.88839131928E+03  0.00000000000E+00 0. -1.
        -24    2    1    2    0    0  0.11170998020E+03  0.16035920320E+02  0.15434159887E+03  0.20742628779E+03  0.80424283091E+02 0.  0.
         23    2    1    2    0    0 -0.42672949269E+03  0.21346953019E+03 -0.29772694468E+02  0.48928052550E+03  0.10412357588E+03 0.  0.
        -15    1    4    4    0    0 -0.29133904683E+03  0.10471032905E+03  0.14966907886E+02  0.30994628817E+03  0.00000000000E+00 0. -1.
        -15    1    1    2    0    0  0.59452002254E+03 -0.46202028699E+03  0.90921488340E+02  0.75840854414E+03  0.00000000000E+00 0.  1.
         15    1    3    3    0    0  0.93669003859E+02 -0.69274552524E+01  0.67110813251E+02  0.11543713950E+03  0.00000000000E+00 0. -1.
         15    1    4    4    0    0 -0.13539044586E+03  0.10875920114E+03 -0.44739602354E+02  0.17933423734E+03  0.00000000000E+00 0.  1.
        -16    1    3    3    0    0  0.18040976337E+02  0.22963375572E+02  0.87230785615E+02  0.91989148294E+02  0.00000000000E+00 0.  1.
         16    1    1    2    0    0 -0.65464521002E+01  0.15281357256E+03 -0.14580363504E+03  0.21131385185E+03  0.00000000000E+00 0. -1.
    9900018    1    1    2    0    0 -0.27295405794E+03  0.79701263924E+02  0.15762291641E+03  0.33766310339E+03  0.91187600000E+02 0.  0.
<mgrwt>
<rscale>  0 0.94625162E+03</rscale>
<asrwt>0</asrwt>
<pdfrwt beam="1">  1        1 0.13667559E+00 0.17951837E+04</pdfrwt>
<pdfrwt beam="2">  1       -1 0.17164631E+00 0.17951837E+04</pdfrwt>
<totfact> 0.41800130E+00</totfact>
</mgrwt>
</event>
