<event>
11    1  0.1138865E-016  0.2730126E+04  0.7818608E-02  0.9129701E-01
         -3   -1    0    0    0  501 -0.00000000000E+00  0.00000000000E+00  0.88144157557E+03  0.88144157557E+03  0.00000000000E+00 0.  1.
          3   -1    0    0  501    0  0.00000000000E+00 -0.00000000000E+00 -0.29038416582E+04  0.29038416582E+04  0.00000000000E+00 0. -1.
         24    2    1    2    0    0  0.70826246393E+02  0.10239248939E+02 -0.77986892635E+03  0.78570428802E+03  0.63359975695E+02 0.  0.
    9900016    2    1    2    0    0 -0.27599635675E+01  0.49427394050E+03 -0.31292169486E+03  0.18781239270E+04  0.17846890913E+04 0.  0.
        -15    1    4    4    0    0 -0.79780405455E+02 -0.11336918961E+03  0.15921377334E+03  0.21110782049E+03  0.00000000000E+00 0.  1.
        -15    1    3    3    0    0  0.45245269762E+02  0.23588820171E+02 -0.25567782994E+03  0.26071961874E+03  0.00000000000E+00 0.  1.
         15    1    1    2    0    0 -0.16860050844E+02 -0.48595993197E+03 -0.87733401610E+03  0.10030734233E+04  0.00000000000E+00 0. -1.
         15    1    4    4    0    0 -0.62747354016E+03 -0.56902553900E+02 -0.20026379241E+03  0.66111007464E+03  0.00000000000E+00 0. -1.
        -16    1    4    4    0    0  0.70449398205E+03  0.66454568401E+03 -0.27187167579E+03  0.10059060319E+04  0.00000000000E+00 0.  1.
         16    1    3    3    0    0  0.25580976632E+02 -0.13349571232E+02 -0.52419109641E+03  0.52498466928E+03  0.00000000000E+00 0. -1.
    9900018    1    1    2    0    0 -0.51206231981E+02 -0.18553257469E+02 -0.52275445330E+02  0.11838159542E+03  0.91187600000E+02 0.  0.
<mgrwt>
<rscale>  0 0.11809453E+04</rscale>
<asrwt>0</asrwt>
<pdfrwt beam="1">  1        3 0.44674487E+00 0.27301264E+04</pdfrwt>
<pdfrwt beam="2">  1       -3 0.13560640E+00 0.27301264E+04</pdfrwt>
<totfact> 0.59079760E-03</totfact>
</mgrwt>
</event>
<event>
11    1  0.1138865E-016  0.4733298E+04  0.7818608E-02  0.8672568E-01
          1   -1    0    0  501    0  0.00000000000E+00  0.00000000000E+00  0.28810951348E+04  0.28810951348E+04  0.00000000000E+00 0. -1.
         -1   -1    0    0    0  501 -0.00000000000E+00 -0.00000000000E+00 -0.20598653563E+04  0.20598653563E+04  0.00000000000E+00 0.  1.
        -24    2    1    2    0    0 -0.99985615494E+00  0.91221161186E+02  0.10263694817E+03  0.15342590848E+03  0.68431471589E+02 0.  0.
    9900016    2    1    2    0    0  0.12305934233E+04 -0.24506923482E+03  0.19807031809E+04  0.30187801884E+04  0.19014283136E+04 0.  0.
        -15    1    1    2    0    0 -0.12295935671E+04  0.15384807363E+03 -0.12621103505E+04  0.17687543942E+04  0.00000000000E+00 0.  1.
        -15    1    4    4    0    0  0.11227837222E+04 -0.34361501193E+03  0.40974062539E+03  0.12436245186E+04  0.00000000000E+00 0. -1.
         15    1    3    3    0    0  0.27871958994E+02  0.76205462075E+02  0.67652563989E+02  0.10564557711E+03  0.00000000000E+00 0. -1.
         15    1    4    4    0    0  0.92770386661E+02  0.23409490766E+02 -0.93670411394E+01  0.96135791248E+02  0.00000000000E+00 0.  1.
        -16    1    3    3    0    0 -0.28871815149E+02  0.15015699111E+02  0.34984384177E+02  0.47780331372E+02  0.00000000000E+00 0.  1.
         16    1    4    4    0    0 -0.14497178175E+03  0.89395636551E+02  0.14320608994E+04  0.14421535344E+04  0.00000000000E+00 0. -1.
    9900018    1    4    4    0    0  0.16001109616E+03 -0.14259350206E+02  0.14826869725E+03  0.23686634404E+03  0.91187600000E+02 0.  0.
<mgrwt>
<rscale>  0 0.18648220E+04</rscale>
<asrwt>0</asrwt>
<pdfrwt beam="1">  1        1 0.44324541E+00 0.47332982E+04</pdfrwt>
<pdfrwt beam="2">  1       -1 0.31690236E+00 0.47332982E+04</pdfrwt>
<totfact> 0.13713948E-02</totfact>
</mgrwt>
</event>
<event>
12    1  0.1138865E-016  0.4174770E+04  0.7818608E-02  0.8517334E-01
         -1   -1    0    0    0  501 -0.00000000000E+00  0.00000000000E+00  0.21158927723E+04  0.21158927723E+04  0.00000000000E+00 0.  1.
          1   -1    0    0  501    0  0.00000000000E+00 -0.00000000000E+00 -0.24430349722E+04  0.24430349722E+04  0.00000000000E+00 0. -1.
         24    2    1    2    0    0 -0.10331110711E+02 -0.31760114704E+03  0.15074530960E+03  0.35689493582E+03  0.60602197998E+02 0.  0.
    9900016    2    1    2    0    0 -0.40497640966E+03  0.20454930117E+03  0.12187275831E+04  0.22236497224E+04  0.18037391322E+04 0.  0.
         23    2    4    4    0    0 -0.17047386785E+02 -0.30906919693E+03 -0.37787767986E+03  0.50218486533E+03  0.11654920053E+03 0.  0.
        -15    1    5    5    0    0  0.42101241981E+02 -0.19707344862E+03 -0.20089432483E+03  0.28455050251E+03  0.00000000000E+00 0.  1.
        -15    1    3    3    0    0 -0.30473187583E+02 -0.21602197028E+03  0.11940280174E+03  0.24869888594E+03  0.00000000000E+00 0.  1.
         15    1    1    2    0    0  0.47176568784E+03  0.86069801363E+02 -0.17777023074E+04  0.18412485896E+04  0.00000000000E+00 0. -1.
         15    1    5    5    0    0 -0.59148628766E+02 -0.11199574831E+03 -0.17698335502E+03  0.21763436282E+03  0.00000000000E+00 0. -1.
        -16    1    4    4    0    0 -0.38792902288E+03  0.51361849810E+03  0.15966052629E+04  0.17214648570E+04  0.00000000000E+00 0.  1.
         16    1    3    3    0    0  0.20142076872E+02 -0.10157917675E+03  0.31342507865E+02  0.10819604988E+03  0.00000000000E+00 0. -1.
    9900018    1    1    2    0    0 -0.56458167466E+02  0.26982044505E+02  0.81087214745E+02  0.13713449671E+03  0.91187600000E+02 0.  0.
<mgrwt>
<rscale>  0 0.22026309E+04</rscale>
<asrwt>0</asrwt>
<pdfrwt beam="1">  1        1 0.37585153E+00 0.41747698E+04</pdfrwt>
<pdfrwt beam="2">  1       -1 0.32552197E+00 0.41747698E+04</pdfrwt>
<totfact> 0.25448290E-02</totfact>
</mgrwt>
</event>
