<event>
12    1  0.1038707E-007  0.3794651E+04  0.7818608E-02  0.8315655E-01
          2   -1    0    0  501    0  0.00000000000E+00  0.00000000000E+00  0.24433040590E+04  0.24433040590E+04  0.00000000000E+00 0. -1.
         -2   -1    0    0    0  501 -0.00000000000E+00 -0.00000000000E+00 -0.25912175790E+04  0.25912175790E+04  0.00000000000E+00 0.  1.
         24    2    1    2    0    0  0.99414954306E+03  0.37151788588E+03  0.51747615002E+03  0.11819749466E+04  0.54077306531E+02 0.  0.
    9900016    2    1    2    0    0 -0.45120363907E+03  0.16142865702E+03  0.54816534394E+03  0.19959783996E+04  0.18584403655E+04 0.  0.
        -24    2    4    4    0    0 -0.52613391655E+03 -0.16823450776E+03 -0.58716145115E+03  0.81138594629E+03  0.92026280922E+02 0.  0.
        -15    1    4    4    0    0  0.74930277481E+02  0.32966316478E+03  0.11353267951E+04  0.11845924533E+04  0.00000000000E+00 0.  1.
        -15    1    3    3    0    0  0.82088668715E+03  0.32689968686E+03  0.42215910743E+03  0.97925311865E+03  0.00000000000E+00 0.  1.
         15    1    1    2    0    0  0.14490165393E+03 -0.17869231559E+03 -0.10310564382E+04  0.10564112891E+04  0.00000000000E+00 0. -1.
         15    1    5    5    0    0 -0.33003461050E+03 -0.75635659767E+02 -0.30657891314E+03  0.45676495831E+03  0.00000000000E+00 0. -1.
        -16    1    5    5    0    0 -0.19609930605E+03 -0.92598847992E+02 -0.28058253801E+03  0.35462098799E+03  0.00000000000E+00 0.  1.
         16    1    3    3    0    0  0.17326285591E+03  0.44618199021E+02  0.95317042588E+02  0.20272182796E+03  0.00000000000E+00 0. -1.
    9900018    1    1    2    0    0 -0.68784755792E+03 -0.35425422730E+03 -0.18249857581E+03  0.80015700276E+03  0.91187600000E+02 0.  0.
<mgrwt>
<rscale>  0 0.27604456E+04</rscale>
<asrwt>0</asrwt>
<pdfrwt beam="1">  1        2 0.37589293E+00 0.37946505E+04</pdfrwt>
<pdfrwt beam="2">  1       -2 0.39864886E+00 0.37946505E+04</pdfrwt>
<totfact> 0.21893397E-02</totfact>
</mgrwt>
</event>
<event>
11    1  0.1038707E-007  0.4130933E+04  0.7818608E-02  0.8548317E-01
         -3   -1    0    0    0  501 -0.00000000000E+00  0.00000000000E+00  0.22964925997E+04  0.22964925997E+04  0.00000000000E+00 0.  1.
          3   -1    0    0  501    0  0.00000000000E+00 -0.00000000000E+00 -0.24981928900E+04  0.24981928900E+04  0.00000000000E+00 0. -1.
         24    2    1    2    0    0 -0.16838648012E+03 -0.22905546594E+03 -0.57716602582E+03  0.64672388909E+03  0.65656334048E+02 0.  0.
    9900016    2    1    2    0    0 -0.18885450978E+03  0.14793322490E+04 -0.42823400767E+03  0.24121849269E+04  0.18469330868E+04 0.  0.
        -15    1    4    4    0    0 -0.75562594403E+03  0.13370975438E+04  0.20495160664E+03  0.15494533132E+04  0.00000000000E+00 0.  1.
        -15    1    3    3    0    0 -0.10065596781E+03 -0.12488133788E+03 -0.39390689306E+03  0.42531119526E+03  0.00000000000E+00 0.  1.
         15    1    4    4    0    0  0.13471209600E+02  0.46310345907E-03 -0.24397453349E+02  0.27869503372E+02  0.00000000000E+00 0. -1.
         15    1    1    2    0    0  0.29642188337E+03 -0.13255891420E+04  0.58310678029E+03  0.14781968826E+04  0.00000000000E+00 0. -1.
        -16    1    4    4    0    0  0.55330022464E+03  0.14223424214E+03 -0.60878816096E+03  0.83486211027E+03  0.00000000000E+00 0.  1.
         16    1    3    3    0    0 -0.67730512305E+02 -0.10417412806E+03 -0.18325913275E+03  0.22141269383E+03  0.00000000000E+00 0. -1.
    9900018    1    1    2    0    0  0.60819106528E+02  0.75312358981E+02  0.22059296287E+03  0.25757979112E+03  0.91187600000E+02 0.  0.
<mgrwt>
<rscale>  0 0.21295963E+04</rscale>
<asrwt>0</asrwt>
<pdfrwt beam="1">  1        3 0.38433737E+00 0.41309334E+04</pdfrwt>
<pdfrwt beam="2">  1       -3 0.35330655E+00 0.41309334E+04</pdfrwt>
<totfact> 0.50417917E-04</totfact>
</mgrwt>
</event>
<event>
12    1  0.1038707E-007  0.3556134E+04  0.7818608E-02  0.8381534E-01
          2   -1    0    0  501    0  0.00000000000E+00  0.00000000000E+00  0.50228289880E+04  0.50228289880E+04  0.00000000000E+00 0. -1.
         -2   -1    0    0    0  501 -0.00000000000E+00 -0.00000000000E+00 -0.11690610813E+04  0.11690610813E+04  0.00000000000E+00 0.  1.
         24    2    1    2    0    0 -0.88499058694E+03  0.34904042770E+03  0.19171990249E+04  0.21426447628E+04  0.10117766171E+03 0.  0.
    9900016    2    1    2    0    0 -0.99312825578E+02 -0.37794115928E+03  0.35755309043E+03  0.19177974974E+04  0.18432038605E+04 0.  0.
        -24    2    4    4    0    0 -0.29016886257E+03 -0.28005469732E+03  0.10835660712E+04  0.11607620725E+04  0.10307548729E+03 0.  0.
        -15    1    4    4    0    0  0.19085603699E+03 -0.97886461963E+02 -0.72601298076E+03  0.75703542488E+03  0.00000000000E+00 0.  1.
        -15    1    3    3    0    0 -0.11121348112E+03  0.76043498940E+02  0.31360302687E+03  0.34131790251E+03  0.00000000000E+00 0.  1.
         15    1    1    2    0    0  0.61950947748E+03 -0.45184970730E+03  0.58277588060E+03  0.96311363695E+03  0.00000000000E+00 0. -1.
         15    1    5    5    0    0 -0.43475392639E+02 -0.71951695092E+02  0.33876096964E+03  0.34903603072E+03  0.00000000000E+00 0. -1.
        -16    1    5    5    0    0 -0.24669346993E+03 -0.20810300223E+03  0.74480510156E+03  0.81172604181E+03  0.00000000000E+00 0.  1.
         16    1    3    3    0    0 -0.77377710582E+03  0.27299692876E+03  0.16035959981E+04  0.18013268603E+04  0.00000000000E+00 0. -1.
    9900018    1    1    2    0    0  0.36479393504E+03  0.48075043888E+03  0.99623991072E+03  0.11683341721E+04  0.91187600000E+02 0.  0.
<mgrwt>
<rscale>  0 0.25611057E+04</rscale>
<asrwt>0</asrwt>
<pdfrwt beam="1">  1        2 0.77274291E+00 0.35561339E+04</pdfrwt>
<pdfrwt beam="2">  1       -2 0.17985555E+00 0.35561339E+04</pdfrwt>
<totfact> 0.45708506E-03</totfact>
</mgrwt>
</event>
<event>
12    1  0.1038707E-007  0.3597649E+04  0.7818608E-02  0.8503476E-01
         -1   -1    0    0    0  501 -0.00000000000E+00  0.00000000000E+00  0.11679239356E+04  0.11679239356E+04  0.00000000000E+00 0.  1.
          1   -1    0    0  501    0  0.00000000000E+00 -0.00000000000E+00 -0.36837987226E+04  0.36837987226E+04  0.00000000000E+00 0. -1.
        -24    2    1    2    0    0 -0.49722064349E+03 -0.17356747425E+03 -0.19996588005E+03  0.57311149700E+03  0.10543433207E+03 0.  0.
    9900016    2    1    2    0    0  0.38708074716E+03 -0.77002089278E+03 -0.16599767312E+04  0.26243861373E+04  0.18409552329E+04 0.  0.
         24    2    4    4    0    0 -0.60713381475E+02 -0.13189811886E+04 -0.10213243718E+04  0.16705759758E+04  0.65750498286E+02 0.  0.
        -15    1    5    5    0    0 -0.48579252470E+02 -0.12840796375E+04 -0.98999963662E+03  0.16221343162E+04  0.00000000000E+00 0.  1.
        -15    1    1    2    0    0  0.64028392457E+03  0.46114573525E+03 -0.26311052807E+03  0.83177283147E+03  0.00000000000E+00 0.  1.
         15    1    4    4    0    0  0.44779412863E+03  0.54896029581E+03 -0.63865235945E+03  0.95381016153E+03  0.00000000000E+00 0. -1.
         15    1    3    3    0    0 -0.19123965128E+03 -0.11575858190E+03 -0.10899249312E+03  0.24870065754E+03  0.00000000000E+00 0. -1.
        -16    1    3    3    0    0 -0.30598099221E+03 -0.57808892352E+02 -0.90973386931E+02  0.32441083946E+03  0.00000000000E+00 0.  1.
         16    1    5    5    0    0 -0.12134129004E+02 -0.34901551057E+02 -0.31324735138E+02  0.48441659595E+02  0.00000000000E+00 0. -1.
    9900018    1    1    2    0    0 -0.53014402824E+03  0.48244263178E+03 -0.39282164764E+03  0.82245219246E+03  0.91187600000E+02 0.  0.
<mgrwt>
<rscale>  0 0.22362833E+04</rscale>
<asrwt>0</asrwt>
<pdfrwt beam="1">  1        1 0.56673825E+00 0.35976491E+04</pdfrwt>
<pdfrwt beam="2">  1       -1 0.17968061E+00 0.35976491E+04</pdfrwt>
<totfact> 0.29558659E-02</totfact>
</mgrwt>
</event>
<event>
10    1  0.1038707E-007  0.3493324E+04  0.7818608E-02  0.8525385E-01
          2   -1    0    0  501    0  0.00000000000E+00  0.00000000000E+00  0.31793684907E+04  0.31793684907E+04  0.00000000000E+00 0. -1.
         -2   -1    0    0    0  501 -0.00000000000E+00 -0.00000000000E+00 -0.16070832372E+04  0.16070832372E+04  0.00000000000E+00 0.  1.
    9900016    2    1    2    0    0  0.44959899948E+03 -0.46890822582E+03  0.31330049930E+03  0.19783733932E+04  0.18422241708E+04 0.  0.
        -15    1    1    2    0    0 -0.30885824286E+03 -0.15083813116E+03  0.60757838618E+03  0.69806665251E+03  0.00000000000E+00 0.  1.
        -15    1    3    3    0    0 -0.97637786539E+02 -0.71212197023E+03  0.82651423604E+03  0.10953431518E+04  0.00000000000E+00 0.  1.
         15    1    3    3    0    0  0.65073396624E+02 -0.82374106319E+02 -0.19104718632E+03  0.21798868719E+03  0.00000000000E+00 0. -1.
         15    1    1    2    0    0  0.40862121395E+03  0.86916767297E+03 -0.14145821352E+03  0.97079048532E+03  0.00000000000E+00 0. -1.
        -16    1    3    3    0    0  0.48216338939E+03  0.32558785073E+03 -0.32216655042E+03  0.66504155421E+03  0.00000000000E+00 0.  1.
         16    1    1    2    0    0 -0.15919985858E+03  0.68762962015E+02  0.54261628840E+03  0.56965373373E+03  0.00000000000E+00 0. -1.
    9900018    1    1    2    0    0 -0.39016211199E+03 -0.31818427800E+03  0.25024829312E+03  0.56956746308E+03  0.91187600000E+02 0.  0.
<mgrwt>
<rscale>  0 0.21833625E+04</rscale>
<asrwt>0</asrwt>
<pdfrwt beam="1">  1        2 0.48913361E+00 0.34933236E+04</pdfrwt>
<pdfrwt beam="2">  1       -2 0.24724358E+00 0.34933236E+04</pdfrwt>
<totfact> 0.71018140E-02</totfact>
</mgrwt>
</event>
<event>
11    1  0.1038707E-007  0.3554082E+04  0.7818608E-02  0.8453865E-01
          2   -1    0    0  501    0  0.00000000000E+00  0.00000000000E+00  0.16518754824E+04  0.16518754824E+04  0.00000000000E+00 0.  1.
         -2   -1    0    0    0  501 -0.00000000000E+00 -0.00000000000E+00 -0.32412543921E+04  0.32412543921E+04  0.00000000000E+00 0. -1.
    9900016    2    1    2    0    0  0.40803864497E+02  0.13079174734E+04 -0.19296393789E+03  0.22664949535E+04  0.18405029803E+04 0.  0.
        -24    2    3    3    0    0 -0.42020379359E+03 -0.30879035400E+03 -0.24757723620E+03  0.58445605017E+03  0.91496862408E+02 0.  0.
        -15    1    3    3    0    0  0.46100765808E+03  0.16167078274E+04  0.54613298310E+02  0.16820389033E+04  0.00000000000E+00 0.  1.
        -15    1    1    2    0    0  0.22490943379E+03 -0.21138189314E+03 -0.52426374524E+03  0.60837408946E+03  0.00000000000E+00 0.  1.
         15    1    4    4    0    0 -0.15004001985E+03 -0.16500199395E+03 -0.11508834088E+03  0.25096412447E+03  0.00000000000E+00 0. -1.
         15    1    1    2    0    0 -0.21595270626E+03 -0.76609479456E+03 -0.46318949960E+03  0.92091330652E+03  0.00000000000E+00 0. -1.
        -16    1    4    4    0    0 -0.27016377374E+03 -0.14378836005E+03 -0.13248889532E+03  0.33349192570E+03  0.00000000000E+00 0.  1.
         16    1    1    2    0    0  0.28892080802E+03 -0.25281357039E+03 -0.58309851725E+03  0.69813595775E+03  0.00000000000E+00 0. -1.
    9900018    1    1    2    0    0 -0.33868140005E+03 -0.77627215279E+02  0.17413679032E+03  0.39921156725E+03  0.91187600000E+02 0.  0.
<mgrwt>
<rscale>  0 0.23620109E+04</rscale>
<asrwt>0</asrwt>
<pdfrwt beam="1">  1        2 0.25413469E+00 0.35540824E+04</pdfrwt>
<pdfrwt beam="2">  1       -2 0.49865452E+00 0.35540824E+04</pdfrwt>
<totfact> 0.13869346E-02</totfact>
</mgrwt>
</event>
<event>
11    1  0.1038707E-007  0.4111885E+04  0.7818608E-02  0.8228868E-01
          1   -1    0    0  501    0  0.00000000000E+00  0.00000000000E+00  0.28015856100E+04  0.28015856100E+04  0.00000000000E+00 0. -1.
         -1   -1    0    0    0  501 -0.00000000000E+00 -0.00000000000E+00 -0.28200218901E+04  0.28200218901E+04  0.00000000000E+00 0.  1.
         24    2    1    2    0    0  0.37130048481E+03  0.11906137342E+04  0.72338127558E+03  0.14433432949E+04  0.67337085139E+02 0.  0.
    9900016    2    1    2    0    0 -0.10841997572E+04 -0.65751355609E+03 -0.14594202127E+04  0.26691409909E+04  0.18402698395E+04 0.  0.
        -15    1    4    4    0    0 -0.15735097858E+04 -0.24396197684E+03 -0.10469339466E+04  0.19056550529E+04  0.00000000000E+00 0.  1.
        -15    1    3    3    0    0  0.32887535859E+03  0.96767045516E+03  0.58977598799E+03  0.11799918759E+04  0.00000000000E+00 0.  1.
         15    1    4    4    0    0  0.24717816508E+03 -0.17744421393E+03 -0.19507475667E+03  0.36143831430E+03  0.00000000000E+00 0. -1.
         15    1    1    2    0    0  0.26368507235E+03 -0.68310054016E+03  0.71986709631E+03  0.10268226730E+04  0.00000000000E+00 0. -1.
        -16    1    4    4    0    0  0.24213186353E+03 -0.23610736531E+03 -0.21741150938E+03  0.40204762368E+03  0.00000000000E+00 0.  1.
         16    1    3    3    0    0  0.42425126214E+02  0.22294327906E+03  0.13360528759E+03  0.26335141899E+03  0.00000000000E+00 0. -1.
    9900018    1    1    2    0    0  0.44921420001E+03  0.15000036203E+03 -0.22644392453E+01  0.48230054134E+03  0.91187600000E+02 0.  0.
<mgrwt>
<rscale>  0 0.30526003E+04</rscale>
<asrwt>0</asrwt>
<pdfrwt beam="1">  1        1 0.43101317E+00 0.41118850E+04</pdfrwt>
<pdfrwt beam="2">  1       -1 0.43384952E+00 0.41118850E+04</pdfrwt>
<totfact> 0.25745318E-03</totfact>
</mgrwt>
</event>
<event>
10    1  0.1038707E-007  0.4120309E+04  0.7818608E-02  0.8380154E-01
         -2   -1    0    0    0  501 -0.00000000000E+00  0.00000000000E+00  0.23627525529E+04  0.23627525529E+04  0.00000000000E+00 0. -1.
          2   -1    0    0  501    0  0.00000000000E+00 -0.00000000000E+00 -0.27588738456E+04  0.27588738456E+04  0.00000000000E+00 0.  1.
    9900016    2    1    2    0    0  0.14531682312E+03  0.77784651007E+03  0.66925698405E+03  0.21568779205E+04  0.18915748151E+04 0.  0.
        -15    1    1    2    0    0 -0.34858513257E+03 -0.14162830505E+03 -0.31205535950E+03  0.48882381165E+03  0.00000000000E+00 0.  1.
        -15    1    3    3    0    0 -0.74203730101E+02 -0.26517771947E+03 -0.50215847358E+03  0.57270284533E+03  0.00000000000E+00 0.  1.
         15    1    3    3    0    0  0.46481292044E+02  0.18328239620E+03  0.19106693053E+03  0.26881130781E+03  0.00000000000E+00 0. -1.
         15    1    1    2    0    0  0.29070242284E+02 -0.12104052201E+04 -0.40626134089E+03  0.12770959842E+04  0.00000000000E+00 0. -1.
        -16    1    3    3    0    0  0.17303926118E+03  0.85974183334E+03  0.98034852710E+03  0.13153637674E+04  0.00000000000E+00 0.  1.
         16    1    1    2    0    0 -0.19975694005E+03 -0.41686860421E+01 -0.45390058929E+03  0.49592938811E+03  0.00000000000E+00 0. -1.
    9900018    1    1    2    0    0  0.37395500722E+03  0.57835570114E+03  0.10683901289E+03  0.70289929402E+03  0.91187600000E+02 0.  0.
<mgrwt>
<rscale>  0 0.25650999E+04</rscale>
<asrwt>0</asrwt>
<pdfrwt beam="1">  1        2 0.42444213E+00 0.41203085E+04</pdfrwt>
<pdfrwt beam="2">  1       -2 0.36350039E+00 0.41203085E+04</pdfrwt>
<totfact> 0.23612464E-02</totfact>
</mgrwt>
</event>
<event>
12    1  0.1038707E-007  0.3465758E+04  0.7818608E-02  0.8445290E-01
          2   -1    0    0  501    0  0.00000000000E+00  0.00000000000E+00  0.24242395528E+04  0.24242395528E+04  0.00000000000E+00 0. -1.
         -2   -1    0    0    0  501 -0.00000000000E+00 -0.00000000000E+00 -0.20577168339E+04  0.20577168339E+04  0.00000000000E+00 0.  1.
         24    2    1    2    0    0  0.47755686647E+02  0.77300145813E+03 -0.48161669384E+03  0.91392901028E+03  0.59158567906E+02 0.  0.
    9900016    2    1    2    0    0 -0.68393496209E+03 -0.10136201418E+04  0.53320143914E+03  0.22848641305E+04  0.18550222360E+04 0.  0.
        -24    2    4    4    0    0 -0.24069846380E+03 -0.40106256191E+03 -0.69494692883E+03  0.84263190376E+03  0.91051426673E+02 0.  0.
        -15    1    3    3    0    0  0.46706645722E+02  0.35347298141E+03 -0.24001455679E+03  0.42980419590E+03  0.00000000000E+00 0.  1.
        -15    1    4    4    0    0 -0.44323649829E+03 -0.61255757990E+03  0.12281483680E+04  0.14422322267E+04  0.00000000000E+00 0.  1.
         15    1    1    2    0    0  0.31338469040E+03 -0.40640973043E+03  0.16516605255E+03  0.53912768254E+03  0.00000000000E+00 0. -1.
         15    1    5    5    0    0 -0.24336020612E+03 -0.36064765083E+03 -0.64950991120E+03  0.78176341864E+03  0.00000000000E+00 0. -1.
        -16    1    5    5    0    0  0.26617423209E+01 -0.40414911082E+02 -0.45437017635E+02  0.60868485126E+02  0.00000000000E+00 0.  1.
         16    1    3    3    0    0  0.10490409241E+01  0.41952847672E+03 -0.24160213705E+03  0.48412481438E+03  0.00000000000E+00 0. -1.
    9900018    1    1    2    0    0  0.32279458505E+03  0.64702841411E+03  0.14977192106E+03  0.74403556336E+03  0.91187600000E+02 0.  0.
<mgrwt>
<rscale>  0 0.23846050E+04</rscale>
<asrwt>0</asrwt>
<pdfrwt beam="1">  1        2 0.37295993E+00 0.34657581E+04</pdfrwt>
<pdfrwt beam="2">  1       -2 0.31657182E+00 0.34657581E+04</pdfrwt>
<totfact> 0.77126801E-02</totfact>
</mgrwt>
</event>
<event>
11    1  0.1038707E-007  0.3418483E+04  0.7818608E-02  0.8469732E-01
          2   -1    0    0  501    0  0.00000000000E+00  0.00000000000E+00  0.23873464974E+04  0.23873464974E+04  0.00000000000E+00 0. -1.
         -2   -1    0    0    0  501 -0.00000000000E+00 -0.00000000000E+00 -0.24553166477E+04  0.24553166477E+04  0.00000000000E+00 0.  1.
    9900016    2    1    2    0    0 -0.11356686544E+04 -0.76900542003E+03  0.26999454432E+02  0.22975972293E+04  0.18431254512E+04 0.  0.
        -24    2    3    3    0    0  0.10176558668E+03 -0.10144260687E+04 -0.11442448632E+03  0.10281581694E+04  0.67821638984E+02 0.  0.
        -15    1    3    3    0    0 -0.12374342411E+04  0.24542064868E+03  0.14142394075E+03  0.12694390599E+04  0.00000000000E+00 0.  1.
        -15    1    1    2    0    0  0.27368715701E+03  0.43738704015E+03 -0.76912698017E+03  0.92615786690E+03  0.00000000000E+00 0.  1.
         15    1    1    2    0    0  0.50106983949E+03  0.84796974239E+02  0.74914511655E+03  0.90525130021E+03  0.00000000000E+00 0. -1.
         15    1    4    4    0    0  0.58832158105E+02 -0.28201471479E+03 -0.34895036120E+02  0.29019163622E+03  0.00000000000E+00 0. -1.
        -16    1    4    4    0    0  0.42933428573E+02 -0.73241135392E+03 -0.79529450196E+02  0.73796653318E+03  0.00000000000E+00 0.  1.
         16    1    1    2    0    0  0.98396757865E+02  0.18554783434E+03 -0.28923633528E+03  0.35744590979E+03  0.00000000000E+00 0. -1.
    9900018    1    1    2    0    0  0.26251490006E+03  0.61273571304E+02  0.21424859416E+03  0.35621083896E+03  0.91187600000E+02 0.  0.
<mgrwt>
<rscale>  0 0.23208844E+04</rscale>
<asrwt>0</asrwt>
<pdfrwt beam="1">  1        2 0.36728408E+00 0.34184828E+04</pdfrwt>
<pdfrwt beam="2">  1       -2 0.37774102E+00 0.34184828E+04</pdfrwt>
<totfact> 0.33094549E-02</totfact>
</mgrwt>
</event>
<event>
11    1  0.1038707E-007  0.3656471E+04  0.7818608E-02  0.8386618E-01
         -1   -1    0    0    0  501 -0.00000000000E+00  0.00000000000E+00  0.51221411190E+04  0.51221411190E+04  0.00000000000E+00 0.  1.
          1   -1    0    0  501    0  0.00000000000E+00 -0.00000000000E+00 -0.99677315586E+03  0.99677315586E+03  0.00000000000E+00 0. -1.
    9900016    2    1    2    0    0 -0.70821441556E+02  0.48724881510E+02  0.34976337094E+04  0.39539924488E+04  0.18420708266E+04 0.  0.
        -24    2    3    3    0    0  0.71712717409E+03  0.38377427703E+03  0.88129354408E+03  0.12011108715E+04  0.66595310078E+02 0.  0.
        -15    1    1    2    0    0 -0.56692498006E+03  0.44922899695E+03  0.61446020740E+03  0.94909007539E+03  0.00000000000E+00 0.  1.
        -15    1    3    3    0    0 -0.78794861564E+03 -0.33504939552E+03  0.26163401653E+04  0.27528815773E+04  0.00000000000E+00 0.  1.
         15    1    1    2    0    0  0.29435376066E+03 -0.92285061136E+02 -0.20177375516E+03  0.36860997978E+03  0.00000000000E+00 0. -1.
         15    1    4    4    0    0  0.50511042095E+03  0.24449612846E+03  0.63704500937E+03  0.84896480384E+03  0.00000000000E+00 0. -1.
        -16    1    4    4    0    0  0.21201675314E+03  0.13927814857E+03  0.24424853470E+03  0.35214606768E+03  0.00000000000E+00 0.  1.
         16    1    1    2    0    0 -0.10369768056E+03  0.87607753354E+02  0.92268094317E+02  0.16413935735E+03  0.00000000000E+00 0. -1.
    9900018    1    1    2    0    0  0.44709034152E+03 -0.49327657068E+03  0.12277970717E+03  0.68308241344E+03  0.91187600000E+02 0.  0.
<mgrwt>
<rscale>  0 0.25464613E+04</rscale>
<asrwt>0</asrwt>
<pdfrwt beam="1">  1        1 0.15334972E+00 0.36564715E+04</pdfrwt>
<pdfrwt beam="2">  1       -1 0.78802170E+00 0.36564715E+04</pdfrwt>
<totfact> 0.98702222E-04</totfact>
</mgrwt>
</event>
