<event>
11    1  0.1186384E-013  0.4441867E+03  0.7818608E-02  0.1065402E+00
         -2   -1    0    0    0  501 -0.00000000000E+00  0.00000000000E+00  0.81004325216E+02  0.81004325216E+02  0.00000000000E+00 0. -1.
          2   -1    0    0  501    0  0.00000000000E+00 -0.00000000000E+00 -0.11226604509E+04  0.11226604509E+04  0.00000000000E+00 0.  1.
         23    2    1    2    0    0 -0.95847362187E+02  0.59128764757E+02 -0.25351128933E+03  0.29896916849E+03  0.11149736423E+03 0.  0.
        -24    2    1    2    0    0  0.52785861227E+02 -0.31723166768E+02 -0.33712952144E+03  0.35158837890E+03  0.78519854126E+02 0.  0.
        -15    1    1    2    0    0  0.14510604771E+02  0.61948432219E+02 -0.12530493760E+02  0.64847352907E+02  0.00000000000E+00 0.  1.
        -15    1    3    3    0    0 -0.60622880139E+02 -0.18593207489E+02 -0.16138607204E+03  0.17339638177E+03  0.00000000000E+00 0.  1.
         15    1    3    3    0    0 -0.35224482048E+02  0.77721972246E+02 -0.92125217290E+02  0.12557278673E+03  0.00000000000E+00 0. -1.
         15    1    4    4    0    0  0.34579115332E+02  0.17710910670E+02 -0.77787015547E+02  0.86949475914E+02  0.00000000000E+00 0. -1.
        -16    1    4    4    0    0  0.18206745895E+02 -0.49434077437E+02 -0.25934250590E+03  0.26463890299E+03  0.00000000000E+00 0.  1.
         16    1    1    2    0    0  0.45488677661E+02 -0.96313507478E+02 -0.32223030617E+03  0.33937867012E+03  0.00000000000E+00 0. -1.
    9900018    1    1    2    0    0 -0.16937781473E+02  0.69594772699E+01 -0.11625451501E+03  0.14888120573E+03  0.91187600000E+02 0.  0.
<mgrwt>
<rscale>  0 0.34329300E+03</rscale>
<asrwt>0</asrwt>
<pdfrwt beam="1">  1        2 0.17271699E+00 0.44418674E+03</pdfrwt>
<pdfrwt beam="2">  1       -2 0.12462204E-01 0.44418674E+03</pdfrwt>
<totfact> 0.10242415E+03</totfact>
</mgrwt>
</event>
<event>
12    1  0.1186384E-013  0.2742327E+04  0.7818608E-02  0.9064246E-01
         -2   -1    0    0    0  501 -0.00000000000E+00  0.00000000000E+00  0.77322266742E+03  0.77322266742E+03  0.00000000000E+00 0.  1.
          2   -1    0    0  501    0  0.00000000000E+00 -0.00000000000E+00 -0.27323104539E+04  0.27323104539E+04  0.00000000000E+00 0. -1.
         23    2    1    2    0    0 -0.54916801298E+02  0.80683636867E+02  0.21184115012E+02  0.12295500321E+03  0.71717931946E+02 0.  0.
    9900016    2    1    2    0    0  0.10988036287E+03 -0.59125329281E+03 -0.13897595921E+04  0.26000136452E+04  0.21135243271E+04 0.  0.
         24    2    4    4    0    0 -0.64279066488E+03 -0.78917922591E+03 -0.10322671704E+03  0.10261326495E+04  0.79427764710E+02 0.  0.
        -15    1    3    3    0    0  0.23863017910E+01  0.21002498388E+02 -0.21248031372E+02  0.29971289795E+02  0.00000000000E+00 0.  1.
        -15    1    5    5    0    0 -0.48567273128E+03 -0.64361901811E+03 -0.69221335257E+02  0.80926820995E+03  0.00000000000E+00 0.  1.
         15    1    3    3    0    0 -0.57303103089E+02  0.59681138479E+02  0.42432146384E+02  0.92983713415E+02  0.00000000000E+00 0. -1.
         15    1    4    4    0    0  0.76646395754E+03  0.24092128277E+03 -0.11681848842E+04  0.14178032255E+04  0.00000000000E+00 0. -1.
        -16    1    1    2    0    0 -0.54963561569E+02  0.51056965594E+03 -0.59051230943E+03  0.78256447291E+03  0.00000000000E+00 0.  1.
         16    1    5    5    0    0 -0.15711793360E+03 -0.14556020780E+03 -0.34005381779E+02  0.21686443955E+03  0.00000000000E+00 0. -1.
    9900018    1    4    4    0    0 -0.13792929792E+02 -0.42995349677E+02 -0.11834799085E+03  0.15607777016E+03  0.91187600000E+02 0.  0.
<mgrwt>
<rscale>  0 0.12571587E+04</rscale>
<asrwt>0</asrwt>
<pdfrwt beam="1">  1        2 0.42035545E+00 0.27423271E+04</pdfrwt>
<pdfrwt beam="2">  1       -2 0.11895733E+00 0.27423271E+04</pdfrwt>
<totfact> 0.11985149E+00</totfact>
</mgrwt>
</event>
<event>
11    1  0.1186384E-013  0.8192746E+03  0.7818608E-02  0.1022557E+00
         -2   -1    0    0    0  501 -0.00000000000E+00  0.00000000000E+00  0.53041955337E+03  0.53041955337E+03  0.00000000000E+00 0.  1.
          2   -1    0    0  501    0  0.00000000000E+00 -0.00000000000E+00 -0.41384134382E+03  0.41384134382E+03  0.00000000000E+00 0. -1.
         23    2    1    2    0    0  0.11260444919E+03 -0.37209592655E+01 -0.27109981287E+02  0.13837416397E+03  0.75623082808E+02 0.  0.
         24    2    1    2    0    0  0.25492512697E+02 -0.15271721234E+02  0.89041246986E+02  0.12452365599E+03  0.81821168191E+02 0.  0.
        -15    1    4    4    0    0 -0.16880903753E+01 -0.20199517442E+02 -0.93541662934E+01  0.22324215128E+02  0.00000000000E+00 0.  1.
        -15    1    3    3    0    0  0.12128049808E+02 -0.53160485287E+01  0.22652284235E+02  0.26238825149E+02  0.00000000000E+00 0.  1.
         15    1    3    3    0    0  0.10047639938E+03  0.15950892631E+01 -0.49762265522E+02  0.11213533882E+03  0.00000000000E+00 0. -1.
         15    1    1    2    0    0 -0.59243260923E+01  0.19531615196E+03 -0.14082816756E+03  0.24086525203E+03  0.00000000000E+00 0. -1.
        -16    1    1    2    0    0 -0.18586335874E+03 -0.10018611868E+03  0.22316931471E+03  0.30722465645E+03  0.00000000000E+00 0.  1.
         16    1    4    4    0    0  0.27180603072E+02  0.49277962083E+01  0.98395413279E+02  0.10219944087E+03  0.00000000000E+00 0. -1.
    9900018    1    1    2    0    0  0.53690722949E+02 -0.76137352780E+02 -0.27694203300E+02  0.13327316875E+03  0.91187600000E+02 0.  0.
<mgrwt>
<rscale>  0 0.46775134E+03</rscale>
<asrwt>0</asrwt>
<pdfrwt beam="1">  1        2 0.63667899E-01 0.81927459E+03</pdfrwt>
<pdfrwt beam="2">  1       -2 0.81603008E-01 0.81927459E+03</pdfrwt>
<totfact> 0.10187186E+02</totfact>
</mgrwt>
</event>
<event>
11    1  0.1186384E-013  0.2563354E+04  0.7818608E-02  0.8762777E-01
          1   -1    0    0  501    0  0.00000000000E+00  0.00000000000E+00  0.11986916704E+04  0.11986916704E+04  0.00000000000E+00 0. -1.
         -1   -1    0    0    0  501 -0.00000000000E+00 -0.00000000000E+00 -0.19825316955E+04  0.19825316955E+04  0.00000000000E+00 0.  1.
    9900016    2    1    2    0    0  0.27275957243E+03 -0.44661997149E+03 -0.47605320335E+03  0.22364119165E+04  0.21215665025E+04 0.  0.
         24    2    3    3    0    0 -0.15880646901E+03  0.51374168504E+03 -0.30890771020E+03  0.62464614293E+03  0.74892035005E+02 0.  0.
        -15    1    4    4    0    0 -0.49341131871E+02  0.88850368964E+02 -0.35428415010E+02  0.10762949386E+03  0.00000000000E+00 0.  1.
        -15    1    1    2    0    0 -0.38482523490E+03  0.12367636664E+03 -0.25145151124E+02  0.40499207857E+03  0.00000000000E+00 0.  1.
         15    1    1    2    0    0 -0.43336629332E+02  0.59585554291E+02  0.49180132070E+02  0.88584350268E+02  0.00000000000E+00 0. -1.
         15    1    3    3    0    0  0.22065071431E+03 -0.11705640186E+04  0.10818673087E+03  0.11960816143E+04  0.00000000000E+00 0. -1.
        -16    1    1    2    0    0  0.15540229180E+03  0.26335805056E+03 -0.33182180261E+03  0.45123502056E+03  0.00000000000E+00 0.  1.
         16    1    4    4    0    0 -0.10946533714E+03  0.42489131607E+03 -0.27347929519E+03  0.51701664906E+03  0.00000000000E+00 0. -1.
    9900018    1    3    3    0    0  0.21091532713E+03  0.21020236210E+03 -0.27533222402E+03  0.41568415922E+03  0.91187600000E+02 0.  0.
<mgrwt>
<rscale>  0 0.16975250E+04</rscale>
<asrwt>0</asrwt>
<pdfrwt beam="1">  1        1 0.18441411E+00 0.25633541E+04</pdfrwt>
<pdfrwt beam="2">  1       -1 0.30500487E+00 0.25633541E+04</pdfrwt>
<totfact> 0.28548588E-01</totfact>
</mgrwt>
</event>
<event>
11    1  0.1186384E-013  0.6022150E+03  0.7818608E-02  0.9900821E-01
         -1   -1    0    0    0  501 -0.00000000000E+00  0.00000000000E+00  0.11246353609E+03  0.11246353609E+03  0.00000000000E+00 0.  1.
          1   -1    0    0  501    0  0.00000000000E+00 -0.00000000000E+00 -0.80617891076E+03  0.80617891076E+03  0.00000000000E+00 0. -1.
         23    2    1    2    0    0 -0.12249928491E+03  0.59011937415E+01 -0.25968774116E+03  0.30747941412E+03  0.10984064962E+03 0.  0.
        -24    2    1    2    0    0  0.16822076397E+02 -0.12805437963E+02 -0.26997559842E+03  0.28179316215E+03  0.77933311221E+02 0.  0.
        -15    1    1    2    0    0  0.11020891200E+02 -0.32633283563E+02  0.85574840026E+01  0.35491150606E+02  0.00000000000E+00 0.  1.
        -15    1    3    3    0    0 -0.66435035566E+02  0.48130221836E+02 -0.19689402369E+03  0.21330116917E+03  0.00000000000E+00 0.  1.
         15    1    3    3    0    0 -0.56064249345E+02 -0.42229028095E+02 -0.62793717476E+02  0.94178244956E+02  0.00000000000E+00 0. -1.
         15    1    4    4    0    0  0.10608277910E+02  0.31402088442E+02 -0.79046321978E+02  0.85714337990E+02  0.00000000000E+00 0. -1.
        -16    1    4    4    0    0  0.62137984876E+01 -0.44207526405E+02 -0.19092927644E+03  0.19607882416E+03  0.00000000000E+00 0.  1.
         16    1    1    2    0    0  0.12621688790E+03  0.46257973671E+01 -0.54893529982E+02  0.13771492448E+03  0.00000000000E+00 0. -1.
    9900018    1    1    2    0    0 -0.31560570582E+02  0.34911730418E+02 -0.11771598911E+03  0.15616379549E+03  0.91187600000E+02 0.  0.
<mgrwt>
<rscale>  0 0.60221501E+03</rscale>
<asrwt>0</asrwt>
<pdfrwt beam="1">  1        1 0.12402752E+00 0.60221501E+03</pdfrwt>
<pdfrwt beam="2">  1       -1 0.17302083E-01 0.60221501E+03</pdfrwt>
<totfact> 0.57473235E+02</totfact>
</mgrwt>
</event>
<event>
11    1  0.1200030E-013  0.1091074E+04  0.7818608E-02  0.9213935E-01
          2   -1    0    0  501    0  0.00000000000E+00  0.00000000000E+00  0.78959546749E+03  0.78959546749E+03  0.00000000000E+00 0. -1.
         -2   -1    0    0    0  501 -0.00000000000E+00 -0.00000000000E+00 -0.37691542164E+03  0.37691542164E+03  0.00000000000E+00 0.  1.
         23    2    1    2    0    0 -0.50450243496E+02 -0.28394834629E+03 -0.75834686086E+02  0.31660768944E+03  0.10638439252E+03 0.  0.
         24    2    1    2    0    0 -0.16792939540E+03  0.21459491435E+03  0.20171316288E+03  0.34726249418E+03  0.75178325893E+02 0.  0.
        -15    1    3    3    0    0 -0.78300583795E+02 -0.13679177418E+03 -0.37884703851E+02  0.16210558809E+03  0.00000000000E+00 0. -1.
        -15    1    4    4    0    0 -0.13619855507E+03  0.12030805862E+03  0.14692812946E+03  0.23369199943E+03  0.00000000000E+00 0.  1.
         15    1    1    2    0    0  0.40672658491E+02 -0.31157152441E+02 -0.16288051741E+02  0.53761825922E+02  0.00000000000E+00 0. -1.
         15    1    3    3    0    0  0.27850340299E+02 -0.14715657211E+03 -0.37949982235E+02  0.15450210135E+03  0.00000000000E+00 0.  1.
        -16    1    1    2    0    0  0.17380231181E+03  0.69179030315E+02  0.75590370878E+02  0.20175947560E+03  0.00000000000E+00 0.  1.
         16    1    4    4    0    0 -0.31730840328E+02  0.94286855729E+02  0.54785033423E+02  0.11357049475E+03  0.00000000000E+00 0. -1.
    9900018    1    1    2    0    0  0.39046685940E+01  0.31331554063E+02  0.22749924992E+03  0.24711940398E+03  0.91187600000E+02 0.  0.
<mgrwt>
<rscale>  0 0.10910742E+04</rscale>
<asrwt>0</asrwt>
<pdfrwt beam="1">  1        2 0.12147623E+00 0.10910742E+04</pdfrwt>
<pdfrwt beam="2">  1       -2 0.57986988E-01 0.10910742E+04</pdfrwt>
<totfact> 0.96941902E+01</totfact>
</mgrwt>
</event>
<event>
11    1  0.1186384E-013  0.7139436E+03  0.7818608E-02  0.9693679E-01
          1   -1    0    0  501    0  0.00000000000E+00  0.00000000000E+00  0.21683926881E+03  0.21683926881E+03  0.00000000000E+00 0. -1.
         -1   -1    0    0    0  501 -0.00000000000E+00 -0.00000000000E+00 -0.58766512423E+03  0.58766512423E+03  0.00000000000E+00 0.  1.
         23    2    1    2    0    0 -0.12303881566E+03  0.13851215848E+03 -0.17064118702E+03  0.26367688263E+03  0.77993047892E+02 0.  0.
        -24    2    1    2    0    0 -0.20651708024E+02 -0.32801669393E+02 -0.88201515348E+02  0.12521848718E+03  0.79985746618E+02 0.  0.
        -15    1    3    3    0    0 -0.58605227695E+02  0.94066300564E+02 -0.14243569952E+03  0.18047429211E+03  0.00000000000E+00 0.  1.
        -15    1    1    2    0    0 -0.63213262199E+02 -0.17955019219E+02  0.24507188368E+02  0.70134880870E+02  0.00000000000E+00 0.  1.
         15    1    4    4    0    0 -0.34403734139E+02  0.16143302412E+02 -0.35882802228E+02  0.52266611055E+02  0.00000000000E+00 0. -1.
         15    1    3    3    0    0 -0.64433587969E+02  0.44445857920E+02 -0.28205487503E+02  0.83202590525E+02  0.00000000000E+00 0. -1.
        -16    1    4    4    0    0  0.13752026114E+02 -0.48944971805E+02 -0.52318713120E+02  0.72951876122E+02  0.00000000000E+00 0.  1.
         16    1    1    2    0    0  0.12161409516E+03  0.49212755425E+02 -0.68989765602E+02  0.14822776796E+03  0.00000000000E+00 0. -1.
    9900018    1    1    2    0    0  0.85289690728E+02 -0.13696822530E+03 -0.67500575820E+02  0.19724637440E+03  0.91187600000E+02 0.  0.
<mgrwt>
<rscale>  0 0.71394363E+03</rscale>
<asrwt>0</asrwt>
<pdfrwt beam="1">  1        1 0.33359887E-01 0.71394363E+03</pdfrwt>
<pdfrwt beam="2">  1       -1 0.90410020E-01 0.71394363E+03</pdfrwt>
<totfact> 0.16250378E+02</totfact>
</mgrwt>
</event>
<event>
10    1  0.1186384E-013  0.7513663E+03  0.7818608E-02  0.9821117E-01
          1   -1    0    0  501    0  0.00000000000E+00  0.00000000000E+00  0.97017099354E+03  0.97017099354E+03  0.00000000000E+00 0. -1.
         -1   -1    0    0    0  501 -0.00000000000E+00 -0.00000000000E+00 -0.36965917567E+03  0.36965917567E+03  0.00000000000E+00 0.  1.
        -24    2    1    2    0    0  0.18935379066E+03  0.24807883464E+03  0.17065753793E+02  0.32359568134E+03  0.83815027262E+02 0.  0.
        -15    1    1    2    0    0 -0.37104725354E+01 -0.54217581183E+02 -0.91889435051E+01  0.55115790828E+02  0.00000000000E+00 0.  1.
        -15    1    1    2    0    0  0.46290117948E+02 -0.35904428795E+02  0.64795912617E+02  0.87352237055E+02  0.00000000000E+00 0.  1.
         15    1    1    2    0    0 -0.16576497553E+03 -0.30234903824E+03  0.51371200597E+02  0.34861435468E+03  0.00000000000E+00 0. -1.
         15    1    3    3    0    0  0.13428260712E+03  0.19535494029E+03 -0.21734231478E+02  0.23804988572E+03  0.00000000000E+00 0. -1.
        -16    1    3    3    0    0  0.55071183538E+02  0.52723894347E+02  0.38799985271E+02  0.85545795621E+02  0.00000000000E+00 0.  1.
         16    1    1    2    0    0 -0.44492668112E+02  0.10830788215E+03  0.30102080009E+03  0.32299182179E+03  0.00000000000E+00 0. -1.
    9900018    1    1    2    0    0 -0.21675792429E+02  0.36084331424E+02  0.17544709428E+03  0.20216028353E+03  0.91187600000E+02 0.  0.
<mgrwt>
<rscale>  0 0.64241507E+03</rscale>
<asrwt>0</asrwt>
<pdfrwt beam="1">  1        1 0.14925707E+00 0.75136633E+03</pdfrwt>
<pdfrwt beam="2">  1       -1 0.56870643E-01 0.75136633E+03</pdfrwt>
<totfact> 0.51175475E+01</totfact>
</mgrwt>
</event>
<event>
12    1  0.1186384E-013  0.2749349E+04  0.7818608E-02  0.8884727E-01
         -2   -1    0    0    0  501 -0.00000000000E+00  0.00000000000E+00  0.72328410108E+03  0.72328410108E+03  0.00000000000E+00 0.  1.
          2   -1    0    0  501    0  0.00000000000E+00 -0.00000000000E+00 -0.31052469587E+04  0.31052469587E+04  0.00000000000E+00 0. -1.
         23    2    1    2    0    0  0.21350096006E+03 -0.49171349207E+02 -0.13837446975E+03  0.27992418984E+03  0.10587528818E+03 0.  0.
    9900016    2    1    2    0    0  0.76586996672E+02  0.16751490367E+03 -0.11857078486E+04  0.24453084267E+04  0.21306579708E+04 0.  0.
        -24    2    4    4    0    0  0.11660488823E+03 -0.11452591265E+03  0.37552616669E+03  0.41743472956E+03  0.80740119814E+02 0.  0.
        -15    1    3    3    0    0  0.74145015266E+02 -0.58267280562E+02 -0.18980865168E+02  0.96191644728E+02  0.00000000000E+00 0.  1.
        -15    1    4    4    0    0 -0.50114072514E+03 -0.25446541248E+03 -0.86177168516E+03  0.10288562144E+04  0.00000000000E+00 0.  1.
         15    1    5    5    0    0 -0.96902124584E+01 -0.35502338708E+01  0.72947367896E+01  0.12637941401E+02  0.00000000000E+00 0. -1.
         15    1    3    3    0    0  0.13935594479E+03  0.90959313548E+01 -0.11939360458E+03  0.18373254511E+03  0.00000000000E+00 0. -1.
        -16    1    5    5    0    0  0.12629510069E+03 -0.11097567878E+03  0.36823142990E+03  0.40479678816E+03  0.00000000000E+00 0.  1.
         16    1    1    2    0    0 -0.29008795673E+03 -0.11834355446E+03 -0.10578805392E+04  0.11032984432E+04  0.00000000000E+00 0. -1.
    9900018    1    4    4    0    0  0.46112283358E+03  0.53650622880E+03 -0.69946233012E+03  0.99901748275E+03  0.91187600000E+02 0.  0.
<mgrwt>
<rscale>  0 0.14995877E+04</rscale>
<asrwt>0</asrwt>
<pdfrwt beam="1">  1        2 0.47773029E+00 0.27493494E+04</pdfrwt>
<pdfrwt beam="2">  1       -2 0.11127448E+00 0.27493494E+04</pdfrwt>
<totfact> 0.82735153E-01</totfact>
</mgrwt>
</event>
<event>
10    1  0.1186384E-013  0.2818442E+04  0.7818608E-02  0.8297566E-01
          1   -1    0    0  501    0  0.00000000000E+00  0.00000000000E+00  0.34157024088E+03  0.34157024088E+03  0.00000000000E+00 0. -1.
         -1   -1    0    0    0  501 -0.00000000000E+00 -0.00000000000E+00 -0.58140423862E+04  0.58140423862E+04  0.00000000000E+00 0.  1.
        -24    2    1    2    0    0  0.61988223189E+03  0.18667397152E+03 -0.10268557619E+04  0.12165345254E+04  0.80139519117E+02 0.  0.
        -15    1    1    2    0    0  0.19273467321E+03  0.15305397154E+03 -0.19105235539E+03  0.31156568322E+03  0.00000000000E+00 0.  1.
        -15    1    1    2    0    0 -0.66267719933E+03  0.31154209234E+03 -0.12255893347E+04  0.14276795030E+04  0.00000000000E+00 0.  1.
         15    1    1    2    0    0 -0.22021902938E+03 -0.12203179649E+02 -0.26203001211E+03  0.34249827115E+03  0.00000000000E+00 0. -1.
         15    1    3    3    0    0  0.54037417521E+03  0.13334061392E+03 -0.87590379912E+03  0.10377819780E+04  0.00000000000E+00 0. -1.
        -16    1    3    3    0    0  0.79508056685E+02  0.53333357603E+02 -0.15095196282E+03  0.17875254737E+03  0.00000000000E+00 0.  1.
         16    1    1    2    0    0  0.15036026712E+03 -0.21949343595E+03 -0.82340797575E+03  0.86532437437E+03  0.00000000000E+00 0. -1.
    9900018    1    1    2    0    0 -0.80080943510E+02 -0.41957341981E+03 -0.19435367054E+04  0.19920102700E+04  0.91187600000E+02 0.  0.
<mgrwt>
<rscale>  0 0.28184420E+04</rscale>
<asrwt>0</asrwt>
<pdfrwt beam="1">  1        1 0.52549275E-01 0.28184420E+04</pdfrwt>
<pdfrwt beam="2">  1       -1 0.89446794E+00 0.28184420E+04</pdfrwt>
<totfact> 0.62102150E-04</totfact>
</mgrwt>
</event>
