<event>
12    1  0.2894585E-013  0.3219048E+04  0.7818608E-02  0.8602046E-01
          2   -1    0    0  501    0  0.00000000000E+00  0.00000000000E+00  0.41239929364E+04  0.41239929364E+04  0.00000000000E+00 0. -1.
         -2   -1    0    0    0  501 -0.00000000000E+00 -0.00000000000E+00 -0.16455736765E+04  0.16455736765E+04  0.00000000000E+00 0.  1.
         24    2    1    2    0    0 -0.48054492883E+03  0.47218598931E+02  0.25030777521E+04  0.25504243145E+04  0.78185203951E+02 0.  0.
    9900016    2    1    2    0    0  0.16593424725E+03 -0.78766727010E+03 -0.68487427334E+02  0.23128623973E+04  0.21671843572E+04 0.  0.
         23    2    4    4    0    0 -0.50637614777E+03  0.46148833251E+02  0.78721074283E+03  0.94192479115E+03  0.94736691506E+02 0.  0.
        -15    1    3    3    0    0 -0.17884915225E+03  0.43149896893E+02  0.80578316663E+03  0.82652008112E+03  0.00000000000E+00 0.  1.
        -15    1    5    5    0    0 -0.14317734026E+03  0.52746687778E+02  0.26513173472E+03  0.30590325365E+03  0.00000000000E+00 0.  1.
         15    1    1    2    0    0 -0.87972817591E+02  0.21967522004E+03  0.49373770789E+02  0.24173164497E+03  0.00000000000E+00 0. -1.
         15    1    5    5    0    0 -0.36319880751E+03 -0.65978545267E+01  0.52207900811E+03  0.63602153751E+03  0.00000000000E+00 0. -1.
        -16    1    4    4    0    0  0.67231039502E+03 -0.83381610335E+03 -0.85569817017E+03  0.13709376061E+04  0.00000000000E+00 0.  1.
         16    1    3    3    0    0 -0.30169577658E+03  0.40687020386E+01  0.16972945855E+04  0.17239042334E+04  0.00000000000E+00 0. -1.
    9900018    1    1    2    0    0  0.40258349918E+03  0.52077345112E+03 -0.55448356077E+01  0.66454825619E+03  0.91187600000E+02 0.  0.
<mgrwt>
<rscale>  0 0.20098132E+04</rscale>
<asrwt>0</asrwt>
<pdfrwt beam="1">  1        2 0.63446045E+00 0.32190479E+04</pdfrwt>
<pdfrwt beam="2">  1       -2 0.25316518E+00 0.32190479E+04</pdfrwt>
<totfact> 0.13199523E-02</totfact>
</mgrwt>
</event>
<event>
12    1  0.2894584E-013  0.4773232E+04  0.7818608E-02  0.8558583E-01
         -2   -1    0    0    0  501 -0.00000000000E+00  0.00000000000E+00  0.33313773170E+04  0.33313773170E+04  0.00000000000E+00 0.  1.
          2   -1    0    0  501    0  0.00000000000E+00 -0.00000000000E+00 -0.28486769249E+04  0.28486769249E+04  0.00000000000E+00 0. -1.
         24    2    1    2    0    0  0.94259799913E+02  0.13231134933E+03 -0.11279788498E+04  0.11423926390E+04  0.79582994547E+02 0.  0.
    9900016    2    1    2    0    0 -0.87218993042E+03  0.14013052532E+03  0.17106004612E+04  0.29182020170E+04  0.21930337972E+04 0.  0.
         23    2    4    4    0    0 -0.39453937358E+03  0.10942007253E+04  0.13673971598E+04  0.17974038608E+04  0.89157735213E+02 0.  0.
        -15    1    3    3    0    0 -0.17919974580E+01  0.59774181564E+02 -0.32749643557E+03  0.33291151880E+03  0.00000000000E+00 0.  1.
        -15    1    5    5    0    0  0.36075835675E+01  0.27156332524E+02  0.26549565796E+02  0.38149187401E+02  0.00000000000E+00 0. -1.
         15    1    1    2    0    0  0.13275653860E+04 -0.16404208870E+03 -0.49672931942E+03  0.14269126384E+04  0.00000000000E+00 0. -1.
         15    1    5    5    0    0 -0.39814695714E+03  0.10670443928E+04  0.13408475940E+04  0.17592546734E+04  0.00000000000E+00 0.  1.
        -16    1    4    4    0    0 -0.47765055684E+03 -0.95407019997E+03  0.34320330135E+03  0.11207981562E+04  0.00000000000E+00 0.  1.
         16    1    3    3    0    0  0.96051797371E+02  0.72537167762E+02 -0.80048241426E+03  0.80948112024E+03  0.00000000000E+00 0. -1.
    9900018    1    1    2    0    0 -0.54963525548E+03 -0.10839978594E+03  0.39680810021E+03  0.69254694747E+03  0.91187600000E+02 0.  0.
<mgrwt>
<rscale>  0 0.21060507E+04</rscale>
<asrwt>0</asrwt>
<pdfrwt beam="1">  1        2 0.43825799E+00 0.47732323E+04</pdfrwt>
<pdfrwt beam="2">  1       -2 0.51251959E+00 0.47732323E+04</pdfrwt>
<totfact> 0.21286012E-03</totfact>
</mgrwt>
</event>
<event>
12    1  0.2894584E-013  0.4554381E+04  0.7818608E-02  0.8735245E-01
          2   -1    0    0  501    0  0.00000000000E+00  0.00000000000E+00  0.18994546240E+04  0.18994546240E+04  0.00000000000E+00 0. -1.
         -2   -1    0    0    0  501 -0.00000000000E+00 -0.00000000000E+00 -0.29205845463E+04  0.29205845463E+04  0.00000000000E+00 0.  1.
        -24    2    1    2    0    0  0.55219289931E+02  0.14641131510E+02 -0.15557841043E+03  0.18413973464E+03  0.80245045763E+02 0.  0.
    9900016    2    1    2    0    0 -0.76491825708E+03 -0.33850432511E+03 -0.92491606579E+03  0.25524525419E+04  0.22270741190E+04 0.  0.
         23    2    4    4    0    0  0.23240515762E+03 -0.24337974727E+03  0.61991160933E+03  0.71120426296E+03  0.90968354965E+02 0.  0.
        -15    1    5    5    0    0  0.97426724198E+02 -0.76331132676E+02  0.14948814745E+03  0.19407502321E+03  0.00000000000E+00 0.  1.
        -15    1    1    2    0    0  0.12780745742E+04  0.57446470779E+03  0.25830754089E+03  0.14248533620E+04  0.00000000000E+00 0.  1.
         15    1    5    5    0    0  0.13497843342E+03 -0.16704861459E+03  0.47042346188E+03  0.51712923976E+03  0.00000000000E+00 0. -1.
         15    1    3    3    0    0  0.12674985362E+02 -0.32015056876E+02 -0.43265864572E+02  0.55295154922E+02  0.00000000000E+00 0. -1.
        -16    1    3    3    0    0  0.42544304570E+02  0.46656188386E+02 -0.11231254586E+03  0.12884457972E+03  0.00000000000E+00 0.  1.
         16    1    4    4    0    0 -0.99732341470E+03 -0.95124577845E+02 -0.15448276751E+04  0.18412482789E+04  0.00000000000E+00 0. -1.
    9900018    1    1    2    0    0 -0.56837560700E+03 -0.25060151419E+03 -0.19894298698E+03  0.65859353171E+03  0.91187600000E+02 0.  0.
<mgrwt>
<rscale>  0 0.17465625E+04</rscale>
<asrwt>0</asrwt>
<pdfrwt beam="1">  1        2 0.29222379E+00 0.45543808E+04</pdfrwt>
<pdfrwt beam="2">  1       -2 0.44932070E+00 0.45543808E+04</pdfrwt>
<totfact> 0.20019464E-02</totfact>
</mgrwt>
</event>
<event>
12    1  0.2894584E-013  0.4964431E+04  0.7818608E-02  0.8368566E-01
          1   -1    0    0  501    0  0.00000000000E+00  0.00000000000E+00  0.31265722085E+04  0.31265722085E+04  0.00000000000E+00 0. -1.
         -1   -1    0    0    0  501 -0.00000000000E+00 -0.00000000000E+00 -0.22840330770E+04  0.22840330770E+04  0.00000000000E+00 0.  1.
         24    2    1    2    0    0 -0.27366033354E+03  0.23957105631E+03  0.13216149818E+03  0.39560687030E+03  0.82181902236E+02 0.  0.
    9900016    2    1    2    0    0  0.22670217833E+01 -0.60667551354E+03  0.11967957630E+04  0.25752994676E+04  0.21981326010E+04 0.  0.
         23    2    4    4    0    0 -0.29236319765E+03 -0.12129379711E+03  0.17510632973E+04  0.17818167164E+04  0.91976710480E+02 0.  0.
        -15    1    3    3    0    0 -0.14223289253E+03  0.80674464633E+02  0.33083836462E+02  0.16683256635E+03  0.00000000000E+00 0.  1.
        -15    1    5    5    0    0 -0.97042355990E+02 -0.88935476956E+02  0.70361315126E+03  0.71581995260E+03  0.00000000000E+00 0. -1.
         15    1    1    2    0    0  0.33687466293E+03  0.62938201965E+03 -0.13516843431E+04  0.15286127137E+04  0.00000000000E+00 0. -1.
         15    1    5    5    0    0 -0.19532084166E+03 -0.32358320157E+02  0.10474501460E+04  0.10659967638E+04  0.00000000000E+00 0.  1.
        -16    1    4    4    0    0  0.29463021944E+03 -0.48538171643E+03 -0.55426753431E+03  0.79348275119E+03  0.00000000000E+00 0.  1.
         16    1    3    3    0    0 -0.13142744102E+03  0.15889659167E+03  0.99077661714E+02  0.22877430395E+03  0.00000000000E+00 0. -1.
    9900018    1    1    2    0    0 -0.65481351167E+02 -0.26227756242E+03  0.86526621343E+03  0.91108623389E+03  0.91187600000E+02 0.  0.
<mgrwt>
<rscale>  0 0.25989258E+04</rscale>
<asrwt>0</asrwt>
<pdfrwt beam="1">  1        1 0.48101111E+00 0.49644308E+04</pdfrwt>
<pdfrwt beam="2">  1       -1 0.35138971E+00 0.49644308E+04</pdfrwt>
<totfact> 0.52396934E-03</totfact>
</mgrwt>
</event>
