<event>
12    1  0.1618945E-009  0.2931293E+04  0.7818608E-02  0.8263627E-01
         -2   -1    0    0    0  501 -0.00000000000E+00  0.00000000000E+00  0.11443103686E+04  0.11443103686E+04  0.00000000000E+00 0. -1.
          2   -1    0    0  501    0  0.00000000000E+00 -0.00000000000E+00 -0.18772179617E+04  0.18772179617E+04  0.00000000000E+00 0.  1.
    9900016    2    1    2    0    0  0.22927881835E+03  0.30743311211E+02 -0.26375049631E+03  0.22222531911E+04  0.21943862452E+04 0.  0.
         24    2    3    3    0    0  0.74629814766E+03  0.23497964662E+03  0.11777328791E+03  0.79604429420E+03  0.87404870907E+02 0.  0.
         23    2    3    3    0    0  0.17728755846E+03  0.28716945068E+03  0.19297670577E+03  0.39976234979E+03  0.93127630446E+02 0.  0.
        -15    1    4    4    0    0  0.23992746823E+03  0.46185051504E+02  0.66359019075E+02  0.25318327039E+03  0.00000000000E+00 0.  1.
        -15    1    5    5    0    0  0.16533648478E+03  0.24784281448E+03  0.13114780844E+03  0.32551798959E+03  0.00000000000E+00 0. -1.
         15    1    5    5    0    0  0.11951073680E+02  0.39326636198E+02  0.61828897323E+02  0.74244360196E+02  0.00000000000E+00 0.  1.
         15    1    3    3    0    0 -0.69430688777E+03 -0.49140578609E+03 -0.57450048999E+03  0.10264465471E+04  0.00000000000E+00 0. -1.
        -16    1    1    2    0    0 -0.13728654665E+03 -0.10388504843E+03 -0.58558980047E+03  0.61037292993E+03  0.00000000000E+00 0.  1.
         16    1    4    4    0    0  0.50637067943E+03  0.18879459511E+03  0.51414268834E+02  0.54286102381E+03  0.00000000000E+00 0. -1.
    9900018    1    1    2    0    0 -0.91992271700E+02  0.73141737224E+02  0.11643270367E+03  0.18890220924E+03  0.91187600000E+02 0.  0.
<mgrwt>
<rscale>  0 0.29312932E+04</rscale>
<asrwt>0</asrwt>
<pdfrwt beam="1">  1        2 0.28880276E+00 0.29312932E+04</pdfrwt>
<pdfrwt beam="2">  1       -2 0.17604775E+00 0.29312932E+04</pdfrwt>
<totfact> 0.13002740E+00</totfact>
</mgrwt>
</event>
<event>
12    1  0.1618945E-009  0.3358936E+04  0.7818608E-02  0.8148059E-01
          2   -1    0    0  501    0  0.00000000000E+00  0.00000000000E+00  0.15207418249E+04  0.15207418249E+04  0.00000000000E+00 0. -1.
         -2   -1    0    0    0  501 -0.00000000000E+00 -0.00000000000E+00 -0.18547610260E+04  0.18547610260E+04  0.00000000000E+00 0.  1.
    9900016    2    1    2    0    0 -0.43501860460E+03 -0.12308517054E+03  0.22870007725E+03  0.22526239322E+04  0.21949076767E+04 0.  0.
        -24    2    3    3    0    0 -0.20474250106E+03  0.12973317366E+03 -0.71181336030E+03  0.75610291045E+03  0.79140149156E+02 0.  0.
         23    2    3    3    0    0 -0.21273246053E+02  0.15175396199E+03 -0.19990019721E+03  0.26855351254E+03  0.93161603011E+02 0.  0.
        -15    1    3    3    0    0 -0.20900285749E+03 -0.40457230619E+03  0.11404136348E+04  0.12279675092E+04  0.00000000000E+00 0.  1.
        -15    1    5    5    0    0 -0.49594272702E+02  0.91302495799E+02 -0.79287959764E+02  0.13069934272E+03  0.00000000000E+00 0. -1.
         15    1    4    4    0    0 -0.48776983872E+02  0.74521455374E+02 -0.27118682193E+03  0.28543814365E+03  0.00000000000E+00 0. -1.
         15    1    5    5    0    0  0.28321026649E+02  0.60451466195E+02 -0.12061223744E+03  0.13785416982E+03  0.00000000000E+00 0.  1.
        -16    1    4    4    0    0 -0.15596551718E+03  0.55211718286E+02 -0.44062653837E+03  0.47066476680E+03  0.00000000000E+00 0.  1.
         16    1    1    2    0    0  0.50226563830E+02 -0.31455379975E+03 -0.16486950478E+02  0.31896492000E+03  0.00000000000E+00 0. -1.
    9900018    1    1    2    0    0  0.38479204077E+03  0.43763897029E+03 -0.54623232789E+03  0.80391399875E+03  0.91187600000E+02 0.  0.
<mgrwt>
<rscale>  0 0.33589359E+04</rscale>
<asrwt>0</asrwt>
<pdfrwt beam="1">  1        2 0.23396028E+00 0.33589359E+04</pdfrwt>
<pdfrwt beam="2">  1       -2 0.28534785E+00 0.33589359E+04</pdfrwt>
<totfact> 0.40118787E-01</totfact>
</mgrwt>
</event>
<event>
12    1  0.1618945E-009  0.3329438E+04  0.7818608E-02  0.8155445E-01
         -2   -1    0    0    0  501 -0.00000000000E+00  0.00000000000E+00  0.25736053230E+04  0.25736053230E+04  0.00000000000E+00 0. -1.
          2   -1    0    0  501    0  0.00000000000E+00 -0.00000000000E+00 -0.10768118291E+04  0.10768118291E+04  0.00000000000E+00 0.  1.
    9900016    2    1    2    0    0 -0.22001366583E+03 -0.26770626574E+03  0.92717708393E+03  0.24125163644E+04  0.22001148165E+04 0.  0.
         24    2    3    3    0    0 -0.47526140132E+03 -0.10909499630E+04  0.58683625328E+03  0.13293111754E+04  0.81524178141E+02 0.  0.
         23    2    3    3    0    0  0.12696481002E+01 -0.59063385252E+02  0.31993001785E+02  0.11467587073E+03  0.92934964797E+02 0.  0.
        -15    1    5    5    0    0  0.41361666053E+02 -0.56051366866E+02  0.24041007190E+02  0.73692015666E+02  0.00000000000E+00 0. -1.
        -15    1    4    4    0    0 -0.36457551701E+03 -0.90323676313E+03  0.49824640930E+03  0.10940756108E+04  0.00000000000E+00 0.  1.
         15    1    5    5    0    0 -0.40092017953E+02 -0.30120183859E+01  0.79519945951E+01  0.40983855069E+02  0.00000000000E+00 0.  1.
         15    1    3    3    0    0  0.25397808739E+03  0.88230708250E+03  0.30834782887E+03  0.96852931823E+03  0.00000000000E+00 0. -1.
        -16    1    1    2    0    0 -0.32205820528E+03  0.41853147090E+03  0.24816614158E+03  0.58350365342E+03  0.00000000000E+00 0.  1.
         16    1    4    4    0    0 -0.11068588430E+03 -0.18771319987E+03  0.88589843979E+02  0.23523556458E+03  0.00000000000E+00 0. -1.
    9900018    1    1    2    0    0  0.54207187111E+03 -0.15082520515E+03  0.32145026838E+03  0.65439713431E+03  0.91187600000E+02 0.  0.
<mgrwt>
<rscale>  0 0.33294376E+04</rscale>
<asrwt>0</asrwt>
<pdfrwt beam="1">  1        2 0.16566336E+00 0.33294376E+04</pdfrwt>
<pdfrwt beam="2">  1       -2 0.39593928E+00 0.33294376E+04</pdfrwt>
<totfact> 0.14792078E-01</totfact>
</mgrwt>
</event>
<event>
12    1  0.1837293E-009  0.3088155E+04  0.7818608E-02  0.8218996E-01
         -2   -1    0    0    0  501 -0.00000000000E+00  0.00000000000E+00  0.12789449097E+04  0.12789449097E+04  0.00000000000E+00 0.  1.
          2   -1    0    0  501    0  0.00000000000E+00 -0.00000000000E+00 -0.18641739303E+04  0.18641739303E+04  0.00000000000E+00 0. -1.
    9900016    2    1    2    0    0  0.41780920118E+03 -0.61674852971E+02  0.33365990032E+01  0.22410934402E+04  0.22009362459E+04 0.  0.
        -24    2    3    3    0    0  0.99624411449E+03 -0.18063709517E+03  0.54078642241E+02  0.10171308805E+04  0.80614097358E+02 0.  0.
         23    2    3    3    0    0 -0.39342900748E+03 -0.20957694629E+03 -0.47449057751E+03  0.65675183704E+03  0.86445283069E+02 0.  0.
        -15    1    5    5    0    0 -0.10925625190E+03 -0.80294640060E+02 -0.96085887311E+02  0.16618259699E+03  0.00000000000E+00 0. -1.
        -15    1    3    3    0    0 -0.18500590583E+03  0.32853918849E+03  0.42374853428E+03  0.56721072263E+03  0.00000000000E+00 0.  1.
         15    1    4    4    0    0  0.72591147047E+02 -0.32647414470E+02 -0.56309060223E+01  0.79793705289E+02  0.00000000000E+00 0. -1.
         15    1    5    5    0    0 -0.28417275558E+03 -0.12928230623E+03 -0.37840469020E+03  0.49056924005E+03  0.00000000000E+00 0.  1.
        -16    1    4    4    0    0  0.92365296745E+03 -0.14798968070E+03  0.59709548263E+02  0.93733717520E+03  0.00000000000E+00 0.  1.
         16    1    1    2    0    0 -0.17592294524E+03  0.45352414376E+02 -0.61536635623E+03  0.64162409285E+03  0.00000000000E+00 0. -1.
    9900018    1    1    2    0    0 -0.24188625594E+03  0.16322438596E+02  0.26800736669E+02  0.26040130702E+03  0.91187600000E+02 0.  0.
<mgrwt>
<rscale>  0 0.30881553E+04</rscale>
<asrwt>0</asrwt>
<pdfrwt beam="1">  1        2 0.28679599E+00 0.30881553E+04</pdfrwt>
<pdfrwt beam="2">  1       -2 0.19676076E+00 0.30881553E+04</pdfrwt>
<totfact> 0.94391568E-01</totfact>
</mgrwt>
</event>
<event>
12    1  0.1618945E-009  0.2685626E+04  0.7818608E-02  0.8339684E-01
          3   -1    0    0  501    0  0.00000000000E+00  0.00000000000E+00  0.97918741400E+03  0.97918741400E+03  0.00000000000E+00 0. -1.
         -3   -1    0    0    0  501 -0.00000000000E+00 -0.00000000000E+00 -0.18414719702E+04  0.18414719702E+04  0.00000000000E+00 0.  1.
    9900016    2    1    2    0    0 -0.22373699521E+03 -0.14906938069E+03 -0.90158236830E+03  0.23980610528E+04  0.22058028296E+04 0.  0.
        -24    2    3    3    0    0 -0.98012543723E+03 -0.47377729130E+03 -0.43481165539E+03  0.11749101435E+04  0.79005538426E+02 0.  0.
         23    2    3    3    0    0 -0.10124820395E+03 -0.83937767349E+02 -0.15637164308E+03  0.22371132181E+03  0.91092903967E+02 0.  0.
        -15    1    5    5    0    0 -0.20172657705E+02 -0.71812531012E+02 -0.51693341457E+02  0.90753387155E+02  0.00000000000E+00 0.  1.
        -15    1    3    3    0    0  0.85763664597E+03  0.40864567796E+03 -0.31039906982E+03  0.99943958756E+03  0.00000000000E+00 0.  1.
         15    1    5    5    0    0 -0.81075546249E+02 -0.12125236338E+02 -0.10467830162E+03  0.13295793465E+03  0.00000000000E+00 0. -1.
         15    1    4    4    0    0 -0.37136774929E+03 -0.14179195431E+03 -0.14011124384E+03  0.42148561562E+03  0.00000000000E+00 0. -1.
        -16    1    4    4    0    0 -0.60875768794E+03 -0.33198533699E+03 -0.29470041155E+03  0.75342452785E+03  0.00000000000E+00 0.  1.
         16    1    1    2    0    0 -0.29705748391E+02  0.12603246596E+03  0.75443526816E+02  0.14986106800E+03  0.00000000000E+00 0. -1.
    9900018    1    1    2    0    0  0.25344274361E+03  0.23036914735E+02 -0.36145714687E+02  0.27273726333E+03  0.91187600000E+02 0.  0.
<mgrwt>
<rscale>  0 0.26856256E+04</rscale>
<asrwt>0</asrwt>
<pdfrwt beam="1">  1        3 0.15064422E+00 0.26856256E+04</pdfrwt>
<pdfrwt beam="2">  1       -3 0.28330338E+00 0.26856256E+04</pdfrwt>
<totfact> 0.34475387E-02</totfact>
</mgrwt>
</event>
<event>
12    1  0.1618945E-009  0.6257865E+04  0.7818608E-02  0.7659227E-01
         -2   -1    0    0    0  501 -0.00000000000E+00  0.00000000000E+00  0.29987083459E+04  0.29987083459E+04  0.00000000000E+00 0.  1.
          2   -1    0    0  501    0  0.00000000000E+00 -0.00000000000E+00 -0.32648122854E+04  0.32648122854E+04  0.00000000000E+00 0. -1.
    9900016    2    1    2    0    0 -0.14151049411E+03 -0.16252229541E+04  0.77737703614E+02  0.27459523924E+04  0.22074502305E+04 0.  0.
         24    2    3    3    0    0  0.82301659816E+03 -0.31517038518E+03 -0.35344844447E+03  0.95294031008E+03  0.80503038040E+02 0.  0.
         23    2    3    3    0    0  0.94295092176E+01 -0.18768905592E+03  0.20012386945E+03  0.28912342503E+03  0.90701126909E+02 0.  0.
        -15    1    4    4    0    0  0.15388070829E+03 -0.91257695165E+02 -0.83902475511E+02  0.19760279529E+03  0.00000000000E+00 0.  1.
        -15    1    5    5    0    0 -0.72417339577E+01 -0.13657780245E+03  0.19049173695E+03  0.23450595020E+03  0.00000000000E+00 0.  1.
         15    1    5    5    0    0  0.16671243175E+02 -0.51111253473E+02  0.96321324969E+01  0.54617474832E+02  0.00000000000E+00 0. -1.
         15    1    3    3    0    0 -0.97395660148E+03 -0.11223635130E+04  0.23106227863E+03  0.15038886573E+04  0.00000000000E+00 0. -1.
        -16    1    1    2    0    0  0.33331338823E+03  0.25110899719E+04 -0.52952227563E+03  0.25878687181E+04  0.00000000000E+00 0.  1.
         16    1    4    4    0    0  0.66913588987E+03 -0.22391269002E+03 -0.26954596896E+03  0.75533751478E+03  0.00000000000E+00 0. -1.
    9900018    1    1    2    0    0 -0.19180289412E+03 -0.88586701779E+03  0.18568063252E+03  0.92969952086E+03  0.91187600000E+02 0.  0.
<mgrwt>
<rscale>  0 0.62578654E+04</rscale>
<asrwt>0</asrwt>
<pdfrwt beam="1">  1        2 0.50227881E+00 0.62578654E+04</pdfrwt>
<pdfrwt beam="2">  1       -2 0.46133975E+00 0.62578654E+04</pdfrwt>
<totfact> 0.22787125E-03</totfact>
</mgrwt>
</event>
<event>
12    1  0.1618945E-009  0.3486096E+04  0.7818608E-02  0.8117093E-01
         -2   -1    0    0    0  501 -0.00000000000E+00  0.00000000000E+00  0.21831999974E+04  0.21831999974E+04  0.00000000000E+00 0.  1.
          2   -1    0    0  501    0  0.00000000000E+00 -0.00000000000E+00 -0.13916342744E+04  0.13916342744E+04  0.00000000000E+00 0. -1.
    9900016    2    1    2    0    0  0.41728983804E+03  0.32655244801E+02  0.24559180119E+03  0.22554086967E+04  0.22025793703E+04 0.  0.
        -24    2    3    3    0    0  0.56964633112E+03 -0.49220726634E+03  0.55033844021E+03  0.93572214995E+03  0.77062361435E+02 0.  0.
         23    2    3    3    0    0  0.91072143294E+02  0.40599255069E+03  0.38772930925E+03  0.57610702343E+03  0.91875996250E+02 0.  0.
        -15    1    3    3    0    0 -0.24342863637E+03  0.11886996044E+03 -0.69247594828E+03  0.74357952328E+03  0.00000000000E+00 0.  1.
        -15    1    5    5    0    0  0.10331862966E+03  0.27350733841E+03  0.28135980745E+03  0.40576390259E+03  0.00000000000E+00 0.  1.
         15    1    5    5    0    0 -0.12246486369E+02  0.13248521228E+03  0.10636950181E+03  0.17034312084E+03  0.00000000000E+00 0. -1.
         15    1    4    4    0    0  0.31706452515E+03 -0.24562691556E+03  0.25312337230E+03  0.47427200672E+03  0.00000000000E+00 0. -1.
        -16    1    4    4    0    0  0.25258180597E+03 -0.24658035078E+03  0.29721506791E+03  0.46145014323E+03  0.00000000000E+00 0.  1.
         16    1    1    2    0    0 -0.15321118151E+03 -0.48428316735E+03 -0.62531140615E+02  0.51177533730E+03  0.00000000000E+00 0. -1.
    9900018    1    1    2    0    0 -0.26407865653E+03  0.45162792255E+03  0.60850506247E+03  0.80765023786E+03  0.91187600000E+02 0.  0.
<mgrwt>
<rscale>  0 0.34860958E+04</rscale>
<asrwt>0</asrwt>
<pdfrwt beam="1">  1        2 0.21409758E+00 0.34860958E+04</pdfrwt>
<pdfrwt beam="2">  1       -2 0.33587693E+00 0.34860958E+04</pdfrwt>
<totfact> 0.22958540E-01</totfact>
</mgrwt>
</event>
<event>
12    1  0.1618945E-009  0.2529446E+04  0.7818608E-02  0.8392570E-01
         -2   -1    0    0    0  501 -0.00000000000E+00  0.00000000000E+00  0.12760148833E+04  0.12760148833E+04  0.00000000000E+00 0.  1.
          2   -1    0    0  501    0  0.00000000000E+00 -0.00000000000E+00 -0.12535312125E+04  0.12535312125E+04  0.00000000000E+00 0. -1.
    9900016    2    1    2    0    0  0.80361600405E+02 -0.18030002113E+03  0.80241929824E+02  0.22211826702E+04  0.22109381725E+04 0.  0.
         24    2    3    3    0    0  0.84654708264E+02  0.30402489475E+03  0.93592229256E+03  0.99090551603E+03  0.79659574020E+02 0.  0.
         23    2    3    3    0    0  0.34789076461E+03 -0.15413575042E+03 -0.29238653787E+03  0.48841578024E+03  0.90963032036E+02 0.  0.
        -15    1    4    4    0    0  0.59017343844E+02  0.14564516119E+03  0.57182898135E+03  0.59302946281E+03  0.00000000000E+00 0.  1.
        -15    1    5    5    0    0  0.22585005404E+03 -0.14167306254E+03 -0.22233159899E+03  0.34714671750E+03  0.00000000000E+00 0.  1.
         15    1    3    3    0    0 -0.35218387247E+03 -0.33018916546E+03 -0.56329382486E+03  0.74186137394E+03  0.00000000000E+00 0. -1.
         15    1    5    5    0    0  0.12204071057E+03 -0.12462687881E+02 -0.70054938877E+02  0.14126906274E+03  0.00000000000E+00 0. -1.
        -16    1    1    2    0    0  0.11400244776E+02  0.31600558773E+01  0.58793586413E+02  0.59971971265E+02  0.00000000000E+00 0.  1.
         16    1    4    4    0    0  0.25637364420E+02  0.15837973356E+03  0.36409331121E+03  0.39787605322E+03  0.00000000000E+00 0. -1.
    9900018    1    1    2    0    0 -0.91761845180E+02  0.17713996525E+03 -0.11655184546E+03  0.24839145435E+03  0.91187600000E+02 0.  0.
<mgrwt>
<rscale>  0 0.25294462E+04</rscale>
<asrwt>0</asrwt>
<pdfrwt beam="1">  1        2 0.19285096E+00 0.25294462E+04</pdfrwt>
<pdfrwt beam="2">  1       -2 0.19630998E+00 0.25294462E+04</pdfrwt>
<totfact> 0.22031998E+00</totfact>
</mgrwt>
</event>
<event>
12    1  0.1618945E-009  0.3103361E+04  0.7818608E-02  0.8214816E-01
         -1   -1    0    0    0  501 -0.00000000000E+00  0.00000000000E+00  0.19646262037E+04  0.19646262037E+04  0.00000000000E+00 0.  1.
          1   -1    0    0  501    0  0.00000000000E+00 -0.00000000000E+00 -0.12255320140E+04  0.12255320140E+04  0.00000000000E+00 0. -1.
    9900016    2    1    2    0    0  0.16638535454E+03  0.27711523805E+03  0.87985621398E+03  0.23967101133E+04  0.22058094814E+04 0.  0.
         24    2    3    3    0    0  0.21908949201E+02  0.70323557299E+03  0.13645372886E+04  0.15373374026E+04  0.80149886752E+02 0.  0.
         23    2    3    3    0    0 -0.93094154253E+02  0.68163602141E+02 -0.37192634621E+02  0.15155756165E+03  0.90959354719E+02 0.  0.
        -15    1    5    5    0    0 -0.63587677926E+02  0.78870215413E+02 -0.55197013197E+02  0.11537163399E+03  0.00000000000E+00 0.  1.
        -15    1    4    4    0    0  0.24039910842E+02  0.31683116588E+03  0.53553000679E+03  0.62269759367E+03  0.00000000000E+00 0.  1.
         15    1    5    5    0    0 -0.29506476327E+02 -0.10706613272E+02  0.18004378576E+02  0.36185927664E+02  0.00000000000E+00 0. -1.
         15    1    3    3    0    0  0.23757055960E+03 -0.49428393709E+03 -0.44748843999E+03  0.70781514901E+03  0.00000000000E+00 0. -1.
        -16    1    1    2    0    0 -0.16963514390E+02 -0.14062816250E+03  0.28221385737E+03  0.31576684785E+03  0.00000000000E+00 0.  1.
         16    1    4    4    0    0 -0.21309616404E+01  0.38640440711E+03  0.82900728180E+03  0.91463980895E+03  0.00000000000E+00 0. -1.
    9900018    1    1    2    0    0 -0.14942184015E+03 -0.13648707555E+03 -0.42297588164E+03  0.47768125665E+03  0.91187600000E+02 0.  0.
<mgrwt>
<rscale>  0 0.31033610E+04</rscale>
<asrwt>0</asrwt>
<pdfrwt beam="1">  1        1 0.18854339E+00 0.31033610E+04</pdfrwt>
<pdfrwt beam="2">  1       -1 0.30225018E+00 0.31033610E+04</pdfrwt>
<totfact> 0.27572544E-01</totfact>
</mgrwt>
</event>
<event>
12    1  0.1618945E-009  0.2460541E+04  0.7818608E-02  0.8417179E-01
         -2   -1    0    0    0  501 -0.00000000000E+00  0.00000000000E+00  0.48147370146E+03  0.48147370146E+03  0.00000000000E+00 0.  1.
          2   -1    0    0  501    0  0.00000000000E+00 -0.00000000000E+00 -0.31436102226E+04  0.31436102226E+04  0.00000000000E+00 0. -1.
    9900016    2    1    2    0    0  0.29016436932E+02 -0.16631502578E+03 -0.22241170284E+04  0.31285506480E+04  0.21937707171E+04 0.  0.
        -24    2    3    3    0    0 -0.10064572716E+03 -0.32662403108E+01 -0.22655988965E+03  0.26046999430E+03  0.79843619721E+02 0.  0.
         23    2    3    3    0    0 -0.34277122530E+03  0.32159777846E+03 -0.21259503753E+04  0.21791971929E+04  0.91203966045E+02 0.  0.
        -15    1    3    3    0    0  0.47243338939E+03 -0.48464656393E+03  0.12839323649E+03  0.68888346077E+03  0.00000000000E+00 0.  1.
        -15    1    5    5    0    0 -0.68815126886E+02  0.25499914353E+02 -0.26121815142E+03  0.27133132874E+03  0.00000000000E+00 0.  1.
         15    1    4    4    0    0 -0.86998240163E+02  0.29646431043E+02 -0.14815181574E+03  0.17434610742E+03  0.00000000000E+00 0. -1.
         15    1    5    5    0    0 -0.27395609841E+03  0.29609786410E+03 -0.18647322238E+04  0.19078658642E+04  0.00000000000E+00 0. -1.
        -16    1    4    4    0    0 -0.13647486997E+02 -0.32912671353E+02 -0.78408073909E+02  0.86123886879E+02  0.00000000000E+00 0.  1.
         16    1    1    2    0    0 -0.11408258588E+02 -0.79960199619E+01 -0.12924524360E+03  0.12999391406E+03  0.00000000000E+00 0. -1.
    9900018    1    1    2    0    0 -0.17608178344E+02  0.17431104575E+03 -0.30877424912E+03  0.36653936204E+03  0.91187600000E+02 0.  0.
<mgrwt>
<rscale>  0 0.24605411E+04</rscale>
<asrwt>0</asrwt>
<pdfrwt beam="1">  1        2 0.48363233E+00 0.24605411E+04</pdfrwt>
<pdfrwt beam="2">  1       -2 0.74072880E-01 0.24605411E+04</pdfrwt>
<totfact> 0.20732460E+00</totfact>
</mgrwt>
</event>
<event>
12    1  0.1618945E-009  0.3403050E+04  0.7818608E-02  0.8137158E-01
          2   -1    0    0  501    0  0.00000000000E+00  0.00000000000E+00  0.18208807970E+04  0.18208807970E+04  0.00000000000E+00 0. -1.
         -2   -1    0    0    0  501 -0.00000000000E+00 -0.00000000000E+00 -0.15899930429E+04  0.15899930429E+04  0.00000000000E+00 0.  1.
    9900016    2    1    2    0    0  0.18881887911E+03 -0.76177613578E+03 -0.22317662686E+03  0.23520877423E+04  0.22060266296E+04 0.  0.
        -24    2    3    3    0    0  0.83325822474E+03 -0.78982884308E+03  0.55873490007E+03  0.12796872910E+04  0.85240856935E+02 0.  0.
         23    2    3    3    0    0 -0.14586404360E+03  0.12898617823E+03 -0.16667162965E+03  0.27409911183E+03  0.97144930838E+02 0.  0.
        -15    1    3    3    0    0 -0.49857530204E+03 -0.10093347093E+03 -0.61523989729E+03  0.79830133945E+03  0.00000000000E+00 0.  1.
        -15    1    5    5    0    0 -0.46407570135E+02 -0.37662978991E+01 -0.13899681240E+02  0.48590623625E+02  0.00000000000E+00 0.  1.
         15    1    5    5    0    0 -0.99456473462E+02  0.13275247613E+03 -0.15277194841E+03  0.22550848820E+03  0.00000000000E+00 0. -1.
         15    1    4    4    0    0  0.16703401794E+03 -0.11723592073E+03  0.11363438117E+03  0.23357524878E+03  0.00000000000E+00 0. -1.
        -16    1    4    4    0    0  0.66622420681E+03 -0.67259292234E+03  0.44510051890E+03  0.10461120422E+04  0.00000000000E+00 0.  1.
         16    1    1    2    0    0 -0.22578419324E+02  0.11371998907E+03  0.35856318923E+03  0.37684158688E+03  0.00000000000E+00 0. -1.
    9900018    1    1    2    0    0 -0.16624045978E+03  0.64805614671E+03  0.95501191693E+02  0.68194451077E+03  0.91187600000E+02 0.  0.
<mgrwt>
<rscale>  0 0.34030503E+04</rscale>
<asrwt>0</asrwt>
<pdfrwt beam="1">  1        2 0.28013551E+00 0.34030503E+04</pdfrwt>
<pdfrwt beam="2">  1       -2 0.24461431E+00 0.34030503E+04</pdfrwt>
<totfact> 0.48270304E-01</totfact>
</mgrwt>
</event>
<event>
12    1  0.1618945E-009  0.4445902E+04  0.7818608E-02  0.7920177E-01
         -2   -1    0    0    0  501 -0.00000000000E+00  0.00000000000E+00  0.26153655763E+04  0.26153655763E+04  0.00000000000E+00 0.  1.
          2   -1    0    0  501    0  0.00000000000E+00 -0.00000000000E+00 -0.18894149782E+04  0.18894149782E+04  0.00000000000E+00 0. -1.
    9900016    2    1    2    0    0  0.33418209336E+03  0.35157732158E+03  0.95342776307E+03  0.24421116981E+04  0.21953589141E+04 0.  0.
        -24    2    3    3    0    0 -0.18238188434E+03  0.88137917810E+02  0.18852187369E+03  0.28760247832E+03  0.78378851627E+02 0.  0.
         23    2    3    3    0    0 -0.15163944462E+03 -0.65019865182E+03  0.76871274590E+03  0.10225883734E+04  0.94946762336E+02 0.  0.
        -15    1    3    3    0    0  0.66820342233E+03  0.91363805560E+03 -0.38068565189E+01  0.11319208463E+04  0.00000000000E+00 0.  1.
        -15    1    5    5    0    0 -0.14869890254E+03 -0.59459396056E+03  0.66161427415E+03  0.90187958692E+03  0.00000000000E+00 0.  1.
         15    1    4    4    0    0 -0.15242993445E+03  0.83903915859E+02  0.18959406367E+03  0.25733375409E+03  0.00000000000E+00 0. -1.
         15    1    5    5    0    0 -0.29405420858E+01 -0.55604691265E+02  0.10709847175E+03  0.12070878647E+03  0.00000000000E+00 0. -1.
        -16    1    4    4    0    0 -0.29951949894E+02  0.42340019508E+01 -0.10721899873E+01  0.30268724227E+02  0.00000000000E+00 0.  1.
         16    1    1    2    0    0 -0.46634472698E+02 -0.11080000481E+04 -0.48238176820E+03  0.12093515002E+04  0.00000000000E+00 0. -1.
    9900018    1    1    2    0    0 -0.28754762066E+03  0.75642272655E+03  0.25490460324E+03  0.85331735629E+03  0.91187600000E+02 0.  0.
<mgrwt>
<rscale>  0 0.44459019E+04</rscale>
<asrwt>0</asrwt>
<pdfrwt beam="1">  1        2 0.29067923E+00 0.44459019E+04</pdfrwt>
<pdfrwt beam="2">  1       -2 0.40236394E+00 0.44459019E+04</pdfrwt>
<totfact> 0.41957918E-02</totfact>
</mgrwt>
</event>
<event>
12    1  0.1618945E-009  0.3298601E+04  0.7818608E-02  0.8163252E-01
         -2   -1    0    0    0  501 -0.00000000000E+00  0.00000000000E+00  0.93783082415E+03  0.93783082415E+03  0.00000000000E+00 0. -1.
          2   -1    0    0  501    0  0.00000000000E+00 -0.00000000000E+00 -0.29005141485E+04  0.29005141485E+04  0.00000000000E+00 0.  1.
    9900016    2    1    2    0    0  0.13886713073E+03 -0.10572685568E+03 -0.16699323416E+04  0.27616218750E+04  0.21925827480E+04 0.  0.
        -24    2    3    3    0    0 -0.65261733784E+03  0.24529096752E+03 -0.14426020135E+04  0.16044355058E+04  0.83878927755E+02 0.  0.
         23    2    3    3    0    0  0.16892150936E+03  0.50036957187E+02 -0.35414959735E+03  0.40584576588E+03  0.90833226135E+02 0.  0.
        -15    1    5    5    0    0  0.89975074169E+02 -0.41971861242E+01 -0.24280292267E+03  0.25897179306E+03  0.00000000000E+00 0.  1.
        -15    1    3    3    0    0  0.62256295921E+03 -0.40105478039E+03  0.12681926929E+03  0.75134060327E+03  0.00000000000E+00 0.  1.
         15    1    4    4    0    0 -0.28339799360E+03  0.62645568058E+02 -0.60624408476E+03  0.67213895906E+03  0.00000000000E+00 0. -1.
         15    1    5    5    0    0  0.78946435188E+02  0.54234143311E+02 -0.11134667468E+03  0.14687397282E+03  0.00000000000E+00 0. -1.
        -16    1    4    4    0    0 -0.36921934424E+03  0.18264539946E+03 -0.83635792878E+03  0.93229654678E+03  0.00000000000E+00 0.  1.
         16    1    1    2    0    0  0.38533379376E+02 -0.20030812224E+03  0.31048852935E+03  0.37149871066E+03  0.00000000000E+00 0. -1.
    9900018    1    1    2    0    0 -0.17740051011E+03  0.30603497792E+03 -0.60323951214E+03  0.70522438706E+03  0.91187600000E+02 0.  0.
<mgrwt>
<rscale>  0 0.32986007E+04</rscale>
<asrwt>0</asrwt>
<pdfrwt beam="1">  1        2 0.44623294E+00 0.32986007E+04</pdfrwt>
<pdfrwt beam="2">  1       -2 0.14428167E+00 0.32986007E+04</pdfrwt>
<totfact> 0.55637808E-01</totfact>
</mgrwt>
</event>
<event>
12    1  0.1618945E-009  0.2781467E+04  0.7818608E-02  0.8309045E-01
          1   -1    0    0  501    0  0.00000000000E+00  0.00000000000E+00  0.13504412910E+04  0.13504412910E+04  0.00000000000E+00 0. -1.
         -1   -1    0    0    0  501 -0.00000000000E+00 -0.00000000000E+00 -0.14322283649E+04  0.14322283649E+04  0.00000000000E+00 0.  1.
    9900016    2    1    2    0    0 -0.34246845552E+03  0.18229414073E+03  0.77105088809E+01  0.22324438305E+04  0.21984608724E+04 0.  0.
        -24    2    3    3    0    0  0.18432977951E+03  0.86858246646E+01 -0.23225760631E+03  0.30574624232E+03  0.74055775211E+02 0.  0.
         23    2    3    3    0    0  0.13331533109E+03  0.23786346614E+03  0.92779321194E+03  0.97119666814E+03  0.89837175268E+02 0.  0.
        -15    1    3    3    0    0 -0.66011356613E+03 -0.64255150070E+02 -0.68782509675E+03  0.95550092005E+03  0.00000000000E+00 0.  1.
        -15    1    5    5    0    0  0.20736185438E+02  0.10781660089E+03  0.27460044016E+03  0.29573604878E+03  0.00000000000E+00 0. -1.
         15    1    4    4    0    0  0.13967793911E+03  0.22867610821E+02 -0.12551240931E+03  0.18917245886E+03  0.00000000000E+00 0. -1.
         15    1    5    5    0    0  0.11257914566E+03  0.13004686524E+03  0.65319277178E+03  0.67546061936E+03  0.00000000000E+00 0.  1.
        -16    1    4    4    0    0  0.44651840400E+02 -0.14181786156E+02 -0.10674519700E+03  0.11657378347E+03  0.00000000000E+00 0.  1.
         16    1    1    2    0    0  0.39176493079E+03 -0.92996460602E+02 -0.39607317592E+02  0.40459466419E+03  0.00000000000E+00 0. -1.
    9900018    1    1    2    0    0 -0.49296475271E+02 -0.89297680131E+02 -0.49890265227E+02  0.14563116119E+03  0.91187600000E+02 0.  0.
<mgrwt>
<rscale>  0 0.27814675E+04</rscale>
<asrwt>0</asrwt>
<pdfrwt beam="1">  1        1 0.20776020E+00 0.27814675E+04</pdfrwt>
<pdfrwt beam="2">  1       -1 0.22034282E+00 0.27814675E+04</pdfrwt>
<totfact> 0.79046425E-01</totfact>
</mgrwt>
</event>
<event>
12    1  0.1618945E-009  0.3083015E+04  0.7818608E-02  0.8220415E-01
          1   -1    0    0  501    0  0.00000000000E+00  0.00000000000E+00  0.21624756898E+04  0.21624756898E+04  0.00000000000E+00 0. -1.
         -1   -1    0    0    0  501 -0.00000000000E+00 -0.00000000000E+00 -0.10988541818E+04  0.10988541818E+04  0.00000000000E+00 0.  1.
    9900016    2    1    2    0    0  0.52588305285E+03 -0.22555283972E+03  0.12368411719E+04  0.25871205048E+04  0.21990883003E+04 0.  0.
         24    2    3    3    0    0  0.61105594151E+02  0.32749967650E+03 -0.15191704389E+03  0.37466615718E+03  0.79410385788E+02 0.  0.
         23    2    3    3    0    0 -0.47802930360E+03 -0.57320978078E+03  0.81379576045E+03  0.11079758591E+04  0.90914777483E+02 0.  0.
        -15    1    5    5    0    0 -0.42303392350E+03 -0.52812763804E+03  0.69848417000E+03  0.97250019960E+03  0.00000000000E+00 0. -1.
        -15    1    4    4    0    0  0.57288401323E+02  0.22371430850E+03 -0.14018121458E+03  0.27014963571E+03  0.00000000000E+00 0.  1.
         15    1    5    5    0    0 -0.54995380105E+02 -0.45082142742E+02  0.11531159045E+03  0.13547565951E+03  0.00000000000E+00 0.  1.
         15    1    3    3    0    0  0.94280676230E+03  0.20157264563E+02  0.57496245539E+03  0.11044784885E+04  0.00000000000E+00 0. -1.
        -16    1    1    2    0    0 -0.44295164297E+03  0.18638477554E+03 -0.23022778151E+03  0.53286984709E+03  0.00000000000E+00 0.  1.
         16    1    4    4    0    0  0.38171928279E+01  0.10378536800E+03 -0.11735829317E+02  0.10451652147E+03  0.00000000000E+00 0. -1.
    9900018    1    1    2    0    0 -0.82931409882E+02  0.39168064175E+02  0.57008117478E+02  0.14133951977E+03  0.91187600000E+02 0.  0.
<mgrwt>
<rscale>  0 0.30830151E+04</rscale>
<asrwt>0</asrwt>
<pdfrwt beam="1">  1        1 0.33268857E+00 0.30830151E+04</pdfrwt>
<pdfrwt beam="2">  1       -1 0.16905449E+00 0.30830151E+04</pdfrwt>
<totfact> 0.48821102E-01</totfact>
</mgrwt>
</event>
<event>
12    1  0.1618945E-009  0.3725099E+04  0.7818608E-02  0.8062422E-01
         -1   -1    0    0    0  501 -0.00000000000E+00  0.00000000000E+00  0.15623084007E+04  0.15623084007E+04  0.00000000000E+00 0.  1.
          1   -1    0    0  501    0  0.00000000000E+00 -0.00000000000E+00 -0.22204908546E+04  0.22204908546E+04  0.00000000000E+00 0. -1.
    9900016    2    1    2    0    0 -0.45917470796E+02  0.49932320373E+03  0.12996305981E+02  0.22487166079E+04  0.21920596258E+04 0.  0.
        -24    2    3    3    0    0  0.49281947237E+03  0.65741075851E+03 -0.24700467693E+03  0.86176493241E+03  0.81040425355E+02 0.  0.
         23    2    3    3    0    0 -0.61093390634E+02 -0.83708445462E+02 -0.48209032623E+03  0.50130212502E+03  0.90295247303E+02 0.  0.
        -15    1    3    3    0    0 -0.47764355253E+03 -0.74379109327E+02  0.74209130914E+03  0.88564955049E+03  0.00000000000E+00 0.  1.
        -15    1    5    5    0    0 -0.48639301810E+02  0.33755051628E+01 -0.14800468183E+03  0.15582862882E+03  0.00000000000E+00 0. -1.
         15    1    4    4    0    0  0.74833768810E+02  0.15451370865E+03 -0.50808547902E+02  0.17904213933E+03  0.00000000000E+00 0. -1.
         15    1    5    5    0    0 -0.12454088824E+02 -0.87083950625E+02 -0.33408564440E+03  0.34547349620E+03  0.00000000000E+00 0.  1.
        -16    1    4    4    0    0  0.41798570356E+03  0.50289704986E+03 -0.19619612903E+03  0.68272279308E+03  0.00000000000E+00 0.  1.
         16    1    1    2    0    0 -0.37893017250E+03 -0.63435662384E+03 -0.77134991246E+03  0.10681652912E+04  0.00000000000E+00 0. -1.
    9900018    1    1    2    0    0  0.42484764330E+03  0.13503342012E+03  0.10017115256E+03  0.46591735615E+03  0.91187600000E+02 0.  0.
<mgrwt>
<rscale>  0 0.37250995E+04</rscale>
<asrwt>0</asrwt>
<pdfrwt beam="1">  1        1 0.34161397E+00 0.37250995E+04</pdfrwt>
<pdfrwt beam="2">  1       -1 0.24035514E+00 0.37250995E+04</pdfrwt>
<totfact> 0.13620674E-01</totfact>
</mgrwt>
</event>
<event>
12    1  0.1618945E-009  0.4090174E+04  0.7818608E-02  0.7986599E-01
         -2   -1    0    0    0  501 -0.00000000000E+00  0.00000000000E+00  0.16221474909E+04  0.16221474909E+04  0.00000000000E+00 0. -1.
          2   -1    0    0  501    0  0.00000000000E+00 -0.00000000000E+00 -0.25782991001E+04  0.25782991001E+04  0.00000000000E+00 0.  1.
    9900016    2    1    2    0    0  0.25618260486E+03 -0.24584262013E+03 -0.93775659600E+03  0.24108893240E+04  0.21924716140E+04 0.  0.
        -24    2    3    3    0    0  0.36632929050E+03 -0.54511727196E+03  0.52509272955E+03  0.84470234971E+03  0.80309997533E+02 0.  0.
         23    2    3    3    0    0 -0.10073722431E+03 -0.87174271128E+01 -0.10085254853E+03  0.16976910011E+03  0.91795037509E+02 0.  0.
        -15    1    3    3    0    0 -0.94094613339E+01  0.30799207895E+03 -0.13619967770E+04  0.13964178742E+04  0.00000000000E+00 0.  1.
        -15    1    5    5    0    0 -0.24247204184E+02  0.32277812600E+02 -0.53456254792E+01  0.40722964145E+02  0.00000000000E+00 0.  1.
         15    1    4    4    0    0  0.50382091699E+01 -0.41682118090E+02  0.31769619028E+02  0.52650652544E+02  0.00000000000E+00 0. -1.
         15    1    5    5    0    0 -0.76490020122E+02 -0.40995239713E+02 -0.95506923046E+02  0.12904613596E+03  0.00000000000E+00 0. -1.
        -16    1    4    4    0    0  0.36129108133E+03 -0.50343515387E+03  0.49332311053E+03  0.79205169717E+03  0.00000000000E+00 0.  1.
         16    1    1    2    0    0  0.25327713886E+03 -0.46690659545E+02  0.76438730044E+03  0.80660849973E+03  0.00000000000E+00 0. -1.
    9900018    1    1    2    0    0 -0.50945974372E+03  0.29253327967E+03 -0.78278231365E+03  0.98294876731E+03  0.91187600000E+02 0.  0.
<mgrwt>
<rscale>  0 0.40901743E+04</rscale>
<asrwt>0</asrwt>
<pdfrwt beam="1">  1        2 0.39666140E+00 0.40901743E+04</pdfrwt>
<pdfrwt beam="2">  1       -2 0.24956115E+00 0.40901743E+04</pdfrwt>
<totfact> 0.15869451E-01</totfact>
</mgrwt>
</event>
<event>
12    1  0.1618945E-009  0.2815258E+04  0.7818608E-02  0.8298547E-01
          2   -1    0    0  501    0  0.00000000000E+00  0.00000000000E+00  0.38821647052E+04  0.38821647052E+04  0.00000000000E+00 0. -1.
         -2   -1    0    0    0  501 -0.00000000000E+00 -0.00000000000E+00 -0.51039039094E+03  0.51039039094E+03  0.00000000000E+00 0.  1.
    9900016    2    1    2    0    0 -0.30592840823E+03  0.13593575574E+03  0.25025511393E+04  0.33461014858E+04  0.21958055988E+04 0.  0.
        -24    2    3    3    0    0 -0.63913256159E+03 -0.34686959374E+03  0.21235856799E+03  0.76176641842E+03  0.79893482175E+02 0.  0.
         23    2    3    3    0    0  0.34329038453E+03 -0.14549382317E+03  0.16236188533E+04  0.16682662359E+04  0.89203769877E+02 0.  0.
        -15    1    3    3    0    0 -0.10086231165E+02  0.62829917264E+03  0.66657371804E+03  0.91606883147E+03  0.00000000000E+00 0.  1.
        -15    1    5    5    0    0  0.23919323093E+03 -0.12122681721E+03  0.13027343764E+04  0.13300474421E+04  0.00000000000E+00 0. -1.
         15    1    5    5    0    0  0.10409715360E+03 -0.24267005956E+02  0.32088447689E+03  0.33821879380E+03  0.00000000000E+00 0.  1.
         15    1    4    4    0    0 -0.86090824748E+02 -0.54724011559E+02  0.58739499965E+02  0.11771438486E+03  0.00000000000E+00 0. -1.
        -16    1    4    4    0    0 -0.55304173684E+03 -0.29214558218E+03  0.15361906803E+03  0.64405203356E+03  0.00000000000E+00 0.  1.
         16    1    1    2    0    0  0.34271464848E+03 -0.18792014929E+02  0.81476007865E+03  0.88410432409E+03  0.00000000000E+00 0. -1.
    9900018    1    1    2    0    0 -0.36786240250E+02 -0.11714374081E+03  0.54463096289E+02  0.16234928621E+03  0.91187600000E+02 0.  0.
<mgrwt>
<rscale>  0 0.28152581E+04</rscale>
<asrwt>0</asrwt>
<pdfrwt beam="1">  1        2 0.59725609E+00 0.28152581E+04</pdfrwt>
<pdfrwt beam="2">  1       -2 0.78521601E-01 0.28152581E+04</pdfrwt>
<totfact> 0.53196885E-01</totfact>
</mgrwt>
</event>
<event>
12    1  0.1618945E-009  0.4266216E+04  0.7818608E-02  0.7952895E-01
         -1   -1    0    0    0  501 -0.00000000000E+00  0.00000000000E+00  0.20031390893E+04  0.20031390893E+04  0.00000000000E+00 0.  1.
          1   -1    0    0  501    0  0.00000000000E+00 -0.00000000000E+00 -0.22715092429E+04  0.22715092429E+04  0.00000000000E+00 0. -1.
    9900016    2    1    2    0    0  0.19562521878E+03  0.98176853445E+03 -0.12259581442E+04  0.27055676755E+04  0.21943072697E+04 0.  0.
         24    2    3    3    0    0 -0.26969340118E+03  0.27209659454E+03  0.33113670393E+03  0.51283337751E+03  0.81089265599E+02 0.  0.
         23    2    3    3    0    0  0.38073679864E+03 -0.14212219076E+03 -0.62963173029E+00  0.41642033492E+03  0.90808986075E+02 0.  0.
        -15    1    4    4    0    0 -0.18239565997E+03  0.22783401898E+03  0.22546519542E+03  0.36879678866E+03  0.00000000000E+00 0.  1.
        -15    1    5    5    0    0  0.33075596072E+03 -0.12864899286E+03  0.30188490770E+02  0.35617609954E+03  0.00000000000E+00 0.  1.
         15    1    5    5    0    0  0.49980837927E+02 -0.13473197907E+02 -0.30818122500E+02  0.60244235377E+02  0.00000000000E+00 0. -1.
         15    1    3    3    0    0  0.84581821326E+02  0.85179413068E+03 -0.15564652164E+04  0.17763139631E+04  0.00000000000E+00 0. -1.
        -16    1    1    2    0    0 -0.10749652836E+03 -0.10384741533E+04  0.97571620356E+03  0.14289878168E+04  0.00000000000E+00 0.  1.
         16    1    4    4    0    0 -0.87297741217E+02  0.44262575557E+02  0.10567150851E+03  0.14403658885E+03  0.00000000000E+00 0. -1.
    9900018    1    1    2    0    0 -0.88128690426E+02  0.56705618840E+02 -0.18128212976E+02  0.14009283987E+03  0.91187600000E+02 0.  0.
<mgrwt>
<rscale>  0 0.42662156E+04</rscale>
<asrwt>0</asrwt>
<pdfrwt beam="1">  1        1 0.34946296E+00 0.42662156E+04</pdfrwt>
<pdfrwt beam="2">  1       -1 0.30817525E+00 0.42662156E+04</pdfrwt>
<totfact> 0.43570820E-02</totfact>
</mgrwt>
</event>
<event>
12    1  0.1618945E-009  0.4921032E+04  0.7818608E-02  0.7840806E-01
          2   -1    0    0  501    0  0.00000000000E+00  0.00000000000E+00  0.15844058965E+04  0.15844058965E+04  0.00000000000E+00 0. -1.
         -2   -1    0    0    0  501 -0.00000000000E+00 -0.00000000000E+00 -0.38210781361E+04  0.38210781361E+04  0.00000000000E+00 0.  1.
    9900016    2    1    2    0    0  0.36782475768E+03  0.23349766774E+03 -0.63003879554E+03  0.23285104013E+04  0.21989078180E+04 0.  0.
         24    2    3    3    0    0  0.46401669263E+03 -0.49131268653E+03 -0.65488682990E+03  0.94460912984E+03  0.81914597102E+02 0.  0.
         23    2    3    3    0    0  0.20891668314E+03  0.25469849827E+03  0.52903606541E+03  0.63004319688E+03  0.92508193785E+02 0.  0.
        -15    1    4    4    0    0  0.33900177959E+03 -0.30455933308E+03 -0.42553587862E+03  0.62350571603E+03  0.00000000000E+00 0.  1.
        -15    1    5    5    0    0  0.10732057740E+03  0.17481195582E+03  0.25665826254E+03  0.32855804656E+03  0.00000000000E+00 0.  1.
         15    1    5    5    0    0  0.10159610574E+03  0.79886542449E+02  0.27237780287E+03  0.30148515032E+03  0.00000000000E+00 0. -1.
         15    1    3    3    0    0 -0.30510861809E+03  0.47011185600E+03 -0.50418803105E+03  0.75385807460E+03  0.00000000000E+00 0. -1.
        -16    1    1    2    0    0 -0.89886528899E+03  0.30547597894E+02 -0.21100505312E+04  0.22937317209E+04  0.00000000000E+00 0.  1.
         16    1    4    4    0    0  0.12501491304E+03 -0.18675335345E+03 -0.22935095128E+03  0.32110341381E+03  0.00000000000E+00 0. -1.
    9900018    1    1    2    0    0  0.53104053131E+03 -0.26404526564E+03  0.50341708712E+03  0.78324191039E+03  0.91187600000E+02 0.  0.
<mgrwt>
<rscale>  0 0.49210319E+04</rscale>
<asrwt>0</asrwt>
<pdfrwt beam="1">  1        2 0.24375475E+00 0.49210319E+04</pdfrwt>
<pdfrwt beam="2">  1       -2 0.58785817E+00 0.49210319E+04</pdfrwt>
<totfact> 0.47868580E-03</totfact>
</mgrwt>
</event>
<event>
12    1  0.1618945E-009  0.4153040E+04  0.7818608E-02  0.7974366E-01
          2   -1    0    0  501    0  0.00000000000E+00  0.00000000000E+00  0.17210740404E+04  0.17210740404E+04  0.00000000000E+00 0. -1.
         -2   -1    0    0    0  501 -0.00000000000E+00 -0.00000000000E+00 -0.25053750033E+04  0.25053750033E+04  0.00000000000E+00 0.  1.
    9900016    2    1    2    0    0 -0.96367687207E+03 -0.91706845604E+03  0.16142774560E+03  0.25736842350E+04  0.21972946906E+04 0.  0.
         24    2    3    3    0    0 -0.69263074756E+03  0.54589402960E+03  0.23655288042E+03  0.91660219067E+03  0.80403150982E+02 0.  0.
         23    2    3    3    0    0  0.91947908717E+02 -0.18370863345E+02 -0.10978794063E+03  0.16717898255E+03  0.84282345485E+02 0.  0.
        -15    1    5    5    0    0  0.84576078288E+02 -0.30078353312E+02 -0.12008869467E+03  0.14993036698E+03  0.00000000000E+00 0.  1.
        -15    1    4    4    0    0 -0.48411090520E+02  0.19570856905E+02  0.18892180201E+01  0.52251519308E+02  0.00000000000E+00 0.  1.
         15    1    3    3    0    0 -0.36299403323E+03 -0.14445916223E+04  0.34662805809E+02  0.14899030618E+04  0.00000000000E+00 0. -1.
         15    1    5    5    0    0  0.73718304291E+01  0.11707489967E+02  0.10300754037E+02  0.17248615566E+02  0.00000000000E+00 0. -1.
        -16    1    1    2    0    0  0.73608272610E+01  0.48336238171E+01 -0.56593439569E+02  0.57274454161E+02  0.00000000000E+00 0.  1.
         16    1    4    4    0    0 -0.64421965704E+03  0.52632317269E+03  0.23466366240E+03  0.86435067136E+03  0.00000000000E+00 0. -1.
    9900018    1    1    2    0    0  0.95631604481E+03  0.91223483222E+03 -0.88913526891E+03  0.15954903546E+04  0.91187600000E+02 0.  0.
<mgrwt>
<rscale>  0 0.41530403E+04</rscale>
<asrwt>0</asrwt>
<pdfrwt beam="1">  1        2 0.26478062E+00 0.41530403E+04</pdfrwt>
<pdfrwt beam="2">  1       -2 0.38544231E+00 0.41530403E+04</pdfrwt>
<totfact> 0.68652469E-02</totfact>
</mgrwt>
</event>
<event>
12    1  0.1618945E-009  0.2531213E+04  0.7818608E-02  0.8391949E-01
          1   -1    0    0  501    0  0.00000000000E+00  0.00000000000E+00  0.22139925222E+04  0.22139925222E+04  0.00000000000E+00 0. -1.
         -1   -1    0    0    0  501 -0.00000000000E+00 -0.00000000000E+00 -0.72347102381E+03  0.72347102381E+03  0.00000000000E+00 0.  1.
    9900016    2    1    2    0    0 -0.10577084530E+03 -0.12749510035E+03  0.12039531100E+04  0.25095412948E+04  0.21956438570E+04 0.  0.
         24    2    3    3    0    0  0.60562823970E+03 -0.21341712522E+03  0.78541483663E+03  0.10176182938E+04  0.79612136633E+02 0.  0.
         23    2    3    3    0    0  0.23874533807E+03  0.33137236275E+03 -0.16067693393E+02  0.41865572787E+03  0.90595079685E+02 0.  0.
        -15    1    4    4    0    0  0.54639578402E+02 -0.37361733096E+02  0.56103403314E+02  0.86769663427E+02  0.00000000000E+00 0.  1.
        -15    1    5    5    0    0  0.31066605252E+02  0.13854636435E+02 -0.19552455378E+02  0.39234977047E+02  0.00000000000E+00 0. -1.
         15    1    5    5    0    0  0.20767873282E+03  0.31751772632E+03  0.34847619845E+01  0.37942075083E+03  0.00000000000E+00 0.  1.
         15    1    3    3    0    0 -0.95014442308E+03 -0.24545033788E+03  0.43460596673E+03  0.10732672730E+04  0.00000000000E+00 0. -1.
        -16    1    1    2    0    0 -0.53598130335E+02 -0.41775475743E+02  0.56718182758E+02  0.88514982937E+02  0.00000000000E+00 0.  1.
         16    1    4    4    0    0  0.55098866130E+03 -0.17605539213E+03  0.72931143331E+03  0.93084863042E+03  0.00000000000E+00 0. -1.
    9900018    1    1    2    0    0  0.15936897564E+03  0.16927057610E+03  0.22985020563E+03  0.33940726827E+03  0.91187600000E+02 0.  0.
<mgrwt>
<rscale>  0 0.25312127E+04</rscale>
<asrwt>0</asrwt>
<pdfrwt beam="1">  1        1 0.34061423E+00 0.25312127E+04</pdfrwt>
<pdfrwt beam="2">  1       -1 0.11130324E+00 0.25312127E+04</pdfrwt>
<totfact> 0.14009463E+00</totfact>
</mgrwt>
</event>
<event>
12    1  0.1618945E-009  0.3282380E+04  0.7818608E-02  0.8167393E-01
         -2   -1    0    0    0  501 -0.00000000000E+00  0.00000000000E+00  0.23814965478E+04  0.23814965478E+04  0.00000000000E+00 0.  1.
          2   -1    0    0  501    0  0.00000000000E+00 -0.00000000000E+00 -0.11310132591E+04  0.11310132591E+04  0.00000000000E+00 0. -1.
    9900016    2    1    2    0    0 -0.17456112540E+03 -0.30393148552E+03  0.42895437652E+03  0.22651553247E+04  0.21963790323E+04 0.  0.
         24    2    3    3    0    0  0.16615060212E+03 -0.23664933253E+03  0.22857409809E+03  0.37693695555E+03  0.78907673729E+02 0.  0.
         23    2    3    3    0    0  0.31475243221E+03 -0.39708904118E+03  0.79273908334E+03  0.94519408420E+03  0.90596922444E+02 0.  0.
        -15    1    5    5    0    0  0.68709952994E+02 -0.36934353172E+02  0.13665175323E+03  0.15734962900E+03  0.00000000000E+00 0.  1.
        -15    1    4    4    0    0  0.15337578570E+03 -0.16639185383E+03  0.15425250552E+03  0.27386897619E+03  0.00000000000E+00 0.  1.
         15    1    3    3    0    0 -0.65546415973E+03  0.32980688819E+03 -0.59235880491E+03  0.94302428491E+03  0.00000000000E+00 0. -1.
         15    1    5    5    0    0  0.24604247921E+03 -0.36015468801E+03  0.65608733010E+03  0.78784445520E+03  0.00000000000E+00 0. -1.
        -16    1    1    2    0    0  0.26899505136E+03 -0.35421352253E+02  0.84029582358E+03  0.88301193705E+03  0.00000000000E+00 0.  1.
         16    1    4    4    0    0  0.12774816417E+02 -0.70257478696E+02  0.74321592573E+02  0.10306797936E+03  0.00000000000E+00 0. -1.
    9900018    1    1    2    0    0 -0.94433925952E+02  0.33935283777E+03 -0.18766911372E+02  0.36434254519E+03  0.91187600000E+02 0.  0.
<mgrwt>
<rscale>  0 0.32823797E+04</rscale>
<asrwt>0</asrwt>
<pdfrwt beam="1">  1        2 0.17400204E+00 0.32823797E+04</pdfrwt>
<pdfrwt beam="2">  1       -2 0.36638408E+00 0.32823797E+04</pdfrwt>
<totfact> 0.21342583E-01</totfact>
</mgrwt>
</event>
<event>
12    1  0.1618945E-009  0.3630023E+04  0.7818608E-02  0.8083649E-01
          2   -1    0    0  501    0  0.00000000000E+00  0.00000000000E+00  0.19521644532E+04  0.19521644532E+04  0.00000000000E+00 0. -1.
         -2   -1    0    0    0  501 -0.00000000000E+00 -0.00000000000E+00 -0.16874943327E+04  0.16874943327E+04  0.00000000000E+00 0.  1.
    9900016    2    1    2    0    0 -0.32953142233E+03  0.12251041723E+02 -0.26077559143E+03  0.22415702860E+04  0.22017929948E+04 0.  0.
         24    2    3    3    0    0  0.62647426485E+03 -0.35465895827E+03 -0.50651270578E+03  0.88474943098E+03  0.89294195279E+02 0.  0.
         23    2    3    3    0    0  0.17654039320E+02 -0.16330196629E+03  0.15453069238E+03  0.24441058739E+03  0.94221032903E+02 0.  0.
        -15    1    4    4    0    0  0.37749219861E+03 -0.17071635556E+03 -0.26109445664E+03  0.48970884142E+03  0.00000000000E+00 0.  1.
        -15    1    5    5    0    0 -0.34024247310E+02 -0.80844007577E+02  0.99397259399E+02  0.13256401526E+03  0.00000000000E+00 0.  1.
         15    1    5    5    0    0  0.51678286630E+02 -0.82457958716E+02  0.55133432979E+02  0.11184657213E+03  0.00000000000E+00 0. -1.
         15    1    3    3    0    0 -0.97365972650E+03  0.53021196628E+03  0.91206421962E+02  0.11124102677E+04  0.00000000000E+00 0. -1.
        -16    1    1    2    0    0  0.67116863484E+03 -0.30022381751E+01 -0.10094723805E+03  0.67872431421E+03  0.00000000000E+00 0.  1.
         16    1    4    4    0    0  0.24898206623E+03 -0.18394260270E+03 -0.24541824913E+03  0.39504058956E+03  0.00000000000E+00 0. -1.
    9900018    1    1    2    0    0 -0.34163721251E+03 -0.92488035480E+01  0.62639295002E+03  0.71936418563E+03  0.91187600000E+02 0.  0.
<mgrwt>
<rscale>  0 0.36300228E+04</rscale>
<asrwt>0</asrwt>
<pdfrwt beam="1">  1        2 0.30033299E+00 0.36300228E+04</pdfrwt>
<pdfrwt beam="2">  1       -2 0.25961451E+00 0.36300228E+04</pdfrwt>
<totfact> 0.32399283E-01</totfact>
</mgrwt>
</event>
<event>
12    1  0.1618945E-009  0.4573378E+04  0.7818608E-02  0.7897915E-01
          2   -1    0    0  501    0  0.00000000000E+00  0.00000000000E+00  0.23175659136E+04  0.23175659136E+04  0.00000000000E+00 0. -1.
         -2   -1    0    0    0  501 -0.00000000000E+00 -0.00000000000E+00 -0.22562235443E+04  0.22562235443E+04  0.00000000000E+00 0.  1.
    9900016    2    1    2    0    0 -0.98676102916E+03 -0.78956588034E+03  0.25214388627E+03  0.25561354346E+04  0.22075190174E+04 0.  0.
         24    2    3    3    0    0 -0.44694505155E+03 -0.31141260964E+03  0.74916514570E+03  0.92976838775E+03  0.80517990466E+02 0.  0.
         23    2    3    3    0    0  0.36258497378E+03  0.79902646463E+02  0.11707770735E+03  0.40045048165E+03  0.93814191758E+02 0.  0.
        -15    1    4    4    0    0 -0.12343545129E+03 -0.10291857193E+03  0.28097719794E+03  0.32369233671E+03  0.00000000000E+00 0.  1.
        -15    1    5    5    0    0  0.13024278500E+03 -0.39568051958E+01  0.83588385555E+01  0.13057070703E+03  0.00000000000E+00 0. -1.
         15    1    3    3    0    0 -0.90240095140E+03 -0.55805591716E+03 -0.61409896677E+03  0.12259165652E+04  0.00000000000E+00 0. -1.
         15    1    5    5    0    0  0.23234218878E+03  0.83859451658E+02  0.10871886879E+03  0.26987977462E+03  0.00000000000E+00 0.  1.
        -16    1    1    2    0    0  0.13183467321E+04  0.92464672374E+03 -0.28747506333E+03  0.16357419057E+04  0.00000000000E+00 0.  1.
         16    1    4    4    0    0 -0.32350960026E+03 -0.20849403771E+03  0.46818794775E+03  0.60607605104E+03  0.00000000000E+00 0. -1.
    9900018    1    1    2    0    0 -0.33158570298E+03 -0.13508084340E+03  0.96673546426E+02  0.38191211770E+03  0.91187600000E+02 0.  0.
<mgrwt>
<rscale>  0 0.45733781E+04</rscale>
<asrwt>0</asrwt>
<pdfrwt beam="1">  1        2 0.35654860E+00 0.45733781E+04</pdfrwt>
<pdfrwt beam="2">  1       -2 0.34711131E+00 0.45733781E+04</pdfrwt>
<totfact> 0.54144898E-02</totfact>
</mgrwt>
</event>
<event>
12    1  0.1618945E-009  0.3077194E+04  0.7818608E-02  0.8222025E-01
         -1   -1    0    0    0  501 -0.00000000000E+00  0.00000000000E+00  0.11042650573E+04  0.11042650573E+04  0.00000000000E+00 0.  1.
          1   -1    0    0  501    0  0.00000000000E+00 -0.00000000000E+00 -0.21437615996E+04  0.21437615996E+04  0.00000000000E+00 0. -1.
    9900016    2    1    2    0    0 -0.19767079005E+03 -0.46861304120E+02 -0.75033316179E+03  0.23353819411E+04  0.22022123499E+04 0.  0.
         24    2    3    3    0    0  0.70905167241E+02  0.45369865091E+03 -0.12673283210E+04  0.13503447500E+04  0.80248751248E+02 0.  0.
         23    2    3    3    0    0  0.17843093561E+03 -0.10718480076E+03  0.65514109240E+02  0.23777932888E+03  0.94449618500E+02 0.  0.
        -15    1    5    5    0    0  0.92743926338E+02 -0.69240727968E+02  0.83032753403E+02  0.14244350606E+03  0.00000000000E+00 0.  1.
        -15    1    4    4    0    0  0.82934992332E+02  0.34140409030E+03 -0.90414129480E+03  0.97000332308E+03  0.00000000000E+00 0.  1.
         15    1    3    3    0    0 -0.44700689290E+03 -0.39337515427E+03  0.45148104993E+03  0.74725786228E+03  0.00000000000E+00 0. -1.
         15    1    5    5    0    0  0.85687009271E+02 -0.37944072793E+02 -0.17518644163E+02  0.95335822812E+02  0.00000000000E+00 0. -1.
        -16    1    1    2    0    0 -0.12309705874E+02  0.41403500271E+03 -0.47214720488E+02  0.41690015850E+03  0.00000000000E+00 0.  1.
         16    1    4    4    0    0 -0.12029825091E+02  0.11229456061E+03 -0.36318702616E+03  0.38034142689E+03  0.00000000000E+00 0. -1.
    9900018    1    1    2    0    0  0.20998049592E+03 -0.36717369859E+03 -0.24194865994E+03  0.49574455725E+03  0.91187600000E+02 0.  0.
<mgrwt>
<rscale>  0 0.30771942E+04</rscale>
<asrwt>0</asrwt>
<pdfrwt beam="1">  1        1 0.32980948E+00 0.30771942E+04</pdfrwt>
<pdfrwt beam="2">  1       -1 0.16988693E+00 0.30771942E+04</pdfrwt>
<totfact> 0.49595180E-01</totfact>
</mgrwt>
</event>
<event>
12    1  0.1618945E-009  0.3911424E+04  0.7818608E-02  0.8022657E-01
          2   -1    0    0  501    0  0.00000000000E+00  0.00000000000E+00  0.25178884697E+04  0.25178884697E+04  0.00000000000E+00 0. -1.
         -2   -1    0    0    0  501 -0.00000000000E+00 -0.00000000000E+00 -0.15190546675E+04  0.15190546675E+04  0.00000000000E+00 0.  1.
    9900016    2    1    2    0    0  0.38437111028E+03  0.35611968343E+03  0.15703483063E+04  0.27586325321E+04  0.22066937406E+04 0.  0.
         24    2    3    3    0    0 -0.17878471568E+03  0.19301309880E+03 -0.44951035061E+03  0.52691972153E+03  0.79792272583E+02 0.  0.
         23    2    3    3    0    0 -0.92751668195E+00  0.30624949929E+03  0.40917497633E+03  0.51911775327E+03  0.90936595534E+02 0.  0.
        -15    1    5    5    0    0 -0.39454069526E+02  0.17661809021E+03  0.27018470115E+03  0.32519278302E+03  0.00000000000E+00 0.  1.
        -15    1    4    4    0    0  0.65002604493E+01  0.19646540231E+02 -0.26247625123E+02  0.33424209094E+02  0.00000000000E+00 0.  1.
         15    1    3    3    0    0  0.56408334265E+03 -0.14314291466E+03  0.16106836805E+04  0.17125950573E+04  0.00000000000E+00 0. -1.
         15    1    5    5    0    0  0.38526552844E+02  0.12963140908E+03  0.13899027518E+03  0.19392497026E+03  0.00000000000E+00 0. -1.
        -16    1    1    2    0    0 -0.48072130488E+03 -0.36552053511E+03 -0.80695442655E+03  0.10079055914E+04  0.00000000000E+00 0.  1.
         16    1    4    4    0    0 -0.18528497613E+03  0.17336655857E+03 -0.42326272548E+03  0.49349551243E+03  0.00000000000E+00 0. -1.
    9900018    1    1    2    0    0  0.96350194599E+02  0.94008516784E+01  0.23543992242E+03  0.27040501378E+03  0.91187600000E+02 0.  0.
<mgrwt>
<rscale>  0 0.39114244E+04</rscale>
<asrwt>0</asrwt>
<pdfrwt beam="1">  1        2 0.38736746E+00 0.39114244E+04</pdfrwt>
<pdfrwt beam="2">  1       -2 0.23370072E+00 0.39114244E+04</pdfrwt>
<totfact> 0.21890940E-01</totfact>
</mgrwt>
</event>
<event>
12    1  0.1618945E-009  0.3924036E+04  0.7818608E-02  0.8020049E-01
          2   -1    0    0  501    0  0.00000000000E+00  0.00000000000E+00  0.17919189353E+04  0.17919189353E+04  0.00000000000E+00 0. -1.
         -2   -1    0    0    0  501 -0.00000000000E+00 -0.00000000000E+00 -0.21482643349E+04  0.21482643349E+04  0.00000000000E+00 0.  1.
    9900016    2    1    2    0    0 -0.63691911801E+02 -0.29496608186E+03  0.76703695961E+03  0.23527951280E+04  0.22036872663E+04 0.  0.
         24    2    3    3    0    0 -0.59930024894E+03 -0.49333245674E+03 -0.50026872878E+03  0.92721924759E+03  0.83240800377E+02 0.  0.
         23    2    3    3    0    0  0.63246028748E+02  0.13699953621E+03  0.32015792738E+03  0.36539621616E+03  0.90798476005E+02 0.  0.
        -15    1    4    4    0    0 -0.20191167338E+03 -0.14150013226E+03 -0.11940027752E+03  0.27394714371E+03  0.00000000000E+00 0.  1.
        -15    1    5    5    0    0  0.52834847973E+02  0.94180933694E+02  0.12436865267E+03  0.16470923228E+03  0.00000000000E+00 0. -1.
         15    1    5    5    0    0  0.10411180775E+02  0.42818602520E+02  0.19578927471E+03  0.20068698388E+03  0.00000000000E+00 0.  1.
         15    1    3    3    0    0  0.47236230839E+03  0.61366838667E+02  0.94714776102E+03  0.10601796642E+04  0.00000000000E+00 0. -1.
        -16    1    1    2    0    0  0.13579104628E+03  0.15527105784E+03 -0.13104453481E+04  0.13265803104E+04  0.00000000000E+00 0.  1.
         16    1    4    4    0    0 -0.39738857556E+03 -0.35183232448E+03 -0.38086845126E+03  0.65327210387E+03  0.00000000000E+00 0. -1.
    9900018    1    1    2    0    0 -0.72099134476E+02  0.13969502401E+03  0.18706298882E+03  0.26080783176E+03  0.91187600000E+02 0.  0.
<mgrwt>
<rscale>  0 0.39240365E+04</rscale>
<asrwt>0</asrwt>
<pdfrwt beam="1">  1        2 0.27567984E+00 0.39240365E+04</pdfrwt>
<pdfrwt beam="2">  1       -2 0.33050221E+00 0.39240365E+04</pdfrwt>
<totfact> 0.14259914E-01</totfact>
</mgrwt>
</event>
<event>
12    1  0.1618945E-009  0.3062322E+04  0.7818608E-02  0.8226155E-01
         -2   -1    0    0    0  501 -0.00000000000E+00  0.00000000000E+00  0.18781865254E+04  0.18781865254E+04  0.00000000000E+00 0.  1.
          2   -1    0    0  501    0  0.00000000000E+00 -0.00000000000E+00 -0.12482539022E+04  0.12482539022E+04  0.00000000000E+00 0. -1.
    9900016    2    1    2    0    0 -0.23484231156E+03  0.24599978357E+03  0.33525843015E+03  0.22512976675E+04  0.22000627645E+04 0.  0.
        -24    2    3    3    0    0 -0.50834386203E+03  0.11438185946E+03 -0.54659505220E+03  0.75919517820E+03  0.78195112933E+02 0.  0.
         23    2    3    3    0    0  0.40888583489E+02 -0.36857447264E+03  0.85862660758E+03  0.93997866813E+03  0.93814855821E+02 0.  0.
        -15    1    3    3    0    0  0.23261296698E+03  0.50019239675E+03  0.23226874768E+02  0.55212382115E+03  0.00000000000E+00 0.  1.
        -15    1    5    5    0    0  0.65779068154E+02 -0.32745673309E+03  0.73461309731E+03  0.80697657996E+03  0.00000000000E+00 0. -1.
         15    1    4    4    0    0 -0.40775341890E+03  0.70652259037E+02 -0.46507196664E+03  0.62253234975E+03  0.00000000000E+00 0. -1.
         15    1    5    5    0    0 -0.24890484665E+02 -0.41117739544E+02  0.12401351026E+03  0.13300208818E+03  0.00000000000E+00 0.  1.
        -16    1    4    4    0    0 -0.10059044313E+03  0.43729600427E+02 -0.81523085556E+02  0.13666282845E+03  0.00000000000E+00 0.  1.
         16    1    1    2    0    0 -0.16806435164E+03  0.13975608122E+03 -0.34170181778E+02  0.22123514606E+03  0.00000000000E+00 0. -1.
    9900018    1    1    2    0    0  0.40290666321E+03 -0.38575586479E+03  0.32884437479E+03  0.65390761404E+03  0.91187600000E+02 0.  0.
<mgrwt>
<rscale>  0 0.30623218E+04</rscale>
<asrwt>0</asrwt>
<pdfrwt beam="1">  1        2 0.19203906E+00 0.30623218E+04</pdfrwt>
<pdfrwt beam="2">  1       -2 0.28895177E+00 0.30623218E+04</pdfrwt>
<totfact> 0.56066394E-01</totfact>
</mgrwt>
</event>
<event>
12    1  0.1618945E-009  0.2730867E+04  0.7818608E-02  0.8325059E-01
          2   -1    0    0  501    0  0.00000000000E+00  0.00000000000E+00  0.17404142319E+04  0.17404142319E+04  0.00000000000E+00 0.  1.
         -2   -1    0    0    0  501 -0.00000000000E+00 -0.00000000000E+00 -0.10712440573E+04  0.10712440573E+04  0.00000000000E+00 0. -1.
    9900016    2    1    2    0    0 -0.20963550626E+03  0.37508784177E+02  0.24352163196E+03  0.22111131388E+04  0.21873190378E+04 0.  0.
         24    2    3    3    0    0 -0.12377609009E+03 -0.46221724587E+03  0.13677406602E+03  0.50403344698E+03  0.79857796657E+02 0.  0.
         23    2    3    3    0    0  0.17307886988E+03 -0.35074795930E+03  0.57591032156E+03  0.70185895298E+03  0.89178838575E+02 0.  0.
        -15    1    5    5    0    0  0.12572167175E+03 -0.16728032752E+03  0.34055711803E+03  0.39970964132E+03  0.00000000000E+00 0.  1.
        -15    1    4    4    0    0 -0.34529561892E+02 -0.36909116010E+02  0.15102891834E+02  0.52751026823E+02  0.00000000000E+00 0.  1.
         15    1    3    3    0    0 -0.25893828605E+03  0.85047398934E+03 -0.46916275562E+03  0.10052207388E+04  0.00000000000E+00 0. -1.
         15    1    5    5    0    0  0.47357198126E+02 -0.18346763178E+03  0.23535320353E+03  0.30214931166E+03  0.00000000000E+00 0. -1.
        -16    1    1    2    0    0  0.26822886214E+03 -0.41415750641E+02  0.40893414960E+03  0.49080456965E+03  0.00000000000E+00 0.  1.
         16    1    4    4    0    0 -0.89246528198E+02 -0.42530812986E+03  0.12167117418E+03  0.45128242016E+03  0.00000000000E+00 0. -1.
    9900018    1    1    2    0    0 -0.58593355874E+02  0.39069664645E+01  0.16714393042E+02  0.10974058077E+03  0.91187600000E+02 0.  0.
<mgrwt>
<rscale>  0 0.27308668E+04</rscale>
<asrwt>0</asrwt>
<pdfrwt beam="1">  1        2 0.26775604E+00 0.27308668E+04</pdfrwt>
<pdfrwt beam="2">  1       -2 0.16480678E+00 0.27308668E+04</pdfrwt>
<totfact> 0.18930273E+00</totfact>
</mgrwt>
</event>
<event>
12    1  0.1618945E-009  0.4843201E+04  0.7818608E-02  0.7853161E-01
          1   -1    0    0  501    0  0.00000000000E+00  0.00000000000E+00  0.10737309452E+04  0.10737309452E+04  0.00000000000E+00 0. -1.
         -1   -1    0    0    0  501 -0.00000000000E+00 -0.00000000000E+00 -0.54614701841E+04  0.54614701841E+04  0.00000000000E+00 0.  1.
    9900016    2    1    2    0    0 -0.79545227782E+03  0.96014201134E+03 -0.27060573403E+04  0.37174330722E+04  0.22230486519E+04 0.  0.
         24    2    3    3    0    0 -0.57801853156E+03 -0.62619021960E+03 -0.72364338315E+03  0.11207572911E+04  0.78851415240E+02 0.  0.
         23    2    3    3    0    0 -0.13161119621E+03  0.28347743668E+03 -0.18508107165E+03  0.37514441141E+03  0.93794254896E+02 0.  0.
        -15    1    5    5    0    0 -0.12066390043E+03  0.25672738982E+03 -0.19539809126E+03  0.34445484990E+03  0.00000000000E+00 0.  1.
        -15    1    4    4    0    0 -0.21703019252E+03 -0.29250446370E+03 -0.30518137575E+03  0.47518063708E+03  0.00000000000E+00 0.  1.
         15    1    5    5    0    0 -0.10947295780E+02  0.26750046856E+02  0.10317019610E+02  0.30689561504E+02  0.00000000000E+00 0. -1.
         15    1    3    3    0    0 -0.85822550049E+02  0.13028547943E+04 -0.17973328855E+04  0.22215313697E+04  0.00000000000E+00 0. -1.
        -16    1    1    2    0    0  0.66132649182E+03 -0.92924504546E+03 -0.20879923737E+04  0.23791934003E+04  0.00000000000E+00 0.  1.
         16    1    4    4    0    0 -0.36098833904E+03 -0.33368575589E+03 -0.41846200740E+03  0.64557665404E+03  0.00000000000E+00 0. -1.
    9900018    1    1    2    0    0  0.13412578600E+03 -0.30896965881E+02  0.40631047512E+03  0.43857465676E+03  0.91187600000E+02 0.  0.
<mgrwt>
<rscale>  0 0.48432012E+04</rscale>
<asrwt>0</asrwt>
<pdfrwt beam="1">  1        1 0.16518938E+00 0.48432012E+04</pdfrwt>
<pdfrwt beam="2">  1       -1 0.84022618E+00 0.48432012E+04</pdfrwt>
<totfact> 0.34765666E-04</totfact>
</mgrwt>
</event>
<event>
12    1  0.1618945E-009  0.3232317E+04  0.7818608E-02  0.8180334E-01
          2   -1    0    0  501    0  0.00000000000E+00  0.00000000000E+00  0.19859025491E+04  0.19859025491E+04  0.00000000000E+00 0. -1.
         -2   -1    0    0    0  501 -0.00000000000E+00 -0.00000000000E+00 -0.13152549006E+04  0.13152549006E+04  0.00000000000E+00 0.  1.
    9900016    2    1    2    0    0 -0.31327733505E+02  0.84749178532E+02  0.12611447519E+04  0.25344223764E+04  0.21965078754E+04 0.  0.
         24    2    3    3    0    0  0.62618364390E+03 -0.33658177055E+03 -0.17017502310E+03  0.73522485670E+03  0.78757902930E+02 0.  0.
         23    2    3    3    0    0  0.83497192111E+02 -0.77918097490E+02  0.52587663759E+02  0.15625943652E+03  0.92782207969E+02 0.  0.
        -15    1    4    4    0    0  0.22969048414E+03 -0.12830916676E+03 -0.10209642345E+03  0.28221382046E+03  0.00000000000E+00 0.  1.
        -15    1    5    5    0    0  0.56925514531E+02  0.75014987321E+01  0.25196168316E+02  0.62702739857E+02  0.00000000000E+00 0.  1.
         15    1    3    3    0    0 -0.74100856951E+03  0.49924904658E+03  0.13787321112E+04  0.16429380832E+04  0.00000000000E+00 0. -1.
         15    1    5    5    0    0  0.26571677581E+02 -0.85419596222E+02  0.27391495443E+02  0.93556696665E+02  0.00000000000E+00 0. -1.
        -16    1    1    2    0    0  0.83648579931E+02 -0.10539698675E+03 -0.63618586172E+03  0.65025999446E+03  0.00000000000E+00 0.  1.
         16    1    4    4    0    0  0.39649315976E+03 -0.20827260380E+03 -0.68078599649E+02  0.45301103624E+03  0.00000000000E+00 0. -1.
    9900018    1    1    2    0    0 -0.52320846426E+02  0.20647808220E+02  0.45688758283E+02  0.11647507880E+03  0.91187600000E+02 0.  0.
<mgrwt>
<rscale>  0 0.32323169E+04</rscale>
<asrwt>0</asrwt>
<pdfrwt beam="1">  1        2 0.30552347E+00 0.32323169E+04</pdfrwt>
<pdfrwt beam="2">  1       -2 0.20234691E+00 0.32323169E+04</pdfrwt>
<totfact> 0.73348312E-01</totfact>
</mgrwt>
</event>
<event>
12    1  0.1618945E-009  0.3176278E+04  0.7818608E-02  0.8195110E-01
         -1   -1    0    0    0  501 -0.00000000000E+00  0.00000000000E+00  0.15834605040E+04  0.15834605040E+04  0.00000000000E+00 0.  1.
          1   -1    0    0  501    0  0.00000000000E+00 -0.00000000000E+00 -0.15928309680E+04  0.15928309680E+04  0.00000000000E+00 0. -1.
    9900016    2    1    2    0    0 -0.47756619585E+03 -0.38617942850E+03 -0.10251068742E+03  0.22986710462E+04  0.22127304660E+04 0.  0.
         24    2    3    3    0    0  0.29666423130E+03 -0.60537940411E+03 -0.73181170619E+02  0.68276182730E+03  0.79462821642E+02 0.  0.
         23    2    3    3    0    0 -0.25840984107E+03 -0.40059396702E+03  0.46302068205E+03  0.67112134500E+03  0.93619097049E+02 0.  0.
        -15    1    4    4    0    0  0.47700018575E+02 -0.14716931041E+03  0.84302569734E+01  0.15493600915E+03  0.00000000000E+00 0.  1.
        -15    1    5    5    0    0 -0.18212051499E+03 -0.23285090188E+03  0.33477465112E+03  0.44661111890E+03  0.00000000000E+00 0.  1.
         15    1    3    3    0    0 -0.51582058608E+03  0.61979394263E+03 -0.49235019886E+03  0.94478787390E+03  0.00000000000E+00 0. -1.
         15    1    5    5    0    0 -0.76289326076E+02 -0.16774306514E+03  0.12824603093E+03  0.22451022610E+03  0.00000000000E+00 0. -1.
        -16    1    1    2    0    0  0.22174469647E+03  0.51875362618E+03  0.11059951720E+03  0.57489850260E+03  0.00000000000E+00 0.  1.
         16    1    4    4    0    0  0.24896421273E+03 -0.45821009371E+03 -0.81611427592E+02  0.52782581815E+03  0.00000000000E+00 0. -1.
    9900018    1    1    2    0    0  0.25582149938E+03 -0.13257419768E+03 -0.17459293826E+02  0.30272192318E+03  0.91187600000E+02 0.  0.
<mgrwt>
<rscale>  0 0.31762776E+04</rscale>
<asrwt>0</asrwt>
<pdfrwt beam="1">  1        1 0.24505092E+00 0.31762776E+04</pdfrwt>
<pdfrwt beam="2">  1       -1 0.24360931E+00 0.31762776E+04</pdfrwt>
<totfact> 0.36323742E-01</totfact>
</mgrwt>
</event>
<event>
12    1  0.1618945E-009  0.3879564E+04  0.7818608E-02  0.8029293E-01
          2   -1    0    0  501    0  0.00000000000E+00  0.00000000000E+00  0.21396214208E+04  0.21396214208E+04  0.00000000000E+00 0. -1.
         -2   -1    0    0    0  501 -0.00000000000E+00 -0.00000000000E+00 -0.17586072315E+04  0.17586072315E+04  0.00000000000E+00 0.  1.
    9900016    2    1    2    0    0 -0.12339634454E+04  0.59722072183E+02 -0.16620097405E+03  0.25191094423E+04  0.21890767707E+04 0.  0.
         24    2    3    3    0    0 -0.15405165367E+03  0.52853631460E+03  0.71989436600E+03  0.91037414712E+03  0.86317099639E+02 0.  0.
         23    2    3    3    0    0 -0.24707292781E+03 -0.41601261683E+03 -0.21285783852E+03  0.53651455372E+03  0.91803474423E+02 0.  0.
        -15    1    5    5    0    0 -0.67456696206E+02 -0.14225214031E+03 -0.26136746273E+02  0.15959074783E+03  0.00000000000E+00 0. -1.
        -15    1    4    4    0    0 -0.15731829261E+03  0.48470129734E+03  0.62992284263E+03  0.81023896506E+03  0.00000000000E+00 0.  1.
         15    1    5    5    0    0 -0.17961623160E+03 -0.27376047652E+03 -0.18672109225E+03  0.37692380589E+03  0.00000000000E+00 0.  1.
         15    1    3    3    0    0 -0.83283886395E+03 -0.52801625590E+02 -0.67323750153E+03  0.10722207415E+04  0.00000000000E+00 0. -1.
        -16    1    1    2    0    0  0.36587429435E+03  0.48214651344E+02  0.26892494477E+03  0.45662816141E+03  0.00000000000E+00 0.  1.
         16    1    4    4    0    0  0.32666389416E+01  0.43835017263E+02  0.89971523371E+02  0.10013518206E+03  0.00000000000E+00 0. -1.
    9900018    1    1    2    0    0  0.86808915107E+03 -0.10793672353E+03  0.27829021855E+03  0.92249104854E+03  0.91187600000E+02 0.  0.
<mgrwt>
<rscale>  0 0.38795637E+04</rscale>
<asrwt>0</asrwt>
<pdfrwt beam="1">  1        2 0.32917253E+00 0.38795637E+04</pdfrwt>
<pdfrwt beam="2">  1       -2 0.27055496E+00 0.38795637E+04</pdfrwt>
<totfact> 0.21390466E-01</totfact>
</mgrwt>
</event>
<event>
12    1  0.1834531E-009  0.2967828E+04  0.7818608E-02  0.8252978E-01
          1   -1    0    0  501    0  0.00000000000E+00  0.00000000000E+00  0.23937941897E+04  0.23937941897E+04  0.00000000000E+00 0. -1.
         -1   -1    0    0    0  501 -0.00000000000E+00 -0.00000000000E+00 -0.91987899898E+03  0.91987899898E+03  0.00000000000E+00 0.  1.
    9900016    2    1    2    0    0 -0.25697687013E+03  0.17855082503E+03  0.13341192846E+04  0.25841276431E+04  0.21908728629E+04 0.  0.
         24    2    3    3    0    0  0.20747815059E+03  0.76643691600E+03  0.15980713534E+02  0.79822837180E+03  0.80252234583E+02 0.  0.
         23    2    3    3    0    0  0.27902822128E+03 -0.12377846209E+03  0.25312453887E+03  0.40661753392E+03  0.89932923721E+02 0.  0.
        -15    1    4    4    0    0  0.15303644088E+03  0.46616791125E+03 -0.19342730244E+02  0.49102628742E+03  0.00000000000E+00 0.  1.
        -15    1    5    5    0    0  0.16908809796E+03 -0.11166853573E+03  0.12828211927E+03  0.23982691439E+03  0.00000000000E+00 0.  1.
         15    1    3    3    0    0 -0.74348324200E+03 -0.46410762888E+03  0.10650140322E+04  0.13792817374E+04  0.00000000000E+00 0. -1.
         15    1    5    5    0    0  0.10994012331E+03 -0.12109926363E+02  0.12484241960E+03  0.16679061953E+03  0.00000000000E+00 0. -1.
        -16    1    1    2    0    0  0.98557910774E+02 -0.33510696958E+03 -0.12567573957E+03  0.37122060066E+03  0.00000000000E+00 0.  1.
         16    1    4    4    0    0  0.54441709711E+02  0.30026900475E+03  0.35323443778E+02  0.30720208438E+03  0.00000000000E+00 0. -1.
    9900018    1    1    2    0    0  0.15841895936E+03  0.15655614454E+03  0.26547164563E+03  0.35832494486E+03  0.91187600000E+02 0.  0.
<mgrwt>
<rscale>  0 0.29678282E+04</rscale>
<asrwt>0</asrwt>
<pdfrwt beam="1">  1        1 0.36827603E+00 0.29678282E+04</pdfrwt>
<pdfrwt beam="2">  1       -1 0.14151985E+00 0.29678282E+04</pdfrwt>
<totfact> 0.55770190E-01</totfact>
</mgrwt>
</event>
<event>
12    1  0.1618945E-009  0.3141795E+04  0.7818608E-02  0.8204360E-01
          2   -1    0    0  501    0  0.00000000000E+00  0.00000000000E+00  0.17654170240E+04  0.17654170240E+04  0.00000000000E+00 0. -1.
         -2   -1    0    0    0  501 -0.00000000000E+00 -0.00000000000E+00 -0.13978103942E+04  0.13978103942E+04  0.00000000000E+00 0.  1.
    9900016    2    1    2    0    0  0.21498699268E+03  0.20402116220E+03 -0.11188289284E+03  0.22228680618E+04  0.22001774012E+04 0.  0.
         24    2    3    3    0    0  0.26156775258E+03 -0.39277485462E+03  0.82652810012E+02  0.48511463792E+03  0.76255814951E+02 0.  0.
         23    2    3    3    0    0 -0.72342962255E+03 -0.96992371301E+02 -0.22085977372E+03  0.76813511391E+03  0.92166017098E+02 0.  0.
        -15    1    5    5    0    0 -0.65411159258E+03 -0.66468065719E+02 -0.17817721660E+03  0.68119534631E+03  0.00000000000E+00 0. -1.
        -15    1    4    4    0    0  0.55806669584E+02 -0.13620334493E+03  0.45884607867E+02  0.15417889862E+03  0.00000000000E+00 0.  1.
         15    1    3    3    0    0  0.67684886265E+03  0.69378838812E+03  0.26324070873E+02  0.96961830999E+03  0.00000000000E+00 0. -1.
         15    1    5    5    0    0 -0.69318029965E+02 -0.30524305582E+02 -0.42682557120E+02  0.86939767608E+02  0.00000000000E+00 0.  1.
        -16    1    1    2    0    0 -0.42874122002E+03 -0.78932130941E+02  0.53468103387E+02  0.43921310673E+03  0.00000000000E+00 0.  1.
         16    1    4    4    0    0  0.20576108300E+03 -0.25657150969E+03  0.36768202145E+02  0.33093573930E+03  0.00000000000E+00 0. -1.
    9900018    1    1    2    0    0  0.21375422734E+03 -0.12508903126E+03  0.42602141923E+03  0.50114624959E+03  0.91187600000E+02 0.  0.
<mgrwt>
<rscale>  0 0.31417946E+04</rscale>
<asrwt>0</asrwt>
<pdfrwt beam="1">  1        2 0.27160262E+00 0.31417946E+04</pdfrwt>
<pdfrwt beam="2">  1       -2 0.21504775E+00 0.31417946E+04</pdfrwt>
<totfact> 0.81106512E-01</totfact>
</mgrwt>
</event>
<event>
12    1  0.1618945E-009  0.2743031E+04  0.7818608E-02  0.8321176E-01
          1   -1    0    0  501    0  0.00000000000E+00  0.00000000000E+00  0.30294877784E+04  0.30294877784E+04  0.00000000000E+00 0. -1.
         -1   -1    0    0    0  501 -0.00000000000E+00 -0.00000000000E+00 -0.62091524119E+03  0.62091524119E+03  0.00000000000E+00 0.  1.
    9900016    2    1    2    0    0 -0.28150573451E+03  0.96281818899E+02  0.16864703778E+04  0.27860738113E+04  0.21976144520E+04 0.  0.
         24    2    3    3    0    0  0.54211874426E+02  0.81834939894E+01  0.40783705422E+03  0.41786714109E+03  0.72635995936E+02 0.  0.
         23    2    3    3    0    0 -0.19303636015E+03  0.34381940907E+03  0.17592883613E+04  0.18053741224E+04  0.93836885607E+02 0.  0.
        -15    1    5    5    0    0 -0.19000532550E+03  0.26508634803E+03  0.13852216095E+04  0.14230993300E+04  0.00000000000E+00 0.  1.
        -15    1    4    4    0    0 -0.11723882647E+02 -0.16613585442E+02  0.79610612568E+02  0.82166357343E+02  0.00000000000E+00 0.  1.
         15    1    3    3    0    0 -0.14268124878E+03 -0.25572108416E+03 -0.48065503771E+03  0.56283254785E+03  0.00000000000E+00 0. -1.
         15    1    5    5    0    0 -0.30310346514E+01  0.78733061035E+02  0.37406675184E+03  0.38227479240E+03  0.00000000000E+00 0. -1.
        -16    1    1    2    0    0  0.26223305625E+03  0.59929361343E+02  0.29025141201E+03  0.39573171002E+03  0.00000000000E+00 0.  1.
         16    1    4    4    0    0  0.65935757073E+02  0.24797079431E+02  0.32822644165E+03  0.33570078375E+03  0.00000000000E+00 0. -1.
    9900018    1    1    2    0    0  0.19272678251E+02 -0.15621118024E+03  0.43185074733E+03  0.46859749820E+03  0.91187600000E+02 0.  0.
<mgrwt>
<rscale>  0 0.27430313E+04</rscale>
<asrwt>0</asrwt>
<pdfrwt beam="1">  1        1 0.46607504E+00 0.27430313E+04</pdfrwt>
<pdfrwt beam="2">  1       -1 0.95525423E-01 0.27430313E+04</pdfrwt>
<totfact> 0.52300972E-01</totfact>
</mgrwt>
</event>
<event>
12    1  0.1816687E-009  0.3442685E+04  0.7818608E-02  0.8127509E-01
          2   -1    0    0  501    0  0.00000000000E+00  0.00000000000E+00  0.16662235246E+04  0.16662235246E+04  0.00000000000E+00 0. -1.
         -2   -1    0    0    0  501 -0.00000000000E+00 -0.00000000000E+00 -0.17782846633E+04  0.17782846633E+04  0.00000000000E+00 0.  1.
    9900016    2    1    2    0    0 -0.23927297811E+03 -0.77756110964E+03 -0.10667174437E+03  0.23499882290E+04  0.22020928632E+04 0.  0.
        -24    2    3    3    0    0 -0.11427429289E+03  0.34367340660E+03 -0.11916446052E+03  0.38934392873E+03  0.78857477568E+02 0.  0.
         23    2    3    3    0    0 -0.33608385345E+03 -0.65435170359E+02 -0.61809272134E+03  0.71288342534E+03  0.94498930576E+02 0.  0.
        -15    1    5    5    0    0 -0.21396153474E+03 -0.79682513106E+02 -0.45019251928E+03  0.50477930392E+03  0.00000000000E+00 0. -1.
        -15    1    3    3    0    0  0.21108516824E+03 -0.10557993459E+04  0.63058543748E+03  0.12477608749E+04  0.00000000000E+00 0.  1.
         15    1    5    5    0    0 -0.12212231871E+03  0.14247342746E+02 -0.16790020205E+03  0.20810412142E+03  0.00000000000E+00 0.  1.
         15    1    4    4    0    0 -0.45753862965E+02  0.23199058513E+03 -0.52017064195E+02  0.24211324320E+03  0.00000000000E+00 0. -1.
        -16    1    4    4    0    0 -0.68520429928E+02  0.11168282147E+03 -0.67147396320E+02  0.14723068553E+03  0.00000000000E+00 0.  1.
         16    1    1    2    0    0  0.24584785594E+03  0.17383064766E+03  0.28837606138E+03  0.41691607682E+03  0.00000000000E+00 0. -1.
    9900018    1    1    2    0    0 -0.65748778297E+01  0.60373046198E+03 -0.29376545568E+03  0.67760388213E+03  0.91187600000E+02 0.  0.
<mgrwt>
<rscale>  0 0.34426848E+04</rscale>
<asrwt>0</asrwt>
<pdfrwt beam="1">  1        2 0.25634208E+00 0.34426848E+04</pdfrwt>
<pdfrwt beam="2">  1       -2 0.27358226E+00 0.34426848E+04</pdfrwt>
<totfact> 0.38964479E-01</totfact>
</mgrwt>
</event>
<event>
12    1  0.1618945E-009  0.3498343E+04  0.7818608E-02  0.8114183E-01
         -1   -1    0    0    0  501 -0.00000000000E+00  0.00000000000E+00  0.26432230252E+04  0.26432230252E+04  0.00000000000E+00 0.  1.
          1   -1    0    0  501    0  0.00000000000E+00 -0.00000000000E+00 -0.11575265421E+04  0.11575265421E+04  0.00000000000E+00 0. -1.
    9900016    2    1    2    0    0 -0.36583216215E+03 -0.22290126898E+02  0.65529877043E+03  0.23087321564E+04  0.21832310163E+04 0.  0.
        -24    2    3    3    0    0  0.24736349054E+03  0.26721960970E-01  0.15474884675E+02  0.25978748601E+03  0.77854792188E+02 0.  0.
         23    2    3    3    0    0  0.56082574140E+03  0.10662976741E+03  0.64726852831E+03  0.86783972737E+03  0.91070440588E+02 0.  0.
        -15    1    3    3    0    0 -0.11740213941E+04 -0.12894661627E+03 -0.74446425497E+01  0.11811049430E+04  0.00000000000E+00 0.  1.
        -15    1    5    5    0    0  0.52236392786E+03  0.11665292168E+03  0.62269813311E+03  0.82111201565E+03  0.00000000000E+00 0. -1.
         15    1    4    4    0    0  0.90734558375E+02  0.27219909663E+02 -0.20205779972E+02  0.96860503354E+02  0.00000000000E+00 0. -1.
         15    1    5    5    0    0  0.38461813544E+02 -0.10023154269E+02  0.24570395195E+02  0.46727711720E+02  0.00000000000E+00 0.  1.
        -16    1    4    4    0    0  0.15662893216E+03 -0.27193187702E+02  0.35680664648E+02  0.16292698265E+03  0.00000000000E+00 0.  1.
         16    1    1    2    0    0  0.77100475976E+03  0.25864151470E+02  0.73576041106E+03  0.10660490966E+04  0.00000000000E+00 0. -1.
    9900018    1    1    2    0    0 -0.40517259762E+03 -0.35740245714E+01  0.94637301641E+02  0.42596831427E+03  0.91187600000E+02 0.  0.
<mgrwt>
<rscale>  0 0.34983429E+04</rscale>
<asrwt>0</asrwt>
<pdfrwt beam="1">  1        1 0.17808101E+00 0.34983429E+04</pdfrwt>
<pdfrwt beam="2">  1       -1 0.40664970E+00 0.34983429E+04</pdfrwt>
<totfact> 0.60304140E-02</totfact>
</mgrwt>
</event>
<event>
12    1  0.1618945E-009  0.4111350E+04  0.7818608E-02  0.7982453E-01
         -2   -1    0    0    0  501 -0.00000000000E+00  0.00000000000E+00  0.20012718503E+04  0.20012718503E+04  0.00000000000E+00 0.  1.
          2   -1    0    0  501    0  0.00000000000E+00 -0.00000000000E+00 -0.21115568218E+04  0.21115568218E+04  0.00000000000E+00 0. -1.
    9900016    2    1    2    0    0 -0.61370381717E+01 -0.10134042149E+04  0.55965488136E+03  0.24743776201E+04  0.21868482468E+04 0.  0.
        -24    2    3    3    0    0  0.25949022158E+03  0.57799269278E+03  0.12740624215E+03  0.65117394626E+03  0.79902626682E+02 0.  0.
         23    2    3    3    0    0  0.70438908179E+02 -0.21897794244E+03 -0.15589870466E+03  0.29271630583E+03  0.92007882955E+02 0.  0.
        -15    1    3    3    0    0 -0.33606616793E+03 -0.13724189653E+04  0.58814734387E+03  0.15304873680E+04  0.00000000000E+00 0.  1.
        -15    1    5    5    0    0  0.23842404651E+02 -0.17648959308E+03 -0.14288772815E+03  0.22832857810E+03  0.00000000000E+00 0. -1.
         15    1    5    5    0    0  0.46596503528E+02 -0.42488349361E+02 -0.13010976519E+02  0.64387727732E+02  0.00000000000E+00 0.  1.
         15    1    4    4    0    0  0.21018298269E+03  0.51107432620E+03  0.13119168708E+03  0.56796576646E+03  0.00000000000E+00 0. -1.
        -16    1    4    4    0    0  0.49307238887E+02  0.66918366574E+02 -0.37854449284E+01  0.83208179796E+02  0.00000000000E+00 0.  1.
         16    1    1    2    0    0 -0.89338491111E+02  0.11511936621E+04 -0.80245994046E+03  0.14061188320E+04  0.00000000000E+00 0. -1.
    9900018    1    1    2    0    0  0.95475529283E+02 -0.13778944722E+03  0.13252008754E+03  0.23233222000E+03  0.91187600000E+02 0.  0.
<mgrwt>
<rscale>  0 0.41113498E+04</rscale>
<asrwt>0</asrwt>
<pdfrwt beam="1">  1        2 0.32485490E+00 0.41113498E+04</pdfrwt>
<pdfrwt beam="2">  1       -2 0.30788798E+00 0.41113498E+04</pdfrwt>
<totfact> 0.12868922E-01</totfact>
</mgrwt>
</event>
<event>
12    1  0.1618945E-009  0.3032734E+04  0.7818608E-02  0.8234445E-01
         -1   -1    0    0    0  501 -0.00000000000E+00  0.00000000000E+00  0.86775021572E+03  0.86775021572E+03  0.00000000000E+00 0.  1.
          1   -1    0    0  501    0  0.00000000000E+00 -0.00000000000E+00 -0.26498046080E+04  0.26498046080E+04  0.00000000000E+00 0. -1.
    9900016    2    1    2    0    0 -0.30065840394E+03  0.22896659728E+03 -0.17273836860E+04  0.28157842027E+04  0.21913386546E+04 0.  0.
         24    2    3    3    0    0  0.21406027542E+03 -0.49863832931E+03 -0.31731132562E+03  0.63328092334E+03  0.76787144293E+02 0.  0.
         23    2    3    3    0    0 -0.29328165888E+03 -0.29007008088E+03 -0.95837055620E+03  0.10472802639E+04  0.90371704636E+02 0.  0.
        -15    1    4    4    0    0  0.15283275202E+03 -0.42787036716E+03 -0.25799219995E+03  0.52248528823E+03  0.00000000000E+00 0.  1.
        -15    1    5    5    0    0 -0.25078940014E+03 -0.19377580571E+03 -0.70951197401E+03  0.77707890678E+03  0.00000000000E+00 0.  1.
         15    1    3    3    0    0 -0.22143702048E+03  0.10176750075E+04 -0.45170180420E+03  0.11352230154E+04  0.00000000000E+00 0. -1.
         15    1    5    5    0    0 -0.42492258744E+02 -0.96294275168E+02 -0.24885858219E+03  0.27020135717E+03  0.00000000000E+00 0. -1.
        -16    1    1    2    0    0  0.29623388656E+03 -0.36764269862E+03  0.91078287336E+02  0.48084397035E+03  0.00000000000E+00 0.  1.
         16    1    4    4    0    0  0.61227523401E+02 -0.70767962150E+02 -0.59319125667E+02  0.11079563511E+03  0.00000000000E+00 0. -1.
    9900018    1    1    2    0    0  0.44245173756E+01  0.13867610134E+03 -0.14574899359E+03  0.22092665064E+03  0.91187600000E+02 0.  0.
<mgrwt>
<rscale>  0 0.30327338E+04</rscale>
<asrwt>0</asrwt>
<pdfrwt beam="1">  1        1 0.40766225E+00 0.30327338E+04</pdfrwt>
<pdfrwt beam="2">  1       -1 0.13350003E+00 0.30327338E+04</pdfrwt>
<totfact> 0.42808168E-01</totfact>
</mgrwt>
</event>
<event>
12    1  0.1618945E-009  0.2520275E+04  0.7818608E-02  0.8395798E-01
         -1   -1    0    0    0  501 -0.00000000000E+00  0.00000000000E+00  0.75275055815E+03  0.75275055815E+03  0.00000000000E+00 0.  1.
          1   -1    0    0  501    0  0.00000000000E+00 -0.00000000000E+00 -0.21095252208E+04  0.21095252208E+04  0.00000000000E+00 0. -1.
    9900016    2    1    2    0    0  0.40095242277E+02 -0.44898394380E+01 -0.12743768844E+04  0.25172725497E+04  0.21704830935E+04 0.  0.
         24    2    3    3    0    0  0.93514670207E+03 -0.33828431099E+03 -0.27698512331E+03  0.10353350814E+04  0.79134965203E+02 0.  0.
         23    2    3    3    0    0 -0.98362732193E+02  0.16959086752E+03 -0.45609254978E+03  0.50485989292E+03  0.91797647481E+02 0.  0.
        -15    1    5    5    0    0 -0.50835171594E+01  0.81118683992E+02 -0.24029799321E+03  0.25367145795E+03  0.00000000000E+00 0. -1.
        -15    1    4    4    0    0  0.86120892119E+03 -0.33238006219E+03 -0.26297265514E+03  0.95984995131E+03  0.00000000000E+00 0.  1.
         15    1    3    3    0    0 -0.79668872760E+03  0.16420360403E+03 -0.54129921131E+03  0.97707757543E+03  0.00000000000E+00 0. -1.
         15    1    5    5    0    0 -0.93279215034E+02  0.88472183531E+02 -0.21579455657E+03  0.25118843497E+03  0.00000000000E+00 0.  1.
        -16    1    1    2    0    0  0.44824374726E+02  0.30979220562E+02  0.10506438634E+03  0.11835312397E+03  0.00000000000E+00 0.  1.
         16    1    4    4    0    0  0.73937780880E+02 -0.59042487986E+01 -0.14012468175E+02  0.75485130057E+02  0.00000000000E+00 0. -1.
    9900018    1    1    2    0    0 -0.84919617004E+02 -0.26489381124E+02 -0.18746216460E+03  0.22665010526E+03  0.91187600000E+02 0.  0.
<mgrwt>
<rscale>  0 0.25202748E+04</rscale>
<asrwt>0</asrwt>
<pdfrwt beam="1">  1        1 0.32454234E+00 0.25202748E+04</pdfrwt>
<pdfrwt beam="2">  1       -1 0.11580778E+00 0.25202748E+04</pdfrwt>
<totfact> 0.15024975E+00</totfact>
</mgrwt>
</event>
<event>
12    1  0.1618945E-009  0.3690411E+04  0.7818608E-02  0.8070090E-01
          2   -1    0    0  501    0  0.00000000000E+00  0.00000000000E+00  0.23680536336E+04  0.23680536336E+04  0.00000000000E+00 0. -1.
         -2   -1    0    0    0  501 -0.00000000000E+00 -0.00000000000E+00 -0.14377985364E+04  0.14377985364E+04  0.00000000000E+00 0.  1.
    9900016    2    1    2    0    0 -0.42489683945E+03 -0.25683296326E+03  0.27656264891E+03  0.22703029570E+04  0.21980191361E+04 0.  0.
        -24    2    3    3    0    0 -0.11367639676E+04  0.21548685703E+03  0.38669380602E+03  0.12226009211E+04  0.80956835467E+02 0.  0.
         23    2    3    3    0    0 -0.73097151465E+02 -0.24286401961E+02  0.48718259425E+02  0.13002235256E+03  0.92732521225E+02 0.  0.
        -15    1    5    5    0    0 -0.95260849309E+02 -0.24481836145E+02  0.38643030506E+02  0.10567532124E+03  0.00000000000E+00 0. -1.
        -15    1    3    3    0    0  0.78496427956E+03 -0.44803341833E+03 -0.15884941653E+03  0.91767968336E+03  0.00000000000E+00 0.  1.
         15    1    5    5    0    0  0.22163697844E+02  0.19543418456E+00  0.10075228919E+02  0.24347031327E+02  0.00000000000E+00 0.  1.
         15    1    4    4    0    0 -0.85200156619E+02  0.91157460703E+01  0.81048520193E+01  0.86068880210E+02  0.00000000000E+00 0. -1.
        -16    1    4    4    0    0 -0.10515638109E+04  0.20637111096E+03  0.37858895400E+03  0.11365320409E+04  0.00000000000E+00 0.  1.
         16    1    1    2    0    0 -0.53382884862E+02 -0.25790585413E+03  0.77336217393E+03  0.81697871090E+03  0.00000000000E+00 0. -1.
    9900018    1    1    2    0    0  0.47827972431E+03  0.51473881739E+03 -0.11966972570E+03  0.71857050209E+03  0.91187600000E+02 0.  0.
<mgrwt>
<rscale>  0 0.36904114E+04</rscale>
<asrwt>0</asrwt>
<pdfrwt beam="1">  1        2 0.36431594E+00 0.36904114E+04</pdfrwt>
<pdfrwt beam="2">  1       -2 0.22119978E+00 0.36904114E+04</pdfrwt>
<totfact> 0.32580858E-01</totfact>
</mgrwt>
</event>
<event>
12    1  0.1618945E-009  0.3638622E+04  0.7818608E-02  0.8081702E-01
         -2   -1    0    0    0  501 -0.00000000000E+00  0.00000000000E+00  0.17014706594E+04  0.17014706594E+04  0.00000000000E+00 0.  1.
          2   -1    0    0  501    0  0.00000000000E+00 -0.00000000000E+00 -0.19453129993E+04  0.19453129993E+04  0.00000000000E+00 0. -1.
    9900016    2    1    2    0    0 -0.38454567357E+03 -0.42290126093E+03 -0.57066792193E+03  0.23433788050E+04  0.21997821472E+04 0.  0.
         24    2    3    3    0    0  0.20506465923E+03 -0.46531598651E+03 -0.73837742879E+03  0.90019087288E+03  0.81067246775E+02 0.  0.
         23    2    3    3    0    0  0.16748291769E+03 -0.14975881851E+03  0.52940279427E+03  0.58240753324E+03  0.91940115046E+02 0.  0.
        -15    1    5    5    0    0  0.10855656964E+03 -0.10962154851E+03  0.44990541509E+03  0.47562200878E+03  0.00000000000E+00 0.  1.
        -15    1    4    4    0    0  0.10478792070E+03 -0.16581667368E+03 -0.33047259139E+03  0.38430171904E+03  0.00000000000E+00 0.  1.
         15    1    3    3    0    0 -0.75709325049E+03  0.19217354409E+03 -0.36169328741E+03  0.86078039891E+03  0.00000000000E+00 0. -1.
         15    1    5    5    0    0  0.58926348054E+02 -0.40137269995E+02  0.79497379183E+02  0.10678552446E+03  0.00000000000E+00 0. -1.
        -16    1    1    2    0    0 -0.21564729548E+03  0.37352656749E+03  0.50947259305E+03  0.66752391398E+03  0.00000000000E+00 0.  1.
         16    1    4    4    0    0  0.10027673853E+03 -0.29949931283E+03 -0.40790483740E+03  0.51588915384E+03  0.00000000000E+00 0. -1.
    9900018    1    1    2    0    0  0.60019296906E+03  0.49374693441E+02 -0.18264701097E+03  0.63588093970E+03  0.91187600000E+02 0.  0.
<mgrwt>
<rscale>  0 0.36386223E+04</rscale>
<asrwt>0</asrwt>
<pdfrwt beam="1">  1        2 0.29927892E+00 0.36386223E+04</pdfrwt>
<pdfrwt beam="2">  1       -2 0.26176472E+00 0.36386223E+04</pdfrwt>
<totfact> 0.31686917E-01</totfact>
</mgrwt>
</event>
<event>
12    1  0.1618945E-009  0.3103081E+04  0.7818608E-02  0.8214893E-01
          2   -1    0    0  501    0  0.00000000000E+00  0.00000000000E+00  0.22554747510E+04  0.22554747510E+04  0.00000000000E+00 0. -1.
         -2   -1    0    0    0  501 -0.00000000000E+00 -0.00000000000E+00 -0.10673041652E+04  0.10673041652E+04  0.00000000000E+00 0.  1.
    9900016    2    1    2    0    0  0.39103957973E+03 -0.44938606689E+03  0.13258986550E+04  0.26343858798E+04  0.21970712165E+04 0.  0.
         24    2    3    3    0    0  0.96532771070E+03 -0.96510475207E+03  0.79211899915E+03  0.15805728444E+04  0.86447880728E+02 0.  0.
         23    2    3    3    0    0 -0.31552027076E+02  0.28729804371E+03  0.95137132811E+02  0.31954759913E+03  0.97590459261E+02 0.  0.
        -15    1    4    4    0    0  0.42032626729E+03 -0.36346740978E+03  0.30593492193E+03  0.63433343393E+03  0.00000000000E+00 0.  1.
        -15    1    5    5    0    0 -0.43271206194E+02  0.21819888985E+03  0.10960389229E+03  0.24798420518E+03  0.00000000000E+00 0.  1.
         15    1    3    3    0    0 -0.54273610390E+03  0.22842064147E+03  0.43864252306E+03  0.73426543631E+03  0.00000000000E+00 0. -1.
         15    1    5    5    0    0  0.11719179118E+02  0.69099153863E+02 -0.14466759474E+02  0.71563393948E+02  0.00000000000E+00 0. -1.
        -16    1    1    2    0    0 -0.40910462403E+03  0.35065150425E+03 -0.10672519767E+03  0.54928438778E+03  0.00000000000E+00 0.  1.
         16    1    4    4    0    0  0.54500144342E+03 -0.60163734229E+03  0.48618407722E+03  0.94623941046E+03  0.00000000000E+00 0. -1.
    9900018    1    1    2    0    0  0.18065044299E+02  0.98734562634E+02 -0.31002871583E+02  0.13910864863E+03  0.91187600000E+02 0.  0.
<mgrwt>
<rscale>  0 0.31030808E+04</rscale>
<asrwt>0</asrwt>
<pdfrwt beam="1">  1        2 0.34699612E+00 0.31030808E+04</pdfrwt>
<pdfrwt beam="2">  1       -2 0.16420064E+00 0.31030808E+04</pdfrwt>
<totfact> 0.95687308E-01</totfact>
</mgrwt>
</event>
<event>
12    1  0.1618945E-009  0.3049683E+04  0.7818608E-02  0.8229684E-01
          2   -1    0    0  501    0  0.00000000000E+00  0.00000000000E+00  0.30841407157E+04  0.30841407157E+04  0.00000000000E+00 0.  1.
         -2   -1    0    0    0  501 -0.00000000000E+00 -0.00000000000E+00 -0.75390280845E+03  0.75390280845E+03  0.00000000000E+00 0. -1.
    9900016    2    1    2    0    0  0.41180728822E+03 -0.47504881119E+03  0.16767234601E+04  0.28340658097E+04  0.21966499121E+04 0.  0.
        -24    2    3    3    0    0 -0.13947227801E+01  0.45629499610E+03  0.38454319129E+03  0.60213591785E+03  0.80542714632E+02 0.  0.
         23    2    3    3    0    0  0.26130183694E+03 -0.32809793081E+03  0.15124444138E+04  0.15720090299E+04  0.88302792488E+02 0.  0.
        -15    1    5    5    0    0  0.20556110520E+03 -0.20376193982E+03  0.11103680649E+04  0.11474718017E+04  0.00000000000E+00 0. -1.
        -15    1    3    3    0    0  0.15190017407E+03 -0.60324587648E+03 -0.22026414502E+03  0.65992086189E+03  0.00000000000E+00 0.  1.
         15    1    4    4    0    0  0.36248213565E+02  0.14423056406E+03  0.13385747218E+03  0.20008551035E+03  0.00000000000E+00 0. -1.
         15    1    5    5    0    0  0.55740731735E+02 -0.12433599099E+03  0.40207634887E+03  0.42453722823E+03  0.00000000000E+00 0.  1.
        -16    1    4    4    0    0 -0.37642936345E+02  0.31206443204E+03  0.25068571912E+03  0.40205040750E+03  0.00000000000E+00 0.  1.
         16    1    1    2    0    0 -0.24230873468E+03  0.27122101898E+03  0.90128085545E+02  0.37469645828E+03  0.00000000000E+00 0. -1.
    9900018    1    1    2    0    0 -0.16949855354E+03  0.20382779221E+03  0.56338636161E+03  0.62928125617E+03  0.91187600000E+02 0.  0.
<mgrwt>
<rscale>  0 0.30496835E+04</rscale>
<asrwt>0</asrwt>
<pdfrwt beam="1">  1        2 0.47448318E+00 0.30496835E+04</pdfrwt>
<pdfrwt beam="2">  1       -2 0.11598505E+00 0.30496835E+04</pdfrwt>
<totfact> 0.75781689E-01</totfact>
</mgrwt>
</event>
<event>
12    1  0.1618945E-009  0.3315889E+04  0.7818608E-02  0.8158864E-01
          1   -1    0    0  501    0  0.00000000000E+00  0.00000000000E+00  0.23978336435E+04  0.23978336435E+04  0.00000000000E+00 0. -1.
         -1   -1    0    0    0  501 -0.00000000000E+00 -0.00000000000E+00 -0.11463600342E+04  0.11463600342E+04  0.00000000000E+00 0.  1.
    9900016    2    1    2    0    0  0.50873759972E+03 -0.30887386408E+03  0.58491470194E+03  0.23512202603E+04  0.21981570677E+04 0.  0.
         24    2    3    3    0    0  0.27123856474E+03 -0.95496006713E+03  0.52580016317E+03  0.11262851311E+04  0.80828807917E+02 0.  0.
         23    2    3    3    0    0  0.32856161635E+02  0.35963076646E+03  0.52318743538E+03  0.64244128700E+03  0.92692497876E+02 0.  0.
        -15    1    5    5    0    0  0.70734043277E+01  0.71532881700E+02  0.17874551241E+03  0.19265758334E+03  0.00000000000E+00 0. -1.
        -15    1    4    4    0    0  0.12805517345E+03 -0.38109024904E+03  0.17367705637E+03  0.43794020742E+03  0.00000000000E+00 0.  1.
         15    1    5    5    0    0  0.25782757307E+02  0.28809788476E+03  0.34444192298E+03  0.44978370366E+03  0.00000000000E+00 0.  1.
         15    1    3    3    0    0  0.20464287335E+03  0.28645543659E+03 -0.46407289661E+03  0.58249384214E+03  0.00000000000E+00 0. -1.
        -16    1    1    2    0    0  0.12756713668E+01  0.31858235839E+02 -0.16875522421E+03  0.17174079372E+03  0.00000000000E+00 0.  1.
         16    1    4    4    0    0  0.14318339129E+03 -0.57386981809E+03  0.35212310680E+03  0.68834492371E+03  0.00000000000E+00 0. -1.
    9900018    1    1    2    0    0 -0.51001327109E+03  0.27701562824E+03  0.83531413158E+03  0.10212326237E+04  0.91187600000E+02 0.  0.
<mgrwt>
<rscale>  0 0.33158894E+04</rscale>
<asrwt>0</asrwt>
<pdfrwt beam="1">  1        1 0.36889748E+00 0.33158894E+04</pdfrwt>
<pdfrwt beam="2">  1       -1 0.17636308E+00 0.33158894E+04</pdfrwt>
<totfact> 0.29196077E-01</totfact>
</mgrwt>
</event>
