<event>
11    1  0.1909592E-014  0.3895591E+04  0.7818608E-02  0.8116717E-01
         -2   -1    0    0    0  501 -0.00000000000E+00  0.00000000000E+00  0.30697037303E+04  0.30697037303E+04  0.00000000000E+00 0.  1.
          2   -1    0    0  501    0  0.00000000000E+00 -0.00000000000E+00 -0.33634565903E+04  0.33634565903E+04  0.00000000000E+00 0. -1.
    9900016    2    1    2    0    0 -0.35595542542E+03  0.22633809634E+02 -0.11942040763E+02  0.20055499682E+04  0.19735428823E+04 0.  0.
        -24    2    3    3    0    0  0.38319650850E+03  0.80790450730E+03  0.16473459286E+03  0.91275068062E+03  0.80168958166E+02 0.  0.
        -15    1    3    3    0    0 -0.73915193392E+03 -0.78527069766E+03 -0.17667663362E+03  0.10927992876E+04  0.00000000000E+00 0.  1.
        -15    1    1    2    0    0 -0.76224327724E+03  0.16379222484E+04  0.21889750428E+03  0.18198132385E+04  0.00000000000E+00 0.  1.
         15    1    1    2    0    0 -0.11708880589E+03 -0.32489777497E+03 -0.62728547687E+03  0.71606942550E+03  0.00000000000E+00 0. -1.
         15    1    4    4    0    0  0.33201366228E+03  0.72053858243E+03  0.12129663944E+03  0.80257198771E+03  0.00000000000E+00 0. -1.
        -16    1    4    4    0    0  0.51182846214E+02  0.87365924863E+02  0.43437953425E+02  0.11017869291E+03  0.00000000000E+00 0.  1.
         16    1    1    2    0    0  0.12154797367E+04 -0.13114761786E+04  0.96380432262E+02  0.17907121335E+04  0.00000000000E+00 0. -1.
    9900018    1    1    2    0    0  0.19807771857E+02 -0.24182104465E+02  0.30196721095E+02  0.10101555504E+03  0.91187600000E+02 0.  0.
<mgrwt>
<rscale>  0 0.34876735E+04</rscale>
<asrwt>0</asrwt>
<pdfrwt beam="1">  1        2 0.51745486E+00 0.38955913E+04</pdfrwt>
<pdfrwt beam="2">  1       -2 0.47226211E+00 0.38955913E+04</pdfrwt>
<totfact> 0.18492573E-03</totfact>
</mgrwt>
</event>
<event>
11    1  0.1909592E-014  0.2994637E+04  0.7818608E-02  0.8838184E-01
          1   -1    0    0  501    0  0.00000000000E+00  0.00000000000E+00  0.13209542038E+04  0.13209542038E+04  0.00000000000E+00 0. -1.
         -1   -1    0    0    0  501 -0.00000000000E+00 -0.00000000000E+00 -0.22761798225E+04  0.22761798225E+04  0.00000000000E+00 0.  1.
    9900016    2    1    2    0    0  0.21296642470E+03  0.25783224266E+03 -0.17577049673E+03  0.20168067069E+04  0.19811062218E+04 0.  0.
         24    2    3    3    0    0 -0.45451835208E+02  0.78298685198E+02 -0.10657933525E+04  0.10727977137E+04  0.82358429376E+02 0.  0.
        -15    1    4    4    0    0 -0.13990767505E+02  0.68039156004E+02 -0.38606064225E+03  0.39225997479E+03  0.00000000000E+00 0.  1.
        -15    1    1    2    0    0  0.10380869161E+03  0.65273184810E+00  0.56922088955E+02  0.11839254505E+03  0.00000000000E+00 0.  1.
         15    1    3    3    0    0  0.25841825991E+03  0.17953355746E+03  0.89002285580E+03  0.94400899315E+03  0.00000000000E+00 0. -1.
         15    1    1    2    0    0 -0.94041397912E+02  0.14409257761E+02  0.22064362578E+03  0.24028112874E+03  0.00000000000E+00 0. -1.
        -16    1    1    2    0    0 -0.25395895196E+03 -0.25087670226E+03 -0.10642463752E+04  0.11225215437E+04  0.00000000000E+00 0.  1.
         16    1    4    4    0    0 -0.31461067703E+02  0.10259529193E+02 -0.67973271028E+03  0.68053773895E+03  0.00000000000E+00 0. -1.
    9900018    1    1    2    0    0  0.31225233562E+02 -0.22017530006E+02  0.72255384665E+01  0.99132101957E+02  0.91187600000E+02 0.  0.
<mgrwt>
<rscale>  0 0.15716059E+04</rscale>
<asrwt>0</asrwt>
<pdfrwt beam="1">  1        1 0.20322373E+00 0.29946370E+04</pdfrwt>
<pdfrwt beam="2">  1       -1 0.35018151E+00 0.29946370E+04</pdfrwt>
<totfact> 0.11355348E-01</totfact>
</mgrwt>
</event>
<event>
11    1  0.1909592E-014  0.3620135E+04  0.7818608E-02  0.8283696E-01
         -1   -1    0    0    0  501 -0.00000000000E+00  0.00000000000E+00  0.25143848227E+04  0.25143848227E+04  0.00000000000E+00 0.  1.
          1   -1    0    0  501    0  0.00000000000E+00 -0.00000000000E+00 -0.34340333641E+04  0.34340333641E+04  0.00000000000E+00 0. -1.
    9900016    2    1    2    0    0 -0.57165854867E+03 -0.17512213886E+03 -0.33087164786E+03  0.21908251230E+04  0.20815324673E+04 0.  0.
         24    2    3    3    0    0 -0.12831810537E+04 -0.21499878561E+03 -0.40116372536E+03  0.13637291357E+04  0.77760701358E+02 0.  0.
        -15    1    1    2    0    0  0.44646097153E+01  0.43555454476E+03 -0.49740813302E+02  0.43840830593E+03  0.00000000000E+00 0.  1.
        -15    1    4    4    0    0 -0.66634162495E+03 -0.10536633038E+03 -0.16784077558E+03  0.69518612664E+03  0.00000000000E+00 0.  1.
         15    1    3    3    0    0  0.71182313977E+03  0.85279691707E+02  0.29969479023E+02  0.71753953048E+03  0.00000000000E+00 0. -1.
         15    1    1    2    0    0 -0.40563605041E+03 -0.49550483340E+03 -0.16821136574E+04  0.17998811076E+04  0.00000000000E+00 0. -1.
        -16    1    1    2    0    0  0.97282998937E+03  0.23507242749E+03  0.11430775771E+04  0.15193036503E+04  0.00000000000E+00 0.  1.
         16    1    4    4    0    0 -0.61683942877E+03 -0.10963245523E+03 -0.23332294979E+03  0.66854300911E+03  0.00000000000E+00 0. -1.
    9900018    1    3    3    0    0 -0.30063471684E+00 -0.45403044951E+02  0.40322598482E+02  0.10955645674E+03  0.91187600000E+02 0.  0.
<mgrwt>
<rscale>  0 0.28639129E+04</rscale>
<asrwt>0</asrwt>
<pdfrwt beam="1">  1        1 0.52831282E+00 0.36201349E+04</pdfrwt>
<pdfrwt beam="2">  1       -1 0.38682843E+00 0.36201349E+04</pdfrwt>
<totfact> 0.18769303E-03</totfact>
</mgrwt>
</event>
<event>
11    1  0.1909592E-014  0.4110159E+04  0.7818608E-02  0.8174291E-01
          1   -1    0    0  501    0  0.00000000000E+00  0.00000000000E+00  0.28984619868E+04  0.28984619868E+04  0.00000000000E+00 0. -1.
         -1   -1    0    0    0  501 -0.00000000000E+00 -0.00000000000E+00 -0.41976267061E+04  0.41976267061E+04  0.00000000000E+00 0.  1.
    9900016    2    1    2    0    0  0.11932352422E+03 -0.80968296406E+03 -0.34028041534E+03  0.21666693908E+04  0.19770788760E+04 0.  0.
        -24    2    3    3    0    0  0.44001400138E+03 -0.15551140529E+03  0.73101151594E+03  0.87111961847E+03  0.81703333228E+02 0.  0.
        -15    1    1    2    0    0 -0.51563896382E+03 -0.84651403145E+03 -0.23413437251E+04  0.25425105674E+04  0.00000000000E+00 0.  1.
        -15    1    3    3    0    0 -0.32069047716E+03 -0.65417155877E+03 -0.10712919313E+04  0.12955497723E+04  0.00000000000E+00 0.  1.
         15    1    1    2    0    0  0.19888302968E+02  0.31028337974E+03 -0.92805488456E+01  0.31105859404E+03  0.00000000000E+00 0. -1.
         15    1    4    4    0    0  0.18829598749E+03 -0.93428841506E+02  0.38639027678E+03  0.43986563098E+03  0.00000000000E+00 0. -1.
        -16    1    4    4    0    0  0.25171801389E+03 -0.62082563782E+02  0.34462123916E+03  0.43125398748E+03  0.00000000000E+00 0.  1.
         16    1    1    2    0    0  0.34303483218E+03  0.13508961132E+04  0.14034087722E+04  0.19779154144E+04  0.00000000000E+00 0. -1.
    9900018    1    1    2    0    0  0.33392304457E+02 -0.49824974489E+01 -0.11668802294E+02  0.97934726316E+02  0.91187600000E+02 0.  0.
<mgrwt>
<rscale>  0 0.32555785E+04</rscale>
<asrwt>0</asrwt>
<pdfrwt beam="1">  1        1 0.44591723E+00 0.41101587E+04</pdfrwt>
<pdfrwt beam="2">  1       -1 0.64578873E+00 0.41101587E+04</pdfrwt>
<totfact> 0.15411896E-04</totfact>
</mgrwt>
</event>
<event>
11    1  0.1909592E-014  0.5104531E+04  0.7818608E-02  0.7812582E-01
         -2   -1    0    0    0  501 -0.00000000000E+00  0.00000000000E+00  0.17390543363E+04  0.17390543363E+04  0.00000000000E+00 0. -1.
          2   -1    0    0  501    0  0.00000000000E+00 -0.00000000000E+00 -0.37457480327E+04  0.37457480327E+04  0.00000000000E+00 0.  1.
    9900016    2    1    2    0    0  0.96297363446E+03  0.22105797203E+01 -0.16762935275E+04  0.27669482404E+04  0.19795755776E+04 0.  0.
         24    2    3    3    0    0  0.16104308023E+03  0.82398034669E+03 -0.14889082918E+03  0.85609576924E+03  0.76504912730E+02 0.  0.
        -15    1    4    4    0    0  0.92990619938E+02  0.63778721021E+03 -0.10450931849E+03  0.65294867988E+03  0.00000000000E+00 0.  1.
        -15    1    1    2    0    0 -0.65131046141E+03  0.19729464673E+03 -0.17534898240E+03  0.70276437047E+03  0.00000000000E+00 0.  1.
         15    1    3    3    0    0  0.80193055423E+03 -0.82176976697E+03 -0.15274026983E+04  0.19108524711E+04  0.00000000000E+00 0. -1.
         15    1    1    2    0    0 -0.82325241554E+03 -0.22622620265E+03  0.60967110729E+03  0.10491051871E+04  0.00000000000E+00 0. -1.
        -16    1    1    2    0    0  0.48571324044E+03  0.30965361272E+02 -0.69397003018E+03  0.84762645565E+03  0.00000000000E+00 0.  1.
         16    1    4    4    0    0  0.68052460291E+02  0.18619313648E+03 -0.44381510692E+02  0.20314708936E+03  0.00000000000E+00 0. -1.
    9900018    1    1    2    0    0  0.25876002044E+02 -0.42443850790E+01 -0.70752263716E+02  0.11835811549E+03  0.91187600000E+02 0.  0.
<mgrwt>
<rscale>  0 0.51045311E+04</rscale>
<asrwt>0</asrwt>
<pdfrwt beam="1">  1        2 0.57626893E+00 0.51045311E+04</pdfrwt>
<pdfrwt beam="2">  1       -2 0.26754682E+00 0.51045311E+04</pdfrwt>
<totfact> 0.19487620E-02</totfact>
</mgrwt>
</event>
<event>
11    1  0.1909592E-014  0.3510982E+04  0.7818608E-02  0.8201386E-01
         -1   -1    0    0    0  501 -0.00000000000E+00  0.00000000000E+00  0.29323389600E+04  0.29323389600E+04  0.00000000000E+00 0.  1.
          1   -1    0    0  501    0  0.00000000000E+00 -0.00000000000E+00 -0.31604304418E+04  0.31604304418E+04  0.00000000000E+00 0. -1.
    9900016    2    1    2    0    0  0.47300358808E+02  0.28860366938E+03 -0.37018262853E+03  0.21254799292E+04  0.20724623879E+04 0.  0.
        -24    2    3    3    0    0  0.26233456594E+03  0.46281782336E+03  0.72330679926E+03  0.90129420840E+03  0.78350252872E+02 0.  0.
        -15    1    1    2    0    0 -0.72384367248E+03  0.12656588768E+04  0.93345542328E+03  0.17312368647E+04  0.00000000000E+00 0.  1.
        -15    1    3    3    0    0 -0.17570562934E+03 -0.20320541966E+03 -0.10879066021E+04  0.11205827438E+04  0.00000000000E+00 0.  1.
         15    1    1    2    0    0 -0.32603536841E+03 -0.60536448663E+03 -0.10893185226E+03  0.69615470376E+03  0.00000000000E+00 0. -1.
         15    1    4    4    0    0  0.11763769713E+03  0.13949175874E+03  0.27283112478E+03  0.32822766671E+03  0.00000000000E+00 0. -1.
        -16    1    4    4    0    0  0.14469686881E+03  0.32332606462E+03  0.45047567448E+03  0.57306654169E+03  0.00000000000E+00 0.  1.
         16    1    1    2    0    0  0.10025786821E+04 -0.94889805951E+03 -0.68243242431E+03  0.15398979040E+04  0.00000000000E+00 0. -1.
    9900018    1    3    3    0    0 -0.39328577790E+02  0.28991265679E+02 -0.55828256853E+01  0.10360297705E+03  0.91187600000E+02 0.  0.
<mgrwt>
<rscale>  0 0.31528339E+04</rscale>
<asrwt>0</asrwt>
<pdfrwt beam="1">  1        1 0.48622007E+00 0.35109822E+04</pdfrwt>
<pdfrwt beam="2">  1       -1 0.45112907E+00 0.35109822E+04</pdfrwt>
<totfact> 0.11004008E-03</totfact>
</mgrwt>
</event>
<event>
11    1  0.1909592E-014  0.3715343E+04  0.7818608E-02  0.8195999E-01
          1   -1    0    0  501    0  0.00000000000E+00  0.00000000000E+00  0.34948748226E+04  0.34948748226E+04  0.00000000000E+00 0. -1.
         -1   -1    0    0    0  501 -0.00000000000E+00 -0.00000000000E+00 -0.30530944147E+04  0.30530944147E+04  0.00000000000E+00 0.  1.
    9900016    2    1    2    0    0 -0.49364760367E+03 -0.62053812234E+03 -0.33002940376E+02  0.21273348610E+04  0.19737550250E+04 0.  0.
         24    2    3    3    0    0 -0.15992834338E+03  0.53800591414E+03 -0.57279453594E+03  0.80636256911E+03  0.84258968607E+02 0.  0.
        -15    1    1    2    0    0  0.50665744068E+03  0.16459533435E+03 -0.22574649325E+03  0.57858004243E+03  0.00000000000E+00 0.  1.
        -15    1    4    4    0    0 -0.32442185942E+02  0.31746269612E+02 -0.50155490412E+02  0.67645356688E+02  0.00000000000E+00 0.  1.
         15    1    3    3    0    0 -0.33371926029E+03 -0.11585440365E+04  0.53979159557E+03  0.13209722918E+04  0.00000000000E+00 0. -1.
         15    1    1    2    0    0  0.51209545931E+02 -0.61643695978E+03  0.19446622840E+04  0.20406686017E+04  0.00000000000E+00 0. -1.
        -16    1    1    2    0    0 -0.82175316836E+02  0.11433668284E+04 -0.12335666279E+04  0.16839617313E+04  0.00000000000E+00 0.  1.
         16    1    4    4    0    0 -0.12748615744E+03  0.50625964453E+03 -0.52263904553E+03  0.73871721243E+03  0.00000000000E+00 0. -1.
    9900018    1    1    2    0    0  0.17955933898E+02 -0.70987080593E+02 -0.10565814675E+02  0.11742400098E+03  0.91187600000E+02 0.  0.
<mgrwt>
<rscale>  0 0.31729468E+04</rscale>
<asrwt>0</asrwt>
<pdfrwt beam="1">  1        1 0.53767305E+00 0.37153426E+04</pdfrwt>
<pdfrwt beam="2">  1       -1 0.46970683E+00 0.37153426E+04</pdfrwt>
<totfact> 0.44457197E-04</totfact>
</mgrwt>
</event>
<event>
11    1  0.1909592E-014  0.4156458E+04  0.7818608E-02  0.7973707E-01
          2   -1    0    0  501    0  0.00000000000E+00  0.00000000000E+00  0.27158254817E+04  0.27158254817E+04  0.00000000000E+00 0. -1.
         -2   -1    0    0    0  501 -0.00000000000E+00 -0.00000000000E+00 -0.15903217606E+04  0.15903217606E+04  0.00000000000E+00 0.  1.
    9900016    2    1    2    0    0 -0.30418891299E+03  0.73813558185E+03  0.48667238466E+03  0.22782344681E+04  0.20775291213E+04 0.  0.
        -24    2    3    3    0    0 -0.40171206148E+03  0.12702842437E+04 -0.31317442348E+02  0.13349457657E+04  0.78133061191E+02 0.  0.
        -15    1    1    2    0    0  0.10702814451E+03  0.40059603841E+03 -0.23950399016E+03  0.47884691814E+03  0.00000000000E+00 0.  1.
        -15    1    3    3    0    0  0.17270674249E+03 -0.60740341861E+03  0.49261880816E+03  0.80089938319E+03  0.00000000000E+00 0.  1.
         15    1    4    4    0    0 -0.24530547366E+03  0.87694366369E+03 -0.41134940836E+02  0.91153554404E+03  0.00000000000E+00 0. -1.
         15    1    1    2    0    0  0.23594130312E+03 -0.47491350244E+03  0.12612794883E+03  0.54508659202E+03  0.00000000000E+00 0. -1.
        -16    1    4    4    0    0 -0.15640658782E+03  0.39334057996E+03  0.98174984879E+01  0.42341022169E+03  0.00000000000E+00 0.  1.
         16    1    1    2    0    0 -0.38780534643E+02 -0.66381811782E+03  0.75220737776E+03  0.10039792640E+04  0.00000000000E+00 0. -1.
    9900018    1    3    3    0    0 -0.75183594006E+02  0.75254756808E+02  0.25371018840E+02  0.14238931919E+03  0.91187600000E+02 0.  0.
<mgrwt>
<rscale>  0 0.41564583E+04</rscale>
<asrwt>0</asrwt>
<pdfrwt beam="1">  1        2 0.41781930E+00 0.41564583E+04</pdfrwt>
<pdfrwt beam="2">  1       -2 0.24466489E+00 0.41564583E+04</pdfrwt>
<totfact> 0.14028203E-01</totfact>
</mgrwt>
</event>
<event>
11    1  0.1909592E-014  0.4078659E+04  0.7818608E-02  0.8200762E-01
          1   -1    0    0  501    0  0.00000000000E+00  0.00000000000E+00  0.33546777704E+04  0.33546777704E+04  0.00000000000E+00 0. -1.
         -1   -1    0    0    0  501 -0.00000000000E+00 -0.00000000000E+00 -0.23275643488E+04  0.23275643488E+04  0.00000000000E+00 0.  1.
    9900016    2    1    2    0    0 -0.36382847822E+03 -0.32135477385E+01 -0.62234475992E+03  0.22030938598E+04  0.20818088449E+04 0.  0.
        -24    2    3    3    0    0 -0.27558687744E+03 -0.23874101901E+03  0.68431747974E+03  0.77966570076E+03  0.81503317020E+02 0.  0.
        -15    1    1    2    0    0 -0.91037968536E+03  0.10456729084E+03  0.72064886565E+03  0.11657874066E+04  0.00000000000E+00 0.  1.
        -15    1    3    3    0    0 -0.78183164653E+02  0.30880519220E+03 -0.12556237584E+04  0.12954012030E+04  0.00000000000E+00 0.  1.
         15    1    4    4    0    0 -0.12084251832E+03 -0.13119789247E+03  0.40711415462E+03  0.44447467432E+03  0.00000000000E+00 0. -1.
         15    1    1    2    0    0 -0.30325491394E+03 -0.26207616132E+03 -0.11259727278E+03  0.41632391596E+03  0.00000000000E+00 0. -1.
        -16    1    4    4    0    0 -0.15474435912E+03 -0.10754312654E+03  0.27720332513E+03  0.33519102644E+03  0.00000000000E+00 0.  1.
         16    1    1    2    0    0  0.15774630775E+04  0.16072241822E+03  0.10414065886E+04  0.18970369368E+04  0.00000000000E+00 0. -1.
    9900018    1    3    3    0    0 -0.10058436123E+02 -0.73277720931E+02 -0.51038481227E+02  0.12802695607E+03  0.91187600000E+02 0.  0.
<mgrwt>
<rscale>  0 0.31551558E+04</rscale>
<asrwt>0</asrwt>
<pdfrwt beam="1">  1        1 0.51610427E+00 0.40786591E+04</pdfrwt>
<pdfrwt beam="2">  1       -1 0.35808682E+00 0.40786591E+04</pdfrwt>
<totfact> 0.33020082E-03</totfact>
</mgrwt>
</event>
<event>
11    1  0.1909592E-014  0.3463685E+04  0.7818608E-02  0.8128479E-01
         -1   -1    0    0    0  501 -0.00000000000E+00  0.00000000000E+00  0.36074221161E+04  0.36074221161E+04  0.00000000000E+00 0.  1.
          1   -1    0    0  501    0  0.00000000000E+00 -0.00000000000E+00 -0.39016625344E+04  0.39016625344E+04  0.00000000000E+00 0. -1.
    9900016    2    1    2    0    0 -0.18952575109E+04 -0.17819384747E+03  0.78685266458E+03  0.29270272212E+04  0.20795665793E+04 0.  0.
         24    2    3    3    0    0 -0.28412287144E+03  0.20721919926E+03 -0.62827556446E+03  0.72509417763E+03  0.85824116182E+02 0.  0.
        -15    1    1    2    0    0 -0.27155000057E+03 -0.87496319667E+03 -0.65947921551E+03  0.11288103623E+04  0.00000000000E+00 0.  1.
        -15    1    4    4    0    0 -0.18124281513E+03  0.17293207347E+03 -0.39333096271E+03  0.46633004010E+03  0.00000000000E+00 0.  1.
         15    1    3    3    0    0 -0.14897055019E+04 -0.36306874462E+03  0.12955934645E+04  0.20073873122E+04  0.00000000000E+00 0. -1.
         15    1    1    2    0    0  0.19040448444E+04  0.15057175570E+04 -0.10419729036E+04  0.26416433640E+04  0.00000000000E+00 0. -1.
        -16    1    1    2    0    0  0.26276266703E+03 -0.45256051284E+03  0.62035903616E+03  0.81160370300E+03  0.00000000000E+00 0.  1.
         16    1    4    4    0    0 -0.10288005630E+03  0.34287125785E+02 -0.23494460174E+03  0.25876413752E+03  0.00000000000E+00 0. -1.
    9900018    1    3    3    0    0 -0.12142913753E+03 -0.22344302109E+02  0.11953476450E+03  0.19454573137E+03  0.91187600000E+02 0.  0.
<mgrwt>
<rscale>  0 0.34386760E+04</rscale>
<asrwt>0</asrwt>
<pdfrwt beam="1">  1        1 0.60025577E+00 0.34636854E+04</pdfrwt>
<pdfrwt beam="2">  1       -1 0.55498802E+00 0.34636854E+04</pdfrwt>
<totfact> 0.61405357E-05</totfact>
</mgrwt>
</event>
<event>
11    1  0.1909592E-014  0.4328423E+04  0.7818608E-02  0.8072443E-01
          1   -1    0    0  501    0  0.00000000000E+00  0.00000000000E+00  0.25771336929E+04  0.25771336929E+04  0.00000000000E+00 0. -1.
         -1   -1    0    0    0  501 -0.00000000000E+00 -0.00000000000E+00 -0.44635354313E+04  0.44635354313E+04  0.00000000000E+00 0.  1.
    9900016    2    1    2    0    0 -0.19039462506E+03 -0.96330381869E+03 -0.49030644225E+03  0.22580941531E+04  0.19734194782E+04 0.  0.
        -24    2    3    3    0    0 -0.10130159964E+03 -0.57991026219E+03 -0.12603652732E+04  0.13932711716E+04  0.78268827654E+02 0.  0.
        -15    1    3    3    0    0 -0.89093025416E+02 -0.38339355649E+03  0.77005883094E+03  0.86482298156E+03  0.00000000000E+00 0.  1.
        -15    1    1    2    0    0  0.10810389947E+04 -0.28331125150E+02 -0.17255131941E+04  0.20363800588E+04  0.00000000000E+00 0.  1.
         15    1    1    2    0    0  0.52831846746E+03 -0.28094454587E+03  0.26606487150E+03  0.65485934121E+03  0.00000000000E+00 0. -1.
         15    1    4    4    0    0 -0.84651728533E+02 -0.52425058860E+03 -0.11811377074E+04  0.12950254355E+04  0.00000000000E+00 0. -1.
        -16    1    4    4    0    0 -0.16649871107E+02 -0.55659673592E+02 -0.79227565803E+02  0.98245736067E+02  0.00000000000E+00 0.  1.
         16    1    1    2    0    0 -0.14218277255E+04  0.13571143154E+04  0.49208933625E+02  0.19661573857E+04  0.00000000000E+00 0. -1.
    9900018    1    1    2    0    0  0.28648884883E+01 -0.84534825694E+02  0.14144092776E+02  0.12517818538E+03  0.91187600000E+02 0.  0.
<mgrwt>
<rscale>  0 0.36798443E+04</rscale>
<asrwt>0</asrwt>
<pdfrwt beam="1">  1        1 0.39648211E+00 0.43284235E+04</pdfrwt>
<pdfrwt beam="2">  1       -1 0.68669775E+00 0.43284235E+04</pdfrwt>
<totfact> 0.19021884E-04</totfact>
</mgrwt>
</event>
<event>
11    1  0.2022887E-014  0.3318827E+04  0.7818608E-02  0.8368093E-01
          2   -1    0    0  501    0  0.00000000000E+00  0.00000000000E+00  0.18035251281E+04  0.18035251281E+04  0.00000000000E+00 0. -1.
         -2   -1    0    0    0  501 -0.00000000000E+00 -0.00000000000E+00 -0.28945926329E+04  0.28945926329E+04  0.00000000000E+00 0.  1.
    9900016    2    1    2    0    0  0.74483163371E+03  0.90446876380E+02 -0.81657439697E+03  0.23477021572E+04  0.20692889777E+04 0.  0.
        -24    2    3    3    0    0  0.97863897939E+03 -0.46234519673E+03 -0.10455354433E+04  0.15070769122E+04  0.81480813579E+02 0.  0.
        -15    1    3    3    0    0 -0.32877836605E+03  0.54048153301E+03  0.28886300359E+03  0.69545476945E+03  0.00000000000E+00 0.  1.
        -15    1    1    2    0    0  0.75473046373E+03 -0.23669885173E+03 -0.92175961589E+02  0.79632959708E+03  0.00000000000E+00 0.  1.
         15    1    4    4    0    0  0.32884660971E+03 -0.19045659759E+03 -0.39786174444E+03  0.55018885482E+03  0.00000000000E+00 0. -1.
         15    1    1    2    0    0 -0.43167381925E+03  0.11661150382E+03 -0.18979598918E+03  0.48576027684E+03  0.00000000000E+00 0. -1.
        -16    1    4    4    0    0  0.64979236968E+03 -0.27188859914E+03 -0.64767369888E+03  0.95688805733E+03  0.00000000000E+00 0.  1.
         16    1    1    2    0    0 -0.10678882782E+04  0.29640471534E+02  0.74788429382E+01  0.10683257300E+04  0.00000000000E+00 0. -1.
    9900018    1    3    3    0    0  0.94971020370E+02  0.12310540096E+02 -0.59901957244E+02  0.14517047559E+03  0.91187600000E+02 0.  0.
<mgrwt>
<rscale>  0 0.26003187E+04</rscale>
<asrwt>0</asrwt>
<pdfrwt beam="1">  1        2 0.27746541E+00 0.33188267E+04</pdfrwt>
<pdfrwt beam="2">  1       -2 0.44532194E+00 0.33188267E+04</pdfrwt>
<totfact> 0.25667776E-02</totfact>
</mgrwt>
</event>
