<event>
10    1  0.1504993E-011  0.4934494E+04  0.7818608E-02  0.8060996E-01
         -1   -1    0    0    0  501 -0.00000000000E+00  0.00000000000E+00  0.28868611896E+04  0.28868611896E+04  0.00000000000E+00 0.  1.
          1   -1    0    0  501    0  0.00000000000E+00 -0.00000000000E+00 -0.42382053267E+04  0.42382053267E+04  0.00000000000E+00 0. -1.
    9900016    2    1    2    0    0  0.16218472202E+04 -0.31348950123E+03  0.81555783109E+03  0.25937184443E+04  0.18258085111E+04 0.  0.
        -15    1    3    3    0    0  0.36946623331E+03  0.28543807573E+03 -0.22053258296E+02  0.46740404238E+03  0.00000000000E+00 0.  1.
        -15    1    1    2    0    0  0.58577117509E+03 -0.54548287732E+03 -0.24624324654E+03  0.83744562539E+03  0.00000000000E+00 0.  1.
         15    1    1    2    0    0 -0.36666345022E+03 -0.41556258806E+03 -0.12326239891E+04  0.13514792817E+04  0.00000000000E+00 0. -1.
         15    1    3    3    0    0  0.82379375481E+03 -0.21130788051E+03  0.88067461507E+03  0.12242854849E+04  0.00000000000E+00 0. -1.
        -16    1    3    3    0    0  0.35757452198E+03 -0.14902514482E+03  0.28449231803E+03  0.48062866287E+03  0.00000000000E+00 0.  1.
         16    1    1    2    0    0 -0.18409549451E+04  0.12745349666E+04 -0.68803473252E+03  0.23424231650E+04  0.00000000000E+00 0. -1.
    9900018    1    3    3    0    0  0.71012710086E+02 -0.23859455161E+03 -0.32755584371E+03  0.42140025415E+03  0.91187600000E+02 0.  0.
<mgrwt>
<rscale>  0 0.37315930E+04</rscale>
<asrwt>0</asrwt>
<pdfrwt beam="1">  1        1 0.65203159E+00 0.49344941E+04</pdfrwt>
<pdfrwt beam="2">  1       -1 0.44413249E+00 0.49344941E+04</pdfrwt>
<totfact> 0.14073319E-04</totfact>
</mgrwt>
</event>
<event>
11    1  0.1504993E-011  0.2559661E+04  0.7818608E-02  0.8531080E-01
          1   -1    0    0  501    0  0.00000000000E+00  0.00000000000E+00  0.45159840808E+04  0.45159840808E+04  0.00000000000E+00 0. -1.
         -1   -1    0    0    0  501 -0.00000000000E+00 -0.00000000000E+00 -0.10118798020E+04  0.10118798020E+04  0.00000000000E+00 0.  1.
    9900016    2    1    2    0    0  0.11272627778E+03  0.15136674927E+03  0.17846218245E+04  0.25770064882E+04  0.18494508043E+04 0.  0.
        -24    2    3    3    0    0 -0.79883083907E+03  0.10261546273E+03  0.11602437990E+04  0.14136001636E+04  0.58643898975E+02 0.  0.
        -15    1    3    3    0    0  0.68447784533E+03 -0.51790654199E+02  0.31188225253E+03  0.75396467560E+03  0.00000000000E+00 0.  1.
        -15    1    1    2    0    0  0.11709895461E+03 -0.28674944227E+02 -0.53803790222E+03  0.55137936289E+03  0.00000000000E+00 0.  1.
         15    1    1    2    0    0  0.27017478440E+03 -0.14494316333E+03  0.72046032542E+03  0.78298532248E+03  0.00000000000E+00 0. -1.
         15    1    4    4    0    0 -0.54978898907E+03  0.45926795025E+02  0.81383521647E+03  0.98321155535E+03  0.00000000000E+00 0. -1.
        -16    1    4    4    0    0 -0.24904185001E+03  0.56688667701E+02  0.34640858253E+03  0.43038860829E+03  0.00000000000E+00 0.  1.
         16    1    1    2    0    0 -0.50000001679E+03  0.22251358287E+02  0.15370600310E+04  0.16164927092E+04  0.00000000000E+00 0. -1.
    9900018    1    3    3    0    0  0.22707927153E+03  0.10054194074E+03  0.31249577297E+03  0.40944164899E+03  0.91187600000E+02 0.  0.
<mgrwt>
<rscale>  0 0.21698578E+04</rscale>
<asrwt>0</asrwt>
<pdfrwt beam="1">  1        1 0.69476677E+00 0.25596611E+04</pdfrwt>
<pdfrwt beam="2">  1       -1 0.15567382E+00 0.25596611E+04</pdfrwt>
<totfact> 0.83603838E-03</totfact>
</mgrwt>
</event>
<event>
11    1  0.1504993E-011  0.3460572E+04  0.7818608E-02  0.8308432E-01
          1   -1    0    0  501    0  0.00000000000E+00  0.00000000000E+00  0.26229461949E+04  0.26229461949E+04  0.00000000000E+00 0. -1.
         -1   -1    0    0    0  501 -0.00000000000E+00 -0.00000000000E+00 -0.23201300009E+04  0.23201300009E+04  0.00000000000E+00 0.  1.
    9900016    2    1    2    0    0  0.45559604453E+03  0.55652824224E+03  0.64022365795E+02  0.20010185647E+04  0.18661953254E+04 0.  0.
        -24    2    3    3    0    0  0.19716197439E+03  0.21116252178E+03 -0.79565454170E+03  0.84924525236E+03  0.68475500565E+02 0.  0.
        -15    1    3    3    0    0 -0.20704604563E+03  0.10971096537E+03  0.30810165760E+03  0.38708034353E+03  0.00000000000E+00 0.  1.
        -15    1    1    2    0    0  0.82266497598E+03 -0.84387351773E+03 -0.32250792702E+03  0.12218475926E+04  0.00000000000E+00 0.  1.
         15    1    1    2    0    0  0.13724526475E+03  0.27121465375E+02  0.18620995149E+03  0.23290766972E+03  0.00000000000E+00 0. -1.
         15    1    4    4    0    0  0.13794597371E+03  0.10131259393E+03 -0.49337463128E+03  0.52221821123E+03  0.00000000000E+00 0. -1.
        -16    1    4    4    0    0  0.59216000678E+02  0.10984992785E+03 -0.30227991042E+03  0.32702704112E+03  0.00000000000E+00 0.  1.
         16    1    1    2    0    0 -0.14155062853E+04  0.26022381011E+03  0.37509180378E+03  0.14873023688E+04  0.00000000000E+00 0. -1.
    9900018    1    3    3    0    0  0.46548011578E+03  0.23565475510E+03  0.55157524990E+03  0.76469296877E+03  0.91187600000E+02 0.  0.
<mgrwt>
<rscale>  0 0.27834268E+04</rscale>
<asrwt>0</asrwt>
<pdfrwt beam="1">  1        1 0.40353019E+00 0.34605724E+04</pdfrwt>
<pdfrwt beam="2">  1       -1 0.35694308E+00 0.34605724E+04</pdfrwt>
<totfact> 0.12165413E-02</totfact>
</mgrwt>
</event>
<event>
10    1  0.1504993E-011  0.3385995E+04  0.7818608E-02  0.8231358E-01
         -2   -1    0    0    0  501 -0.00000000000E+00  0.00000000000E+00  0.17078317807E+04  0.17078317807E+04  0.00000000000E+00 0.  1.
          2   -1    0    0  501    0  0.00000000000E+00 -0.00000000000E+00 -0.51035684609E+04  0.51035684609E+04  0.00000000000E+00 0. -1.
    9900016    2    1    2    0    0 -0.79132852686E+03  0.31095773555E+03 -0.16281190438E+04  0.26045484941E+04  0.18466200710E+04 0.  0.
        -15    1    1    2    0    0  0.13128820156E+04  0.11200583226E+04 -0.64419934033E+03  0.18420593430E+04  0.00000000000E+00 0.  1.
        -15    1    3    3    0    0 -0.84852282825E+03 -0.12758395379E+03 -0.17386752688E+04  0.19388812098E+04  0.00000000000E+00 0.  1.
         15    1    1    2    0    0 -0.14700284743E+03 -0.14923778391E+03  0.33011042975E+03  0.39096630178E+03  0.00000000000E+00 0. -1.
         15    1    3    3    0    0 -0.10282281222E+03 -0.23769841151E+01 -0.10204730741E+02  0.10335529641E+03  0.00000000000E+00 0. -1.
        -16    1    3    3    0    0 -0.36466056697E+02  0.22793235393E+02  0.78511543676E+02  0.89517413731E+02  0.00000000000E+00 0.  1.
         16    1    1    2    0    0 -0.37455064131E+03 -0.12817782743E+04 -0.14535287259E+04  0.19738261028E+04  0.00000000000E+00 0. -1.
    9900018    1    3    3    0    0  0.19648317032E+03  0.41812543806E+03  0.42249412028E+02  0.47279457419E+03  0.91187600000E+02 0.  0.
<mgrwt>
<rscale>  0 0.30437106E+04</rscale>
<asrwt>0</asrwt>
<pdfrwt beam="1">  1        2 0.78516437E+00 0.33859948E+04</pdfrwt>
<pdfrwt beam="2">  1       -2 0.26274335E+00 0.33859948E+04</pdfrwt>
<totfact> 0.10433943E-03</totfact>
</mgrwt>
</event>
<event>
11    1  0.1504993E-011  0.4466561E+04  0.7818608E-02  0.8245810E-01
         -2   -1    0    0    0  501 -0.00000000000E+00  0.00000000000E+00  0.23977135500E+04  0.23977135500E+04  0.00000000000E+00 0.  1.
          2   -1    0    0  501    0  0.00000000000E+00 -0.00000000000E+00 -0.30277225069E+04  0.30277225069E+04  0.00000000000E+00 0. -1.
    9900016    2    1    2    0    0 -0.32587788398E+03 -0.13996054100E+04  0.52560938809E+03  0.23842567407E+04  0.18284756704E+04 0.  0.
        -24    2    3    3    0    0 -0.25222043740E+03 -0.26857656969E+03  0.97220758639E+03  0.10409255055E+04  0.50890020355E+02 0.  0.
        -15    1    3    3    0    0  0.14160786145E+03 -0.82237085568E+03 -0.13287280247E+03  0.84498626754E+03  0.00000000000E+00 0.  1.
        -15    1    1    2    0    0  0.59006480579E+03 -0.37676483515E+03  0.18821836427E+03  0.72495128712E+03  0.00000000000E+00 0.  1.
         15    1    4    4    0    0 -0.57258268669E+02 -0.33771064902E+02  0.18949154935E+03  0.20081344932E+03  0.00000000000E+00 0. -1.
         15    1    1    2    0    0 -0.13457577305E+03  0.33860055430E+02 -0.11222747251E+03  0.17847169981E+03  0.00000000000E+00 0. -1.
        -16    1    4    4    0    0 -0.19496216873E+03 -0.23480550479E+03  0.78271603705E+03  0.84011205619E+03  0.00000000000E+00 0.  1.
         16    1    1    2    0    0 -0.12961114876E+03  0.17425101898E+04 -0.12316092368E+04  0.21377563293E+04  0.00000000000E+00 0. -1.
    9900018    1    3    3    0    0 -0.21526530804E+03 -0.30865798467E+03 -0.31372539583E+03  0.49834496760E+03  0.91187600000E+02 0.  0.
<mgrwt>
<rscale>  0 0.29927282E+04</rscale>
<asrwt>0</asrwt>
<pdfrwt beam="1">  1        2 0.46580346E+00 0.44665609E+04</pdfrwt>
<pdfrwt beam="2">  1       -2 0.36887901E+00 0.44665609E+04</pdfrwt>
<totfact> 0.14514449E-02</totfact>
</mgrwt>
</event>
<event>
11    1  0.1504993E-011  0.4745865E+04  0.7818608E-02  0.7868952E-01
         -1   -1    0    0    0  501 -0.00000000000E+00  0.00000000000E+00  0.15489851243E+04  0.15489851243E+04  0.00000000000E+00 0.  1.
          1   -1    0    0  501    0  0.00000000000E+00 -0.00000000000E+00 -0.36351598559E+04  0.36351598559E+04  0.00000000000E+00 0. -1.
    9900016    2    1    2    0    0  0.90909864591E+03 -0.39034479933E+03 -0.27715802299E+03  0.21119733229E+04  0.18452060418E+04 0.  0.
        -24    2    3    3    0    0  0.59171866811E+03 -0.93797757691E+02 -0.30327977072E+03  0.67830478162E+03  0.95863214597E+02 0.  0.
        -15    1    3    3    0    0  0.30903886658E+03  0.25796348094E+03 -0.51488291608E+03  0.65357065098E+03  0.00000000000E+00 0.  1.
        -15    1    1    2    0    0  0.60999724350E+03 -0.86427483914E+02 -0.11568863368E+02  0.61619817076E+03  0.00000000000E+00 0.  1.
         15    1    1    2    0    0 -0.29055853597E+03  0.30701973900E+03 -0.34160134821E+03  0.54348584531E+03  0.00000000000E+00 0. -1.
         15    1    4    4    0    0  0.15243914372E+03 -0.62596690862E+02 -0.61347055492E+02  0.17583941384E+03  0.00000000000E+00 0. -1.
        -16    1    4    4    0    0  0.43927952439E+03 -0.31201066829E+02 -0.24193271523E+03  0.50246536778E+03  0.00000000000E+00 0.  1.
         16    1    1    2    0    0 -0.12285373534E+04  0.16975254425E+03 -0.14558464970E+04  0.19124876413E+04  0.00000000000E+00 0. -1.
    9900018    1    3    3    0    0  0.83411112289E+01 -0.55451052258E+03  0.54100466381E+03  0.78009789030E+03  0.91187600000E+02 0.  0.
<mgrwt>
<rscale>  0 0.47458650E+04</rscale>
<asrwt>0</asrwt>
<pdfrwt beam="1">  1        1 0.55925537E+00 0.47458650E+04</pdfrwt>
<pdfrwt beam="2">  1       -1 0.23830540E+00 0.47458650E+04</pdfrwt>
<totfact> 0.11919832E-02</totfact>
</mgrwt>
</event>
<event>
11    1  0.1504993E-011  0.3175016E+04  0.7818608E-02  0.8613915E-01
         -2   -1    0    0    0  501 -0.00000000000E+00  0.00000000000E+00  0.17440499715E+04  0.17440499715E+04  0.00000000000E+00 0.  1.
          2   -1    0    0  501    0  0.00000000000E+00 -0.00000000000E+00 -0.20004589810E+04  0.20004589810E+04  0.00000000000E+00 0. -1.
    9900016    2    1    2    0    0  0.67454680062E+03 -0.35102928159E+03 -0.29982369371E+03  0.20237955653E+04  0.18513830776E+04 0.  0.
        -24    2    3    3    0    0 -0.38942620959E+03  0.41107331262E+03 -0.17173274321E+02  0.57028906097E+03  0.65579346255E+02 0.  0.
        -15    1    3    3    0    0 -0.24015867080E+02 -0.15314298800E+03  0.44475714328E+02  0.16126879987E+03  0.00000000000E+00 0.  1.
        -15    1    1    2    0    0  0.48653108595E+02  0.62187776431E+00  0.74183050333E+02  0.88716608730E+02  0.00000000000E+00 0.  1.
         15    1    4    4    0    0 -0.18233079028E+03  0.17795860607E+03 -0.38808584020E+02  0.25772056331E+03  0.00000000000E+00 0. -1.
         15    1    1    2    0    0  0.29728513610E+03 -0.58905691302E+02 -0.37286355770E+03  0.48049512513E+03  0.00000000000E+00 0. -1.
        -16    1    4    4    0    0 -0.20709541931E+03  0.23311470655E+03  0.21635309699E+02  0.31256849767E+03  0.00000000000E+00 0.  1.
         16    1    1    2    0    0 -0.10204850453E+04  0.40931309513E+03  0.34209519159E+03  0.11515016533E+04  0.00000000000E+00 0. -1.
    9900018    1    3    3    0    0  0.10879888773E+04 -0.60895960621E+03 -0.32712613371E+03  0.12922377045E+04  0.91187600000E+02 0.  0.
<mgrwt>
<rscale>  0 0.19844713E+04</rscale>
<asrwt>0</asrwt>
<pdfrwt beam="1">  1        2 0.30776292E+00 0.31750158E+04</pdfrwt>
<pdfrwt beam="2">  1       -2 0.26831538E+00 0.31750158E+04</pdfrwt>
<totfact> 0.27422879E-01</totfact>
</mgrwt>
</event>
<event>
11    1  0.1504993E-011  0.5618040E+04  0.7818608E-02  0.7739653E-01
         -2   -1    0    0    0  501 -0.00000000000E+00  0.00000000000E+00  0.14485755683E+04  0.14485755683E+04  0.00000000000E+00 0. -1.
          2   -1    0    0  501    0  0.00000000000E+00 -0.00000000000E+00 -0.54471387764E+04  0.54471387764E+04  0.00000000000E+00 0.  1.
    9900016    2    1    2    0    0  0.57085176232E+03  0.11786679222E+04 -0.77120117696E+03  0.23888856828E+04  0.18430663973E+04 0.  0.
        -24    2    3    3    0    0  0.41572924192E+03  0.78754315099E+03  0.24858616535E+03  0.92917294777E+03  0.92261953147E+02 0.  0.
        -15    1    3    3    0    0  0.12315487558E+03  0.27125847351E+03 -0.11920275422E+04  0.12286895231E+04  0.00000000000E+00 0.  1.
        -15    1    1    2    0    0  0.29033516543E+03 -0.76547563107E+03 -0.28752130480E+04  0.29894978711E+04  0.00000000000E+00 0.  1.
         15    1    1    2    0    0 -0.45943385148E+03  0.35187679161E+03  0.13876085222E+02  0.57886897144E+03  0.00000000000E+00 0. -1.
         15    1    4    4    0    0  0.17594288149E+03  0.24282816246E+03  0.72405138314E+02  0.30848649579E+03  0.00000000000E+00 0. -1.
        -16    1    4    4    0    0  0.23978636042E+03  0.54471498853E+03  0.17618102703E+03  0.62068645197E+03  0.00000000000E+00 0.  1.
         16    1    1    2    0    0 -0.40175307628E+03 -0.76506908270E+03 -0.36602506841E+03  0.93846181931E+03  0.00000000000E+00 0. -1.
    9900018    1    3    3    0    0  0.31967644827E+02  0.11986629764E+03  0.17224019987E+03  0.23102321198E+03  0.91187600000E+02 0.  0.
<mgrwt>
<rscale>  0 0.56180396E+04</rscale>
<asrwt>0</asrwt>
<pdfrwt beam="1">  1        2 0.83802135E+00 0.56180396E+04</pdfrwt>
<pdfrwt beam="2">  1       -2 0.22285778E+00 0.56180396E+04</pdfrwt>
<totfact> 0.47433170E-04</totfact>
</mgrwt>
</event>
