<event>
11    1  0.6335517E-011  0.5578367E+04  0.7818608E-02  0.8080290E-01
          1   -1    0    0  501    0  0.00000000000E+00  0.00000000000E+00  0.37528981463E+04  0.37528981463E+04  0.00000000000E+00 0. -1.
         -1   -1    0    0    0  501 -0.00000000000E+00 -0.00000000000E+00 -0.33744386821E+04  0.33744386821E+04  0.00000000000E+00 0.  1.
    9900016    2    1    2    0    0 -0.24789071159E+03 -0.10303771282E+04 -0.92232439513E+03  0.22960570617E+04  0.18160586195E+04 0.  0.
        -24    2    3    3    0    0 -0.76652388435E+03 -0.10374411042E+04 -0.11497539839E+04  0.17297051521E+04  0.78120290935E+02 0.  0.
        -15    1    3    3    0    0  0.51863317276E+03  0.70639760195E+01  0.22742958877E+03  0.56635190958E+03  0.00000000000E+00 0.  1.
        -15    1    1    2    0    0  0.12303788711E+03 -0.14593397812E+03 -0.83676221367E+02  0.20841486909E+03  0.00000000000E+00 0.  1.
         15    1    1    2    0    0  0.46165679821E+03  0.66018081545E+03 -0.86793707087E+03  0.11841792379E+04  0.00000000000E+00 0. -1.
         15    1    4    4    0    0 -0.45387935983E+03 -0.66172819412E+03 -0.74818519218E+03  0.10971197555E+04  0.00000000000E+00 0. -1.
        -16    1    4    4    0    0 -0.31264452452E+03 -0.37571291008E+03 -0.40156879171E+03  0.63258539660E+03  0.00000000000E+00 0.  1.
         16    1    1    2    0    0 -0.11931505243E+03  0.64778080857E+03  0.27740941030E+04  0.28512197653E+04  0.00000000000E+00 0. -1.
    9900018    1    1    2    0    0 -0.21748892129E+03 -0.13165051770E+03 -0.52169695134E+03  0.58746589444E+03  0.91187600000E+02 0.  0.
<mgrwt>
<rscale>  0 0.36448721E+04</rscale>
<asrwt>0</asrwt>
<pdfrwt beam="1">  1        1 0.57736894E+00 0.55783672E+04</pdfrwt>
<pdfrwt beam="2">  1       -1 0.51914442E+00 0.55783672E+04</pdfrwt>
<totfact> 0.11677232E-04</totfact>
</mgrwt>
</event>
<event>
11    1  0.6335517E-011  0.3864449E+04  0.7818608E-02  0.8264052E-01
         -2   -1    0    0    0  501 -0.00000000000E+00  0.00000000000E+00  0.18379062902E+04  0.18379062902E+04  0.00000000000E+00 0.  1.
          2   -1    0    0  501    0  0.00000000000E+00 -0.00000000000E+00 -0.35954927574E+04  0.35954927574E+04  0.00000000000E+00 0. -1.
    9900016    2    1    2    0    0  0.38797127573E+03  0.87443129183E+02 -0.39597223072E+03  0.19345267820E+04  0.18513324529E+04 0.  0.
        -24    2    3    3    0    0  0.99511831978E+03 -0.63009610647E+02  0.25396810213E+03  0.10324813307E+04  0.85365214606E+02 0.  0.
        -15    1    1    2    0    0 -0.34066654930E+03 -0.32171376453E+03  0.92207171766E+02  0.47755167954E+03  0.00000000000E+00 0.  1.
        -15    1    3    3    0    0 -0.60714704405E+03  0.15045273983E+03 -0.64994033285E+03  0.90204545134E+03  0.00000000000E+00 0.  1.
         15    1    1    2    0    0  0.14572512646E+03 -0.67416978463E+03 -0.53825054724E+03  0.87490248747E+03  0.00000000000E+00 0. -1.
         15    1    4    4    0    0  0.61988984968E+03 -0.17139486549E+02  0.12147030575E+03  0.63191156258E+03  0.00000000000E+00 0. -1.
        -16    1    4    4    0    0  0.37522847010E+03 -0.45870124099E+02  0.13249779638E+03  0.40056976808E+03  0.00000000000E+00 0.  1.
         16    1    1    2    0    0  0.10337903999E+03  0.13752871214E+04 -0.60972125246E+03  0.15079329885E+04  0.00000000000E+00 0. -1.
    9900018    1    1    2    0    0 -0.29640889288E+03 -0.46684670138E+03 -0.30584960862E+03  0.63848511013E+03  0.91187600000E+02 0.  0.
<mgrwt>
<rscale>  0 0.29298477E+04</rscale>
<asrwt>0</asrwt>
<pdfrwt beam="1">  1        2 0.55315273E+00 0.38644490E+04</pdfrwt>
<pdfrwt beam="2">  1       -2 0.28275481E+00 0.38644490E+04</pdfrwt>
<totfact> 0.21529796E-02</totfact>
</mgrwt>
</event>
<event>
11    1  0.6335517E-011  0.2816283E+04  0.7818608E-02  0.8496759E-01
          2   -1    0    0  501    0  0.00000000000E+00  0.00000000000E+00  0.16659946668E+04  0.16659946668E+04  0.00000000000E+00 0. -1.
         -2   -1    0    0    0  501 -0.00000000000E+00 -0.00000000000E+00 -0.23648082688E+04  0.23648082688E+04  0.00000000000E+00 0.  1.
    9900016    2    1    2    0    0 -0.69427658834E+03 -0.83554011105E+02 -0.40955211122E+03  0.20186167733E+04  0.18488048821E+04 0.  0.
        -24    2    3    3    0    0  0.16791617261E+03  0.42724097467E+03 -0.81403966416E+03  0.93792345190E+03  0.79430065696E+02 0.  0.
        -15    1    3    3    0    0 -0.86219276095E+03 -0.51079498577E+03  0.40448755294E+03  0.10806933214E+04  0.00000000000E+00 0.  1.
        -15    1    1    2    0    0  0.94578829885E+03 -0.36033003822E+03 -0.20351021256E+03  0.10323612010E+04  0.00000000000E+00 0.  1.
         15    1    1    2    0    0 -0.29540817667E+03 -0.12140388998E+03 -0.12696774000E+03  0.34369419888E+03  0.00000000000E+00 0. -1.
         15    1    4    4    0    0  0.24499067789E+02  0.16646159144E+03 -0.29169231867E+03  0.33674036663E+03  0.00000000000E+00 0. -1.
        -16    1    4    4    0    0  0.14341710482E+03  0.26077938322E+03 -0.52234734549E+03  0.60118308527E+03  0.00000000000E+00 0.  1.
         16    1    1    2    0    0  0.10893435145E+03  0.89469749065E+02 -0.23938383266E+02  0.14298452754E+03  0.00000000000E+00 0. -1.
    9900018    1    1    2    0    0 -0.65037885290E+02  0.47581819024E+03  0.65154845009E+02  0.49314623481E+03  0.91187600000E+02 0.  0.
<mgrwt>
<rscale>  0 0.22528210E+04</rscale>
<asrwt>0</asrwt>
<pdfrwt beam="1">  1        2 0.25630687E+00 0.28162832E+04</pdfrwt>
<pdfrwt beam="2">  1       -2 0.36381665E+00 0.28162832E+04</pdfrwt>
<totfact> 0.10935914E-01</totfact>
</mgrwt>
</event>
<event>
11    1  0.6335517E-011  0.3911702E+04  0.7818608E-02  0.8249465E-01
         -1   -1    0    0    0  501 -0.00000000000E+00  0.00000000000E+00  0.32770921073E+04  0.32770921073E+04  0.00000000000E+00 0.  1.
          1   -1    0    0  501    0  0.00000000000E+00 -0.00000000000E+00 -0.20889911654E+04  0.20889911654E+04  0.00000000000E+00 0. -1.
    9900016    2    1    2    0    0  0.25827608952E+03 -0.46226133448E+03  0.16715044080E+04  0.25355986223E+04  0.18316498867E+04 0.  0.
        -24    2    3    3    0    0  0.61593157180E+03 -0.44631200758E+03  0.19417943436E+04  0.20870136534E+04  0.80589125052E+02 0.  0.
        -15    1    1    2    0    0 -0.44962579959E+03 -0.74949895389E+01  0.40412598493E+03  0.60459684602E+03  0.00000000000E+00 0.  1.
        -15    1    3    3    0    0 -0.35765548228E+03 -0.15949326894E+02 -0.27028993562E+03  0.44858496891E+03  0.00000000000E+00 0.  1.
         15    1    4    4    0    0  0.53512239627E+03 -0.38322363437E+03  0.15974919691E+04  0.17277722432E+04  0.00000000000E+00 0. -1.
         15    1    1    2    0    0 -0.76103662100E+03  0.10579800796E+03 -0.17348987616E+02  0.76855119827E+03  0.00000000000E+00 0. -1.
        -16    1    4    4    0    0  0.80809175533E+02 -0.63088373212E+02  0.34430237450E+03  0.35924141015E+03  0.00000000000E+00 0.  1.
         16    1    1    2    0    0  0.96092430250E+03  0.26284228293E+03 -0.62294091770E+03  0.11749540279E+04  0.00000000000E+00 0. -1.
    9900018    1    1    2    0    0 -0.85379714328E+01  0.10111603313E+03 -0.24723954568E+03  0.28238257817E+03  0.91187600000E+02 0.  0.
<mgrwt>
<rscale>  0 0.29799990E+04</rscale>
<asrwt>0</asrwt>
<pdfrwt beam="1">  1        1 0.32138325E+00 0.39117019E+04</pdfrwt>
<pdfrwt beam="2">  1       -1 0.50416802E+00 0.39117019E+04</pdfrwt>
<totfact> 0.27543855E-03</totfact>
</mgrwt>
</event>
<event>
11    1  0.6335517E-011  0.3819164E+04  0.7818608E-02  0.8097453E-01
          2   -1    0    0  501    0  0.00000000000E+00  0.00000000000E+00  0.53757965963E+04  0.53757965963E+04  0.00000000000E+00 0. -1.
         -2   -1    0    0    0  501 -0.00000000000E+00 -0.00000000000E+00 -0.31703942759E+04  0.31703942759E+04  0.00000000000E+00 0.  1.
    9900016    2    1    2    0    0  0.14656254798E+04 -0.13912355377E+04 -0.43937291063E+03  0.27697417867E+04  0.18425055339E+04 0.  0.
         24    2    3    3    0    0 -0.13468914169E+03 -0.89770852300E+03  0.27071882370E+03  0.95072939726E+03  0.81092220036E+02 0.  0.
        -15    1    1    2    0    0 -0.12907298367E+03  0.84772142051E+03  0.55331218748E+03  0.10205125275E+04  0.00000000000E+00 0.  1.
        -15    1    4    4    0    0 -0.63966609769E+02 -0.44732157574E+03  0.17693450803E+03  0.48527738400E+03  0.00000000000E+00 0.  1.
         15    1    1    2    0    0 -0.16035858754E+04  0.11204645038E+04  0.29084795993E+04  0.35051650380E+04  0.00000000000E+00 0. -1.
         15    1    3    3    0    0  0.16003146215E+04 -0.49352701469E+03 -0.71009173432E+03  0.18190123895E+04  0.00000000000E+00 0. -1.
        -16    1    1    2    0    0  0.36342429682E+03 -0.54507048453E+03 -0.88276250912E+03  0.10992946375E+04  0.00000000000E+00 0.  1.
         16    1    4    4    0    0 -0.70722531916E+02 -0.45038694726E+03  0.93784315671E+02  0.46545201326E+03  0.00000000000E+00 0. -1.
    9900018    1    1    2    0    0 -0.96390917590E+02 -0.31879902051E+02  0.65745953350E+02  0.15147688247E+03  0.91187600000E+02 0.  0.
<mgrwt>
<rscale>  0 0.35697619E+04</rscale>
<asrwt>0</asrwt>
<pdfrwt beam="1">  1        2 0.82704563E+00 0.38191639E+04</pdfrwt>
<pdfrwt beam="2">  1       -2 0.48775297E+00 0.38191639E+04</pdfrwt>
<totfact> 0.13817107E-05</totfact>
</mgrwt>
</event>
<event>
11    1  0.6335517E-011  0.4284728E+04  0.7818608E-02  0.8080938E-01
          2   -1    0    0  501    0  0.00000000000E+00  0.00000000000E+00  0.34633420895E+04  0.34633420895E+04  0.00000000000E+00 0.  1.
         -2   -1    0    0    0  501 -0.00000000000E+00 -0.00000000000E+00 -0.31026789950E+04  0.31026789950E+04  0.00000000000E+00 0. -1.
    9900016    2    1    2    0    0 -0.16976200687E+04  0.10453011671E+04 -0.15476808057E+03  0.27174489601E+04  0.18401106664E+04 0.  0.
        -24    2    3    3    0    0 -0.11244620289E+03 -0.24398511653E+02  0.63360232149E+03  0.64898057063E+03  0.80526041438E+02 0.  0.
        -15    1    1    2    0    0 -0.11055842581E+03 -0.22043932773E+03  0.77906393080E+03  0.81716416405E+03  0.00000000000E+00 0.  1.
        -15    1    3    3    0    0 -0.15851738658E+04  0.10696996788E+04 -0.78837040206E+03  0.20684683895E+04  0.00000000000E+00 0.  1.
         15    1    1    2    0    0  0.12500767927E+04 -0.68337039075E+03 -0.33399613543E+03  0.14632978156E+04  0.00000000000E+00 0. -1.
         15    1    4    4    0    0 -0.10348582624E+03 -0.48095165629E+02  0.48583221061E+03  0.49905450409E+03  0.00000000000E+00 0. -1.
        -16    1    4    4    0    0 -0.89603766500E+01  0.23696653977E+02  0.14777011088E+03  0.14992606654E+03  0.00000000000E+00 0.  1.
         16    1    1    2    0    0  0.33045464337E+03  0.11510098436E+03 -0.66506870627E+03  0.75150841112E+03  0.00000000000E+00 0. -1.
    9900018    1    1    2    0    0  0.22764705843E+03 -0.25659243298E+03  0.73543208598E+03  0.81660173362E+03  0.91187600000E+02 0.  0.
<mgrwt>
<rscale>  0 0.36420002E+04</rscale>
<asrwt>0</asrwt>
<pdfrwt beam="1">  1        2 0.53282186E+00 0.42847278E+04</pdfrwt>
<pdfrwt beam="2">  1       -2 0.47733523E+00 0.42847278E+04</pdfrwt>
<totfact> 0.14263703E-03</totfact>
</mgrwt>
</event>
<event>
11    1  0.6335517E-011  0.5503946E+04  0.7818608E-02  0.7966003E-01
         -2   -1    0    0    0  501 -0.00000000000E+00  0.00000000000E+00  0.30224436953E+04  0.30224436953E+04  0.00000000000E+00 0.  1.
          2   -1    0    0  501    0  0.00000000000E+00 -0.00000000000E+00 -0.44885136928E+04  0.44885136928E+04  0.00000000000E+00 0. -1.
    9900016    2    1    2    0    0 -0.10356404288E+04  0.10024336401E+04  0.14212137967E+03  0.23387982436E+04  0.18363971349E+04 0.  0.
        -24    2    3    3    0    0  0.14460154719E+03  0.11347827848E+04  0.62347458018E+02  0.11484826146E+04  0.80520398157E+02 0.  0.
        -15    1    3    3    0    0 -0.11802419760E+04 -0.13234914464E+03  0.79773921651E+02  0.11903156290E+04  0.00000000000E+00 0.  1.
        -15    1    1    2    0    0 -0.69962330334E+03 -0.36932847522E+03  0.26005781469E+03  0.83277029016E+03  0.00000000000E+00 0.  1.
         15    1    4    4    0    0 -0.38188828687E+01  0.68820190540E+02 -0.10741215842E+02  0.69757983128E+02  0.00000000000E+00 0. -1.
         15    1    1    2    0    0 -0.70027848987E+03  0.55539879715E+03 -0.55166541972E+03  0.10503297209E+04  0.00000000000E+00 0. -1.
        -16    1    4    4    0    0  0.14842043005E+03  0.10659625942E+04  0.73088673860E+02  0.10787246315E+04  0.00000000000E+00 0.  1.
         16    1    1    2    0    0  0.24316542098E+04 -0.13483589645E+04 -0.10652902438E+04  0.29775589661E+04  0.00000000000E+00 0. -1.
    9900018    1    1    2    0    0  0.38880122075E+01  0.15985500250E+03 -0.25129352840E+03  0.31150016737E+03  0.91187600000E+02 0.  0.
<mgrwt>
<rscale>  0 0.41966841E+04</rscale>
<asrwt>0</asrwt>
<pdfrwt beam="1">  1        2 0.69054057E+00 0.55039456E+04</pdfrwt>
<pdfrwt beam="2">  1       -2 0.46499134E+00 0.55039456E+04</pdfrwt>
<totfact> 0.22867892E-04</totfact>
</mgrwt>
</event>
<event>
11    1  0.6335517E-011  0.3471194E+04  0.7818608E-02  0.8407936E-01
          2   -1    0    0  501    0  0.00000000000E+00  0.00000000000E+00  0.16002256608E+04  0.16002256608E+04  0.00000000000E+00 0. -1.
         -2   -1    0    0    0  501 -0.00000000000E+00 -0.00000000000E+00 -0.31520447388E+04  0.31520447388E+04  0.00000000000E+00 0.  1.
    9900016    2    1    2    0    0  0.45999458298E+03  0.78328560557E+03 -0.35001965190E+03  0.20709749406E+04  0.18279201546E+04 0.  0.
         24    2    3    3    0    0 -0.31862318697E+03  0.20366543694E+03  0.59950965827E+03  0.71310488698E+03  0.78143483436E+02 0.  0.
        -15    1    1    2    0    0 -0.37551329104E+03  0.33114378117E+03 -0.48651519158E+02  0.50302425972E+03  0.00000000000E+00 0.  1.
        -15    1    4    4    0    0 -0.26763490175E+03  0.19979717844E+03  0.50110173045E+03  0.60220453121E+03  0.00000000000E+00 0.  1.
         15    1    1    2    0    0  0.32961642065E+03 -0.21497030492E+03  0.12811290533E+03  0.41385037546E+03  0.00000000000E+00 0. -1.
         15    1    3    3    0    0  0.77861776994E+03  0.57962016863E+03 -0.94952931017E+03  0.13578700536E+04  0.00000000000E+00 0. -1.
        -16    1    1    2    0    0 -0.57259313482E+03 -0.57305454633E+03 -0.68692038482E+03  0.10621271234E+04  0.00000000000E+00 0.  1.
         16    1    4    4    0    0 -0.50988285216E+02  0.38682584980E+01  0.98407927817E+02  0.11090035577E+03  0.00000000000E+00 0. -1.
    9900018    1    1    2    0    0  0.15849542223E+03 -0.32640453548E+03 -0.59434042748E+03  0.70229370051E+03  0.91187600000E+02 0.  0.
<mgrwt>
<rscale>  0 0.24861500E+04</rscale>
<asrwt>0</asrwt>
<pdfrwt beam="1">  1        2 0.24618857E+00 0.34711936E+04</pdfrwt>
<pdfrwt beam="2">  1       -2 0.48492995E+00 0.34711936E+04</pdfrwt>
<totfact> 0.18244889E-02</totfact>
</mgrwt>
</event>
<event>
11    1  0.6335517E-011  0.4004433E+04  0.7818608E-02  0.8405589E-01
          2   -1    0    0  501    0  0.00000000000E+00  0.00000000000E+00  0.31779567587E+04  0.31779567587E+04  0.00000000000E+00 0. -1.
         -2   -1    0    0    0  501 -0.00000000000E+00 -0.00000000000E+00 -0.17712934052E+04  0.17712934052E+04  0.00000000000E+00 0.  1.
    9900016    2    1    2    0    0  0.36427194945E+03  0.10180243711E+04  0.28731884059E+03  0.21481162860E+04  0.18337894614E+04 0.  0.
        -24    2    3    3    0    0  0.74696582920E+03  0.13989026186E+04  0.18513035788E+03  0.15986025636E+04  0.79814915799E+02 0.  0.
        -15    1    1    2    0    0 -0.11425559805E+02 -0.84817182802E+02 -0.12239173317E+03  0.14934602192E+03  0.00000000000E+00 0.  1.
        -15    1    3    3    0    0 -0.38269387975E+03 -0.38087824752E+03  0.10218848271E+03  0.54951372233E+03  0.00000000000E+00 0.  1.
         15    1    4    4    0    0  0.52225195709E+03  0.10235637221E+04  0.10530919521E+03  0.11539149996E+04  0.00000000000E+00 0. -1.
         15    1    1    2    0    0 -0.86644603788E+02 -0.47032897470E+03 -0.78881220523E+02  0.48470493990E+03  0.00000000000E+00 0. -1.
        -16    1    4    4    0    0  0.22471387210E+03  0.37533889652E+03  0.79821162670E+02  0.44468756399E+03  0.00000000000E+00 0.  1.
         16    1    1    2    0    0 -0.57765986016E+03  0.42628170091E+03  0.84170639701E+03  0.11062895920E+04  0.00000000000E+00 0. -1.
    9900018    1    1    2    0    0  0.31145807430E+03 -0.88915991446E+03  0.47891106964E+03  0.10607933241E+04  0.91187600000E+02 0.  0.
<mgrwt>
<rscale>  0 0.24927045E+04</rscale>
<asrwt>0</asrwt>
<pdfrwt beam="1">  1        2 0.48891642E+00 0.40044332E+04</pdfrwt>
<pdfrwt beam="2">  1       -2 0.27250668E+00 0.40044332E+04</pdfrwt>
<totfact> 0.48156041E-02</totfact>
</mgrwt>
</event>
<event>
11    1  0.6335517E-011  0.5103987E+04  0.7818608E-02  0.8163409E-01
          2   -1    0    0  501    0  0.00000000000E+00  0.00000000000E+00  0.22329654363E+04  0.22329654363E+04  0.00000000000E+00 0. -1.
         -2   -1    0    0    0  501 -0.00000000000E+00 -0.00000000000E+00 -0.43433942732E+04  0.43433942732E+04  0.00000000000E+00 0.  1.
    9900016    2    1    2    0    0  0.10350467383E+04 -0.14978992755E+04 -0.31962428019E+03  0.26068172650E+04  0.18380186568E+04 0.  0.
        -24    2    3    3    0    0  0.97022424937E+03 -0.18409522433E+04 -0.59064204074E+03  0.21648467680E+04  0.85224718391E+02 0.  0.
        -15    1    1    2    0    0  0.24788445824E+03 -0.37093567118E+03 -0.64229436652E+03  0.78203710274E+03  0.00000000000E+00 0.  1.
        -15    1    3    3    0    0  0.64822488940E+02  0.34305296772E+03  0.27101776054E+03  0.44197049705E+03  0.00000000000E+00 0.  1.
         15    1    1    2    0    0  0.28039062098E+03  0.32561234019E+03 -0.38440551969E+03  0.57654999782E+03  0.00000000000E+00 0. -1.
         15    1    4    4    0    0  0.55309925862E+03 -0.97213552036E+03 -0.29388346718E+03  0.11564314732E+04  0.00000000000E+00 0. -1.
        -16    1    4    4    0    0  0.41712499075E+03 -0.86881672289E+03 -0.29675857356E+03  0.10084152948E+04  0.00000000000E+00 0.  1.
         16    1    1    2    0    0 -0.10117403018E+04  0.11215242222E+04  0.81977399902E+02  0.15126649707E+04  0.00000000000E+00 0. -1.
    9900018    1    1    2    0    0 -0.55158151570E+03  0.42169838432E+03 -0.84608207037E+03  0.10982903733E+04  0.91187600000E+02 0.  0.
<mgrwt>
<rscale>  0 0.32979841E+04</rscale>
<asrwt>0</asrwt>
<pdfrwt beam="1">  1        2 0.34353315E+00 0.51039869E+04</pdfrwt>
<pdfrwt beam="2">  1       -2 0.66821450E+00 0.51039869E+04</pdfrwt>
<totfact> 0.10179851E-03</totfact>
</mgrwt>
</event>
<event>
11    1  0.6335517E-011  0.4660682E+04  0.7818608E-02  0.8041583E-01
         -1   -1    0    0    0  501 -0.00000000000E+00  0.00000000000E+00  0.39017702265E+04  0.39017702265E+04  0.00000000000E+00 0.  1.
          1   -1    0    0  501    0  0.00000000000E+00 -0.00000000000E+00 -0.29585614644E+04  0.29585614644E+04  0.00000000000E+00 0. -1.
    9900016    2    1    2    0    0 -0.51145061783E+02 -0.24332176442E+03  0.15128796808E+03  0.18696256587E+04  0.18468326281E+04 0.  0.
        -24    2    3    3    0    0 -0.78387054647E+03 -0.60103688623E+03 -0.14644973930E+03  0.10015850568E+04  0.77632000796E+02 0.  0.
        -15    1    1    2    0    0 -0.22650479065E+03  0.14659087226E+04  0.29915963284E+03  0.15131719298E+04  0.00000000000E+00 0.  1.
        -15    1    3    3    0    0  0.73272548469E+03  0.35771512181E+03  0.29773770738E+03  0.86804060198E+03  0.00000000000E+00 0.  1.
         15    1    4    4    0    0 -0.44853767938E+03 -0.38106237168E+03 -0.11148705053E+03  0.59901915109E+03  0.00000000000E+00 0. -1.
         15    1    1    2    0    0  0.11871917348E+03  0.50187036891E+03 -0.29310134232E+03  0.59319179547E+03  0.00000000000E+00 0. -1.
        -16    1    4    4    0    0 -0.33533286709E+03 -0.21997451455E+03 -0.34962688773E+02  0.40256590567E+03  0.00000000000E+00 0.  1.
         16    1    1    2    0    0  0.42775844818E+03 -0.19793626862E+04  0.11734527736E+04  0.23404797255E+04  0.00000000000E+00 0. -1.
    9900018    1    1    2    0    0 -0.26882776923E+03  0.25490535909E+03 -0.38759027011E+03  0.54386258143E+03  0.91187600000E+02 0.  0.
<mgrwt>
<rscale>  0 0.38213782E+04</rscale>
<asrwt>0</asrwt>
<pdfrwt beam="1">  1        1 0.45516330E+00 0.46606824E+04</pdfrwt>
<pdfrwt beam="2">  1       -1 0.60027234E+00 0.46606824E+04</pdfrwt>
<totfact> 0.19790806E-04</totfact>
</mgrwt>
</event>
<event>
11    1  0.6335517E-011  0.3495323E+04  0.7818608E-02  0.8296888E-01
          2   -1    0    0  501    0  0.00000000000E+00  0.00000000000E+00  0.25157148192E+04  0.25157148192E+04  0.00000000000E+00 0. -1.
         -2   -1    0    0    0  501 -0.00000000000E+00 -0.00000000000E+00 -0.26086874740E+04  0.26086874740E+04  0.00000000000E+00 0.  1.
    9900016    2    1    2    0    0 -0.43809010181E+03 -0.14968850675E+03 -0.70465215135E+03  0.20313730960E+04  0.18481375529E+04 0.  0.
        -24    2    3    3    0    0 -0.37164925209E+03  0.28736042261E+03 -0.12449355842E+04  0.13332811673E+04  0.84112325027E+02 0.  0.
        -15    1    3    3    0    0 -0.66440849719E+02 -0.43704892936E+03  0.54028343284E+03  0.69809192874E+03  0.00000000000E+00 0.  1.
        -15    1    1    2    0    0  0.45520562928E+03  0.73634688801E+03 -0.74088119978E+03  0.11394401505E+04  0.00000000000E+00 0.  1.
         15    1    1    2    0    0 -0.38153601654E+03 -0.19417711003E+03  0.15376756642E+03  0.45488344272E+03  0.00000000000E+00 0. -1.
         15    1    4    4    0    0 -0.22384086827E+03  0.16155843754E+03 -0.61486179100E+03  0.67398878705E+03  0.00000000000E+00 0. -1.
        -16    1    4    4    0    0 -0.14780838382E+03  0.12580198507E+03 -0.63007379319E+03  0.65929238024E+03  0.00000000000E+00 0.  1.
         16    1    1    2    0    0  0.52542864774E+03 -0.14462322623E+03  0.52225138652E+03  0.75480967943E+03  0.00000000000E+00 0. -1.
    9900018    1    1    2    0    0 -0.16100815868E+03 -0.24785804500E+03  0.67654174334E+03  0.74389592451E+03  0.91187600000E+02 0.  0.
<mgrwt>
<rscale>  0 0.28206441E+04</rscale>
<asrwt>0</asrwt>
<pdfrwt beam="1">  1        2 0.38703305E+00 0.34953226E+04</pdfrwt>
<pdfrwt beam="2">  1       -2 0.40133653E+00 0.34953226E+04</pdfrwt>
<totfact> 0.19375017E-02</totfact>
</mgrwt>
</event>
<event>
11    1  0.6335517E-011  0.2623552E+04  0.7818608E-02  0.8662763E-01
          1   -1    0    0  501    0  0.00000000000E+00  0.00000000000E+00  0.97435015773E+03  0.97435015773E+03  0.00000000000E+00 0. -1.
         -1   -1    0    0    0  501 -0.00000000000E+00 -0.00000000000E+00 -0.28415619311E+04  0.28415619311E+04  0.00000000000E+00 0.  1.
    9900016    2    1    2    0    0 -0.36402501402E+02 -0.49157381557E+03 -0.90739132718E+03  0.21154496813E+04  0.18462931445E+04 0.  0.
        -24    2    3    3    0    0  0.70576543149E+03  0.34707338938E+03 -0.37762678563E+03  0.87658211597E+03  0.85026083687E+02 0.  0.
        -15    1    1    2    0    0  0.34222870650E+03  0.25276154093E+03 -0.44119133766E+03  0.61291001016E+03  0.00000000000E+00 0.  1.
        -15    1    3    3    0    0 -0.74216793289E+03 -0.83864720495E+03 -0.52976454155E+03  0.12388675653E+04  0.00000000000E+00 0.  1.
         15    1    4    4    0    0  0.57128669206E+03  0.24595324875E+03 -0.31348136129E+03  0.69651421304E+03  0.00000000000E+00 0. -1.
         15    1    1    2    0    0 -0.29145059556E+02  0.10405880829E+02  0.14283702930E+03  0.14615106497E+03  0.00000000000E+00 0. -1.
        -16    1    4    4    0    0  0.13447873943E+03  0.10112014063E+03 -0.64145424338E+02  0.18006790293E+03  0.00000000000E+00 0.  1.
         16    1    1    2    0    0 -0.39500395989E+03 -0.79562424403E+00 -0.41894602498E+03  0.57579903890E+03  0.00000000000E+00 0. -1.
    9900018    1    1    2    0    0  0.11832281436E+03  0.22920201806E+03 -0.24252011282E+03  0.36560229348E+03  0.91187600000E+02 0.  0.
<mgrwt>
<rscale>  0 0.18841957E+04</rscale>
<asrwt>0</asrwt>
<pdfrwt beam="1">  1        1 0.14990002E+00 0.26235519E+04</pdfrwt>
<pdfrwt beam="2">  1       -1 0.43716338E+00 0.26235519E+04</pdfrwt>
<totfact> 0.54198903E-02</totfact>
</mgrwt>
</event>
<event>
11    1  0.6335517E-011  0.4034956E+04  0.7818608E-02  0.8088687E-01
          2   -1    0    0  501    0  0.00000000000E+00  0.00000000000E+00  0.45045960668E+04  0.45045960668E+04  0.00000000000E+00 0.  1.
         -2   -1    0    0    0  501 -0.00000000000E+00 -0.00000000000E+00 -0.25987662776E+04  0.25987662776E+04  0.00000000000E+00 0. -1.
    9900016    2    1    2    0    0 -0.79497915038E+03  0.96692582800E+03  0.63115401973E+03  0.23368806737E+04  0.18696840589E+04 0.  0.
         24    2    3    3    0    0  0.41499529935E+03 -0.27730053841E+03  0.23117564367E+03  0.55583600240E+03  0.79967469931E+02 0.  0.
        -15    1    1    2    0    0 -0.73959237826E+03  0.64683700268E+02 -0.11694039523E+03  0.75156897428E+03  0.00000000000E+00 0.  1.
        -15    1    4    4    0    0  0.30519485392E+03 -0.18831522226E+03  0.20175531822E+03  0.41147506635E+03  0.00000000000E+00 0.  1.
         15    1    3    3    0    0 -0.12099744497E+04  0.12442263664E+04  0.39997837606E+03  0.17810446713E+04  0.00000000000E+00 0. -1.
         15    1    1    2    0    0  0.18240346127E+04  0.15999280397E+03 -0.15794607072E+02  0.18311060688E+04  0.00000000000E+00 0. -1.
        -16    1    1    2    0    0 -0.13710173734E+03 -0.10979798095E+04  0.15732684916E+04  0.19234163083E+04  0.00000000000E+00 0.  1.
         16    1    4    4    0    0  0.10980044543E+03 -0.88985316151E+02  0.29420325444E+02  0.14436093605E+03  0.00000000000E+00 0. -1.
    9900018    1    1    2    0    0 -0.15236134674E+03 -0.93622522741E+02 -0.16585771984E+03  0.26039031927E+03  0.91187600000E+02 0.  0.
<mgrwt>
<rscale>  0 0.36078871E+04</rscale>
<asrwt>0</asrwt>
<pdfrwt beam="1">  1        2 0.69301478E+00 0.40349557E+04</pdfrwt>
<pdfrwt beam="2">  1       -2 0.39981020E+00 0.40349557E+04</pdfrwt>
<totfact> 0.65468817E-04</totfact>
</mgrwt>
</event>
<event>
11    1  0.6335517E-011  0.3410563E+04  0.7818608E-02  0.8244515E-01
         -2   -1    0    0    0  501 -0.00000000000E+00  0.00000000000E+00  0.24735840181E+04  0.24735840181E+04  0.00000000000E+00 0.  1.
          2   -1    0    0  501    0  0.00000000000E+00 -0.00000000000E+00 -0.33322522670E+04  0.33322522670E+04  0.00000000000E+00 0. -1.
    9900016    2    1    2    0    0 -0.34925873113E+03 -0.26673207979E+03 -0.66314412363E+03  0.19588980052E+04  0.17900820100E+04 0.  0.
        -24    2    3    3    0    0 -0.81602979244E+03 -0.18645142577E+03  0.29419996426E+03  0.89080254617E+03  0.79415369884E+02 0.  0.
        -15    1    3    3    0    0  0.46677106132E+03 -0.80280654016E+02 -0.95734408788E+03  0.10680954591E+04  0.00000000000E+00 0.  1.
        -15    1    1    2    0    0  0.16959320054E+04  0.32409479635E+03  0.52503200721E+03  0.18046831890E+04  0.00000000000E+00 0.  1.
         15    1    1    2    0    0 -0.20019818918E+03  0.22843096860E+03  0.38042786238E+02  0.30611644182E+03  0.00000000000E+00 0. -1.
         15    1    4    4    0    0 -0.54088990524E+03 -0.15239989415E+03  0.22289238783E+03  0.60454001843E+03  0.00000000000E+00 0. -1.
        -16    1    4    4    0    0 -0.27513988720E+03 -0.34051531624E+02  0.71307576423E+02  0.28626252774E+03  0.00000000000E+00 0.  1.
         16    1    1    2    0    0 -0.11124220266E+04 -0.54796661069E+03 -0.76383163827E+03  0.14564302055E+04  0.00000000000E+00 0. -1.
    9900018    1    1    2    0    0 -0.34053058477E+02  0.26217292553E+03  0.52327195113E+01  0.27970844360E+03  0.91187600000E+02 0.  0.
<mgrwt>
<rscale>  0 0.29972567E+04</rscale>
<asrwt>0</asrwt>
<pdfrwt beam="1">  1        2 0.51265419E+00 0.34105634E+04</pdfrwt>
<pdfrwt beam="2">  1       -2 0.38055139E+00 0.34105634E+04</pdfrwt>
<totfact> 0.81474001E-03</totfact>
</mgrwt>
</event>
<event>
11    1  0.6335517E-011  0.3094081E+04  0.7818608E-02  0.8582315E-01
         -1   -1    0    0    0  501 -0.00000000000E+00  0.00000000000E+00  0.24981146719E+04  0.24981146719E+04  0.00000000000E+00 0.  1.
          1   -1    0    0  501    0  0.00000000000E+00 -0.00000000000E+00 -0.18982345175E+04  0.18982345175E+04  0.00000000000E+00 0. -1.
    9900016    2    1    2    0    0 -0.52836008685E+03  0.23038623086E+03 -0.62181188613E+03  0.20297162505E+04  0.18441409489E+04 0.  0.
         24    2    3    3    0    0  0.34602631040E+03 -0.54062554910E+02  0.47677637785E+03  0.59711063239E+03  0.81045823501E+02 0.  0.
        -15    1    1    2    0    0 -0.18565329205E+03  0.46286568054E+03  0.25413107181E+03  0.55972706270E+03  0.00000000000E+00 0.  1.
        -15    1    4    4    0    0  0.16723968246E+03 -0.57494128057E+02  0.28046375137E+03  0.33156387315E+03  0.00000000000E+00 0.  1.
         15    1    1    2    0    0  0.22790061853E+03 -0.95911384085E+02  0.66448907211E+03  0.70900170132E+03  0.00000000000E+00 0. -1.
         15    1    3    3    0    0 -0.87438639725E+03  0.28444878577E+03 -0.10985882640E+04  0.14326056182E+04  0.00000000000E+00 0. -1.
        -16    1    1    2    0    0  0.44300673394E+02 -0.32372199207E+03  0.44449201655E+03  0.55166260575E+03  0.00000000000E+00 0.  1.
         16    1    4    4    0    0  0.17878662794E+03  0.34315731478E+01  0.19631262648E+03  0.26554675924E+03  0.00000000000E+00 0. -1.
    9900018    1    1    2    0    0  0.44181208698E+03 -0.27361853525E+03 -0.14142011995E+03  0.54624156904E+03  0.91187600000E+02 0.  0.
<mgrwt>
<rscale>  0 0.20528225E+04</rscale>
<asrwt>0</asrwt>
<pdfrwt beam="1">  1        1 0.29203608E+00 0.30940808E+04</pdfrwt>
<pdfrwt beam="2">  1       -1 0.38432534E+00 0.30940808E+04</pdfrwt>
<totfact> 0.25989867E-02</totfact>
</mgrwt>
</event>
<event>
11    1  0.6335517E-011  0.3094523E+04  0.7818608E-02  0.8357777E-01
         -2   -1    0    0    0  501 -0.00000000000E+00  0.00000000000E+00  0.25101329438E+04  0.25101329438E+04  0.00000000000E+00 0.  1.
          2   -1    0    0  501    0  0.00000000000E+00 -0.00000000000E+00 -0.23250503924E+04  0.23250503924E+04  0.00000000000E+00 0. -1.
    9900016    2    1    2    0    0  0.56431316155E+03  0.71244511764E+03  0.10174911407E+04  0.22955756348E+04  0.18461722248E+04 0.  0.
        -24    2    3    3    0    0  0.11379931568E+04  0.16582384101E+03  0.96143757484E+03  0.15011918741E+04  0.81785459630E+02 0.  0.
        -15    1    1    2    0    0 -0.69703991098E+03 -0.10851841869E+04 -0.85245475137E+02  0.12925773277E+04  0.00000000000E+00 0.  1.
        -15    1    3    3    0    0 -0.57367999524E+03  0.54662127663E+03  0.56053565873E+02  0.79438376069E+03  0.00000000000E+00 0.  1.
         15    1    1    2    0    0 -0.90100325651E+02  0.99051077115E+02 -0.36039032266E+03  0.38446114137E+03  0.00000000000E+00 0. -1.
         15    1    4    4    0    0  0.72735407459E+03  0.66585350634E+02  0.61648671074E+03  0.95578942413E+03  0.00000000000E+00 0. -1.
        -16    1    4    4    0    0  0.41063908220E+03  0.99238490376E+02  0.34495086410E+03  0.54540244998E+03  0.00000000000E+00 0.  1.
         16    1    1    2    0    0  0.44704023524E+03  0.17037690423E+03 -0.13201207728E+03  0.49628666108E+03  0.00000000000E+00 0. -1.
    9900018    1    1    2    0    0 -0.22421316017E+03  0.10331108795E+03 -0.25476071428E+03  0.36628257128E+03  0.91187600000E+02 0.  0.
<mgrwt>
<rscale>  0 0.26309084E+04</rscale>
<asrwt>0</asrwt>
<pdfrwt beam="1">  1        2 0.35770006E+00 0.30945231E+04</pdfrwt>
<pdfrwt beam="2">  1       -2 0.38617430E+00 0.30945231E+04</pdfrwt>
<totfact> 0.32339479E-02</totfact>
</mgrwt>
</event>
<event>
11    1  0.6335517E-011  0.3195862E+04  0.7818608E-02  0.8290492E-01
          2   -1    0    0  501    0  0.00000000000E+00  0.00000000000E+00  0.20925913978E+04  0.20925913978E+04  0.00000000000E+00 0. -1.
         -2   -1    0    0    0  501 -0.00000000000E+00 -0.00000000000E+00 -0.32219473998E+04  0.32219473998E+04  0.00000000000E+00 0.  1.
    9900016    2    1    2    0    0 -0.22677918639E+03  0.73415339666E+03 -0.13211681518E+04  0.23994255893E+04  0.18496885856E+04 0.  0.
        -24    2    3    3    0    0 -0.89630987861E+03  0.88891143613E+03 -0.11038738330E+04  0.16787049641E+04  0.77317381294E+02 0.  0.
        -15    1    3    3    0    0  0.66953069222E+03 -0.15475803947E+03 -0.21729431885E+03  0.72072062522E+03  0.00000000000E+00 0.  1.
        -15    1    1    2    0    0 -0.81802226078E+03 -0.85588187728E+03  0.18595270470E+03  0.11984459168E+04  0.00000000000E+00 0.  1.
         15    1    1    2    0    0  0.54852277710E+03 -0.16141254470E+03 -0.62393697242E+03  0.84630289621E+03  0.00000000000E+00 0. -1.
         15    1    4    4    0    0 -0.72767063138E+03  0.75917435211E+03 -0.90302883445E+03  0.13861137473E+04  0.00000000000E+00 0. -1.
        -16    1    4    4    0    0 -0.16863924724E+03  0.12973708401E+03 -0.20084499854E+03  0.29259121674E+03  0.00000000000E+00 0.  1.
         16    1    1    2    0    0  0.29438548883E+03  0.17153895398E+03  0.44790716717E+03  0.56276927703E+03  0.00000000000E+00 0. -1.
    9900018    1    1    2    0    0  0.20189318124E+03  0.11160207134E+03  0.18188925043E+03  0.30759511825E+03  0.91187600000E+02 0.  0.
<mgrwt>
<rscale>  0 0.28415236E+04</rscale>
<asrwt>0</asrwt>
<pdfrwt beam="1">  1        2 0.32193714E+00 0.31958616E+04</pdfrwt>
<pdfrwt beam="2">  1       -2 0.49568422E+00 0.31958616E+04</pdfrwt>
<totfact> 0.82778034E-03</totfact>
</mgrwt>
</event>
<event>
11    1  0.6335517E-011  0.3925783E+04  0.7818608E-02  0.8422412E-01
          2   -1    0    0  501    0  0.00000000000E+00  0.00000000000E+00  0.22603547103E+04  0.22603547103E+04  0.00000000000E+00 0. -1.
         -2   -1    0    0    0  501 -0.00000000000E+00 -0.00000000000E+00 -0.29852070520E+04  0.29852070520E+04  0.00000000000E+00 0.  1.
    9900016    2    1    2    0    0 -0.49947129752E+03 -0.21100963255E+02 -0.13025725454E+04  0.23132508845E+04  0.18451334886E+04 0.  0.
         24    2    3    3    0    0 -0.28047870156E+03  0.66602521190E+03 -0.14078941795E+04  0.15844211484E+04  0.77242927235E+02 0.  0.
        -15    1    4    4    0    0 -0.19325658697E+03  0.38749505528E+03 -0.89659254576E+03  0.99568002862E+03  0.00000000000E+00 0.  1.
        -15    1    1    2    0    0 -0.37064235960E+03 -0.98924596062E+02  0.42418853645E+03  0.57192460070E+03  0.00000000000E+00 0.  1.
         15    1    3    3    0    0 -0.21899259596E+03 -0.68712617515E+03  0.10532163409E+03  0.72882973613E+03  0.00000000000E+00 0. -1.
         15    1    1    2    0    0 -0.89701850857E+01  0.18759116445E+03  0.40894063581E+03  0.45000372533E+03  0.00000000000E+00 0. -1.
        -16    1    1    2    0    0  0.11492572639E+04 -0.37356744236E+03 -0.61757650020E+03  0.13571092905E+04  0.00000000000E+00 0.  1.
         16    1    4    4    0    0 -0.87222114589E+02  0.27853015661E+03 -0.51130163374E+03  0.58874111974E+03  0.00000000000E+00 0. -1.
    9900018    1    1    2    0    0 -0.27017342174E+03  0.30600183723E+03  0.36216753167E+03  0.55327326123E+03  0.91187600000E+02 0.  0.
<mgrwt>
<rscale>  0 0.24461856E+04</rscale>
<asrwt>0</asrwt>
<pdfrwt beam="1">  1        2 0.34774688E+00 0.39257831E+04</pdfrwt>
<pdfrwt beam="2">  1       -2 0.45926262E+00 0.39257831E+04</pdfrwt>
<totfact> 0.10966988E-02</totfact>
</mgrwt>
</event>
<event>
11    1  0.6335517E-011  0.4423570E+04  0.7818608E-02  0.8135363E-01
         -1   -1    0    0    0  501 -0.00000000000E+00  0.00000000000E+00  0.33729906371E+04  0.33729906371E+04  0.00000000000E+00 0.  1.
          1   -1    0    0  501    0  0.00000000000E+00 -0.00000000000E+00 -0.30245022710E+04  0.30245022710E+04  0.00000000000E+00 0. -1.
    9900016    2    1    2    0    0  0.53556431411E+03 -0.54221143236E+03  0.17590431298E+04  0.26652231184E+04  0.18515828814E+04 0.  0.
         24    2    3    3    0    0 -0.22173616545E+03 -0.81065073880E+03  0.13716825635E+03  0.85523920063E+03  0.79356237058E+02 0.  0.
        -15    1    4    4    0    0 -0.13950250216E+02 -0.16679583814E+03  0.19158359722E+02  0.16847107719E+03  0.00000000000E+00 0.  1.
        -15    1    1    2    0    0 -0.27542824716E+03  0.14252629410E+03 -0.22906751660E+03  0.38554687265E+03  0.00000000000E+00 0.  1.
         15    1    1    2    0    0 -0.92142066144E+03 -0.84315584978E+03 -0.66796875055E+03  0.14163721524E+04  0.00000000000E+00 0. -1.
         15    1    3    3    0    0  0.75730047956E+03  0.26843930644E+03  0.16218748734E+04  0.18099839178E+04  0.00000000000E+00 0. -1.
        -16    1    1    2    0    0  0.17229600411E+03  0.10504475977E+04 -0.79378633371E+03  0.13278640037E+04  0.00000000000E+00 0.  1.
         16    1    4    4    0    0 -0.20778591524E+03 -0.64385490066E+03  0.11800989663E+03  0.68676812344E+03  0.00000000000E+00 0. -1.
    9900018    1    1    2    0    0  0.48898859038E+03  0.19239339030E+03  0.28026783723E+03  0.60248676096E+03  0.91187600000E+02 0.  0.
<mgrwt>
<rscale>  0 0.34103829E+04</rscale>
<asrwt>0</asrwt>
<pdfrwt beam="1">  1        1 0.46530804E+00 0.44235696E+04</pdfrwt>
<pdfrwt beam="2">  1       -1 0.51892163E+00 0.44235696E+04</pdfrwt>
<totfact> 0.46529625E-04</totfact>
</mgrwt>
</event>
<event>
11    1  0.6335517E-011  0.3492926E+04  0.7818608E-02  0.8460996E-01
         -1   -1    0    0    0  501 -0.00000000000E+00  0.00000000000E+00  0.11403236449E+04  0.11403236449E+04  0.00000000000E+00 0.  1.
          1   -1    0    0  501    0  0.00000000000E+00 -0.00000000000E+00 -0.42269135824E+04  0.42269135824E+04  0.00000000000E+00 0. -1.
    9900016    2    1    2    0    0 -0.34802788415E+02  0.77286329493E+03 -0.24019530861E+04  0.31301843871E+04  0.18520655394E+04 0.  0.
         24    2    3    3    0    0 -0.29432105320E+03  0.13273782975E+04 -0.19041859130E+04  0.23411287639E+04  0.80011690412E+02 0.  0.
        -15    1    1    2    0    0  0.32566919587E+02 -0.16721290859E+03 -0.42245925374E+01  0.17040718363E+03  0.00000000000E+00 0.  1.
        -15    1    4    4    0    0 -0.16115754855E+03  0.87353245972E+03 -0.12060930767E+04  0.14978955982E+04  0.00000000000E+00 0.  1.
         15    1    3    3    0    0  0.25951826478E+03 -0.55451500260E+03 -0.49776717313E+03  0.78905562320E+03  0.00000000000E+00 0. -1.
         15    1    1    2    0    0  0.15798500120E+02  0.53703324788E+03  0.16235749546E+01  0.53726803174E+03  0.00000000000E+00 0. -1.
        -16    1    1    2    0    0  0.17772454204E+03 -0.11418451393E+04 -0.55108764439E+03  0.12802710364E+04  0.00000000000E+00 0.  1.
         16    1    4    4    0    0 -0.13316350464E+03  0.45384583781E+03 -0.69809283632E+03  0.84323316561E+03  0.00000000000E+00 0. -1.
    9900018    1    1    2    0    0 -0.19128717333E+03 -0.83849497170E+00 -0.13094818940E+03  0.24910658854E+03  0.91187600000E+02 0.  0.
<mgrwt>
<rscale>  0 0.23434181E+04</rscale>
<asrwt>0</asrwt>
<pdfrwt beam="1">  1        1 0.65029440E+00 0.34929258E+04</pdfrwt>
<pdfrwt beam="2">  1       -1 0.17543441E+00 0.34929258E+04</pdfrwt>
<totfact> 0.10635209E-02</totfact>
</mgrwt>
</event>
<event>
11    1  0.6335517E-011  0.4454934E+04  0.7818608E-02  0.8121211E-01
         -2   -1    0    0    0  501 -0.00000000000E+00  0.00000000000E+00  0.24737265272E+04  0.24737265272E+04  0.00000000000E+00 0.  1.
          2   -1    0    0  501    0  0.00000000000E+00 -0.00000000000E+00 -0.43392696914E+04  0.43392696914E+04  0.00000000000E+00 0. -1.
    9900016    2    1    2    0    0  0.20276211900E+03 -0.10365320701E+04 -0.20973923754E+03  0.21257389430E+04  0.18328295874E+04 0.  0.
         24    2    3    3    0    0 -0.73317647944E+03 -0.44536790267E+03  0.29290510664E+03  0.90996451089E+03  0.79634734059E+02 0.  0.
        -15    1    4    4    0    0 -0.32122248588E+03 -0.23045447521E+03  0.16189807872E+03  0.42720503096E+03  0.00000000000E+00 0.  1.
        -15    1    1    2    0    0 -0.17200928902E+03 -0.10698358085E+03 -0.31043472897E+03  0.37067830127E+03  0.00000000000E+00 0.  1.
         15    1    1    2    0    0  0.13563421029E+04 -0.43368119114E+03 -0.13814931541E+04  0.19840026740E+04  0.00000000000E+00 0. -1.
         15    1    3    3    0    0  0.93593859844E+03 -0.59116416745E+03 -0.50264434418E+03  0.12157744321E+04  0.00000000000E+00 0. -1.
        -16    1    1    2    0    0 -0.12148475166E+04  0.82462469990E+03  0.32396462401E+03  0.15036001669E+04  0.00000000000E+00 0.  1.
         16    1    4    4    0    0 -0.41195399356E+03 -0.21491342746E+03  0.13100702791E+03  0.48275947994E+03  0.00000000000E+00 0. -1.
    9900018    1    1    2    0    0 -0.17224741624E+03  0.75257214221E+03 -0.28784066761E+03  0.82897613353E+03  0.91187600000E+02 0.  0.
<mgrwt>
<rscale>  0 0.34688562E+04</rscale>
<asrwt>0</asrwt>
<pdfrwt beam="1">  1        2 0.66757994E+00 0.44549335E+04</pdfrwt>
<pdfrwt beam="2">  1       -2 0.38057332E+00 0.44549335E+04</pdfrwt>
<totfact> 0.12284923E-03</totfact>
</mgrwt>
</event>
<event>
11    1  0.6335517E-011  0.4831973E+04  0.7818608E-02  0.8379695E-01
         -2   -1    0    0    0  501 -0.00000000000E+00  0.00000000000E+00  0.30539566819E+04  0.30539566819E+04  0.00000000000E+00 0.  1.
          2   -1    0    0  501    0  0.00000000000E+00 -0.00000000000E+00 -0.22870598243E+04  0.22870598243E+04  0.00000000000E+00 0. -1.
    9900016    2    1    2    0    0  0.11088676799E+04  0.31616498282E+03  0.36715056843E+03  0.22065917909E+04  0.18451829079E+04 0.  0.
        -24    2    3    3    0    0  0.37447498406E+03 -0.60545321369E+02  0.10600706249E+04  0.11289176798E+04  0.82511504355E+02 0.  0.
        -15    1    3    3    0    0  0.73439269583E+03  0.37671030419E+03 -0.69292005647E+03  0.10776741111E+04  0.00000000000E+00 0.  1.
        -15    1    1    2    0    0  0.16280304520E+03 -0.15605189951E+03  0.60360053103E+02  0.23345312780E+03  0.00000000000E+00 0.  1.
         15    1    1    2    0    0 -0.64717270426E+02  0.58448440458E+02  0.23735247609E+03  0.25286506914E+03  0.00000000000E+00 0. -1.
         15    1    4    4    0    0  0.17536546801E+03 -0.47660167418E+02  0.61242711554E+03  0.63882040573E+03  0.00000000000E+00 0. -1.
        -16    1    4    4    0    0  0.19910951605E+03 -0.12885153951E+02  0.44764350936E+03  0.49009727407E+03  0.00000000000E+00 0.  1.
         16    1    1    2    0    0 -0.15629130345E+04 -0.82202615155E+02 -0.73107765881E+03  0.17274052699E+04  0.00000000000E+00 0. -1.
    9900018    1    1    2    0    0  0.35595957980E+03 -0.13635890861E+03  0.83311141881E+03  0.92070124848E+03  0.91187600000E+02 0.  0.
<mgrwt>
<rscale>  0 0.25664295E+04</rscale>
<asrwt>0</asrwt>
<pdfrwt beam="1">  1        2 0.35185536E+00 0.48319729E+04</pdfrwt>
<pdfrwt beam="2">  1       -2 0.46983949E+00 0.48319729E+04</pdfrwt>
<totfact> 0.86334291E-03</totfact>
</mgrwt>
</event>
<event>
11    1  0.6335517E-011  0.3195284E+04  0.7818608E-02  0.8591596E-01
         -2   -1    0    0    0  501 -0.00000000000E+00  0.00000000000E+00  0.13771672111E+04  0.13771672111E+04  0.00000000000E+00 0.  1.
          2   -1    0    0  501    0  0.00000000000E+00 -0.00000000000E+00 -0.25503241318E+04  0.25503241318E+04  0.00000000000E+00 0. -1.
    9900016    2    1    2    0    0  0.42198598881E+02 -0.49765333916E+03 -0.74097320079E+03  0.20483634320E+04  0.18431798332E+04 0.  0.
         24    2    3    3    0    0  0.68835358580E+03 -0.68562318116E+03  0.90403059408E+02  0.97876752010E+03  0.76833193494E+02 0.  0.
        -15    1    1    2    0    0 -0.80856562103E+02  0.32947637999E+02 -0.32276183174E+02  0.93086424817E+02  0.00000000000E+00 0.  1.
        -15    1    4    4    0    0  0.33760153091E+03 -0.37956726803E+03  0.24013047763E+02  0.50854963484E+03  0.00000000000E+00 0.  1.
         15    1    3    3    0    0 -0.64615498692E+03  0.18796984200E+03 -0.83137626020E+03  0.10695959119E+04  0.00000000000E+00 0. -1.
         15    1    1    2    0    0 -0.87177586449E+02 -0.42335438213E+03 -0.31284733203E+03  0.53357503465E+03  0.00000000000E+00 0. -1.
        -16    1    1    2    0    0  0.21243601331E+03  0.31388788573E+03  0.35320461800E+03  0.51808123566E+03  0.00000000000E+00 0.  1.
         16    1    4    4    0    0  0.35075205490E+03 -0.30605591313E+03  0.66390011645E+02  0.47021788526E+03  0.00000000000E+00 0. -1.
    9900018    1    1    2    0    0 -0.86600463637E+02  0.57417219756E+03 -0.44026482273E+03  0.73438521587E+03  0.91187600000E+02 0.  0.
<mgrwt>
<rscale>  0 0.20324528E+04</rscale>
<asrwt>0</asrwt>
<pdfrwt beam="1">  1        2 0.39235756E+00 0.31952838E+04</pdfrwt>
<pdfrwt beam="2">  1       -2 0.21187188E+00 0.31952838E+04</pdfrwt>
<totfact> 0.29953618E-01</totfact>
</mgrwt>
</event>
<event>
11    1  0.6335517E-011  0.3651663E+04  0.7818608E-02  0.8202766E-01
          2   -1    0    0  501    0  0.00000000000E+00  0.00000000000E+00  0.30042075120E+04  0.30042075120E+04  0.00000000000E+00 0. -1.
         -2   -1    0    0    0  501 -0.00000000000E+00 -0.00000000000E+00 -0.30553010383E+04  0.30553010383E+04  0.00000000000E+00 0.  1.
    9900016    2    1    2    0    0 -0.15912998880E+04  0.97988955439E+02  0.92914655269E+03  0.25976799979E+04  0.18283300813E+04 0.  0.
        -24    2    3    3    0    0 -0.64226311189E+03  0.93729761037E+03  0.60566309200E+03  0.12901053844E+04  0.80718068029E+02 0.  0.
        -15    1    3    3    0    0 -0.94903677613E+03 -0.83930865493E+03  0.32348346070E+03  0.13075746136E+04  0.00000000000E+00 0.  1.
        -15    1    1    2    0    0  0.45582875528E+03 -0.24558072321E+03 -0.11935309284E+04  0.13010018535E+04  0.00000000000E+00 0.  1.
         15    1    4    4    0    0 -0.39083988229E+03  0.50773523481E+03  0.36199542939E+03  0.73592905443E+03  0.00000000000E+00 0. -1.
         15    1    1    2    0    0  0.96160729302E+03  0.25330453933E+02  0.14273051486E+03  0.97247221953E+03  0.00000000000E+00 0. -1.
        -16    1    4    4    0    0 -0.25142322960E+03  0.42956237556E+03  0.24366766261E+03  0.55417632995E+03  0.00000000000E+00 0.  1.
         16    1    1    2    0    0 -0.11348391975E+03  0.42923278294E+03  0.43717632857E+03  0.62309110430E+03  0.00000000000E+00 0. -1.
    9900018    1    1    2    0    0  0.28734775947E+03 -0.30697146910E+03 -0.36661599407E+03  0.56526337509E+03  0.91187600000E+02 0.  0.
<mgrwt>
<rscale>  0 0.31477045E+04</rscale>
<asrwt>0</asrwt>
<pdfrwt beam="1">  1        2 0.46218577E+00 0.36516631E+04</pdfrwt>
<pdfrwt beam="2">  1       -2 0.47004631E+00 0.36516631E+04</pdfrwt>
<totfact> 0.33572167E-03</totfact>
</mgrwt>
</event>
<event>
11    1  0.6335517E-011  0.3037531E+04  0.7818608E-02  0.8545568E-01
          2   -1    0    0  501    0  0.00000000000E+00  0.00000000000E+00  0.24729178682E+04  0.24729178682E+04  0.00000000000E+00 0.  1.
         -2   -1    0    0    0  501 -0.00000000000E+00 -0.00000000000E+00 -0.16520317046E+04  0.16520317046E+04  0.00000000000E+00 0. -1.
    9900016    2    1    2    0    0 -0.40988029809E+02  0.24276140188E+03  0.30553637504E+03  0.18859101439E+04  0.18446385764E+04 0.  0.
        -24    2    3    3    0    0  0.29020402363E+03  0.98453779228E+03  0.30441264578E+03  0.10735545245E+04  0.79493511233E+02 0.  0.
        -15    1    1    2    0    0 -0.66972642699E+02 -0.17489204481E+03  0.77232349340E+03  0.79470506521E+03  0.00000000000E+00 0.  1.
        -15    1    3    3    0    0 -0.33119205344E+03 -0.74177639039E+03  0.11237292565E+01  0.81235561940E+03  0.00000000000E+00 0.  1.
         15    1    4    4    0    0  0.10521682387E+03  0.34129092685E+03  0.14541342374E+03  0.38561008880E+03  0.00000000000E+00 0. -1.
         15    1    1    2    0    0 -0.28126350753E+03 -0.77636597040E+02  0.21803525760E+02  0.29259527611E+03  0.00000000000E+00 0. -1.
        -16    1    4    4    0    0  0.18498719976E+03  0.64324686543E+03  0.15899922204E+03  0.68794443567E+03  0.00000000000E+00 0.  1.
         16    1    1    2    0    0  0.11852235695E+03  0.46102301056E+03 -0.37885715391E+03  0.60837694600E+03  0.00000000000E+00 0. -1.
    9900018    1    1    2    0    0  0.27070182308E+03 -0.45125577060E+03  0.10007992330E+03  0.54336214163E+03  0.91187600000E+02 0.  0.
<mgrwt>
<rscale>  0 0.21359548E+04</rscale>
<asrwt>0</asrwt>
<pdfrwt beam="1">  1        2 0.38044890E+00 0.30375314E+04</pdfrwt>
<pdfrwt beam="2">  1       -2 0.25415872E+00 0.30375314E+04</pdfrwt>
<totfact> 0.18066820E-01</totfact>
</mgrwt>
</event>
<event>
11    1  0.6335517E-011  0.2706284E+04  0.7818608E-02  0.8707487E-01
         -2   -1    0    0    0  501 -0.00000000000E+00  0.00000000000E+00  0.16991733932E+04  0.16991733932E+04  0.00000000000E+00 0.  1.
          2   -1    0    0  501    0  0.00000000000E+00 -0.00000000000E+00 -0.15493815714E+04  0.15493815714E+04  0.00000000000E+00 0. -1.
    9900016    2    1    2    0    0 -0.11124820714E+03  0.37092924378E+03  0.45341218248E+03  0.19359722836E+04  0.18418581400E+04 0.  0.
        -24    2    3    3    0    0  0.82734400187E+03  0.20512226152E+03 -0.50898715832E+02  0.85765100846E+03  0.80008333599E+02 0.  0.
        -15    1    3    3    0    0 -0.93859220901E+03  0.16580698225E+03  0.50431089832E+03  0.10783212751E+04  0.00000000000E+00 0.  1.
        -15    1    1    2    0    0 -0.42666900565E+02  0.10215351871E+03  0.24418608682E+02  0.11336698919E+03  0.00000000000E+00 0.  1.
         15    1    1    2    0    0 -0.29853739782E+03 -0.29009800480E+03  0.10294449437E+03  0.42881114632E+03  0.00000000000E+00 0. -1.
         15    1    4    4    0    0  0.71028539718E+03  0.17231257143E+03 -0.15576307711E+02  0.73105375253E+03  0.00000000000E+00 0. -1.
        -16    1    4    4    0    0  0.11705860469E+03  0.32809690089E+02 -0.35322408120E+02  0.12659725593E+03  0.00000000000E+00 0.  1.
         16    1    1    2    0    0  0.49099446485E+03 -0.19289832153E+03 -0.41145055202E+03  0.66901187114E+03  0.00000000000E+00 0. -1.
    9900018    1    1    2    0    0 -0.38541959327E+02  0.99135638439E+01 -0.19532911716E+02  0.10139267434E+03  0.91187600000E+02 0.  0.
<mgrwt>
<rscale>  0 0.17977694E+04</rscale>
<asrwt>0</asrwt>
<pdfrwt beam="1">  1        2 0.23836639E+00 0.27062839E+04</pdfrwt>
<pdfrwt beam="2">  1       -2 0.26141129E+00 0.27062839E+04</pdfrwt>
<totfact> 0.56084206E-01</totfact>
</mgrwt>
</event>
<event>
11    1  0.6335517E-011  0.3878064E+04  0.7818608E-02  0.8165745E-01
         -2   -1    0    0    0  501 -0.00000000000E+00  0.00000000000E+00  0.21210157408E+04  0.21210157408E+04  0.00000000000E+00 0.  1.
          2   -1    0    0  501    0  0.00000000000E+00 -0.00000000000E+00 -0.40889622724E+04  0.40889622724E+04  0.00000000000E+00 0. -1.
    9900016    2    1    2    0    0  0.67379667792E+03 -0.38271366009E+03 -0.33216346402E+03  0.20127464545E+04  0.18276608040E+04 0.  0.
         24    2    3    3    0    0  0.19255990224E+03 -0.10818250419E+04 -0.37279207163E+03  0.11630428343E+04  0.79183133377E+02 0.  0.
        -15    1    1    2    0    0 -0.41964228353E+03 -0.13574376537E+03  0.20481605727E+02  0.44152634365E+03  0.00000000000E+00 0.  1.
        -15    1    4    4    0    0  0.13039554966E+03 -0.69568900725E+03 -0.20039777832E+03  0.73562589931E+03  0.00000000000E+00 0.  1.
         15    1    1    2    0    0  0.14695162010E+04  0.44986665826E+03 -0.56021695384E+03  0.16357569840E+04  0.00000000000E+00 0. -1.
         15    1    3    3    0    0  0.48123677568E+03  0.69911138179E+03  0.40628607605E+02  0.84970362019E+03  0.00000000000E+00 0. -1.
        -16    1    1    2    0    0 -0.12897194524E+04 -0.14401292784E+03 -0.63056498270E+03  0.14428195268E+04  0.00000000000E+00 0.  1.
         16    1    4    4    0    0  0.62164352582E+02 -0.38613603463E+03 -0.17239429330E+03  0.42741693501E+03  0.00000000000E+00 0. -1.
    9900018    1    1    2    0    0 -0.43395114294E+03  0.21260369503E+03 -0.46548273681E+03  0.67712870436E+03  0.91187600000E+02 0.  0.
<mgrwt>
<rscale>  0 0.32888241E+04</rscale>
<asrwt>0</asrwt>
<pdfrwt beam="1">  1        2 0.62907112E+00 0.38780637E+04</pdfrwt>
<pdfrwt beam="2">  1       -2 0.32631012E+00 0.38780637E+04</pdfrwt>
<totfact> 0.47295509E-03</totfact>
</mgrwt>
</event>
<event>
11    1  0.6335517E-011  0.4015558E+04  0.7818608E-02  0.8339806E-01
          2   -1    0    0  501    0  0.00000000000E+00  0.00000000000E+00  0.26150404287E+04  0.26150404287E+04  0.00000000000E+00 0.  1.
         -2   -1    0    0    0  501 -0.00000000000E+00 -0.00000000000E+00 -0.22258508674E+04  0.22258508674E+04  0.00000000000E+00 0. -1.
    9900016    2    1    2    0    0 -0.97688334357E+03 -0.93603368826E+03  0.46502664298E+03  0.23213404599E+04  0.18280896092E+04 0.  0.
        -24    2    3    3    0    0 -0.13846467843E+04 -0.35564312756E+03  0.67317916014E+03  0.15821167475E+04  0.78704951595E+02 0.  0.
        -15    1    3    3    0    0  0.40776344076E+03 -0.58039056071E+03 -0.20815251717E+03  0.73922371240E+03  0.00000000000E+00 0.  1.
        -15    1    1    2    0    0  0.33540329898E+03 -0.24397123848E+03  0.13799156980E+03  0.43710297586E+03  0.00000000000E+00 0.  1.
         15    1    1    2    0    0  0.14930302989E+03  0.28949888601E+03 -0.16783099024E+03  0.36642631050E+03  0.00000000000E+00 0. -1.
         15    1    4    4    0    0 -0.21866653061E+02 -0.33827038595E+01  0.22049385696E+02  0.31237295194E+02  0.00000000000E+00 0. -1.
        -16    1    4    4    0    0 -0.13627801313E+04 -0.35226042370E+03  0.65112977445E+03  0.15508794523E+04  0.00000000000E+00 0.  1.
         16    1    1    2    0    0  0.19894445289E+03  0.12363541046E+04 -0.54408273493E+02  0.12534395189E+04  0.00000000000E+00 0. -1.
    9900018    1    1    2    0    0  0.29323256182E+03 -0.34584806391E+03  0.84106122418E+01  0.46258203101E+03  0.91187600000E+02 0.  0.
<mgrwt>
<rscale>  0 0.26852514E+04</rscale>
<asrwt>0</asrwt>
<pdfrwt beam="1">  1        2 0.40231392E+00 0.40155581E+04</pdfrwt>
<pdfrwt beam="2">  1       -2 0.34243859E+00 0.40155581E+04</pdfrwt>
<totfact> 0.39633831E-02</totfact>
</mgrwt>
</event>
<event>
11    1  0.6335517E-011  0.4074603E+04  0.7818608E-02  0.8312577E-01
          1   -1    0    0  501    0  0.00000000000E+00  0.00000000000E+00  0.27616679017E+04  0.27616679017E+04  0.00000000000E+00 0. -1.
         -1   -1    0    0    0  501 -0.00000000000E+00 -0.00000000000E+00 -0.22701693900E+04  0.22701693900E+04  0.00000000000E+00 0.  1.
    9900016    2    1    2    0    0  0.36959656272E+03 -0.54264456643E+02  0.84713528094E+03  0.20634530257E+04  0.18440862113E+04 0.  0.
        -24    2    3    3    0    0  0.27323043140E+03  0.84219270988E+03  0.10422632138E+03  0.89519123790E+03  0.80998747674E+02 0.  0.
        -15    1    1    2    0    0 -0.30403979764E+03 -0.22673396681E+03 -0.39076660564E+03  0.54456131917E+03  0.00000000000E+00 0.  1.
        -15    1    3    3    0    0  0.96366131326E+02 -0.89645716653E+03  0.74290895955E+03  0.11682617878E+04  0.00000000000E+00 0.  1.
         15    1    4    4    0    0  0.10538174753E+03  0.45449372210E+03  0.60645487291E+02  0.47047606875E+03  0.00000000000E+00 0. -1.
         15    1    1    2    0    0  0.52296416407E+02  0.30005591870E+03  0.17643166134E+03  0.35198948939E+03  0.00000000000E+00 0. -1.
        -16    1    4    4    0    0  0.16784868387E+03  0.38769898779E+03  0.43580834092E+02  0.42471516915E+03  0.00000000000E+00 0.  1.
         16    1    1    2    0    0 -0.17386726286E+03  0.21180461334E+03  0.93061828211E+03  0.97012442827E+03  0.00000000000E+00 0. -1.
    9900018    1    1    2    0    0  0.56014081370E+02 -0.23086210859E+03 -0.10719201070E+04  0.11017090291E+04  0.91187600000E+02 0.  0.
<mgrwt>
<rscale>  0 0.27702114E+04</rscale>
<asrwt>0</asrwt>
<pdfrwt beam="1">  1        1 0.42487198E+00 0.40746035E+04</pdfrwt>
<pdfrwt beam="2">  1       -1 0.34925683E+00 0.40746035E+04</pdfrwt>
<totfact> 0.10519357E-02</totfact>
</mgrwt>
</event>
<event>
11    1  0.6335517E-011  0.2914123E+04  0.7818608E-02  0.8595232E-01
         -1   -1    0    0    0  501 -0.00000000000E+00  0.00000000000E+00  0.23268670600E+04  0.23268670600E+04  0.00000000000E+00 0.  1.
          1   -1    0    0  501    0  0.00000000000E+00 -0.00000000000E+00 -0.13870126617E+04  0.13870126617E+04  0.00000000000E+00 0. -1.
    9900016    2    1    2    0    0  0.39119536475E+03  0.13190763185E+03  0.40608404727E+03  0.19260447356E+04  0.18369296756E+04 0.  0.
        -24    2    3    3    0    0 -0.11613069272E+03 -0.66259896120E+03  0.66428030279E+03  0.94865752401E+03  0.78479653490E+02 0.  0.
        -15    1    3    3    0    0  0.50732605747E+03  0.79450659304E+03 -0.25819625552E+03  0.97738721157E+03  0.00000000000E+00 0.  1.
        -15    1    1    2    0    0  0.17922714543E+03  0.13107341162E+03  0.34542626444E+03  0.41063598607E+03  0.00000000000E+00 0.  1.
         15    1    4    4    0    0 -0.20395794707E+02 -0.26407821030E+03  0.30137449812E+03  0.40122297755E+03  0.00000000000E+00 0. -1.
         15    1    1    2    0    0 -0.22546282976E+03  0.68348538980E+02 -0.17000146444E+03  0.29052626094E+03  0.00000000000E+00 0. -1.
        -16    1    4    4    0    0 -0.95734898012E+02 -0.39852075089E+03  0.36290580467E+03  0.54743454646E+03  0.00000000000E+00 0.  1.
         16    1    1    2    0    0 -0.62012184584E+03 -0.81167136266E+02  0.12348818206E+03  0.63748610871E+03  0.00000000000E+00 0. -1.
    9900018    1    1    2    0    0  0.27516216541E+03 -0.25016244619E+03  0.23485736894E+03  0.44918663036E+03  0.91187600000E+02 0.  0.
<mgrwt>
<rscale>  0 0.20245403E+04</rscale>
<asrwt>0</asrwt>
<pdfrwt beam="1">  1        1 0.21338656E+00 0.29141232E+04</pdfrwt>
<pdfrwt beam="2">  1       -1 0.35797955E+00 0.29141232E+04</pdfrwt>
<totfact> 0.90584376E-02</totfact>
</mgrwt>
</event>
<event>
11    1  0.6335518E-011  0.3293559E+04  0.7818608E-02  0.8449272E-01
         -1   -1    0    0    0  501 -0.00000000000E+00  0.00000000000E+00  0.17972350638E+04  0.17972350638E+04  0.00000000000E+00 0.  1.
          1   -1    0    0  501    0  0.00000000000E+00 -0.00000000000E+00 -0.28126960251E+04  0.28126960251E+04  0.00000000000E+00 0. -1.
    9900016    2    1    2    0    0  0.15512848824E+03  0.40487859583E+03 -0.79007726473E+03  0.20565395931E+04  0.18485511863E+04 0.  0.
        -24    2    3    3    0    0 -0.77082671852E+02  0.56443888631E+03 -0.13291507684E+04  0.14482783404E+04  0.79595172693E+02 0.  0.
        -15    1    1    2    0    0  0.38617788007E+03  0.16768815220E+03  0.13010656684E+03  0.44065904073E+03  0.00000000000E+00 0.  1.
        -15    1    3    3    0    0  0.23221116010E+03 -0.15956029049E+03  0.53907350366E+03  0.60826125269E+03  0.00000000000E+00 0.  1.
         15    1    1    2    0    0  0.83817556099E+02 -0.44527731673E+03  0.32974562151E+03  0.56038330311E+03  0.00000000000E+00 0. -1.
         15    1    4    4    0    0 -0.75030423811E+02  0.26170411452E+03 -0.60924398523E+03  0.66730565830E+03  0.00000000000E+00 0. -1.
        -16    1    4    4    0    0 -0.20522480409E+01  0.30273477179E+03 -0.71990678316E+03  0.78097268211E+03  0.00000000000E+00 0.  1.
         16    1    1    2    0    0 -0.70148473424E+03  0.11785046282E+03 -0.94035682803E+03  0.11790846144E+04  0.00000000000E+00 0. -1.
    9900018    1    1    2    0    0  0.76360809833E+02 -0.24513989412E+03  0.25512094314E+03  0.37326453754E+03  0.91187600000E+02 0.  0.
<mgrwt>
<rscale>  0 0.23740789E+04</rscale>
<asrwt>0</asrwt>
<pdfrwt beam="1">  1        1 0.43272247E+00 0.32935587E+04</pdfrwt>
<pdfrwt beam="2">  1       -1 0.27649770E+00 0.32935587E+04</pdfrwt>
<totfact> 0.30627709E-02</totfact>
</mgrwt>
</event>
<event>
11    1  0.6335517E-011  0.3276886E+04  0.7818608E-02  0.8327389E-01
         -2   -1    0    0    0  501 -0.00000000000E+00  0.00000000000E+00  0.15063125582E+04  0.15063125582E+04  0.00000000000E+00 0.  1.
          2   -1    0    0  501    0  0.00000000000E+00 -0.00000000000E+00 -0.39445667747E+04  0.39445667747E+04  0.00000000000E+00 0. -1.
    9900016    2    1    2    0    0 -0.16151011803E+03  0.32073176708E+03 -0.21305832691E+04  0.28389791784E+04  0.18415926054E+04 0.  0.
         24    2    3    3    0    0  0.11206577694E+03  0.10615488895E+04 -0.10366237659E+04  0.14897567454E+04  0.73085874383E+02 0.  0.
        -15    1    4    4    0    0  0.94431293080E+01  0.13101368003E+02 -0.11374241477E+02  0.19753275775E+02  0.00000000000E+00 0.  1.
        -15    1    1    2    0    0  0.34087702391E+02 -0.18359810492E+03  0.38939618519E+03  0.43185602303E+03  0.00000000000E+00 0.  1.
         15    1    3    3    0    0 -0.27357589497E+03 -0.74081712244E+03 -0.10939595031E+04  0.13492224330E+04  0.00000000000E+00 0. -1.
         15    1    1    2    0    0  0.61921761686E+03 -0.54667103240E+03 -0.88043938613E+03  0.12072502588E+04  0.00000000000E+00 0. -1.
        -16    1    1    2    0    0 -0.63689485370E+03  0.40377781514E+03  0.24135446097E+03  0.79178504312E+03  0.00000000000E+00 0.  1.
         16    1    4    4    0    0  0.10262264763E+03  0.10484475215E+04 -0.10252495245E+04  0.14700034696E+04  0.00000000000E+00 0. -1.
    9900018    1    1    2    0    0  0.14509965249E+03  0.57595551048E+01 -0.57982207427E+02  0.18100882962E+03  0.91187600000E+02 0.  0.
<mgrwt>
<rscale>  0 0.27235979E+04</rscale>
<asrwt>0</asrwt>
<pdfrwt beam="1">  1        2 0.60685642E+00 0.32768862E+04</pdfrwt>
<pdfrwt beam="2">  1       -2 0.23174040E+00 0.32768862E+04</pdfrwt>
<totfact> 0.25228616E-02</totfact>
</mgrwt>
</event>
<event>
11    1  0.6335517E-011  0.2498563E+04  0.7818608E-02  0.8674872E-01
          1   -1    0    0  501    0  0.00000000000E+00  0.00000000000E+00  0.83067681990E+03  0.83067681990E+03  0.00000000000E+00 0. -1.
         -1   -1    0    0    0  501 -0.00000000000E+00 -0.00000000000E+00 -0.36575074739E+04  0.36575074739E+04  0.00000000000E+00 0.  1.
    9900016    2    1    2    0    0 -0.35996704122E+02  0.20725412077E+03 -0.11488832012E+04  0.21883303438E+04  0.18505693854E+04 0.  0.
        -24    2    3    3    0    0 -0.76382544017E+03  0.64115872716E+03 -0.75839557190E+03  0.12553306304E+04  0.78596003287E+02 0.  0.
        -15    1    3    3    0    0  0.72782873605E+03 -0.43390460639E+03 -0.39048762933E+03  0.93299971336E+03  0.00000000000E+00 0.  1.
        -15    1    1    2    0    0  0.23027635081E+02 -0.40615709338E+03 -0.12652982759E+04  0.13290875003E+04  0.00000000000E+00 0.  1.
         15    1    4    4    0    0 -0.69782013037E+03  0.57838555919E+03 -0.65966864177E+03  0.11210020100E+04  0.00000000000E+00 0. -1.
         15    1    1    2    0    0  0.51348716140E+02 -0.24063490771E+03 -0.17122737936E+03  0.29976768488E+03  0.00000000000E+00 0. -1.
        -16    1    4    4    0    0 -0.66005309804E+02  0.62773167975E+02 -0.98726930132E+02  0.13432862045E+03  0.00000000000E+00 0.  1.
         16    1    1    2    0    0 -0.13315450497E+03  0.41107656888E+03 -0.29813181747E+03  0.52497299765E+03  0.00000000000E+00 0. -1.
    9900018    1    1    2    0    0  0.94774857869E+02  0.28461311433E+02  0.56710019926E+02  0.14602576720E+03  0.91187600000E+02 0.  0.
<mgrwt>
<rscale>  0 0.18603042E+04</rscale>
<asrwt>0</asrwt>
<pdfrwt beam="1">  1        1 0.12779644E+00 0.24985626E+04</pdfrwt>
<pdfrwt beam="2">  1       -1 0.56269345E+00 0.24985626E+04</pdfrwt>
<totfact> 0.11518718E-02</totfact>
</mgrwt>
</event>
