<event>
13    1  0.5931231E-009  0.5274733E+04  0.7818608E-02  0.7787470E-01
          1   -1    0    0  501    0  0.00000000000E+00  0.00000000000E+00  0.30046950493E+04  0.30046950493E+04  0.00000000000E+00 0. -1.
         -1   -1    0    0    0  501 -0.00000000000E+00 -0.00000000000E+00 -0.23149443509E+04  0.23149443509E+04  0.00000000000E+00 0.  1.
    9900016    2    1    2    0    0 -0.11745649813E+04  0.68363972655E+03 -0.32916259292E+03  0.25382885497E+04  0.21183943395E+04 0.  0.
         23    2    3    3    0    0  0.27946126962E+03  0.22457181949E+03  0.63451505063E+03  0.73451187769E+03  0.91472649786E+02 0.  0.
    9900016    2    1    2    0    0  0.11745649813E+04 -0.68363972655E+03  0.10189132913E+04  0.27813508504E+04  0.22024445707E+04 0.  0.
         24    2    5    5    0    0 -0.22041681864E+03  0.45342294953E+03  0.61212902789E+03  0.79652781362E+03  0.74690467898E+02 0.  0.
        -15    1    4    4    0    0  0.52494202160E+02  0.92449619588E+02  0.20881922947E+03  0.23432465517E+03  0.00000000000E+00 0. -1.
        -15    1    6    6    0    0 -0.11341606158E+03  0.18998876475E+03  0.31826973630E+03  0.38762682931E+03  0.00000000000E+00 0.  1.
         15    1    4    4    0    0  0.22696706746E+03  0.13212219990E+03  0.42569582116E+03  0.50018722252E+03  0.00000000000E+00 0.  1.
         15    1    5    5    0    0  0.71493517278E+03 -0.80041664265E+03 -0.84062302845E+02  0.10765061885E+04  0.00000000000E+00 0. -1.
        -16    1    3    3    0    0 -0.14540262509E+04  0.45906790706E+03 -0.96367764355E+03  0.18037766720E+04  0.00000000000E+00 0.  1.
         16    1    6    6    0    0 -0.10700075705E+03  0.26343418478E+03  0.29385929159E+03  0.40890098431E+03  0.00000000000E+00 0. -1.
    9900018    1    5    5    0    0  0.68004662717E+03 -0.33664603343E+03  0.49084656628E+03  0.90831684833E+03  0.91187600000E+02 0.  0.
<mgrwt>
<rscale>  0 0.52747329E+04</rscale>
<asrwt>0</asrwt>
<pdfrwt beam="1">  1        1 0.46226078E+00 0.52747329E+04</pdfrwt>
<pdfrwt beam="2">  1       -1 0.35614529E+00 0.52747329E+04</pdfrwt>
<totfact> 0.59260776E-03</totfact>
</mgrwt>
</event>
<event>
13    1  0.5931231E-009  0.4652421E+04  0.7818608E-02  0.7884483E-01
         -2   -1    0    0    0  501 -0.00000000000E+00  0.00000000000E+00  0.25684350473E+04  0.25684350473E+04  0.00000000000E+00 0.  1.
          2   -1    0    0  501    0  0.00000000000E+00 -0.00000000000E+00 -0.21068297013E+04  0.21068297013E+04  0.00000000000E+00 0. -1.
    9900016    2    1    2    0    0 -0.28457148657E+03 -0.48726253289E+03  0.15126734679E+03  0.23770053285E+04  0.23040978310E+04 0.  0.
         23    2    3    3    0    0  0.43944500992E+03  0.14276049595E+03 -0.86106930898E+03  0.98203063033E+03  0.97217941100E+02 0.  0.
    9900016    2    1    2    0    0  0.28457148657E+03  0.48726253289E+03  0.31033799925E+03  0.22982594200E+04  0.22061915105E+04 0.  0.
         24    2    5    5    0    0 -0.56561043810E+02  0.32136627190E+03 -0.30971977335E+02  0.33715667554E+03  0.78993215477E+02 0.  0.
        -15    1    4    4    0    0  0.12847651332E+03  0.89734911584E+02 -0.28510351802E+03  0.32533457366E+03  0.00000000000E+00 0. -1.
        -15    1    6    6    0    0 -0.46830029787E+02  0.71663770375E+02 -0.24613730064E+01  0.85643482130E+02  0.00000000000E+00 0.  1.
         15    1    5    5    0    0 -0.26178039714E+03 -0.63164224874E+03  0.61596059257E+03  0.92027624022E+03  0.00000000000E+00 0. -1.
         15    1    4    4    0    0  0.31096849660E+03  0.53025584370E+02 -0.57596579097E+03  0.65669605667E+03  0.00000000000E+00 0.  1.
        -16    1    3    3    0    0 -0.72401649649E+03 -0.63002302884E+03  0.10123366558E+04  0.13949746982E+04  0.00000000000E+00 0.  1.
         16    1    6    6    0    0 -0.97310140226E+01  0.24970250152E+03 -0.28510604329E+02  0.25151319341E+03  0.00000000000E+00 0. -1.
    9900018    1    5    5    0    0  0.60291292752E+03  0.79753850973E+03 -0.27465061598E+03  0.10408265042E+04  0.91187600000E+02 0.  0.
<mgrwt>
<rscale>  0 0.46524210E+04</rscale>
<asrwt>0</asrwt>
<pdfrwt beam="1">  1        2 0.32412765E+00 0.46524210E+04</pdfrwt>
<pdfrwt beam="2">  1       -2 0.39514385E+00 0.46524210E+04</pdfrwt>
<totfact> 0.34817130E-02</totfact>
</mgrwt>
</event>
<event>
13    1  0.5931231E-009  0.5192353E+04  0.7818608E-02  0.7799501E-01
         -2   -1    0    0    0  501 -0.00000000000E+00  0.00000000000E+00  0.41509274429E+04  0.41509274429E+04  0.00000000000E+00 0.  1.
          2   -1    0    0  501    0  0.00000000000E+00 -0.00000000000E+00 -0.16237655823E+04  0.16237655823E+04  0.00000000000E+00 0. -1.
    9900016    2    1    2    0    0  0.59539921613E+03 -0.72054040190E+03  0.24589482945E+04  0.33880353888E+04  0.21351061762E+04 0.  0.
         23    2    3    3    0    0 -0.39322046812E+03  0.13821819448E+03 -0.16324996774E+03  0.45703574141E+03  0.92219906356E+02 0.  0.
    9900016    2    1    2    0    0 -0.59539921613E+03  0.72054040190E+03  0.68213566088E+02  0.23866576364E+04  0.21949494039E+04 0.  0.
         24    2    5    5    0    0 -0.10421512061E+04 -0.29574343371E+02 -0.26814080205E+02  0.10459170156E+04  0.79180997896E+02 0.  0.
        -15    1    4    4    0    0 -0.25610339437E+03  0.42446764978E+02 -0.96377617635E+02  0.27691031336E+03  0.00000000000E+00 0. -1.
        -15    1    6    6    0    0 -0.19931716456E+03  0.29778858034E+01  0.24803624465E+02  0.20087662801E+03  0.00000000000E+00 0.  1.
         15    1    5    5    0    0  0.71904564495E+03  0.33262175083E+03  0.21318214910E+03  0.82043311570E+03  0.00000000000E+00 0. -1.
         15    1    4    4    0    0 -0.13711707375E+03  0.95771429499E+02 -0.66872350102E+02  0.18012542805E+03  0.00000000000E+00 0.  1.
        -16    1    3    3    0    0  0.98861968425E+03 -0.85875859638E+03  0.26221982622E+04  0.29309996474E+04  0.00000000000E+00 0.  1.
         16    1    6    6    0    0 -0.84283404155E+03 -0.32552229174E+02 -0.51617704670E+02  0.84504038758E+03  0.00000000000E+00 0. -1.
    9900018    1    5    5    0    0 -0.27229365497E+03  0.41749299445E+03 -0.11815450280E+03  0.52030750511E+03  0.91187600000E+02 0.  0.
<mgrwt>
<rscale>  0 0.51923533E+04</rscale>
<asrwt>0</asrwt>
<pdfrwt beam="1">  1        2 0.24981009E+00 0.51923533E+04</pdfrwt>
<pdfrwt beam="2">  1       -2 0.63860422E+00 0.51923533E+04</pdfrwt>
<totfact> 0.28832830E-03</totfact>
</mgrwt>
</event>
<event>
13    1  0.5931231E-009  0.5672949E+04  0.7818608E-02  0.7732330E-01
         -1   -1    0    0    0  501 -0.00000000000E+00  0.00000000000E+00  0.38461824133E+04  0.38461824133E+04  0.00000000000E+00 0.  1.
          1   -1    0    0  501    0  0.00000000000E+00 -0.00000000000E+00 -0.20918369542E+04  0.20918369542E+04  0.00000000000E+00 0. -1.
    9900016    2    1    2    0    0 -0.10325434564E+04 -0.38206155470E+03 -0.73267276914E+03  0.24402914187E+04  0.20508768370E+04 0.  0.
         23    2    3    3    0    0  0.33749664675E+03 -0.65969671913E+02 -0.95280174774E+03  0.10171327031E+04  0.92042278097E+02 0.  0.
    9900016    2    1    2    0    0  0.10325434564E+04  0.38206155470E+03  0.24870182282E+04  0.34977279487E+04  0.21992553546E+04 0.  0.
        -24    2    5    5    0    0 -0.43275944029E+03 -0.41690274549E+03  0.63144491337E+03  0.87526960649E+03  0.79281606094E+02 0.  0.
        -15    1    5    5    0    0  0.69976655692E+03  0.67965176400E+03  0.60304637173E+03  0.11468498947E+04  0.00000000000E+00 0.  1.
        -15    1    4    4    0    0  0.27118593461E+03 -0.44270318758E+02 -0.84649467735E+03  0.88997466876E+03  0.00000000000E+00 0.  1.
         15    1    6    6    0    0 -0.16133200900E+03 -0.19904158022E+03  0.23422793716E+03  0.34714304592E+03  0.00000000000E+00 0. -1.
         15    1    4    4    0    0  0.66310712141E+02 -0.21699353155E+02 -0.10630707039E+03  0.12715803430E+03  0.00000000000E+00 0. -1.
        -16    1    6    6    0    0 -0.27142743129E+03 -0.21786116528E+03  0.39721697621E+03  0.52812656057E+03  0.00000000000E+00 0.  1.
         16    1    3    3    0    0 -0.13700401032E+04 -0.31609188279E+03  0.22012897860E+03  0.14231587156E+04  0.00000000000E+00 0. -1.
    9900018    1    5    5    0    0  0.76553633980E+03  0.11931253620E+03  0.12525269431E+04  0.14756084476E+04  0.91187600000E+02 0.  0.
<mgrwt>
<rscale>  0 0.56729486E+04</rscale>
<asrwt>0</asrwt>
<pdfrwt beam="1">  1        1 0.32182107E+00 0.56729486E+04</pdfrwt>
<pdfrwt beam="2">  1       -1 0.59172037E+00 0.56729486E+04</pdfrwt>
<totfact> 0.85724249E-04</totfact>
</mgrwt>
</event>
<event>
13    1  0.5931231E-009  0.5458467E+04  0.7818608E-02  0.7761430E-01
          1   -1    0    0  501    0  0.00000000000E+00  0.00000000000E+00  0.50783958709E+04  0.50783958709E+04  0.00000000000E+00 0. -1.
         -1   -1    0    0    0  501 -0.00000000000E+00 -0.00000000000E+00 -0.14667456399E+04  0.14667456399E+04  0.00000000000E+00 0.  1.
    9900016    2    1    2    0    0 -0.11475415197E+04 -0.24865536192E+03  0.31815371003E+04  0.40076039735E+04  0.21354227356E+04 0.  0.
         23    2    3    3    0    0  0.13365574069E+03 -0.34308608523E+03 -0.17203551033E+03  0.41638790703E+03  0.90613207696E+02 0.  0.
    9900016    2    1    2    0    0  0.11475415197E+04  0.24865536192E+03  0.43011313073E+03  0.25375375373E+04  0.22080349679E+04 0.  0.
        -24    2    5    5    0    0 -0.30253979762E+03 -0.22968761890E+03 -0.10968330345E+03  0.40231156875E+03  0.74413976310E+02 0.  0.
        -15    1    5    5    0    0  0.49451012677E+03  0.26057148038E+03 -0.46614605051E+03  0.72782546141E+03  0.00000000000E+00 0.  1.
        -15    1    4    4    0    0  0.11015726022E+03 -0.25074911872E+03 -0.83504592833E+02  0.28632631654E+03  0.00000000000E+00 0.  1.
         15    1    6    6    0    0 -0.10209037031E+03 -0.10660392125E+03 -0.13624444344E+02  0.14823112095E+03  0.00000000000E+00 0. -1.
         15    1    4    4    0    0  0.23498480465E+02 -0.92336966515E+02 -0.88530917495E+02  0.13006159049E+03  0.00000000000E+00 0. -1.
        -16    1    6    6    0    0 -0.20044942731E+03 -0.12308369765E+03 -0.96058859110E+02  0.25408044779E+03  0.00000000000E+00 0.  1.
         16    1    3    3    0    0 -0.12811972603E+04  0.94430723313E+02  0.33535726107E+04  0.35912160665E+04  0.00000000000E+00 0. -1.
    9900018    1    5    5    0    0  0.95557119051E+03  0.21777150044E+03  0.10059424847E+04  0.14074005071E+04  0.91187600000E+02 0.  0.
<mgrwt>
<rscale>  0 0.54584668E+04</rscale>
<asrwt>0</asrwt>
<pdfrwt beam="1">  1        1 0.78129166E+00 0.54584668E+04</pdfrwt>
<pdfrwt beam="2">  1       -1 0.22565318E+00 0.54584668E+04</pdfrwt>
<totfact> 0.47123819E-04</totfact>
</mgrwt>
</event>
<event>
13    1  0.5931231E-009  0.5046719E+04  0.7818608E-02  0.7821341E-01
         -2   -1    0    0    0  501 -0.00000000000E+00  0.00000000000E+00  0.33998442404E+04  0.33998442404E+04  0.00000000000E+00 0. -1.
          2   -1    0    0  501    0  0.00000000000E+00 -0.00000000000E+00 -0.18728336315E+04  0.18728336315E+04  0.00000000000E+00 0.  1.
    9900016    2    1    2    0    0 -0.95556152211E+03  0.53415861635E+03  0.15316054351E+04  0.28142552065E+04  0.20918398382E+04 0.  0.
         23    2    3    3    0    0 -0.18191865649E+03 -0.20879900459E+03 -0.46378945559E+03  0.54883911233E+03  0.97119978422E+02 0.  0.
    9900016    2    1    2    0    0  0.95556152211E+03 -0.53415861635E+03 -0.45948262156E+01  0.24584226654E+04  0.22012263944E+04 0.  0.
        -24    2    5    5    0    0  0.35726207999E+03  0.11428287884E+03  0.81759753459E+03  0.90310171875E+03  0.80188625415E+02 0.  0.
        -15    1    4    4    0    0 -0.14856427547E+03 -0.11088965239E+03 -0.34233697246E+03  0.38931023833E+03  0.00000000000E+00 0. -1.
        -15    1    5    5    0    0  0.52921027966E+03 -0.84651591373E+02 -0.82051523821E+03  0.98003809526E+03  0.00000000000E+00 0.  1.
         15    1    6    6    0    0  0.11278460041E+03 -0.20648061280E+01  0.24434586172E+03  0.26912734839E+03  0.00000000000E+00 0. -1.
         15    1    4    4    0    0 -0.33354381022E+02 -0.97909352205E+02 -0.12145248313E+03  0.15952887400E+03  0.00000000000E+00 0.  1.
        -16    1    6    6    0    0  0.24447747958E+03  0.11634768497E+03  0.57325167288E+03  0.63397437036E+03  0.00000000000E+00 0.  1.
         16    1    3    3    0    0 -0.77364286562E+03  0.74295762094E+03  0.19953948907E+04  0.22654160942E+04  0.00000000000E+00 0. -1.
    9900018    1    5    5    0    0  0.69089162465E+02 -0.56378990381E+03 -0.16771225978E+01  0.57528285143E+03  0.91187600000E+02 0.  0.
<mgrwt>
<rscale>  0 0.50467188E+04</rscale>
<asrwt>0</asrwt>
<pdfrwt beam="1">  1        2 0.28812825E+00 0.50467188E+04</pdfrwt>
<pdfrwt beam="2">  1       -2 0.52305296E+00 0.50467188E+04</pdfrwt>
<totfact> 0.69000516E-03</totfact>
</mgrwt>
</event>
