<event>
12    1  0.8473826E-012  0.3191565E+04  0.7818608E-02  0.8877098E-01
          2   -1    0    0  501    0  0.00000000000E+00  0.00000000000E+00  0.32386032706E+04  0.32386032706E+04  0.00000000000E+00 0. -1.
         -2   -1    0    0    0  501 -0.00000000000E+00 -0.00000000000E+00 -0.95511693905E+03  0.95511693905E+03  0.00000000000E+00 0.  1.
         23    2    1    2    0    0 -0.11564922303E+03  0.37429067778E+02  0.52672654906E+03  0.55060462845E+03  0.10463709422E+03 0.  0.
    9900016    2    1    2    0    0  0.93697482402E+03  0.67322482299E+02  0.13595356348E+04  0.27247824969E+04  0.21664829508E+04 0.  0.
         24    2    4    4    0    0  0.81014564391E+03 -0.40062464418E+03 -0.20301965893E+03  0.93249282383E+03  0.10719055329E+03 0.  0.
        -15    1    5    5    0    0  0.26963961689E+03 -0.82950694103E+02 -0.42217890206E+02  0.28525197791E+03  0.00000000000E+00 0.  1.
        -15    1    3    3    0    0  0.62440624499E+01  0.37260570858E+02  0.10374836320E+03  0.11041313927E+03  0.00000000000E+00 0.  1.
         15    1    3    3    0    0 -0.12189328548E+03  0.16849692016E+00  0.42297818586E+03  0.44019148918E+03  0.00000000000E+00 0. -1.
         15    1    4    4    0    0  0.27866483589E+03  0.59601599814E+03  0.12154643249E+04  0.13821152940E+04  0.00000000000E+00 0. -1.
        -16    1    1    2    0    0 -0.82132560099E+03 -0.10475155008E+03  0.39722414770E+03  0.91833308424E+03  0.00000000000E+00 0.  1.
         16    1    5    5    0    0  0.54050602702E+03 -0.31767395008E+03 -0.16080176873E+03  0.64724084592E+03  0.00000000000E+00 0. -1.
    9900018    1    4    4    0    0 -0.15183565578E+03 -0.12806887166E+03  0.34709096879E+03  0.41017437910E+03  0.91187600000E+02 0.  0.
<mgrwt>
<rscale>  0 0.15111109E+04</rscale>
<asrwt>0</asrwt>
<pdfrwt beam="1">  1        2 0.49824665E+00 0.31915649E+04</pdfrwt>
<pdfrwt beam="2">  1       -2 0.14694107E+00 0.31915649E+04</pdfrwt>
<totfact> 0.32249371E-01</totfact>
</mgrwt>
</event>
<event>
12    1  0.8473826E-012  0.3299983E+04  0.7818608E-02  0.9007353E-01
          1   -1    0    0  501    0  0.00000000000E+00  0.00000000000E+00  0.10897840083E+04  0.10897840083E+04  0.00000000000E+00 0. -1.
         -1   -1    0    0    0  501 -0.00000000000E+00 -0.00000000000E+00 -0.26316397391E+04  0.26316397391E+04  0.00000000000E+00 0.  1.
         23    2    1    2    0    0 -0.37484095565E+02 -0.11739975922E+02 -0.48108467741E+02  0.99108057560E+02  0.77234046573E+02 0.  0.
    9900016    2    1    2    0    0  0.63579627211E+03  0.83597411234E+02 -0.18300835750E+04  0.29321975360E+04  0.21993978884E+04 0.  0.
        -24    2    4    4    0    0 -0.21503511538E+02  0.55707003104E+03 -0.11395175289E+04  0.12718530564E+04  0.91217201976E+02 0.  0.
        -15    1    4    4    0    0  0.32248416106E+03 -0.82848858749E+03 -0.74633975635E+03  0.11607809464E+04  0.00000000000E+00 0.  1.
        -15    1    3    3    0    0 -0.23581107405E+02  0.24590948807E+02  0.37556190970E+01  0.34276640215E+02  0.00000000000E+00 0. -1.
         15    1    3    3    0    0 -0.13902988160E+02 -0.36330924728E+02 -0.51864086838E+02  0.64831417345E+02  0.00000000000E+00 0.  1.
         15    1    5    5    0    0  0.31103674250E+02  0.26673086880E+03 -0.50010418526E+03  0.56764160439E+03  0.00000000000E+00 0. -1.
        -16    1    5    5    0    0 -0.52607185788E+02  0.29033916224E+03 -0.63941334365E+03  0.70421145203E+03  0.00000000000E+00 0.  1.
         16    1    1    2    0    0 -0.59831217655E+03 -0.71857435312E+02  0.33633631187E+03  0.69011815387E+03  0.00000000000E+00 0. -1.
    9900018    1    4    4    0    0  0.33481562259E+03  0.35501596768E+03  0.55773710255E+02  0.49956353309E+03  0.91187600000E+02 0.  0.
<mgrwt>
<rscale>  0 0.13283858E+04</rscale>
<asrwt>0</asrwt>
<pdfrwt beam="1">  1        1 0.16765908E+00 0.32999833E+04</pdfrwt>
<pdfrwt beam="2">  1       -1 0.40486765E+00 0.32999833E+04</pdfrwt>
<totfact> 0.70672611E-02</totfact>
</mgrwt>
</event>
<event>
11    1  0.8473826E-012  0.4619087E+04  0.7818608E-02  0.8447011E-01
         -1   -1    0    0    0  501 -0.00000000000E+00  0.00000000000E+00  0.20588157798E+04  0.20588157798E+04  0.00000000000E+00 0.  1.
          1   -1    0    0  501    0  0.00000000000E+00 -0.00000000000E+00 -0.29795075418E+04  0.29795075418E+04  0.00000000000E+00 0. -1.
    9900016    2    1    2    0    0 -0.50559213856E+03  0.87063307852E+03  0.98270514202E+03  0.26184817896E+04  0.22084184654E+04 0.  0.
        -24    2    3    3    0    0  0.64750191042E+03  0.26544783487E+03  0.67709401306E+02  0.70625744093E+03  0.67035310149E+02 0.  0.
        -15    1    1    2    0    0 -0.43591360142E+02 -0.15160692134E+03  0.84055567147E+02  0.17874619896E+03  0.00000000000E+00 0.  1.
        -15    1    3    3    0    0 -0.10034787798E+04 -0.10061721324E+02  0.74639214988E+03  0.12506686776E+04  0.00000000000E+00 0.  1.
         15    1    4    4    0    0  0.31913778075E+03  0.16658247440E+03  0.29303387655E+02  0.36118877669E+03  0.00000000000E+00 0. -1.
         15    1    1    2    0    0 -0.46021720116E+02 -0.12020141632E+03 -0.71216907533E+02  0.14709937840E+03  0.00000000000E+00 0. -1.
        -16    1    4    4    0    0  0.32836412967E+03  0.98865360477E+02  0.38406013650E+02  0.34506866424E+03  0.00000000000E+00 0.  1.
         16    1    1    2    0    0  0.59520521882E+03 -0.59882474087E+03 -0.19162355636E+04  0.20939959546E+04  0.00000000000E+00 0. -1.
    9900018    1    3    3    0    0 -0.14961526919E+03  0.61524696497E+03  0.16860359083E+03  0.66155567106E+03  0.91187600000E+02 0.  0.
<mgrwt>
<rscale>  0 0.23800481E+04</rscale>
<asrwt>0</asrwt>
<pdfrwt beam="1">  1        1 0.45838578E+00 0.46190873E+04</pdfrwt>
<pdfrwt beam="2">  1       -1 0.31674089E+00 0.46190873E+04</pdfrwt>
<totfact> 0.11693931E-02</totfact>
</mgrwt>
</event>
<event>
12    1  0.8473828E-012  0.3293353E+04  0.7818608E-02  0.9017498E-01
          1   -1    0    0  501    0  0.00000000000E+00  0.00000000000E+00  0.28457551912E+04  0.28457551912E+04  0.00000000000E+00 0. -1.
         -1   -1    0    0    0  501 -0.00000000000E+00 -0.00000000000E+00 -0.10218312336E+04  0.10218312336E+04  0.00000000000E+00 0.  1.
         23    2    1    2    0    0 -0.21022250111E+01  0.32471494614E+02 -0.29112131586E+02  0.88708549158E+02  0.77219642421E+02 0.  0.
    9900016    2    1    2    0    0 -0.56048967628E+02 -0.31514594004E+03  0.35860565442E+03  0.22568369012E+04  0.22050524558E+04 0.  0.
        -24    2    4    4    0    0  0.59085014713E+03 -0.37992743652E+03  0.73545102047E+03  0.10190414878E+04  0.64098338220E+02 0.  0.
        -15    1    3    3    0    0 -0.29432480738E+01  0.57457740919E+02 -0.27189604736E+02  0.63634340622E+02  0.00000000000E+00 0. -1.
        -15    1    4    4    0    0 -0.61139472059E+03  0.10613998229E+03  0.19943834064E+03  0.65180123652E+03  0.00000000000E+00 0.  1.
         15    1    3    3    0    0  0.84102306277E+00 -0.24986246305E+02 -0.19225268505E+01  0.25074208535E+02  0.00000000000E+00 0.  1.
         15    1    5    5    0    0  0.57155768002E+03 -0.37364622985E+03  0.69813609369E+03  0.97656730028E+03  0.00000000000E+00 0. -1.
        -16    1    5    5    0    0  0.19292467110E+02 -0.62812066654E+01  0.37314926782E+02  0.42474187516E+02  0.00000000000E+00 0.  1.
         16    1    1    2    0    0  0.58151192639E+02  0.28267444543E+03  0.14944304348E+04  0.15220409744E+04  0.00000000000E+00 0. -1.
    9900018    1    4    4    0    0 -0.35504394163E+02 -0.41358485819E+02 -0.57628370669E+03  0.58599417688E+03  0.91187600000E+02 0.  0.
<mgrwt>
<rscale>  0 0.13153276E+04</rscale>
<asrwt>0</asrwt>
<pdfrwt beam="1">  1        1 0.43780849E+00 0.32933532E+04</pdfrwt>
<pdfrwt beam="2">  1       -1 0.15720481E+00 0.32933532E+04</pdfrwt>
<totfact> 0.19603960E-01</totfact>
</mgrwt>
</event>
<event>
11    1  0.8473826E-012  0.4208878E+04  0.7818608E-02  0.8355445E-01
         -2   -1    0    0    0  501 -0.00000000000E+00  0.00000000000E+00  0.22664895494E+04  0.22664895494E+04  0.00000000000E+00 0.  1.
          2   -1    0    0  501    0  0.00000000000E+00 -0.00000000000E+00 -0.27664701761E+04  0.27664701761E+04  0.00000000000E+00 0. -1.
    9900016    2    1    2    0    0 -0.78329053869E+01  0.66206844652E+02 -0.14462963832E+04  0.26346454168E+04  0.22011675411E+04 0.  0.
         24    2    3    3    0    0 -0.22741039465E+03 -0.70073893751E+03 -0.11374792110E+04  0.13592560564E+04  0.10472595314E+03 0.  0.
        -15    1    4    4    0    0 -0.12049430541E+03 -0.38907531184E+03 -0.53303365052E+03  0.67083779597E+03  0.00000000000E+00 0.  1.
        -15    1    1    2    0    0  0.13606576028E+03  0.42488285658E+03 -0.19945534849E+03  0.48869394203E+03  0.00000000000E+00 0.  1.
         15    1    1    2    0    0 -0.73742334807E+02  0.11078591922E+03 -0.30784643027E+03  0.33538168774E+03  0.00000000000E+00 0. -1.
         15    1    3    3    0    0 -0.27579976660E+02  0.66762761685E+03  0.19688262324E+03  0.69659892135E+03  0.00000000000E+00 0. -1.
        -16    1    1    2    0    0 -0.54490520088E+02 -0.60187562045E+03  0.14536175353E+04  0.15742386789E+04  0.00000000000E+00 0.  1.
         16    1    4    4    0    0 -0.10691608924E+03 -0.31166362567E+03 -0.60444556048E+03  0.68841826043E+03  0.00000000000E+00 0. -1.
    9900018    1    3    3    0    0  0.24715746593E+03  0.99318165318E+02 -0.50569979539E+03  0.57879043909E+03  0.91187600000E+02 0.  0.
<mgrwt>
<rscale>  0 0.26378861E+04</rscale>
<asrwt>0</asrwt>
<pdfrwt beam="1">  1        2 0.42561080E+00 0.42088777E+04</pdfrwt>
<pdfrwt beam="2">  1       -2 0.34869070E+00 0.42088777E+04</pdfrwt>
<totfact> 0.28963879E-02</totfact>
</mgrwt>
</event>
<event>
12    1  0.8473826E-012  0.3019957E+04  0.7818608E-02  0.8238055E-01
          2   -1    0    0  501    0  0.00000000000E+00  0.00000000000E+00  0.20272685610E+04  0.20272685610E+04  0.00000000000E+00 0. -1.
         -2   -1    0    0    0  501 -0.00000000000E+00 -0.00000000000E+00 -0.11246835755E+04  0.11246835755E+04  0.00000000000E+00 0.  1.
         23    2    1    2    0    0  0.28577829302E+03 -0.76959336422E+02  0.51508248683E+03  0.59830379674E+03  0.71172274994E+02 0.  0.
    9900016    2    1    2    0    0 -0.27127042903E+03  0.26215781612E+03  0.57451701102E+03  0.22900513313E+04  0.21844795577E+04 0.  0.
         24    2    4    4    0    0  0.38504195360E+03  0.37528782756E+03 -0.54279435852E+03  0.76671302557E+03  0.64225293940E+02 0.  0.
        -15    1    5    5    0    0  0.32003418623E+03  0.28906116281E+03 -0.40465397532E+03  0.59137388845E+03  0.00000000000E+00 0.  1.
        -15    1    3    3    0    0  0.10362839495E+03 -0.57068924494E+02  0.16314742059E+03  0.20152614527E+03  0.00000000000E+00 0.  1.
         15    1    3    3    0    0  0.18214989807E+03 -0.19890411928E+02  0.35193506624E+03  0.39677765147E+03  0.00000000000E+00 0. -1.
         15    1    4    4    0    0 -0.12923162383E+03 -0.38636138348E+03  0.28613778573E+03  0.49784612449E+03  0.00000000000E+00 0. -1.
        -16    1    1    2    0    0 -0.14507863990E+02 -0.18519847970E+03 -0.18701451235E+03  0.26359700838E+03  0.00000000000E+00 0.  1.
         16    1    5    5    0    0  0.65007767372E+02  0.86226664746E+02 -0.13814038321E+03  0.17533913711E+03  0.00000000000E+00 0. -1.
    9900018    1    4    4    0    0 -0.52708075880E+03  0.27323137204E+03  0.83117358381E+03  0.10254921812E+04  0.91187600000E+02 0.  0.
<mgrwt>
<rscale>  0 0.30199574E+04</rscale>
<asrwt>0</asrwt>
<pdfrwt beam="1">  1        2 0.31188747E+00 0.30199574E+04</pdfrwt>
<pdfrwt beam="2">  1       -2 0.17302824E+00 0.30199574E+04</pdfrwt>
<totfact> 0.11186010E+00</totfact>
</mgrwt>
</event>
<event>
11    1  0.8782201E-012  0.6089655E+04  0.7818608E-02  0.8196379E-01
          1   -1    0    0  501    0  0.00000000000E+00  0.00000000000E+00  0.35013934263E+04  0.35013934263E+04  0.00000000000E+00 0. -1.
         -1   -1    0    0    0  501 -0.00000000000E+00 -0.00000000000E+00 -0.31779145224E+04  0.31779145224E+04  0.00000000000E+00 0.  1.
    9900016    2    1    2    0    0  0.11235553322E+04 -0.13167416732E+04 -0.16664829252E+04  0.32553855476E+04  0.21964026283E+04 0.  0.
        -24    2    3    3    0    0 -0.42631753767E+03  0.14741532100E+03 -0.31114892116E+03  0.55208175713E+03  0.67102128301E+02 0.  0.
        -15    1    1    2    0    0 -0.18915259431E+03 -0.16203480557E+03 -0.93813471553E+02  0.26614836012E+03  0.00000000000E+00 0.  1.
        -15    1    3    3    0    0  0.79032707413E+03 -0.85956050441E+03 -0.18866383340E+03  0.11828166328E+04  0.00000000000E+00 0.  1.
         15    1    1    2    0    0 -0.16729171003E+03 -0.28489401804E+02 -0.23369212633E+03  0.28880819269E+03  0.00000000000E+00 0. -1.
         15    1    4    4    0    0 -0.21768550453E+03  0.10566047410E+03 -0.14467390654E+03  0.28192490827E+03  0.00000000000E+00 0. -1.
        -16    1    4    4    0    0 -0.20863203314E+03  0.41754846900E+02 -0.16647501462E+03  0.27015684886E+03  0.00000000000E+00 0.  1.
         16    1    1    2    0    0 -0.76711102782E+03  0.15072658805E+04  0.23174674269E+04  0.28689658483E+04  0.00000000000E+00 0. -1.
    9900018    1    3    3    0    0  0.75954579571E+03 -0.60459648977E+03 -0.11666701706E+04  0.15204871577E+04  0.91187600000E+02 0.  0.
<mgrwt>
<rscale>  0 0.31715204E+04</rscale>
<asrwt>0</asrwt>
<pdfrwt beam="1">  1        1 0.53867591E+00 0.60896551E+04</pdfrwt>
<pdfrwt beam="2">  1       -1 0.48890993E+00 0.60896551E+04</pdfrwt>
<totfact> 0.28777530E-04</totfact>
</mgrwt>
</event>
<event>
11    1  0.8473826E-012  0.3413738E+04  0.7818608E-02  0.8971703E-01
         -1   -1    0    0    0  501 -0.00000000000E+00  0.00000000000E+00  0.22622487521E+04  0.22622487521E+04  0.00000000000E+00 0.  1.
          1   -1    0    0  501    0  0.00000000000E+00 -0.00000000000E+00 -0.13594032786E+04  0.13594032786E+04  0.00000000000E+00 0. -1.
         23    2    1    2    0    0  0.42977868636E+02 -0.27879465907E+02  0.50169330254E+02  0.10303569763E+03  0.73993455625E+02 0.  0.
    9900016    2    1    2    0    0  0.69443080134E+03 -0.39271743027E+03  0.11560367675E+04  0.26171170464E+04  0.22082616486E+04 0.  0.
        -15    1    4    4    0    0  0.47798933982E+03  0.30196980513E+03  0.71094881265E+03  0.90835443875E+03  0.00000000000E+00 0.  1.
        -15    1    3    3    0    0  0.74474540672E+01 -0.34697542334E+02 -0.62293789483E+01  0.36030392423E+02  0.00000000000E+00 0.  1.
         15    1    4    4    0    0 -0.42321206502E+02  0.23792588116E+02 -0.61190102835E+02  0.78111461733E+02  0.00000000000E+00 0. -1.
         15    1    3    3    0    0  0.35530414569E+02  0.68180764268E+01  0.56398709202E+02  0.67005305202E+02  0.00000000000E+00 0. -1.
        -16    1    4    4    0    0 -0.10169819299E+03 -0.30512942148E+03 -0.43286617901E+03  0.53927693743E+03  0.00000000000E+00 0.  1.
         16    1    1    2    0    0 -0.73740866997E+03  0.42059689617E+03 -0.30336062423E+03  0.90149928672E+03  0.00000000000E+00 0. -1.
    9900018    1    4    4    0    0  0.36046086101E+03 -0.41335040203E+03  0.93914423667E+03  0.10913742084E+04  0.91187600000E+02 0.  0.
<mgrwt>
<rscale>  0 0.13755588E+04</rscale>
<asrwt>0</asrwt>
<pdfrwt beam="1">  1        1 0.20913897E+00 0.34137376E+04</pdfrwt>
<pdfrwt beam="2">  1       -1 0.34803827E+00 0.34137376E+04</pdfrwt>
<totfact> 0.10757625E-01</totfact>
</mgrwt>
</event>
<event>
12    1  0.8473826E-012  0.3131776E+04  0.7818608E-02  0.8766175E-01
          1   -1    0    0  501    0  0.00000000000E+00  0.00000000000E+00  0.20049154856E+04  0.20049154856E+04  0.00000000000E+00 0. -1.
         -1   -1    0    0    0  501 -0.00000000000E+00 -0.00000000000E+00 -0.17073753028E+04  0.17073753028E+04  0.00000000000E+00 0.  1.
         23    2    1    2    0    0  0.18970032799E+03 -0.14313835568E+03  0.50774689749E+03  0.57346820620E+03  0.12076451590E+03 0.  0.
    9900016    2    1    2    0    0  0.43481531959E+03  0.64587091370E+03 -0.14193215635E+03  0.23341976794E+04  0.21959327108E+04 0.  0.
        -24    2    4    4    0    0  0.75388381513E+03 -0.13085354098E+03  0.73001021549E+03  0.10615770609E+04  0.92560713109E+02 0.  0.
        -15    1    3    3    0    0  0.12740964626E+03 -0.15524674721E+03  0.41563981996E+03  0.46161805686E+03  0.00000000000E+00 0.  1.
        -15    1    4    4    0    0 -0.19660653548E+03  0.74275683651E+03 -0.69001519132E+03  0.10326968637E+04  0.00000000000E+00 0.  1.
         15    1    5    5    0    0  0.26591254440E+03 -0.59821657815E+02  0.31943124229E+03  0.41991002675E+03  0.00000000000E+00 0. -1.
         15    1    3    3    0    0  0.62290681730E+02  0.12108391531E+02  0.92107077533E+02  0.11185014934E+03  0.00000000000E+00 0. -1.
        -16    1    5    5    0    0  0.48797127073E+03 -0.71031883163E+02  0.41057897319E+03  0.64166703415E+03  0.00000000000E+00 0.  1.
         16    1    1    2    0    0 -0.62451564758E+03 -0.50273255802E+03 -0.68274558349E+02  0.80462490285E+03  0.00000000000E+00 0. -1.
    9900018    1    4    4    0    0 -0.12246196006E+03  0.33967618174E+02 -0.18192718052E+03  0.23992375487E+03  0.91187600000E+02 0.  0.
<mgrwt>
<rscale>  0 0.16915907E+04</rscale>
<asrwt>0</asrwt>
<pdfrwt beam="1">  1        1 0.30844854E+00 0.31317759E+04</pdfrwt>
<pdfrwt beam="2">  1       -1 0.26267312E+00 0.31317759E+04</pdfrwt>
<totfact> 0.14081790E-01</totfact>
</mgrwt>
</event>
<event>
11    1  0.8473826E-012  0.2601650E+04  0.7818608E-02  0.8367641E-01
          2   -1    0    0  501    0  0.00000000000E+00  0.00000000000E+00  0.22014495889E+04  0.22014495889E+04  0.00000000000E+00 0.  1.
         -2   -1    0    0    0  501 -0.00000000000E+00 -0.00000000000E+00 -0.76865080578E+03  0.76865080578E+03  0.00000000000E+00 0. -1.
         23    2    1    2    0    0 -0.34213078329E+02 -0.16408283441E+03  0.27454401099E+03  0.33977424322E+03  0.10944592779E+03 0.  0.
    9900016    2    1    2    0    0  0.24656848578E+02  0.67167253977E+02  0.12222870808E+04  0.25137753566E+04  0.21954410571E+04 0.  0.
        -15    1    4    4    0    0  0.10350792527E+02  0.16282505375E+03 -0.34016897997E+03  0.37727188070E+03  0.00000000000E+00 0.  1.
        -15    1    3    3    0    0  0.21022185392E+02 -0.13707718755E+03  0.19223320429E+03  0.23703521353E+03  0.00000000000E+00 0.  1.
         15    1    4    4    0    0  0.16480869032E+02  0.88510564993E+02  0.74329638282E+02  0.11675030744E+03  0.00000000000E+00 0. -1.
         15    1    3    3    0    0 -0.55235263722E+02 -0.27005646856E+02  0.82310806702E+02  0.10273902968E+03  0.00000000000E+00 0. -1.
        -16    1    4    4    0    0 -0.11714459276E+02  0.57788072356E+03  0.47150370562E+03  0.74592164711E+03  0.00000000000E+00 0.  1.
         16    1    1    2    0    0  0.95562297513E+01  0.96915580429E+02 -0.64032308612E+02  0.11655079495E+03  0.00000000000E+00 0. -1.
    9900018    1    4    4    0    0  0.95396462947E+01 -0.76204908832E+03  0.10166227168E+04  0.12738315213E+04  0.91187600000E+02 0.  0.
<mgrwt>
<rscale>  0 0.26016502E+04</rscale>
<asrwt>0</asrwt>
<pdfrwt beam="1">  1        2 0.33868455E+00 0.26016502E+04</pdfrwt>
<pdfrwt beam="2">  1       -2 0.11825397E+00 0.26016502E+04</pdfrwt>
<totfact> 0.25100266E+00</totfact>
</mgrwt>
</event>
<event>
11    1  0.8473826E-012  0.5260374E+04  0.7818608E-02  0.8407078E-01
         -2   -1    0    0    0  501 -0.00000000000E+00  0.00000000000E+00  0.28488918197E+04  0.28488918197E+04  0.00000000000E+00 0. -1.
          2   -1    0    0  501    0  0.00000000000E+00 -0.00000000000E+00 -0.28090003200E+04  0.28090003200E+04  0.00000000000E+00 0.  1.
         23    2    1    2    0    0 -0.23734017608E+03 -0.87530663850E+01 -0.28420719025E+03  0.38754394386E+03  0.11405966020E+03 0.  0.
    9900016    2    1    2    0    0 -0.85320212225E+03 -0.10486474288E+04  0.17961895304E+04  0.31550634032E+04  0.22137102245E+04 0.  0.
        -15    1    4    4    0    0 -0.75071142629E+02 -0.40595391984E+03  0.30700510513E+03  0.51447681781E+03  0.00000000000E+00 0.  1.
        -15    1    3    3    0    0 -0.11712255839E+02 -0.22392698030E+02 -0.76495591209E+02  0.80561686529E+02  0.00000000000E+00 0.  1.
         15    1    4    4    0    0 -0.78396276876E+02  0.33225575837E+03 -0.23774225584E+03  0.41600630453E+03  0.00000000000E+00 0. -1.
         15    1    3    3    0    0 -0.22562792024E+03  0.13639631645E+02 -0.20771159904E+03  0.30698225734E+03  0.00000000000E+00 0. -1.
        -16    1    1    2    0    0  0.10905422983E+04  0.10574004952E+04 -0.14720908404E+04  0.21152847926E+04  0.00000000000E+00 0.  1.
         16    1    4    4    0    0  0.75818363820E+02 -0.45623572582E+03  0.63197210516E+03  0.78312719498E+03  0.00000000000E+00 0. -1.
    9900018    1    4    4    0    0 -0.77555306657E+03 -0.51871354148E+03  0.10949545759E+04  0.14414530859E+04  0.91187600000E+02 0.  0.
<mgrwt>
<rscale>  0 0.24885441E+04</rscale>
<asrwt>0</asrwt>
<pdfrwt beam="1">  1        2 0.43215390E+00 0.52603736E+04</pdfrwt>
<pdfrwt beam="2">  1       -2 0.43829105E+00 0.52603736E+04</pdfrwt>
<totfact> 0.66746865E-03</totfact>
</mgrwt>
</event>
<event>
11    1  0.8473826E-012  0.2728390E+04  0.7818608E-02  0.8921600E-01
          1   -1    0    0  501    0  0.00000000000E+00  0.00000000000E+00  0.97224418131E+03  0.97224418131E+03  0.00000000000E+00 0. -1.
         -1   -1    0    0    0  501 -0.00000000000E+00 -0.00000000000E+00 -0.22477142476E+04  0.22477142476E+04  0.00000000000E+00 0.  1.
         23    2    1    2    0    0 -0.75059879533E+02 -0.15590195947E+03 -0.17729797169E+02  0.21562487182E+03  0.12743756572E+03 0.  0.
    9900016    2    1    2    0    0  0.28727700519E+03 -0.84689930264E+02 -0.63307804432E+03  0.23021060577E+04  0.21929897466E+04 0.  0.
        -15    1    3    3    0    0 -0.75795361817E+02 -0.42490982426E+02 -0.46592379134E+02  0.98596502239E+02  0.00000000000E+00 0.  1.
        -15    1    4    4    0    0  0.40493176604E+03 -0.32184950200E+03 -0.27461912626E+01  0.51726625509E+03  0.00000000000E+00 0.  1.
         15    1    4    4    0    0  0.20375868520E+02  0.19002155057E+03 -0.55916623136E+03  0.59092320989E+03  0.00000000000E+00 0. -1.
         15    1    3    3    0    0  0.73548228384E+00 -0.11341097705E+03  0.28862581966E+02  0.11702836958E+03  0.00000000000E+00 0. -1.
        -16    1    1    2    0    0 -0.21221712566E+03  0.24059188974E+03 -0.62466222480E+03  0.70222749941E+03  0.00000000000E+00 0.  1.
         16    1    4    4    0    0  0.42033545866E+03 -0.30890108861E+03  0.33505735123E+00  0.52163386835E+03  0.00000000000E+00 0. -1.
    9900018    1    4    4    0    0 -0.55836608803E+03  0.35603910977E+03 -0.71500679050E+02  0.67228272434E+03  0.91187600000E+02 0.  0.
<mgrwt>
<rscale>  0 0.14453939E+04</rscale>
<asrwt>0</asrwt>
<pdfrwt beam="1">  1        1 0.14957603E+00 0.27283896E+04</pdfrwt>
<pdfrwt beam="2">  1       -1 0.34580219E+00 0.27283896E+04</pdfrwt>
<totfact> 0.22796473E-01</totfact>
</mgrwt>
</event>
