<event>
10    1  0.1504682E-015  0.2429406E+04  0.7818608E-02  0.8428576E-01
         -1   -1    0    0    0  501 -0.00000000000E+00  0.00000000000E+00  0.47238215725E+03  0.47238215725E+03  0.00000000000E+00 0.  1.
          1   -1    0    0  501    0  0.00000000000E+00 -0.00000000000E+00 -0.31235370209E+04  0.31235370209E+04  0.00000000000E+00 0. -1.
         24    2    1    2    0    0  0.30793096359E+03  0.69397537382E+02 -0.31003191139E+03  0.44951465383E+03  0.79411217050E+02 0.  0.
        -15    1    3    3    0    0  0.67246847444E+02  0.14416868738E+02 -0.11863856895E+03  0.13713166899E+03  0.00000000000E+00 0.  1.
        -15    1    1    2    0    0 -0.19799750202E+02 -0.50654192405E+02  0.60060751654E+01  0.54717001518E+02  0.00000000000E+00 0.  1.
         15    1    1    2    0    0 -0.40277253541E+02 -0.47447388711E+03 -0.31412264873E+03  0.57045662863E+03  0.00000000000E+00 0. -1.
         15    1    1    2    0    0  0.18850161699E+03 -0.20466356980E+03 -0.10554208339E+03  0.29758892415E+03  0.00000000000E+00 0. -1.
        -16    1    1    2    0    0  0.11320963208E+03  0.25968650586E+03 -0.15488161617E+03  0.32286501382E+03  0.00000000000E+00 0.  1.
         16    1    3    3    0    0  0.24068411615E+03  0.54980668645E+02 -0.19139334243E+03  0.31238298484E+03  0.00000000000E+00 0. -1.
    9900018    1    1    2    0    0 -0.54956520893E+03  0.40070760608E+03 -0.17725826792E+04  0.19007769562E+04  0.91187600000E+02 0.  0.
<mgrwt>
<rscale>  0 0.24294058E+04</rscale>
<asrwt>0</asrwt>
<pdfrwt beam="1">  1        1 0.48054413E+00 0.24294058E+04</pdfrwt>
<pdfrwt beam="2">  1       -1 0.72674182E-01 0.24294058E+04</pdfrwt>
<totfact> 0.82768404E-01</totfact>
</mgrwt>
</event>
<event>
11    1  0.1504682E-015  0.2970937E+04  0.7818608E-02  0.8854967E-01
         -1   -1    0    0    0  501 -0.00000000000E+00  0.00000000000E+00  0.10293885171E+04  0.10293885171E+04  0.00000000000E+00 0.  1.
          1   -1    0    0  501    0  0.00000000000E+00 -0.00000000000E+00 -0.26734777904E+04  0.26734777904E+04  0.00000000000E+00 0. -1.
         23    2    1    2    0    0 -0.12598768646E+03  0.16236525664E+03  0.11935300450E+03  0.24798658877E+03  0.70829618250E+02 0.  0.
         24    2    1    2    0    0  0.17402775638E+03  0.86199010792E+03 -0.64235116312E+03  0.10919039632E+04  0.79540191379E+02 0.  0.
        -15    1    4    4    0    0  0.10470319742E+03  0.32921990573E+03 -0.23896180609E+03  0.42006100825E+03  0.00000000000E+00 0.  1.
        -15    1    3    3    0    0 -0.36675849104E+02  0.76309087467E+02  0.15177196685E+02  0.86014778014E+02  0.00000000000E+00 0. -1.
         15    1    1    2    0    0 -0.10924813838E+03 -0.10577978571E+04 -0.17051236357E+03  0.10770078590E+04  0.00000000000E+00 0. -1.
         15    1    3    3    0    0 -0.89311837358E+02  0.86056169175E+02  0.10417580781E+03  0.16197181075E+03  0.00000000000E+00 0.  1.
        -16    1    1    2    0    0 -0.25843487385E+03 -0.24469047908E+03 -0.17290309369E+03  0.39567346939E+03  0.00000000000E+00 0.  1.
         16    1    4    4    0    0  0.69324558965E+02  0.53277020219E+03 -0.40338935702E+03  0.67184295499E+03  0.00000000000E+00 0. -1.
    9900018    1    1    2    0    0  0.31964294231E+03  0.27813297160E+03 -0.77767565741E+03  0.89029442713E+03  0.91187600000E+02 0.  0.
<mgrwt>
<rscale>  0 0.15451577E+04</rscale>
<asrwt>0</asrwt>
<pdfrwt beam="1">  1        1 0.41130427E+00 0.29709368E+04</pdfrwt>
<pdfrwt beam="2">  1       -1 0.15836747E+00 0.29709368E+04</pdfrwt>
<totfact> 0.25991715E-01</totfact>
</mgrwt>
</event>
<event>
11    1  0.1504682E-015  0.3270096E+04  0.7818608E-02  0.8710166E-01
         -2   -1    0    0    0  501 -0.00000000000E+00  0.00000000000E+00  0.87210027460E+03  0.87210027460E+03  0.00000000000E+00 0. -1.
          2   -1    0    0  501    0  0.00000000000E+00 -0.00000000000E+00 -0.38505839833E+04  0.38505839833E+04  0.00000000000E+00 0.  1.
         23    2    1    2    0    0 -0.17817722499E+03  0.22852054986E+03 -0.63261591973E+03  0.69818158492E+03  0.57322407579E+02 0.  0.
        -24    2    1    2    0    0  0.96894048456E+03  0.30916477055E+03 -0.10788286878E+04  0.14844776675E+04  0.73308183218E+02 0.  0.
        -15    1    3    3    0    0 -0.14269644899E+03  0.17523024247E+03 -0.54206860897E+03  0.58728723063E+03  0.00000000000E+00 0.  1.
        -15    1    1    2    0    0 -0.41961067664E+03 -0.10402807708E+04 -0.65022367979E+03  0.12965523652E+04  0.00000000000E+00 0.  1.
         15    1    4    4    0    0  0.26415074604E+03  0.70426149420E+02 -0.24768033394E+03  0.36889159245E+03  0.00000000000E+00 0. -1.
         15    1    3    3    0    0 -0.35480775993E+02  0.53290307392E+02 -0.90547310758E+02  0.11089435429E+03  0.00000000000E+00 0. -1.
        -16    1    4    4    0    0  0.70478973852E+03  0.23873862113E+03 -0.83114835382E+03  0.11155860750E+04  0.00000000000E+00 0.  1.
         16    1    1    2    0    0  0.91246336992E+02 -0.19479866766E+03 -0.29537499279E+02  0.21712871482E+03  0.00000000000E+00 0. -1.
    9900018    1    1    2    0    0 -0.46239891992E+03  0.69739411806E+03 -0.58727792210E+03  0.10263439254E+04  0.91187600000E+02 0.  0.
<mgrwt>
<rscale>  0 0.17927466E+04</rscale>
<asrwt>0</asrwt>
<pdfrwt beam="1">  1        2 0.59239754E+00 0.32700957E+04</pdfrwt>
<pdfrwt beam="2">  1       -2 0.13416927E+00 0.32700957E+04</pdfrwt>
<totfact> 0.14869770E-01</totfact>
</mgrwt>
</event>
<event>
11    1  0.1504682E-015  0.2010762E+04  0.7818608E-02  0.9215219E-01
          2   -1    0    0  501    0  0.00000000000E+00  0.00000000000E+00  0.13491326749E+04  0.13491326749E+04  0.00000000000E+00 0. -1.
         -2   -1    0    0    0  501 -0.00000000000E+00 -0.00000000000E+00 -0.98586246139E+03  0.98586246139E+03  0.00000000000E+00 0.  1.
         23    2    1    2    0    0 -0.67134012966E+02 -0.14829528439E+03 -0.18217786725E+03  0.25156632133E+03  0.59986428813E+02 0.  0.
         24    2    1    2    0    0 -0.37961840051E+03 -0.23071327208E+03  0.29834737930E+03  0.54115249558E+03  0.80598516181E+02 0.  0.
        -15    1    4    4    0    0 -0.26351690202E+03 -0.19141040001E+03  0.24457213925E+03  0.40730164519E+03  0.00000000000E+00 0.  1.
        -15    1    3    3    0    0 -0.39003495556E+02 -0.13564263305E+03 -0.16124033445E+03  0.21428635519E+03  0.00000000000E+00 0. -1.
         15    1    3    3    0    0 -0.28130517410E+02 -0.12652651340E+02 -0.20937532802E+02  0.37279966142E+02  0.00000000000E+00 0.  1.
         15    1    1    2    0    0 -0.28651276391E+03 -0.23551592573E+03 -0.13644289915E+02  0.37113808994E+03  0.00000000000E+00 0. -1.
        -16    1    1    2    0    0 -0.89142801975E+02  0.19242910765E+03  0.31733323459E+02  0.21443508209E+03  0.00000000000E+00 0.  1.
         16    1    4    4    0    0 -0.11610149849E+03 -0.39302872075E+02  0.53775240052E+02  0.13385085038E+03  0.00000000000E+00 0. -1.
    9900018    1    1    2    0    0  0.82240797937E+03  0.42209537456E+03  0.22901166795E+03  0.95670314738E+03  0.91187600000E+02 0.  0.
<mgrwt>
<rscale>  0 0.10897717E+04</rscale>
<asrwt>0</asrwt>
<pdfrwt beam="1">  1        2 0.20755887E+00 0.20107616E+04</pdfrwt>
<pdfrwt beam="2">  1       -2 0.15167115E+00 0.20107616E+04</pdfrwt>
<totfact> 0.41412915E+00</totfact>
</mgrwt>
</event>
<event>
12    1  0.1504682E-015  0.3168034E+04  0.7818608E-02  0.8800713E-01
          1   -1    0    0  501    0  0.00000000000E+00  0.00000000000E+00  0.33982296360E+04  0.33982296360E+04  0.00000000000E+00 0. -1.
         -1   -1    0    0    0  501 -0.00000000000E+00 -0.00000000000E+00 -0.84660678084E+03  0.84660678084E+03  0.00000000000E+00 0.  1.
         23    2    1    2    0    0  0.19566061388E+03 -0.18164963921E+00  0.19163409419E+03  0.29439514492E+03  0.10798965910E+03 0.  0.
    9900016    2    1    2    0    0 -0.40350040451E+03  0.21972073130E+02  0.14620284618E+04  0.25234623684E+04  0.20166902968E+04 0.  0.
         24    2    4    4    0    0 -0.93481347676E+03 -0.54967113867E+03  0.13524803172E+04  0.17353822085E+04  0.79585201394E+02 0.  0.
        -15    1    5    5    0    0 -0.35502839097E+03 -0.20405906720E+03  0.57281443102E+03  0.70413182976E+03  0.00000000000E+00 0.  1.
        -15    1    3    3    0    0  0.63946956163E+02 -0.43195516457E+02  0.33448231904E+02  0.84106183257E+02  0.00000000000E+00 0.  1.
         15    1    3    3    0    0  0.13171365772E+03  0.43013866818E+02  0.15818586229E+03  0.21028896166E+03  0.00000000000E+00 0. -1.
         15    1    4    4    0    0  0.53131307225E+03  0.57164321180E+03  0.10954814457E+03  0.78808015983E+03  0.00000000000E+00 0. -1.
        -16    1    1    2    0    0  0.10646504370E+03  0.35580857786E+03 -0.71019577894E+02  0.37812475462E+03  0.00000000000E+00 0.  1.
         16    1    5    5    0    0 -0.57978508580E+03 -0.34561207147E+03  0.77966588617E+03  0.10312503788E+04  0.00000000000E+00 0. -1.
    9900018    1    1    2    0    0  0.10137474693E+03 -0.37759900135E+03  0.96897987706E+03  0.10488541489E+04  0.91187600000E+02 0.  0.
<mgrwt>
<rscale>  0 0.16326900E+04</rscale>
<asrwt>0</asrwt>
<pdfrwt beam="1">  1        1 0.52280455E+00 0.31680340E+04</pdfrwt>
<pdfrwt beam="2">  1       -1 0.13024720E+00 0.31680340E+04</pdfrwt>
<totfact> 0.12609300E-01</totfact>
</mgrwt>
</event>
<event>
11    1  0.1504682E-015  0.3478763E+04  0.7818608E-02  0.8118841E-01
         -2   -1    0    0    0  501 -0.00000000000E+00  0.00000000000E+00  0.28369865734E+04  0.28369865734E+04  0.00000000000E+00 0.  1.
          2   -1    0    0  501    0  0.00000000000E+00 -0.00000000000E+00 -0.10664301585E+04  0.10664301585E+04  0.00000000000E+00 0. -1.
         23    2    1    2    0    0  0.35085106955E+02 -0.28758428858E+03  0.35585765521E+02  0.31096726344E+03  0.10723154598E+03 0.  0.
        -24    2    1    2    0    0 -0.42422273514E+03 -0.92892359022E+03  0.81835174557E+03  0.13110783790E+04  0.79768231840E+02 0.  0.
        -15    1    3    3    0    0 -0.47555849438E+01 -0.12530685415E+03  0.65093289094E+02  0.14128538343E+03  0.00000000000E+00 0.  1.
        -15    1    1    2    0    0  0.74300598715E+03  0.58033434664E+03  0.12587134544E+03  0.95115164218E+03  0.00000000000E+00 0.  1.
         15    1    3    3    0    0  0.39840691899E+02 -0.16227743443E+03 -0.29507523573E+02  0.16968188001E+03  0.00000000000E+00 0. -1.
         15    1    4    4    0    0 -0.19710548935E+03 -0.50003948326E+03  0.46569751733E+03  0.71117103175E+03  0.00000000000E+00 0. -1.
        -16    1    4    4    0    0 -0.22711724579E+03 -0.42888410696E+03  0.35265422824E+03  0.59990734720E+03  0.00000000000E+00 0.  1.
         16    1    1    2    0    0  0.12237106626E+03  0.54680888002E+03  0.53524022623E+03  0.77489143040E+03  0.00000000000E+00 0. -1.
    9900018    1    1    2    0    0 -0.47623942523E+03  0.89364652137E+02  0.25550733212E+03  0.55532801690E+03  0.91187600000E+02 0.  0.
<mgrwt>
<rscale>  0 0.34787630E+04</rscale>
<asrwt>0</asrwt>
<pdfrwt beam="1">  1        2 0.16406618E+00 0.34787630E+04</pdfrwt>
<pdfrwt beam="2">  1       -2 0.43645947E+00 0.34787630E+04</pdfrwt>
<totfact> 0.80194210E-02</totfact>
</mgrwt>
</event>
