<event>
12    1  0.1748906E-013  0.3153393E+04  0.7818608E-02  0.8829651E-01
         -1   -1    0    0    0  501 -0.00000000000E+00  0.00000000000E+00  0.22274492040E+04  0.22274492040E+04  0.00000000000E+00 0.  1.
          1   -1    0    0  501    0  0.00000000000E+00 -0.00000000000E+00 -0.13147781427E+04  0.13147781427E+04  0.00000000000E+00 0. -1.
         23    2    1    2    0    0 -0.11478332801E+03  0.11625538527E+03  0.24811314569E+03  0.31956978668E+03  0.11778874522E+03 0.  0.
    9900016    2    1    2    0    0  0.40378889570E+03  0.42535753374E+03  0.87493338794E+03  0.23281386242E+04  0.20762337336E+04 0.  0.
         24    2    4    4    0    0 -0.69690501940E+03 -0.37275318700E+03  0.38047754016E+03  0.88142012957E+03  0.86699145107E+02 0.  0.
        -15    1    5    5    0    0 -0.64024855386E+03 -0.35024391653E+03  0.32459249354E+03  0.79871728330E+03  0.00000000000E+00 0.  1.
        -15    1    3    3    0    0 -0.72982166562E+02  0.28827371860E+02  0.35928916423E+02  0.86303540134E+02  0.00000000000E+00 0. -1.
         15    1    4    4    0    0  0.11006939151E+04  0.79811072074E+03  0.49445584778E+03  0.14467184946E+04  0.00000000000E+00 0. -1.
         15    1    3    3    0    0 -0.41801161453E+02  0.87428013408E+02  0.21218422926E+03  0.23326624654E+03  0.00000000000E+00 0.  1.
        -16    1    1    2    0    0 -0.74977900429E+02 -0.42562790235E+03  0.14353817138E+03  0.45539433841E+03  0.00000000000E+00 0.  1.
         16    1    5    5    0    0 -0.56656465544E+02 -0.22509270468E+02  0.55885046626E+02  0.82702846271E+02  0.00000000000E+00 0. -1.
    9900018    1    1    2    0    0 -0.21402766725E+03 -0.11598501666E+03 -0.35391364368E+03  0.43912459737E+03  0.91187600000E+02 0.  0.
<mgrwt>
<rscale>  0 0.15852658E+04</rscale>
<asrwt>0</asrwt>
<pdfrwt beam="1">  1        1 0.20227356E+00 0.31533925E+04</pdfrwt>
<pdfrwt beam="2">  1       -1 0.34268449E+00 0.31533925E+04</pdfrwt>
<totfact> 0.12763243E-01</totfact>
</mgrwt>
</event>
<event>
11    1  0.1748906E-013  0.4835940E+04  0.7818608E-02  0.7854326E-01
          1   -1    0    0  501    0  0.00000000000E+00  0.00000000000E+00  0.22399749459E+04  0.22399749459E+04  0.00000000000E+00 0. -1.
         -1   -1    0    0    0  501 -0.00000000000E+00 -0.00000000000E+00 -0.26101094516E+04  0.26101094516E+04  0.00000000000E+00 0.  1.
    9900016    2    1    2    0    0 -0.63832061680E+03 -0.46086041119E+03  0.10372684440E+04  0.24722238020E+04  0.21014564412E+04 0.  0.
        -24    2    3    3    0    0 -0.36027719477E+03 -0.95172010769E+03  0.13702623308E+04  0.17086304113E+04  0.78918988673E+02 0.  0.
        -15    1    1    2    0    0  0.39162529678E+03  0.61495524555E+03 -0.11872167208E+04  0.13932063269E+04  0.00000000000E+00 0.  1.
        -15    1    3    3    0    0 -0.98677795837E+02  0.46191918865E+03 -0.29469219143E+03  0.55673165163E+03  0.00000000000E+00 0.  1.
         15    1    4    4    0    0 -0.30280642135E+03 -0.73354870287E+03  0.11040593181E+04  0.13596809943E+04  0.00000000000E+00 0. -1.
         15    1    1    2    0    0  0.24231409780E+03  0.32148594235E+03 -0.30044215386E+03  0.50232939485E+03  0.00000000000E+00 0. -1.
        -16    1    4    4    0    0 -0.57470773421E+02 -0.21817140482E+03  0.26620301268E+03  0.34894941702E+03  0.00000000000E+00 0.  1.
         16    1    1    2    0    0  0.43812222282E+01 -0.47558077670E+03  0.80255924974E+02  0.48232487368E+03  0.00000000000E+00 0. -1.
    9900018    1    3    3    0    0 -0.17936562620E+03  0.28940507847E+02 -0.38301695378E+02  0.20686173914E+03  0.91187600000E+02 0.  0.
<mgrwt>
<rscale>  0 0.48359404E+04</rscale>
<asrwt>0</asrwt>
<pdfrwt beam="1">  1        1 0.34461153E+00 0.48359404E+04</pdfrwt>
<pdfrwt beam="2">  1       -1 0.40155530E+00 0.48359404E+04</pdfrwt>
<totfact> 0.10448025E-02</totfact>
</mgrwt>
</event>
<event>
11    1  0.1748907E-013  0.5529862E+04  0.7818608E-02  0.7751593E-01
          2   -1    0    0  501    0  0.00000000000E+00  0.00000000000E+00  0.39048586737E+04  0.39048586737E+04  0.00000000000E+00 0. -1.
         -2   -1    0    0    0  501 -0.00000000000E+00 -0.00000000000E+00 -0.19577773845E+04  0.19577773845E+04  0.00000000000E+00 0.  1.
    9900016    2    1    2    0    0  0.15444763804E+03 -0.94733987688E+03  0.20979988089E+04  0.30801533600E+04  0.20406956666E+04 0.  0.
        -24    2    1    2    0    0  0.28616416547E+03 -0.48471867521E+03 -0.26339032667E+03  0.62645463935E+03  0.78922919882E+02 0.  0.
        -15    1    3    3    0    0 -0.10478742668E+01  0.14383823054E+03  0.50577747358E+02  0.15247505741E+03  0.00000000000E+00 0.  1.
        -15    1    1    2    0    0 -0.27728099652E+03  0.39287566951E+03  0.77314149485E+03  0.91048548247E+03  0.00000000000E+00 0.  1.
         15    1    4    4    0    0  0.21211842873E+03 -0.37505651117E+03 -0.16430842047E+03  0.46114951091E+03  0.00000000000E+00 0. -1.
         15    1    3    3    0    0 -0.26512299663E+03  0.26003648154E+03 -0.72920725094E+02  0.37845291282E+03  0.00000000000E+00 0. -1.
        -16    1    4    4    0    0  0.74045736733E+02 -0.10966216404E+03 -0.99081906200E+02  0.16530512843E+03  0.00000000000E+00 0.  1.
         16    1    3    3    0    0  0.42061850893E+03 -0.13512145890E+04  0.21203417867E+04  0.25492253897E+04  0.00000000000E+00 0. -1.
    9900018    1    1    2    0    0 -0.16333080698E+03  0.10391828826E+04 -0.66066868799E+03  0.12455425764E+04  0.91187600000E+02 0.  0.
<mgrwt>
<rscale>  0 0.55298622E+04</rscale>
<asrwt>0</asrwt>
<pdfrwt beam="1">  1        2 0.60074749E+00 0.55298622E+04</pdfrwt>
<pdfrwt beam="2">  1       -2 0.30119652E+00 0.55298622E+04</pdfrwt>
<totfact> 0.88515979E-03</totfact>
</mgrwt>
</event>
<event>
12    1  0.1748906E-013  0.2649818E+04  0.7818608E-02  0.9044078E-01
          1   -1    0    0  501    0  0.00000000000E+00  0.00000000000E+00  0.22676642593E+04  0.22676642593E+04  0.00000000000E+00 0. -1.
         -1   -1    0    0    0  501 -0.00000000000E+00 -0.00000000000E+00 -0.89247136042E+03  0.89247136042E+03  0.00000000000E+00 0.  1.
         23    2    1    2    0    0 -0.19391002046E+02  0.95637455772E+02 -0.47316969799E+02  0.15263334235E+03  0.10740348066E+03 0.  0.
    9900016    2    1    2    0    0 -0.49522930264E+03 -0.53849451242E+02  0.10386013784E+04  0.23641003624E+04  0.20644916746E+04 0.  0.
        -24    2    4    4    0    0 -0.11635103041E+04 -0.23087978351E+03  0.10432470686E+04  0.15818115861E+04  0.81864191138E+02 0.  0.
        -15    1    3    3    0    0  0.44680505149E+02  0.45121296170E+02 -0.22056994052E+02  0.67221945040E+02  0.00000000000E+00 0. -1.
        -15    1    4    4    0    0  0.45496825342E+03 -0.19740194192E+02  0.88982814843E+02  0.46400832775E+03  0.00000000000E+00 0.  1.
         15    1    3    3    0    0 -0.64071507195E+02  0.50516159602E+02 -0.25259975747E+02  0.85411397306E+02  0.00000000000E+00 0.  1.
         15    1    5    5    0    0 -0.68809883496E+03 -0.14158649985E+03  0.67050056870E+03  0.97113220327E+03  0.00000000000E+00 0. -1.
        -16    1    5    5    0    0 -0.47541146910E+03 -0.89293283666E+02  0.37274649993E+03  0.61067938288E+03  0.00000000000E+00 0.  1.
         16    1    1    2    0    0  0.51462030468E+03 -0.41788004530E+02  0.38390849023E+03  0.64340191497E+03  0.00000000000E+00 0. -1.
    9900018    1    4    4    0    0  0.21331274801E+03  0.19677052646E+03 -0.93628505031E+02  0.31828044850E+03  0.91187600000E+02 0.  0.
<mgrwt>
<rscale>  0 0.12818561E+04</rscale>
<asrwt>0</asrwt>
<pdfrwt beam="1">  1        1 0.34887142E+00 0.26498180E+04</pdfrwt>
<pdfrwt beam="2">  1       -1 0.13730329E+00 0.26498180E+04</pdfrwt>
<totfact> 0.75258227E-01</totfact>
</mgrwt>
</event>
