<event>
12    1  0.3344203E-012  0.3843000E+04  0.7818608E-02  0.8636152E-01
          2   -1    0    0  501    0  0.00000000000E+00  0.00000000000E+00  0.16088301948E+04  0.16088301948E+04  0.00000000000E+00 0. -1.
         -2   -1    0    0    0  501 -0.00000000000E+00 -0.00000000000E+00 -0.26717849407E+04  0.26717849407E+04  0.00000000000E+00 0.  1.
        -24    2    1    2    0    0  0.99258300457E+02  0.21211952343E+03 -0.25006225173E+03  0.35258248306E+03  0.83284903737E+02 0.  0.
    9900016    2    1    2    0    0  0.11168241004E+04 -0.80786878283E+03  0.11486343427E+03  0.22865380138E+04  0.18207455722E+04 0.  0.
         24    2    4    4    0    0 -0.36093136425E+03 -0.37059191008E+02 -0.17226358811E+03  0.40673859777E+03  0.64161591217E+02 0.  0.
        -15    1    5    5    0    0 -0.10160934187E+03 -0.34620522159E+02 -0.68959519643E+02  0.12758704582E+03  0.00000000000E+00 0.  1.
        -15    1    1    2    0    0 -0.12160824009E+04  0.59574925940E+03 -0.92775592849E+03  0.16414946386E+04  0.00000000000E+00 0.  1.
         15    1    3    3    0    0  0.83130103468E+02  0.92298819191E+02 -0.15592140230E+03  0.19935187439E+03  0.00000000000E+00 0. -1.
         15    1    4    4    0    0  0.53492394089E+03  0.25143768038E+02  0.35201081915E+03  0.64084900593E+03  0.00000000000E+00 0. -1.
        -16    1    3    3    0    0  0.16128196989E+02  0.11982070424E+03 -0.94140849427E+02  0.15323060867E+03  0.00000000000E+00 0.  1.
         16    1    5    5    0    0 -0.25932202238E+03 -0.24386688487E+01 -0.10330406847E+03  0.27915155195E+03  0.00000000000E+00 0. -1.
    9900018    1    4    4    0    0  0.94283152378E+03 -0.79595335986E+03 -0.64883796775E+02  0.12389504101E+04  0.91187600000E+02 0.  0.
<mgrwt>
<rscale>  0 0.19380350E+04</rscale>
<asrwt>0</asrwt>
<pdfrwt beam="1">  1        2 0.24751234E+00 0.38429997E+04</pdfrwt>
<pdfrwt beam="2">  1       -2 0.41104384E+00 0.38429997E+04</pdfrwt>
<totfact> 0.54719267E-02</totfact>
</mgrwt>
</event>
<event>
12    1  0.3344204E-012  0.8294705E+04  0.7818608E-02  0.7456900E-01
         -1   -1    0    0    0  501 -0.00000000000E+00  0.00000000000E+00  0.35165587446E+04  0.35165587446E+04  0.00000000000E+00 0.  1.
          1   -1    0    0  501    0  0.00000000000E+00 -0.00000000000E+00 -0.48912969124E+04  0.48912969124E+04  0.00000000000E+00 0. -1.
        -24    2    1    2    0    0  0.13691537110E+03  0.13300259636E+04  0.10243628417E+04  0.16862313536E+04  0.79637074689E+02 0.  0.
    9900016    2    1    2    0    0  0.96855829406E+03 -0.12157573195E+04 -0.40602692192E+04  0.47229724658E+04  0.18451319062E+04 0.  0.
         24    2    4    4    0    0 -0.45849410244E+03 -0.46440388222E+03 -0.98131589911E+03  0.11797946654E+04  0.55197380032E+02 0.  0.
        -15    1    5    5    0    0 -0.34112114517E+03 -0.31494056418E+03 -0.67270913734E+03  0.81736697884E+03  0.00000000000E+00 0.  1.
        -15    1    1    2    0    0 -0.11054736652E+04 -0.11426864409E+03  0.16611682096E+04  0.19986518376E+04  0.00000000000E+00 0.  1.
         15    1    3    3    0    0  0.33774557267E+02  0.67872728854E+03  0.49822644967E+03  0.84263933452E+03  0.00000000000E+00 0. -1.
         15    1    4    4    0    0  0.52076945186E+03 -0.61271360470E+02 -0.50977265446E+03  0.73131604716E+03  0.00000000000E+00 0. -1.
        -16    1    3    3    0    0  0.10314081384E+03  0.65129867506E+03  0.52613639207E+03  0.84359201909E+03  0.00000000000E+00 0.  1.
         16    1    5    5    0    0 -0.11737295727E+03 -0.14946331804E+03 -0.30860676177E+03  0.36242768651E+03  0.00000000000E+00 0. -1.
    9900018    1    4    4    0    0  0.90628294464E+03 -0.69008207682E+03 -0.25691806656E+04  0.28118617533E+04  0.91187600000E+02 0.  0.
<mgrwt>
<rscale>  0 0.82947050E+04</rscale>
<asrwt>0</asrwt>
<pdfrwt beam="1">  1        1 0.75250722E+00 0.82947050E+04</pdfrwt>
<pdfrwt beam="2">  1       -1 0.54100904E+00 0.82947050E+04</pdfrwt>
<totfact> 0.56521335E-06</totfact>
</mgrwt>
</event>
<event>
12    1  0.3344203E-012  0.4626663E+04  0.7818608E-02  0.8713053E-01
         -2   -1    0    0    0  501 -0.00000000000E+00  0.00000000000E+00  0.23902098313E+04  0.23902098313E+04  0.00000000000E+00 0.  1.
          2   -1    0    0  501    0  0.00000000000E+00 -0.00000000000E+00 -0.26081566002E+04  0.26081566002E+04  0.00000000000E+00 0. -1.
        -24    2    1    2    0    0 -0.56392365219E+02 -0.31503322907E+02  0.32407362071E+03  0.34006270223E+03  0.80289299402E+02 0.  0.
    9900016    2    1    2    0    0 -0.10898413425E+04  0.12295661906E+04 -0.13443508505E+04  0.28163101039E+04  0.18506042860E+04 0.  0.
         24    2    4    4    0    0  0.51141089567E+03  0.26528354860E+03 -0.36093521275E+03  0.68240648444E+03  0.59058588199E+02 0.  0.
        -15    1    5    5    0    0  0.21065497607E+03  0.80560053545E+02 -0.12500657853E+03  0.25786059382E+03  0.00000000000E+00 0.  1.
        -15    1    1    2    0    0  0.11462337077E+04 -0.11980628677E+04  0.80233046082E+03  0.18419936254E+04  0.00000000000E+00 0.  1.
         15    1    4    4    0    0 -0.14305638410E+04  0.81899138380E+03 -0.81350067110E+03  0.18382173788E+04  0.00000000000E+00 0. -1.
         15    1    3    3    0    0  0.16723388328E+02  0.64883919140E+01  0.93587922716E+02  0.95291501326E+02  0.00000000000E+00 0. -1.
        -16    1    3    3    0    0 -0.73115753547E+02 -0.37991714821E+02  0.23048569800E+03  0.24477120090E+03  0.00000000000E+00 0.  1.
         16    1    5    5    0    0  0.30075591960E+03  0.18472349505E+03 -0.23592863422E+03  0.42454589062E+03  0.00000000000E+00 0. -1.
    9900018    1    4    4    0    0 -0.17068839718E+03  0.14529125820E+03 -0.16991496664E+03  0.29568624067E+03  0.91187600000E+02 0.  0.
<mgrwt>
<rscale>  0 0.17873556E+04</rscale>
<asrwt>0</asrwt>
<pdfrwt beam="1">  1        2 0.40125486E+00 0.46266627E+04</pdfrwt>
<pdfrwt beam="2">  1       -2 0.36772459E+00 0.46266627E+04</pdfrwt>
<totfact> 0.26734684E-02</totfact>
</mgrwt>
</event>
