<event>
12    1  0.6144631E-016  0.3776857E+04  0.7818608E-02  0.8382380E-01
          1   -1    0    0  501    0  0.00000000000E+00  0.00000000000E+00  0.18244719152E+04  0.18244719152E+04  0.00000000000E+00 0. -1.
         -1   -1    0    0    0  501 -0.00000000000E+00 -0.00000000000E+00 -0.32265626736E+04  0.32265626736E+04  0.00000000000E+00 0.  1.
         24    2    1    2    0    0 -0.68234342886E+03  0.39953034971E+03 -0.96245116806E+03  0.12486760450E+04  0.87536045482E+02 0.  0.
    9900016    2    1    2    0    0 -0.15078892214E+03 -0.78789997916E+03 -0.92685012295E+03  0.24724013869E+04  0.21471361837E+04 0.  0.
         23    2    4    4    0    0  0.15581169647E+03  0.77478224657E+02  0.63103522343E+03  0.66411763500E+03  0.11210093601E+03 0.  0.
        -15    1    3    3    0    0 -0.31427332896E+03  0.22475575350E+03 -0.50937579615E+03  0.63933291463E+03  0.00000000000E+00 0.  1.
        -15    1    5    5    0    0  0.11554286207E+03  0.40020479756E+02  0.56547368866E+03  0.57854324328E+03  0.00000000000E+00 0.  1.
         15    1    5    5    0    0  0.40268834402E+02  0.37457744901E+02  0.65561534774E+02  0.85574391725E+02  0.00000000000E+00 0. -1.
         15    1    1    2    0    0  0.87678682287E+03  0.47420560927E+03  0.59339638488E+03  0.11600626544E+04  0.00000000000E+00 0. -1.
        -16    1    4    4    0    0 -0.30660061861E+03 -0.86537820381E+03 -0.15578853464E+04  0.18082837519E+04  0.00000000000E+00 0.  1.
         16    1    3    3    0    0 -0.36807009990E+03  0.17477459621E+03 -0.45307537191E+03  0.60934313039E+03  0.00000000000E+00 0. -1.
    9900018    1    1    2    0    0 -0.43654471874E+02 -0.85835979828E+02 -0.10618585226E+03  0.16989450245E+03  0.91187600000E+02 0.  0.
<mgrwt>
<rscale>  0 0.25586627E+04</rscale>
<asrwt>0</asrwt>
<pdfrwt beam="1">  1        1 0.28068799E+00 0.37768568E+04</pdfrwt>
<pdfrwt beam="2">  1       -1 0.49639425E+00 0.37768568E+04</pdfrwt>
<totfact> 0.47585113E-03</totfact>
</mgrwt>
</event>
<event>
11    1  0.6144631E-016  0.2611591E+04  0.7818608E-02  0.8364275E-01
         -2   -1    0    0    0  501 -0.00000000000E+00  0.00000000000E+00  0.68216223711E+03  0.68216223711E+03  0.00000000000E+00 0.  1.
          2   -1    0    0  501    0  0.00000000000E+00 -0.00000000000E+00 -0.24995543215E+04  0.24995543215E+04  0.00000000000E+00 0. -1.
         24    2    1    2    0    0  0.63503605250E+02 -0.45067724552E+01 -0.58124077632E+02  0.11692635369E+03  0.78995853745E+02 0.  0.
    9900016    2    1    2    0    0 -0.15925953391E+02 -0.60057935233E+02 -0.12989336400E+04  0.25118100565E+04  0.21489766325E+04 0.  0.
        -15    1    4    4    0    0  0.11682628048E+03  0.61359512950E+03 -0.64654406022E+03  0.89898085884E+03  0.00000000000E+00 0. -1.
        -15    1    3    3    0    0  0.20051346625E+02 -0.39341861964E+02 -0.36108552075E+02  0.57040916343E+02  0.00000000000E+00 0.  1.
         15    1    4    4    0    0 -0.16887269339E+03  0.29212076335E+03 -0.54423532344E+03  0.64034726065E+03  0.00000000000E+00 0.  1.
         15    1    1    2    0    0 -0.33909924029E+02  0.87972839408E+02 -0.44710020833E+03  0.45693292693E+03  0.00000000000E+00 0. -1.
        -16    1    4    4    0    0  0.36120459518E+02 -0.96577382808E+03 -0.10815425631E+03  0.97248193698E+03  0.00000000000E+00 0.  1.
         16    1    3    3    0    0  0.43452258626E+02  0.34835089509E+02 -0.22015525557E+02  0.59885437348E+02  0.00000000000E+00 0. -1.
    9900018    1    1    2    0    0 -0.13667727830E+02 -0.23408131720E+02 -0.13234158441E+02  0.96047221501E+02  0.91187600000E+02 0.  0.
<mgrwt>
<rscale>  0 0.26115908E+04</rscale>
<asrwt>0</asrwt>
<pdfrwt beam="1">  1        2 0.38454681E+00 0.26115908E+04</pdfrwt>
<pdfrwt beam="2">  1       -2 0.10494804E+00 0.26115908E+04</pdfrwt>
<totfact> 0.22648851E+00</totfact>
</mgrwt>
</event>
<event>
11    1  0.6144631E-016  0.2714856E+04  0.7818608E-02  0.9085686E-01
         -1   -1    0    0    0  501 -0.00000000000E+00  0.00000000000E+00  0.14040103054E+04  0.14040103054E+04  0.00000000000E+00 0.  1.
          1   -1    0    0  501    0  0.00000000000E+00 -0.00000000000E+00 -0.14419944980E+04  0.14419944980E+04  0.00000000000E+00 0. -1.
         24    2    1    2    0    0  0.41443965720E+01 -0.83254810282E+02 -0.62877781114E+02  0.13103494888E+03  0.79170720668E+02 0.  0.
    9900016    2    1    2    0    0  0.81956702619E+02 -0.11645087893E+02  0.33658376313E+03  0.21709631735E+04  0.21431145471E+04 0.  0.
        -15    1    3    3    0    0 -0.52905518899E+00 -0.45056374735E+02  0.12188710524E+02  0.46678918881E+02  0.00000000000E+00 0.  1.
        -15    1    4    4    0    0 -0.79602101897E+02  0.63761393206E+02 -0.12143477246E+03  0.15858251433E+03  0.00000000000E+00 0.  1.
         15    1    4    4    0    0 -0.63346041033E+03  0.50480795282E+01 -0.46921969595E+03  0.78833032267E+03  0.00000000000E+00 0. -1.
         15    1    1    2    0    0 -0.67757402178E+02  0.98106660572E+02 -0.39897594844E+03  0.41641060245E+03  0.00000000000E+00 0. -1.
        -16    1    4    4    0    0  0.79501921485E+03 -0.80454560628E+02  0.92723823154E+03  0.12240503365E+04  0.00000000000E+00 0.  1.
         16    1    3    3    0    0  0.46734517610E+01 -0.38198435547E+02 -0.75066491638E+02  0.84356029995E+02  0.00000000000E+00 0. -1.
    9900018    1    1    2    0    0 -0.18343697013E+02 -0.32067623969E+01  0.87285773894E+02  0.12759607856E+03  0.91187600000E+02 0.  0.
<mgrwt>
<rscale>  0 0.12315438E+04</rscale>
<asrwt>0</asrwt>
<pdfrwt beam="1">  1        1 0.22184531E+00 0.27148557E+04</pdfrwt>
<pdfrwt beam="2">  1       -1 0.21600158E+00 0.27148557E+04</pdfrwt>
<totfact> 0.72974909E-01</totfact>
</mgrwt>
</event>
