<event>
11    1  0.9411846E-017  0.3210565E+04  0.7818608E-02  0.8571268E-01
         -1   -1    0    0    0  501 -0.00000000000E+00  0.00000000000E+00  0.13729507656E+04  0.13729507656E+04  0.00000000000E+00 0.  1.
          1   -1    0    0  501    0  0.00000000000E+00 -0.00000000000E+00 -0.34356702837E+04  0.34356702837E+04  0.00000000000E+00 0. -1.
    9900016    2    1    2    0    0  0.26202595906E+02 -0.99019101440E+03 -0.43615756849E+03  0.21853504920E+04  0.18985148214E+04 0.  0.
         24    2    3    3    0    0  0.26554101968E+03  0.28363549624E+03  0.43193023293E+03  0.58403429970E+03  0.59759595506E+02 0.  0.
        -15    1    4    4    0    0  0.94604776585E+02  0.76929909793E+02  0.16929565387E+03  0.20863674938E+03  0.00000000000E+00 0.  1.
        -15    1    1    2    0    0 -0.33711207379E+02  0.10685222317E+04 -0.19717069856E+03  0.10870843985E+04  0.00000000000E+00 0.  1.
         15    1    1    2    0    0  0.24680705973E+03  0.97312778228E+02 -0.71092543488E+03  0.75881386090E+03  0.00000000000E+00 0. -1.
         15    1    3    3    0    0 -0.23794042586E+03 -0.11469138286E+04 -0.84273095208E+03  0.14429907949E+04  0.00000000000E+00 0. -1.
        -16    1    1    2    0    0 -0.23929844825E+03 -0.17564399553E+03 -0.71846581621E+03  0.77737229791E+03  0.00000000000E+00 0.  1.
         16    1    4    4    0    0  0.17093624310E+03  0.20670558644E+03  0.26263457906E+03  0.37539755032E+03  0.00000000000E+00 0. -1.
    9900018    1    3    3    0    0 -0.13979979117E+01 -0.12691268202E+03 -0.25356849338E+02  0.15832539738E+03  0.91187600000E+02 0.  0.
<mgrwt>
<rscale>  0 0.20773924E+04</rscale>
<asrwt>0</asrwt>
<pdfrwt beam="1">  1        1 0.52856466E+00 0.32105647E+04</pdfrwt>
<pdfrwt beam="2">  1       -1 0.21122320E+00 0.32105647E+04</pdfrwt>
<totfact> 0.28615861E-02</totfact>
</mgrwt>
</event>
<event>
11    1  0.9411846E-017  0.2632600E+04  0.7818608E-02  0.8512324E-01
         -1   -1    0    0    0  501 -0.00000000000E+00  0.00000000000E+00  0.24388510231E+04  0.24388510231E+04  0.00000000000E+00 0.  1.
          1   -1    0    0  501    0  0.00000000000E+00 -0.00000000000E+00 -0.16346539082E+04  0.16346539082E+04  0.00000000000E+00 0. -1.
    9900016    2    1    2    0    0  0.45891971640E+01 -0.25713601476E+03  0.68419867282E+03  0.20377459665E+04  0.19021411119E+04 0.  0.
         24    2    3    3    0    0 -0.16057566703E+03 -0.69208449711E+03  0.11142000420E+04  0.13258667487E+04  0.10823772765E+03 0.  0.
        -15    1    1    2    0    0  0.20589858954E+03  0.38264729372E+03  0.30089058568E+02  0.43556690876E+03  0.00000000000E+00 0.  1.
        -15    1    4    4    0    0 -0.67685249772E+02 -0.43231223738E+03  0.60392703043E+03  0.74579019953E+03  0.00000000000E+00 0.  1.
         15    1    1    2    0    0 -0.87523210836E+03  0.11141413458E+03 -0.37441026542E+02  0.88308900082E+03  0.00000000000E+00 0. -1.
         15    1    3    3    0    0  0.13137874149E+03  0.39391435101E+03 -0.44103409809E+03  0.60575569772E+03  0.00000000000E+00 0. -1.
        -16    1    1    2    0    0  0.66474432166E+03 -0.23692541354E+03  0.12735041003E+03  0.71710305514E+03  0.00000000000E+00 0.  1.
         16    1    4    4    0    0 -0.92890417260E+02 -0.25977225973E+03  0.51027301158E+03  0.58007654917E+03  0.00000000000E+00 0. -1.
    9900018    1    3    3    0    0  0.33786122704E+02  0.41034131342E+02  0.11032728896E+02  0.10612352012E+03  0.91187600000E+02 0.  0.
<mgrwt>
<rscale>  0 0.22147250E+04</rscale>
<asrwt>0</asrwt>
<pdfrwt beam="1">  1        1 0.25148522E+00 0.26325997E+04</pdfrwt>
<pdfrwt beam="2">  1       -1 0.37520785E+00 0.26325997E+04</pdfrwt>
<totfact> 0.47154295E-02</totfact>
</mgrwt>
</event>
<event>
11    1  0.9411846E-017  0.2826501E+04  0.7818608E-02  0.8493946E-01
          2   -1    0    0  501    0  0.00000000000E+00  0.00000000000E+00  0.29252336735E+04  0.29252336735E+04  0.00000000000E+00 0. -1.
         -2   -1    0    0    0  501 -0.00000000000E+00 -0.00000000000E+00 -0.17727090489E+04  0.17727090489E+04  0.00000000000E+00 0.  1.
    9900016    2    1    2    0    0  0.10037478944E+02 -0.46056895571E+03  0.97429761765E+03  0.21023692332E+04  0.18051249350E+04 0.  0.
         24    2    3    3    0    0 -0.23244280331E+03 -0.10246634915E+03 -0.50046456995E+03  0.56550304709E+03  0.69281317657E+02 0.  0.
        -15    1    4    4    0    0 -0.23740271820E+03 -0.10135428352E+03 -0.48862452012E+03  0.55261800826E+03  0.00000000000E+00 0.  1.
        -15    1    1    2    0    0 -0.12043550331E+03 -0.30364889151E+03 -0.12155357997E+03  0.34854358778E+03  0.00000000000E+00 0.  1.
         15    1    3    3    0    0  0.24248028226E+03 -0.35810260656E+03  0.14747621876E+04  0.15368661861E+04  0.00000000000E+00 0. -1.
         15    1    1    2    0    0 -0.66336969803E+03  0.48222049167E+03 -0.54813241056E+03  0.98643048329E+03  0.00000000000E+00 0. -1.
        -16    1    1    2    0    0  0.77160225444E+03  0.31691852740E+03  0.77623002525E+03  0.11394474293E+04  0.00000000000E+00 0.  1.
         16    1    4    4    0    0  0.49599148858E+01 -0.11120656317E+01 -0.11840049826E+02  0.12885038825E+02  0.00000000000E+00 0. -1.
    9900018    1    1    2    0    0  0.21654679673E+01 -0.34921171843E+02  0.71682972236E+02  0.12115198883E+03  0.91187600000E+02 0.  0.
<mgrwt>
<rscale>  0 0.22597903E+04</rscale>
<asrwt>0</asrwt>
<pdfrwt beam="1">  1        2 0.45003595E+00 0.28265008E+04</pdfrwt>
<pdfrwt beam="2">  1       -2 0.27272447E+00 0.28265008E+04</pdfrwt>
<totfact> 0.74793750E-02</totfact>
</mgrwt>
</event>
<event>
10    1  0.9411846E-017  0.3882087E+04  0.7818608E-02  0.8141546E-01
         -2   -1    0    0    0  501 -0.00000000000E+00  0.00000000000E+00  0.30775051591E+04  0.30775051591E+04  0.00000000000E+00 0.  1.
          2   -1    0    0  501    0  0.00000000000E+00 -0.00000000000E+00 -0.34485053224E+04  0.34485053224E+04  0.00000000000E+00 0. -1.
    9900016    2    1    2    0    0 -0.36691994793E+03  0.63166195347E+03 -0.85723141244E+03  0.21232432397E+04  0.17999136338E+04 0.  0.
        -15    1    3    3    0    0 -0.40323593499E+03 -0.17782587758E+03 -0.29983765685E+03  0.53303272176E+03  0.00000000000E+00 0.  1.
        -15    1    1    2    0    0 -0.51365565496E+03  0.24427047268E+03  0.38565847077E+03  0.68719913545E+03  0.00000000000E+00 0.  1.
         15    1    3    3    0    0  0.48502605183E+03  0.90463316289E+03 -0.32961023732E+03  0.10780790040E+04  0.00000000000E+00 0. -1.
         15    1    1    2    0    0  0.51596614073E+03 -0.80545220186E+03 -0.16019132257E+04  0.18657706961E+04  0.00000000000E+00 0. -1.
        -16    1    1    2    0    0  0.34729884872E+03 -0.10545031818E+03  0.17120979840E+04  0.17501473557E+04  0.00000000000E+00 0.  1.
         16    1    3    3    0    0 -0.44871006477E+03 -0.95145331836E+02 -0.22778351827E+03  0.51213151396E+03  0.00000000000E+00 0. -1.
    9900018    1    1    2    0    0  0.17310613440E+02  0.34970093893E+02 -0.96119798771E+01  0.99650054468E+02  0.91187600000E+02 0.  0.
<mgrwt>
<rscale>  0 0.33852074E+04</rscale>
<asrwt>0</asrwt>
<pdfrwt beam="1">  1        2 0.53053928E+00 0.38820866E+04</pdfrwt>
<pdfrwt beam="2">  1       -2 0.47346233E+00 0.38820866E+04</pdfrwt>
<totfact> 0.15865162E-03</totfact>
</mgrwt>
</event>
<event>
10    1  0.9411846E-017  0.4085056E+04  0.7818608E-02  0.8127569E-01
          1   -1    0    0  501    0  0.00000000000E+00  0.00000000000E+00  0.38288624741E+04  0.38288624741E+04  0.00000000000E+00 0. -1.
         -1   -1    0    0    0  501 -0.00000000000E+00 -0.00000000000E+00 -0.27827756890E+04  0.27827756890E+04  0.00000000000E+00 0.  1.
    9900016    2    1    2    0    0  0.48191892274E+03 -0.12958656217E+04 -0.17254215188E+03  0.22794822741E+04  0.18040939794E+04 0.  0.
        -15    1    1    2    0    0  0.12705114613E+03  0.61004390532E+03 -0.12465461971E+04  0.13936186644E+04  0.00000000000E+00 0.  1.
        -15    1    3    3    0    0 -0.40532711049E+03 -0.59132022118E+02  0.46967054839E+03  0.62319907458E+03  0.00000000000E+00 0.  1.
         15    1    3    3    0    0  0.23569674479E+03 -0.25629692790E+03 -0.11795883392E+03  0.36763481507E+03  0.00000000000E+00 0. -1.
         15    1    1    2    0    0 -0.74910994686E+03  0.21288563968E+03  0.19003960946E+04  0.20537748962E+04  0.00000000000E+00 0. -1.
        -16    1    3    3    0    0  0.65154928845E+03 -0.98043667166E+03 -0.52425386635E+03  0.12886483845E+04  0.00000000000E+00 0.  1.
         16    1    1    2    0    0  0.15442794061E+03  0.52359724162E+03  0.55586791261E+03  0.77909639747E+03  0.00000000000E+00 0. -1.
    9900018    1    1    2    0    0 -0.14288062631E+02 -0.50661164948E+02  0.89111268684E+01  0.10566593085E+03  0.91187600000E+02 0.  0.
<mgrwt>
<rscale>  0 0.34424373E+04</rscale>
<asrwt>0</asrwt>
<pdfrwt beam="1">  1        1 0.58905577E+00 0.40850564E+04</pdfrwt>
<pdfrwt beam="2">  1       -1 0.42811934E+00 0.40850564E+04</pdfrwt>
<totfact> 0.44741691E-04</totfact>
</mgrwt>
</event>
<event>
10    1  0.9411846E-017  0.8498379E+04  0.7818608E-02  0.7439987E-01
         -2   -1    0    0    0  501 -0.00000000000E+00  0.00000000000E+00  0.44891028666E+04  0.44891028666E+04  0.00000000000E+00 0.  1.
          2   -1    0    0  501    0  0.00000000000E+00 -0.00000000000E+00 -0.40220975293E+04  0.40220975293E+04  0.00000000000E+00 0. -1.
    9900016    2    1    2    0    0  0.91526101142E+03 -0.10324623767E+04  0.96197279533E+02  0.23441663428E+04  0.18926649592E+04 0.  0.
        -15    1    3    3    0    0  0.88606905132E+03 -0.55269813749E+03  0.43527145451E+03  0.11313950831E+04  0.00000000000E+00 0.  1.
        -15    1    1    2    0    0  0.11878856757E+04  0.21915859541E+04  0.80570517294E+03  0.26197866705E+04  0.00000000000E+00 0.  1.
         15    1    3    3    0    0 -0.34341954061E+03 -0.26816728219E+03 -0.50025857303E+03  0.66340734998E+03  0.00000000000E+00 0. -1.
         15    1    1    2    0    0 -0.25257935626E+04 -0.12107574849E+04  0.17156065669E+03  0.28062430164E+04  0.00000000000E+00 0. -1.
        -16    1    1    2    0    0  0.42264687543E+03  0.51633907521E+02 -0.60645777188E+03  0.74100436624E+03  0.00000000000E+00 0.  1.
         16    1    3    3    0    0  0.34147319908E+03 -0.15443280735E+03  0.20721073921E+03  0.42824026914E+03  0.00000000000E+00 0. -1.
    9900018    1    3    3    0    0  0.31138301629E+02 -0.57164149710E+02 -0.46026341160E+02  0.12112364061E+03  0.91187600000E+02 0.  0.
<mgrwt>
<rscale>  0 0.84983786E+04</rscale>
<asrwt>0</asrwt>
<pdfrwt beam="1">  1        2 0.61878424E+00 0.84983786E+04</pdfrwt>
<pdfrwt beam="2">  1       -2 0.69063121E+00 0.84983786E+04</pdfrwt>
<totfact> 0.46307319E-05</totfact>
</mgrwt>
</event>
<event>
11    1  0.9411846E-017  0.3631125E+04  0.7818608E-02  0.8083399E-01
          2   -1    0    0  501    0  0.00000000000E+00  0.00000000000E+00  0.35081886325E+04  0.35081886325E+04  0.00000000000E+00 0. -1.
         -2   -1    0    0    0  501 -0.00000000000E+00 -0.00000000000E+00 -0.93959214856E+03  0.93959214856E+03  0.00000000000E+00 0.  1.
    9900016    2    1    2    0    0 -0.88630587113E+02 -0.85292899309E+03  0.98473780680E+03  0.23017867043E+04  0.18955659407E+04 0.  0.
        -24    2    3    3    0    0  0.38170625926E+03 -0.23920516130E+03 -0.45186321594E+03  0.64082280750E+03  0.59621532478E+02 0.  0.
        -15    1    1    2    0    0  0.11292850605E+03  0.72057483425E+03  0.61364287092E+03  0.95317286589E+03  0.00000000000E+00 0.  1.
        -15    1    3    3    0    0 -0.42270177752E+03 -0.56506957173E+03  0.13269859671E+04  0.15029544805E+04  0.00000000000E+00 0.  1.
         15    1    1    2    0    0  0.10099279330E+03  0.18607460982E+03 -0.13688633986E+01  0.21171957516E+03  0.00000000000E+00 0. -1.
         15    1    4    4    0    0  0.98506435318E+02 -0.55663311581E+02 -0.15114766896E+03  0.18880556106E+03  0.00000000000E+00 0. -1.
        -16    1    4    4    0    0  0.28319982394E+03 -0.18354184972E+03 -0.30071554698E+03  0.45201724644E+03  0.00000000000E+00 0.  1.
         16    1    1    2    0    0 -0.12529071224E+03 -0.53720450983E+02  0.97158466965E+03  0.98110163577E+03  0.00000000000E+00 0. -1.
    9900018    1    3    3    0    0 -0.47635068854E+02 -0.48654260067E+02  0.10961505566E+03  0.15800941626E+03  0.91187600000E+02 0.  0.
<mgrwt>
<rscale>  0 0.36311246E+04</rscale>
<asrwt>0</asrwt>
<pdfrwt beam="1">  1        2 0.53972132E+00 0.36311246E+04</pdfrwt>
<pdfrwt beam="2">  1       -2 0.14455264E+00 0.36311246E+04</pdfrwt>
<totfact> 0.21509568E-01</totfact>
</mgrwt>
</event>
<event>
10    1  0.9411846E-017  0.2500598E+04  0.7818608E-02  0.8549791E-01
         -2   -1    0    0    0  501 -0.00000000000E+00  0.00000000000E+00  0.12584667563E+04  0.12584667563E+04  0.00000000000E+00 0. -1.
          2   -1    0    0  501    0  0.00000000000E+00 -0.00000000000E+00 -0.31978229794E+04  0.31978229794E+04  0.00000000000E+00 0.  1.
    9900016    2    1    2    0    0 -0.43140765713E+03 -0.14680915107E+03 -0.84667017177E+03  0.20365344381E+04  0.17952594921E+04 0.  0.
        -15    1    1    2    0    0  0.41477883674E+03 -0.10852916447E+03 -0.15005977992E+04  0.15606453210E+04  0.00000000000E+00 0.  1.
        -15    1    3    3    0    0  0.22387891922E+03 -0.78748562539E+03 -0.70959058138E+02  0.82176065165E+03  0.00000000000E+00 0.  1.
         15    1    1    2    0    0  0.28759199406E+03  0.13265618581E+03  0.29484298720E+03  0.43271145788E+03  0.00000000000E+00 0. -1.
         15    1    3    3    0    0 -0.47586640642E+03  0.56352394935E+03 -0.64452025259E+03  0.97949703126E+03  0.00000000000E+00 0. -1.
        -16    1    3    3    0    0 -0.17942016993E+03  0.77152524967E+02 -0.13119086105E+03  0.23527675514E+03  0.00000000000E+00 0.  1.
         16    1    1    2    0    0 -0.28316784635E+03  0.10438745175E+03  0.13413185816E+03  0.33026069197E+03  0.00000000000E+00 0. -1.
    9900018    1    1    2    0    0  0.12204672677E+02  0.18294677979E+02 -0.21063097484E+02  0.96137826826E+02  0.91187600000E+02 0.  0.
<mgrwt>
<rscale>  0 0.21261961E+04</rscale>
<asrwt>0</asrwt>
<pdfrwt beam="1">  1        2 0.49197276E+00 0.25005980E+04</pdfrwt>
<pdfrwt beam="2">  1       -2 0.19361027E+00 0.25005980E+04</pdfrwt>
<totfact> 0.16369170E-01</totfact>
</mgrwt>
</event>
<event>
11    1  0.9411846E-017  0.4478177E+04  0.7818608E-02  0.7914468E-01
          2   -1    0    0  501    0  0.00000000000E+00  0.00000000000E+00  0.29466309970E+04  0.29466309970E+04  0.00000000000E+00 0.  1.
         -2   -1    0    0    0  501 -0.00000000000E+00 -0.00000000000E+00 -0.17014405972E+04  0.17014405972E+04  0.00000000000E+00 0. -1.
    9900016    2    1    2    0    0 -0.50098914038E+03  0.52278026872E+03  0.13333928971E+04  0.24238911295E+04  0.18902439688E+04 0.  0.
         24    2    3    3    0    0 -0.79465205462E+03  0.43942713911E+03 -0.68652101658E+02  0.91285721545E+03  0.63459327416E+02 0.  0.
        -15    1    1    2    0    0  0.23909667326E+03  0.49427363304E+03  0.47878859968E+03  0.72849994281E+03  0.00000000000E+00 0.  1.
        -15    1    4    4    0    0 -0.43598576921E+03  0.26192666344E+03 -0.64172150004E+02  0.51264727914E+03  0.00000000000E+00 0.  1.
         15    1    1    2    0    0  0.32591396579E+02 -0.67885829547E+03 -0.78027258133E+03  0.10347637825E+04  0.00000000000E+00 0. -1.
         15    1    3    3    0    0  0.29220477897E+03  0.47133355787E+02  0.13787720225E+04  0.14101834902E+04  0.00000000000E+00 0. -1.
        -16    1    1    2    0    0  0.22930107054E+03 -0.33819560630E+03  0.21328148433E+03  0.46091673937E+03  0.00000000000E+00 0.  1.
         16    1    4    4    0    0 -0.35866628540E+03  0.17750047567E+03 -0.44799516543E+01  0.40020993630E+03  0.00000000000E+00 0. -1.
    9900018    1    3    3    0    0  0.14581352700E+01  0.36219773826E+02  0.23272976276E+02  0.10085042386E+03  0.91187600000E+02 0.  0.
<mgrwt>
<rscale>  0 0.44781771E+04</rscale>
<asrwt>0</asrwt>
<pdfrwt beam="1">  1        2 0.45332784E+00 0.44781771E+04</pdfrwt>
<pdfrwt beam="2">  1       -2 0.26176009E+00 0.44781771E+04</pdfrwt>
<totfact> 0.77631005E-02</totfact>
</mgrwt>
</event>
<event>
11    1  0.9411846E-017  0.2957559E+04  0.7818608E-02  0.8363452E-01
         -1   -1    0    0    0  501 -0.00000000000E+00  0.00000000000E+00  0.27513108384E+04  0.27513108384E+04  0.00000000000E+00 0.  1.
          1   -1    0    0  501    0  0.00000000000E+00 -0.00000000000E+00 -0.24833203506E+04  0.24833203506E+04  0.00000000000E+00 0. -1.
    9900016    2    1    2    0    0 -0.86138875999E+03  0.18650120544E+03 -0.10324695646E+04  0.23200327279E+04  0.18814316786E+04 0.  0.
         24    2    3    3    0    0 -0.10792825875E+04  0.33600612854E+03  0.66637321565E+02  0.11342457433E+04  0.65740790411E+02 0.  0.
        -15    1    1    2    0    0  0.55290741467E+03 -0.27100403792E+03  0.11021831049E+04  0.12625202551E+04  0.00000000000E+00 0.  1.
        -15    1    4    4    0    0 -0.29565644266E+03  0.97625818719E+02 -0.10540101862E+02  0.31153591497E+03  0.00000000000E+00 0.  1.
         15    1    3    3    0    0  0.24619577063E+03 -0.14670292005E+03 -0.10266347553E+04  0.10658860281E+04  0.00000000000E+00 0. -1.
         15    1    1    2    0    0  0.26722109330E+03  0.83956290433E+03  0.57828440270E+02  0.88295929212E+03  0.00000000000E+00 0. -1.
        -16    1    1    2    0    0  0.41260252018E+02 -0.75506007185E+03  0.14044850723E+03  0.76911891388E+03  0.00000000000E+00 0.  1.
         16    1    4    4    0    0 -0.78362614480E+03  0.23838030982E+03  0.77177423428E+02  0.82270982832E+03  0.00000000000E+00 0. -1.
    9900018    1    3    3    0    0 -0.28301943159E+02 -0.28020030465E+01 -0.72472130957E+02  0.11990095649E+03  0.91187600000E+02 0.  0.
<mgrwt>
<rscale>  0 0.26140260E+04</rscale>
<asrwt>0</asrwt>
<pdfrwt beam="1">  1        1 0.38204928E+00 0.29575592E+04</pdfrwt>
<pdfrwt beam="2">  1       -1 0.42327859E+00 0.29575592E+04</pdfrwt>
<totfact> 0.55478975E-03</totfact>
</mgrwt>
</event>
<event>
10    1  0.1252627E-016  0.2709653E+04  0.7818608E-02  0.8615136E-01
          2   -1    0    0  501    0  0.00000000000E+00  0.00000000000E+00  0.18536217253E+04  0.18536217253E+04  0.00000000000E+00 0.  1.
         -2   -1    0    0    0  501 -0.00000000000E+00 -0.00000000000E+00 -0.16397857728E+04  0.16397857728E+04  0.00000000000E+00 0. -1.
    9900016    2    1    2    0    0  0.34857466244E+03  0.22274430278E+03  0.22616620445E+03  0.18515169967E+04  0.17904872849E+04 0.  0.
        -15    1    3    3    0    0 -0.32373789488E+03  0.83017075873E+03 -0.80531691194E+02  0.89469272184E+03  0.00000000000E+00 0.  1.
        -15    1    1    2    0    0  0.47383583127E+03 -0.29991860875E+02  0.21909897969E+03  0.52289986577E+03  0.00000000000E+00 0.  1.
         15    1    1    2    0    0 -0.11777308459E+03  0.53199616605E+02 -0.21703015377E+03  0.25259213430E+03  0.00000000000E+00 0. -1.
         15    1    3    3    0    0  0.17890411417E+03 -0.15331667463E+03  0.87514930308E+02  0.25133950707E+03  0.00000000000E+00 0. -1.
        -16    1    3    3    0    0  0.49340844315E+03 -0.45410978132E+03  0.21918296534E+03  0.70548476777E+03  0.00000000000E+00 0.  1.
         16    1    1    2    0    0 -0.71145085277E+03 -0.26700438524E+03  0.34305082919E+02  0.76067765601E+03  0.00000000000E+00 0. -1.
    9900018    1    1    2    0    0  0.68134436501E+01  0.21052326734E+02 -0.48704160735E+02  0.10572084535E+03  0.91187600000E+02 0.  0.
<mgrwt>
<rscale>  0 0.19818884E+04</rscale>
<asrwt>0</asrwt>
<pdfrwt beam="1">  1        2 0.28517257E+00 0.27096530E+04</pdfrwt>
<pdfrwt beam="2">  1       -2 0.25227473E+00 0.27096530E+04</pdfrwt>
<totfact> 0.42860075E-01</totfact>
</mgrwt>
</event>
<event>
11    1  0.9411846E-017  0.2839726E+04  0.7818608E-02  0.8635869E-01
         -2   -1    0    0    0  501 -0.00000000000E+00  0.00000000000E+00  0.30171088860E+04  0.30171088860E+04  0.00000000000E+00 0.  1.
          2   -1    0    0  501    0  0.00000000000E+00 -0.00000000000E+00 -0.25132850037E+04  0.25132850037E+04  0.00000000000E+00 0. -1.
    9900016    2    1    2    0    0  0.55928512665E+03  0.59922340569E+03 -0.14169665655E+04  0.24386145372E+04  0.18075336984E+04 0.  0.
         24    2    3    3    0    0  0.56378714531E+03 -0.48064360002E+03 -0.10722421695E+04  0.13050502791E+04  0.67666427879E+02 0.  0.
        -15    1    4    4    0    0  0.27988003995E+03 -0.21817275475E+03 -0.46064584671E+03  0.58148670128E+03  0.00000000000E+00 0.  1.
        -15    1    1    2    0    0 -0.40065680882E+03 -0.55539247525E+03 -0.16298670516E+03  0.70395407952E+03  0.00000000000E+00 0.  1.
         15    1    3    3    0    0 -0.45020186641E+01  0.10798670057E+04 -0.34472439599E+03  0.11335642582E+04  0.00000000000E+00 0. -1.
         15    1    1    2    0    0 -0.37583463146E+03  0.36026502715E+02  0.16632399645E+04  0.17055546777E+04  0.00000000000E+00 0. -1.
        -16    1    1    2    0    0  0.16074746659E+03 -0.14046303887E+03  0.49448125308E+03  0.53859198188E+03  0.00000000000E+00 0.  1.
         16    1    4    4    0    0  0.28390710536E+03 -0.26247084527E+03 -0.61159632276E+03  0.72356357779E+03  0.00000000000E+00 0. -1.
    9900018    1    1    2    0    0  0.56458847046E+02  0.60605605722E+02 -0.73944064674E+02  0.14367861340E+03  0.91187600000E+02 0.  0.
<mgrwt>
<rscale>  0 0.19386177E+04</rscale>
<asrwt>0</asrwt>
<pdfrwt beam="1">  1        2 0.38665923E+00 0.28397261E+04</pdfrwt>
<pdfrwt beam="2">  1       -2 0.46417060E+00 0.28397261E+04</pdfrwt>
<totfact> 0.77591493E-03</totfact>
</mgrwt>
</event>
<event>
10    1  0.9411846E-017  0.3365587E+04  0.7818608E-02  0.8278236E-01
          2   -1    0    0  501    0  0.00000000000E+00  0.00000000000E+00  0.39438507370E+04  0.39438507370E+04  0.00000000000E+00 0. -1.
         -2   -1    0    0    0  501 -0.00000000000E+00 -0.00000000000E+00 -0.20606752801E+04  0.20606752801E+04  0.00000000000E+00 0.  1.
    9900016    2    1    2    0    0  0.20154696838E+03 -0.51354735252E+03  0.15096669154E+04  0.24070383077E+04  0.17917553280E+04 0.  0.
        -15    1    1    2    0    0  0.11157136049E+03  0.13797353857E+04  0.82403318889E+03  0.16109464918E+04  0.00000000000E+00 0.  1.
        -15    1    3    3    0    0 -0.17044834579E+02 -0.43437390896E+03  0.18811402974E+02  0.43511502853E+03  0.00000000000E+00 0.  1.
         15    1    3    3    0    0  0.40990181382E+03  0.41138439553E+03  0.12784206551E+04  0.14041424391E+04  0.00000000000E+00 0. -1.
         15    1    1    2    0    0  0.36910468187E+03 -0.93490638748E+03  0.54262296804E+02  0.10065945641E+04  0.00000000000E+00 0. -1.
        -16    1    1    2    0    0 -0.66827319410E+03  0.50280411579E+02 -0.55783260295E+03  0.87194861928E+03  0.00000000000E+00 0.  1.
         16    1    3    3    0    0 -0.19131001086E+03 -0.49055783909E+03  0.21243485734E+03  0.56778084008E+03  0.00000000000E+00 0. -1.
    9900018    1    1    2    0    0 -0.13949816638E+02  0.18437942730E+02  0.53045658724E+02  0.10799803433E+03  0.91187600000E+02 0.  0.
<mgrwt>
<rscale>  0 0.28820581E+04</rscale>
<asrwt>0</asrwt>
<pdfrwt beam="1">  1        2 0.60674627E+00 0.33655875E+04</pdfrwt>
<pdfrwt beam="2">  1       -2 0.31702697E+00 0.33655875E+04</pdfrwt>
<totfact> 0.73745124E-03</totfact>
</mgrwt>
</event>
<event>
11    1  0.9411846E-017  0.3690485E+04  0.7818608E-02  0.8130476E-01
         -2   -1    0    0    0  501 -0.00000000000E+00  0.00000000000E+00  0.32452869593E+04  0.32452869593E+04  0.00000000000E+00 0.  1.
          2   -1    0    0  501    0  0.00000000000E+00 -0.00000000000E+00 -0.33130774171E+04  0.33130774171E+04  0.00000000000E+00 0. -1.
    9900016    2    1    2    0    0 -0.28869698119E+03  0.56708871246E+03 -0.27598315179E+03  0.20107554438E+04  0.18873354762E+04 0.  0.
         24    2    3    3    0    0 -0.24960335485E+03 -0.22683804375E+03  0.64710181888E+03  0.73295585080E+03  0.68747235412E+02 0.  0.
        -15    1    4    4    0    0 -0.18440584771E+03 -0.12747409903E+03  0.39318594906E+03  0.45260396942E+03  0.00000000000E+00 0.  1.
        -15    1    1    2    0    0  0.57004833829E+03 -0.28819307108E+03 -0.40282860991E+02  0.64002583002E+03  0.00000000000E+00 0.  1.
         15    1    3    3    0    0 -0.38080308136E+02  0.75103494738E+03 -0.90285788633E+03  0.11750131765E+04  0.00000000000E+00 0. -1.
         15    1    1    2    0    0 -0.16983832291E+04 -0.12113686769E+04  0.60936585171E+03  0.21733031095E+04  0.00000000000E+00 0. -1.
        -16    1    1    2    0    0  0.14170318720E+04  0.93247303556E+03 -0.36089029671E+03  0.17342799932E+04  0.00000000000E+00 0.  1.
         16    1    4    4    0    0 -0.65197507135E+02 -0.99363944717E+02  0.25391586982E+03  0.28035188138E+03  0.00000000000E+00 0. -1.
    9900018    1    3    3    0    0 -0.10133182044E+01  0.42891808834E+02 -0.20227084341E+02  0.10278641648E+03  0.91187600000E+02 0.  0.
<mgrwt>
<rscale>  0 0.34304393E+04</rscale>
<asrwt>0</asrwt>
<pdfrwt beam="1">  1        2 0.50970422E+00 0.36904854E+04</pdfrwt>
<pdfrwt beam="2">  1       -2 0.49927492E+00 0.36904854E+04</pdfrwt>
<totfact> 0.13598311E-03</totfact>
</mgrwt>
</event>
<event>
10    1  0.9411846E-017  0.5694808E+04  0.7818608E-02  0.7729438E-01
          2   -1    0    0  501    0  0.00000000000E+00  0.00000000000E+00  0.26208006996E+04  0.26208006996E+04  0.00000000000E+00 0.  1.
         -2   -1    0    0    0  501 -0.00000000000E+00 -0.00000000000E+00 -0.30936006300E+04  0.30936006300E+04  0.00000000000E+00 0. -1.
    9900016    2    1    2    0    0  0.10622668803E+04 -0.68274718858E+03 -0.41825358740E+03  0.23081854086E+04  0.18863268987E+04 0.  0.
        -15    1    1    2    0    0 -0.36187948536E+03  0.78673775684E+03 -0.52288364834E+02  0.86755238059E+03  0.00000000000E+00 0.  1.
        -15    1    3    3    0    0 -0.90403316252E+02 -0.46092639094E+03 -0.31961468683E+03  0.56813681934E+03  0.00000000000E+00 0.  1.
         15    1    1    2    0    0 -0.57219036652E+03 -0.12034204512E+04 -0.35130185799E+03  0.13780550037E+04  0.00000000000E+00 0. -1.
         15    1    3    3    0    0  0.11952902214E+04  0.11355873997E+03  0.18441628572E+03  0.12147525128E+04  0.00000000000E+00 0. -1.
        -16    1    1    2    0    0 -0.12819702839E+03  0.10994298829E+04  0.34904387978E+03  0.11606085367E+04  0.00000000000E+00 0.  1.
         16    1    3    3    0    0 -0.68949987010E+02 -0.32264836850E+03 -0.27442579617E+03  0.42914518290E+03  0.00000000000E+00 0. -1.
    9900018    1    3    3    0    0  0.26329962125E+02 -0.12731169112E+02 -0.86293901168E+01  0.96150893600E+02  0.91187600000E+02 0.  0.
<mgrwt>
<rscale>  0 0.56948084E+04</rscale>
<asrwt>0</asrwt>
<pdfrwt beam="1">  1        2 0.40320011E+00 0.56948084E+04</pdfrwt>
<pdfrwt beam="2">  1       -2 0.47593856E+00 0.56948084E+04</pdfrwt>
<totfact> 0.48168555E-03</totfact>
</mgrwt>
</event>
<event>
11    1  0.9411846E-017  0.4237694E+04  0.7818608E-02  0.7958241E-01
         -2   -1    0    0    0  501 -0.00000000000E+00  0.00000000000E+00  0.20585276919E+04  0.20585276919E+04  0.00000000000E+00 0.  1.
          2   -1    0    0  501    0  0.00000000000E+00 -0.00000000000E+00 -0.21809335552E+04  0.21809335552E+04  0.00000000000E+00 0. -1.
    9900016    2    1    2    0    0  0.53641847418E+03  0.10160539831E+03 -0.78604250248E+03  0.20459030930E+04  0.18082555720E+04 0.  0.
         24    2    3    3    0    0 -0.44808319923E+03 -0.44332963625E+03 -0.65740432733E+03  0.91331953452E+03  0.68208523901E+02 0.  0.
        -15    1    1    2    0    0 -0.48604205620E+03 -0.21089139660E+03  0.30293167340E+03  0.61031111763E+03  0.00000000000E+00 0.  1.
        -15    1    4    4    0    0 -0.20785684103E+03 -0.20855915987E+03 -0.35627246622E+03  0.46220283395E+03  0.00000000000E+00 0.  1.
         15    1    1    2    0    0 -0.32303938664E+03 -0.12163665016E+03 -0.45027830641E+03  0.56736273512E+03  0.00000000000E+00 0. -1.
         15    1    3    3    0    0  0.98450167341E+03  0.54493503456E+03 -0.12863817516E+03  0.11325835585E+04  0.00000000000E+00 0. -1.
        -16    1    1    2    0    0  0.25989166567E+03  0.22147236929E+03  0.84955513055E+03  0.91560778071E+03  0.00000000000E+00 0.  1.
         16    1    4    4    0    0 -0.24022635819E+03 -0.23477047638E+03 -0.30113186111E+03  0.45111670056E+03  0.00000000000E+00 0. -1.
    9900018    1    1    2    0    0  0.12771302985E+02  0.94502791682E+01 -0.38571858328E+02  0.10027652071E+03  0.91187600000E+02 0.  0.
<mgrwt>
<rscale>  0 0.42376938E+04</rscale>
<asrwt>0</asrwt>
<pdfrwt beam="1">  1        2 0.33552824E+00 0.42376938E+04</pdfrwt>
<pdfrwt beam="2">  1       -2 0.31669657E+00 0.42376938E+04</pdfrwt>
<totfact> 0.10279682E-01</totfact>
</mgrwt>
</event>
<event>
11    1  0.9411846E-017  0.2927914E+04  0.7818608E-02  0.8393837E-01
          2   -1    0    0  501    0  0.00000000000E+00  0.00000000000E+00  0.27871999712E+04  0.27871999712E+04  0.00000000000E+00 0.  1.
         -2   -1    0    0    0  501 -0.00000000000E+00 -0.00000000000E+00 -0.19510527582E+04  0.19510527582E+04  0.00000000000E+00 0. -1.
    9900016    2    1    2    0    0 -0.43864281325E+02 -0.55253654121E+03  0.35676530471E+03  0.20078102417E+04  0.18965230765E+04 0.  0.
         24    2    3    3    0    0  0.74548271548E+02 -0.82367597647E+03  0.95223724935E+03  0.12654238536E+04  0.10267517266E+03 0.  0.
        -15    1    4    4    0    0  0.60969327496E+02 -0.19304280715E+03  0.22048630688E+03  0.29932757275E+03  0.00000000000E+00 0.  1.
        -15    1    1    2    0    0  0.56266493989E+03  0.65167528520E+03 -0.32501509295E+03  0.92027567748E+03  0.00000000000E+00 0.  1.
         15    1    3    3    0    0 -0.11955608814E+03  0.25420239116E+03 -0.58511620365E+03  0.64905584171E+03  0.00000000000E+00 0. -1.
         15    1    1    2    0    0 -0.78296452887E+03 -0.58131220933E+03  0.20439018036E+03  0.99635971618E+03  0.00000000000E+00 0. -1.
        -16    1    1    2    0    0  0.26416387031E+03  0.48217346534E+03  0.60000682089E+03  0.81380709395E+03  0.00000000000E+00 0.  1.
         16    1    4    4    0    0  0.13578944052E+02 -0.63063316933E+03  0.73175094247E+03  0.96609628081E+03  0.00000000000E+00 0. -1.
    9900018    1    3    3    0    0  0.11435352658E+01  0.16937044108E+02 -0.10355740998E+02  0.93330546454E+02  0.91187600000E+02 0.  0.
<mgrwt>
<rscale>  0 0.25258409E+04</rscale>
<asrwt>0</asrwt>
<pdfrwt beam="1">  1        2 0.42879999E+00 0.29279138E+04</pdfrwt>
<pdfrwt beam="2">  1       -2 0.30016196E+00 0.29279138E+04</pdfrwt>
<totfact> 0.61164046E-02</totfact>
</mgrwt>
</event>
<event>
11    1  0.9411846E-017  0.2557907E+04  0.7818608E-02  0.8583780E-01
         -2   -1    0    0    0  501 -0.00000000000E+00  0.00000000000E+00  0.11313463958E+04  0.11313463958E+04  0.00000000000E+00 0.  1.
          2   -1    0    0  501    0  0.00000000000E+00 -0.00000000000E+00 -0.30127367569E+04  0.30127367569E+04  0.00000000000E+00 0. -1.
    9900016    2    1    2    0    0 -0.52824443005E+03 -0.65747233898E+03 -0.12094615872E+04  0.23254453295E+04  0.17982176161E+04 0.  0.
         24    2    3    3    0    0  0.24833320876E+03 -0.80727135081E+03  0.39445503929E+02  0.84717556539E+03  0.52859004874E+02 0.  0.
        -15    1    1    2    0    0  0.30002323301E+03  0.35240763050E+03 -0.45331299592E+03  0.64784083744E+03  0.00000000000E+00 0.  1.
        -15    1    4    4    0    0  0.15272489955E+03 -0.51551114611E+03  0.49919814254E+02  0.53997094788E+03  0.00000000000E+00 0.  1.
         15    1    3    3    0    0 -0.77657763881E+03  0.14979901183E+03 -0.12489070912E+04  0.14782697641E+04  0.00000000000E+00 0. -1.
         15    1    1    2    0    0 -0.13615712462E+03 -0.13494703085E+03  0.27488123759E+03  0.33512558617E+03  0.00000000000E+00 0. -1.
        -16    1    1    2    0    0  0.36496987491E+03  0.45101404975E+03 -0.44886677484E+03  0.73355167794E+03  0.00000000000E+00 0.  1.
         16    1    4    4    0    0  0.95608309213E+02 -0.29176020470E+03 -0.10474310326E+02  0.30720461750E+03  0.00000000000E+00 0. -1.
    9900018    1    1    2    0    0 -0.59155325464E+00 -0.11002310419E+02 -0.44630240714E+02  0.10211972165E+03  0.91187600000E+02 0.  0.
<mgrwt>
<rscale>  0 0.20495898E+04</rscale>
<asrwt>0</asrwt>
<pdfrwt beam="1">  1        2 0.46349797E+00 0.25579074E+04</pdfrwt>
<pdfrwt beam="2">  1       -2 0.17405329E+00 0.25579074E+04</pdfrwt>
<totfact> 0.29346480E-01</totfact>
</mgrwt>
</event>
<event>
10    1  0.9411846E-017  0.2821668E+04  0.7818608E-02  0.8418195E-01
          2   -1    0    0  501    0  0.00000000000E+00  0.00000000000E+00  0.33322197778E+04  0.33322197778E+04  0.00000000000E+00 0. -1.
         -2   -1    0    0    0  501 -0.00000000000E+00 -0.00000000000E+00 -0.16899214485E+04  0.16899214485E+04  0.00000000000E+00 0.  1.
    9900016    2    1    2    0    0  0.56048375722E+03 -0.48745683889E+01  0.11042389808E+04  0.21885964375E+04  0.18045622283E+04 0.  0.
        -15    1    3    3    0    0 -0.76908577639E+02  0.82302059667E+03  0.37052206734E+03  0.90585011687E+03  0.00000000000E+00 0.  1.
        -15    1    1    2    0    0 -0.11861884078E+04 -0.69089054966E+03 -0.37631794763E+03  0.14233720133E+04  0.00000000000E+00 0.  1.
         15    1    1    2    0    0 -0.14119287541E+02  0.15199327532E+03  0.15294350336E+03  0.21608568958E+03  0.00000000000E+00 0. -1.
         15    1    3    3    0    0  0.28209603394E+03 -0.35716202269E+03  0.24548918433E+03  0.51711490255E+03  0.00000000000E+00 0. -1.
        -16    1    3    3    0    0  0.35529630092E+03 -0.47073314236E+03  0.48822772915E+03  0.76563141803E+03  0.00000000000E+00 0.  1.
         16    1    1    2    0    0  0.60263944504E+03  0.55477950916E+03  0.65626462151E+03  0.10495893759E+04  0.00000000000E+00 0. -1.
    9900018    1    1    2    0    0  0.37184493086E+02 -0.11007666426E+02  0.10516917129E+03  0.14449771012E+03  0.91187600000E+02 0.  0.
<mgrwt>
<rscale>  0 0.24577477E+04</rscale>
<asrwt>0</asrwt>
<pdfrwt beam="1">  1        2 0.51264919E+00 0.28216685E+04</pdfrwt>
<pdfrwt beam="2">  1       -2 0.25998792E+00 0.28216685E+04</pdfrwt>
<totfact> 0.48795591E-02</totfact>
</mgrwt>
</event>
<event>
11    1  0.9411846E-017  0.3910806E+04  0.7818608E-02  0.8090072E-01
         -2   -1    0    0    0  501 -0.00000000000E+00  0.00000000000E+00  0.38701865969E+04  0.38701865969E+04  0.00000000000E+00 0.  1.
          2   -1    0    0  501    0  0.00000000000E+00 -0.00000000000E+00 -0.29809774781E+04  0.29809774781E+04  0.00000000000E+00 0. -1.
    9900016    2    1    2    0    0 -0.96097870641E+01  0.69433642511E+03  0.10196403919E+04  0.21870677610E+04  0.18059356143E+04 0.  0.
         24    2    3    3    0    0  0.86860409604E+03  0.13675445003E+03  0.57950257181E+03  0.10575198053E+04  0.96695670285E+02 0.  0.
        -15    1    1    2    0    0  0.82700135620E+03 -0.12091653510E+04  0.70278359990E+03  0.16247821016E+04  0.00000000000E+00 0.  1.
        -15    1    4    4    0    0  0.22724268394E+03  0.71427645521E+02  0.12759267029E+03  0.27022404678E+03  0.00000000000E+00 0.  1.
         15    1    3    3    0    0 -0.87821388310E+03  0.55758197507E+03  0.44013782011E+03  0.11295479556E+04  0.00000000000E+00 0. -1.
         15    1    1    2    0    0  0.86120833437E+03  0.15262109932E+03 -0.80842927705E+03  0.11910209449E+04  0.00000000000E+00 0. -1.
        -16    1    1    2    0    0 -0.16800196388E+04  0.32008059087E+03 -0.11386929878E+03  0.17140256091E+04  0.00000000000E+00 0.  1.
         16    1    4    4    0    0  0.64136141210E+03  0.65326804512E+02  0.45190990152E+03  0.78729575854E+03  0.00000000000E+00 0. -1.
    9900018    1    1    2    0    0  0.14197352646E+01  0.42127235737E+02  0.89083702796E+02  0.13426765857E+03  0.91187600000E+02 0.  0.
<mgrwt>
<rscale>  0 0.36018348E+04</rscale>
<asrwt>0</asrwt>
<pdfrwt beam="1">  1        2 0.45861192E+00 0.39108059E+04</pdfrwt>
<pdfrwt beam="2">  1       -2 0.59541333E+00 0.39108059E+04</pdfrwt>
<totfact> 0.69410175E-04</totfact>
</mgrwt>
</event>
<event>
10    1  0.9411846E-017  0.3372181E+04  0.7818608E-02  0.8286366E-01
          2   -1    0    0  501    0  0.00000000000E+00  0.00000000000E+00  0.30307952475E+04  0.30307952475E+04  0.00000000000E+00 0.  1.
         -2   -1    0    0    0  501 -0.00000000000E+00 -0.00000000000E+00 -0.24964953297E+04  0.24964953297E+04  0.00000000000E+00 0. -1.
    9900016    2    1    2    0    0  0.89792390793E+03  0.37984012589E+02  0.44944551705E+03  0.21427240845E+04  0.18924996961E+04 0.  0.
        -15    1    1    2    0    0 -0.39158934804E+03  0.25658424913E+03  0.89401056708E+03  0.10091742112E+04  0.00000000000E+00 0.  1.
        -15    1    3    3    0    0  0.11413081668E+04 -0.52884917273E+03  0.14921767088E+03  0.12667011061E+04  0.00000000000E+00 0.  1.
         15    1    3    3    0    0 -0.10882641097E+03  0.35353792022E+03  0.10454388970E+03  0.38439780648E+03  0.00000000000E+00 0. -1.
         15    1    1    2    0    0 -0.10384205229E+04  0.14057061107E+03  0.28255420467E+03  0.10853175377E+04  0.00000000000E+00 0. -1.
        -16    1    3    3    0    0 -0.21703524785E+03  0.23852761557E+03  0.16573636719E+03  0.36258552868E+03  0.00000000000E+00 0.  1.
         16    1    1    2    0    0  0.53208596296E+03 -0.43513887279E+03 -0.10917103710E+04  0.12900747439E+04  0.00000000000E+00 0. -1.
    9900018    1    3    3    0    0  0.82477400006E+02 -0.25232350463E+02  0.29947589280E+02  0.12903964321E+03  0.91187600000E+02 0.  0.
<mgrwt>
<rscale>  0 0.28550924E+04</rscale>
<asrwt>0</asrwt>
<pdfrwt beam="1">  1        2 0.46627619E+00 0.33721808E+04</pdfrwt>
<pdfrwt beam="2">  1       -2 0.38407620E+00 0.33721808E+04</pdfrwt>
<totfact> 0.12242905E-02</totfact>
</mgrwt>
</event>
<event>
11    1  0.9411846E-017  0.4040210E+04  0.7818608E-02  0.7996484E-01
          2   -1    0    0  501    0  0.00000000000E+00  0.00000000000E+00  0.22226764641E+04  0.22226764641E+04  0.00000000000E+00 0.  1.
         -2   -1    0    0    0  501 -0.00000000000E+00 -0.00000000000E+00 -0.18359958254E+04  0.18359958254E+04  0.00000000000E+00 0. -1.
    9900016    2    1    2    0    0 -0.80671859553E+02 -0.19006402477E+03 -0.49013299351E+03  0.18804568877E+04  0.18036783174E+04 0.  0.
         24    2    3    3    0    0  0.20511178849E+03  0.36691171171E+03 -0.99129317115E+03  0.10785492944E+04  0.62541021276E+02 0.  0.
        -15    1    1    2    0    0  0.19101789802E+03 -0.23159037673E+03  0.61012538135E+03  0.67998155925E+03  0.00000000000E+00 0.  1.
        -15    1    4    4    0    0  0.16462212573E+03  0.33430616715E+03 -0.85491950704E+03  0.93260303516E+03  0.00000000000E+00 0.  1.
         15    1    1    2    0    0 -0.79298274789E+01  0.16718747117E+03 -0.51944407703E+03  0.54574415420E+03  0.00000000000E+00 0. -1.
         15    1    3    3    0    0 -0.28578364805E+03 -0.55697573648E+03  0.50116017763E+03  0.80190759328E+03  0.00000000000E+00 0. -1.
        -16    1    1    2    0    0 -0.11982353420E+03  0.23490830409E+03  0.81233509710E+03  0.85406551310E+03  0.00000000000E+00 0.  1.
         16    1    4    4    0    0  0.40489662766E+02  0.32605544557E+02 -0.13637366411E+03  0.14594625925E+03  0.00000000000E+00 0. -1.
    9900018    1    1    2    0    0  0.17407323211E+02  0.19558626238E+02 -0.26202769197E+02  0.98424175227E+02  0.91187600000E+02 0.  0.
<mgrwt>
<rscale>  0 0.40402102E+04</rscale>
<asrwt>0</asrwt>
<pdfrwt beam="1">  1        2 0.34195022E+00 0.40402102E+04</pdfrwt>
<pdfrwt beam="2">  1       -2 0.28246090E+00 0.40402102E+04</pdfrwt>
<totfact> 0.16040734E-01</totfact>
</mgrwt>
</event>
<event>
11    1  0.9411846E-017  0.4420904E+04  0.7818608E-02  0.8174941E-01
          2   -1    0    0  501    0  0.00000000000E+00  0.00000000000E+00  0.30633901289E+04  0.30633901289E+04  0.00000000000E+00 0.  1.
         -2   -1    0    0    0  501 -0.00000000000E+00 -0.00000000000E+00 -0.28071781933E+04  0.28071781933E+04  0.00000000000E+00 0. -1.
    9900016    2    1    2    0    0 -0.19500129368E+04  0.17099881957E+03 -0.68200595122E+03  0.28059025310E+04  0.18910753147E+04 0.  0.
         24    2    3    3    0    0 -0.20339997316E+04  0.51499442412E+03 -0.23889980343E+03  0.21127956506E+04  0.66769605181E+02 0.  0.
        -15    1    4    4    0    0 -0.94506013395E+03  0.27356803073E+03 -0.11432439507E+03  0.99047876885E+03  0.00000000000E+00 0.  1.
        -15    1    1    2    0    0  0.26392336824E+03  0.28418196604E+03 -0.17372372099E+03  0.42496454600E+03  0.00000000000E+00 0.  1.
         15    1    3    3    0    0  0.18562823188E+03 -0.29961125791E+03 -0.41897871176E+03  0.54751064578E+03  0.00000000000E+00 0. -1.
         15    1    1    2    0    0  0.90536484042E+03 -0.57453191755E+02 -0.31914702789E+03  0.96168663759E+03  0.00000000000E+00 0. -1.
        -16    1    1    2    0    0  0.78072472814E+03 -0.39772759385E+03  0.14310886358E+04  0.16780146076E+04  0.00000000000E+00 0.  1.
         16    1    4    4    0    0 -0.10889395976E+04  0.24142639339E+03 -0.12457540836E+03  0.11223168818E+04  0.00000000000E+00 0. -1.
    9900018    1    3    3    0    0 -0.10164143708E+03 -0.44384346637E+02 -0.24127436034E+02  0.14559623457E+03  0.91187600000E+02 0.  0.
<mgrwt>
<rscale>  0 0.32530674E+04</rscale>
<asrwt>0</asrwt>
<pdfrwt beam="1">  1        2 0.47129079E+00 0.44209035E+04</pdfrwt>
<pdfrwt beam="2">  1       -2 0.43187356E+00 0.44209035E+04</pdfrwt>
<totfact> 0.52828226E-03</totfact>
</mgrwt>
</event>
<event>
11    1  0.9411846E-017  0.3335331E+04  0.7818608E-02  0.8220428E-01
         -2   -1    0    0    0  501 -0.00000000000E+00  0.00000000000E+00  0.26174232093E+04  0.26174232093E+04  0.00000000000E+00 0.  1.
          2   -1    0    0  501    0  0.00000000000E+00 -0.00000000000E+00 -0.33378722194E+04  0.33378722194E+04  0.00000000000E+00 0. -1.
    9900016    2    1    2    0    0 -0.21632136455E+03  0.35227884939E+03  0.37133937447E+03  0.19725892497E+04  0.18927017981E+04 0.  0.
        -24    2    3    3    0    0 -0.45298995909E+03 -0.30002144389E+03 -0.52902677556E+03  0.76511340283E+03  0.10156977943E+03 0.  0.
        -15    1    3    3    0    0  0.22112582733E+03  0.59791276017E+03  0.89656420686E+03  0.11001016668E+04  0.00000000000E+00 0.  1.
        -15    1    1    2    0    0  0.87622319002E+03  0.94664740071E+02  0.49212176984E+03  0.10094118724E+04  0.00000000000E+00 0.  1.
         15    1    1    2    0    0  0.71120765141E+02  0.70306583305E+03 -0.14387182338E+04  0.16028942214E+04  0.00000000000E+00 0. -1.
         15    1    4    4    0    0 -0.14313420311E+03 -0.47426824226E+02 -0.11545163503E+03  0.18990993599E+03  0.00000000000E+00 0. -1.
        -16    1    4    4    0    0 -0.30985575598E+03 -0.25259461967E+03 -0.41357514053E+03  0.57520346684E+03  0.00000000000E+00 0.  1.
         16    1    1    2    0    0 -0.73102259062E+03 -0.11500094225E+04 -0.14519192063E+03  0.13704000853E+04  0.00000000000E+00 0. -1.
    9900018    1    3    3    0    0  0.15542767218E+02  0.54387533114E+02  0.38019431594E+01  0.10737418003E+03  0.91187600000E+02 0.  0.
<mgrwt>
<rscale>  0 0.30829655E+04</rscale>
<asrwt>0</asrwt>
<pdfrwt beam="1">  1        2 0.51351881E+00 0.33353313E+04</pdfrwt>
<pdfrwt beam="2">  1       -2 0.40268049E+00 0.33353313E+04</pdfrwt>
<totfact> 0.58074092E-03</totfact>
</mgrwt>
</event>
<event>
10    1  0.9411846E-017  0.3084978E+04  0.7818608E-02  0.8360522E-01
         -2   -1    0    0    0  501 -0.00000000000E+00  0.00000000000E+00  0.23836913551E+04  0.23836913551E+04  0.00000000000E+00 0.  1.
          2   -1    0    0  501    0  0.00000000000E+00 -0.00000000000E+00 -0.27752129204E+04  0.27752129204E+04  0.00000000000E+00 0. -1.
    9900016    2    1    2    0    0 -0.92564006953E+03  0.94436345757E+03 -0.57341245267E+03  0.23800643864E+04  0.18940097055E+04 0.  0.
        -15    1    1    2    0    0  0.32271445178E+03 -0.18509476760E+03  0.12665755856E+04  0.13200827263E+04  0.00000000000E+00 0.  1.
        -15    1    3    3    0    0 -0.11004671125E+04 -0.98463517881E+02 -0.10268190074E+03  0.11096244873E+04  0.00000000000E+00 0.  1.
         15    1    3    3    0    0  0.84481062527E+02  0.36191373462E+03 -0.15218584079E+03  0.40159573126E+03  0.00000000000E+00 0. -1.
         15    1    1    2    0    0  0.21726752741E+03 -0.22080904128E+03 -0.40300168584E+03  0.50830322639E+03  0.00000000000E+00 0. -1.
        -16    1    3    3    0    0  0.19376631019E+03  0.63357467317E+03 -0.25867469986E+03  0.71124879599E+03  0.00000000000E+00 0.  1.
         16    1    1    2    0    0  0.38565809034E+03 -0.53845964868E+03 -0.68168301236E+03  0.95045393641E+03  0.00000000000E+00 0. -1.
    9900018    1    3    3    0    0 -0.10342032971E+03  0.47338567657E+02 -0.59870011278E+02  0.15759537186E+03  0.91187600000E+02 0.  0.
<mgrwt>
<rscale>  0 0.26227261E+04</rscale>
<asrwt>0</asrwt>
<pdfrwt beam="1">  1        2 0.42695583E+00 0.30849777E+04</pdfrwt>
<pdfrwt beam="2">  1       -2 0.36672175E+00 0.30849777E+04</pdfrwt>
<totfact> 0.23390541E-02</totfact>
</mgrwt>
</event>
<event>
11    1  0.9411846E-017  0.3046197E+04  0.7818608E-02  0.8452139E-01
          2   -1    0    0  501    0  0.00000000000E+00  0.00000000000E+00  0.46114644620E+04  0.46114644620E+04  0.00000000000E+00 0. -1.
         -2   -1    0    0    0  501 -0.00000000000E+00 -0.00000000000E+00 -0.99373621909E+03  0.99373621909E+03  0.00000000000E+00 0.  1.
    9900016    2    1    2    0    0  0.91197149266E+03 -0.40735635034E+03  0.20994019219E+04  0.29982679927E+04  0.18932752908E+04 0.  0.
        -24    2    3    3    0    0  0.12428447822E+04 -0.37059833680E+03  0.19941431146E+04  0.23808984477E+04  0.10032136787E+03 0.  0.
        -15    1    3    3    0    0 -0.43870847664E+03  0.14639006376E+01  0.27339805473E+01  0.43871943783E+03  0.00000000000E+00 0.  1.
        -15    1    1    2    0    0  0.46015606145E+03  0.61989732014E+02  0.29164805163E+03  0.54831096449E+03  0.00000000000E+00 0.  1.
         15    1    1    2    0    0 -0.47730097573E+03  0.40213292911E+03  0.12212545241E+03  0.63595734152E+03  0.00000000000E+00 0. -1.
         15    1    4    4    0    0  0.84380913881E+03 -0.29899029327E+03  0.13903831074E+04  0.16536548139E+04  0.00000000000E+00 0. -1.
        -16    1    4    4    0    0  0.39903564338E+03 -0.71608043524E+02  0.60376000720E+03  0.72724363378E+03  0.00000000000E+00 0.  1.
         16    1    1    2    0    0 -0.89482657838E+03 -0.56766310784E+02  0.11045528170E+04  0.14226643824E+04  0.00000000000E+00 0. -1.
    9900018    1    3    3    0    0  0.10783518710E+03 -0.38221914179E+02  0.10252482674E+03  0.17865010717E+03  0.91187600000E+02 0.  0.
<mgrwt>
<rscale>  0 0.23665367E+04</rscale>
<asrwt>0</asrwt>
<pdfrwt beam="1">  1        2 0.70945606E+00 0.30461972E+04</pdfrwt>
<pdfrwt beam="2">  1       -2 0.15288250E+00 0.30461972E+04</pdfrwt>
<totfact> 0.22349379E-02</totfact>
</mgrwt>
</event>
<event>
11    1  0.9411846E-017  0.3144456E+04  0.7818608E-02  0.8307119E-01
         -2   -1    0    0    0  501 -0.00000000000E+00  0.00000000000E+00  0.21501295220E+04  0.21501295220E+04  0.00000000000E+00 0.  1.
          2   -1    0    0  501    0  0.00000000000E+00 -0.00000000000E+00 -0.31790311586E+04  0.31790311586E+04  0.00000000000E+00 0. -1.
    9900016    2    1    2    0    0 -0.51956673079E+03 -0.36201878670E+03 -0.52025385013E+03  0.20654930990E+04  0.18959405275E+04 0.  0.
         24    2    3    3    0    0 -0.92361787948E+03  0.35418765573E+03 -0.49821719249E+03  0.11127196454E+04  0.10679773217E+03 0.  0.
        -15    1    1    2    0    0 -0.70134199745E+03  0.65660082795E+03  0.49136645794E+03  0.10790951027E+04  0.00000000000E+00 0.  1.
        -15    1    4    4    0    0 -0.43723889176E+03  0.14849046703E+03 -0.28870785887E+03  0.54459112648E+03  0.00000000000E+00 0.  1.
         15    1    1    2    0    0  0.15534482931E+03 -0.62520043633E+03 -0.83829599057E+03  0.10572359100E+04  0.00000000000E+00 0. -1.
         15    1    3    3    0    0  0.46617831738E+03 -0.66719305055E+03  0.44088612568E+02  0.81511508148E+03  0.00000000000E+00 0. -1.
        -16    1    1    2    0    0  0.10655638989E+04  0.33061839508E+03 -0.16171825385E+03  0.11273365689E+04  0.00000000000E+00 0.  1.
         16    1    4    4    0    0 -0.48637898772E+03  0.20569718870E+03 -0.20950933361E+03  0.56812851892E+03  0.00000000000E+00 0. -1.
    9900018    1    3    3    0    0 -0.62127168689E+02 -0.49013391878E+02 -0.66125270213E+02  0.13765837217E+03  0.91187600000E+02 0.  0.
<mgrwt>
<rscale>  0 0.27876313E+04</rscale>
<asrwt>0</asrwt>
<pdfrwt beam="1">  1        2 0.48908172E+00 0.31444555E+04</pdfrwt>
<pdfrwt beam="2">  1       -2 0.33078916E+00 0.31444555E+04</pdfrwt>
<totfact> 0.21904762E-02</totfact>
</mgrwt>
</event>
<event>
11    1  0.9411846E-017  0.6413662E+04  0.7818608E-02  0.7641126E-01
         -2   -1    0    0    0  501 -0.00000000000E+00  0.00000000000E+00  0.27526823260E+04  0.27526823260E+04  0.00000000000E+00 0.  1.
          2   -1    0    0  501    0  0.00000000000E+00 -0.00000000000E+00 -0.37359070680E+04  0.37359070680E+04  0.00000000000E+00 0. -1.
    9900016    2    1    2    0    0  0.39041773914E+03  0.12287519174E+04 -0.63194035293E+03  0.23784991454E+04  0.18962205276E+04 0.  0.
         24    2    3    3    0    0 -0.69628910120E+03  0.43948220920E+03 -0.52534061555E+03  0.97803307388E+03  0.51017708858E+02 0.  0.
        -15    1    4    4    0    0 -0.48193554643E+03  0.29097335266E+03 -0.38356965151E+03  0.68121438654E+03  0.00000000000E+00 0.  1.
        -15    1    1    2    0    0  0.31545795699E+03 -0.16628466713E+04 -0.18403989701E+02  0.16926049396E+04  0.00000000000E+00 0.  1.
         15    1    3    3    0    0  0.10431824788E+04  0.67749863364E+03 -0.11739995682E+03  0.12494065922E+04  0.00000000000E+00 0. -1.
         15    1    1    2    0    0  0.34952799804E+03  0.87238688224E+03 -0.74851127052E+03  0.12014565393E+04  0.00000000000E+00 0. -1.
        -16    1    1    2    0    0 -0.10554036942E+04 -0.43829212841E+03  0.41563087114E+03  0.12160287696E+04  0.00000000000E+00 0.  1.
         16    1    4    4    0    0 -0.21435355476E+03  0.14850885654E+03 -0.14177096404E+03  0.29681868734E+03  0.00000000000E+00 0. -1.
    9900018    1    3    3    0    0  0.43524361489E+02  0.11177107460E+03  0.10800219443E+02  0.15105947932E+03  0.91187600000E+02 0.  0.
<mgrwt>
<rscale>  0 0.64136621E+04</rscale>
<asrwt>0</asrwt>
<pdfrwt beam="1">  1        2 0.57475493E+00 0.64136621E+04</pdfrwt>
<pdfrwt beam="2">  1       -2 0.42348959E+00 0.64136621E+04</pdfrwt>
<totfact> 0.18597676E-03</totfact>
</mgrwt>
</event>
<event>
11    1  0.9411846E-017  0.5346160E+04  0.7818608E-02  0.7777220E-01
          2   -1    0    0  501    0  0.00000000000E+00  0.00000000000E+00  0.30010540411E+04  0.30010540411E+04  0.00000000000E+00 0.  1.
         -2   -1    0    0    0  501 -0.00000000000E+00 -0.00000000000E+00 -0.23809487673E+04  0.23809487673E+04  0.00000000000E+00 0. -1.
    9900016    2    1    2    0    0 -0.39680005065E+03 -0.60649369194E+02  0.27960652157E+03  0.18660899416E+04  0.18008284862E+04 0.  0.
         24    2    3    3    0    0 -0.27242033249E+03  0.85580529145E+03  0.27353737452E+03  0.94121357476E+03  0.66669060530E+02 0.  0.
        -15    1    1    2    0    0 -0.83269952682E+03 -0.87293378112E+02  0.58613662651E+03  0.10220395202E+04  0.00000000000E+00 0.  1.
        -15    1    4    4    0    0 -0.13969154388E+03  0.54439066858E+03  0.17506237141E+03  0.58866099017E+03  0.00000000000E+00 0.  1.
         15    1    1    2    0    0  0.51999896039E+03  0.93008696648E+03 -0.64151851846E+03  0.12437872381E+04  0.00000000000E+00 0. -1.
         15    1    3    3    0    0 -0.12437971816E+03 -0.91645466064E+03  0.60691470540E+01  0.92487636679E+03  0.00000000000E+00 0. -1.
        -16    1    1    2    0    0  0.71987556851E+03 -0.81487360155E+03  0.34891195313E+03  0.11419191616E+04  0.00000000000E+00 0.  1.
         16    1    4    4    0    0 -0.13272878861E+03  0.31141462287E+03  0.98475003108E+02  0.35255258459E+03  0.00000000000E+00 0. -1.
    9900018    1    1    2    0    0 -0.10374951441E+02  0.32729382378E+02  0.46968691076E+02  0.10816694700E+03  0.91187600000E+02 0.  0.
<mgrwt>
<rscale>  0 0.53461597E+04</rscale>
<asrwt>0</asrwt>
<pdfrwt beam="1">  1        2 0.46170062E+00 0.53461597E+04</pdfrwt>
<pdfrwt beam="2">  1       -2 0.36629981E+00 0.53461597E+04</pdfrwt>
<totfact> 0.15095039E-02</totfact>
</mgrwt>
</event>
<event>
10    1  0.9411846E-017  0.7404842E+04  0.7818608E-02  0.7537066E-01
         -2   -1    0    0    0  501 -0.00000000000E+00  0.00000000000E+00  0.37769967098E+04  0.37769967098E+04  0.00000000000E+00 0.  1.
          2   -1    0    0  501    0  0.00000000000E+00 -0.00000000000E+00 -0.36293178125E+04  0.36293178125E+04  0.00000000000E+00 0. -1.
    9900016    2    1    2    0    0  0.10173230003E+04 -0.21569523995E+03  0.72219478996E+03  0.22004023755E+04  0.17996485146E+04 0.  0.
        -15    1    1    2    0    0  0.13823710913E+04  0.46038611266E+03 -0.31831270731E+00  0.14570193232E+04  0.00000000000E+00 0.  1.
        -15    1    3    3    0    0 -0.48962835101E+03 -0.20867329607E+03  0.42694755142E+02  0.53395066132E+03  0.00000000000E+00 0.  1.
         15    1    1    2    0    0 -0.21274344668E+04  0.75860511789E+03  0.26045429121E+03  0.22736084916E+04  0.00000000000E+00 0. -1.
         15    1    3    3    0    0  0.10988772446E+04 -0.75013927081E+01  0.59527575653E+03  0.12497762583E+04  0.00000000000E+00 0. -1.
        -16    1    3    3    0    0  0.40807410679E+03  0.47944882389E+00  0.84224278292E+02  0.41667545591E+03  0.00000000000E+00 0.  1.
         16    1    1    2    0    0 -0.34048749927E+03 -0.96520314324E+03 -0.87710740901E+03  0.13479118116E+04  0.00000000000E+00 0. -1.
    9900018    1    1    2    0    0  0.68227874390E+02 -0.38092847358E+02  0.42455537828E+02  0.12737252039E+03  0.91187600000E+02 0.  0.
<mgrwt>
<rscale>  0 0.74048420E+04</rscale>
<asrwt>0</asrwt>
<pdfrwt beam="1">  1        2 0.55835659E+00 0.74048420E+04</pdfrwt>
<pdfrwt beam="2">  1       -2 0.58107641E+00 0.74048420E+04</pdfrwt>
<totfact> 0.24870170E-04</totfact>
</mgrwt>
</event>
<event>
10    1  0.9411846E-017  0.2665165E+04  0.7818608E-02  0.8467160E-01
         -2   -1    0    0    0  501 -0.00000000000E+00  0.00000000000E+00  0.16227003451E+04  0.16227003451E+04  0.00000000000E+00 0.  1.
          2   -1    0    0  501    0  0.00000000000E+00 -0.00000000000E+00 -0.29012281520E+04  0.29012281520E+04  0.00000000000E+00 0. -1.
    9900016    2    1    2    0    0 -0.31401793289E+03  0.13061434280E+03 -0.52203324473E+03  0.18938367557E+04  0.17884159415E+04 0.  0.
        -15    1    1    2    0    0 -0.60212869637E+03  0.22779564109E+03  0.23242266917E+03  0.68444876962E+03  0.00000000000E+00 0.  1.
        -15    1    3    3    0    0  0.10800175389E+03  0.83150044929E+03 -0.63233991125E+02  0.84086616869E+03  0.00000000000E+00 0.  1.
         15    1    3    3    0    0 -0.43590056728E+03 -0.75204221813E+03 -0.48331442001E+03  0.99457007345E+03  0.00000000000E+00 0. -1.
         15    1    1    2    0    0  0.26012132590E+03  0.19543568047E+03 -0.96962568045E+03  0.10227571411E+04  0.00000000000E+00 0. -1.
        -16    1    1    2    0    0  0.64065657634E+03 -0.51318907609E+03 -0.29273139057E+02  0.82137737569E+03  0.00000000000E+00 0.  1.
         16    1    3    3    0    0  0.13880880496E+02  0.51156111642E+02  0.24515166410E+02  0.58400513575E+02  0.00000000000E+00 0. -1.
    9900018    1    1    2    0    0  0.15368727028E+02 -0.40656588276E+02  0.99815882221E+01  0.10150845501E+03  0.91187600000E+02 0.  0.
<mgrwt>
<rscale>  0 0.23274914E+04</rscale>
<asrwt>0</asrwt>
<pdfrwt beam="1">  1        2 0.44634279E+00 0.26651648E+04</pdfrwt>
<pdfrwt beam="2">  1       -2 0.24964621E+00 0.26651648E+04</pdfrwt>
<totfact> 0.10887532E-01</totfact>
</mgrwt>
</event>
<event>
10    1  0.9411846E-017  0.2971119E+04  0.7818608E-02  0.8499218E-01
          2   -1    0    0  501    0  0.00000000000E+00  0.00000000000E+00  0.33314543656E+04  0.33314543656E+04  0.00000000000E+00 0.  1.
         -2   -1    0    0    0  501 -0.00000000000E+00 -0.00000000000E+00 -0.11851850797E+04  0.11851850797E+04  0.00000000000E+00 0. -1.
    9900016    2    1    2    0    0  0.25178124054E+03  0.40644724744E+03  0.17363613897E+04  0.26057569246E+04  0.18831954536E+04 0.  0.
        -15    1    3    3    0    0  0.47883580768E+03  0.62733213389E+03  0.50870343960E+01  0.78921176806E+03  0.00000000000E+00 0.  1.
        -15    1    1    2    0    0  0.18870336686E+03 -0.20829168506E+03  0.98736742715E+03  0.10265908742E+04  0.00000000000E+00 0.  1.
         15    1    1    2    0    0  0.79531314763E+02 -0.22558842464E+02 -0.20484446018E+03  0.22089677288E+03  0.00000000000E+00 0. -1.
         15    1    3    3    0    0 -0.61595037625E+02 -0.57013701698E+02  0.35849682610E+03  0.36819082711E+03  0.00000000000E+00 0. -1.
        -16    1    3    3    0    0 -0.20765802179E+03 -0.17588442390E+03  0.12877207162E+04  0.13161617787E+04  0.00000000000E+00 0.  1.
         16    1    1    2    0    0 -0.52001592216E+03 -0.17559671992E+03 -0.37261507080E+03  0.66339487361E+03  0.00000000000E+00 0. -1.
    9900018    1    3    3    0    0  0.42198492275E+02  0.12013239151E+02  0.85056812961E+02  0.13219255081E+03  0.91187600000E+02 0.  0.
<mgrwt>
<rscale>  0 0.22467505E+04</rscale>
<asrwt>0</asrwt>
<pdfrwt beam="1">  1        2 0.51253144E+00 0.29711192E+04</pdfrwt>
<pdfrwt beam="2">  1       -2 0.18233617E+00 0.29711192E+04</pdfrwt>
<totfact> 0.15437012E-01</totfact>
</mgrwt>
</event>
<event>
10    1  0.9411846E-017  0.2970618E+04  0.7818608E-02  0.8318342E-01
          2   -1    0    0  501    0  0.00000000000E+00  0.00000000000E+00  0.38887587312E+04  0.38887587312E+04  0.00000000000E+00 0. -1.
         -2   -1    0    0    0  501 -0.00000000000E+00 -0.00000000000E+00 -0.17516470247E+04  0.17516470247E+04  0.00000000000E+00 0.  1.
    9900016    2    1    2    0    0 -0.53109298146E+03 -0.28293322812E+02  0.11207817674E+04  0.21944392140E+04  0.18101246993E+04 0.  0.
        -15    1    3    3    0    0 -0.50987886548E+03  0.52731737250E+03  0.13844600254E+04  0.15667704461E+04  0.00000000000E+00 0.  1.
        -15    1    1    2    0    0  0.67366850986E+02 -0.13195221860E+04  0.52168284098E+03  0.14205034596E+04  0.00000000000E+00 0.  1.
         15    1    1    2    0    0 -0.32810120288E+03  0.75082428214E+03 -0.37764221594E+02  0.82025217977E+03  0.00000000000E+00 0. -1.
         15    1    3    3    0    0 -0.67528138808E+02 -0.29927121322E+03 -0.11435318473E+03  0.32741404895E+03  0.00000000000E+00 0. -1.
        -16    1    3    3    0    0  0.46314022831E+02 -0.25633948209E+03 -0.14932507329E+03  0.30025471903E+03  0.00000000000E+00 0.  1.
         16    1    1    2    0    0  0.79880503252E+03  0.57983004047E+03  0.47064243160E+03  0.10935248759E+04  0.00000000000E+00 0. -1.
    9900018    1    1    2    0    0 -0.69776991766E+01  0.17161186232E+02  0.61768888118E+02  0.11168602657E+03  0.91187600000E+02 0.  0.
<mgrwt>
<rscale>  0 0.27519523E+04</rscale>
<asrwt>0</asrwt>
<pdfrwt beam="1">  1        2 0.59827057E+00 0.29706184E+04</pdfrwt>
<pdfrwt beam="2">  1       -2 0.26948416E+00 0.29706184E+04</pdfrwt>
<totfact> 0.16579405E-02</totfact>
</mgrwt>
</event>
