<event>
12    1  0.6016038E-012  0.4912338E+04  0.7818608E-02  0.8477581E-01
         -2   -1    0    0    0  501 -0.00000000000E+00  0.00000000000E+00  0.23396073537E+04  0.23396073537E+04  0.00000000000E+00 0.  1.
          2   -1    0    0  501    0  0.00000000000E+00 -0.00000000000E+00 -0.33073120508E+04  0.33073120508E+04  0.00000000000E+00 0. -1.
         23    2    1    2    0    0  0.91677413641E+02 -0.19166988106E+03 -0.68702591265E+03  0.72656907366E+03  0.10371076445E+03 0.  0.
    9900016    2    1    2    0    0  0.15269128031E+04 -0.32544780192E+03 -0.11357822272E+04  0.29342899608E+04  0.22096781047E+04 0.  0.
         24    2    4    4    0    0 -0.35823045543E+03  0.49753638017E+03 -0.45471784148E+03  0.76751429944E+03  0.80239489611E+02 0.  0.
        -15    1    3    3    0    0  0.79613322076E+02 -0.65850958633E+02 -0.22538761906E+03  0.24793992948E+03  0.00000000000E+00 0.  1.
        -15    1    5    5    0    0 -0.31005582523E+03  0.44403986241E+03 -0.42957161494E+03  0.69125811860E+03  0.00000000000E+00 0.  1.
         15    1    3    3    0    0  0.12064091566E+02 -0.12581892242E+03 -0.46163829360E+03  0.47862914418E+03  0.00000000000E+00 0. -1.
         15    1    4    4    0    0  0.18851432585E+04 -0.82298418209E+03 -0.68106438569E+03  0.21667756613E+04  0.00000000000E+00 0. -1.
        -16    1    1    2    0    0 -0.14889787514E+04  0.53587291640E+03  0.89971853143E+03  0.18203601129E+04  0.00000000000E+00 0.  1.
         16    1    5    5    0    0 -0.48174630196E+02  0.53496517757E+02 -0.25146226546E+02  0.76256180839E+02  0.00000000000E+00 0. -1.
    9900018    1    1    2    0    0 -0.12961146529E+03 -0.18755233427E+02 -0.44615088677E+02  0.16570025724E+03  0.91187600000E+02 0.  0.
<mgrwt>
<rscale>  0 0.23008629E+04</rscale>
<asrwt>0</asrwt>
<pdfrwt beam="1">  1        2 0.50881724E+00 0.49123382E+04</pdfrwt>
<pdfrwt beam="2">  1       -2 0.35993959E+00 0.49123382E+04</pdfrwt>
<totfact> 0.10602737E-02</totfact>
</mgrwt>
</event>
<event>
12    1  0.6016038E-012  0.4138203E+04  0.7818608E-02  0.8384090E-01
          2   -1    0    0  501    0  0.00000000000E+00  0.00000000000E+00  0.25146638894E+04  0.25146638894E+04  0.00000000000E+00 0. -1.
         -2   -1    0    0    0  501 -0.00000000000E+00 -0.00000000000E+00 -0.22476101242E+04  0.22476101242E+04  0.00000000000E+00 0.  1.
         23    2    1    2    0    0  0.38672797054E+03  0.44246206454E+03 -0.97574046225E+02  0.60803758359E+03  0.12189260353E+03 0.  0.
    9900016    2    1    2    0    0 -0.32028430059E+02  0.72720575346E+03 -0.44340748474E+03  0.23612472328E+04  0.22020500151E+04 0.  0.
         24    2    4    4    0    0 -0.97937736615E+03  0.17644376302E+03 -0.72015314839E+03  0.12310273696E+04  0.80594049638E+02 0.  0.
        -15    1    5    5    0    0 -0.37290743202E+03  0.46816390866E+02 -0.23081853248E+03  0.44105433027E+03  0.00000000000E+00 0.  1.
        -15    1    3    3    0    0  0.11844766526E+03  0.22356535352E+03 -0.24764114551E+02  0.25421364650E+03  0.00000000000E+00 0.  1.
         15    1    3    3    0    0  0.26828030529E+03  0.21889671102E+03 -0.72809931674E+02  0.35382393708E+03  0.00000000000E+00 0. -1.
         15    1    4    4    0    0  0.94734893609E+03  0.55076199044E+03  0.27674566365E+03  0.11302198632E+04  0.00000000000E+00 0. -1.
        -16    1    1    2    0    0  0.39573835373E+02 -0.11784655951E+04  0.48445230456E+03  0.12747710707E+04  0.00000000000E+00 0.  1.
         16    1    5    5    0    0 -0.60646993413E+03  0.12962737215E+03 -0.48933461591E+03  0.78997303938E+03  0.00000000000E+00 0. -1.
    9900018    1    1    2    0    0 -0.39427337586E+03  0.87977771291E+01  0.32358299151E+03  0.51821812645E+03  0.91187600000E+02 0.  0.
<mgrwt>
<rscale>  0 0.25537312E+04</rscale>
<asrwt>0</asrwt>
<pdfrwt beam="1">  1        2 0.38687137E+00 0.41382033E+04</pdfrwt>
<pdfrwt beam="2">  1       -2 0.34578617E+00 0.41382033E+04</pdfrwt>
<totfact> 0.43072918E-02</totfact>
</mgrwt>
</event>
<event>
12    1  0.6016038E-012  0.3129391E+04  0.7818608E-02  0.8755280E-01
          1   -1    0    0  501    0  0.00000000000E+00  0.00000000000E+00  0.22469706520E+04  0.22469706520E+04  0.00000000000E+00 0. -1.
         -1   -1    0    0    0  501 -0.00000000000E+00 -0.00000000000E+00 -0.15656331507E+04  0.15656331507E+04  0.00000000000E+00 0.  1.
         23    2    1    2    0    0 -0.13704737752E+03  0.23210769901E+03  0.62284347894E+03  0.68266666368E+03  0.73782157873E+02 0.  0.
    9900016    2    1    2    0    0  0.31679742565E+03  0.32934771454E+03  0.28831957012E+02  0.22485680494E+04  0.22014532621E+04 0.  0.
         24    2    4    4    0    0 -0.44556246931E+03 -0.77354388084E+03  0.12224921137E+03  0.90458543643E+03  0.80211548320E+02 0.  0.
        -15    1    5    5    0    0 -0.32711591159E+03 -0.58115012959E+03  0.12568131650E+03  0.67862809112E+03  0.00000000000E+00 0.  1.
        -15    1    3    3    0    0 -0.95666313091E+02  0.19034035480E+03  0.41249995300E+03  0.46426038529E+03  0.00000000000E+00 0. -1.
         15    1    4    4    0    0  0.76235989497E+03  0.11028915954E+04 -0.93417254353E+02  0.13439826130E+04  0.00000000000E+00 0. -1.
         15    1    3    3    0    0 -0.41381064434E+02  0.41767344208E+02  0.21034352594E+03  0.21840627839E+03  0.00000000000E+00 0.  1.
        -16    1    1    2    0    0 -0.10278443919E+03 -0.15811126507E+03 -0.29492714130E+03  0.35006546782E+03  0.00000000000E+00 0.  1.
         16    1    5    5    0    0 -0.11844655772E+03 -0.19239375125E+03 -0.34321051349E+01  0.22595734531E+03  0.00000000000E+00 0. -1.
    9900018    1    1    2    0    0 -0.76965608938E+02 -0.40334414849E+03  0.32458920658E+03  0.53130362176E+03  0.91187600000E+02 0.  0.
<mgrwt>
<rscale>  0 0.17107086E+04</rscale>
<asrwt>0</asrwt>
<pdfrwt beam="1">  1        1 0.34568779E+00 0.31293905E+04</pdfrwt>
<pdfrwt beam="2">  1       -1 0.24086664E+00 0.31293905E+04</pdfrwt>
<totfact> 0.13356075E-01</totfact>
</mgrwt>
</event>
<event>
12    1  0.6016038E-012  0.3194399E+04  0.7818608E-02  0.8803210E-01
         -3   -1    0    0    0  501 -0.00000000000E+00  0.00000000000E+00  0.10299930791E+04  0.10299930791E+04  0.00000000000E+00 0.  1.
          3   -1    0    0  501    0  0.00000000000E+00 -0.00000000000E+00 -0.28740767185E+04  0.28740767185E+04  0.00000000000E+00 0. -1.
         23    2    1    2    0    0 -0.16371059633E+02  0.18610500255E+03 -0.26180863136E+03  0.33927268506E+03  0.10797736710E+03 0.  0.
    9900016    2    1    2    0    0 -0.16536335641E+03 -0.64783058036E+01 -0.14324955582E+04  0.26274288806E+04  0.21963496967E+04 0.  0.
         24    2    4    4    0    0 -0.31246065780E+03 -0.54109589021E+03 -0.18363774108E+04  0.19414448221E+04  0.80681950311E+02 0.  0.
        -15    1    3    3    0    0 -0.54565742517E+02  0.50373602193E+02 -0.79350458458E+02  0.10868033544E+03  0.00000000000E+00 0. -1.
        -15    1    5    5    0    0 -0.24131304096E+03 -0.36566273210E+03 -0.11983797854E+04  0.12759527136E+04  0.00000000000E+00 0.  1.
         15    1    3    3    0    0  0.38194682884E+02  0.13573140036E+03 -0.18245817291E+03  0.23059234962E+03  0.00000000000E+00 0.  1.
         15    1    4    4    0    0  0.14709730140E+03  0.53461758441E+03  0.40388185266E+03  0.68598405852E+03  0.00000000000E+00 0. -1.
        -16    1    1    2    0    0  0.23950621449E+03 -0.51137211441E+03 -0.19651494228E+02  0.56502287334E+03  0.00000000000E+00 0.  1.
         16    1    5    5    0    0 -0.71147616848E+02 -0.17543315811E+03 -0.63799762547E+03  0.66549210848E+03  0.00000000000E+00 0. -1.
    9900018    1    1    2    0    0 -0.57771798450E+02  0.33174541767E+03 -0.13012795571E+03  0.37234535862E+03  0.91187600000E+02 0.  0.
<mgrwt>
<rscale>  0 0.16285310E+04</rscale>
<asrwt>0</asrwt>
<pdfrwt beam="1">  1        3 0.44216565E+00 0.31943989E+04</pdfrwt>
<pdfrwt beam="2">  1       -3 0.15846047E+00 0.31943989E+04</pdfrwt>
<totfact> 0.40384451E-03</totfact>
</mgrwt>
</event>
<event>
11    1  0.6016038E-012  0.3926320E+04  0.7818608E-02  0.8366314E-01
          2   -1    0    0  501    0  0.00000000000E+00  0.00000000000E+00  0.20785075970E+04  0.20785075970E+04  0.00000000000E+00 0.  1.
         -2   -1    0    0    0  501 -0.00000000000E+00 -0.00000000000E+00 -0.26723551411E+04  0.26723551411E+04  0.00000000000E+00 0. -1.
    9900016    2    1    2    0    0  0.48993470772E+03 -0.47883118712E+03 -0.13117392830E+03  0.23108174573E+04  0.22030332267E+04 0.  0.
        -24    2    3    3    0    0  0.20880910766E+03 -0.10543544956E+04  0.68218089959E+03  0.12755374190E+04  0.79751374547E+02 0.  0.
        -15    1    1    2    0    0  0.35546766194E+03  0.54500459166E+03 -0.29839178104E+03  0.71583861213E+03  0.00000000000E+00 0.  1.
        -15    1    3    3    0    0  0.28112560006E+03  0.57552330846E+03 -0.81335482790E+03  0.10352800383E+04  0.00000000000E+00 0.  1.
         15    1    4    4    0    0  0.70753394537E+02 -0.49729313788E+03  0.35282084143E+03  0.61383145404E+03  0.00000000000E+00 0. -1.
         15    1    1    2    0    0  0.93395584126E+02 -0.17901946865E+02  0.15745010555E+02  0.96390456962E+02  0.00000000000E+00 0. -1.
        -16    1    4    4    0    0  0.13805571312E+03 -0.55706135771E+03  0.32936005816E+03  0.66170596498E+03  0.00000000000E+00 0.  1.
         16    1    1    2    0    0 -0.11802765464E+04  0.26725228226E+03 -0.13821196360E+03  0.12180226004E+04  0.00000000000E+00 0. -1.
    9900018    1    1    2    0    0  0.24147859257E+03 -0.31552373994E+03 -0.41814881775E+02  0.40979361130E+03  0.91187600000E+02 0.  0.
<mgrwt>
<rscale>  0 0.26055629E+04</rscale>
<asrwt>0</asrwt>
<pdfrwt beam="1">  1        2 0.31977040E+00 0.39263201E+04</pdfrwt>
<pdfrwt beam="2">  1       -2 0.41113156E+00 0.39263201E+04</pdfrwt>
<totfact> 0.29262625E-02</totfact>
</mgrwt>
</event>
<event>
12    1  0.6016038E-012  0.3716296E+04  0.7818608E-02  0.8497552E-01
          2   -1    0    0  501    0  0.00000000000E+00  0.00000000000E+00  0.31736012579E+04  0.31736012579E+04  0.00000000000E+00 0. -1.
         -2   -1    0    0    0  501 -0.00000000000E+00 -0.00000000000E+00 -0.17453027520E+04  0.17453027520E+04  0.00000000000E+00 0.  1.
         23    2    1    2    0    0  0.30463845578E+03  0.38254088328E+03  0.10752663368E+04  0.11858769882E+04  0.10471112598E+03 0.  0.
    9900016    2    1    2    0    0  0.94663427959E+01 -0.84102720923E+03  0.74322833720E+03  0.24990893786E+04  0.22328553430E+04 0.  0.
        -24    2    4    4    0    0  0.61089254880E+03 -0.40132893048E+03  0.13505399992E+04  0.15379049465E+04  0.83298970081E+02 0.  0.
        -15    1    4    4    0    0 -0.60142620601E+03 -0.43969827875E+03 -0.60731166204E+03  0.96118443207E+03  0.00000000000E+00 0.  1.
        -15    1    3    3    0    0  0.89838568335E+02  0.53548991825E+02  0.27877099504E+03  0.29774440475E+03  0.00000000000E+00 0. -1.
         15    1    3    3    0    0  0.21479988745E+03  0.32899189145E+03  0.79649534178E+03  0.88813258344E+03  0.00000000000E+00 0.  1.
         15    1    5    5    0    0  0.43379001187E+03 -0.32807682285E+03  0.10108321769E+04  0.11478631739E+04  0.00000000000E+00 0. -1.
        -16    1    5    5    0    0  0.17710253693E+03 -0.73252107624E+02  0.33970782231E+03  0.39004177263E+03  0.00000000000E+00 0.  1.
         16    1    1    2    0    0 -0.24676771171E+03  0.42849999651E+02  0.31812578501E+03  0.40488818345E+03  0.00000000000E+00 0. -1.
    9900018    1    1    2    0    0 -0.67337086866E+02  0.41563632630E+03 -0.70832195307E+03  0.82904945969E+03  0.91187600000E+02 0.  0.
<mgrwt>
<rscale>  0 0.22508595E+04</rscale>
<asrwt>0</asrwt>
<pdfrwt beam="1">  1        2 0.48824635E+00 0.37162964E+04</pdfrwt>
<pdfrwt beam="2">  1       -2 0.26850812E+00 0.37162964E+04</pdfrwt>
<totfact> 0.52115987E-02</totfact>
</mgrwt>
</event>
<event>
11    1  0.6016038E-012  0.3957147E+04  0.7818608E-02  0.8013248E-01
          2   -1    0    0  501    0  0.00000000000E+00  0.00000000000E+00  0.14911565380E+04  0.14911565380E+04  0.00000000000E+00 0.  1.
         -2   -1    0    0    0  501 -0.00000000000E+00 -0.00000000000E+00 -0.26253127386E+04  0.26253127386E+04  0.00000000000E+00 0. -1.
    9900016    2    1    2    0    0 -0.46335382527E+03  0.24769569659E+02 -0.13634503394E+04  0.26372435586E+04  0.22092411503E+04 0.  0.
         24    2    3    3    0    0 -0.61824981438E+03  0.95747583785E+03 -0.12358716726E+04  0.16831942588E+04  0.82287962140E+02 0.  0.
        -15    1    4    4    0    0 -0.21999666742E+03  0.27543687371E+03 -0.40186290580E+03  0.53456318629E+03  0.00000000000E+00 0.  1.
        -15    1    1    2    0    0  0.48898800352E+03 -0.23110950533E+03  0.23563631894E+03  0.58995368111E+03  0.00000000000E+00 0.  1.
         15    1    3    3    0    0  0.15489598911E+03 -0.93270626819E+03 -0.12757866687E+03  0.95404929978E+03  0.00000000000E+00 0. -1.
         15    1    1    2    0    0  0.13735948585E+03  0.15683718937E+01  0.11267551387E+03  0.17766783493E+03  0.00000000000E+00 0. -1.
        -16    1    1    2    0    0 -0.38787511187E+02  0.15574657579E+03  0.25659880631E+03  0.30266221154E+03  0.00000000000E+00 0.  1.
         16    1    4    4    0    0 -0.39825314696E+03  0.68203896414E+03 -0.83400876675E+03  0.11486310725E+04  0.00000000000E+00 0. -1.
    9900018    1    1    2    0    0 -0.12420615292E+03  0.49024987992E+02 -0.37561650028E+03  0.40894199045E+03  0.91187600000E+02 0.  0.
<mgrwt>
<rscale>  0 0.39571466E+04</rscale>
<asrwt>0</asrwt>
<pdfrwt beam="1">  1        2 0.22940870E+00 0.39571466E+04</pdfrwt>
<pdfrwt beam="2">  1       -2 0.40389427E+00 0.39571466E+04</pdfrwt>
<totfact> 0.71107382E-02</totfact>
</mgrwt>
</event>
<event>
12    1  0.6016038E-012  0.4221544E+04  0.7818608E-02  0.8394838E-01
         -1   -1    0    0    0  501 -0.00000000000E+00  0.00000000000E+00  0.36288533872E+04  0.36288533872E+04  0.00000000000E+00 0.  1.
          1   -1    0    0  501    0  0.00000000000E+00 -0.00000000000E+00 -0.18562818808E+04  0.18562818808E+04  0.00000000000E+00 0. -1.
         23    2    1    2    0    0  0.22947884828E+03  0.47590174963E+03  0.10804274704E+04  0.12072271482E+04  0.10455071291E+03 0.  0.
    9900016    2    1    2    0    0 -0.80977639727E+03  0.52346235147E+03  0.48180159381E+03  0.24506062503E+04  0.22008152061E+04 0.  0.
         24    2    4    4    0    0  0.17629272559E+03 -0.73324251917E+03  0.38555790035E+03  0.85032430783E+03  0.75318104998E+02 0.  0.
        -15    1    3    3    0    0  0.11758065862E+03  0.30857166347E+03  0.76249314874E+03  0.83092567938E+03  0.00000000000E+00 0. -1.
        -15    1    5    5    0    0  0.10969956318E+03 -0.36984556513E+03  0.16127020598E+03  0.41812416284E+03  0.00000000000E+00 0.  1.
         15    1    4    4    0    0 -0.98606912286E+03  0.12567048706E+04  0.96243693462E+02  0.16002819425E+04  0.00000000000E+00 0. -1.
         15    1    3    3    0    0  0.11189818965E+03  0.16733008616E+03  0.31793432162E+03  0.37630146883E+03  0.00000000000E+00 0.  1.
        -16    1    1    2    0    0  0.42350944420E+03 -0.13157631551E+04  0.36737682162E+03  0.14302302817E+04  0.00000000000E+00 0.  1.
         16    1    5    5    0    0  0.66593162415E+02 -0.36339695404E+03  0.22428769437E+03  0.43220014499E+03  0.00000000000E+00 0. -1.
    9900018    1    1    2    0    0  0.15678810479E+03  0.31639905398E+03 -0.15703437933E+03  0.39707158782E+03  0.91187600000E+02 0.  0.
<mgrwt>
<rscale>  0 0.25229990E+04</rscale>
<asrwt>0</asrwt>
<pdfrwt beam="1">  1        1 0.28558183E+00 0.42215441E+04</pdfrwt>
<pdfrwt beam="2">  1       -1 0.55828513E+00 0.42215441E+04</pdfrwt>
<totfact> 0.18983426E-03</totfact>
</mgrwt>
</event>
<event>
12    1  0.6016038E-012  0.3097821E+04  0.7818608E-02  0.8847652E-01
         -2   -1    0    0    0  501 -0.00000000000E+00  0.00000000000E+00  0.80820978093E+03  0.80820978093E+03  0.00000000000E+00 0.  1.
          2   -1    0    0  501    0  0.00000000000E+00 -0.00000000000E+00 -0.33780678710E+04  0.33780678710E+04  0.00000000000E+00 0. -1.
         23    2    1    2    0    0 -0.16014738702E+03  0.85226019273E+02 -0.85031250857E+02  0.21502352687E+03  0.78064995696E+02 0.  0.
    9900016    2    1    2    0    0  0.41866361795E+03  0.31987865871E+03 -0.16808328124E+04  0.28248425151E+04  0.22083782989E+04 0.  0.
        -24    2    4    4    0    0 -0.62639222741E+03  0.77035254155E+03 -0.12720981536E+04  0.16156558214E+04  0.79371027539E+02 0.  0.
        -15    1    3    3    0    0 -0.12299801331E+03  0.63763171342E+02 -0.98574595379E+02  0.17003295019E+03  0.00000000000E+00 0.  1.
        -15    1    4    4    0    0  0.10450558454E+04 -0.45047388284E+03 -0.40873465880E+03  0.12091866938E+04  0.00000000000E+00 0.  1.
         15    1    3    3    0    0 -0.37149373714E+02  0.21462847931E+02  0.13543344521E+02  0.44990576674E+02  0.00000000000E+00 0. -1.
         15    1    5    5    0    0 -0.82422318371E+02  0.12630073904E+03 -0.15642565449E+03  0.21728851932E+03  0.00000000000E+00 0. -1.
        -16    1    5    5    0    0 -0.54396990904E+03  0.64405180252E+03 -0.11156724991E+04  0.13983673021E+04  0.00000000000E+00 0.  1.
         16    1    1    2    0    0 -0.44261697629E+03 -0.39002497191E+03 -0.70067140620E+03  0.91595288409E+03  0.00000000000E+00 0. -1.
    9900018    1    1    2    0    0  0.18410074535E+03 -0.15079706070E+02 -0.10332262059E+03  0.23045872579E+03  0.91187600000E+02 0.  0.
<mgrwt>
<rscale>  0 0.15566178E+04</rscale>
<asrwt>0</asrwt>
<pdfrwt beam="1">  1        2 0.51970275E+00 0.30978210E+04</pdfrwt>
<pdfrwt beam="2">  1       -2 0.12433997E+00 0.30978210E+04</pdfrwt>
<totfact> 0.40421058E-01</totfact>
</mgrwt>
</event>
<event>
11    1  0.6016038E-012  0.2945995E+04  0.7818608E-02  0.8941700E-01
          2   -1    0    0  501    0  0.00000000000E+00  0.00000000000E+00  0.33170325636E+04  0.33170325636E+04  0.00000000000E+00 0. -1.
         -2   -1    0    0    0  501 -0.00000000000E+00 -0.00000000000E+00 -0.14647555961E+04  0.14647555961E+04  0.00000000000E+00 0.  1.
    9900016    2    1    2    0    0  0.58441722548E+01  0.28994377672E+02  0.21156543961E+04  0.30539964536E+04  0.22022774545E+04 0.  0.
        -24    2    3    3    0    0  0.62104299783E+03 -0.57343447130E+03  0.20156081503E+04  0.21871635029E+04  0.80538654593E+02 0.  0.
        -15    1    1    2    0    0 -0.13134816992E+02 -0.14810984026E+02 -0.68913761594E+02  0.71700733625E+02  0.00000000000E+00 0.  1.
        -15    1    3    3    0    0 -0.61519882558E+03  0.60242884897E+03  0.10004624580E+03  0.86683295067E+03  0.00000000000E+00 0.  1.
         15    1    1    2    0    0  0.12018762173E+03  0.11178211097E+03 -0.14623674368E+03  0.21983059376E+03  0.00000000000E+00 0. -1.
         15    1    4    4    0    0  0.28323416712E+03 -0.22550655445E+03  0.78557590535E+03  0.86498803610E+03  0.00000000000E+00 0. -1.
        -16    1    4    4    0    0  0.33780883071E+03 -0.34792791685E+03  0.12300322450E+04  0.13221754668E+04  0.00000000000E+00 0.  1.
         16    1    1    2    0    0 -0.87028405321E+02 -0.10485218512E+03 -0.73253267407E+03  0.74509867980E+03  0.00000000000E+00 0. -1.
    9900018    1    1    2    0    0 -0.25868571676E+02 -0.21113319503E+02  0.68430575072E+03  0.69116169897E+03  0.91187600000E+02 0.  0.
<mgrwt>
<rscale>  0 0.14168658E+04</rscale>
<asrwt>0</asrwt>
<pdfrwt beam="1">  1        2 0.51031270E+00 0.29459952E+04</pdfrwt>
<pdfrwt beam="2">  1       -2 0.22534702E+00 0.29459952E+04</pdfrwt>
<totfact> 0.81787956E-02</totfact>
</mgrwt>
</event>
<event>
12    1  0.6016039E-012  0.3680230E+04  0.7818608E-02  0.8662524E-01
          2   -1    0    0  501    0  0.00000000000E+00  0.00000000000E+00  0.15089739318E+04  0.15089739318E+04  0.00000000000E+00 0. -1.
         -2   -1    0    0    0  501 -0.00000000000E+00 -0.00000000000E+00 -0.30595689954E+04  0.30595689954E+04  0.00000000000E+00 0.  1.
         23    2    1    2    0    0 -0.24179269479E+03  0.14455441844E+02  0.34572694669E+03  0.42847906211E+03  0.73447382158E+02 0.  0.
    9900016    2    1    2    0    0 -0.58471738389E+03  0.12058111942E+03 -0.62655565283E+03  0.23755544839E+04  0.22122958424E+04 0.  0.
         24    2    4    4    0    0  0.42855981979E+03  0.47499868328E+03 -0.10412902388E+04  0.12247515998E+04  0.80273605158E+02 0.  0.
        -15    1    3    3    0    0 -0.23692666421E+02 -0.68311537865E+01  0.81804809934E+02  0.85440236613E+02  0.00000000000E+00 0. -1.
        -15    1    5    5    0    0  0.32063956567E+03  0.40096933040E+03 -0.80998617472E+03  0.95899100007E+03  0.00000000000E+00 0.  1.
         15    1    3    3    0    0 -0.21810002837E+03  0.21286595631E+02  0.26392213676E+03  0.34303882550E+03  0.00000000000E+00 0.  1.
         15    1    4    4    0    0 -0.10132772037E+04 -0.35441756387E+03  0.41473458595E+03  0.11508028840E+04  0.00000000000E+00 0. -1.
        -16    1    1    2    0    0  0.42763455419E+03 -0.48208937145E+03 -0.45464902724E+03  0.78866165874E+03  0.00000000000E+00 0.  1.
         16    1    5    5    0    0  0.10792025412E+03  0.74029352887E+02 -0.23130406406E+03  0.26576059977E+03  0.00000000000E+00 0. -1.
    9900018    1    1    2    0    0  0.39887552449E+03  0.34705281018E+03 -0.81511733016E+03  0.97584772245E+03  0.91187600000E+02 0.  0.
<mgrwt>
<rscale>  0 0.18846715E+04</rscale>
<asrwt>0</asrwt>
<pdfrwt beam="1">  1        2 0.23214984E+00 0.36802298E+04</pdfrwt>
<pdfrwt beam="2">  1       -2 0.47070291E+00 0.36802298E+04</pdfrwt>
<totfact> 0.25245866E-02</totfact>
</mgrwt>
</event>
<event>
11    1  0.6016038E-012  0.3974918E+04  0.7818608E-02  0.8692403E-01
          2   -1    0    0  501    0  0.00000000000E+00  0.00000000000E+00  0.28718939150E+04  0.28718939150E+04  0.00000000000E+00 0. -1.
         -2   -1    0    0    0  501 -0.00000000000E+00 -0.00000000000E+00 -0.15488612992E+04  0.15488612992E+04  0.00000000000E+00 0.  1.
    9900016    2    1    2    0    0 -0.59443038829E+02  0.83324521460E+03 -0.32924728677E+02  0.23515217045E+04  0.21978942710E+04 0.  0.
        -24    2    3    3    0    0 -0.49253950387E+03 -0.36494315366E+03  0.65732143796E+03  0.90249869420E+03  0.81570533640E+02 0.  0.
        -15    1    1    2    0    0  0.95414783830E+02 -0.33051045669E+02 -0.78555535640E+02  0.12793484581E+03  0.00000000000E+00 0.  1.
        -15    1    3    3    0    0  0.43309646504E+03  0.11981883683E+04 -0.69024616663E+03  0.14490230103E+04  0.00000000000E+00 0.  1.
         15    1    4    4    0    0 -0.28585202131E+03 -0.16284542555E+03  0.36511291220E+03  0.49146459625E+03  0.00000000000E+00 0. -1.
         15    1    1    2    0    0 -0.66694343426E+02 -0.24464656645E+02 -0.15759839865E+02  0.72766939075E+02  0.00000000000E+00 0. -1.
        -16    1    4    4    0    0 -0.20668748256E+03 -0.20209772811E+03  0.29220852576E+03  0.41103409795E+03  0.00000000000E+00 0.  1.
         16    1    1    2    0    0  0.43198831170E+02 -0.91347554954E+03  0.14357153464E+04  0.17022286199E+04  0.00000000000E+00 0. -1.
    9900018    1    1    2    0    0 -0.12476232745E+02  0.13774603725E+03  0.14557373577E+02  0.16630310485E+03  0.91187600000E+02 0.  0.
<mgrwt>
<rscale>  0 0.18263661E+04</rscale>
<asrwt>0</asrwt>
<pdfrwt beam="1">  1        2 0.44182983E+00 0.39749183E+04</pdfrwt>
<pdfrwt beam="2">  1       -2 0.23828635E+00 0.39749183E+04</pdfrwt>
<totfact> 0.12428341E-01</totfact>
</mgrwt>
</event>
<event>
12    1  0.6016038E-012  0.4377705E+04  0.7818608E-02  0.8613929E-01
          2   -1    0    0  501    0  0.00000000000E+00  0.00000000000E+00  0.37270370919E+04  0.37270370919E+04  0.00000000000E+00 0. -1.
         -2   -1    0    0    0  501 -0.00000000000E+00 -0.00000000000E+00 -0.18167472765E+04  0.18167472765E+04  0.00000000000E+00 0.  1.
         23    2    1    2    0    0 -0.80274901166E+02 -0.14753994725E+03 -0.50937422594E+03  0.54187711314E+03  0.77179063833E+02 0.  0.
    9900016    2    1    2    0    0 -0.32543293811E+02  0.61435467649E+03  0.19171842952E+03  0.22939975504E+04  0.22016307752E+04 0.  0.
         24    2    4    4    0    0 -0.61193138806E+03  0.12693732125E+04  0.12075180835E+03  0.14166286954E+04  0.80544926321E+02 0.  0.
        -15    1    5    5    0    0 -0.50267419141E+03  0.10405041860E+04  0.12996953428E+03  0.11628509722E+04  0.00000000000E+00 0.  1.
        -15    1    3    3    0    0 -0.73854622627E+01 -0.93749996845E+02 -0.24625277976E+03  0.26359825208E+03  0.00000000000E+00 0.  1.
         15    1    3    3    0    0 -0.72889438904E+02 -0.53789950407E+02 -0.26312144618E+03  0.27827886105E+03  0.00000000000E+00 0. -1.
         15    1    4    4    0    0  0.57938809424E+03 -0.65501853602E+03  0.70966621170E+02  0.87736885493E+03  0.00000000000E+00 0. -1.
        -16    1    1    2    0    0  0.38634333966E+03 -0.74979305836E+03  0.21318498807E+04  0.22926479713E+04  0.00000000000E+00 0.  1.
         16    1    5    5    0    0 -0.10925719665E+03  0.22886902653E+03 -0.92177259329E+01  0.25377772321E+03  0.00000000000E+00 0. -1.
    9900018    1    1    2    0    0 -0.27352514468E+03  0.28297832912E+03  0.96095731145E+02  0.41526173368E+03  0.91187600000E+02 0.  0.
<mgrwt>
<rscale>  0 0.19844421E+04</rscale>
<asrwt>0</asrwt>
<pdfrwt beam="1">  1        2 0.57339032E+00 0.43777051E+04</pdfrwt>
<pdfrwt beam="2">  1       -2 0.27949958E+00 0.43777051E+04</pdfrwt>
<totfact> 0.17533955E-02</totfact>
</mgrwt>
</event>
