<event>
12    1  0.2039668E-012  0.3266828E+04  0.7818608E-02  0.8171388E-01
         -2   -1    0    0    0  501 -0.00000000000E+00  0.00000000000E+00  0.16515000076E+04  0.16515000076E+04  0.00000000000E+00 0.  1.
          2   -1    0    0  501    0  0.00000000000E+00 -0.00000000000E+00 -0.16155256026E+04  0.16155256026E+04  0.00000000000E+00 0. -1.
    9900016    2    1    2    0    0  0.55406545984E+03  0.58741119162E+03 -0.23071039884E+03  0.23064772674E+04  0.21481549420E+04 0.  0.
         24    2    3    3    0    0  0.94097189774E+03  0.10306688264E+04  0.34401182910E+03  0.14396337859E+04  0.80591295419E+02 0.  0.
         23    2    3    3    0    0 -0.70722395003E+02 -0.15972732788E+03 -0.30654712540E+03  0.36456898522E+03  0.91787409113E+02 0.  0.
        -15    1    5    5    0    0 -0.72912249787E+02 -0.57851572653E+02 -0.17455810206E+03  0.19782196951E+03  0.00000000000E+00 0. -1.
        -15    1    4    4    0    0  0.79894693306E+03  0.88497790558E+03  0.26496182969E+03  0.12213545212E+04  0.00000000000E+00 0.  1.
         15    1    5    5    0    0  0.21898547841E+01 -0.10187575523E+03 -0.13198902334E+03  0.16674701571E+03  0.00000000000E+00 0.  1.
         15    1    3    3    0    0 -0.31618404289E+03 -0.28353030693E+03 -0.26817510254E+03  0.50227449622E+03  0.00000000000E+00 0. -1.
        -16    1    1    2    0    0 -0.57735921849E+03 -0.55545740547E+03  0.30033333465E+03  0.85561481309E+03  0.00000000000E+00 0.  1.
         16    1    4    4    0    0  0.14202496468E+03  0.14569092085E+03  0.79049999409E+02  0.21827926475E+03  0.00000000000E+00 0. -1.
    9900018    1    1    2    0    0  0.23293758648E+02 -0.31953786147E+02 -0.33648530843E+02  0.10493352974E+03  0.91187600000E+02 0.  0.
<mgrwt>
<rscale>  0 0.32668275E+04</rscale>
<asrwt>0</asrwt>
<pdfrwt beam="1">  1        2 0.24854240E+00 0.32668275E+04</pdfrwt>
<pdfrwt beam="2">  1       -2 0.25407692E+00 0.32668275E+04</pdfrwt>
<totfact> 0.55529965E-01</totfact>
</mgrwt>
</event>
<event>
12    1  0.2039668E-012  0.2716524E+04  0.7818608E-02  0.8329663E-01
          1   -1    0    0  501    0  0.00000000000E+00  0.00000000000E+00  0.15353355182E+04  0.15353355182E+04  0.00000000000E+00 0. -1.
         -1   -1    0    0    0  501 -0.00000000000E+00 -0.00000000000E+00 -0.12016108909E+04  0.12016108909E+04  0.00000000000E+00 0.  1.
    9900016    2    1    2    0    0  0.33067255552E+03 -0.16008808334E+03  0.49358949219E+03  0.23362853199E+04  0.22538025592E+04 0.  0.
         24    2    3    3    0    0 -0.19458424495E+03  0.79378251712E+03 -0.12624193099E+03  0.83095209809E+03  0.81182826462E+02 0.  0.
         23    2    3    3    0    0 -0.46427048297E+02 -0.52748209383E+02  0.20610440248E+03  0.23643204503E+03  0.92104520998E+02 0.  0.
        -15    1    4    4    0    0 -0.96655071282E+01  0.17759661583E+03 -0.33004814478E+02  0.18089582018E+03  0.00000000000E+00 0.  1.
        -15    1    5    5    0    0 -0.50075456014E+02 -0.26518417442E+02  0.20179721466E+03  0.20960175000E+03  0.00000000000E+00 0. -1.
         15    1    3    3    0    0  0.59713640999E+03 -0.92071626385E+03  0.34525730163E+03  0.11504316299E+04  0.00000000000E+00 0. -1.
         15    1    5    5    0    0  0.36484077169E+01 -0.26229791942E+02  0.43071878136E+01  0.26830295023E+02  0.00000000000E+00 0.  1.
        -16    1    1    2    0    0 -0.33067255552E+03  0.16008808334E+03 -0.15986486487E+03  0.40066108923E+03  0.00000000000E+00 0.  1.
         16    1    4    4    0    0 -0.18491873783E+03  0.61618590130E+03 -0.93237116508E+02  0.65005627791E+03  0.00000000000E+00 0. -1.
    9900018    1    3    3    0    0 -0.25452561210E+02  0.19593872774E+02  0.68469719063E+02  0.11846954691E+03  0.91187600000E+02 0.  0.
<mgrwt>
<rscale>  0 0.27165242E+04</rscale>
<asrwt>0</asrwt>
<pdfrwt beam="1">  1        1 0.23620546E+00 0.27165242E+04</pdfrwt>
<pdfrwt beam="2">  1       -1 0.18486321E+00 0.27165242E+04</pdfrwt>
<totfact> 0.10357291E+00</totfact>
</mgrwt>
</event>
<event>
12    1  0.2039668E-012  0.2854720E+04  0.7818608E-02  0.8286478E-01
          2   -1    0    0  501    0  0.00000000000E+00  0.00000000000E+00  0.22789881870E+04  0.22789881870E+04  0.00000000000E+00 0. -1.
         -2   -1    0    0    0  501 -0.00000000000E+00 -0.00000000000E+00 -0.89397418342E+03  0.89397418342E+03  0.00000000000E+00 0.  1.
    9900016    2    1    2    0    0  0.24323443089E+03 -0.38109808470E+03  0.78155584643E+03  0.24189328710E+04  0.22441051568E+04 0.  0.
        -24    2    3    3    0    0  0.35015770986E+03 -0.78604636422E+03  0.17261171835E+02  0.86448251163E+03  0.80949097500E+02 0.  0.
         23    2    3    3    0    0 -0.42998524463E+03  0.59217618479E+02  0.83563863230E+03  0.94608765972E+03  0.91629139159E+02 0.  0.
        -15    1    3    3    0    0  0.29884754481E+03  0.35643908762E+03 -0.14606093143E+03  0.48753715131E+03  0.00000000000E+00 0.  1.
        -15    1    5    5    0    0 -0.29372806813E+03  0.61914849118E+01  0.61245025766E+03  0.67927154408E+03  0.00000000000E+00 0.  1.
         15    1    4    4    0    0  0.27003682873E+03 -0.55742152750E+03  0.42914481953E+02  0.62087059920E+03  0.00000000000E+00 0. -1.
         15    1    5    5    0    0 -0.13625717650E+03  0.53026133567E+02  0.22318837464E+03  0.26681611563E+03  0.00000000000E+00 0. -1.
        -16    1    4    4    0    0  0.80120881133E+02 -0.22862483672E+03 -0.25653310118E+02  0.24361191243E+03  0.00000000000E+00 0.  1.
         16    1    1    2    0    0 -0.24323443089E+03  0.38109808470E+03  0.60345815714E+03  0.75402949939E+03  0.00000000000E+00 0. -1.
    9900018    1    3    3    0    0  0.24214420853E+02 -0.10708426582E+02  0.74716973729E+02  0.12082554835E+03  0.91187600000E+02 0.  0.
<mgrwt>
<rscale>  0 0.28547200E+04</rscale>
<asrwt>0</asrwt>
<pdfrwt beam="1">  1        2 0.35061356E+00 0.28547200E+04</pdfrwt>
<pdfrwt beam="2">  1       -2 0.13753449E+00 0.28547200E+04</pdfrwt>
<totfact> 0.15180476E+00</totfact>
</mgrwt>
</event>
<event>
12    1  0.2039668E-012  0.2749651E+04  0.7818608E-02  0.8319072E-01
          1   -1    0    0  501    0  0.00000000000E+00  0.00000000000E+00  0.14313506693E+04  0.14313506693E+04  0.00000000000E+00 0. -1.
         -1   -1    0    0    0  501 -0.00000000000E+00 -0.00000000000E+00 -0.13205328688E+04  0.13205328688E+04  0.00000000000E+00 0.  1.
    9900016    2    1    2    0    0 -0.21393083760E+03 -0.71718896374E+02  0.49106944889E+03  0.23097282267E+04  0.22456146762E+04 0.  0.
         24    2    3    3    0    0  0.35301222085E+03 -0.66252865402E+03 -0.71682968496E+02  0.75814496732E+03  0.77996782195E+02 0.  0.
         23    2    3    3    0    0 -0.65327820754E+02  0.20580222638E+03  0.73761247322E+03  0.77379114610E+03  0.89768015390E+02 0.  0.
        -15    1    4    4    0    0  0.13143496110E+03 -0.17176885931E+03 -0.20710368724E+02  0.21727542291E+03  0.00000000000E+00 0.  1.
        -15    1    5    5    0    0 -0.36723491151E+02  0.15390329808E+03  0.64276632217E+03  0.66195421660E+03  0.00000000000E+00 0. -1.
         15    1    3    3    0    0 -0.50665712348E+03  0.37996126767E+03 -0.22670198261E+03  0.67265577722E+03  0.00000000000E+00 0. -1.
         15    1    5    5    0    0 -0.28604329604E+02  0.51898928298E+02  0.94846151053E+02  0.11183692950E+03  0.00000000000E+00 0.  1.
        -16    1    1    2    0    0  0.21393083760E+03  0.71718896374E+02 -0.38025164840E+03  0.44215531149E+03  0.00000000000E+00 0.  1.
         16    1    4    4    0    0  0.22157725975E+03 -0.49075979471E+03 -0.50972599772E+02  0.54086954441E+03  0.00000000000E+00 0. -1.
    9900018    1    3    3    0    0  0.50418857863E+01  0.50462636007E+01  0.51841926784E+02  0.10513633604E+03  0.91187600000E+02 0.  0.
<mgrwt>
<rscale>  0 0.27496513E+04</rscale>
<asrwt>0</asrwt>
<pdfrwt beam="1">  1        1 0.22020780E+00 0.27496513E+04</pdfrwt>
<pdfrwt beam="2">  1       -1 0.20315890E+00 0.27496513E+04</pdfrwt>
<totfact> 0.90906662E-01</totfact>
</mgrwt>
</event>
<event>
12    1  0.2039668E-012  0.2633398E+04  0.7818608E-02  0.8356944E-01
          1   -1    0    0  501    0  0.00000000000E+00  0.00000000000E+00  0.30698764700E+04  0.30698764700E+04  0.00000000000E+00 0. -1.
         -1   -1    0    0    0  501 -0.00000000000E+00 -0.00000000000E+00 -0.56474477182E+03  0.56474477182E+03  0.00000000000E+00 0.  1.
    9900016    2    1    2    0    0 -0.90883650713E+02  0.31643161091E+03  0.19920250276E+04  0.29585884341E+04  0.21625663017E+04 0.  0.
         24    2    3    3    0    0  0.61741750144E+02 -0.55090219502E+03  0.13384256926E+04  0.14505994291E+04  0.74498972834E+02 0.  0.
         23    2    3    3    0    0  0.16357722848E+03  0.41553641520E+02  0.59087870652E+03  0.62151799020E+03  0.93073903536E+02 0.  0.
        -15    1    5    5    0    0  0.10081384472E+03  0.12795242376E+02  0.48199804614E+03  0.49259442343E+03  0.00000000000E+00 0. -1.
        -15    1    4    4    0    0  0.58478164768E+02 -0.46185275268E+03  0.10465274460E+04  0.11454027048E+04  0.00000000000E+00 0.  1.
         15    1    3    3    0    0 -0.31620262934E+03  0.82578016440E+03  0.62720628439E+02  0.88647101473E+03  0.00000000000E+00 0. -1.
         15    1    5    5    0    0  0.62763383761E+02  0.28758399144E+02  0.10888066038E+03  0.12892356676E+03  0.00000000000E+00 0.  1.
        -16    1    1    2    0    0  0.97970108254E+02 -0.32988589404E+03  0.43738844296E+03  0.55653525965E+03  0.00000000000E+00 0.  1.
         16    1    4    4    0    0  0.32635853759E+01 -0.89049442341E+02  0.29189824661E+03  0.30519672434E+03  0.00000000000E+00 0. -1.
    9900018    1    1    2    0    0 -0.70864575412E+01  0.13454283136E+02  0.75718227657E+02  0.11949754813E+03  0.91187600000E+02 0.  0.
<mgrwt>
<rscale>  0 0.26333983E+04</rscale>
<asrwt>0</asrwt>
<pdfrwt beam="1">  1        1 0.47228868E+00 0.26333983E+04</pdfrwt>
<pdfrwt beam="2">  1       -1 0.86883813E-01 0.26333983E+04</pdfrwt>
<totfact> 0.60869795E-01</totfact>
</mgrwt>
</event>
<event>
12    1  0.2039668E-012  0.4519889E+04  0.7818608E-02  0.7907164E-01
          2   -1    0    0  501    0  0.00000000000E+00  0.00000000000E+00  0.17600935457E+04  0.17600935457E+04  0.00000000000E+00 0. -1.
         -2   -1    0    0    0  501 -0.00000000000E+00 -0.00000000000E+00 -0.29017480964E+04  0.29017480964E+04  0.00000000000E+00 0.  1.
    9900016    2    1    2    0    0  0.59082171065E+03 -0.35037977489E+03 -0.21569377148E+04  0.31251567255E+04  0.21546201458E+04 0.  0.
        -24    2    3    3    0    0 -0.41177585490E+03  0.43789430702E+03 -0.10233712217E+04  0.11895223907E+04  0.79775195260E+02 0.  0.
         23    2    3    3    0    0 -0.16272420797E+03 -0.15486945680E+03 -0.17969883850E+03  0.30191472678E+03  0.91635763657E+02 0.  0.
        -15    1    3    3    0    0  0.11653217735E+04 -0.63340462510E+03 -0.95386765458E+03  0.16337196079E+04  0.00000000000E+00 0.  1.
        -15    1    5    5    0    0 -0.11365090289E+03 -0.15358709252E+03 -0.15927715240E+03  0.24874632458E+03  0.00000000000E+00 0. -1.
         15    1    4    4    0    0 -0.84647092908E+02  0.11102096089E+03 -0.18131341687E+03  0.22883474219E+03  0.00000000000E+00 0. -1.
         15    1    5    5    0    0 -0.49073305075E+02 -0.12823642790E+01 -0.20421686103E+02  0.53168402199E+02  0.00000000000E+00 0.  1.
        -16    1    4    4    0    0 -0.32712876199E+03  0.32687334612E+03 -0.84205780486E+03  0.96068764854E+03  0.00000000000E+00 0.  1.
         16    1    1    2    0    0 -0.58738002887E+03  0.38742000226E+03  0.11629139894E+04  0.13592198142E+04  0.00000000000E+00 0. -1.
    9900018    1    1    2    0    0 -0.34416817737E+01 -0.37040227371E+02 -0.14763082529E+03  0.17746510245E+03  0.91187600000E+02 0.  0.
<mgrwt>
<rscale>  0 0.45198885E+04</rscale>
<asrwt>0</asrwt>
<pdfrwt beam="1">  1        2 0.27078363E+00 0.45198885E+04</pdfrwt>
<pdfrwt beam="2">  1       -2 0.44642278E+00 0.45198885E+04</pdfrwt>
<totfact> 0.25209159E-02</totfact>
</mgrwt>
</event>
<event>
12    1  0.2039668E-012  0.2579999E+04  0.7818608E-02  0.8375027E-01
          2   -1    0    0  501    0  0.00000000000E+00  0.00000000000E+00  0.31839426970E+04  0.31839426970E+04  0.00000000000E+00 0. -1.
         -2   -1    0    0    0  501 -0.00000000000E+00 -0.00000000000E+00 -0.52265354239E+03  0.52265354239E+03  0.00000000000E+00 0.  1.
    9900016    2    1    2    0    0  0.16947486143E+03  0.18869027293E+03  0.21886414298E+04  0.30816733813E+04  0.21545843620E+04 0.  0.
        -24    2    3    3    0    0  0.70378226003E+03  0.67897762020E+03  0.73210824310E+03  0.12241633861E+04  0.79205037662E+02 0.  0.
         23    2    3    3    0    0  0.11944827301E+03 -0.13548732791E+03 -0.21129459225E+02  0.20319248426E+03  0.90642295134E+02 0.  0.
        -15    1    3    3    0    0 -0.65375567161E+03 -0.35480001936E+03  0.14776626459E+04  0.16543175110E+04  0.00000000000E+00 0.  1.
        -15    1    5    5    0    0  0.56552198118E+02 -0.63878466029E+02  0.35414314104E+02  0.92373065217E+02  0.00000000000E+00 0.  1.
         15    1    5    5    0    0  0.62896074888E+02 -0.71608861877E+02 -0.56543773329E+02  0.11081941905E+03  0.00000000000E+00 0. -1.
         15    1    4    4    0    0  0.20279170802E+03  0.15860684827E+03  0.16481624723E+03  0.30568775656E+03  0.00000000000E+00 0. -1.
        -16    1    4    4    0    0  0.50099055201E+03  0.52037077193E+03  0.56729199587E+03  0.91847562954E+03  0.00000000000E+00 0.  1.
         16    1    1    2    0    0 -0.18542309138E+03 -0.23292147420E+03  0.40249341270E+03  0.50063468041E+03  0.00000000000E+00 0. -1.
    9900018    1    1    2    0    0  0.15948229951E+02  0.44231201270E+02  0.70154312135E+02  0.12428817767E+03  0.91187600000E+02 0.  0.
<mgrwt>
<rscale>  0 0.25799992E+04</rscale>
<asrwt>0</asrwt>
<pdfrwt beam="1">  1        2 0.48983732E+00 0.25799992E+04</pdfrwt>
<pdfrwt beam="2">  1       -2 0.80408240E-01 0.25799992E+04</pdfrwt>
<totfact> 0.16087176E+00</totfact>
</mgrwt>
</event>
<event>
12    1  0.2039668E-012  0.2823053E+04  0.7818608E-02  0.8296147E-01
          2   -1    0    0  501    0  0.00000000000E+00  0.00000000000E+00  0.16936793787E+04  0.16936793787E+04  0.00000000000E+00 0. -1.
         -2   -1    0    0    0  501 -0.00000000000E+00 -0.00000000000E+00 -0.11763776658E+04  0.11763776658E+04  0.00000000000E+00 0.  1.
    9900016    2    1    2    0    0  0.52088341329E+03  0.68415904526E+02  0.43150994908E+03  0.23377408857E+04  0.22367009962E+04 0.  0.
        -24    2    3    3    0    0 -0.49340454992E+03 -0.13326025960E+03  0.77116001219E+03  0.92854579249E+03  0.79392554327E+02 0.  0.
         23    2    3    3    0    0 -0.56869585060E+02  0.23717334658E+02  0.81743818080E+02  0.13670039454E+03  0.90599582812E+02 0.  0.
        -15    1    5    5    0    0 -0.34918634124E+02  0.52350944716E+02  0.21538371331E+02  0.66511907666E+02  0.00000000000E+00 0.  1.
        -15    1    3    3    0    0  0.10560612377E+04  0.18241525220E+03 -0.46735716963E+03  0.11691720943E+04  0.00000000000E+00 0.  1.
         15    1    5    5    0    0 -0.21950950936E+02 -0.28633610058E+02  0.60205446748E+02  0.70188486877E+02  0.00000000000E+00 0. -1.
         15    1    4    4    0    0 -0.27047858003E+03 -0.80770618088E+02  0.49444366177E+03  0.56934795131E+03  0.00000000000E+00 0. -1.
        -16    1    4    4    0    0 -0.22292596988E+03 -0.52489641508E+02  0.27671635043E+03  0.35919784118E+03  0.00000000000E+00 0.  1.
         16    1    1    2    0    0 -0.52088341329E+03 -0.68415904526E+02  0.85791763822E+02  0.53231615885E+03  0.00000000000E+00 0. -1.
    9900018    1    3    3    0    0  0.15096310540E+02 -0.44564227387E+01  0.45963288432E+02  0.10332260437E+03  0.91187600000E+02 0.  0.
<mgrwt>
<rscale>  0 0.28230527E+04</rscale>
<asrwt>0</asrwt>
<pdfrwt beam="1">  1        2 0.26056606E+00 0.28230527E+04</pdfrwt>
<pdfrwt beam="2">  1       -2 0.18098118E+00 0.28230527E+04</pdfrwt>
<totfact> 0.15331422E+00</totfact>
</mgrwt>
</event>
<event>
12    1  0.2039668E-012  0.2932643E+04  0.7818608E-02  0.8263231E-01
         -2   -1    0    0    0  501 -0.00000000000E+00  0.00000000000E+00  0.11997106744E+04  0.11997106744E+04  0.00000000000E+00 0.  1.
          2   -1    0    0  501    0  0.00000000000E+00 -0.00000000000E+00 -0.17921813437E+04  0.17921813437E+04  0.00000000000E+00 0. -1.
    9900016    2    1    2    0    0  0.48911176334E+03 -0.27637578724E+03 -0.45971820548E+03  0.22739139376E+04  0.21549315242E+04 0.  0.
         24    2    3    3    0    0 -0.21703752413E+03 -0.63719635689E+02  0.38240622851E+03  0.45089631356E+03  0.76860153015E+02 0.  0.
         23    2    3    3    0    0  0.19741223740E+03 -0.37167134109E+03  0.32529666928E+03  0.53967384737E+03  0.91207243293E+02 0.  0.
        -15    1    5    5    0    0  0.15314842784E+03 -0.21317444095E+03  0.23309445631E+03  0.35104246009E+03  0.00000000000E+00 0. -1.
        -15    1    4    4    0    0 -0.94938842820E+02 -0.67899198642E+02  0.18491341943E+03  0.21867020313E+03  0.00000000000E+00 0.  1.
         15    1    3    3    0    0  0.50873705008E+03  0.15901518954E+03 -0.11674211033E+04  0.12833437766E+04  0.00000000000E+00 0. -1.
         15    1    5    5    0    0  0.44263809558E+02 -0.15849690014E+03  0.92202212974E+02  0.18863138728E+03  0.00000000000E+00 0.  1.
        -16    1    1    2    0    0 -0.53934879703E+03  0.26424421583E+03 -0.11881107464E+03  0.61224031386E+03  0.00000000000E+00 0.  1.
         16    1    4    4    0    0 -0.12209868131E+03  0.41795629533E+01  0.19749280908E+03  0.23222611043E+03  0.00000000000E+00 0. -1.
    9900018    1    1    2    0    0  0.50237033691E+02  0.12131571414E+02 -0.13941389236E+02  0.10573776670E+03  0.91187600000E+02 0.  0.
<mgrwt>
<rscale>  0 0.29326432E+04</rscale>
<asrwt>0</asrwt>
<pdfrwt beam="1">  1        2 0.27572021E+00 0.29326432E+04</pdfrwt>
<pdfrwt beam="2">  1       -2 0.18457087E+00 0.29326432E+04</pdfrwt>
<totfact> 0.12656199E+00</totfact>
</mgrwt>
</event>
<event>
12    1  0.2039668E-012  0.2668439E+04  0.7818608E-02  0.8345319E-01
         -2   -1    0    0    0  501 -0.00000000000E+00  0.00000000000E+00  0.53514079772E+03  0.53514079772E+03  0.00000000000E+00 0.  1.
          2   -1    0    0  501    0  0.00000000000E+00 -0.00000000000E+00 -0.33264923284E+04  0.33264923284E+04  0.00000000000E+00 0. -1.
    9900016    2    1    2    0    0 -0.84458354747E+02 -0.10573502368E+03 -0.18687963544E+04  0.28484520977E+04  0.21454525000E+04 0.  0.
        -24    2    3    3    0    0  0.63291899366E+03 -0.74112433081E+03 -0.12545457351E+04  0.15905831130E+04  0.78853734993E+02 0.  0.
         23    2    3    3    0    0  0.63766175168E+02  0.61834454730E+02 -0.60955351038E+02  0.14194514009E+03  0.92429665633E+02 0.  0.
        -15    1    3    3    0    0 -0.78114352358E+03  0.57355485240E+03 -0.55329526818E+03  0.11159238446E+04  0.00000000000E+00 0.  1.
        -15    1    5    5    0    0 -0.81058185350E+01  0.11092794513E+02 -0.51684146078E+02  0.53479017755E+02  0.00000000000E+00 0. -1.
         15    1    5    5    0    0  0.71871993702E+02  0.50741660217E+02 -0.92712049601E+01  0.88466122339E+02  0.00000000000E+00 0.  1.
         15    1    4    4    0    0  0.27099744895E+03 -0.37795535334E+03 -0.59545746575E+03  0.75555242040E+03  0.00000000000E+00 0. -1.
        -16    1    4    4    0    0  0.36192154471E+03 -0.36316897747E+03 -0.65908826939E+03  0.83503069259E+03  0.00000000000E+00 0.  1.
         16    1    1    2    0    0  0.85119106308E+02  0.14152443487E+03 -0.89681437735E+03  0.91189388381E+03  0.00000000000E+00 0. -1.
    9900018    1    1    2    0    0 -0.66075156024E+00 -0.35789411194E+02 -0.25740799009E+02  0.10128714466E+03  0.91187600000E+02 0.  0.
<mgrwt>
<rscale>  0 0.26684391E+04</rscale>
<asrwt>0</asrwt>
<pdfrwt beam="1">  1        2 0.51176805E+00 0.26684391E+04</pdfrwt>
<pdfrwt beam="2">  1       -2 0.82329354E-01 0.26684391E+04</pdfrwt>
<totfact> 0.12185432E+00</totfact>
</mgrwt>
</event>
<event>
12    1  0.2300315E-012  0.3187590E+04  0.7818608E-02  0.8192102E-01
         -1   -1    0    0    0  501 -0.00000000000E+00  0.00000000000E+00  0.32133578858E+04  0.32133578858E+04  0.00000000000E+00 0.  1.
          1   -1    0    0  501    0  0.00000000000E+00 -0.00000000000E+00 -0.79050709214E+03  0.79050709214E+03  0.00000000000E+00 0. -1.
    9900016    2    1    2    0    0 -0.75977284799E+03 -0.87208777942E+02  0.15288450049E+04  0.28273844206E+04  0.22520824722E+04 0.  0.
        -24    2    3    3    0    0  0.49184544754E+03  0.57704591075E+03  0.33283621734E+03  0.83198998659E+03  0.80829838731E+02 0.  0.
         23    2    3    3    0    0 -0.23132011830E+03  0.26587513945E+02  0.36521570060E+03  0.44323048713E+03  0.94100285519E+02 0.  0.
        -15    1    3    3    0    0 -0.94761498933E+03 -0.71513050334E+03  0.71400218401E+03  0.13853464995E+04  0.00000000000E+00 0.  1.
        -15    1    5    5    0    0 -0.11149597356E+03  0.33341733796E+01  0.25677903138E+03  0.27996060400E+03  0.00000000000E+00 0.  1.
         15    1    5    5    0    0 -0.11982414473E+03  0.23253340565E+02  0.10843666922E+03  0.16326988314E+03  0.00000000000E+00 0. -1.
         15    1    4    4    0    0  0.44300498372E+03  0.51158828449E+03  0.32254307503E+03  0.74967327796E+03  0.00000000000E+00 0. -1.
        -16    1    4    4    0    0  0.48840463813E+02  0.65457626262E+02  0.10293142312E+02  0.82316708632E+02  0.00000000000E+00 0.  1.
         16    1    1    2    0    0  0.75977284799E+03  0.87208777942E+02  0.89400578875E+03  0.11764805573E+04  0.00000000000E+00 0. -1.
    9900018    1    3    3    0    0 -0.72683187896E+02  0.24288300702E+02  0.11679090299E+03  0.16681744744E+03  0.91187600000E+02 0.  0.
<mgrwt>
<rscale>  0 0.31875898E+04</rscale>
<asrwt>0</asrwt>
<pdfrwt beam="1">  1        1 0.12161648E+00 0.31875898E+04</pdfrwt>
<pdfrwt beam="2">  1       -1 0.49436274E+00 0.31875898E+04</pdfrwt>
<totfact> 0.30546114E-02</totfact>
</mgrwt>
</event>
<event>
12    1  0.2039668E-012  0.4013997E+04  0.7818608E-02  0.8001729E-01
         -2   -1    0    0    0  501 -0.00000000000E+00  0.00000000000E+00  0.15234271199E+04  0.15234271199E+04  0.00000000000E+00 0.  1.
          2   -1    0    0  501    0  0.00000000000E+00 -0.00000000000E+00 -0.26440664810E+04  0.26440664810E+04  0.00000000000E+00 0. -1.
    9900016    2    1    2    0    0 -0.17516556549E+03 -0.46232677502E+03  0.56172118460E+03  0.22854132043E+04  0.21594336765E+04 0.  0.
        -24    2    3    3    0    0  0.74443399471E+03 -0.33542611208E+03 -0.48605122290E+02  0.82186368329E+03  0.80030037198E+02 0.  0.
         23    2    3    3    0    0  0.16803525723E+03  0.76672484814E+02  0.15028181128E+02  0.20705782545E+03  0.92371961382E+02 0.  0.
        -15    1    5    5    0    0  0.97438994418E+02  0.13283821742E+02  0.44170182956E+02  0.10780455749E+03  0.00000000000E+00 0.  1.
        -15    1    3    3    0    0 -0.10876348174E+04 -0.20357314775E+03  0.59529812576E+03  0.12564916956E+04  0.00000000000E+00 0.  1.
         15    1    4    4    0    0  0.55298380018E+03 -0.21128584542E+03 -0.25518943480E+02  0.59252342419E+03  0.00000000000E+00 0. -1.
         15    1    5    5    0    0  0.70596262817E+02  0.63388663071E+02 -0.29142001828E+02  0.99253267957E+02  0.00000000000E+00 0. -1.
        -16    1    4    4    0    0  0.19145019453E+03 -0.12414026667E+03 -0.23086178810E+02  0.22934025910E+03  0.00000000000E+00 0.  1.
         16    1    1    2    0    0  0.18751098561E+03  0.43799810725E+03 -0.17161652098E+04  0.17810743216E+04  0.00000000000E+00 0. -1.
    9900018    1    1    2    0    0 -0.12345420116E+02  0.24328667774E+02  0.33804664065E+02  0.10100607496E+03  0.91187600000E+02 0.  0.
<mgrwt>
<rscale>  0 0.40139968E+04</rscale>
<asrwt>0</asrwt>
<pdfrwt beam="1">  1        2 0.40677945E+00 0.40139968E+04</pdfrwt>
<pdfrwt beam="2">  1       -2 0.23437341E+00 0.40139968E+04</pdfrwt>
<totfact> 0.18133060E-01</totfact>
</mgrwt>
</event>
<event>
12    1  0.2039668E-012  0.3026722E+04  0.7818608E-02  0.8236141E-01
          1   -1    0    0  501    0  0.00000000000E+00  0.00000000000E+00  0.28247481970E+04  0.28247481970E+04  0.00000000000E+00 0. -1.
         -1   -1    0    0    0  501 -0.00000000000E+00 -0.00000000000E+00 -0.81078424089E+03  0.81078424089E+03  0.00000000000E+00 0.  1.
    9900016    2    1    2    0    0  0.52955759723E+03  0.39504719873E+03  0.12833777438E+04  0.25890397154E+04  0.21493195845E+04 0.  0.
        -24    2    3    3    0    0  0.49797261393E+03  0.85741855893E+03  0.17458035426E+03  0.10099243715E+04  0.79533808583E+02 0.  0.
         23    2    3    3    0    0 -0.33875932335E+03 -0.54396327015E+03  0.36307757956E+03  0.74250899656E+03  0.94023203384E+02 0.  0.
        -15    1    5    5    0    0 -0.45980927193E+02 -0.52764467647E+02  0.73649863012E+02  0.10160037910E+03  0.00000000000E+00 0. -1.
        -15    1    3    3    0    0  0.37034430665E+03  0.81591909949E+02  0.74571981001E+03  0.83660634726E+03  0.00000000000E+00 0.  1.
         15    1    4    4    0    0  0.19376594875E+03  0.39150648816E+03  0.10393144305E+03  0.44902596586E+03  0.00000000000E+00 0. -1.
         15    1    5    5    0    0 -0.29277839615E+03 -0.49119880250E+03  0.28942771655E+03  0.64090861746E+03  0.00000000000E+00 0.  1.
        -16    1    4    4    0    0  0.30420666518E+03  0.46591207077E+03  0.70648911207E+02  0.56089840567E+03  0.00000000000E+00 0.  1.
         16    1    1    2    0    0 -0.49778596270E+03 -0.40944847776E+03  0.67847312306E+03  0.93582300640E+03  0.00000000000E+00 0. -1.
    9900018    1    1    2    0    0 -0.31771634530E+02  0.14401279028E+02  0.52113089182E+02  0.11066971608E+03  0.91187600000E+02 0.  0.
<mgrwt>
<rscale>  0 0.30267219E+04</rscale>
<asrwt>0</asrwt>
<pdfrwt beam="1">  1        1 0.43457664E+00 0.30267219E+04</pdfrwt>
<pdfrwt beam="2">  1       -1 0.12473604E+00 0.30267219E+04</pdfrwt>
<totfact> 0.38197896E-01</totfact>
</mgrwt>
</event>
<event>
12    1  0.2039668E-012  0.2852971E+04  0.7818608E-02  0.8287009E-01
         -2   -1    0    0    0  501 -0.00000000000E+00  0.00000000000E+00  0.59506294142E+03  0.59506294142E+03  0.00000000000E+00 0.  1.
          2   -1    0    0  501    0  0.00000000000E+00 -0.00000000000E+00 -0.34195715638E+04  0.34195715638E+04  0.00000000000E+00 0. -1.
    9900016    2    1    2    0    0  0.46974800195E+03  0.20768531387E+03 -0.25173583979E+04  0.34161884882E+04  0.22515448270E+04 0.  0.
         24    2    3    3    0    0  0.85522207082E+03  0.48959866286E+03 -0.14166332358E+04  0.17275889835E+04  0.81254722875E+02 0.  0.
         23    2    3    3    0    0 -0.67067227718E+03 -0.33948705853E+03 -0.30361796281E+03  0.81603888801E+03  0.93181720971E+02 0.  0.
        -15    1    5    5    0    0 -0.63501454465E+03 -0.32034979959E+03 -0.26193573777E+03  0.75794313556E+03  0.00000000000E+00 0.  1.
        -15    1    4    4    0    0  0.12511779718E+03  0.55009958696E+02 -0.24102798112E+03  0.27708310380E+03  0.00000000000E+00 0.  1.
         15    1    3    3    0    0  0.20477182773E+03  0.54201719551E+02 -0.63826268710E+03  0.67249430152E+03  0.00000000000E+00 0. -1.
         15    1    5    5    0    0 -0.35657732526E+02 -0.19137258931E+02 -0.41682225049E+02  0.58095752455E+02  0.00000000000E+00 0. -1.
        -16    1    1    2    0    0 -0.46974800195E+03 -0.20768531387E+03 -0.30715022446E+03  0.59844601705E+03  0.00000000000E+00 0.  1.
         16    1    4    4    0    0  0.73010427365E+03  0.43458870416E+03 -0.11756052547E+04  0.14505058797E+04  0.00000000000E+00 0. -1.
    9900018    1    3    3    0    0  0.80426380572E+02  0.33719899847E+01 -0.15884451218E+03  0.20006631514E+03  0.91187600000E+02 0.  0.
<mgrwt>
<rscale>  0 0.28529706E+04</rscale>
<asrwt>0</asrwt>
<pdfrwt beam="1">  1        2 0.52608792E+00 0.28529706E+04</pdfrwt>
<pdfrwt beam="2">  1       -2 0.91548147E-01 0.28529706E+04</pdfrwt>
<totfact> 0.81332110E-01</totfact>
</mgrwt>
</event>
<event>
12    1  0.2039668E-012  0.2888022E+04  0.7818608E-02  0.8276450E-01
          2   -1    0    0  501    0  0.00000000000E+00  0.00000000000E+00  0.14806336823E+04  0.14806336823E+04  0.00000000000E+00 0.  1.
         -2   -1    0    0    0  501 -0.00000000000E+00 -0.00000000000E+00 -0.14082938768E+04  0.14082938768E+04  0.00000000000E+00 0. -1.
    9900016    2    1    2    0    0  0.50815000853E+03 -0.14730404087E+03  0.24510259522E+03  0.23323649901E+04  0.22583038444E+04 0.  0.
        -24    2    3    3    0    0  0.53181209865E+03 -0.50372785208E+03  0.81379521289E+03  0.10977662479E+04  0.79134248419E+02 0.  0.
         23    2    3    3    0    0 -0.31689354439E+03  0.10341977949E+03 -0.59843847614E+03  0.69117290826E+03  0.92055473100E+02 0.  0.
        -15    1    3    3    0    0  0.28960246549E+03  0.30064646370E+03 -0.39576639520E+02  0.41931395701E+03  0.00000000000E+00 0.  1.
        -15    1    5    5    0    0 -0.16915985013E+03  0.48100021456E+02 -0.40520850686E+03  0.44172683979E+03  0.00000000000E+00 0. -1.
         15    1    5    5    0    0 -0.14773369426E+03  0.55319758035E+02 -0.19322996928E+03  0.24944606847E+03  0.00000000000E+00 0.  1.
         15    1    4    4    0    0  0.14632415024E+03 -0.13568812428E+03  0.17134649637E+03  0.26302404041E+03  0.00000000000E+00 0. -1.
        -16    1    4    4    0    0  0.38548794841E+03 -0.36803972780E+03  0.64244871653E+03  0.83474220750E+03  0.00000000000E+00 0.  1.
         16    1    1    2    0    0 -0.50815000853E+03  0.14730404087E+03 -0.17276278978E+03  0.55656256895E+03  0.00000000000E+00 0. -1.
    9900018    1    3    3    0    0  0.36289887775E+01 -0.47642431981E+02  0.69322497987E+02  0.12411187697E+03  0.91187600000E+02 0.  0.
<mgrwt>
<rscale>  0 0.28880217E+04</rscale>
<asrwt>0</asrwt>
<pdfrwt beam="1">  1        2 0.22778980E+00 0.28880217E+04</pdfrwt>
<pdfrwt beam="2">  1       -2 0.21666060E+00 0.28880217E+04</pdfrwt>
<totfact> 0.11673279E+00</totfact>
</mgrwt>
</event>
<event>
12    1  0.2039668E-012  0.2502955E+04  0.7818608E-02  0.8401934E-01
         -1   -1    0    0    0  501 -0.00000000000E+00  0.00000000000E+00  0.73165780473E+03  0.73165780473E+03  0.00000000000E+00 0.  1.
          1   -1    0    0  501    0  0.00000000000E+00 -0.00000000000E+00 -0.21406119787E+04  0.21406119787E+04  0.00000000000E+00 0. -1.
    9900016    2    1    2    0    0 -0.16016901776E+03  0.89026248397E+02 -0.13978277213E+04  0.25804093230E+04  0.21612519864E+04 0.  0.
         24    2    3    3    0    0 -0.42389660624E+03  0.90583684789E+03 -0.14558558106E+03  0.10138503544E+04  0.80427929849E+02 0.  0.
         23    2    3    3    0    0  0.29158830673E+03 -0.38633028543E+03 -0.81504555339E+03  0.95236813833E+03  0.91820404800E+02 0.  0.
        -15    1    4    4    0    0 -0.22216640607E+03  0.55506889041E+03 -0.10696150066E+03  0.60737150716E+03  0.00000000000E+00 0.  1.
        -15    1    5    5    0    0  0.92994497160E+02 -0.10939565379E+03 -0.16742970257E+03  0.22056312220E+03  0.00000000000E+00 0.  1.
         15    1    5    5    0    0  0.19859380957E+03 -0.27693463163E+03 -0.64761585082E+03  0.73180501613E+03  0.00000000000E+00 0. -1.
         15    1    3    3    0    0 -0.27860718260E+02 -0.43048031407E+03 -0.43719658686E+03  0.61419083027E+03  0.00000000000E+00 0. -1.
        -16    1    1    2    0    0  0.14957361679E+03 -0.75453751960E+02  0.56759179529E+02  0.17688171184E+03  0.00000000000E+00 0.  1.
         16    1    4    4    0    0 -0.20173020017E+03  0.35076795748E+03 -0.38624080395E+02  0.40647884723E+03  0.00000000000E+00 0. -1.
    9900018    1    1    2    0    0  0.10595400977E+02 -0.13572496437E+02 -0.67885632203E+02  0.11497874862E+03  0.91187600000E+02 0.  0.
<mgrwt>
<rscale>  0 0.25029546E+04</rscale>
<asrwt>0</asrwt>
<pdfrwt beam="1">  1        1 0.32932492E+00 0.25029546E+04</pdfrwt>
<pdfrwt beam="2">  1       -1 0.11256274E+00 0.25029546E+04</pdfrwt>
<totfact> 0.15342218E+00</totfact>
</mgrwt>
</event>
<event>
12    1  0.2550307E-012  0.3260527E+04  0.7818608E-02  0.8173012E-01
         -1   -1    0    0    0  501 -0.00000000000E+00  0.00000000000E+00  0.34700786073E+04  0.34700786073E+04  0.00000000000E+00 0.  1.
          1   -1    0    0  501    0  0.00000000000E+00 -0.00000000000E+00 -0.76590759202E+03  0.76590759202E+03  0.00000000000E+00 0. -1.
    9900016    2    1    2    0    0  0.90017295602E+01 -0.85297103001E+03  0.21087705194E+04  0.31957254821E+04  0.22445729314E+04 0.  0.
        -24    2    3    3    0    0  0.92396171595E+02 -0.14610304157E+04  0.12223661467E+04  0.19088398073E+04  0.79645999599E+02 0.  0.
         23    2    3    3    0    0  0.44574750923E+02  0.20792630795E+03  0.61923544469E+03  0.66112679529E+03  0.91737917622E+02 0.  0.
        -15    1    3    3    0    0 -0.13451625704E+03  0.43335115434E+03  0.16025184503E+03  0.48121564834E+03  0.00000000000E+00 0.  1.
        -15    1    5    5    0    0  0.13246641044E+02  0.19178960207E+03  0.56136401749E+03  0.59337027655E+03  0.00000000000E+00 0. -1.
         15    1    4    4    0    0  0.99216876359E+02 -0.98016605780E+03  0.81600708505E+03  0.12792329937E+04  0.00000000000E+00 0. -1.
         15    1    5    5    0    0  0.31328109880E+02  0.16136705886E+02  0.57871427199E+02  0.67756518738E+02  0.00000000000E+00 0.  1.
        -16    1    4    4    0    0 -0.68207047633E+01 -0.48086435789E+03  0.40635906166E+03  0.62960681357E+03  0.00000000000E+00 0.  1.
         16    1    1    2    0    0 -0.90017295602E+01  0.85297103001E+03  0.59540049587E+03  0.10402607172E+04  0.00000000000E+00 0. -1.
    9900018    1    3    3    0    0  0.65470640778E+01 -0.33218076625E+02  0.10691708293E+03  0.14454323118E+03  0.91187600000E+02 0.  0.
<mgrwt>
<rscale>  0 0.32605273E+04</rscale>
<asrwt>0</asrwt>
<pdfrwt beam="1">  1        1 0.11783194E+00 0.32605273E+04</pdfrwt>
<pdfrwt beam="2">  1       -1 0.53385824E+00 0.32605273E+04</pdfrwt>
<totfact> 0.18143679E-02</totfact>
</mgrwt>
</event>
<event>
12    1  0.2039668E-012  0.2833716E+04  0.7818608E-02  0.8292877E-01
         -1   -1    0    0    0  501 -0.00000000000E+00  0.00000000000E+00  0.14983219970E+04  0.14983219970E+04  0.00000000000E+00 0.  1.
          1   -1    0    0  501    0  0.00000000000E+00 -0.00000000000E+00 -0.13398235045E+04  0.13398235045E+04  0.00000000000E+00 0. -1.
    9900016    2    1    2    0    0 -0.39090835351E+03  0.13683412823E+03 -0.12014001247E+03  0.21927954085E+04  0.21499732932E+04 0.  0.
         24    2    3    3    0    0 -0.26177253904E+03  0.79031672506E+03  0.31699995148E+03  0.89452105946E+03  0.80954113370E+02 0.  0.
         23    2    3    3    0    0 -0.37619715852E+02  0.16946661840E+03 -0.42756007965E+03  0.47019682768E+03  0.90239998218E+02 0.  0.
        -15    1    5    5    0    0  0.21272782099E+02  0.45323621458E+02 -0.18251263086E+03  0.18925544204E+03  0.00000000000E+00 0.  1.
        -15    1    4    4    0    0 -0.15347458827E+03  0.34712585958E+03  0.16215849375E+03  0.41273016455E+03  0.00000000000E+00 0.  1.
         15    1    3    3    0    0 -0.91516098619E+02 -0.82294921523E+03 -0.95798843037E+01  0.82807752133E+03  0.00000000000E+00 0. -1.
         15    1    5    5    0    0 -0.58892497952E+02  0.12414299694E+03 -0.24504744879E+03  0.28094138564E+03  0.00000000000E+00 0. -1.
        -16    1    1    2    0    0  0.42885263536E+03 -0.95511883950E+02  0.30529814958E+03  0.53501781556E+03  0.00000000000E+00 0.  1.
         16    1    4    4    0    0 -0.10829795077E+03  0.44319086548E+03  0.15484145774E+03  0.48179089492E+03  0.00000000000E+00 0. -1.
    9900018    1    1    2    0    0 -0.37944281849E+02 -0.41322244276E+02 -0.26659644640E+02  0.11033227743E+03  0.91187600000E+02 0.  0.
<mgrwt>
<rscale>  0 0.28337163E+04</rscale>
<asrwt>0</asrwt>
<pdfrwt beam="1">  1        1 0.20612669E+00 0.28337163E+04</pdfrwt>
<pdfrwt beam="2">  1       -1 0.23051108E+00 0.28337163E+04</pdfrwt>
<totfact> 0.68505200E-01</totfact>
</mgrwt>
</event>
<event>
12    1  0.2039668E-012  0.2740436E+04  0.7818608E-02  0.8322003E-01
          2   -1    0    0  501    0  0.00000000000E+00  0.00000000000E+00  0.18353384275E+04  0.18353384275E+04  0.00000000000E+00 0. -1.
         -2   -1    0    0    0  501 -0.00000000000E+00 -0.00000000000E+00 -0.10229703196E+04  0.10229703196E+04  0.00000000000E+00 0.  1.
    9900016    2    1    2    0    0 -0.36728684925E+03  0.19526601788E+03  0.72985107318E+03  0.23087812249E+04  0.21505254493E+04 0.  0.
         24    2    3    3    0    0 -0.49147955660E+03  0.76808362060E+03 -0.25491207009E+03  0.95030125101E+03  0.81164656214E+02 0.  0.
         23    2    3    3    0    0 -0.28994143244E+03 -0.13452565429E+03  0.37965371510E+03  0.50421752129E+03  0.89079624402E+02 0.  0.
        -15    1    5    5    0    0 -0.97193157743E+02 -0.79139223581E+00  0.11342192217E+03  0.14937090962E+03  0.00000000000E+00 0. -1.
        -15    1    4    4    0    0 -0.19364803812E+03  0.28969050674E+03 -0.13792831563E+03  0.37475908610E+03  0.00000000000E+00 0.  1.
         15    1    3    3    0    0  0.41413413978E+03 -0.43829194843E+03  0.60510942818E+03  0.85426245256E+03  0.00000000000E+00 0. -1.
         15    1    5    5    0    0 -0.19274827469E+03 -0.13373426205E+03  0.26623179293E+03  0.35484661167E+03  0.00000000000E+00 0.  1.
        -16    1    1    2    0    0  0.36437490215E+03 -0.21861007144E+03  0.92371230810E+00  0.42492385894E+03  0.00000000000E+00 0.  1.
         16    1    4    4    0    0 -0.29783151848E+03  0.47839311386E+03 -0.11698375446E+03  0.57554216491E+03  0.00000000000E+00 0. -1.
    9900018    1    1    2    0    0  0.29119471020E+01  0.23344053564E+02  0.81593322390E+02  0.12460366337E+03  0.91187600000E+02 0.  0.
<mgrwt>
<rscale>  0 0.27404355E+04</rscale>
<asrwt>0</asrwt>
<pdfrwt beam="1">  1        2 0.28235976E+00 0.27404355E+04</pdfrwt>
<pdfrwt beam="2">  1       -2 0.15738005E+00 0.27404355E+04</pdfrwt>
<totfact> 0.19002237E+00</totfact>
</mgrwt>
</event>
<event>
12    1  0.2039668E-012  0.2567117E+04  0.7818608E-02  0.8379457E-01
          4   -1    0    0  501    0  0.00000000000E+00  0.00000000000E+00  0.25885035400E+04  0.25885035400E+04  0.00000000000E+00 0. -1.
         -4   -1    0    0    0  501 -0.00000000000E+00 -0.00000000000E+00 -0.63647665084E+03  0.63647665084E+03  0.00000000000E+00 0.  1.
    9900016    2    1    2    0    0  0.13294038578E+02 -0.35080737369E+02  0.13631652115E+04  0.26349247146E+04  0.22545956330E+04 0.  0.
        -24    2    3    3    0    0 -0.17028612923E+03 -0.65400034226E+03  0.37290312062E+03  0.77574242182E+03  0.77496800965E+02 0.  0.
         23    2    3    3    0    0  0.25466175952E+03  0.21956260032E+03 -0.28484662234E+03  0.44985882691E+03  0.90415809841E+02 0.  0.
        -15    1    3    3    0    0 -0.29657079376E+02  0.36638360522E+03  0.12472121853E+04  0.13002517924E+04  0.00000000000E+00 0.  1.
        -15    1    5    5    0    0  0.10303023381E+03  0.13207905120E+03 -0.99150645415E+02  0.19465599228E+03  0.00000000000E+00 0. -1.
         15    1    5    5    0    0  0.15163152571E+03  0.87483549115E+02 -0.18569597692E+03  0.25520283463E+03  0.00000000000E+00 0.  1.
         15    1    4    4    0    0 -0.87548750539E+02 -0.43544413411E+03  0.27479146620E+03  0.52228988842E+03  0.00000000000E+00 0. -1.
        -16    1    4    4    0    0 -0.82737378689E+02 -0.21855620815E+03  0.98111654427E+02  0.25345253340E+03  0.00000000000E+00 0.  1.
         16    1    1    2    0    0 -0.13294038578E+02  0.35080737369E+02  0.58886167761E+03  0.59005547617E+03  0.00000000000E+00 0. -1.
    9900018    1    3    3    0    0 -0.41424512342E+02  0.32973399347E+02  0.27896527897E+02  0.10907167345E+03  0.91187600000E+02 0.  0.
<mgrwt>
<rscale>  0 0.25671167E+04</rscale>
<asrwt>0</asrwt>
<pdfrwt beam="1">  1        4 0.39823131E+00 0.25671167E+04</pdfrwt>
<pdfrwt beam="2">  1       -4 0.97919486E-01 0.25671167E+04</pdfrwt>
<totfact> 0.10769552E-02</totfact>
</mgrwt>
</event>
<event>
12    1  0.2039668E-012  0.2642887E+04  0.7818608E-02  0.8353778E-01
         -2   -1    0    0    0  501 -0.00000000000E+00  0.00000000000E+00  0.50592253535E+03  0.50592253535E+03  0.00000000000E+00 0.  1.
          2   -1    0    0  501    0  0.00000000000E+00 -0.00000000000E+00 -0.34515419512E+04  0.34515419512E+04  0.00000000000E+00 0. -1.
    9900016    2    1    2    0    0 -0.37590572389E+02  0.31284818452E+03 -0.22683037714E+04  0.31489528732E+04  0.21613456829E+04 0.  0.
        -24    2    3    3    0    0  0.30017334522E+03 -0.55160455130E+03 -0.55141947208E+03  0.83999169018E+03  0.84563509735E+02 0.  0.
         23    2    3    3    0    0 -0.32361358666E+03 -0.25595854332E+03 -0.44584689807E+03  0.61454159464E+03  0.92959053650E+02 0.  0.
        -15    1    3    3    0    0 -0.14150330943E+02  0.11204112791E+04 -0.12710374012E+04  0.16944195884E+04  0.00000000000E+00 0.  1.
        -15    1    5    5    0    0 -0.15670419611E+03 -0.71600526544E+02 -0.15372454274E+03  0.23089840953E+03  0.00000000000E+00 0. -1.
         15    1    5    5    0    0 -0.16690939055E+03 -0.18435801678E+03 -0.29212235532E+03  0.38364318511E+03  0.00000000000E+00 0.  1.
         15    1    4    4    0    0  0.50529588340E+02 -0.16592877626E+03 -0.17008571104E+03  0.24292951074E+03  0.00000000000E+00 0. -1.
        -16    1    4    4    0    0  0.24964375688E+03 -0.38567577504E+03 -0.38133376104E+03  0.59706217944E+03  0.00000000000E+00 0.  1.
         16    1    1    2    0    0  0.44295698327E+02 -0.32564086517E+03 -0.61444965534E+03  0.69681594479E+03  0.00000000000E+00 0. -1.
    9900018    1    1    2    0    0 -0.67051259382E+01  0.12792680656E+02 -0.62865989197E+02  0.11169566860E+03  0.91187600000E+02 0.  0.
<mgrwt>
<rscale>  0 0.26428869E+04</rscale>
<asrwt>0</asrwt>
<pdfrwt beam="1">  1        2 0.53100645E+00 0.26428869E+04</pdfrwt>
<pdfrwt beam="2">  1       -2 0.77834237E-01 0.26428869E+04</pdfrwt>
<totfact> 0.11390291E+00</totfact>
</mgrwt>
</event>
<event>
12    1  0.2039668E-012  0.3494021E+04  0.7818608E-02  0.8115208E-01
         -2   -1    0    0    0  501 -0.00000000000E+00  0.00000000000E+00  0.11608621441E+04  0.11608621441E+04  0.00000000000E+00 0. -1.
          2   -1    0    0  501    0  0.00000000000E+00 -0.00000000000E+00 -0.26291201845E+04  0.26291201845E+04  0.00000000000E+00 0.  1.
    9900016    2    1    2    0    0  0.67166894462E+03 -0.70720807998E+03 -0.11133144088E+04  0.26172327549E+04  0.21585077903E+04 0.  0.
        -24    2    3    3    0    0 -0.15205867781E+03  0.64258101041E+02 -0.21213111239E+03  0.28012975659E+03  0.78880457889E+02 0.  0.
         23    2    3    3    0    0 -0.50544168862E+03  0.15424384827E+02  0.60922463519E+02  0.51734056510E+03  0.90666981263E+02 0.  0.
        -15    1    3    3    0    0  0.13291693111E+04 -0.78689056584E+03 -0.96210575993E+03  0.18197624332E+04  0.00000000000E+00 0.  1.
        -15    1    5    5    0    0 -0.75666830567E+02  0.76187845818E+00  0.42795203571E+02  0.86933763036E+02  0.00000000000E+00 0.  1.
         15    1    5    5    0    0 -0.42977485806E+03  0.14662506369E+02  0.18127259948E+02  0.43040680207E+03  0.00000000000E+00 0. -1.
         15    1    4    4    0    0 -0.12913641383E+02  0.39136800268E+02 -0.40855461904E+02  0.58031198819E+02  0.00000000000E+00 0. -1.
        -16    1    4    4    0    0 -0.13914503643E+03  0.25121300773E+02 -0.17127565048E+03  0.22209855777E+03  0.00000000000E+00 0.  1.
         16    1    1    2    0    0 -0.71862527943E+03  0.71606587635E+03 -0.33022411837E+03  0.10668742193E+04  0.00000000000E+00 0. -1.
    9900018    1    1    2    0    0  0.46956334812E+02 -0.88577963722E+01 -0.24719513170E+02  0.10587535436E+03  0.91187600000E+02 0.  0.
<mgrwt>
<rscale>  0 0.34940212E+04</rscale>
<asrwt>0</asrwt>
<pdfrwt beam="1">  1        2 0.40448003E+00 0.34940212E+04</pdfrwt>
<pdfrwt beam="2">  1       -2 0.17859418E+00 0.34940212E+04</pdfrwt>
<totfact> 0.44588744E-01</totfact>
</mgrwt>
</event>
<event>
12    1  0.2039668E-012  0.3846189E+04  0.7818608E-02  0.8036315E-01
         -2   -1    0    0    0  501 -0.00000000000E+00  0.00000000000E+00  0.17618874856E+04  0.17618874856E+04  0.00000000000E+00 0.  1.
          2   -1    0    0  501    0  0.00000000000E+00 -0.00000000000E+00 -0.20990513602E+04  0.20990513602E+04  0.00000000000E+00 0. -1.
    9900016    2    1    2    0    0  0.20169408474E+03 -0.11155983270E+04 -0.80682152884E+03  0.26338209040E+04  0.22362494145E+04 0.  0.
         24    2    3    3    0    0  0.20144076321E+03 -0.36734509270E+03 -0.57605952695E+03  0.71647743410E+03  0.77295127730E+02 0.  0.
         23    2    3    3    0    0 -0.27240229299E+03  0.29089000602E+03  0.43546490695E+03  0.59751629751E+03  0.92606888407E+02 0.  0.
        -15    1    4    4    0    0  0.11584853899E+03 -0.13884761698E+03 -0.21897500572E+03  0.28398872840E+03  0.00000000000E+00 0.  1.
        -15    1    5    5    0    0 -0.13658874677E+03  0.17696922633E+03  0.30143689483E+03  0.37528495091E+03  0.00000000000E+00 0. -1.
         15    1    5    5    0    0 -0.13581354621E+03  0.11392077969E+03  0.13402801212E+03  0.22223134660E+03  0.00000000000E+00 0.  1.
         15    1    3    3    0    0  0.26508115136E+03 -0.10063983013E+04 -0.62714670301E+03  0.12150796454E+04  0.00000000000E+00 0. -1.
        -16    1    1    2    0    0 -0.20169408474E+03  0.11155983270E+04  0.46965765426E+03  0.12271179418E+04  0.00000000000E+00 0.  1.
         16    1    4    4    0    0  0.85592224217E+02 -0.22849747572E+03 -0.35708452122E+03  0.43248870569E+03  0.00000000000E+00 0. -1.
    9900018    1    3    3    0    0  0.75744631512E+01 -0.32744939036E+02 -0.39080205838E+02  0.10474752697E+03  0.91187600000E+02 0.  0.
<mgrwt>
<rscale>  0 0.38461889E+04</rscale>
<asrwt>0</asrwt>
<pdfrwt beam="1">  1        2 0.32293098E+00 0.38461889E+04</pdfrwt>
<pdfrwt beam="2">  1       -2 0.27105961E+00 0.38461889E+04</pdfrwt>
<totfact> 0.22440761E-01</totfact>
</mgrwt>
</event>
<event>
12    1  0.2039668E-012  0.3291877E+04  0.7818608E-02  0.8164965E-01
          1   -1    0    0  501    0  0.00000000000E+00  0.00000000000E+00  0.29209111092E+04  0.29209111092E+04  0.00000000000E+00 0. -1.
         -1   -1    0    0    0  501 -0.00000000000E+00 -0.00000000000E+00 -0.92748932991E+03  0.92748932991E+03  0.00000000000E+00 0.  1.
    9900016    2    1    2    0    0 -0.29699223100E+02  0.50320744472E+03  0.23050764974E+04  0.32557551492E+04  0.22433154384E+04 0.  0.
         24    2    3    3    0    0  0.80383408374E+02  0.96587433416E+02  0.19138372015E+03  0.24276994987E+03  0.80739677893E+02 0.  0.
         23    2    3    3    0    0  0.31437020498E+03 -0.66012397361E+03  0.25659431355E+03  0.78032275612E+03  0.92036273625E+02 0.  0.
        -15    1    4    4    0    0  0.96036144392E+02  0.71778411399E+02  0.15773824121E+03  0.19813236513E+03  0.00000000000E+00 0.  1.
        -15    1    5    5    0    0  0.44563582759E+01 -0.72053317183E+02  0.25565708711E+02  0.76584235376E+02  0.00000000000E+00 0. -1.
         15    1    5    5    0    0  0.30991384671E+03 -0.58807065643E+03  0.23102860484E+03  0.70373852075E+03  0.00000000000E+00 0.  1.
         15    1    3    3    0    0 -0.42293390250E+03  0.10673997101E+04  0.17191148631E+04  0.20672617492E+04  0.00000000000E+00 0. -1.
        -16    1    1    2    0    0  0.29699223100E+02 -0.50320744472E+03 -0.31165471819E+03  0.59264528991E+03  0.00000000000E+00 0.  1.
         16    1    4    4    0    0 -0.15652736017E+02  0.24809022018E+02  0.33645478938E+02  0.44637584738E+02  0.00000000000E+00 0. -1.
    9900018    1    3    3    0    0 -0.15189339548E+01 -0.65572520998E+00  0.13798360066E+03  0.16540069402E+03  0.91187600000E+02 0.  0.
<mgrwt>
<rscale>  0 0.32918772E+04</rscale>
<asrwt>0</asrwt>
<pdfrwt beam="1">  1        1 0.44937094E+00 0.32918772E+04</pdfrwt>
<pdfrwt beam="2">  1       -1 0.14269067E+00 0.32918772E+04</pdfrwt>
<totfact> 0.22567605E-01</totfact>
</mgrwt>
</event>
<event>
12    1  0.2039668E-012  0.4053890E+04  0.7818608E-02  0.7993763E-01
          2   -1    0    0  501    0  0.00000000000E+00  0.00000000000E+00  0.20630736280E+04  0.20630736280E+04  0.00000000000E+00 0. -1.
         -2   -1    0    0    0  501 -0.00000000000E+00 -0.00000000000E+00 -0.19914494867E+04  0.19914494867E+04  0.00000000000E+00 0.  1.
    9900016    2    1    2    0    0  0.93280178057E+03  0.67013718174E+03 -0.55224472864E+03  0.24970063588E+04  0.21472921347E+04 0.  0.
        -24    2    3    3    0    0 -0.27432856855E+03  0.57613947016E+00 -0.74867722114E+03  0.80101501054E+03  0.76491634834E+02 0.  0.
         23    2    3    3    0    0  0.65348495009E+01 -0.12418647224E+03 -0.15151489940E+03  0.21527123362E+03  0.88994129799E+02 0.  0.
        -15    1    5    5    0    0  0.36680050994E+02 -0.73428401943E+02 -0.12729017509E+03  0.15145938409E+03  0.00000000000E+00 0.  1.
        -15    1    3    3    0    0  0.12005954996E+04  0.79374751451E+03  0.34794739190E+03  0.14807201147E+04  0.00000000000E+00 0.  1.
         15    1    5    5    0    0 -0.30145201493E+02 -0.50758070295E+02 -0.24224724312E+02  0.63811849535E+02  0.00000000000E+00 0. -1.
         15    1    4    4    0    0 -0.26274032098E+03  0.20103781466E+01 -0.64178924035E+03  0.69349112966E+03  0.00000000000E+00 0. -1.
        -16    1    4    4    0    0 -0.11588247570E+02 -0.14342386764E+01 -0.10688798079E+03  0.10752388088E+03  0.00000000000E+00 0.  1.
         16    1    1    2    0    0 -0.96629076318E+03 -0.76145538987E+03  0.68800343049E+03  0.14095676181E+04  0.00000000000E+00 0. -1.
    9900018    1    1    2    0    0  0.33488982605E+02  0.91318208127E+02 -0.64134560499E+02  0.14794913766E+03  0.91187600000E+02 0.  0.
<mgrwt>
<rscale>  0 0.40538904E+04</rscale>
<asrwt>0</asrwt>
<pdfrwt beam="1">  1        2 0.31739594E+00 0.40538904E+04</pdfrwt>
<pdfrwt beam="2">  1       -2 0.30637685E+00 0.40538904E+04</pdfrwt>
<totfact> 0.14058216E-01</totfact>
</mgrwt>
</event>
<event>
12    1  0.2039668E-012  0.2820734E+04  0.7818608E-02  0.8296860E-01
         -1   -1    0    0    0  501 -0.00000000000E+00  0.00000000000E+00  0.11270227024E+04  0.11270227024E+04  0.00000000000E+00 0.  1.
          1   -1    0    0  501    0  0.00000000000E+00 -0.00000000000E+00 -0.17649470176E+04  0.17649470176E+04  0.00000000000E+00 0. -1.
    9900016    2    1    2    0    0 -0.41434133602E+03 -0.29272908461E+03 -0.47577717270E+03  0.23593716017E+04  0.22545290810E+04 0.  0.
         24    2    3    3    0    0 -0.32214892603E+03  0.23812329369E+03  0.26369601625E+03  0.48654649007E+03  0.81910099915E+02 0.  0.
         23    2    3    3    0    0 -0.17042962714E+03  0.37724369841E+03 -0.69245959861E+03  0.81191750613E+03  0.91382029176E+02 0.  0.
        -15    1    4    4    0    0 -0.19260044396E+03  0.11930750172E+03  0.10493303124E+03  0.24968009938E+03  0.00000000000E+00 0.  1.
        -15    1    5    5    0    0 -0.96282508094E+02  0.25788636949E+03 -0.37913966232E+03  0.46853237292E+03  0.00000000000E+00 0. -1.
         15    1    3    3    0    0  0.13596731974E+03 -0.92927817670E+03  0.51341569246E+01  0.93918656362E+03  0.00000000000E+00 0. -1.
         15    1    5    5    0    0 -0.74147119043E+02  0.11935732892E+03 -0.31331993630E+03  0.34338513321E+03  0.00000000000E+00 0.  1.
        -16    1    1    2    0    0  0.41434133602E+03  0.29272908461E+03 -0.16214714252E+03  0.53259811823E+03  0.00000000000E+00 0.  1.
         16    1    4    4    0    0 -0.12954848207E+03  0.11881579198E+03  0.15876298501E+03  0.23686639069E+03  0.00000000000E+00 0. -1.
    9900018    1    3    3    0    0 -0.57730102592E+02  0.21182099974E+02 -0.52147747259E+02  0.12172104191E+03  0.91187600000E+02 0.  0.
<mgrwt>
<rscale>  0 0.28207342E+04</rscale>
<asrwt>0</asrwt>
<pdfrwt beam="1">  1        1 0.27153031E+00 0.28207342E+04</pdfrwt>
<pdfrwt beam="2">  1       -1 0.17338811E+00 0.28207342E+04</pdfrwt>
<totfact> 0.86441955E-01</totfact>
</mgrwt>
</event>
<event>
12    1  0.2039668E-012  0.3433878E+04  0.7818608E-02  0.8129641E-01
          1   -1    0    0  501    0  0.00000000000E+00  0.00000000000E+00  0.23702648840E+04  0.23702648840E+04  0.00000000000E+00 0. -1.
         -1   -1    0    0    0  501 -0.00000000000E+00 -0.00000000000E+00 -0.12436917099E+04  0.12436917099E+04  0.00000000000E+00 0.  1.
    9900016    2    1    2    0    0 -0.47786938486E+03  0.15025571070E+03  0.16937900774E+04  0.28572063425E+04  0.22458333263E+04 0.  0.
         24    2    3    3    0    0 -0.12064758447E+04 -0.12924468046E+03  0.67565162639E+03  0.13911724565E+04  0.81040311786E+02 0.  0.
         23    2    3    3    0    0  0.13263307248E+03  0.13288676624E+03 -0.31724893015E+02  0.21067052075E+03  0.90139752140E+02 0.  0.
        -15    1    5    5    0    0  0.47018883660E+02 -0.14547352784E+01 -0.19422416150E+02  0.50893240460E+02  0.00000000000E+00 0.  1.
        -15    1    4    4    0    0 -0.77253893718E+03 -0.46945178162E+02  0.41198638171E+03  0.87678562826E+03  0.00000000000E+00 0.  1.
         15    1    5    5    0    0  0.85614188824E+02  0.13434150152E+03 -0.12302476865E+02  0.15977728029E+03  0.00000000000E+00 0. -1.
         15    1    3    3    0    0  0.56727164096E+03  0.13360644189E+03  0.96259209847E+03  0.11252694539E+04  0.00000000000E+00 0. -1.
        -16    1    1    2    0    0  0.47786938486E+03 -0.15025571070E+03 -0.56721690332E+03  0.75675025140E+03  0.00000000000E+00 0.  1.
         16    1    4    4    0    0 -0.43393690756E+03 -0.82299502294E+02  0.26366524468E+03  0.51438682825E+03  0.00000000000E+00 0. -1.
    9900018    1    3    3    0    0  0.28701746442E+02  0.13007183020E+02  0.87271245523E+02  0.13009391126E+03  0.91187600000E+02 0.  0.
<mgrwt>
<rscale>  0 0.34338776E+04</rscale>
<asrwt>0</asrwt>
<pdfrwt beam="1">  1        1 0.36465614E+00 0.34338776E+04</pdfrwt>
<pdfrwt beam="2">  1       -1 0.19133719E+00 0.34338776E+04</pdfrwt>
<totfact> 0.23623665E-01</totfact>
</mgrwt>
</event>
<event>
12    1  0.2039668E-012  0.3239525E+04  0.7818608E-02  0.8178456E-01
         -1   -1    0    0    0  501 -0.00000000000E+00  0.00000000000E+00  0.24638597120E+04  0.24638597120E+04  0.00000000000E+00 0.  1.
          1   -1    0    0  501    0  0.00000000000E+00 -0.00000000000E+00 -0.10648456610E+04  0.10648456610E+04  0.00000000000E+00 0. -1.
    9900016    2    1    2    0    0  0.15372559723E+03 -0.13164432179E+03  0.14912125075E+03  0.21704599232E+04  0.21558518836E+04 0.  0.
         24    2    3    3    0    0  0.36554690689E+03 -0.84514729010E+03  0.27670640883E+02  0.92464195365E+03  0.79363688043E+02 0.  0.
         23    2    3    3    0    0 -0.11856200237E+03 -0.13144905316E+03  0.31595840097E+03  0.37376608012E+03  0.92388146015E+02 0.  0.
        -15    1    4    4    0    0  0.21303633200E+03 -0.57575259679E+03  0.72355460821E+00  0.61390231714E+03  0.00000000000E+00 0.  1.
        -15    1    5    5    0    0 -0.95737603516E+02 -0.10892582587E+03  0.16602651102E+03  0.22044347717E+03  0.00000000000E+00 0.  1.
         15    1    3    3    0    0 -0.93259307289E+02  0.84495202147E+03 -0.19450779109E+03  0.87205188939E+03  0.00000000000E+00 0. -1.
         15    1    5    5    0    0 -0.22824398858E+02 -0.22523227292E+02  0.14993188995E+03  0.15332260295E+03  0.00000000000E+00 0. -1.
        -16    1    1    2    0    0 -0.20518199755E+03  0.11325918775E+03  0.12274139783E+04  0.12495888803E+04  0.00000000000E+00 0.  1.
         16    1    4    4    0    0  0.15251057489E+03 -0.26939469332E+03  0.26947086275E+02  0.31073963651E+03  0.00000000000E+00 0. -1.
    9900018    1    1    2    0    0  0.51456400319E+02  0.18385134041E+02  0.22478821945E+02  0.10865656960E+03  0.91187600000E+02 0.  0.
<mgrwt>
<rscale>  0 0.32395249E+04</rscale>
<asrwt>0</asrwt>
<pdfrwt beam="1">  1        1 0.16382241E+00 0.32395249E+04</pdfrwt>
<pdfrwt beam="2">  1       -1 0.37905534E+00 0.32395249E+04</pdfrwt>
<totfact> 0.11154401E-01</totfact>
</mgrwt>
</event>
<event>
12    1  0.2039668E-012  0.2533050E+04  0.7818608E-02  0.8391305E-01
         -2   -1    0    0    0  501 -0.00000000000E+00  0.00000000000E+00  0.36357193409E+03  0.36357193409E+03  0.00000000000E+00 0.  1.
          2   -1    0    0  501    0  0.00000000000E+00 -0.00000000000E+00 -0.44120159783E+04  0.44120159783E+04  0.00000000000E+00 0. -1.
    9900016    2    1    2    0    0  0.38277586616E+02  0.75347177414E+02 -0.41003536792E+04  0.46764063568E+04  0.22469387505E+04 0.  0.
         24    2    3    3    0    0  0.65836310287E+02 -0.39448827812E+03 -0.96770153639E+03  0.10500486308E+04  0.78742886723E+02 0.  0.
         23    2    3    3    0    0 -0.20976665408E+02 -0.20119238729E+03  0.14289785821E+03  0.26397333508E+03  0.91344001210E+02 0.  0.
        -15    1    5    5    0    0 -0.54273445020E+02 -0.88287315265E+02  0.76632718865E+02  0.12889076954E+03  0.00000000000E+00 0.  1.
        -15    1    4    4    0    0  0.41912714658E+00 -0.20589671802E+03 -0.54461349753E+03  0.58223491466E+03  0.00000000000E+00 0.  1.
         15    1    5    5    0    0  0.33296779611E+02 -0.11290507202E+03  0.66265139347E+02  0.13508256554E+03  0.00000000000E+00 0. -1.
         15    1    3    3    0    0 -0.86898674574E+01  0.63637877209E+03 -0.30642343060E+04  0.31296302237E+04  0.00000000000E+00 0. -1.
        -16    1    1    2    0    0 -0.38277586616E+02 -0.75347177414E+02  0.51909634945E+02  0.99181555652E+02  0.00000000000E+00 0.  1.
         16    1    4    4    0    0  0.65417183140E+02 -0.18859156010E+03 -0.42308803886E+03  0.46781371615E+03  0.00000000000E+00 0. -1.
    9900018    1    3    3    0    0  0.21078091948E+01  0.34649070722E+02 -0.21131569504E+03  0.23275416715E+03  0.91187600000E+02 0.  0.
<mgrwt>
<rscale>  0 0.25330497E+04</rscale>
<asrwt>0</asrwt>
<pdfrwt beam="1">  1        2 0.67877171E+00 0.25330497E+04</pdfrwt>
<pdfrwt beam="2">  1       -2 0.55934142E-01 0.25330497E+04</pdfrwt>
<totfact> 0.40120523E-01</totfact>
</mgrwt>
</event>
<event>
12    1  0.2039668E-012  0.2674530E+04  0.7818608E-02  0.8343317E-01
         -1   -1    0    0    0  501 -0.00000000000E+00  0.00000000000E+00  0.84845248075E+03  0.84845248075E+03  0.00000000000E+00 0.  1.
          1   -1    0    0  501    0  0.00000000000E+00 -0.00000000000E+00 -0.21076936374E+04  0.21076936374E+04  0.00000000000E+00 0. -1.
    9900016    2    1    2    0    0  0.36621138229E+03  0.46964257265E+02 -0.12211301123E+04  0.25849738271E+04  0.22482469877E+04 0.  0.
        -24    2    3    3    0    0  0.39046264169E+03 -0.49478214487E+03 -0.57042129185E+03  0.85330494405E+03  0.74016430069E+02 0.  0.
         23    2    3    3    0    0  0.13169749655E+03 -0.41236152885E+03 -0.52364756261E+03  0.68468105902E+03  0.84824063144E+02 0.  0.
        -15    1    5    5    0    0  0.52867242956E+02 -0.60627214882E+02 -0.10393627656E+03  0.13142813302E+03  0.00000000000E+00 0. -1.
        -15    1    3    3    0    0 -0.15224608904E+03  0.93309006190E+03 -0.12099404674E+03  0.95313980852E+03  0.00000000000E+00 0.  1.
         15    1    4    4    0    0  0.15126331673E+03 -0.22063404337E+03 -0.19928386946E+03  0.33357762621E+03  0.00000000000E+00 0. -1.
         15    1    5    5    0    0  0.78830253597E+02 -0.35173431397E+03 -0.41971128604E+03  0.55325292601E+03  0.00000000000E+00 0.  1.
        -16    1    4    4    0    0  0.23919932496E+03 -0.27414810150E+03 -0.37113742239E+03  0.51972731784E+03  0.00000000000E+00 0.  1.
         16    1    1    2    0    0 -0.36621138229E+03 -0.46964257265E+02 -0.38111044372E+02  0.37117229110E+03  0.00000000000E+00 0. -1.
    9900018    1    3    3    0    0 -0.37026669034E+01  0.21017869083E+02 -0.60672110995E+01  0.93848015468E+02  0.91187600000E+02 0.  0.
<mgrwt>
<rscale>  0 0.26745302E+04</rscale>
<asrwt>0</asrwt>
<pdfrwt beam="1">  1        1 0.32426056E+00 0.26745302E+04</pdfrwt>
<pdfrwt beam="2">  1       -1 0.13053115E+00 0.26745302E+04</pdfrwt>
<totfact> 0.11057118E+00</totfact>
</mgrwt>
</event>
<event>
12    1  0.2039668E-012  0.2778472E+04  0.7818608E-02  0.8309983E-01
          2   -1    0    0  501    0  0.00000000000E+00  0.00000000000E+00  0.12707454152E+04  0.12707454152E+04  0.00000000000E+00 0. -1.
         -2   -1    0    0    0  501 -0.00000000000E+00 -0.00000000000E+00 -0.15187757334E+04  0.15187757334E+04  0.00000000000E+00 0.  1.
    9900016    2    1    2    0    0  0.19881274668E+02  0.45766852178E+03 -0.31867979439E+03  0.23260051409E+04  0.22580716028E+04 0.  0.
         24    2    3    3    0    0 -0.79290619599E+03 -0.10437282311E+03 -0.63179403219E+02  0.80624575271E+03  0.80291063874E+02 0.  0.
         23    2    3    3    0    0  0.17850270554E+03  0.59062911427E+03  0.84684466247E+02  0.62933736093E+03  0.90488057355E+02 0.  0.
        -15    1    4    4    0    0 -0.63643329423E+03 -0.58096147042E+02 -0.70191784312E+02  0.64292253568E+03  0.00000000000E+00 0.  1.
        -15    1    5    5    0    0 -0.69570234679E+00  0.48600894588E+02  0.26860740270E+02  0.55534046534E+02  0.00000000000E+00 0. -1.
         15    1    3    3    0    0  0.67008432747E+03 -0.58332603040E+02 -0.38899513318E+03  0.77700251746E+03  0.00000000000E+00 0. -1.
         15    1    5    5    0    0  0.17919840789E+03  0.54202821969E+03  0.57823725977E+02  0.57380331440E+03  0.00000000000E+00 0.  1.
        -16    1    1    2    0    0 -0.19881274668E+02 -0.45766852178E+03  0.70649476129E+02  0.46351600769E+03  0.00000000000E+00 0.  1.
         16    1    4    4    0    0 -0.15647290176E+03 -0.46276676066E+02  0.70123810937E+01  0.16332321703E+03  0.00000000000E+00 0. -1.
    9900018    1    3    3    0    0 -0.35799562360E+02  0.29744833655E+02  0.48810275764E+02  0.11341950982E+03  0.91187600000E+02 0.  0.
<mgrwt>
<rscale>  0 0.27784725E+04</rscale>
<asrwt>0</asrwt>
<pdfrwt beam="1">  1        2 0.19549929E+00 0.27784725E+04</pdfrwt>
<pdfrwt beam="2">  1       -2 0.23365781E+00 0.27784725E+04</pdfrwt>
<totfact> 0.12159317E+00</totfact>
</mgrwt>
</event>
<event>
12    1  0.2039668E-012  0.2607979E+04  0.7818608E-02  0.8365496E-01
         -1   -1    0    0    0  501 -0.00000000000E+00  0.00000000000E+00  0.16084059667E+04  0.16084059667E+04  0.00000000000E+00 0.  1.
          1   -1    0    0  501    0  0.00000000000E+00 -0.00000000000E+00 -0.10571885806E+04  0.10571885806E+04  0.00000000000E+00 0. -1.
    9900016    2    1    2    0    0  0.67651629193E+02  0.10066292311E+03  0.15900043983E+03  0.22550535628E+04  0.22461691086E+04 0.  0.
         24    2    3    3    0    0  0.88676643866E+03 -0.33480824840E+03 -0.40468051520E+03  0.10337970168E+04  0.80738297826E+02 0.  0.
         23    2    3    3    0    0 -0.29875119582E+03  0.27261985367E+03  0.31041813236E+03  0.51738429696E+03  0.88052440179E+02 0.  0.
        -15    1    5    5    0    0 -0.14562922578E+03  0.15269468549E+03  0.10941602482E+03  0.23768762034E+03  0.00000000000E+00 0. -1.
        -15    1    4    4    0    0  0.22124209963E+03 -0.11872513327E+03 -0.12158248630E+03  0.27897316160E+03  0.00000000000E+00 0.  1.
         15    1    3    3    0    0 -0.52091839104E+03  0.13999926587E+03  0.27776862501E+03  0.60672166074E+03  0.00000000000E+00 0. -1.
         15    1    5    5    0    0 -0.15312197004E+03  0.11992516818E+03  0.20100210754E+03  0.27969667661E+03  0.00000000000E+00 0.  1.
        -16    1    1    2    0    0 -0.67651629193E+02 -0.10066292311E+03  0.39221694622E+03  0.41054098447E+03  0.00000000000E+00 0.  1.
         16    1    4    4    0    0  0.66552433903E+03 -0.21608311513E+03 -0.28309802889E+03  0.75482385525E+03  0.00000000000E+00 0. -1.
    9900018    1    3    3    0    0  0.55477739786E+00  0.22852051973E+02 -0.24505802344E+02  0.97150588262E+02  0.91187600000E+02 0.  0.
<mgrwt>
<rscale>  0 0.26079789E+04</rscale>
<asrwt>0</asrwt>
<pdfrwt beam="1">  1        1 0.16264440E+00 0.26079789E+04</pdfrwt>
<pdfrwt beam="2">  1       -1 0.24744707E+00 0.26079789E+04</pdfrwt>
<totfact> 0.87133004E-01</totfact>
</mgrwt>
</event>
<event>
12    1  0.2039668E-012  0.2905801E+04  0.7818608E-02  0.8271154E-01
          2   -1    0    0  501    0  0.00000000000E+00  0.00000000000E+00  0.11510787132E+04  0.11510787132E+04  0.00000000000E+00 0. -1.
         -2   -1    0    0    0  501 -0.00000000000E+00 -0.00000000000E+00 -0.18338623620E+04  0.18338623620E+04  0.00000000000E+00 0.  1.
    9900016    2    1    2    0    0  0.19991432167E+03 -0.51459429549E+03 -0.60804963952E+03  0.23042059092E+04  0.21528742376E+04 0.  0.
        -24    2    3    3    0    0 -0.63709612251E+03  0.37938614062E+03 -0.42653614065E+02  0.74728398064E+03  0.82393591511E+02 0.  0.
         23    2    3    3    0    0 -0.73670383285E+02  0.44915131150E+02 -0.12520259778E+03  0.17683689148E+03  0.90282342228E+02 0.  0.
        -15    1    3    3    0    0  0.91068082746E+03 -0.93889556726E+03 -0.44019342768E+03  0.13800850370E+04  0.00000000000E+00 0.  1.
        -15    1    5    5    0    0 -0.43944233711E+02 -0.14023028473E+02 -0.92068530171E+02  0.10297745021E+03  0.00000000000E+00 0.  1.
         15    1    5    5    0    0 -0.29726149574E+02  0.58938159623E+02 -0.33134067605E+02  0.73859441267E+02  0.00000000000E+00 0. -1.
         15    1    4    4    0    0 -0.34901858929E+03  0.16003118064E+03 -0.24872672295E+02  0.38476304951E+03  0.00000000000E+00 0. -1.
        -16    1    4    4    0    0 -0.28807753322E+03  0.21935495998E+03 -0.17780941769E+02  0.36252093113E+03  0.00000000000E+00 0.  1.
         16    1    1    2    0    0 -0.23768022723E+03  0.51247355058E+03 -0.14510537274E+02  0.56509431616E+03  0.00000000000E+00 0. -1.
    9900018    1    1    2    0    0  0.37765905569E+02  0.21207449079E+01 -0.60223472036E+02  0.11564084988E+03  0.91187600000E+02 0.  0.
<mgrwt>
<rscale>  0 0.29058010E+04</rscale>
<asrwt>0</asrwt>
<pdfrwt beam="1">  1        2 0.17708903E+00 0.29058010E+04</pdfrwt>
<pdfrwt beam="2">  1       -2 0.28213267E+00 0.29058010E+04</pdfrwt>
<totfact> 0.71468637E-01</totfact>
</mgrwt>
</event>
<event>
12    1  0.2039668E-012  0.2840071E+04  0.7818608E-02  0.8290935E-01
          2   -1    0    0  501    0  0.00000000000E+00  0.00000000000E+00  0.25335339496E+04  0.25335339496E+04  0.00000000000E+00 0. -1.
         -2   -1    0    0    0  501 -0.00000000000E+00 -0.00000000000E+00 -0.79592408229E+03  0.79592408229E+03  0.00000000000E+00 0.  1.
    9900016    2    1    2    0    0  0.47294842835E+03  0.10504231438E+03  0.15405697756E+04  0.27003962894E+04  0.21642714208E+04 0.  0.
         24    2    3    3    0    0  0.25494321102E+03 -0.14062949842E+03 -0.47921779375E+03  0.56627099123E+03  0.78996487217E+02 0.  0.
         23    2    3    3    0    0 -0.32335063064E+02  0.38375955719E+03  0.10140775484E+04  0.10885674914E+04  0.91153470169E+02 0.  0.
        -15    1    5    5    0    0  0.27355382191E+02  0.21174055147E+03  0.56357365101E+03  0.60265880744E+03  0.00000000000E+00 0. -1.
        -15    1    4    4    0    0  0.79139082889E+02 -0.79591490233E+02 -0.22236557828E+03  0.24908683257E+03  0.00000000000E+00 0.  1.
         15    1    3    3    0    0  0.25034028039E+03 -0.13808774439E+03  0.10057100210E+04  0.10455578068E+04  0.00000000000E+00 0. -1.
         15    1    5    5    0    0 -0.59690445255E+02  0.17201900573E+03  0.45050389736E+03  0.48590868393E+03  0.00000000000E+00 0.  1.
        -16    1    1    2    0    0 -0.48046493139E+03 -0.10954907260E+03  0.11488235415E+03  0.50600939210E+03  0.00000000000E+00 0.  1.
         16    1    4    4    0    0  0.17580412813E+03 -0.61038008187E+02 -0.25685221547E+03  0.31718415866E+03  0.00000000000E+00 0. -1.
    9900018    1    1    2    0    0  0.75165030388E+01  0.45067582250E+01  0.82157737562E+02  0.12305235033E+03  0.91187600000E+02 0.  0.
<mgrwt>
<rscale>  0 0.28400709E+04</rscale>
<asrwt>0</asrwt>
<pdfrwt beam="1">  1        2 0.38977445E+00 0.28400709E+04</pdfrwt>
<pdfrwt beam="2">  1       -2 0.12244986E+00 0.28400709E+04</pdfrwt>
<totfact> 0.14571235E+00</totfact>
</mgrwt>
</event>
<event>
12    1  0.2039668E-012  0.3639085E+04  0.7818608E-02  0.8081597E-01
         -2   -1    0    0    0  501 -0.00000000000E+00  0.00000000000E+00  0.84584792389E+03  0.84584792389E+03  0.00000000000E+00 0.  1.
          2   -1    0    0  501    0  0.00000000000E+00 -0.00000000000E+00 -0.39141007978E+04  0.39141007978E+04  0.00000000000E+00 0. -1.
    9900016    2    1    2    0    0  0.31425575188E+03  0.34090706824E+03 -0.33269153566E+04  0.39868180503E+04  0.21474119467E+04 0.  0.
         24    2    3    3    0    0  0.45721512817E+03 -0.44415623112E+03 -0.24966944104E+03  0.68923131634E+03  0.79903357636E+02 0.  0.
         23    2    3    3    0    0  0.80955521124E+02 -0.96479965080E+02 -0.10124978099E+03  0.18570476292E+03  0.91501698110E+02 0.  0.
        -15    1    4    4    0    0  0.19757398949E+03 -0.24666597584E+03 -0.11494663847E+03  0.33629200801E+03  0.00000000000E+00 0.  1.
        -15    1    5    5    0    0  0.13378743906E+02 -0.70380066287E+02 -0.15223711758E+02  0.73240056791E+02  0.00000000000E+00 0.  1.
         15    1    3    3    0    0 -0.22391489742E+03  0.88154326445E+03 -0.29759961346E+04  0.31118819710E+04  0.00000000000E+00 0. -1.
         15    1    5    5    0    0  0.67576777218E+02 -0.26099898793E+02 -0.86026069233E+02  0.11246470613E+03  0.00000000000E+00 0. -1.
        -16    1    1    2    0    0 -0.26991750750E+03 -0.36299939369E+03  0.39585997754E+03  0.60110659828E+03  0.00000000000E+00 0.  1.
         16    1    4    4    0    0  0.25964113869E+03 -0.19749025528E+03 -0.13472280257E+03  0.35293930833E+03  0.00000000000E+00 0. -1.
    9900018    1    1    2    0    0 -0.44338244380E+02  0.22092325451E+02 -0.13719749484E+03  0.17202407315E+03  0.91187600000E+02 0.  0.
<mgrwt>
<rscale>  0 0.36390845E+04</rscale>
<asrwt>0</asrwt>
<pdfrwt beam="1">  1        2 0.60216935E+00 0.36390845E+04</pdfrwt>
<pdfrwt beam="2">  1       -2 0.13013045E+00 0.36390845E+04</pdfrwt>
<totfact> 0.14063785E-01</totfact>
</mgrwt>
</event>
<event>
12    1  0.2039668E-012  0.2548332E+04  0.7818608E-02  0.8385967E-01
         -1   -1    0    0    0  501 -0.00000000000E+00  0.00000000000E+00  0.15531878097E+04  0.15531878097E+04  0.00000000000E+00 0.  1.
          1   -1    0    0  501    0  0.00000000000E+00 -0.00000000000E+00 -0.10452687925E+04  0.10452687925E+04  0.00000000000E+00 0. -1.
    9900016    2    1    2    0    0  0.24904002725E+03  0.12768704565E+03  0.49605687770E+03  0.22268775323E+04  0.21528089095E+04 0.  0.
        -24    2    3    3    0    0  0.31819663884E+03 -0.12698325801E+03  0.32141491353E+03  0.47666104224E+03  0.80773471923E+02 0.  0.
         23    2    3    3    0    0 -0.74069668895E+03 -0.27033280815E+03 -0.20094590799E+03  0.81873348286E+03  0.90740541297E+02 0.  0.
        -15    1    3    3    0    0  0.67154007735E+03  0.52500311181E+03  0.37558787216E+03  0.93148300715E+03  0.00000000000E+00 0.  1.
        -15    1    5    5    0    0 -0.25342825512E+02 -0.81938900684E+01 -0.25603783052E+02  0.36945261481E+02  0.00000000000E+00 0. -1.
         15    1    4    4    0    0  0.43760508794E+02  0.91511134050E+01  0.29934063377E+02  0.53803096163E+02  0.00000000000E+00 0. -1.
         15    1    5    5    0    0 -0.71535386344E+03 -0.26213891809E+03 -0.17534212494E+03  0.78178822138E+03  0.00000000000E+00 0.  1.
        -16    1    4    4    0    0  0.27443613005E+03 -0.13613437141E+03  0.29148085015E+03  0.42285794608E+03  0.00000000000E+00 0.  1.
         16    1    1    2    0    0 -0.25485219166E+03 -0.11238397938E+03  0.34523102140E+01  0.27855289778E+03  0.00000000000E+00 0. -1.
    9900018    1    1    2    0    0  0.58121644180E+01 -0.15303066263E+02  0.84098292856E+01  0.93026172202E+02  0.91187600000E+02 0.  0.
<mgrwt>
<rscale>  0 0.25483318E+04</rscale>
<asrwt>0</asrwt>
<pdfrwt beam="1">  1        1 0.16081058E+00 0.25483318E+04</pdfrwt>
<pdfrwt beam="2">  1       -1 0.23895197E+00 0.25483318E+04</pdfrwt>
<totfact> 0.10169423E+00</totfact>
</mgrwt>
</event>
<event>
12    1  0.2276231E-012  0.2957654E+04  0.7818608E-02  0.8255927E-01
          2   -1    0    0  501    0  0.00000000000E+00  0.00000000000E+00  0.10759337592E+04  0.10759337592E+04  0.00000000000E+00 0. -1.
         -2   -1    0    0    0  501 -0.00000000000E+00 -0.00000000000E+00 -0.20325871496E+04  0.20325871496E+04  0.00000000000E+00 0.  1.
    9900016    2    1    2    0    0 -0.75542412153E+01  0.30456005846E+03 -0.13258386873E+04  0.26298647909E+04  0.22506724990E+04 0.  0.
        -24    2    3    3    0    0  0.53447395092E+03  0.34660578385E+03 -0.13555787032E+04  0.14999646419E+04  0.80637042713E+02 0.  0.
         23    2    3    3    0    0 -0.12915245771E+03 -0.17812985387E+02 -0.33696924209E+03  0.37173066991E+03  0.87394285018E+02 0.  0.
        -15    1    5    5    0    0 -0.44036396281E+02 -0.42139168342E+02 -0.84474754506E+02  0.10416764303E+03  0.00000000000E+00 0. -1.
        -15    1    3    3    0    0 -0.37101291384E+03 -0.18681001891E+02  0.47985233798E+03  0.60684250702E+03  0.00000000000E+00 0.  1.
         15    1    5    5    0    0 -0.85116061432E+02  0.24326182954E+02 -0.25249448758E+03  0.26756302688E+03  0.00000000000E+00 0.  1.
         15    1    4    4    0    0  0.22161003085E+03  0.15752448955E+03 -0.49047279209E+03  0.56079276954E+03  0.00000000000E+00 0. -1.
        -16    1    4    4    0    0  0.31286392007E+03  0.18908129430E+03 -0.86510591109E+03  0.93917187231E+03  0.00000000000E+00 0.  1.
         16    1    1    2    0    0  0.75542412153E+01 -0.30456005846E+03  0.36918529685E+03  0.47865611787E+03  0.00000000000E+00 0. -1.
    9900018    1    3    3    0    0 -0.41862820582E+02 -0.55517381091E+01 -0.11314307998E+03  0.15132697210E+03  0.91187600000E+02 0.  0.
<mgrwt>
<rscale>  0 0.29576539E+04</rscale>
<asrwt>0</asrwt>
<pdfrwt beam="1">  1        2 0.16552827E+00 0.29576539E+04</pdfrwt>
<pdfrwt beam="2">  1       -2 0.31270571E+00 0.29576539E+04</pdfrwt>
<totfact> 0.51434855E-01</totfact>
</mgrwt>
</event>
<event>
12    1  0.2039668E-012  0.2691229E+04  0.7818608E-02  0.8337856E-01
          2   -1    0    0  501    0  0.00000000000E+00  0.00000000000E+00  0.17164985945E+04  0.17164985945E+04  0.00000000000E+00 0. -1.
         -2   -1    0    0    0  501 -0.00000000000E+00 -0.00000000000E+00 -0.10548673172E+04  0.10548673172E+04  0.00000000000E+00 0.  1.
    9900016    2    1    2    0    0 -0.41084269488E+02 -0.35459237697E+03  0.35716218793E+03  0.23021910004E+04  0.22461288705E+04 0.  0.
        -24    2    3    3    0    0 -0.44328044404E+03  0.67547982215E+03 -0.80709674345E+00  0.81178980506E+03  0.78939812381E+02 0.  0.
         23    2    3    3    0    0 -0.14485391953E+03  0.20315073769E+02  0.10436866462E+03  0.20145820908E+03  0.91089141103E+02 0.  0.
        -15    1    3    3    0    0  0.56648196910E+03 -0.10049372817E+04  0.26772564471E+03  0.11842625479E+04  0.00000000000E+00 0.  1.
        -15    1    5    5    0    0 -0.13171507830E+03 -0.16950489180E+02  0.80552036672E+02  0.15532163901E+03  0.00000000000E+00 0.  1.
         15    1    4    4    0    0 -0.28559629270E+03  0.36708301606E+03  0.10835650062E+02  0.46522316623E+03  0.00000000000E+00 0. -1.
         15    1    5    5    0    0 -0.13138841233E+02  0.37265562949E+02  0.23816627944E+02  0.46136570066E+02  0.00000000000E+00 0. -1.
        -16    1    4    4    0    0 -0.15768415134E+03  0.30839680610E+03 -0.11642746806E+02  0.34656663883E+03  0.00000000000E+00 0.  1.
         16    1    1    2    0    0  0.41084269488E+02  0.35459237697E+03  0.30446908942E+03  0.46917491133E+03  0.00000000000E+00 0. -1.
    9900018    1    3    3    0    0 -0.19431875011E+02 -0.45449991214E+02 -0.14125024649E+02  0.10468043840E+03  0.91187600000E+02 0.  0.
<mgrwt>
<rscale>  0 0.26912289E+04</rscale>
<asrwt>0</asrwt>
<pdfrwt beam="1">  1        2 0.26407671E+00 0.26912289E+04</pdfrwt>
<pdfrwt beam="2">  1       -2 0.16228728E+00 0.26912289E+04</pdfrwt>
<totfact> 0.20428967E+00</totfact>
</mgrwt>
</event>
<event>
12    1  0.2039668E-012  0.4824051E+04  0.7818608E-02  0.7856237E-01
         -2   -1    0    0    0  501 -0.00000000000E+00  0.00000000000E+00  0.17676692896E+04  0.17676692896E+04  0.00000000000E+00 0.  1.
          2   -1    0    0  501    0  0.00000000000E+00 -0.00000000000E+00 -0.32912641777E+04  0.32912641777E+04  0.00000000000E+00 0. -1.
    9900016    2    1    2    0    0  0.20009378308E+03  0.10918125857E+04 -0.24199411210E+04  0.34280102460E+04  0.21594089408E+04 0.  0.
         24    2    3    3    0    0  0.51568593757E+01  0.66192155977E+02 -0.30717227327E+03  0.32446026150E+03  0.80694864239E+02 0.  0.
         23    2    3    3    0    0 -0.16447069845E+03  0.13238588633E+03  0.37276991364E+03  0.43803976645E+03  0.91349849060E+02 0.  0.
        -15    1    4    4    0    0 -0.26316211263E+02  0.59529525996E+02 -0.25492641870E+03  0.26310413603E+03  0.00000000000E+00 0.  1.
        -15    1    5    5    0    0 -0.78104223627E+02  0.11878706196E+03  0.24397127935E+03  0.28236965309E+03  0.00000000000E+00 0. -1.
         15    1    3    3    0    0  0.35940762216E+03  0.89323454335E+03 -0.24855387614E+04  0.26655102181E+04  0.00000000000E+00 0. -1.
         15    1    5    5    0    0 -0.86366474828E+02  0.13598824376E+02  0.12879863429E+03  0.15567011336E+03  0.00000000000E+00 0.  1.
        -16    1    1    2    0    0 -0.19889827690E+03 -0.11143764227E+04  0.98590120321E+03  0.15011317459E+04  0.00000000000E+00 0.  1.
         16    1    4    4    0    0  0.31473070639E+02  0.66626299818E+01 -0.52245854562E+02  0.61356125470E+02  0.00000000000E+00 0. -1.
    9900018    1    1    2    0    0 -0.11955061839E+01  0.22563837058E+02 -0.89554970313E+02  0.12979147537E+03  0.91187600000E+02 0.  0.
<mgrwt>
<rscale>  0 0.48240508E+04</rscale>
<asrwt>0</asrwt>
<pdfrwt beam="1">  1        2 0.50634833E+00 0.48240508E+04</pdfrwt>
<pdfrwt beam="2">  1       -2 0.27194912E+00 0.48240508E+04</pdfrwt>
<totfact> 0.39252554E-02</totfact>
</mgrwt>
</event>
<event>
12    1  0.2052888E-012  0.2795811E+04  0.7818608E-02  0.8304570E-01
          1   -1    0    0  501    0  0.00000000000E+00  0.00000000000E+00  0.20046196014E+04  0.20046196014E+04  0.00000000000E+00 0. -1.
         -1   -1    0    0    0  501 -0.00000000000E+00 -0.00000000000E+00 -0.97481856006E+03  0.97481856006E+03  0.00000000000E+00 0.  1.
    9900016    2    1    2    0    0  0.44432911077E+02 -0.43871586759E+03  0.67667320695E+03  0.23027045012E+04  0.21564126449E+04 0.  0.
        -24    2    3    3    0    0 -0.12946813860E+02  0.13037908638E+02 -0.48108814419E+03  0.48784888006E+03  0.78823348359E+02 0.  0.
         23    2    3    3    0    0 -0.28426042387E+03  0.34391154945E+03  0.13285793164E+03  0.47312974713E+03  0.84388300078E+02 0.  0.
        -15    1    5    5    0    0 -0.28853205155E+03  0.32849746249E+03  0.13342301799E+03  0.45712474158E+03  0.00000000000E+00 0. -1.
        -15    1    3    3    0    0  0.34164014881E+03 -0.79566532568E+03  0.10249034195E+04  0.13417258740E+04  0.00000000000E+00 0.  1.
         15    1    4    4    0    0  0.14461277455E+02  0.38452906601E+02 -0.19140489421E+03  0.19576411341E+03  0.00000000000E+00 0. -1.
         15    1    5    5    0    0  0.42716276803E+01  0.15414086958E+02 -0.56508635707E+00  0.16005005542E+02  0.00000000000E+00 0.  1.
        -16    1    4    4    0    0 -0.27408091314E+02 -0.25414997963E+02 -0.28968324998E+03  0.29208476665E+03  0.00000000000E+00 0.  1.
         16    1    1    2    0    0 -0.25608096579E+02  0.46454442846E+03  0.34607668341E+03  0.57985030088E+03  0.00000000000E+00 0. -1.
    9900018    1    1    2    0    0 -0.18824814498E+02 -0.25828560866E+02  0.70511509942E+01  0.96883359363E+02  0.91187600000E+02 0.  0.
<mgrwt>
<rscale>  0 0.27958114E+04</rscale>
<asrwt>0</asrwt>
<pdfrwt beam="1">  1        1 0.30840301E+00 0.27958114E+04</pdfrwt>
<pdfrwt beam="2">  1       -1 0.14997209E+00 0.27958114E+04</pdfrwt>
<totfact> 0.89431799E-01</totfact>
</mgrwt>
</event>
<event>
12    1  0.2039668E-012  0.2538725E+04  0.7818608E-02  0.8389318E-01
         -2   -1    0    0    0  501 -0.00000000000E+00  0.00000000000E+00  0.11192693160E+04  0.11192693160E+04  0.00000000000E+00 0.  1.
          2   -1    0    0  501    0  0.00000000000E+00 -0.00000000000E+00 -0.14395835459E+04  0.14395835459E+04  0.00000000000E+00 0. -1.
    9900016    2    1    2    0    0  0.23857263449E+02 -0.13548029940E+03 -0.46613702232E+03  0.22048182010E+04  0.21505849194E+04 0.  0.
         24    2    3    3    0    0  0.20527458491E+03  0.51898859823E+02  0.35261947344E+03  0.41896503869E+03  0.79750007745E+02 0.  0.
         23    2    3    3    0    0  0.28099056672E+03  0.53189061394E+03 -0.69176790463E+03  0.92139022853E+03  0.92486731933E+02 0.  0.
        -15    1    4    4    0    0  0.11017994865E+03  0.66960923148E+02  0.18175599972E+03  0.22284216331E+03  0.00000000000E+00 0.  1.
        -15    1    5    5    0    0 -0.69186018822E+01  0.21854937960E+02 -0.27026753521E+02  0.35439395750E+02  0.00000000000E+00 0.  1.
         15    1    3    3    0    0 -0.46240788818E+03 -0.71926977316E+03 -0.12698859114E+03  0.86446293380E+03  0.00000000000E+00 0. -1.
         15    1    5    5    0    0  0.28790916861E+03  0.51003567597E+03 -0.66474115110E+03  0.88595083278E+03  0.00000000000E+00 0. -1.
        -16    1    1    2    0    0 -0.32689141233E+02  0.19594525991E+03  0.14202312143E+03  0.24420010617E+03  0.00000000000E+00 0.  1.
         16    1    4    4    0    0  0.95094636254E+02 -0.15062063325E+02  0.17086347372E+03  0.19612287538E+03  0.00000000000E+00 0. -1.
    9900018    1    1    2    0    0  0.88318777834E+01 -0.60464960509E+02  0.37996710750E+01  0.10983455471E+03  0.91187600000E+02 0.  0.
<mgrwt>
<rscale>  0 0.25387254E+04</rscale>
<asrwt>0</asrwt>
<pdfrwt beam="1">  1        2 0.22147439E+00 0.25387254E+04</pdfrwt>
<pdfrwt beam="2">  1       -2 0.17219528E+00 0.25387254E+04</pdfrwt>
<totfact> 0.25114977E+00</totfact>
</mgrwt>
</event>
<event>
12    1  0.2039668E-012  0.3605494E+04  0.7818608E-02  0.8089234E-01
         -1   -1    0    0    0  501 -0.00000000000E+00  0.00000000000E+00  0.92566108171E+03  0.92566108171E+03  0.00000000000E+00 0.  1.
          1   -1    0    0  501    0  0.00000000000E+00 -0.00000000000E+00 -0.35108935236E+04  0.35108935236E+04  0.00000000000E+00 0. -1.
    9900016    2    1    2    0    0  0.77368979037E+03  0.41016866285E+02 -0.27592595323E+04  0.36424741918E+04  0.22480717951E+04 0.  0.
         24    2    3    3    0    0  0.13577576374E+04  0.20573077610E+03 -0.17801926344E+04  0.22496767184E+04  0.78285168102E+02 0.  0.
         23    2    3    3    0    0 -0.14578662032E+03 -0.17245421513E+03 -0.66640253685E+03  0.70918506893E+03  0.88639302258E+02 0.  0.
        -15    1    5    5    0    0 -0.49275760630E+02 -0.77332802065E+02 -0.15461310262E+03  0.17976004662E+03  0.00000000000E+00 0. -1.
        -15    1    4    4    0    0  0.18955780132E+02 -0.56961421625E+00 -0.12802446167E+02  0.22881186346E+02  0.00000000000E+00 0.  1.
         15    1    5    5    0    0 -0.96510859689E+02 -0.95121413063E+02 -0.51178943423E+03  0.52942502231E+03  0.00000000000E+00 0.  1.
         15    1    3    3    0    0 -0.45584002761E+03  0.30893921460E+02 -0.12615779391E+03  0.47398349562E+03  0.00000000000E+00 0. -1.
        -16    1    1    2    0    0 -0.77368979037E+03 -0.41016866285E+02  0.17402709040E+03  0.79408041358E+03  0.00000000000E+00 0.  1.
         16    1    4    4    0    0  0.13388018572E+04  0.20630039032E+03 -0.17673901882E+04  0.22267955320E+04  0.00000000000E+00 0. -1.
    9900018    1    3    3    0    0  0.17558800944E+02 -0.23153616149E+02 -0.18650656718E+03  0.20962890886E+03  0.91187600000E+02 0.  0.
<mgrwt>
<rscale>  0 0.36054944E+04</rscale>
<asrwt>0</asrwt>
<pdfrwt beam="1">  1        1 0.54013746E+00 0.36054944E+04</pdfrwt>
<pdfrwt beam="2">  1       -1 0.14240940E+00 0.36054944E+04</pdfrwt>
<totfact> 0.79275419E-02</totfact>
</mgrwt>
</event>
<event>
12    1  0.2039668E-012  0.4427674E+04  0.7818608E-02  0.7923423E-01
          2   -1    0    0  501    0  0.00000000000E+00  0.00000000000E+00  0.41597663520E+04  0.41597663520E+04  0.00000000000E+00 0.  1.
         -2   -1    0    0    0  501 -0.00000000000E+00 -0.00000000000E+00 -0.11782088380E+04  0.11782088380E+04  0.00000000000E+00 0. -1.
    9900016    2    1    2    0    0 -0.12853619662E+04 -0.83461422286E+03  0.17250846751E+04  0.31642329404E+04  0.21651135489E+04 0.  0.
        -24    2    3    3    0    0 -0.48767370029E+03 -0.14311992752E+04  0.97997381872E+03  0.18038411632E+04  0.85657769029E+02 0.  0.
         23    2    3    3    0    0  0.48123686226E+02  0.33605222054E+02  0.15712501984E+02  0.10964555707E+03  0.91269191630E+02 0.  0.
        -15    1    5    5    0    0  0.34481659539E+02  0.38832252196E+02  0.50176981111E+02  0.72212589544E+02  0.00000000000E+00 0.  1.
        -15    1    3    3    0    0 -0.84581195212E+03  0.56297983032E+03  0.72939835436E+03  0.12507462201E+04  0.00000000000E+00 0.  1.
         15    1    5    5    0    0  0.13642026687E+02 -0.52270301421E+01 -0.34464479126E+02  0.37432967524E+02  0.00000000000E+00 0. -1.
         15    1    4    4    0    0 -0.24596419285E+03 -0.59097684189E+03  0.41773879714E+03  0.76436752577E+03  0.00000000000E+00 0. -1.
        -16    1    4    4    0    0 -0.24170950744E+03 -0.84022243335E+03  0.56223502158E+03  0.10394736375E+04  0.00000000000E+00 0.  1.
         16    1    1    2    0    0  0.13762360947E+04  0.88401014001E+03  0.11681108274E+04  0.20099708011E+04  0.00000000000E+00 0. -1.
    9900018    1    1    2    0    0 -0.90874128532E+02 -0.49395917150E+02  0.88362011530E+02  0.16377144850E+03  0.91187600000E+02 0.  0.
<mgrwt>
<rscale>  0 0.44276736E+04</rscale>
<asrwt>0</asrwt>
<pdfrwt beam="1">  1        2 0.63996405E+00 0.44276736E+04</pdfrwt>
<pdfrwt beam="2">  1       -2 0.18126290E+00 0.44276736E+04</pdfrwt>
<totfact> 0.33936886E-02</totfact>
</mgrwt>
</event>
<event>
12    1  0.2039668E-012  0.4006241E+04  0.7818608E-02  0.8003289E-01
         -2   -1    0    0    0  501 -0.00000000000E+00  0.00000000000E+00  0.14644769479E+04  0.14644769479E+04  0.00000000000E+00 0.  1.
          2   -1    0    0  501    0  0.00000000000E+00 -0.00000000000E+00 -0.27398808612E+04  0.27398808612E+04  0.00000000000E+00 0. -1.
    9900016    2    1    2    0    0  0.22510666351E+03  0.55922706409E+03  0.45967359694E+03  0.23675393952E+04  0.22428854302E+04 0.  0.
        -24    2    3    3    0    0 -0.43558035349E+03  0.40610117125E+03  0.31806205052E+03  0.67991866884E+03  0.80483057940E+02 0.  0.
         23    2    3    3    0    0 -0.38602819357E+03 -0.16164711999E+03 -0.15637731921E+03  0.45605775854E+03  0.91581960715E+02 0.  0.
        -15    1    5    5    0    0 -0.11752819756E+03 -0.76844214270E+02 -0.15693234969E+02  0.14129468536E+03  0.00000000000E+00 0. -1.
        -15    1    3    3    0    0  0.10590192763E+04  0.28324813544E+03  0.25670184867E+03  0.11258983848E+04  0.00000000000E+00 0.  1.
         15    1    5    5    0    0 -0.26849999602E+03 -0.84802905723E+02 -0.14068408424E+03  0.31476307318E+03  0.00000000000E+00 0.  1.
         15    1    4    4    0    0 -0.19683732219E+03  0.18808022014E+03  0.19084643947E+03  0.33247776478E+03  0.00000000000E+00 0. -1.
        -16    1    4    4    0    0 -0.23874303131E+03  0.21802095110E+03  0.12721561105E+03  0.34744090406E+03  0.00000000000E+00 0.  1.
         16    1    1    2    0    0 -0.22510666351E+03 -0.55922706409E+03 -0.17350775102E+04  0.18368184139E+04  0.00000000000E+00 0. -1.
    9900018    1    3    3    0    0 -0.12304065755E+02  0.31524877399E+02  0.41287016950E+02  0.10566458296E+03  0.91187600000E+02 0.  0.
<mgrwt>
<rscale>  0 0.40062413E+04</rscale>
<asrwt>0</asrwt>
<pdfrwt beam="1">  1        2 0.42152014E+00 0.40062413E+04</pdfrwt>
<pdfrwt beam="2">  1       -2 0.22530414E+00 0.40062413E+04</pdfrwt>
<totfact> 0.18131105E-01</totfact>
</mgrwt>
</event>
<event>
12    1  0.2039668E-012  0.2537648E+04  0.7818608E-02  0.8389695E-01
         -2   -1    0    0    0  501 -0.00000000000E+00  0.00000000000E+00  0.62378324436E+03  0.62378324436E+03  0.00000000000E+00 0.  1.
          2   -1    0    0  501    0  0.00000000000E+00 -0.00000000000E+00 -0.25808864371E+04  0.25808864371E+04  0.00000000000E+00 0. -1.
    9900016    2    1    2    0    0 -0.99923055769E+02  0.24290998812E+03 -0.17379017298E+04  0.27775487772E+04  0.21506940526E+04 0.  0.
        -24    2    3    3    0    0  0.52761908200E+03  0.57347987766E+03 -0.17665255250E+02  0.78359707808E+03  0.80319697246E+02 0.  0.
         23    2    3    3    0    0  0.86856189773E+02  0.97717602015E+02 -0.42616508421E+03  0.45498584209E+03  0.91119207927E+02 0.  0.
        -15    1    3    3    0    0 -0.71439832754E+03 -0.42828749156E+03 -0.12940713903E+04  0.15389658570E+04  0.00000000000E+00 0.  1.
        -15    1    5    5    0    0  0.77388327936E+02  0.11530009782E+03 -0.35923073416E+03  0.38513606197E+03  0.00000000000E+00 0.  1.
         15    1    5    5    0    0  0.94678618373E+01 -0.17582495809E+02 -0.66934350046E+02  0.69849780120E+02  0.00000000000E+00 0. -1.
         15    1    4    4    0    0  0.10237612504E+03  0.10670972252E+03 -0.34860967687E+02  0.15193130989E+03  0.00000000000E+00 0. -1.
        -16    1    4    4    0    0  0.42524295696E+03  0.46677015515E+03  0.17195712436E+02  0.63166576819E+03  0.00000000000E+00 0.  1.
         16    1    1    2    0    0  0.11355863565E+03 -0.24043828137E+03 -0.20045876024E+03  0.33300126942E+03  0.00000000000E+00 0. -1.
    9900018    1    1    2    0    0 -0.13635579886E+02 -0.24717067475E+01 -0.18742702767E+02  0.94119634901E+02  0.91187600000E+02 0.  0.
<mgrwt>
<rscale>  0 0.25376475E+04</rscale>
<asrwt>0</asrwt>
<pdfrwt beam="1">  1        2 0.39705945E+00 0.25376475E+04</pdfrwt>
<pdfrwt beam="2">  1       -2 0.95966654E-01 0.25376475E+04</pdfrwt>
<totfact> 0.25267083E+00</totfact>
</mgrwt>
</event>
<event>
12    1  0.2039668E-012  0.2730650E+04  0.7818608E-02  0.8325128E-01
          1   -1    0    0  501    0  0.00000000000E+00  0.00000000000E+00  0.11336252304E+04  0.11336252304E+04  0.00000000000E+00 0. -1.
         -1   -1    0    0    0  501 -0.00000000000E+00 -0.00000000000E+00 -0.16443813453E+04  0.16443813453E+04  0.00000000000E+00 0.  1.
    9900016    2    1    2    0    0 -0.28889807629E+03  0.20028513431E+03 -0.16240580460E+03  0.22831084324E+04  0.22500293854E+04 0.  0.
         24    2    3    3    0    0  0.53422423730E+01  0.81024538265E+03 -0.16335179265E+03  0.83059804526E+03  0.81750749094E+02 0.  0.
         23    2    3    3    0    0  0.31973535849E+03  0.89030230393E+02 -0.24982024953E+03  0.42706919743E+03  0.99100256974E+02 0.  0.
        -15    1    4    4    0    0  0.42772194510E+02  0.40065573954E+03 -0.72921871280E+02  0.40947781571E+03  0.00000000000E+00 0.  1.
        -15    1    5    5    0    0  0.65932469416E+02  0.61433530838E+02 -0.51529736746E+02  0.10380984059E+03  0.00000000000E+00 0.  1.
         15    1    3    3    0    0 -0.56793442592E+03 -0.68437671830E+03  0.24310276364E+03  0.92196526962E+03  0.00000000000E+00 0. -1.
         15    1    5    5    0    0  0.25380288907E+03  0.27596699555E+02 -0.19829051278E+03  0.32325935684E+03  0.00000000000E+00 0. -1.
        -16    1    1    2    0    0  0.28889807629E+03 -0.20028513431E+03 -0.34835031034E+03  0.49489814328E+03  0.00000000000E+00 0.  1.
         16    1    4    4    0    0 -0.37429952137E+02  0.40958964311E+03 -0.90429921369E+02  0.42112022955E+03  0.00000000000E+00 0. -1.
    9900018    1    3    3    0    0 -0.46041251227E+02 -0.14613760430E+02  0.76634739431E+01  0.10347592007E+03  0.91187600000E+02 0.  0.
<mgrwt>
<rscale>  0 0.27306499E+04</rscale>
<asrwt>0</asrwt>
<pdfrwt beam="1">  1        1 0.17440388E+00 0.27306499E+04</pdfrwt>
<pdfrwt beam="2">  1       -1 0.25298174E+00 0.27306499E+04</pdfrwt>
<totfact> 0.69448801E-01</totfact>
</mgrwt>
</event>
<event>
12    1  0.2039668E-012  0.2578760E+04  0.7818608E-02  0.8375452E-01
         -1   -1    0    0    0  501 -0.00000000000E+00  0.00000000000E+00  0.10460062178E+04  0.10460062178E+04  0.00000000000E+00 0.  1.
          1   -1    0    0  501    0  0.00000000000E+00 -0.00000000000E+00 -0.15893791653E+04  0.15893791653E+04  0.00000000000E+00 0. -1.
    9900016    2    1    2    0    0 -0.20998189791E+03 -0.16684944373E+03 -0.33376945705E+03  0.21989344678E+04  0.21568448272E+04 0.  0.
         24    2    3    3    0    0  0.37790025000E+03 -0.12266495584E+03  0.50264682451E+03  0.64514075315E+03  0.75481592732E+02 0.  0.
         23    2    3    3    0    0  0.21750360027E+03  0.33855121358E+03 -0.20082316173E+03  0.45875424749E+03  0.90558141325E+02 0.  0.
        -15    1    5    5    0    0  0.66558569040E+02  0.90287775746E+02 -0.10270004218E+03  0.15208295179E+03  0.00000000000E+00 0. -1.
        -15    1    4    4    0    0  0.30657127961E+03 -0.79572167998E+02  0.43334475941E+03  0.53675446893E+03  0.00000000000E+00 0.  1.
         15    1    5    5    0    0  0.15094503123E+03  0.24826343783E+03 -0.98123119547E+02  0.30667129570E+03  0.00000000000E+00 0.  1.
         15    1    3    3    0    0 -0.80538574818E+03 -0.38273570147E+03 -0.63559311983E+03  0.10950394671E+04  0.00000000000E+00 0. -1.
        -16    1    1    2    0    0  0.19235223036E+03  0.20590071612E+03 -0.16197506760E+03  0.32500831981E+03  0.00000000000E+00 0.  1.
         16    1    4    4    0    0  0.71328970389E+02 -0.43092787840E+02  0.69302065099E+02  0.10838628422E+03  0.00000000000E+00 0. -1.
    9900018    1    1    2    0    0  0.17629667548E+02 -0.39051272382E+02 -0.47628422852E+02  0.11144259558E+03  0.91187600000E+02 0.  0.
<mgrwt>
<rscale>  0 0.25787598E+04</rscale>
<asrwt>0</asrwt>
<pdfrwt beam="1">  1        1 0.24451987E+00 0.25787598E+04</pdfrwt>
<pdfrwt beam="2">  1       -1 0.16092404E+00 0.25787598E+04</pdfrwt>
<totfact> 0.14399631E+00</totfact>
</mgrwt>
</event>
