<event>
12    1  0.1652820E-010  0.1437502E+04  0.7818608E-02  0.8927111E-01
         -2   -1    0    0    0  501 -0.00000000000E+00  0.00000000000E+00  0.50062825203E+03  0.50062825203E+03  0.00000000000E+00 0.  1.
          2   -1    0    0  501    0  0.00000000000E+00 -0.00000000000E+00 -0.10319094465E+04  0.10319094465E+04  0.00000000000E+00 0. -1.
    9900016    2    1    2    0    0  0.23845142883E+02 -0.96381692258E+02 -0.34889300187E+03  0.80545261500E+03  0.71914502488E+03 0.  0.
         25    2    3    3    0    0 -0.15348524500E+03 -0.35841389519E+03 -0.18932860448E+03  0.45109723017E+03  0.12500059955E+03 0.  0.
         23    2    4    4    0    0 -0.11926256841E+03 -0.33331188805E+03 -0.15901702595E+03  0.39202681679E+03  0.55481849336E+02 0.  0.
        -15    1    5    5    0    0 -0.83580962507E+02 -0.29197480102E+03 -0.13335701885E+03  0.33169135684E+03  0.00000000000E+00 0.  1.
        -15    1    4    4    0    0 -0.20775268199E+02 -0.74861949657E+01 -0.71302039223E+00  0.22094417437E+02  0.00000000000E+00 0.  1.
         15    1    5    5    0    0 -0.35681605902E+02 -0.41337087026E+02 -0.25660007095E+02  0.60335459952E+02  0.00000000000E+00 0. -1.
         15    1    4    4    0    0 -0.13447408397E+02 -0.17615812179E+02 -0.29598558145E+02  0.36975995937E+02  0.00000000000E+00 0. -1.
        -16    1    1    2    0    0 -0.31280009603E+03  0.96290174019E+02  0.67690056968E+02  0.33421197091E+03  0.00000000000E+00 0.  1.
         16    1    3    3    0    0  0.17733038789E+03  0.26203220294E+03 -0.15956439739E+03  0.35435538483E+03  0.00000000000E+00 0. -1.
    9900018    1    1    2    0    0  0.28895495314E+03  0.91518239171E-01 -0.25007824954E+03  0.39287311260E+03  0.91187600000E+02 0.  0.
<mgrwt>
<rscale>  0 0.14375020E+04</rscale>
<asrwt>0</asrwt>
<pdfrwt beam="1">  1        2 0.15875530E+00 0.14375020E+04</pdfrwt>
<pdfrwt beam="2">  1       -2 0.77019730E-01 0.14375020E+04</pdfrwt>
<totfact> 0.35119090E+01</totfact>
</mgrwt>
</event>
<event>
12    1  0.1652820E-010  0.1500767E+04  0.7818608E-02  0.8883943E-01
          1   -1    0    0  501    0  0.00000000000E+00  0.00000000000E+00  0.11242494183E+04  0.11242494183E+04  0.00000000000E+00 0.  1.
         -1   -1    0    0    0  501 -0.00000000000E+00 -0.00000000000E+00 -0.50084589893E+03  0.50084589893E+03  0.00000000000E+00 0. -1.
    9900016    2    1    2    0    0 -0.75882933588E+02 -0.19019400121E+02  0.63477117441E+03  0.95858058469E+03  0.71401844254E+03 0.  0.
         25    2    3    3    0    0 -0.17664342436E+03 -0.17045464018E+03 -0.22710182192E+02  0.27640242416E+03  0.12499945591E+03 0.  0.
         23    2    4    4    0    0 -0.13367493106E+03 -0.10992478437E+03 -0.17085721908E+02  0.18597862258E+03  0.65906606277E+02 0.  0.
        -15    1    4    4    0    0 -0.23696721731E+02 -0.12894265343E+02 -0.23741986305E+02  0.35937148096E+02  0.00000000000E+00 0.  1.
        -15    1    5    5    0    0 -0.18735844960E+02 -0.43830701749E+02 -0.23684632454E+02  0.53227099457E+02  0.00000000000E+00 0.  1.
         15    1    5    5    0    0 -0.11493908610E+03 -0.66094082626E+02  0.65989105463E+01  0.13275152313E+03  0.00000000000E+00 0. -1.
         15    1    4    4    0    0 -0.19271771564E+02 -0.47635590464E+02  0.18117526021E+02  0.54486653478E+02  0.00000000000E+00 0. -1.
        -16    1    3    3    0    0  0.10076049077E+03  0.15143524006E+03  0.65748135660E+03  0.68217816053E+03  0.00000000000E+00 0.  1.
         16    1    1    2    0    0 -0.23604951356E+03 -0.11172775805E+03 -0.13632019481E+03  0.29459406016E+03  0.00000000000E+00 0. -1.
    9900018    1    1    2    0    0  0.31193244714E+03  0.13074715817E+03  0.12495253978E+03  0.37192067238E+03  0.91187600000E+02 0.  0.
<mgrwt>
<rscale>  0 0.15007674E+04</rscale>
<asrwt>0</asrwt>
<pdfrwt beam="1">  1        1 0.17296145E+00 0.15007674E+04</pdfrwt>
<pdfrwt beam="2">  1       -1 0.77053215E-01 0.15007674E+04</pdfrwt>
<totfact> 0.19867959E+01</totfact>
</mgrwt>
</event>
<event>
12    1  0.1652820E-010  0.1405082E+04  0.7818608E-02  0.8950148E-01
          2   -1    0    0  501    0  0.00000000000E+00  0.00000000000E+00  0.70134732021E+03  0.70134732021E+03  0.00000000000E+00 0. -1.
         -2   -1    0    0    0  501 -0.00000000000E+00 -0.00000000000E+00 -0.70373673152E+03  0.70373673152E+03  0.00000000000E+00 0.  1.
    9900016    2    1    2    0    0 -0.19225037920E+03 -0.60027488434E+02 -0.30067835655E+03  0.80245038272E+03  0.71620921172E+03 0.  0.
         25    2    3    3    0    0 -0.33471686772E+03 -0.21792513881E+03 -0.38974249589E+03  0.57188414655E+03  0.12500206524E+03 0.  0.
         23    2    4    4    0    0 -0.27644156876E+03 -0.18998934675E+03 -0.30318966085E+03  0.45586545765E+03  0.58081427383E+02 0.  0.
        -15    1    5    5    0    0 -0.20245859989E+03 -0.16735159393E+03 -0.22492297858E+03  0.34581264719E+03  0.00000000000E+00 0. -1.
        -15    1    4    4    0    0 -0.17531621677E+02 -0.13129649141E+02 -0.32929838027E+01  0.22149248013E+02  0.00000000000E+00 0.  1.
         15    1    4    4    0    0 -0.40743677285E+02 -0.14806142913E+02 -0.83259851229E+02  0.93869440892E+02  0.00000000000E+00 0. -1.
         15    1    5    5    0    0 -0.73982968871E+02 -0.22637752822E+02 -0.78266682271E+02  0.11005281046E+03  0.00000000000E+00 0.  1.
        -16    1    3    3    0    0  0.14246648853E+03  0.15789765037E+03  0.89064139334E+02  0.23056623617E+03  0.00000000000E+00 0.  1.
         16    1    1    2    0    0 -0.42295893519E+02  0.13741033475E+03  0.30722772825E+03  0.33920409743E+03  0.00000000000E+00 0. -1.
    9900018    1    1    2    0    0  0.23454627271E+03 -0.77382846317E+02 -0.89387830075E+01  0.26342957158E+03  0.91187600000E+02 0.  0.
<mgrwt>
<rscale>  0 0.14050820E+04</rscale>
<asrwt>0</asrwt>
<pdfrwt beam="1">  1        2 0.10789959E+00 0.14050820E+04</pdfrwt>
<pdfrwt beam="2">  1       -2 0.10826719E+00 0.14050820E+04</pdfrwt>
<totfact> 0.27154288E+01</totfact>
</mgrwt>
</event>
<event>
12    1  0.1652820E-010  0.1494330E+04  0.7818608E-02  0.8888232E-01
         -2   -1    0    0    0  501 -0.00000000000E+00  0.00000000000E+00  0.43937824019E+03  0.43937824019E+03  0.00000000000E+00 0.  1.
          2   -1    0    0  501    0  0.00000000000E+00 -0.00000000000E+00 -0.12705583185E+04  0.12705583185E+04  0.00000000000E+00 0. -1.
    9900016    2    1    2    0    0 -0.48624925282E+02 -0.18473916178E+03 -0.33174255827E+03  0.79698418977E+03  0.69902627456E+03 0.  0.
         25    2    3    3    0    0 -0.17321006872E+03  0.19502209823E+03 -0.19677140193E+02  0.28990934546E+03  0.12499956814E+03 0.  0.
         23    2    4    4    0    0 -0.67763787566E+02  0.83997794860E+02 -0.46458677722E+02  0.13053428928E+03  0.56861511548E+02 0.  0.
        -15    1    5    5    0    0 -0.40942703443E+02  0.81778397371E+02 -0.21764710580E+02  0.94009115879E+02  0.00000000000E+00 0.  1.
        -15    1    4    4    0    0 -0.40902678420E+02  0.58858306869E+02  0.26407905523E+02  0.76385252920E+02  0.00000000000E+00 0. -1.
         15    1    4    4    0    0 -0.64543602729E+02  0.52165996503E+02  0.37363200653E+00  0.82989803261E+02  0.00000000000E+00 0. -1.
         15    1    5    5    0    0 -0.26821084123E+02  0.22193974891E+01 -0.24693967142E+02  0.36525173401E+02  0.00000000000E+00 0.  1.
        -16    1    1    2    0    0  0.12266482375E+02  0.44927605543E+03 -0.17330487698E+03  0.48169909794E+03  0.00000000000E+00 0.  1.
         16    1    3    3    0    0  0.12458514343E+03 -0.37976126002E+03 -0.31206541807E+03  0.50707484431E+03  0.00000000000E+00 0. -1.
    9900018    1    1    2    0    0  0.36358442907E+02 -0.26453689364E+03 -0.32613264306E+03  0.43125327098E+03  0.91187600000E+02 0.  0.
<mgrwt>
<rscale>  0 0.14943302E+04</rscale>
<asrwt>0</asrwt>
<pdfrwt beam="1">  1        2 0.19547051E+00 0.14943302E+04</pdfrwt>
<pdfrwt beam="2">  1       -2 0.67596653E-01 0.14943302E+04</pdfrwt>
<totfact> 0.33352634E+01</totfact>
</mgrwt>
</event>
<event>
11    1  0.1652820E-010  0.1277189E+04  0.7818608E-02  0.9047852E-01
         -1   -1    0    0    0  501 -0.00000000000E+00  0.00000000000E+00  0.24437334294E+03  0.24437334294E+03  0.00000000000E+00 0.  1.
          1   -1    0    0  501    0  0.00000000000E+00 -0.00000000000E+00 -0.16687707585E+04  0.16687707585E+04  0.00000000000E+00 0. -1.
    9900016    2    1    2    0    0 -0.21049941310E+03  0.27345420917E+03 -0.76679792254E+03  0.11077873266E+04  0.72119796147E+03 0.  0.
         25    2    3    3    0    0 -0.17601636915E+03 -0.33704440545E+02 -0.76822680938E+03  0.79869582218E+03  0.12499933677E+03 0.  0.
        -15    1    4    4    0    0 -0.68369194619E+01  0.16715847683E+02 -0.28512256463E+02  0.33750730364E+02  0.00000000000E+00 0.  1.
        -15    1    4    4    0    0 -0.59475214696E+02  0.84995783342E+01 -0.18742093437E+03  0.19681501628E+03  0.00000000000E+00 0.  1.
         15    1    4    4    0    0 -0.11718886870E+02 -0.24663192692E+02 -0.16117534563E+03  0.16347200807E+03  0.00000000000E+00 0. -1.
         15    1    4    4    0    0 -0.97985348123E+02 -0.34256673870E+02 -0.39111827292E+03  0.40465806746E+03  0.00000000000E+00 0. -1.
        -16    1    3    3    0    0 -0.34483043947E+02  0.30715864972E+03  0.14288868356E+01  0.30909150447E+03  0.00000000000E+00 0.  1.
         16    1    1    2    0    0  0.11271045144E+03 -0.25708690962E+03 -0.59274032181E+03  0.65584938367E+03  0.00000000000E+00 0. -1.
    9900018    1    1    2    0    0  0.97788961654E+02 -0.16367299552E+02 -0.64859171193E+02  0.14950739111E+03  0.91187600000E+02 0.  0.
<mgrwt>
<rscale>  0 0.12771892E+04</rscale>
<asrwt>0</asrwt>
<pdfrwt beam="1">  1        1 0.25673397E+00 0.12771892E+04</pdfrwt>
<pdfrwt beam="2">  1       -1 0.37595898E-01 0.12771892E+04</pdfrwt>
<totfact> 0.33604904E+01</totfact>
</mgrwt>
</event>
<event>
11    1  0.1883045E-010  0.2357608E+04  0.7818608E-02  0.8455547E-01
          1   -1    0    0  501    0  0.00000000000E+00  0.00000000000E+00  0.15737511424E+04  0.15737511424E+04  0.00000000000E+00 0. -1.
         -1   -1    0    0    0  501 -0.00000000000E+00 -0.00000000000E+00 -0.88297234424E+03  0.88297234424E+03  0.00000000000E+00 0.  1.
    9900016    2    1    2    0    0 -0.31442019373E+03 -0.37187796883E+03 -0.11874302109E+03  0.87848220665E+03  0.72144147400E+03 0.  0.
         25    2    3    3    0    0 -0.12164868760E+03 -0.14625165901E+03  0.29294424990E+03  0.37098393635E+03  0.12499918607E+03 0.  0.
        -15    1    4    4    0    0  0.12670219167E+01 -0.11366166309E+02  0.21494847722E+02  0.24347968286E+02  0.00000000000E+00 0. -1.
        -15    1    4    4    0    0 -0.42696335039E+02 -0.85679610344E+02  0.10488966237E+03  0.14200638692E+03  0.00000000000E+00 0. -1.
         15    1    4    4    0    0 -0.77561511946E+02 -0.59812044956E+02  0.11113213827E+03  0.14813379430E+03  0.00000000000E+00 0.  1.
         15    1    4    4    0    0 -0.26578625300E+01  0.10606162595E+02  0.55427601539E+02  0.56495786839E+02  0.00000000000E+00 0.  1.
        -16    1    3    3    0    0 -0.19277150613E+03 -0.22562630982E+03 -0.41168727099E+03  0.50749827030E+03  0.00000000000E+00 0.  1.
         16    1    1    2    0    0  0.53926922936E+03  0.45911936307E+03  0.10224889271E+04  0.12438189166E+04  0.00000000000E+00 0. -1.
    9900018    1    1    2    0    0 -0.22484903563E+03 -0.87241394238E+02 -0.21296710786E+03  0.33442236336E+03  0.91187600000E+02 0.  0.
<mgrwt>
<rscale>  0 0.23576079E+04</rscale>
<asrwt>0</asrwt>
<pdfrwt beam="1">  1        1 0.24211556E+00 0.23576079E+04</pdfrwt>
<pdfrwt beam="2">  1       -1 0.13584190E+00 0.23576079E+04</pdfrwt>
<totfact> 0.23718324E+00</totfact>
</mgrwt>
</event>
<event>
11    1  0.1652820E-010  0.1838763E+04  0.7818608E-02  0.8685953E-01
          2   -1    0    0  501    0  0.00000000000E+00  0.00000000000E+00  0.15640669135E+04  0.15640669135E+04  0.00000000000E+00 0. -1.
         -2   -1    0    0    0  501 -0.00000000000E+00 -0.00000000000E+00 -0.54042595616E+03  0.54042595616E+03  0.00000000000E+00 0.  1.
    9900016    2    1    2    0    0 -0.20524214930E+03 -0.24052002773E+03  0.66679769634E+03  0.10149222355E+04  0.69675946543E+03 0.  0.
         25    2    3    3    0    0 -0.26379216771E+02  0.35208474128E+02 -0.10951849817E+03  0.17190088983E+03  0.12498045749E+03 0.  0.
        -15    1    4    4    0    0 -0.28068006393E+02 -0.89816448872E+01 -0.42683586540E+02  0.51868791076E+02  0.00000000000E+00 0.  1.
        -15    1    4    4    0    0  0.10603328985E+02  0.60707859758E+01  0.49125927761E+00  0.12228097301E+02  0.00000000000E+00 0.  1.
         15    1    4    4    0    0 -0.26773410458E+02  0.33242462648E+02 -0.76149433188E+02  0.87296122510E+02  0.00000000000E+00 0. -1.
         15    1    4    4    0    0  0.17858871095E+02  0.48768703916E+01  0.88232622764E+01  0.20507878945E+02  0.00000000000E+00 0. -1.
        -16    1    1    2    0    0  0.39442030266E+03  0.28536531291E+03 -0.17395956769E+03  0.51697453337E+03  0.00000000000E+00 0.  1.
         16    1    3    3    0    0 -0.17886293253E+03 -0.27572850186E+03  0.77631619451E+03  0.84302134566E+03  0.00000000000E+00 0. -1.
    9900018    1    1    2    0    0 -0.18917815336E+03 -0.44845285180E+02  0.53080282869E+03  0.57259610080E+03  0.91187600000E+02 0.  0.
<mgrwt>
<rscale>  0 0.18387630E+04</rscale>
<asrwt>0</asrwt>
<pdfrwt beam="1">  1        2 0.24062568E+00 0.18387630E+04</pdfrwt>
<pdfrwt beam="2">  1       -2 0.83142455E-01 0.18387630E+04</pdfrwt>
<totfact> 0.13929180E+01</totfact>
</mgrwt>
</event>
<event>
11    1  0.1652820E-010  0.1160905E+04  0.7818608E-02  0.9147782E-01
          2   -1    0    0  501    0  0.00000000000E+00  0.00000000000E+00  0.71636176293E+03  0.71636176293E+03  0.00000000000E+00 0. -1.
         -2   -1    0    0    0  501 -0.00000000000E+00 -0.00000000000E+00 -0.47032805594E+03  0.47032805594E+03  0.00000000000E+00 0.  1.
    9900016    2    1    2    0    0 -0.22513682932E+03  0.29697876135E+02 -0.12318371172E+02  0.74888127605E+03  0.71351444806E+03 0.  0.
         25    2    3    3    0    0  0.94422615369E+02  0.78919949240E+02 -0.27913717548E+03  0.32967568747E+03  0.12499802995E+03 0.  0.
        -15    1    4    4    0    0  0.27045962977E+02 -0.65538228176E+01 -0.50248409729E+02  0.57439876281E+02  0.00000000000E+00 0.  1.
        -15    1    4    4    0    0  0.14913748894E+02  0.48195443737E+02 -0.13555881195E+03  0.14464235963E+03  0.00000000000E+00 0.  1.
         15    1    4    4    0    0  0.10226250317E+02  0.41049858797E+02 -0.61166902143E+02  0.74371076505E+02  0.00000000000E+00 0. -1.
         15    1    4    4    0    0  0.42236653180E+02 -0.37715304764E+01 -0.32163051658E+02  0.53222375050E+02  0.00000000000E+00 0. -1.
        -16    1    3    3    0    0 -0.31955944469E+03 -0.49222073105E+02  0.26681880431E+03  0.41920558859E+03  0.00000000000E+00 0.  1.
         16    1    1    2    0    0  0.56505445909E+02  0.95194655188E+02  0.14511587323E+03  0.18251987415E+03  0.00000000000E+00 0. -1.
    9900018    1    1    2    0    0  0.16863138341E+03 -0.12489253132E+03  0.11323620492E+03  0.25528866867E+03  0.91187600000E+02 0.  0.
<mgrwt>
<rscale>  0 0.11609049E+04</rscale>
<asrwt>0</asrwt>
<pdfrwt beam="1">  1        2 0.11020950E+00 0.11609049E+04</pdfrwt>
<pdfrwt beam="2">  1       -2 0.72358162E-01 0.11609049E+04</pdfrwt>
<totfact> 0.68064534E+01</totfact>
</mgrwt>
</event>
<event>
12    1  0.1652820E-010  0.1521241E+04  0.7818608E-02  0.8870450E-01
         -2   -1    0    0    0  501 -0.00000000000E+00  0.00000000000E+00  0.13386620618E+04  0.13386620618E+04  0.00000000000E+00 0.  1.
          2   -1    0    0  501    0  0.00000000000E+00 -0.00000000000E+00 -0.43218022006E+03  0.43218022006E+03  0.00000000000E+00 0. -1.
    9900016    2    1    2    0    0 -0.35545575865E+03 -0.45435643427E+02  0.38412824201E+03  0.87831333696E+03  0.70389389650E+03 0.  0.
         25    2    3    3    0    0  0.78232785252E+02 -0.19784938714E+03 -0.43397433790E+02  0.25054434613E+03  0.12499753372E+03 0.  0.
         23    2    4    4    0    0  0.90532246133E+02 -0.14286058064E+03 -0.56671239135E+02  0.18699375503E+03  0.56123096702E+02 0.  0.
        -15    1    5    5    0    0  0.35791470115E+02 -0.31002426030E+02  0.57353456855E+01  0.47697735197E+02  0.00000000000E+00 0.  1.
        -15    1    4    4    0    0  0.55587649434E+01 -0.33596870624E+02  0.45838245273E+01  0.34360748401E+02  0.00000000000E+00 0.  1.
         15    1    4    4    0    0 -0.17858225824E+02 -0.21391935881E+02  0.86899808176E+01  0.29189842701E+02  0.00000000000E+00 0. -1.
         15    1    5    5    0    0  0.54740776017E+02 -0.11185815461E+03 -0.62406584820E+02  0.13929601983E+03  0.00000000000E+00 0. -1.
        -16    1    1    2    0    0  0.14129463636E+03 -0.16262487683E+03  0.53841497941E+03  0.57991526526E+03  0.00000000000E+00 0.  1.
         16    1    3    3    0    0 -0.43368854391E+03  0.15241374371E+03  0.42752567580E+03  0.62776899084E+03  0.00000000000E+00 0. -1.
    9900018    1    1    2    0    0  0.21416112230E+03  0.20806052026E+03 -0.16061379674E+02  0.31261367965E+03  0.91187600000E+02 0.  0.
<mgrwt>
<rscale>  0 0.15212406E+04</rscale>
<asrwt>0</asrwt>
<pdfrwt beam="1">  1        2 0.66489265E-01 0.15212406E+04</pdfrwt>
<pdfrwt beam="2">  1       -2 0.20594801E+00 0.15212406E+04</pdfrwt>
<totfact> 0.85373699E+00</totfact>
</mgrwt>
</event>
<event>
12    1  0.1871574E-010  0.1204042E+04  0.7818608E-02  0.9109326E-01
          2   -1    0    0  501    0  0.00000000000E+00  0.00000000000E+00  0.73500807785E+03  0.73500807785E+03  0.00000000000E+00 0.  1.
         -2   -1    0    0    0  501 -0.00000000000E+00 -0.00000000000E+00 -0.49309551081E+03  0.49309551081E+03  0.00000000000E+00 0. -1.
    9900016    2    1    2    0    0  0.21527608059E+03 -0.70262004032E+02  0.20725386735E+01  0.75165734588E+03  0.71673142119E+03 0.  0.
         25    2    3    3    0    0 -0.91390230109E+02  0.17280548339E+03 -0.20439198917E+03  0.30921680658E+03  0.12500015595E+03 0.  0.
         23    2    4    4    0    0 -0.77964735244E+02  0.11027441268E+03 -0.15465675967E+03  0.21879697655E+03  0.75594031532E+02 0.  0.
        -15    1    5    5    0    0 -0.87708038887E+00  0.55970931382E+02 -0.84105245340E+02  0.10103072168E+03  0.00000000000E+00 0.  1.
        -15    1    4    4    0    0  0.13701060614E+02  0.18945304294E+02 -0.21833351525E+02  0.31989667950E+02  0.00000000000E+00 0. -1.
         15    1    4    4    0    0 -0.27126555478E+02  0.43585766418E+02 -0.27901877969E+02  0.58430162079E+02  0.00000000000E+00 0.  1.
         15    1    5    5    0    0 -0.77087654855E+02  0.54303481295E+02 -0.70551514334E+02  0.11776625487E+03  0.00000000000E+00 0. -1.
        -16    1    3    3    0    0  0.30666631070E+03 -0.24306748742E+03  0.20646452784E+03  0.44244053930E+03  0.00000000000E+00 0.  1.
         16    1    1    2    0    0 -0.27331165788E+03  0.27475947851E+02  0.23265351901E+03  0.35997479072E+03  0.00000000000E+00 0. -1.
    9900018    1    1    2    0    0  0.58035577288E+02  0.42786056181E+02  0.71865093560E+01  0.11647145206E+03  0.91187600000E+02 0.  0.
<mgrwt>
<rscale>  0 0.12040418E+04</rscale>
<asrwt>0</asrwt>
<pdfrwt beam="1">  1        2 0.11307817E+00 0.12040418E+04</pdfrwt>
<pdfrwt beam="2">  1       -2 0.75860848E-01 0.12040418E+04</pdfrwt>
<totfact> 0.59147180E+01</totfact>
</mgrwt>
</event>
<event>
11    1  0.1652820E-010  0.1120941E+04  0.7818608E-02  0.9185018E-01
          2   -1    0    0  501    0  0.00000000000E+00  0.00000000000E+00  0.39342962576E+03  0.39342962576E+03  0.00000000000E+00 0.  1.
         -2   -1    0    0    0  501 -0.00000000000E+00 -0.00000000000E+00 -0.79843365968E+03  0.79843365968E+03  0.00000000000E+00 0. -1.
    9900016    2    1    2    0    0  0.13106806351E+02  0.19531697144E+03 -0.86709940868E+02  0.73523166655E+03  0.70336795629E+03 0.  0.
         25    2    3    3    0    0 -0.22449276008E+02 -0.23316015092E+02 -0.36057750759E+03  0.38299870117E+03  0.12499703825E+03 0.  0.
        -15    1    4    4    0    0 -0.25242186363E+02 -0.26632324404E+02 -0.67394747101E+02  0.76736566332E+02  0.00000000000E+00 0.  1.
        -15    1    4    4    0    0  0.35730482671E+02  0.31678206276E+00 -0.20013199411E+03  0.20329678505E+03  0.00000000000E+00 0.  1.
         15    1    4    4    0    0 -0.20781577513E+02  0.11175564987E+02 -0.29645191018E+02  0.37889372747E+02  0.00000000000E+00 0. -1.
         15    1    4    4    0    0 -0.12155994804E+02 -0.81760377383E+01 -0.63405575356E+02  0.65075977050E+02  0.00000000000E+00 0. -1.
        -16    1    3    3    0    0  0.35556082360E+02  0.21863298654E+03  0.27386756672E+03  0.35223296537E+03  0.00000000000E+00 0.  1.
         16    1    1    2    0    0 -0.49552805067E+02 -0.19739645843E+03 -0.29023052197E+03  0.35447792339E+03  0.00000000000E+00 0. -1.
    9900018    1    1    2    0    0  0.36445998715E+02  0.20794869870E+01 -0.28063571093E+02  0.10215369550E+03  0.91187600000E+02 0.  0.
<mgrwt>
<rscale>  0 0.11209415E+04</rscale>
<asrwt>0</asrwt>
<pdfrwt beam="1">  1        2 0.60527635E-01 0.11209415E+04</pdfrwt>
<pdfrwt beam="2">  1       -2 0.12283595E+00 0.11209415E+04</pdfrwt>
<totfact> 0.40227685E+01</totfact>
</mgrwt>
</event>
<event>
11    1  0.1652820E-010  0.1691942E+04  0.7818608E-02  0.8765973E-01
         -1   -1    0    0    0  501 -0.00000000000E+00  0.00000000000E+00  0.66626232300E+03  0.66626232300E+03  0.00000000000E+00 0.  1.
          1   -1    0    0  501    0  0.00000000000E+00 -0.00000000000E+00 -0.10741521707E+04  0.10741521707E+04  0.00000000000E+00 0. -1.
    9900016    2    1    2    0    0 -0.91445205270E+02 -0.29124954742E+02 -0.79622932691E+03  0.10781090381E+04  0.72050500929E+03 0.  0.
         25    2    3    3    0    0  0.25152284583E+02 -0.25422847004E+03 -0.48426651952E+02  0.28850444849E+03  0.12499969511E+03 0.  0.
        -15    1    4    4    0    0 -0.74367180227E+00 -0.23881748871E+02  0.22510031349E+02  0.32826703889E+02  0.00000000000E+00 0.  1.
        -15    1    4    4    0    0  0.48597798563E+02 -0.13150496033E+03 -0.37069977005E+02  0.14501546059E+03  0.00000000000E+00 0.  1.
         15    1    4    4    0    0 -0.58097094163E+01 -0.68534334257E+02 -0.32148983439E+02  0.75922755691E+02  0.00000000000E+00 0. -1.
         15    1    4    4    0    0 -0.16892132761E+02 -0.30307426590E+02 -0.17177228567E+01  0.34739528315E+02  0.00000000000E+00 0. -1.
        -16    1    1    2    0    0 -0.12561719213E+03  0.83478695319E+01  0.40621561913E+03  0.42527696282E+03  0.00000000000E+00 0.  1.
         16    1    3    3    0    0 -0.11659748985E+03  0.22510351530E+03 -0.74780267496E+03  0.78960458960E+03  0.00000000000E+00 0. -1.
    9900018    1    1    2    0    0  0.21706239740E+03  0.20777085210E+02 -0.17876139944E+02  0.23702849282E+03  0.91187600000E+02 0.  0.
<mgrwt>
<rscale>  0 0.16919422E+04</rscale>
<asrwt>0</asrwt>
<pdfrwt beam="1">  1        1 0.16525418E+00 0.16919422E+04</pdfrwt>
<pdfrwt beam="2">  1       -1 0.10250190E+00 0.16919422E+04</pdfrwt>
<totfact> 0.11373646E+01</totfact>
</mgrwt>
</event>
<event>
12    1  0.1652820E-010  0.1712676E+04  0.7818608E-02  0.8754168E-01
         -2   -1    0    0    0  501 -0.00000000000E+00  0.00000000000E+00  0.26194736460E+03  0.26194736460E+03  0.00000000000E+00 0.  1.
          2   -1    0    0  501    0  0.00000000000E+00 -0.00000000000E+00 -0.27994721269E+04  0.27994721269E+04  0.00000000000E+00 0. -1.
    9900016    2    1    2    0    0  0.12964243810E+03 -0.13889402846E+03 -0.19298971623E+04  0.20599587201E+04  0.69485837327E+03 0.  0.
         25    2    3    3    0    0 -0.19182274908E+03  0.15014638835E+03 -0.55784304915E+03  0.62141198179E+03  0.12499631446E+03 0.  0.
         23    2    4    4    0    0 -0.14208843107E+03  0.91373098747E+02 -0.40114201290E+03  0.43908568346E+03  0.57820043936E+02 0.  0.
        -15    1    4    4    0    0 -0.32532969956E+02  0.66641889975E+02 -0.12079840101E+03  0.14174550900E+03  0.00000000000E+00 0. -1.
        -15    1    5    5    0    0 -0.66262135464E+02  0.31472914990E+02 -0.24228780831E+03  0.25314935716E+03  0.00000000000E+00 0. -1.
         15    1    5    5    0    0 -0.75826295610E+02  0.59900183756E+02 -0.15885420459E+03  0.18593632629E+03  0.00000000000E+00 0.  1.
         15    1    4    4    0    0 -0.17201348053E+02 -0.78686003690E+01 -0.35902635236E+02  0.40580789340E+02  0.00000000000E+00 0.  1.
        -16    1    3    3    0    0  0.32146518718E+03 -0.28904041681E+03 -0.13720541131E+04  0.14385467383E+04  0.00000000000E+00 0.  1.
         16    1    1    2    0    0  0.62248521242E+02 -0.11924735328E+03 -0.65062080472E+03  0.66438109636E+03  0.00000000000E+00 0. -1.
    9900018    1    1    2    0    0 -0.19189095934E+03  0.25814138174E+03  0.42993204697E+02  0.33707967498E+03  0.91187600000E+02 0.  0.
<mgrwt>
<rscale>  0 0.17126755E+04</rscale>
<asrwt>0</asrwt>
<pdfrwt beam="1">  1        2 0.43068800E+00 0.17126755E+04</pdfrwt>
<pdfrwt beam="2">  1       -2 0.40299597E-01 0.17126755E+04</pdfrwt>
<totfact> 0.12862895E+01</totfact>
</mgrwt>
</event>
<event>
12    1  0.1652820E-010  0.1588875E+04  0.7818608E-02  0.8827412E-01
          2   -1    0    0  501    0  0.00000000000E+00  0.00000000000E+00  0.23242568677E+04  0.23242568677E+04  0.00000000000E+00 0. -1.
         -2   -1    0    0    0  501 -0.00000000000E+00 -0.00000000000E+00 -0.27154089573E+03  0.27154089573E+03  0.00000000000E+00 0.  1.
    9900016    2    1    2    0    0 -0.34310546492E+03  0.37195202445E+03  0.13627622323E+04  0.16209710668E+04  0.71718660695E+03 0.  0.
         25    2    3    3    0    0 -0.30488470420E+03  0.13372851299E+03  0.13309175408E+04  0.13776084724E+04  0.12500241908E+03 0.  0.
         23    2    4    4    0    0 -0.21725608605E+03  0.48230579220E+02  0.80218691174E+03  0.83435919631E+03  0.55901980211E+02 0.  0.
        -15    1    5    5    0    0 -0.14043491722E+03  0.28049541759E+02  0.60626130112E+03  0.62294583071E+03  0.00000000000E+00 0. -1.
        -15    1    4    4    0    0 -0.25831903953E+02  0.32226665350E+02  0.13599432417E+03  0.14212776445E+03  0.00000000000E+00 0. -1.
         15    1    4    4    0    0 -0.61796714197E+02  0.53271268425E+02  0.39273630494E+03  0.40112151169E+03  0.00000000000E+00 0.  1.
         15    1    5    5    0    0 -0.76821168830E+02  0.20181037461E+02  0.19592561062E+03  0.21141336559E+03  0.00000000000E+00 0.  1.
        -16    1    1    2    0    0  0.10595867787E+03 -0.36325103718E+03  0.21266856299E+03  0.43405814715E+03  0.00000000000E+00 0.  1.
         16    1    3    3    0    0 -0.38220760716E+02  0.23822351146E+03  0.31844691408E+02  0.24336259435E+03  0.00000000000E+00 0. -1.
    9900018    1    1    2    0    0  0.23714678705E+03 -0.87009872746E+01  0.47728517674E+03  0.54076854949E+03  0.91187600000E+02 0.  0.
<mgrwt>
<rscale>  0 0.15888748E+04</rscale>
<asrwt>0</asrwt>
<pdfrwt beam="1">  1        2 0.35757797E+00 0.15888748E+04</pdfrwt>
<pdfrwt beam="2">  1       -2 0.41775524E-01 0.15888748E+04</pdfrwt>
<totfact> 0.22916825E+01</totfact>
</mgrwt>
</event>
<event>
12    1  0.1652820E-010  0.1273356E+04  0.7818608E-02  0.9050965E-01
          1   -1    0    0  501    0  0.00000000000E+00  0.00000000000E+00  0.12766414287E+04  0.12766414287E+04  0.00000000000E+00 0. -1.
         -1   -1    0    0    0  501 -0.00000000000E+00 -0.00000000000E+00 -0.31751984000E+03  0.31751984000E+03  0.00000000000E+00 0.  1.
    9900016    2    1    2    0    0 -0.28837608986E+02 -0.29897312457E+03  0.10024623108E+04  0.12673666868E+04  0.71489236758E+03 0.  0.
         25    2    3    3    0    0  0.86853993833E+02 -0.31711036345E+03  0.11187341040E+03  0.36911165844E+03  0.12500063034E+03 0.  0.
         23    2    4    4    0    0  0.39685430901E+02 -0.17272517263E+03  0.10392580255E+03  0.21409573055E+03  0.60228653636E+02 0.  0.
        -15    1    4    4    0    0  0.11358028753E+02 -0.12431394005E+02 -0.52892513142E+01  0.17649944859E+02  0.00000000000E+00 0.  1.
        -15    1    5    5    0    0 -0.70722169748E+01 -0.10288783477E+03  0.58017730312E+02  0.11832996166E+03  0.00000000000E+00 0.  1.
         15    1    5    5    0    0  0.46757647876E+02 -0.69837337862E+02  0.45908072236E+02  0.95765768889E+02  0.00000000000E+00 0. -1.
         15    1    4    4    0    0  0.35810534179E+02 -0.13195379682E+03  0.13236859171E+02  0.13736598303E+03  0.00000000000E+00 0. -1.
        -16    1    3    3    0    0 -0.11569160282E+03  0.18137238880E+02  0.89058890041E+03  0.89825502834E+03  0.00000000000E+00 0.  1.
         16    1    1    2    0    0  0.24732898316E+02  0.10414464530E+03  0.13539335711E+01  0.10704978533E+03  0.00000000000E+00 0. -1.
    9900018    1    1    2    0    0  0.41047106698E+01  0.19482847927E+03 -0.44694655704E+02  0.21974479658E+03  0.91187600000E+02 0.  0.
<mgrwt>
<rscale>  0 0.12733562E+04</rscale>
<asrwt>0</asrwt>
<pdfrwt beam="1">  1        1 0.19640637E+00 0.12733562E+04</pdfrwt>
<pdfrwt beam="2">  1       -1 0.48849207E-01 0.12733562E+04</pdfrwt>
<totfact> 0.38823397E+01</totfact>
</mgrwt>
</event>
<event>
12    1  0.1652820E-010  0.1481968E+04  0.7818608E-02  0.8896534E-01
         -1   -1    0    0    0  501 -0.00000000000E+00  0.00000000000E+00  0.17828185268E+03  0.17828185268E+03  0.00000000000E+00 0.  1.
          1   -1    0    0  501    0  0.00000000000E+00 -0.00000000000E+00 -0.30797130448E+04  0.30797130448E+04  0.00000000000E+00 0. -1.
    9900016    2    1    2    0    0  0.66816207553E+02  0.17294865826E+03 -0.15372214840E+04  0.17014830018E+04  0.70542105898E+03 0.  0.
         25    2    3    3    0    0 -0.12062361791E+03  0.14759900952E+03 -0.95068786653E+02  0.24697941108E+03  0.12500092195E+03 0.  0.
         23    2    4    4    0    0 -0.74949608746E+02  0.10884060141E+03 -0.73710506240E+02  0.16976959884E+03  0.76972446988E+02 0.  0.
        -15    1    5    5    0    0 -0.74655182075E+02  0.50055488059E+02 -0.24651347560E+02  0.93202129975E+02  0.00000000000E+00 0.  1.
        -15    1    4    4    0    0 -0.30460818189E+02  0.20414524922E+02 -0.34196790209E+02  0.50140150909E+02  0.00000000000E+00 0.  1.
         15    1    4    4    0    0 -0.15213190979E+02  0.18343883193E+02  0.12838509796E+02  0.27069661323E+02  0.00000000000E+00 0. -1.
         15    1    5    5    0    0 -0.29442667136E+00  0.58785113349E+02 -0.49059158679E+02  0.76567468868E+02  0.00000000000E+00 0. -1.
        -16    1    3    3    0    0  0.18743982547E+03  0.25349648735E+02 -0.14421526974E+04  0.14545035907E+04  0.00000000000E+00 0.  1.
         16    1    1    2    0    0  0.31915159693E+03 -0.41196279336E+02 -0.47176621113E+03  0.57106762578E+03  0.00000000000E+00 0. -1.
    9900018    1    1    2    0    0 -0.38596780448E+03 -0.13175237892E+03 -0.89244349700E+03  0.98544426995E+03  0.91187600000E+02 0.  0.
<mgrwt>
<rscale>  0 0.14819675E+04</rscale>
<asrwt>0</asrwt>
<pdfrwt beam="1">  1        1 0.47380197E+00 0.14819675E+04</pdfrwt>
<pdfrwt beam="2">  1       -1 0.27427979E-01 0.14819675E+04</pdfrwt>
<totfact> 0.60838190E+00</totfact>
</mgrwt>
</event>
<event>
13    1  0.2003557E-010  0.1951844E+04  0.7818608E-02  0.8629472E-01
         -2   -1    0    0    0  501 -0.00000000000E+00  0.00000000000E+00  0.30568409516E+03  0.30568409516E+03  0.00000000000E+00 0.  1.
          2   -1    0    0  501    0  0.00000000000E+00 -0.00000000000E+00 -0.31157114564E+04  0.31157114564E+04  0.00000000000E+00 0. -1.
    9900016    2    1    2    0    0  0.32259836453E+01  0.19836998776E+03 -0.14455930344E+04  0.16219118285E+04  0.70816502277E+03 0.  0.
         25    2    3    3    0    0 -0.21145264031E+03  0.91795083588E+02 -0.14546065857E+03  0.29987199690E+03  0.12500341944E+03 0.  0.
         23    2    4    4    0    0 -0.72889341003E+02  0.17470880437E+02 -0.30637432593E+02  0.97651830468E+02  0.54581498906E+02 0.  0.
         23    2    4    4    0    0 -0.13856329930E+03  0.74324203150E+02 -0.11482322598E+03  0.20222016644E+03  0.54632841788E+02 0.  0.
        -15    1    6    6    0    0 -0.39165262174E+02 -0.42433457210E+01 -0.21669466704E+02  0.44960977873E+02  0.00000000000E+00 0.  1.
        -15    1    5    5    0    0 -0.36345118251E+02  0.36445270141E+02 -0.15078923523E+02  0.53633937679E+02  0.00000000000E+00 0.  1.
         15    1    5    5    0    0 -0.36544222752E+02 -0.18974389703E+02 -0.15558509070E+02  0.44017892790E+02  0.00000000000E+00 0. -1.
         15    1    6    6    0    0 -0.99398037130E+02  0.78567548871E+02 -0.93153759273E+02  0.15725918856E+03  0.00000000000E+00 0. -1.
        -16    1    1    2    0    0 -0.83150708420E+02 -0.52313457030E+03 -0.17084491226E+03  0.55657147160E+03  0.00000000000E+00 0.  1.
         16    1    3    3    0    0  0.21467862395E+03  0.10657490418E+03 -0.13001323758E+04  0.13220398316E+04  0.00000000000E+00 0. -1.
    9900018    1    1    2    0    0  0.79924724775E+02  0.32476458254E+03 -0.11935894146E+04  0.12429122514E+04  0.91187600000E+02 0.  0.
<mgrwt>
<rscale>  0 0.19518437E+04</rscale>
<asrwt>0</asrwt>
<pdfrwt beam="1">  1        2 0.47934024E+00 0.19518437E+04</pdfrwt>
<pdfrwt beam="2">  1       -2 0.47028320E-01 0.19518437E+04</pdfrwt>
<totfact> 0.58973838E+00</totfact>
</mgrwt>
</event>
<event>
12    1  0.1652820E-010  0.1662947E+04  0.7818608E-02  0.8782784E-01
         -2   -1    0    0    0  501 -0.00000000000E+00  0.00000000000E+00  0.60375339379E+03  0.60375339379E+03  0.00000000000E+00 0.  1.
          2   -1    0    0  501    0  0.00000000000E+00 -0.00000000000E+00 -0.11450842277E+04  0.11450842277E+04  0.00000000000E+00 0. -1.
    9900016    2    1    2    0    0  0.44642920953E+03 -0.20258934976E+03 -0.37648114352E+03  0.93341490914E+03  0.69941679807E+03 0.  0.
         25    2    3    3    0    0  0.23136890527E+03  0.56796985943E+00  0.16919274912E+03  0.31270255378E+03  0.12499923148E+03 0.  0.
         23    2    4    4    0    0  0.19839167959E+03  0.12125016584E+02  0.15054764467E+03  0.25979362213E+03  0.72951067355E+02 0.  0.
        -15    1    5    5    0    0  0.63874463434E+02  0.13722966111E+02  0.92576376186E+02  0.11330777690E+03  0.00000000000E+00 0.  1.
        -15    1    4    4    0    0  0.87640260268E+01 -0.19818402919E+02  0.74068867471E+00  0.21682386081E+02  0.00000000000E+00 0. -1.
         15    1    5    5    0    0  0.13451721615E+03 -0.15979495275E+01  0.57971268486E+02  0.14648584524E+03  0.00000000000E+00 0.  1.
         15    1    4    4    0    0  0.24213199658E+02  0.82613561950E+01  0.17904415775E+02  0.31226545568E+02  0.00000000000E+00 0. -1.
        -16    1    3    3    0    0  0.21506030425E+03 -0.20315731962E+03 -0.54567389264E+03  0.62071235535E+03  0.00000000000E+00 0.  1.
         16    1    1    2    0    0 -0.42298324726E+03  0.30280877784E+03 -0.31792070722E+03  0.60965691948E+03  0.00000000000E+00 0. -1.
    9900018    1    1    2    0    0 -0.23445962266E+02 -0.10021942808E+03  0.15307101684E+03  0.20576579284E+03  0.91187600000E+02 0.  0.
<mgrwt>
<rscale>  0 0.16629474E+04</rscale>
<asrwt>0</asrwt>
<pdfrwt beam="1">  1        2 0.17616680E+00 0.16629474E+04</pdfrwt>
<pdfrwt beam="2">  1       -2 0.92885139E-01 0.16629474E+04</pdfrwt>
<totfact> 0.19165880E+01</totfact>
</mgrwt>
</event>
<event>
12    1  0.1652820E-010  0.1506397E+04  0.7818608E-02  0.8880210E-01
         -2   -1    0    0    0  501 -0.00000000000E+00  0.00000000000E+00  0.63383608967E+03  0.63383608967E+03  0.00000000000E+00 0.  1.
          2   -1    0    0  501    0  0.00000000000E+00 -0.00000000000E+00 -0.89503868636E+03  0.89503868636E+03  0.00000000000E+00 0. -1.
    9900016    2    1    2    0    0  0.24799627638E+03 -0.32486507460E+02 -0.41491838911E+03  0.87483577999E+03  0.72843863576E+03 0.  0.
         25    2    3    3    0    0  0.18064324554E+03 -0.12294918516E+03 -0.60417451993E+03  0.65452279836E+03  0.12499903499E+03 0.  0.
         23    2    4    4    0    0  0.95769286921E+02 -0.61151550335E+02 -0.26725186205E+03  0.29975508284E+03  0.74285149898E+02 0.  0.
        -15    1    5    5    0    0  0.96029653648E+02 -0.38187755255E+02 -0.25150551886E+03  0.27190995761E+03  0.00000000000E+00 0. -1.
        -15    1    4    4    0    0  0.28824617859E+02 -0.26579689114E+02 -0.75250963217E+02  0.84853084406E+02  0.00000000000E+00 0. -1.
         15    1    5    5    0    0 -0.26036672742E+00 -0.22963795080E+02 -0.15746343189E+02  0.27845125231E+02  0.00000000000E+00 0.  1.
         15    1    4    4    0    0  0.56049340760E+02 -0.35217945716E+02 -0.26167169467E+03  0.26991463112E+03  0.00000000000E+00 0.  1.
        -16    1    1    2    0    0 -0.22607274119E+03 -0.23198964452E+03 -0.19086139763E+02  0.32448784292E+03  0.00000000000E+00 0.  1.
         16    1    3    3    0    0  0.67353030837E+02  0.90462677705E+02  0.18925613082E+03  0.22031298163E+03  0.00000000000E+00 0. -1.
    9900018    1    1    2    0    0 -0.21923535189E+02  0.26447615198E+03  0.17280193218E+03  0.32955115312E+03  0.91187600000E+02 0.  0.
<mgrwt>
<rscale>  0 0.15063968E+04</rscale>
<asrwt>0</asrwt>
<pdfrwt beam="1">  1        2 0.13769826E+00 0.15063968E+04</pdfrwt>
<pdfrwt beam="2">  1       -2 0.97513245E-01 0.15063968E+04</pdfrwt>
<totfact> 0.25021930E+01</totfact>
</mgrwt>
</event>
<event>
13    1  0.1652820E-010  0.1368866E+04  0.7818608E-02  0.8976669E-01
         -2   -1    0    0    0  501 -0.00000000000E+00  0.00000000000E+00  0.16967511850E+03  0.16967511850E+03  0.00000000000E+00 0.  1.
          2   -1    0    0  501    0  0.00000000000E+00 -0.00000000000E+00 -0.27608547859E+04  0.27608547859E+04  0.00000000000E+00 0. -1.
    9900016    2    1    2    0    0  0.23194890966E+02 -0.16279782325E+03 -0.10613009804E+04  0.12888072798E+04  0.71247687631E+03 0.  0.
         25    2    3    3    0    0  0.77185364659E+02  0.26339432123E+03 -0.43419138495E+03  0.52866179376E+03  0.12500793749E+03 0.  0.
         23    2    4    4    0    0  0.50742569678E+02  0.16198129868E+03 -0.23198011497E+03  0.29288482575E+03  0.56160465729E+02 0.  0.
         23    2    4    4    0    0  0.26442794982E+02  0.10141302255E+03 -0.20221126998E+03  0.23577696801E+03  0.60971783527E+02 0.  0.
        -15    1    5    5    0    0  0.34707199571E+02  0.15334468403E+03 -0.22223861285E+03  0.27223001830E+03  0.00000000000E+00 0. -1.
        -15    1    6    6    0    0 -0.19009103256E+01  0.36941226732E+02 -0.23843728705E+02  0.44008988753E+02  0.00000000000E+00 0.  1.
         15    1    5    5    0    0  0.16035370106E+02  0.86366146537E+01 -0.97415021198E+01  0.20654807447E+02  0.00000000000E+00 0. -1.
         15    1    6    6    0    0  0.28343705308E+02  0.64471795818E+02 -0.17836754127E+03  0.19176797925E+03  0.00000000000E+00 0.  1.
        -16    1    1    2    0    0  0.53974505073E+02  0.19152553336E+03 -0.13275118366E+03  0.23920316446E+03  0.00000000000E+00 0.  1.
         16    1    3    3    0    0 -0.53990473693E+02 -0.42619214448E+03 -0.62710959540E+03  0.76014548602E+03  0.00000000000E+00 0. -1.
    9900018    1    1    2    0    0 -0.77169396039E+02 -0.28727710112E+02 -0.13971275034E+04  0.14025194602E+04  0.91187600000E+02 0.  0.
<mgrwt>
<rscale>  0 0.13688658E+04</rscale>
<asrwt>0</asrwt>
<pdfrwt beam="1">  1        2 0.42474687E+00 0.13688658E+04</pdfrwt>
<pdfrwt beam="2">  1       -2 0.26103866E-01 0.13688658E+04</pdfrwt>
<totfact> 0.31796365E+01</totfact>
</mgrwt>
</event>
<event>
13    1  0.1652820E-010  0.1499972E+04  0.7818608E-02  0.8884471E-01
          2   -1    0    0  501    0  0.00000000000E+00  0.00000000000E+00  0.25891676435E+04  0.25891676435E+04  0.00000000000E+00 0. -1.
         -2   -1    0    0    0  501 -0.00000000000E+00 -0.00000000000E+00 -0.21724320307E+03  0.21724320307E+03  0.00000000000E+00 0.  1.
    9900016    2    1    2    0    0 -0.22060545562E+03 -0.99905762208E+02  0.80003081151E+03  0.10941007252E+04  0.70594558518E+03 0.  0.
         25    2    3    3    0    0 -0.16895985484E+03  0.28461117844E+03  0.32150542449E+03  0.47805925607E+03  0.12499583551E+03 0.  0.
         23    2    4    4    0    0 -0.61678863318E+02  0.98683700466E+02  0.86182481856E+02  0.15456740381E+03  0.54045418165E+02 0.  0.
         23    2    4    4    0    0 -0.10728099153E+03  0.18592747797E+03  0.23532294264E+03  0.32349185226E+03  0.56496486062E+02 0.  0.
        -15    1    5    5    0    0 -0.69263390098E+02  0.69419127076E+02  0.64834501443E+02  0.11755826211E+03  0.00000000000E+00 0.  1.
        -15    1    6    6    0    0 -0.35274074211E+02  0.11090907139E+03  0.10482567571E+03  0.15663174874E+03  0.00000000000E+00 0. -1.
         15    1    5    5    0    0  0.75845267806E+01  0.29264573390E+02  0.21347980413E+02  0.37009141707E+02  0.00000000000E+00 0. -1.
         15    1    6    6    0    0 -0.72006917316E+02  0.75018406584E+02  0.13049726693E+03  0.16686010351E+03  0.00000000000E+00 0.  1.
        -16    1    3    3    0    0 -0.51645600775E+02 -0.38451694064E+03  0.47852538702E+03  0.61604146918E+03  0.00000000000E+00 0.  1.
         16    1    1    2    0    0  0.36789588088E+03 -0.12706626803E+03  0.10006559720E+04  0.10736878456E+04  0.00000000000E+00 0. -1.
    9900018    1    1    2    0    0 -0.14729042527E+03  0.22697203024E+03  0.57123765697E+03  0.63862227570E+03  0.91187600000E+02 0.  0.
<mgrwt>
<rscale>  0 0.14999721E+04</rscale>
<asrwt>0</asrwt>
<pdfrwt beam="1">  1        2 0.39833346E+00 0.14999721E+04</pdfrwt>
<pdfrwt beam="2">  1       -2 0.33422033E-01 0.14999721E+04</pdfrwt>
<totfact> 0.25047728E+01</totfact>
</mgrwt>
</event>
<event>
12    1  0.1694790E-010  0.1332074E+04  0.7818608E-02  0.9004510E-01
          2   -1    0    0  501    0  0.00000000000E+00  0.00000000000E+00  0.34895142222E+03  0.34895142222E+03  0.00000000000E+00 0. -1.
         -2   -1    0    0    0  501 -0.00000000000E+00 -0.00000000000E+00 -0.12712516363E+04  0.12712516363E+04  0.00000000000E+00 0.  1.
    9900016    2    1    2    0    0  0.13169338775E+03 -0.34029133415E+03 -0.51645527051E+03  0.94679781098E+03  0.70466921884E+03 0.  0.
         25    2    3    3    0    0  0.57027257672E+01  0.18780358672E+03 -0.50285776289E+02  0.23120582550E+03  0.12499906471E+03 0.  0.
         23    2    4    4    0    0  0.36161915040E+00  0.95165418276E+02 -0.12488005606E+01  0.12233723053E+03  0.76865147286E+02 0.  0.
        -15    1    5    5    0    0  0.31758447763E+02  0.18833408161E+02 -0.12621559767E+02  0.39020507919E+02  0.00000000000E+00 0. -1.
        -15    1    4    4    0    0  0.50130056839E+01  0.31684583572E+02 -0.32601290522E+02  0.45737153451E+02  0.00000000000E+00 0. -1.
         15    1    4    4    0    0  0.32810093287E+00  0.60953584876E+02 -0.16435685207E+02  0.63131441514E+02  0.00000000000E+00 0.  1.
         15    1    5    5    0    0 -0.31396828612E+02  0.76332010114E+02  0.11372759206E+02  0.83316722613E+02  0.00000000000E+00 0.  1.
        -16    1    3    3    0    0  0.12599066198E+03 -0.52809492087E+03 -0.46616949422E+03  0.71559198549E+03  0.00000000000E+00 0.  1.
         16    1    1    2    0    0 -0.11092407866E+03  0.40685311698E+03 -0.30287655297E+03  0.51919920682E+03  0.00000000000E+00 0. -1.
    9900018    1    1    2    0    0 -0.20769309086E+02 -0.66561782834E+02 -0.10296839059E+03  0.15420604070E+03  0.91187600000E+02 0.  0.
<mgrwt>
<rscale>  0 0.13320737E+04</rscale>
<asrwt>0</asrwt>
<pdfrwt beam="1">  1        2 0.53684833E-01 0.13320737E+04</pdfrwt>
<pdfrwt beam="2">  1       -2 0.19557718E+00 0.13320737E+04</pdfrwt>
<totfact> 0.12887230E+01</totfact>
</mgrwt>
</event>
<event>
12    1  0.1652820E-010  0.2241851E+04  0.7818608E-02  0.8501208E-01
          2   -1    0    0  501    0  0.00000000000E+00  0.00000000000E+00  0.32315027365E+04  0.32315027365E+04  0.00000000000E+00 0. -1.
         -2   -1    0    0    0  501 -0.00000000000E+00 -0.00000000000E+00 -0.38882042667E+03  0.38882042667E+03  0.00000000000E+00 0.  1.
    9900016    2    1    2    0    0  0.21228190026E+03 -0.60051621491E+03  0.59140562096E+03  0.11210114296E+04  0.70797082375E+03 0.  0.
         25    2    3    3    0    0 -0.75749195877E+02  0.10996776755E+03  0.81295602970E+02  0.20016310762E+03  0.12500177604E+03 0.  0.
         23    2    4    4    0    0 -0.50117830207E+02  0.74905603304E+02  0.89588256866E+02  0.14522498195E+03  0.70296467209E+02 0.  0.
        -15    1    5    5    0    0 -0.54380445563E+02  0.65599828539E+02  0.39174762146E+02  0.93782900111E+02  0.00000000000E+00 0.  1.
        -15    1    4    4    0    0 -0.28693885913E+02  0.15779255222E+02  0.21117049264E+01  0.32814376146E+02  0.00000000000E+00 0. -1.
         15    1    4    4    0    0  0.30625202427E+01  0.19282909022E+02 -0.10404358822E+02  0.22123749526E+02  0.00000000000E+00 0. -1.
         15    1    5    5    0    0  0.42626153564E+01  0.93057747645E+01  0.50413494720E+02  0.51442081835E+02  0.00000000000E+00 0.  1.
        -16    1    1    2    0    0 -0.65781563251E+02  0.81100761285E+02 -0.62486824324E+02  0.12169285418E+03  0.00000000000E+00 0.  1.
         16    1    3    3    0    0  0.28803109613E+03 -0.71048398246E+03  0.51011001799E+03  0.92084832200E+03  0.00000000000E+00 0. -1.
    9900018    1    1    2    0    0 -0.14650033700E+03  0.51941545363E+03  0.23137635132E+04  0.23776188794E+04  0.91187600000E+02 0.  0.
<mgrwt>
<rscale>  0 0.22418513E+04</rscale>
<asrwt>0</asrwt>
<pdfrwt beam="1">  1        2 0.49715425E+00 0.22418513E+04</pdfrwt>
<pdfrwt beam="2">  1       -2 0.59818529E-01 0.22418513E+04</pdfrwt>
<totfact> 0.29415694E+00</totfact>
</mgrwt>
</event>
<event>
13    1  0.1652820E-010  0.1582938E+04  0.7818608E-02  0.8831099E-01
          1   -1    0    0  501    0  0.00000000000E+00  0.00000000000E+00  0.11818193725E+04  0.11818193725E+04  0.00000000000E+00 0. -1.
         -1   -1    0    0    0  501 -0.00000000000E+00 -0.00000000000E+00 -0.53004960442E+03  0.53004960442E+03  0.00000000000E+00 0.  1.
    9900016    2    1    2    0    0 -0.86995129212E+01 -0.37456470886E+03  0.44705470278E+03  0.91234002450E+03  0.70152121163E+03 0.  0.
         25    2    3    3    0    0 -0.11047288773E+03 -0.37397354539E+03  0.60133005225E+03  0.72751834626E+03  0.12499856332E+03 0.  0.
         23    2    4    4    0    0 -0.64014286345E+02 -0.24868221367E+03  0.37697251879E+03  0.45998451368E+03  0.59471006838E+02 0.  0.
         23    2    4    4    0    0 -0.46458601390E+02 -0.12529133172E+03  0.22435753346E+03  0.26753383258E+03  0.58152637995E+02 0.  0.
        -15    1    6    6    0    0 -0.34958625778E+01 -0.64003750250E+02  0.64053490205E+02  0.90617607056E+02  0.00000000000E+00 0.  1.
        -15    1    5    5    0    0 -0.28505144209E+02 -0.18056455379E+03  0.29953257954E+03  0.35090720645E+03  0.00000000000E+00 0.  1.
         15    1    5    5    0    0 -0.35509142136E+02 -0.68117659873E+02  0.77439939247E+02  0.10907730723E+03  0.00000000000E+00 0. -1.
         15    1    6    6    0    0 -0.42962738812E+02 -0.61287581474E+02  0.16030404325E+03  0.17691622552E+03  0.00000000000E+00 0. -1.
        -16    1    3    3    0    0  0.10177337481E+03 -0.59116346990E+00 -0.15427534946E+03  0.18482167824E+03  0.00000000000E+00 0.  1.
         16    1    1    2    0    0  0.43390164138E+02 -0.13309160548E+03  0.24377489780E+03  0.28110902260E+03  0.00000000000E+00 0. -1.
    9900018    1    1    2    0    0 -0.34690651216E+02  0.50765631434E+03 -0.39059832461E+02  0.51841992986E+03  0.91187600000E+02 0.  0.
<mgrwt>
<rscale>  0 0.15829376E+04</rscale>
<asrwt>0</asrwt>
<pdfrwt beam="1">  1        1 0.18181836E+00 0.15829376E+04</pdfrwt>
<pdfrwt beam="2">  1       -1 0.81546093E-01 0.15829376E+04</pdfrwt>
<totfact> 0.15855271E+01</totfact>
</mgrwt>
</event>
<event>
12    1  0.1652820E-010  0.1820261E+04  0.7818608E-02  0.8695599E-01
          1   -1    0    0  501    0  0.00000000000E+00  0.00000000000E+00  0.14824134257E+04  0.14824134257E+04  0.00000000000E+00 0.  1.
         -1   -1    0    0    0  501 -0.00000000000E+00 -0.00000000000E+00 -0.55877620865E+03  0.55877620865E+03  0.00000000000E+00 0. -1.
    9900016    2    1    2    0    0 -0.23707197934E+03  0.54894860767E+02  0.44203455147E+03  0.87482575906E+03  0.71463906617E+03 0.  0.
         25    2    3    3    0    0  0.83962390366E+02  0.68220817183E+02  0.51877496995E+03  0.54447785235E+03  0.12499959743E+03 0.  0.
         23    2    4    4    0    0  0.38688297773E+02  0.74722896644E+02  0.35224852698E+03  0.37019855497E+03  0.76731021620E+02 0.  0.
        -15    1    4    4    0    0  0.15544801179E+02  0.88468339034E+01  0.54096909508E+02  0.56977038639E+02  0.00000000000E+00 0.  1.
        -15    1    5    5    0    0 -0.96230957846E+01  0.23579529482E+02  0.25790184550E+02  0.36245438364E+02  0.00000000000E+00 0.  1.
         15    1    4    4    0    0  0.29729291413E+02 -0.15348913364E+02  0.11242953346E+03  0.11730225873E+03  0.00000000000E+00 0. -1.
         15    1    5    5    0    0  0.48311393558E+02  0.51143367162E+02  0.32645834243E+03  0.33395311661E+03  0.00000000000E+00 0. -1.
        -16    1    1    2    0    0  0.51858141020E+03  0.17263417120E+03  0.56262937630E+03  0.78439852827E+03  0.00000000000E+00 0.  1.
         16    1    3    3    0    0 -0.32103436970E+03 -0.13325956416E+02 -0.76740418477E+02  0.33034790672E+03  0.00000000000E+00 0. -1.
    9900018    1    1    2    0    0 -0.28150943086E+03 -0.22752903196E+03 -0.81026710758E+02  0.38196534699E+03  0.91187600000E+02 0.  0.
<mgrwt>
<rscale>  0 0.18202608E+04</rscale>
<asrwt>0</asrwt>
<pdfrwt beam="1">  1        1 0.22806360E+00 0.18202608E+04</pdfrwt>
<pdfrwt beam="2">  1       -1 0.85965571E-01 0.18202608E+04</pdfrwt>
<totfact> 0.84662201E+00</totfact>
</mgrwt>
</event>
<event>
12    1  0.1652820E-010  0.2161727E+04  0.7818608E-02  0.8534529E-01
         -2   -1    0    0    0  501 -0.00000000000E+00  0.00000000000E+00  0.55578003942E+03  0.55578003942E+03  0.00000000000E+00 0.  1.
          2   -1    0    0  501    0  0.00000000000E+00 -0.00000000000E+00 -0.21020297355E+04  0.21020297355E+04  0.00000000000E+00 0. -1.
    9900016    2    1    2    0    0  0.25953796493E+03 -0.58239515032E+03 -0.14422318425E+04  0.17309951330E+04  0.71397996932E+03 0.  0.
         25    2    3    3    0    0 -0.16556494713E+02  0.67461568384E+02 -0.21668466861E+02  0.14463382179E+03  0.12499695685E+03 0.  0.
         23    2    4    4    0    0 -0.44073696872E+02  0.57947613406E+02 -0.88394105130E+01  0.10647743941E+03  0.77193868080E+02 0.  0.
        -15    1    4    4    0    0  0.23564715069E+02 -0.62399494787E+00 -0.35156717318E+01  0.23833697021E+02  0.00000000000E+00 0.  1.
        -15    1    5    5    0    0 -0.32203962249E+01  0.18474999164E+02  0.31600353492E+02  0.36746141114E+02  0.00000000000E+00 0.  1.
         15    1    5    5    0    0 -0.40853300647E+02  0.39472614242E+02 -0.40439764006E+02  0.69731298293E+02  0.00000000000E+00 0. -1.
         15    1    4    4    0    0  0.39524870895E+01  0.10137949925E+02 -0.93133846160E+01  0.14322685359E+02  0.00000000000E+00 0. -1.
        -16    1    1    2    0    0 -0.36504114835E+03  0.63748287389E+03  0.15975358813E+02  0.73477524902E+03  0.00000000000E+00 0.  1.
         16    1    3    3    0    0  0.27609445964E+03 -0.64985671871E+03 -0.14205633757E+04  0.15863613112E+04  0.00000000000E+00 0. -1.
    9900018    1    1    2    0    0  0.10550318342E+03 -0.55087723562E+02 -0.11999321231E+03  0.19203939282E+03  0.91187600000E+02 0.  0.
<mgrwt>
<rscale>  0 0.21617272E+04</rscale>
<asrwt>0</asrwt>
<pdfrwt beam="1">  1        2 0.32338919E+00 0.21617272E+04</pdfrwt>
<pdfrwt beam="2">  1       -2 0.85504621E-01 0.21617272E+04</pdfrwt>
<totfact> 0.63871742E+00</totfact>
</mgrwt>
</event>
<event>
12    1  0.1652820E-010  0.1522141E+04  0.7818608E-02  0.8869861E-01
         -2   -1    0    0    0  501 -0.00000000000E+00  0.00000000000E+00  0.32085160874E+03  0.32085160874E+03  0.00000000000E+00 0.  1.
          2   -1    0    0  501    0  0.00000000000E+00 -0.00000000000E+00 -0.18052847184E+04  0.18052847184E+04  0.00000000000E+00 0. -1.
    9900016    2    1    2    0    0  0.31316146641E+03 -0.10670583174E+03 -0.88339801015E+03  0.11964321143E+04  0.73593581318E+03 0.  0.
         25    2    3    3    0    0  0.13744941047E+03 -0.94701259167E+01  0.87073741733E+02  0.20539985934E+03  0.12500096797E+03 0.  0.
         23    2    4    4    0    0  0.81864975753E+02 -0.13634118344E+02  0.62108930929E+02  0.12972760862E+03  0.77999805764E+02 0.  0.
        -15    1    4    4    0    0  0.15903001148E+02 -0.64647364332E+01  0.29715970212E+02  0.34318175189E+02  0.00000000000E+00 0. -1.
        -15    1    5    5    0    0  0.88964641736E+02 -0.27836377231E+00  0.69498987897E+02  0.11289328715E+03  0.00000000000E+00 0.  1.
         15    1    4    4    0    0  0.39681433569E+02  0.10628728861E+02 -0.47511594082E+01  0.41354075531E+02  0.00000000000E+00 0. -1.
         15    1    5    5    0    0 -0.70996659835E+01 -0.13355754572E+02 -0.73900569676E+01  0.16834321467E+02  0.00000000000E+00 0.  1.
        -16    1    3    3    0    0  0.17571205594E+03 -0.97235705820E+02 -0.97047175188E+03  0.99103225492E+03  0.00000000000E+00 0.  1.
         16    1    1    2    0    0 -0.34339568524E+03  0.29379635962E+03 -0.23954924242E+03  0.51148874583E+03  0.00000000000E+00 0. -1.
    9900018    1    1    2    0    0  0.30234218834E+02 -0.18709052788E+03 -0.36148585710E+03  0.41821546706E+03  0.91187600000E+02 0.  0.
<mgrwt>
<rscale>  0 0.15221413E+04</rscale>
<asrwt>0</asrwt>
<pdfrwt beam="1">  1        2 0.27773611E+00 0.15221413E+04</pdfrwt>
<pdfrwt beam="2">  1       -2 0.49361787E-01 0.15221413E+04</pdfrwt>
<totfact> 0.32115077E+01</totfact>
</mgrwt>
</event>
<event>
12    1  0.1652820E-010  0.2042254E+04  0.7818608E-02  0.8587117E-01
          2   -1    0    0  501    0  0.00000000000E+00  0.00000000000E+00  0.14307696683E+04  0.14307696683E+04  0.00000000000E+00 0.  1.
         -2   -1    0    0    0  501 -0.00000000000E+00 -0.00000000000E+00 -0.72876850647E+03  0.72876850647E+03  0.00000000000E+00 0. -1.
    9900016    2    1    2    0    0 -0.13223935058E+03 -0.14792015057E+03  0.49343024545E+02  0.76199595981E+03  0.73405414781E+03 0.  0.
         25    2    3    3    0    0 -0.38014420968E+03  0.20853627719E+02 -0.11909009265E+03  0.41803212105E+03  0.12499564041E+03 0.  0.
         23    2    4    4    0    0 -0.31725593145E+03 -0.13701140358E+02 -0.11502917880E+03  0.34348970396E+03  0.62565305574E+02 0.  0.
        -15    1    4    4    0    0 -0.24736479595E+02  0.42719578637E+01  0.31596444787E+01  0.25300719357E+02  0.00000000000E+00 0.  1.
        -15    1    5    5    0    0 -0.10603662530E+03 -0.27103064113E+02 -0.19015499386E+02  0.11108524297E+03  0.00000000000E+00 0. -1.
         15    1    4    4    0    0 -0.38151798637E+02  0.30282810213E+02 -0.72205583304E+01  0.49241697740E+02  0.00000000000E+00 0. -1.
         15    1    5    5    0    0 -0.21121930615E+03  0.13401923754E+02 -0.96013679413E+02  0.23240446098E+03  0.00000000000E+00 0.  1.
        -16    1    3    3    0    0  0.24790485911E+03 -0.16877377829E+03  0.16843311720E+03  0.34396383876E+03  0.00000000000E+00 0.  1.
         16    1    1    2    0    0 -0.20695657110E+03  0.34763795826E+03 -0.20198834764E+03  0.45219737386E+03  0.00000000000E+00 0. -1.
    9900018    1    1    2    0    0  0.33919592168E+03 -0.19971780769E+03  0.85464648490E+03  0.94534484107E+03  0.91187600000E+02 0.  0.
<mgrwt>
<rscale>  0 0.20422535E+04</rscale>
<asrwt>0</asrwt>
<pdfrwt beam="1">  1        2 0.22011841E+00 0.20422535E+04</pdfrwt>
<pdfrwt beam="2">  1       -2 0.11211823E+00 0.20422535E+04</pdfrwt>
<totfact> 0.80721660E+00</totfact>
</mgrwt>
</event>
<event>
12    1  0.1652820E-010  0.1595382E+04  0.7818608E-02  0.8823390E-01
         -2   -1    0    0    0  501 -0.00000000000E+00  0.00000000000E+00  0.26840018081E+03  0.26840018081E+03  0.00000000000E+00 0.  1.
          2   -1    0    0  501    0  0.00000000000E+00 -0.00000000000E+00 -0.23707552768E+04  0.23707552768E+04  0.00000000000E+00 0. -1.
    9900016    2    1    2    0    0  0.18434856511E+03 -0.26472440612E+03 -0.46229003520E+03  0.90862790307E+03  0.71262134752E+03 0.  0.
         25    2    3    3    0    0 -0.14266327411E+03  0.10431251080E+02  0.90073368197E+02  0.21023495630E+03  0.12499561758E+03 0.  0.
         23    2    4    4    0    0 -0.14641830336E+03  0.10901274454E+02  0.89539832137E+02  0.18638874945E+03  0.71876470678E+02 0.  0.
        -15    1    5    5    0    0 -0.29807603714E+02  0.28573593721E+02  0.42947299318E+02  0.59576958768E+02  0.00000000000E+00 0.  1.
        -15    1    4    4    0    0  0.25938771418E+01 -0.11986490709E+02  0.40565187920E+00  0.12270644302E+02  0.00000000000E+00 0.  1.
         15    1    5    5    0    0 -0.11661069965E+03 -0.17672319267E+02  0.46592532819E+02  0.12681179068E+03  0.00000000000E+00 0. -1.
         15    1    4    4    0    0  0.11611521061E+01  0.11516467334E+02  0.12788418063E+00  0.11575562554E+02  0.00000000000E+00 0. -1.
        -16    1    3    3    0    0  0.32701183923E+03 -0.27515565720E+03 -0.55236340340E+03  0.69839294677E+03  0.00000000000E+00 0.  1.
         16    1    1    2    0    0 -0.89218929898E+02  0.26862675892E+03 -0.15379251333E+04  0.15637563968E+04  0.00000000000E+00 0. -1.
    9900018    1    1    2    0    0 -0.95129635215E+02 -0.39023527915E+01 -0.10213992750E+03  0.16677115769E+03  0.91187600000E+02 0.  0.
<mgrwt>
<rscale>  0 0.15953823E+04</rscale>
<asrwt>0</asrwt>
<pdfrwt beam="1">  1        2 0.36473158E+00 0.15953823E+04</pdfrwt>
<pdfrwt beam="2">  1       -2 0.41292336E-01 0.15953823E+04</pdfrwt>
<totfact> 0.22053355E+01</totfact>
</mgrwt>
</event>
<event>
12    1  0.1652820E-010  0.1502321E+04  0.7818608E-02  0.8882911E-01
          1   -1    0    0  501    0  0.00000000000E+00  0.00000000000E+00  0.86415586069E+03  0.86415586069E+03  0.00000000000E+00 0.  1.
         -1   -1    0    0    0  501 -0.00000000000E+00 -0.00000000000E+00 -0.65294057620E+03  0.65294057620E+03  0.00000000000E+00 0. -1.
    9900016    2    1    2    0    0  0.23145341506E+03 -0.14778118444E+03 -0.10064685554E+03  0.78062264496E+03  0.72376236602E+03 0.  0.
         25    2    3    3    0    0  0.37358500028E+03 -0.64350853985E+02  0.19339260521E+03  0.44354518793E+03  0.12499939657E+03 0.  0.
         23    2    4    4    0    0  0.31253117531E+03 -0.70929345590E+02  0.13016198309E+03  0.35182178130E+03  0.64262869156E+02 0.  0.
        -15    1    4    4    0    0  0.15423394061E+02 -0.19059957473E+01  0.32599153497E+02  0.36113968390E+02  0.00000000000E+00 0.  1.
        -15    1    5    5    0    0  0.11236851864E+03 -0.15250249113E+01  0.24236701675E+02  0.11496272174E+03  0.00000000000E+00 0.  1.
         15    1    5    5    0    0  0.20016265667E+03 -0.69404320679E+02  0.10592528141E+03  0.23685905956E+03  0.00000000000E+00 0. -1.
         15    1    4    4    0    0  0.45630430907E+02  0.84844873523E+01  0.30631468628E+02  0.55609438234E+02  0.00000000000E+00 0. -1.
        -16    1    1    2    0    0 -0.22092324619E+03 -0.53888710432E+02  0.42921856955E+03  0.48573619823E+03  0.00000000000E+00 0.  1.
         16    1    3    3    0    0 -0.14213158522E+03 -0.83430330457E+02 -0.29403946075E+03  0.33707745703E+03  0.00000000000E+00 0. -1.
    9900018    1    1    2    0    0 -0.10530168866E+02  0.20166989487E+03 -0.11735642952E+03  0.25073759371E+03  0.91187600000E+02 0.  0.
<mgrwt>
<rscale>  0 0.15023214E+04</rscale>
<asrwt>0</asrwt>
<pdfrwt beam="1">  1        1 0.13294706E+00 0.15023214E+04</pdfrwt>
<pdfrwt beam="2">  1       -1 0.10045240E+00 0.15023214E+04</pdfrwt>
<totfact> 0.17783566E+01</totfact>
</mgrwt>
</event>
<event>
12    1  0.1652820E-010  0.1500208E+04  0.7818608E-02  0.8884314E-01
         -2   -1    0    0    0  501 -0.00000000000E+00  0.00000000000E+00  0.62080270891E+03  0.62080270891E+03  0.00000000000E+00 0. -1.
          2   -1    0    0  501    0  0.00000000000E+00 -0.00000000000E+00 -0.90633661805E+03  0.90633661805E+03  0.00000000000E+00 0.  1.
    9900016    2    1    2    0    0 -0.19172431847E+02 -0.14311830294E+03 -0.41107189942E+03  0.84043920350E+03  0.71868457442E+03 0.  0.
         25    2    3    3    0    0 -0.46326227085E+02  0.16556795077E+03  0.10607104299E+03  0.23756164154E+03  0.12500240691E+03 0.  0.
         23    2    4    4    0    0 -0.19341767247E+02  0.92016707370E+02  0.82887102999E+02  0.14580916429E+03  0.74490684994E+02 0.  0.
        -15    1    4    4    0    0 -0.13447138110E+02  0.74018002532E+02  0.19581746384E+02  0.77736317212E+02  0.00000000000E+00 0. -1.
        -15    1    5    5    0    0  0.18786561851E+02  0.74331416452E+02  0.63373097240E+02  0.99469813671E+02  0.00000000000E+00 0.  1.
         15    1    5    5    0    0 -0.38128329099E+02  0.17685290918E+02  0.19514005759E+02  0.46339350615E+02  0.00000000000E+00 0. -1.
         15    1    4    4    0    0 -0.13537321728E+02 -0.46675912923E+00  0.36021936055E+01  0.14016160046E+02  0.00000000000E+00 0.  1.
        -16    1    3    3    0    0  0.27153795239E+02 -0.30868625371E+03 -0.51714294241E+03  0.60287756195E+03  0.00000000000E+00 0.  1.
         16    1    1    2    0    0  0.89931601606E+02  0.39062008462E+03  0.54558000089E+02  0.40453469425E+03  0.00000000000E+00 0. -1.
    9900018    1    1    2    0    0 -0.70759169759E+02 -0.24750178169E+03  0.70979990189E+02  0.28216542922E+03  0.91187600000E+02 0.  0.
<mgrwt>
<rscale>  0 0.15002083E+04</rscale>
<asrwt>0</asrwt>
<pdfrwt beam="1">  1        2 0.13943640E+00 0.15002083E+04</pdfrwt>
<pdfrwt beam="2">  1       -2 0.95508109E-01 0.15002083E+04</pdfrwt>
<totfact> 0.25826170E+01</totfact>
</mgrwt>
</event>
<event>
12    1  0.1652820E-010  0.1013197E+04  0.7818608E-02  0.9294188E-01
         -2   -1    0    0    0  501 -0.00000000000E+00  0.00000000000E+00  0.23043693798E+03  0.23043693798E+03  0.00000000000E+00 0. -1.
          2   -1    0    0  501    0  0.00000000000E+00 -0.00000000000E+00 -0.11137181345E+04  0.11137181345E+04  0.00000000000E+00 0.  1.
    9900016    2    1    2    0    0 -0.52955562026E+01  0.12980667802E+03 -0.62814424183E+03  0.96316955341E+03  0.71850719098E+03 0.  0.
         25    2    3    3    0    0 -0.19462157539E+03  0.50166917912E+02 -0.70515232240E+03  0.74381350174E+03  0.12499780131E+03 0.  0.
         23    2    4    4    0    0 -0.13703411223E+03  0.54496890731E+02 -0.49560612553E+03  0.52072451711E+03  0.61484404905E+02 0.  0.
        -15    1    5    5    0    0 -0.81944183380E+02  0.12297519942E+02 -0.18905237609E+03  0.20641433839E+03  0.00000000000E+00 0.  1.
        -15    1    4    4    0    0 -0.48370414609E+02  0.83988420883E+01 -0.19686781511E+03  0.20289695459E+03  0.00000000000E+00 0.  1.
         15    1    4    4    0    0 -0.92170485461E+01 -0.12728814908E+02 -0.12678381761E+02  0.20192030035E+02  0.00000000000E+00 0. -1.
         15    1    5    5    0    0 -0.55089928850E+02  0.42199370790E+02 -0.30655374943E+03  0.31431017872E+03  0.00000000000E+00 0. -1.
        -16    1    1    2    0    0  0.84122655306E+02  0.13792992655E+02 -0.13042533219E+03  0.15581282058E+03  0.00000000000E+00 0.  1.
         16    1    3    3    0    0  0.18932601918E+03  0.79639760109E+02  0.77008080568E+02  0.21935605167E+03  0.00000000000E+00 0. -1.
    9900018    1    1    2    0    0 -0.78827099103E+02 -0.14359967068E+03 -0.12471162252E+03  0.22517269852E+03  0.91187600000E+02 0.  0.
<mgrwt>
<rscale>  0 0.10131965E+04</rscale>
<asrwt>0</asrwt>
<pdfrwt beam="1">  1        2 0.17134125E+00 0.10131965E+04</pdfrwt>
<pdfrwt beam="2">  1       -2 0.35451837E-01 0.10131965E+04</pdfrwt>
<totfact> 0.15914255E+02</totfact>
</mgrwt>
</event>
<event>
11    1  0.1652820E-010  0.1578151E+04  0.7818608E-02  0.8834084E-01
         -2   -1    0    0    0  501 -0.00000000000E+00  0.00000000000E+00  0.13796684550E+04  0.13796684550E+04  0.00000000000E+00 0.  1.
          2   -1    0    0  501    0  0.00000000000E+00 -0.00000000000E+00 -0.45129698677E+03  0.45129698677E+03  0.00000000000E+00 0. -1.
    9900016    2    1    2    0    0  0.37586062063E+03 -0.35466411171E+03  0.40799832745E+03  0.94683194762E+03  0.68041918225E+03 0.  0.
         25    2    3    3    0    0  0.12332703261E+02 -0.73677447730E+02 -0.15994920608E+03  0.21630443077E+03  0.12499358532E+03 0.  0.
        -15    1    4    4    0    0 -0.32647665279E+02 -0.28143813410E+02 -0.32276042640E+02  0.53848743810E+02  0.00000000000E+00 0.  1.
        -15    1    4    4    0    0  0.32646668433E+02 -0.15765021099E+02 -0.39963491267E+02  0.53957589682E+02  0.00000000000E+00 0.  1.
         15    1    4    4    0    0  0.78349395747E+01  0.15475626008E+02 -0.16056369965E+02  0.23636588056E+02  0.00000000000E+00 0. -1.
         15    1    4    4    0    0  0.44987605324E+01 -0.45244239230E+02 -0.71653302212E+02  0.84861509223E+02  0.00000000000E+00 0. -1.
        -16    1    3    3    0    0  0.36352791737E+03 -0.28098666398E+03  0.56794753353E+03  0.73052751685E+03  0.00000000000E+00 0.  1.
         16    1    1    2    0    0 -0.22765723956E+03  0.43169788536E+03  0.48970966696E+03  0.69138009869E+03  0.00000000000E+00 0. -1.
    9900018    1    1    2    0    0 -0.14820338107E+03 -0.77033773654E+02  0.30663473826E+02  0.19275339547E+03  0.91187600000E+02 0.  0.
<mgrwt>
<rscale>  0 0.15781511E+04</rscale>
<asrwt>0</asrwt>
<pdfrwt beam="1">  1        2 0.69430306E-01 0.15781511E+04</pdfrwt>
<pdfrwt beam="2">  1       -2 0.21225668E+00 0.15781511E+04</pdfrwt>
<totfact> 0.73675237E+00</totfact>
</mgrwt>
</event>
<event>
12    1  0.1652820E-010  0.2538978E+04  0.7818608E-02  0.8389229E-01
          2   -1    0    0  501    0  0.00000000000E+00  0.00000000000E+00  0.18192642938E+04  0.18192642938E+04  0.00000000000E+00 0.  1.
         -2   -1    0    0    0  501 -0.00000000000E+00 -0.00000000000E+00 -0.88585421149E+03  0.88585421149E+03  0.00000000000E+00 0. -1.
    9900016    2    1    2    0    0  0.21400305139E+03 -0.24512099545E+03 -0.21537069200E+03  0.80854588680E+03  0.70815274319E+03 0.  0.
         25    2    3    3    0    0 -0.10094117168E+02 -0.23156336695E+03  0.20382994690E+03  0.33301194911E+03  0.12500730732E+03 0.  0.
         23    2    4    4    0    0  0.34234118191E+02 -0.17788662523E+03  0.15543296377E+03  0.24536057505E+03  0.56804747005E+02 0.  0.
        -15    1    5    5    0    0  0.17252347624E+02 -0.17038268308E+03  0.13894517444E+03  0.22053041444E+03  0.00000000000E+00 0.  1.
        -15    1    4    4    0    0 -0.14879940366E+02 -0.71704092959E+01  0.41607044656E+01  0.17033462843E+02  0.00000000000E+00 0.  1.
         15    1    5    5    0    0  0.16981770567E+02 -0.75039421477E+01  0.16487789325E+02  0.24830160615E+02  0.00000000000E+00 0. -1.
         15    1    4    4    0    0 -0.29448294993E+02 -0.46506332424E+02  0.44236278668E+02  0.70617911212E+02  0.00000000000E+00 0. -1.
        -16    1    1    2    0    0 -0.52991439762E+03 -0.11652682644E+02  0.13374890478E+04  0.14386875988E+04  0.00000000000E+00 0.  1.
         16    1    3    3    0    0  0.22409716855E+03 -0.13557628503E+02 -0.41920063890E+03  0.47553393770E+03  0.00000000000E+00 0. -1.
    9900018    1    1    2    0    0  0.31591134623E+03  0.25677367809E+03 -0.18870827347E+03  0.45788501975E+03  0.91187600000E+02 0.  0.
<mgrwt>
<rscale>  0 0.25389785E+04</rscale>
<asrwt>0</asrwt>
<pdfrwt beam="1">  1        2 0.27988681E+00 0.25389785E+04</pdfrwt>
<pdfrwt beam="2">  1       -2 0.13628526E+00 0.25389785E+04</pdfrwt>
<totfact> 0.28823192E+00</totfact>
</mgrwt>
</event>
<event>
12    1  0.1652820E-010  0.1259391E+04  0.7818608E-02  0.9062403E-01
          2   -1    0    0  501    0  0.00000000000E+00  0.00000000000E+00  0.50962853143E+03  0.50962853143E+03  0.00000000000E+00 0.  1.
         -2   -1    0    0    0  501 -0.00000000000E+00 -0.00000000000E+00 -0.77805049967E+03  0.77805049967E+03  0.00000000000E+00 0. -1.
    9900016    2    1    2    0    0 -0.66132713864E+02 -0.58793498599E+02 -0.24191879290E+03  0.75170969007E+03  0.70619582586E+03 0.  0.
         25    2    3    3    0    0  0.58968255529E+02  0.57063561070E+02  0.21621079579E+03  0.26287860385E+03  0.12499818792E+03 0.  0.
         23    2    4    4    0    0  0.56517191329E+02  0.40875197856E+02  0.13382294567E+03  0.16445961969E+03  0.65371331678E+02 0.  0.
        -15    1    4    4    0    0  0.17178508130E+02 -0.24832133696E+01  0.59203126312E+01  0.18338963762E+02  0.00000000000E+00 0.  1.
        -15    1    5    5    0    0  0.10083178021E+02  0.15422930113E+02  0.99873024602E+02  0.10155864461E+03  0.00000000000E+00 0.  1.
         15    1    5    5    0    0  0.46434013308E+02  0.25452267743E+02  0.33949921065E+02  0.62900975076E+02  0.00000000000E+00 0. -1.
         15    1    4    4    0    0 -0.14727443930E+02  0.18671576584E+02  0.76467537491E+02  0.80080020397E+02  0.00000000000E+00 0. -1.
        -16    1    3    3    0    0 -0.12510096939E+03 -0.11585705967E+03 -0.45812958869E+03  0.48883108622E+03  0.00000000000E+00 0.  1.
         16    1    1    2    0    0 -0.20392642705E+03 -0.44013940876E+01  0.88277441165E+02  0.22225720807E+03  0.00000000000E+00 0. -1.
    9900018    1    1    2    0    0  0.27005914092E+03  0.63194892687E+02 -0.11478061650E+03  0.31371213297E+03  0.91187600000E+02 0.  0.
<mgrwt>
<rscale>  0 0.12593915E+04</rscale>
<asrwt>0</asrwt>
<pdfrwt beam="1">  1        2 0.78404389E-01 0.12593915E+04</pdfrwt>
<pdfrwt beam="2">  1       -2 0.11970008E+00 0.12593915E+04</pdfrwt>
<totfact> 0.31619003E+01</totfact>
</mgrwt>
</event>
<event>
12    1  0.1652820E-010  0.1394539E+04  0.7818608E-02  0.8957781E-01
          3   -1    0    0  501    0  0.00000000000E+00  0.00000000000E+00  0.15346939118E+04  0.15346939118E+04  0.00000000000E+00 0. -1.
         -3   -1    0    0    0  501 -0.00000000000E+00 -0.00000000000E+00 -0.31679586261E+03  0.31679586261E+03  0.00000000000E+00 0.  1.
    9900016    2    1    2    0    0 -0.30638061975E+02  0.57417465872E+02  0.68944024147E+03  0.98298340843E+03  0.69763391435E+03 0.  0.
         25    2    3    3    0    0 -0.64250261914E+02  0.33418752756E+03  0.57892845761E+03  0.68307625379E+03  0.12500243886E+03 0.  0.
         23    2    4    4    0    0 -0.69528655230E+02  0.23518878560E+03  0.40865781916E+03  0.48062391550E+03  0.62049465974E+02 0.  0.
        -15    1    4    4    0    0  0.12476397458E+02  0.86438162499E+02  0.10992700965E+03  0.14039645252E+03  0.00000000000E+00 0.  1.
        -15    1    5    5    0    0 -0.45189447239E+02  0.19654443381E+03  0.36723272189E+03  0.41896500168E+03  0.00000000000E+00 0. -1.
         15    1    5    5    0    0 -0.24339207991E+02  0.38644351788E+02  0.41425097263E+02  0.61658913824E+02  0.00000000000E+00 0.  1.
         15    1    4    4    0    0 -0.71980041424E+01  0.12560579461E+02  0.60343628809E+02  0.62055885763E+02  0.00000000000E+00 0. -1.
        -16    1    3    3    0    0  0.33612199939E+02 -0.27677006169E+03  0.11051178386E+03  0.29990715464E+03  0.00000000000E+00 0.  1.
         16    1    1    2    0    0  0.26600487350E+03  0.17181555174E+03  0.38522000278E+03  0.49867186314E+03  0.00000000000E+00 0. -1.
    9900018    1    1    2    0    0 -0.23536681152E+03 -0.22923301761E+03  0.14323780492E+03  0.36983450283E+03  0.91187600000E+02 0.  0.
<mgrwt>
<rscale>  0 0.13945389E+04</rscale>
<asrwt>0</asrwt>
<pdfrwt beam="1">  1        3 0.23610675E+00 0.13945389E+04</pdfrwt>
<pdfrwt beam="2">  1       -3 0.48737826E-01 0.13945389E+04</pdfrwt>
<totfact> 0.95086092E-01</totfact>
</mgrwt>
</event>
<event>
12    1  0.1652820E-010  0.1258677E+04  0.7818608E-02  0.9062992E-01
         -1   -1    0    0    0  501 -0.00000000000E+00  0.00000000000E+00  0.88820626233E+03  0.88820626233E+03  0.00000000000E+00 0.  1.
          1   -1    0    0  501    0  0.00000000000E+00 -0.00000000000E+00 -0.44591762367E+03  0.44591762367E+03  0.00000000000E+00 0. -1.
    9900016    2    1    2    0    0  0.10597613184E+03  0.50740348285E+02  0.23235081424E+03  0.75319567636E+03  0.70676113543E+03 0.  0.
         25    2    3    3    0    0 -0.12080152516E+03 -0.70029022703E+02  0.40321408827E+03  0.44463838007E+03  0.12499846218E+03 0.  0.
         23    2    4    4    0    0 -0.41772736218E+02 -0.34152509480E+02  0.22475751545E+03  0.24189467077E+03  0.71314343573E+02 0.  0.
        -15    1    5    5    0    0 -0.21128458805E+02 -0.49366158465E+02  0.90677336926E+02  0.10538410129E+03  0.00000000000E+00 0.  1.
        -15    1    4    4    0    0 -0.27956099422E+02 -0.67955388830E+01  0.23941759307E+02  0.37429008567E+02  0.00000000000E+00 0. -1.
         15    1    4    4    0    0 -0.51072689519E+02 -0.29080974340E+02  0.15451481351E+03  0.16531470073E+03  0.00000000000E+00 0. -1.
         15    1    5    5    0    0 -0.20644277412E+02  0.15213648985E+02  0.13408017853E+03  0.13651056948E+03  0.00000000000E+00 0.  1.
        -16    1    1    2    0    0 -0.16949069451E+03  0.15823083137E+03  0.24989403599E+03  0.34089752236E+03  0.00000000000E+00 0.  1.
         16    1    3    3    0    0  0.22677765700E+03  0.12076937099E+03 -0.17086327403E+03  0.30855729630E+03  0.00000000000E+00 0. -1.
    9900018    1    1    2    0    0  0.63514562671E+02 -0.20897117965E+03 -0.39956211569E+02  0.24003068728E+03  0.91187600000E+02 0.  0.
<mgrwt>
<rscale>  0 0.12586768E+04</rscale>
<asrwt>0</asrwt>
<pdfrwt beam="1">  1        1 0.68602711E-01 0.12586768E+04</pdfrwt>
<pdfrwt beam="2">  1       -1 0.13664712E+00 0.12586768E+04</pdfrwt>
<totfact> 0.22815741E+01</totfact>
</mgrwt>
</event>
<event>
12    1  0.1764151E-010  0.1107544E+04  0.7818608E-02  0.9197870E-01
          1   -1    0    0  501    0  0.00000000000E+00  0.00000000000E+00  0.67321248188E+03  0.67321248188E+03  0.00000000000E+00 0. -1.
         -1   -1    0    0    0  501 -0.00000000000E+00 -0.00000000000E+00 -0.45552219829E+03  0.45552219829E+03  0.00000000000E+00 0.  1.
    9900016    2    1    2    0    0 -0.12660325696E+02  0.53624625845E+02  0.32704760942E+03  0.78295584107E+03  0.70924172600E+03 0.  0.
         25    2    3    3    0    0  0.31401781839E+03  0.84642192621E+01  0.30520607127E+02  0.33946250940E+03  0.12499781819E+03 0.  0.
         23    2    4    4    0    0  0.18622157634E+03  0.36837156631E+02  0.30777936827E+02  0.20381114978E+03  0.67500013176E+02 0.  0.
        -15    1    5    5    0    0  0.15666970501E+03  0.50656349608E+02  0.96383559516E+01  0.16493744308E+03  0.00000000000E+00 0.  1.
        -15    1    4    4    0    0  0.73014506444E+02 -0.25921966118E+02 -0.14887361795E+02  0.78896768121E+02  0.00000000000E+00 0.  1.
         15    1    5    5    0    0  0.29551871324E+02 -0.13819192977E+02  0.21139580875E+02  0.38873706703E+02  0.00000000000E+00 0. -1.
         15    1    4    4    0    0  0.54781735611E+02 -0.24509712506E+01  0.14630032095E+02  0.56754591495E+02  0.00000000000E+00 0. -1.
        -16    1    3    3    0    0 -0.32667814409E+03  0.45160406583E+02  0.29652700229E+03  0.44349333167E+03  0.00000000000E+00 0.  1.
         16    1    1    2    0    0  0.77918166634E+01 -0.14925303649E+03  0.31332757797E+02  0.15270534706E+03  0.00000000000E+00 0. -1.
    9900018    1    1    2    0    0  0.48685090325E+01  0.95628410648E+02 -0.14069008363E+03  0.19307349204E+03  0.91187600000E+02 0.  0.
<mgrwt>
<rscale>  0 0.11075436E+04</rscale>
<asrwt>0</asrwt>
<pdfrwt beam="1">  1        1 0.10357115E+00 0.11075436E+04</pdfrwt>
<pdfrwt beam="2">  1       -1 0.70080338E-01 0.11075436E+04</pdfrwt>
<totfact> 0.59273496E+01</totfact>
</mgrwt>
</event>
<event>
12    1  0.1652820E-010  0.2622865E+04  0.7818608E-02  0.8360476E-01
          2   -1    0    0  501    0  0.00000000000E+00  0.00000000000E+00  0.13191529600E+04  0.13191529600E+04  0.00000000000E+00 0. -1.
         -2   -1    0    0    0  501 -0.00000000000E+00 -0.00000000000E+00 -0.13037573900E+04  0.13037573900E+04  0.00000000000E+00 0.  1.
    9900016    2    1    2    0    0 -0.27095795517E+03  0.41561932125E+03 -0.33852967236E+03  0.94137727092E+03  0.72486632800E+03 0.  0.
         25    2    3    3    0    0  0.13804888027E+03 -0.89033316855E+02 -0.17722837401E+03  0.27206494813E+03  0.12500005838E+03 0.  0.
         23    2    4    4    0    0  0.79541790723E+02 -0.77199633461E+02 -0.11194489896E+03  0.17145180771E+03  0.67656352876E+02 0.  0.
        -15    1    4    4    0    0  0.42436147237E+02  0.13492768087E+02 -0.49981060224E+02  0.66940180490E+02  0.00000000000E+00 0.  1.
        -15    1    5    5    0    0  0.97282075818E+01  0.48234960678E+01  0.54340581478E+01  0.12142204290E+02  0.00000000000E+00 0.  1.
         15    1    4    4    0    0  0.16070942308E+02 -0.25326451481E+02 -0.15302414822E+02  0.33672959933E+02  0.00000000000E+00 0. -1.
         15    1    5    5    0    0  0.69813583142E+02 -0.82023129528E+02 -0.11737895711E+03  0.15930960342E+03  0.00000000000E+00 0. -1.
        -16    1    3    3    0    0 -0.40900683544E+03  0.50465263811E+03 -0.16130129835E+03  0.66931232279E+03  0.00000000000E+00 0.  1.
         16    1    1    2    0    0  0.76036630899E+03 -0.27508004488E+03  0.69140536552E+03  0.10638925389E+04  0.00000000000E+00 0. -1.
    9900018    1    1    2    0    0 -0.48940835382E+03 -0.14053927637E+03 -0.33748012309E+03  0.61764054017E+03  0.91187600000E+02 0.  0.
<mgrwt>
<rscale>  0 0.26228652E+04</rscale>
<asrwt>0</asrwt>
<pdfrwt beam="1">  1        2 0.20294661E+00 0.26228652E+04</pdfrwt>
<pdfrwt beam="2">  1       -2 0.20057806E+00 0.26228652E+04</pdfrwt>
<totfact> 0.18755669E+00</totfact>
</mgrwt>
</event>
<event>
12    1  0.1652820E-010  0.2466603E+04  0.7818608E-02  0.8414981E-01
         -2   -1    0    0    0  501 -0.00000000000E+00  0.00000000000E+00  0.83446366844E+03  0.83446366844E+03  0.00000000000E+00 0. -1.
          2   -1    0    0  501    0  0.00000000000E+00 -0.00000000000E+00 -0.18227672107E+04  0.18227672107E+04  0.00000000000E+00 0.  1.
    9900016    2    1    2    0    0  0.29403711361E+02 -0.11714130479E+03 -0.43717337724E+03  0.84477262019E+03  0.71269457310E+03 0.  0.
         25    2    3    3    0    0  0.86906869998E+02  0.61349523572E+02  0.15369300063E+03  0.22486241254E+03  0.12499999213E+03 0.  0.
         23    2    4    4    0    0  0.78334604072E+02  0.29706346866E+02  0.13706599247E+03  0.17021390755E+03  0.56275312477E+02 0.  0.
        -15    1    5    5    0    0  0.44465696967E+02  0.40081381906E+02  0.11141487507E+03  0.12647920686E+03  0.00000000000E+00 0. -1.
        -15    1    4    4    0    0  0.67535600693E+01 -0.89684687815E+01  0.54948927724E+01  0.12499514090E+02  0.00000000000E+00 0. -1.
         15    1    4    4    0    0  0.18187058568E+01  0.40611645488E+02  0.11132115391E+02  0.42148990894E+02  0.00000000000E+00 0.  1.
         15    1    5    5    0    0  0.33868907105E+02 -0.10375035040E+02  0.25651117396E+02  0.43734700688E+02  0.00000000000E+00 0.  1.
        -16    1    3    3    0    0 -0.57503158637E+02 -0.17849082837E+03 -0.59086637787E+03  0.61991020766E+03  0.00000000000E+00 0.  1.
         16    1    1    2    0    0  0.30805734121E+03 -0.35721107807E+03  0.44927379097E+03  0.65141846690E+03  0.00000000000E+00 0. -1.
    9900018    1    1    2    0    0 -0.33746105257E+03  0.47435238287E+03 -0.10004039560E+04  0.11610397921E+04  0.91187600000E+02 0.  0.
<mgrwt>
<rscale>  0 0.24666033E+04</rscale>
<asrwt>0</asrwt>
<pdfrwt beam="1">  1        2 0.28042572E+00 0.24666033E+04</pdfrwt>
<pdfrwt beam="2">  1       -2 0.12837903E+00 0.24666033E+04</pdfrwt>
<totfact> 0.33607257E+00</totfact>
</mgrwt>
</event>
<event>
13    1  0.1652820E-010  0.3291112E+04  0.7818608E-02  0.8165161E-01
         -1   -1    0    0    0  501 -0.00000000000E+00  0.00000000000E+00  0.11298162865E+04  0.11298162865E+04  0.00000000000E+00 0.  1.
          1   -1    0    0  501    0  0.00000000000E+00 -0.00000000000E+00 -0.23967210392E+04  0.23967210392E+04  0.00000000000E+00 0. -1.
    9900016    2    1    2    0    0 -0.42717585086E+03  0.23269483745E+03  0.14275061909E+02  0.88864103498E+03  0.74354086420E+03 0.  0.
         25    2    3    3    0    0  0.11962840113E+03  0.15688431300E+03  0.19867060847E+03  0.30662398781E+03  0.12499846881E+03 0.  0.
         23    2    4    4    0    0  0.54298990056E+02  0.53870207620E+02  0.87586709137E+02  0.12929335054E+03  0.56523970903E+02 0.  0.
         23    2    4    4    0    0  0.65329411072E+02  0.10301410538E+03  0.11108389934E+03  0.17733063727E+03  0.65012955348E+02 0.  0.
        -15    1    6    6    0    0  0.78091496956E+02  0.79829120881E+02  0.87274745725E+02  0.14173161849E+03  0.00000000000E+00 0.  1.
        -15    1    5    5    0    0  0.39756469748E+02  0.47707696685E+00  0.35719205529E+02  0.53447788849E+02  0.00000000000E+00 0. -1.
         15    1    5    5    0    0  0.14542520308E+02  0.53393130653E+02  0.51867503608E+02  0.75845561692E+02  0.00000000000E+00 0. -1.
         15    1    6    6    0    0 -0.12762085884E+02  0.23184984501E+02  0.23809153612E+02  0.35599018781E+02  0.00000000000E+00 0.  1.
        -16    1    3    3    0    0 -0.54680425199E+03  0.75810524446E+02 -0.18439554656E+03  0.58201704718E+03  0.00000000000E+00 0.  1.
         16    1    1    2    0    0 -0.68595771678E+03  0.22202884779E+03 -0.12362989893E+04  0.14311778329E+04  0.00000000000E+00 0. -1.
    9900018    1    1    2    0    0  0.11131335676E+04 -0.45472368524E+03 -0.44880825310E+02  0.12067184577E+04  0.91187600000E+02 0.  0.
<mgrwt>
<rscale>  0 0.32911119E+04</rscale>
<asrwt>0</asrwt>
<pdfrwt beam="1">  1        1 0.36872631E+00 0.32911119E+04</pdfrwt>
<pdfrwt beam="2">  1       -1 0.17381789E+00 0.32911119E+04</pdfrwt>
<totfact> 0.30585518E-01</totfact>
</mgrwt>
</event>
<event>
12    1  0.1652820E-010  0.1540829E+04  0.7818608E-02  0.8857747E-01
          2   -1    0    0  501    0  0.00000000000E+00  0.00000000000E+00  0.23430176615E+04  0.23430176615E+04  0.00000000000E+00 0. -1.
         -2   -1    0    0    0  501 -0.00000000000E+00 -0.00000000000E+00 -0.25332240265E+03  0.25332240265E+03  0.00000000000E+00 0.  1.
    9900016    2    1    2    0    0  0.15258577969E+03  0.12016338065E+03  0.16285987736E+04  0.17888177507E+04  0.71401212982E+03 0.  0.
         25    2    3    3    0    0  0.25068598588E+03  0.22545767807E+03  0.34882718637E+03  0.50098008427E+03  0.12500404298E+03 0.  0.
         23    2    4    4    0    0  0.14592467558E+03  0.17506581077E+03  0.21914184496E+03  0.32106041908E+03  0.55808560672E+02 0.  0.
        -15    1    4    4    0    0  0.10145806155E+03  0.39656775567E+02  0.98832224151E+02  0.14708571185E+03  0.00000000000E+00 0. -1.
        -15    1    5    5    0    0  0.59250294118E+02  0.48704628668E+02  0.44291494901E+02  0.88569039327E+02  0.00000000000E+00 0.  1.
         15    1    5    5    0    0  0.86674381460E+02  0.12636118210E+03  0.17485035006E+03  0.23249137975E+03  0.00000000000E+00 0.  1.
         15    1    4    4    0    0  0.33032487570E+01  0.10735091740E+02  0.30853117259E+02  0.32833953336E+02  0.00000000000E+00 0. -1.
        -16    1    1    2    0    0 -0.19119046670E+03 -0.11564193344E+03 -0.94898328383E+02  0.24276026046E+03  0.00000000000E+00 0.  1.
         16    1    3    3    0    0 -0.98100206195E+02 -0.10529429742E+03  0.12797715872E+04  0.12878376664E+04  0.00000000000E+00 0. -1.
    9900018    1    1    2    0    0  0.38604687016E+02 -0.45214472132E+01  0.55599481367E+03  0.56476205305E+03  0.91187600000E+02 0.  0.
<mgrwt>
<rscale>  0 0.15408295E+04</rscale>
<asrwt>0</asrwt>
<pdfrwt beam="1">  1        2 0.36046424E+00 0.15408295E+04</pdfrwt>
<pdfrwt beam="2">  1       -2 0.38972679E-01 0.15408295E+04</pdfrwt>
<totfact> 0.25727533E+01</totfact>
</mgrwt>
</event>
<event>
12    1  0.1652820E-010  0.1211932E+04  0.7818608E-02  0.9102476E-01
         -2   -1    0    0    0  501 -0.00000000000E+00  0.00000000000E+00  0.68841116852E+03  0.68841116852E+03  0.00000000000E+00 0. -1.
          2   -1    0    0  501    0  0.00000000000E+00 -0.00000000000E+00 -0.53339483618E+03  0.53339483618E+03  0.00000000000E+00 0.  1.
    9900016    2    1    2    0    0  0.26437560229E+03 -0.75206851450E+02  0.10845773145E+03  0.77950267516E+03  0.72132573188E+03 0.  0.
         25    2    3    3    0    0  0.12245546300E+03  0.90781792524E+02  0.38176551669E+03  0.42965885095E+03  0.12500057677E+03 0.  0.
         23    2    4    4    0    0  0.35469810155E+02  0.60798288069E+02  0.18821842982E+03  0.21426260532E+03  0.74348822788E+02 0.  0.
        -15    1    5    5    0    0  0.41126360747E+02  0.50623638793E+02  0.19138869759E+03  0.20219733904E+03  0.00000000000E+00 0.  1.
        -15    1    4    4    0    0  0.71060265579E+02  0.32500288961E+02  0.16614358920E+03  0.18360153147E+03  0.00000000000E+00 0.  1.
         15    1    4    4    0    0  0.15925387267E+02 -0.25167845061E+01  0.27403497674E+02  0.31794714161E+02  0.00000000000E+00 0. -1.
         15    1    5    5    0    0 -0.56565505914E+01  0.10174649276E+02 -0.31702677703E+01  0.12065266272E+02  0.00000000000E+00 0. -1.
        -16    1    3    3    0    0  0.14192013929E+03 -0.16598864397E+03 -0.27330778524E+03  0.34984382421E+03  0.00000000000E+00 0.  1.
         16    1    1    2    0    0 -0.24494189987E+03  0.11759052462E+03 -0.76434023758E+02  0.28225206072E+03  0.00000000000E+00 0. -1.
    9900018    1    1    2    0    0 -0.19433702418E+02 -0.42383673169E+02  0.12299262465E+03  0.16005126883E+03  0.91187600000E+02 0.  0.
<mgrwt>
<rscale>  0 0.12119323E+04</rscale>
<asrwt>0</asrwt>
<pdfrwt beam="1">  1        2 0.82060743E-01 0.12119323E+04</pdfrwt>
<pdfrwt beam="2">  1       -2 0.10590941E+00 0.12119323E+04</pdfrwt>
<totfact> 0.40529075E+01</totfact>
</mgrwt>
</event>
<event>
12    1  0.1652820E-010  0.1516310E+04  0.7818608E-02  0.8873679E-01
          1   -1    0    0  501    0  0.00000000000E+00  0.00000000000E+00  0.70260549516E+03  0.70260549516E+03  0.00000000000E+00 0. -1.
         -1   -1    0    0    0  501 -0.00000000000E+00 -0.00000000000E+00 -0.81809590132E+03  0.81809590132E+03  0.00000000000E+00 0.  1.
    9900016    2    1    2    0    0 -0.18859096639E+03 -0.20020459083E+03 -0.62091147980E+02  0.76508556283E+03  0.71123285708E+03 0.  0.
         25    2    3    3    0    0 -0.35446930551E+03 -0.20183887815E+03  0.18699988469E+03  0.46581204772E+03  0.12499794256E+03 0.  0.
         23    2    4    4    0    0 -0.28619630930E+03 -0.12764217570E+03  0.12071913752E+03  0.34230289976E+03  0.66312235284E+02 0.  0.
        -15    1    4    4    0    0 -0.19012917018E+02 -0.20940454571E+02  0.53824382661E+01  0.28791740011E+02  0.00000000000E+00 0. -1.
        -15    1    5    5    0    0 -0.32678713697E+02  0.50735640191E+01  0.42046082764E+01  0.33336438195E+02  0.00000000000E+00 0. -1.
         15    1    4    4    0    0 -0.49260079194E+02 -0.53256247882E+02  0.60898308909E+02  0.94717407949E+02  0.00000000000E+00 0.  1.
         15    1    5    5    0    0 -0.25351759561E+03 -0.13271573972E+03  0.11651452924E+03  0.30896646157E+03  0.00000000000E+00 0.  1.
        -16    1    3    3    0    0  0.16587833912E+03  0.16342873205E+01 -0.24909103267E+03  0.29927351510E+03  0.00000000000E+00 0.  1.
         16    1    1    2    0    0  0.13467497277E+03 -0.24280741283E+03 -0.10575681697E+03  0.29711494804E+03  0.00000000000E+00 0. -1.
    9900018    1    1    2    0    0  0.53915993619E+02  0.44301200366E+03  0.52357558794E+02  0.45850088561E+03  0.91187600000E+02 0.  0.
<mgrwt>
<rscale>  0 0.15163096E+04</rscale>
<asrwt>0</asrwt>
<pdfrwt beam="1">  1        1 0.10809315E+00 0.15163096E+04</pdfrwt>
<pdfrwt beam="2">  1       -1 0.12586091E+00 0.15163096E+04</pdfrwt>
<totfact> 0.14401385E+01</totfact>
</mgrwt>
</event>
<event>
12    1  0.1652820E-010  0.3489619E+04  0.7818608E-02  0.8116255E-01
          2   -1    0    0  501    0  0.00000000000E+00  0.00000000000E+00  0.22768319579E+04  0.22768319579E+04  0.00000000000E+00 0. -1.
         -2   -1    0    0    0  501 -0.00000000000E+00 -0.00000000000E+00 -0.13371034538E+04  0.13371034538E+04  0.00000000000E+00 0.  1.
    9900016    2    1    2    0    0 -0.51353412241E+02 -0.19941711934E+03 -0.49663935611E+03  0.88644597328E+03  0.70479177994E+03 0.  0.
         25    2    3    3    0    0  0.22330704874E+03  0.43092252303E+02  0.11755477913E+02  0.25977662552E+03  0.12499089440E+03 0.  0.
         23    2    4    4    0    0  0.12358617775E+03 -0.68428686180E+01 -0.74307850549E+01  0.13800574602E+03  0.60580534702E+02 0.  0.
        -15    1    4    4    0    0  0.83982850798E+02  0.54511235776E+02  0.52557268063E+01  0.10026074365E+03  0.00000000000E+00 0.  1.
        -15    1    5    5    0    0  0.22189648713E+02 -0.22792301547E+02  0.11124063641E+02  0.33698877010E+02  0.00000000000E+00 0.  1.
         15    1    4    4    0    0  0.15738020185E+02 -0.45761148553E+01  0.13930536161E+02  0.21510135849E+02  0.00000000000E+00 0. -1.
         15    1    5    5    0    0  0.10139652904E+03  0.15949432929E+02 -0.18554848696E+02  0.10430686901E+03  0.00000000000E+00 0. -1.
        -16    1    3    3    0    0 -0.27466046098E+03 -0.24250937164E+03 -0.50839483402E+03  0.62666934776E+03  0.00000000000E+00 0.  1.
         16    1    1    2    0    0  0.54331682827E+03  0.48611397310E+03  0.18692776503E+04  0.20064144399E+04  0.00000000000E+00 0. -1.
    9900018    1    1    2    0    0 -0.49196341603E+03 -0.28669685375E+03 -0.43290979016E+03  0.72107499851E+03  0.91187600000E+02 0.  0.
<mgrwt>
<rscale>  0 0.34896188E+04</rscale>
<asrwt>0</asrwt>
<pdfrwt beam="1">  1        2 0.35028184E+00 0.34896188E+04</pdfrwt>
<pdfrwt beam="2">  1       -2 0.20570822E+00 0.34896188E+04</pdfrwt>
<totfact> 0.46908022E-01</totfact>
</mgrwt>
</event>
<event>
12    1  0.1652820E-010  0.1796551E+04  0.7818608E-02  0.8708136E-01
         -2   -1    0    0    0  501 -0.00000000000E+00  0.00000000000E+00  0.13529698090E+04  0.13529698090E+04  0.00000000000E+00 0.  1.
          2   -1    0    0  501    0  0.00000000000E+00 -0.00000000000E+00 -0.59639102382E+03  0.59639102382E+03  0.00000000000E+00 0. -1.
    9900016    2    1    2    0    0  0.16919379278E+03  0.36346673806E+03  0.21410751648E+03  0.84562108408E+03  0.71309072357E+03 0.  0.
         25    2    3    3    0    0  0.18906177062E+03 -0.40241358032E+02  0.35024220507E+03  0.41911479242E+03  0.12499554793E+03 0.  0.
         23    2    4    4    0    0  0.14688585233E+03 -0.17211088977E+02  0.24887812809E+03  0.29859590730E+03  0.73126725750E+02 0.  0.
        -15    1    5    5    0    0  0.15053103845E+03 -0.52047252153E+01  0.21535232362E+03  0.26279898400E+03  0.00000000000E+00 0.  1.
        -15    1    4    4    0    0  0.19757846046E+02 -0.28017727357E+02  0.86797008036E+02  0.93322484593E+02  0.00000000000E+00 0.  1.
         15    1    5    5    0    0 -0.36451861266E+01 -0.12006363761E+02  0.33525804467E+02  0.35796923301E+02  0.00000000000E+00 0. -1.
         15    1    4    4    0    0  0.22418072250E+02  0.49874583015E+01  0.14567068946E+02  0.27196400523E+02  0.00000000000E+00 0. -1.
        -16    1    1    2    0    0 -0.90877890876E+02 -0.32352840118E+03  0.77178313368E+03  0.84177112260E+03  0.00000000000E+00 0.  1.
         16    1    3    3    0    0 -0.19867977843E+02  0.40370809609E+03 -0.13613468859E+03  0.42650629166E+03  0.00000000000E+00 0. -1.
    9900018    1    1    2    0    0 -0.78315901906E+02 -0.39938336880E+02 -0.22931186500E+03  0.26196862611E+03  0.91187600000E+02 0.  0.
<mgrwt>
<rscale>  0 0.17965512E+04</rscale>
<asrwt>0</asrwt>
<pdfrwt beam="1">  1        2 0.91752466E-01 0.17965512E+04</pdfrwt>
<pdfrwt beam="2">  1       -2 0.20814920E+00 0.17965512E+04</pdfrwt>
<totfact> 0.55484897E+00</totfact>
</mgrwt>
</event>
<event>
11    1  0.1652820E-010  0.1086728E+04  0.7818608E-02  0.9218225E-01
          2   -1    0    0  501    0  0.00000000000E+00  0.00000000000E+00  0.10057962974E+04  0.10057962974E+04  0.00000000000E+00 0. -1.
         -2   -1    0    0    0  501 -0.00000000000E+00 -0.00000000000E+00 -0.29354274071E+03  0.29354274071E+03  0.00000000000E+00 0.  1.
    9900016    2    1    2    0    0  0.45151116719E+02  0.75048301790E+02  0.39441573155E+03  0.84018493990E+03  0.73666552315E+03 0.  0.
         25    2    3    3    0    0 -0.36032569796E+01 -0.15227775873E+03  0.53387094496E+03  0.56907263237E+03  0.12499590302E+03 0.  0.
        -15    1    4    4    0    0  0.30824839678E+02 -0.44557951814E+02  0.19021116909E+03  0.19777732594E+03  0.00000000000E+00 0. -1.
        -15    1    4    4    0    0 -0.23582924966E+02 -0.29155878878E+02  0.13485086472E+03  0.13996776535E+03  0.00000000000E+00 0. -1.
         15    1    4    4    0    0  0.23836013555E+02 -0.45421103928E+02  0.99083863172E+02  0.11157438848E+03  0.00000000000E+00 0.  1.
         15    1    4    4    0    0 -0.34681185246E+02 -0.33142824110E+02  0.10972504799E+03  0.11975315260E+03  0.00000000000E+00 0.  1.
        -16    1    3    3    0    0  0.48754373699E+02  0.22732606052E+03 -0.13945521341E+03  0.27111230753E+03  0.00000000000E+00 0.  1.
         16    1    1    2    0    0 -0.16783386254E+03 -0.35088139999E+02  0.18989336720E+03  0.25584931873E+03  0.00000000000E+00 0. -1.
    9900018    1    1    2    0    0  0.12268274582E+03 -0.39960161791E+02  0.12794445794E+03  0.20330477949E+03  0.91187600000E+02 0.  0.
<mgrwt>
<rscale>  0 0.10867276E+04</rscale>
<asrwt>0</asrwt>
<pdfrwt beam="1">  1        2 0.15473789E+00 0.10867276E+04</pdfrwt>
<pdfrwt beam="2">  1       -2 0.45160422E-01 0.10867276E+04</pdfrwt>
<totfact> 0.11533142E+02</totfact>
</mgrwt>
</event>
<event>
12    1  0.1652820E-010  0.1547142E+04  0.7818608E-02  0.8853695E-01
          2   -1    0    0  501    0  0.00000000000E+00  0.00000000000E+00  0.67489492820E+03  0.67489492820E+03  0.00000000000E+00 0. -1.
         -2   -1    0    0    0  501 -0.00000000000E+00 -0.00000000000E+00 -0.88667474267E+03  0.88667474267E+03  0.00000000000E+00 0.  1.
    9900016    2    1    2    0    0 -0.86754205761E+02  0.28557443610E+03 -0.34221335047E+03  0.83766117152E+03  0.70390852408E+03 0.  0.
         25    2    3    3    0    0 -0.28854732404E+03  0.32414199902E+03 -0.42121002752E+03  0.61755121155E+03  0.12499607139E+03 0.  0.
         23    2    4    4    0    0 -0.26845088284E+03  0.29773327432E+03 -0.37175128822E+03  0.55044394838E+03  0.63863454954E+02 0.  0.
        -15    1    5    5    0    0 -0.23290940959E+03  0.28045016274E+03 -0.31821656192E+03  0.48390171227E+03  0.00000000000E+00 0.  1.
        -15    1    4    4    0    0 -0.91480192503E+01  0.29846535817E+02 -0.24660053631E+02  0.39782159337E+02  0.00000000000E+00 0. -1.
         15    1    4    4    0    0 -0.10948421952E+02 -0.34378111208E+01 -0.24798685670E+02  0.27325103833E+02  0.00000000000E+00 0. -1.
         15    1    5    5    0    0 -0.35541473252E+02  0.17283111583E+02 -0.53534726296E+02  0.66542236110E+02  0.00000000000E+00 0.  1.
        -16    1    3    3    0    0  0.20179311828E+03 -0.38567562918E+02  0.78996677046E+02  0.22010995997E+03  0.00000000000E+00 0.  1.
         16    1    1    2    0    0 -0.65509987784E+02 -0.10821977543E+03  0.36138778174E+03  0.38288928828E+03  0.00000000000E+00 0. -1.
    9900018    1    1    2    0    0  0.15226419354E+03 -0.17735466067E+03 -0.23095424574E+03  0.34101921106E+03  0.91187600000E+02 0.  0.
<mgrwt>
<rscale>  0 0.15471423E+04</rscale>
<asrwt>0</asrwt>
<pdfrwt beam="1">  1        2 0.10382999E+00 0.15471423E+04</pdfrwt>
<pdfrwt beam="2">  1       -2 0.13641150E+00 0.15471423E+04</pdfrwt>
<totfact> 0.15861223E+01</totfact>
</mgrwt>
</event>
<event>
12    1  0.1652820E-010  0.1557143E+04  0.7818608E-02  0.8847318E-01
          1   -1    0    0  501    0  0.00000000000E+00  0.00000000000E+00  0.64855625409E+03  0.64855625409E+03  0.00000000000E+00 0. -1.
         -1   -1    0    0    0  501 -0.00000000000E+00 -0.00000000000E+00 -0.93465117294E+03  0.93465117294E+03  0.00000000000E+00 0.  1.
    9900016    2    1    2    0    0 -0.25636937650E+03 -0.12291275006E+03 -0.68019478674E+02  0.77628899943E+03  0.71914196083E+03 0.  0.
         25    2    3    3    0    0 -0.10802870008E+03 -0.13845168870E+03  0.30561431050E+03  0.37398485664E+03  0.12500198426E+03 0.  0.
         23    2    4    4    0    0 -0.99879308541E+02 -0.67417669640E+02  0.19390667942E+03  0.23837615555E+03  0.68573848936E+02 0.  0.
        -15    1    5    5    0    0 -0.93014094111E+02 -0.47230412946E+02  0.10917080258E+03  0.15099866803E+03  0.00000000000E+00 0. -1.
        -15    1    4    4    0    0 -0.17471544612E+02 -0.50634299447E+02  0.87622287855E+02  0.10269738303E+03  0.00000000000E+00 0.  1.
         15    1    5    5    0    0 -0.68652144293E+01 -0.20187256694E+02  0.84735876842E+02  0.87377487525E+02  0.00000000000E+00 0.  1.
         15    1    4    4    0    0  0.93221530748E+01 -0.20399719611E+02  0.24085343227E+02  0.32911318061E+02  0.00000000000E+00 0. -1.
        -16    1    1    2    0    0 -0.12904155342E+03  0.16777970816E+03 -0.33078075526E+03  0.39270556532E+03  0.00000000000E+00 0.  1.
         16    1    3    3    0    0 -0.14834067642E+03  0.15538938639E+02 -0.37363378917E+03  0.40230414279E+03  0.00000000000E+00 0. -1.
    9900018    1    1    2    0    0  0.38541092993E+03 -0.44866958104E+02  0.11270531509E+03  0.41421286228E+03  0.91187600000E+02 0.  0.
<mgrwt>
<rscale>  0 0.15571434E+04</rscale>
<asrwt>0</asrwt>
<pdfrwt beam="1">  1        1 0.99777886E-01 0.15571434E+04</pdfrwt>
<pdfrwt beam="2">  1       -1 0.14379249E+00 0.15571434E+04</pdfrwt>
<totfact> 0.11495880E+01</totfact>
</mgrwt>
</event>
<event>
12    1  0.1652820E-010  0.1217399E+04  0.7818608E-02  0.9097762E-01
          2   -1    0    0  501    0  0.00000000000E+00  0.00000000000E+00  0.18879635191E+04  0.18879635191E+04  0.00000000000E+00 0. -1.
         -2   -1    0    0    0  501 -0.00000000000E+00 -0.00000000000E+00 -0.19625128578E+03  0.19625128578E+03  0.00000000000E+00 0.  1.
    9900016    2    1    2    0    0  0.22077459137E+03  0.65627689825E+02  0.80268747888E+03  0.10959752728E+04  0.70979306555E+03 0.  0.
         25    2    3    3    0    0  0.28638555146E+03 -0.26464746461E+03  0.44334032513E+03  0.60351527173E+03  0.12500029883E+03 0.  0.
         23    2    4    4    0    0  0.22022890983E+03 -0.22754352767E+03  0.33536906959E+03  0.46584641189E+03  0.65296530696E+02 0.  0.
        -15    1    5    5    0    0  0.13464262376E+03 -0.17266225208E+03  0.25600602205E+03  0.33686788620E+03  0.00000000000E+00 0.  1.
        -15    1    4    4    0    0 -0.32081964976E+01 -0.10512432903E+02  0.11470801037E+02  0.15886568123E+02  0.00000000000E+00 0. -1.
         15    1    5    5    0    0  0.85586286077E+02 -0.54881275593E+02  0.79363047546E+02  0.12897852570E+03  0.00000000000E+00 0.  1.
         15    1    4    4    0    0  0.69364838129E+02 -0.26591504037E+02  0.96500454499E+02  0.12178229171E+03  0.00000000000E+00 0. -1.
        -16    1    1    2    0    0 -0.59996653594E+02 -0.69241419187E+02  0.12543524380E+02  0.92473307377E+02  0.00000000000E+00 0.  1.
         16    1    3    3    0    0 -0.65610960092E+02  0.33027515444E+03  0.35934715375E+03  0.49246000105E+03  0.00000000000E+00 0. -1.
    9900018    1    1    2    0    0 -0.16077793778E+03  0.36137293619E+01  0.87648123011E+03  0.89576622477E+03  0.91187600000E+02 0.  0.
<mgrwt>
<rscale>  0 0.12173993E+04</rscale>
<asrwt>0</asrwt>
<pdfrwt beam="1">  1        2 0.29045591E+00 0.12173993E+04</pdfrwt>
<pdfrwt beam="2">  1       -2 0.30192507E-01 0.12173993E+04</pdfrwt>
<totfact> 0.77058049E+01</totfact>
</mgrwt>
</event>
<event>
11    1  0.1652820E-010  0.1210087E+04  0.7818608E-02  0.9104073E-01
          2   -1    0    0  501    0  0.00000000000E+00  0.00000000000E+00  0.96395553944E+03  0.96395553944E+03  0.00000000000E+00 0.  1.
         -2   -1    0    0    0  501 -0.00000000000E+00 -0.00000000000E+00 -0.37976602870E+03  0.37976602870E+03  0.00000000000E+00 0. -1.
    9900016    2    1    2    0    0 -0.17523504375E+03 -0.32462487180E+02  0.15867545433E+03  0.74239236301E+03  0.70299885293E+03 0.  0.
         25    2    3    3    0    0  0.14392729325E+03 -0.17232394054E+03  0.27370620925E+03  0.37543473865E+03  0.12500219109E+03 0.  0.
        -15    1    4    4    0    0  0.85106162893E+02 -0.60483785652E+02  0.13853150054E+03  0.17347139225E+03  0.00000000000E+00 0.  1.
        -15    1    4    4    0    0  0.14561307755E+02 -0.37225180550E+02  0.16177330678E+02  0.43121361045E+02  0.00000000000E+00 0.  1.
         15    1    4    4    0    0  0.29314222983E+02 -0.11702075163E+01  0.43419420194E+02  0.52401708987E+02  0.00000000000E+00 0. -1.
         15    1    4    4    0    0  0.14945599622E+02 -0.73444766824E+02  0.75577957835E+02  0.10644027636E+03  0.00000000000E+00 0. -1.
        -16    1    1    2    0    0  0.19596008174E+03  0.37535486396E+02  0.46009776343E+03  0.50149697735E+03  0.00000000000E+00 0.  1.
         16    1    3    3    0    0 -0.31916233700E+03  0.13986145336E+03 -0.11503075492E+03  0.36695762436E+03  0.00000000000E+00 0. -1.
    9900018    1    1    2    0    0 -0.20725037991E+02 -0.50729992155E+01 -0.34583707010E+02  0.99832227788E+02  0.91187600000E+02 0.  0.
<mgrwt>
<rscale>  0 0.12100869E+04</rscale>
<asrwt>0</asrwt>
<pdfrwt beam="1">  1        2 0.14830085E+00 0.12100869E+04</pdfrwt>
<pdfrwt beam="2">  1       -2 0.58425543E-01 0.12100869E+04</pdfrwt>
<totfact> 0.71819718E+01</totfact>
</mgrwt>
</event>
<event>
11    1  0.1652820E-010  0.4061050E+04  0.7818608E-02  0.7992343E-01
         -1   -1    0    0    0  501 -0.00000000000E+00  0.00000000000E+00  0.15064872864E+04  0.15064872864E+04  0.00000000000E+00 0.  1.
          1   -1    0    0  501    0  0.00000000000E+00 -0.00000000000E+00 -0.27368514748E+04  0.27368514748E+04  0.00000000000E+00 0. -1.
    9900016    2    1    2    0    0 -0.21661717248E+01  0.44905619393E+03  0.63744405700E+03  0.10640081373E+04  0.72396286698E+03 0.  0.
         25    2    3    3    0    0 -0.11193684155E+03 -0.97072688831E+02 -0.28350472880E+02  0.19591326195E+03  0.12500117393E+03 0.  0.
        -15    1    4    4    0    0 -0.90800363911E+01 -0.54949201547E+01  0.15780832417E+02  0.19017778002E+02  0.00000000000E+00 0.  1.
        -15    1    4    4    0    0 -0.61371953412E+02 -0.11983642650E+02 -0.18244765012E+02  0.65138282193E+02  0.00000000000E+00 0.  1.
         15    1    4    4    0    0 -0.37617641634E+02 -0.29619846498E+02 -0.36886925647E+02  0.60440611780E+02  0.00000000000E+00 0. -1.
         15    1    4    4    0    0 -0.38672101104E+01 -0.49974279529E+02  0.11000385362E+02  0.51316589974E+02  0.00000000000E+00 0. -1.
        -16    1    3    3    0    0  0.10977066982E+03  0.54612888276E+03  0.66579452988E+03  0.86809487532E+03  0.00000000000E+00 0.  1.
         16    1    1    2    0    0 -0.67616732757E+02 -0.16742478837E+03 -0.24848517452E+04  0.24914034755E+04  0.00000000000E+00 0. -1.
    9900018    1    1    2    0    0  0.69782904482E+02 -0.28163140556E+03  0.61704349989E+03  0.68792714840E+03  0.91187600000E+02 0.  0.
<mgrwt>
<rscale>  0 0.40610501E+04</rscale>
<asrwt>0</asrwt>
<pdfrwt beam="1">  1        1 0.42105408E+00 0.40610501E+04</pdfrwt>
<pdfrwt beam="2">  1       -1 0.23176727E+00 0.40610501E+04</pdfrwt>
<totfact> 0.66117626E-02</totfact>
</mgrwt>
</event>
<event>
12    1  0.1652820E-010  0.1572130E+04  0.7818608E-02  0.8837855E-01
          2   -1    0    0  501    0  0.00000000000E+00  0.00000000000E+00  0.19363857037E+04  0.19363857037E+04  0.00000000000E+00 0. -1.
         -2   -1    0    0    0  501 -0.00000000000E+00 -0.00000000000E+00 -0.31909851456E+03  0.31909851456E+03  0.00000000000E+00 0.  1.
    9900016    2    1    2    0    0 -0.30331313487E+03  0.42661473019E+02  0.67302977320E+03  0.10369432379E+04  0.72695484311E+03 0.  0.
         25    2    3    3    0    0  0.56566115920E+02  0.28717202069E+03  0.13683454478E+03  0.34643342184E+03  0.12499971275E+03 0.  0.
         23    2    4    4    0    0  0.25784409643E+02  0.24148232203E+03  0.98358512311E+02  0.26908278053E+03  0.61258454107E+02 0.  0.
        -15    1    4    4    0    0 -0.84855847052E+01  0.58092006237E+01  0.10804145976E+02  0.14915814760E+02  0.00000000000E+00 0.  1.
        -15    1    5    5    0    0  0.15769219583E+02  0.69967151697E+02  0.12548685142E+01  0.71733153408E+02  0.00000000000E+00 0.  1.
         15    1    4    4    0    0  0.39267290983E+02  0.39880498033E+02  0.27671886496E+02  0.62434826553E+02  0.00000000000E+00 0. -1.
         15    1    5    5    0    0  0.10015190059E+02  0.17151517033E+03  0.97103643797E+02  0.19734962712E+03  0.00000000000E+00 0. -1.
        -16    1    1    2    0    0  0.31666442895E+03 -0.26533138136E+02  0.52731879888E+02  0.32211957273E+03  0.00000000000E+00 0.  1.
         16    1    3    3    0    0 -0.35987925079E+03 -0.24451054767E+03  0.53619522842E+03  0.69050981604E+03  0.00000000000E+00 0. -1.
    9900018    1    1    2    0    0 -0.13351294074E+02 -0.16128334883E+02  0.89152553608E+03  0.89642140766E+03  0.91187600000E+02 0.  0.
<mgrwt>
<rscale>  0 0.15721295E+04</rscale>
<asrwt>0</asrwt>
<pdfrwt beam="1">  1        2 0.29790549E+00 0.15721295E+04</pdfrwt>
<pdfrwt beam="2">  1       -2 0.49092080E-01 0.15721295E+04</pdfrwt>
<totfact> 0.27365848E+01</totfact>
</mgrwt>
</event>
<event>
12    1  0.1652820E-010  0.1271824E+04  0.7818608E-02  0.9052213E-01
         -2   -1    0    0    0  501 -0.00000000000E+00  0.00000000000E+00  0.16169959606E+03  0.16169959606E+03  0.00000000000E+00 0.  1.
          2   -1    0    0  501    0  0.00000000000E+00 -0.00000000000E+00 -0.25008334973E+04  0.25008334973E+04  0.00000000000E+00 0. -1.
    9900016    2    1    2    0    0 -0.14181346019E+03  0.17221924640E+03 -0.13860508258E+04  0.15726957681E+04  0.70884734670E+03 0.  0.
         25    2    3    3    0    0 -0.11089472787E+03 -0.81484236514E+02 -0.24679967603E+02  0.18754161103E+03  0.12500173438E+03 0.  0.
         23    2    4    4    0    0 -0.83597091823E+02 -0.62899860356E+02  0.43578433817E+01  0.12045169089E+03  0.59537827019E+02 0.  0.
        -15    1    4    4    0    0  0.14871769263E+02 -0.82723185437E+01 -0.94230769210E+01  0.19452381699E+02  0.00000000000E+00 0. -1.
        -15    1    5    5    0    0 -0.11448405443E+02 -0.49545931743E+01  0.22898190245E+02  0.26075680187E+02  0.00000000000E+00 0.  1.
         15    1    4    4    0    0 -0.42169405308E+02 -0.10312057614E+02 -0.19614734064E+02  0.47637538440E+02  0.00000000000E+00 0.  1.
         15    1    5    5    0    0 -0.72148686380E+02 -0.57945267181E+02 -0.18540346863E+02  0.94376010707E+02  0.00000000000E+00 0. -1.
        -16    1    1    2    0    0 -0.62919660708E+01 -0.23095707740E+02  0.52917043199E+02  0.58079376839E+02  0.00000000000E+00 0.  1.
         16    1    3    3    0    0 -0.30918732319E+02  0.25370348291E+03 -0.13613708582E+04  0.13851541570E+04  0.00000000000E+00 0. -1.
    9900018    1    1    2    0    0  0.14810542626E+03 -0.14912353866E+03 -0.10060001186E+04  0.10317579484E+04  0.91187600000E+02 0.  0.
<mgrwt>
<rscale>  0 0.12718235E+04</rscale>
<asrwt>0</asrwt>
<pdfrwt beam="1">  1        2 0.38474365E+00 0.12718235E+04</pdfrwt>
<pdfrwt beam="2">  1       -2 0.24876859E-01 0.12718235E+04</pdfrwt>
<totfact> 0.49686903E+01</totfact>
</mgrwt>
</event>
<event>
12    1  0.1652820E-010  0.1470265E+04  0.7818608E-02  0.8904471E-01
          2   -1    0    0  501    0  0.00000000000E+00  0.00000000000E+00  0.37287312618E+03  0.37287312618E+03  0.00000000000E+00 0.  1.
         -2   -1    0    0    0  501 -0.00000000000E+00 -0.00000000000E+00 -0.14493389994E+04  0.14493389994E+04  0.00000000000E+00 0. -1.
    9900016    2    1    2    0    0  0.20480945673E+03 -0.51089628072E+02 -0.40115321451E+03  0.84123178285E+03  0.70865361588E+03 0.  0.
         25    2    3    3    0    0 -0.11106031767E+02  0.87716052128E+02 -0.53166577565E+03  0.55327337675E+03  0.12500193072E+03 0.  0.
         23    2    4    4    0    0 -0.45340282710E+01  0.29105255445E+02 -0.18129066140E+03  0.19503689796E+03  0.65615656286E+02 0.  0.
        -15    1    4    4    0    0 -0.17943032119E+02  0.37894535579E+01 -0.73107281955E+02  0.75372322737E+02  0.00000000000E+00 0. -1.
        -15    1    5    5    0    0  0.20325487451E+02 -0.32131930603E+01 -0.11778270774E+03  0.11956678591E+03  0.00000000000E+00 0. -1.
         15    1    5    5    0    0 -0.24859515722E+02  0.32318448505E+02 -0.63507953656E+02  0.75470112053E+02  0.00000000000E+00 0.  1.
         15    1    4    4    0    0  0.11371028622E+02  0.54821343125E+02 -0.27726783230E+03  0.28286415606E+03  0.00000000000E+00 0.  1.
        -16    1    3    3    0    0  0.21591548850E+03 -0.13880568020E+03  0.13051256114E+03  0.28795840610E+03  0.00000000000E+00 0.  1.
         16    1    1    2    0    0 -0.17375753522E+02  0.14255091719E+02 -0.75461118907E+03  0.75494580674E+03  0.00000000000E+00 0. -1.
    9900018    1    1    2    0    0 -0.18743370321E+03  0.36834536353E+02  0.79298530328E+02  0.22603453602E+03  0.91187600000E+02 0.  0.
<mgrwt>
<rscale>  0 0.14702647E+04</rscale>
<asrwt>0</asrwt>
<pdfrwt beam="1">  1        2 0.57365096E-01 0.14702647E+04</pdfrwt>
<pdfrwt beam="2">  1       -2 0.22297523E+00 0.14702647E+04</pdfrwt>
<totfact> 0.78843489E+00</totfact>
</mgrwt>
</event>
<event>
12    1  0.1652820E-010  0.1047962E+04  0.7818608E-02  0.9257451E-01
         -1   -1    0    0    0  501 -0.00000000000E+00  0.00000000000E+00  0.57591610529E+03  0.57591610529E+03  0.00000000000E+00 0.  1.
          1   -1    0    0  501    0  0.00000000000E+00 -0.00000000000E+00 -0.47672891473E+03  0.47672891473E+03  0.00000000000E+00 0. -1.
    9900016    2    1    2    0    0 -0.36528095628E+02 -0.97941418068E+02 -0.12305189820E+02  0.71477861130E+03  0.70698672005E+03 0.  0.
         25    2    3    3    0    0 -0.12089341294E+03 -0.19703994998E+03 -0.30011310436E+03  0.39891246645E+03  0.12499328503E+03 0.  0.
         23    2    4    4    0    0 -0.10525680058E+03 -0.18179041981E+03 -0.21159980895E+03  0.30418894462E+03  0.60246859479E+02 0.  0.
        -15    1    4    4    0    0 -0.31853391337E+01 -0.18363708938E+02 -0.34567673567E+02  0.39272079741E+02  0.00000000000E+00 0.  1.
        -15    1    5    5    0    0 -0.55352855067E+02 -0.14865661706E+03 -0.15291034203E+03  0.22032771287E+03  0.00000000000E+00 0.  1.
         15    1    4    4    0    0 -0.12451273222E+02  0.31141787687E+01 -0.53945621837E+02  0.55451442088E+02  0.00000000000E+00 0. -1.
         15    1    5    5    0    0 -0.49903945515E+02 -0.33133802749E+02 -0.58689466928E+02  0.83861231752E+02  0.00000000000E+00 0. -1.
        -16    1    1    2    0    0 -0.28740028801E+02 -0.82707665307E+02  0.87680039185E+02  0.12391261609E+03  0.00000000000E+00 0.  1.
         16    1    3    3    0    0  0.84365317309E+02  0.99098531910E+02  0.28780791454E+03  0.31586614485E+03  0.00000000000E+00 0. -1.
    9900018    1    1    2    0    0  0.65268124429E+02  0.18064908337E+03  0.23812341192E+02  0.21395379262E+03  0.91187600000E+02 0.  0.
<mgrwt>
<rscale>  0 0.10479616E+04</rscale>
<asrwt>0</asrwt>
<pdfrwt beam="1">  1        1 0.73342909E-01 0.10479616E+04</pdfrwt>
<pdfrwt beam="2">  1       -1 0.88602478E-01 0.10479616E+04</pdfrwt>
<totfact> 0.59200591E+01</totfact>
</mgrwt>
</event>
<event>
12    1  0.1652820E-010  0.1563258E+04  0.7818608E-02  0.8843443E-01
         -1   -1    0    0    0  501 -0.00000000000E+00  0.00000000000E+00  0.13097325390E+04  0.13097325390E+04  0.00000000000E+00 0.  1.
          1   -1    0    0  501    0  0.00000000000E+00 -0.00000000000E+00 -0.46646459402E+03  0.46646459402E+03  0.00000000000E+00 0. -1.
    9900016    2    1    2    0    0  0.19982151163E+03 -0.41012435114E+03  0.40661622749E+03  0.92849272637E+03  0.69902172110E+03 0.  0.
         25    2    3    3    0    0  0.40504195538E+03 -0.73524682164E+02  0.13941755787E+03  0.45224709990E+03  0.12500127767E+03 0.  0.
         23    2    4    4    0    0  0.37381212504E+03 -0.57322837419E+02  0.11887506325E+03  0.40356498091E+03  0.75577778746E+02 0.  0.
        -15    1    4    4    0    0  0.90781352498E+01  0.64288376991E+01  0.10911745816E+02  0.15582319805E+02  0.00000000000E+00 0.  1.
        -15    1    5    5    0    0  0.19313387052E+02 -0.13045250106E+02 -0.77096814495E+01  0.24548414568E+02  0.00000000000E+00 0.  1.
         15    1    4    4    0    0  0.22151695094E+02 -0.22630682444E+02  0.96307487968E+01  0.33099799181E+02  0.00000000000E+00 0. -1.
         15    1    5    5    0    0  0.35449873799E+03 -0.44277587312E+02  0.12658474470E+03  0.37901656635E+03  0.00000000000E+00 0. -1.
        -16    1    1    2    0    0  0.19072250105E+03  0.16001275249E+03  0.19875302215E+03  0.31856226578E+03  0.00000000000E+00 0.  1.
         16    1    3    3    0    0 -0.20522044375E+03 -0.33659966897E+03  0.26719866962E+03  0.47624562647E+03  0.00000000000E+00 0. -1.
    9900018    1    1    2    0    0 -0.39054401268E+03  0.25011159865E+03  0.23789869538E+03  0.52914214090E+03  0.91187600000E+02 0.  0.
<mgrwt>
<rscale>  0 0.15632580E+04</rscale>
<asrwt>0</asrwt>
<pdfrwt beam="1">  1        1 0.71763784E-01 0.15632580E+04</pdfrwt>
<pdfrwt beam="2">  1       -1 0.20149731E+00 0.15632580E+04</pdfrwt>
<totfact> 0.68955530E+00</totfact>
</mgrwt>
</event>
<event>
12    1  0.1731955E-010  0.1739400E+04  0.7818608E-02  0.8739206E-01
          2   -1    0    0  501    0  0.00000000000E+00  0.00000000000E+00  0.75825340327E+03  0.75825340327E+03  0.00000000000E+00 0. -1.
         -2   -1    0    0    0  501 -0.00000000000E+00 -0.00000000000E+00 -0.99752732127E+03  0.99752732127E+03  0.00000000000E+00 0.  1.
    9900016    2    1    2    0    0  0.46003448981E+02 -0.83780098122E+02 -0.27640830241E+03  0.76653043039E+03  0.70854211513E+03 0.  0.
         25    2    3    3    0    0 -0.54792344146E+02 -0.17406879044E+02  0.21789916771E+03  0.25770327787E+03  0.12500292684E+03 0.  0.
         23    2    4    4    0    0 -0.39096164961E+02 -0.10749673549E+02  0.69304140662E+02  0.10013737456E+03  0.59836145225E+02 0.  0.
        -15    1    5    5    0    0  0.59122398140E+00 -0.28512777487E+02  0.23198616242E+02  0.36762804863E+02  0.00000000000E+00 0. -1.
        -15    1    4    4    0    0  0.15751649331E+02 -0.24913931049E+01  0.22740728980E+02  0.27775209285E+02  0.00000000000E+00 0.  1.
         15    1    5    5    0    0 -0.39687388943E+02  0.17763103938E+02  0.46105524420E+02  0.63374569700E+02  0.00000000000E+00 0. -1.
         15    1    4    4    0    0 -0.31447828516E+02 -0.41658123893E+01  0.12585429807E+03  0.12979069402E+03  0.00000000000E+00 0.  1.
        -16    1    3    3    0    0  0.10079579313E+03 -0.66373219079E+02 -0.49430747012E+03  0.50882715252E+03  0.00000000000E+00 0.  1.
         16    1    1    2    0    0  0.41009183815E+03  0.20040153125E+03  0.17730133914E+03  0.48966504297E+03  0.00000000000E+00 0. -1.
    9900018    1    1    2    0    0 -0.45609528713E+03 -0.11662143313E+03 -0.14016695473E+03  0.49958525118E+03  0.91187600000E+02 0.  0.
<mgrwt>
<rscale>  0 0.17394005E+04</rscale>
<asrwt>0</asrwt>
<pdfrwt beam="1">  1        2 0.11665437E+00 0.17394005E+04</pdfrwt>
<pdfrwt beam="2">  1       -2 0.15346574E+00 0.17394005E+04</pdfrwt>
<totfact> 0.98824542E+00</totfact>
</mgrwt>
</event>
<event>
12    1  0.1652820E-010  0.1546648E+04  0.7818608E-02  0.8854012E-01
         -2   -1    0    0    0  501 -0.00000000000E+00  0.00000000000E+00  0.25302538450E+03  0.25302538450E+03  0.00000000000E+00 0.  1.
          2   -1    0    0  501    0  0.00000000000E+00 -0.00000000000E+00 -0.23635177014E+04  0.23635177014E+04  0.00000000000E+00 0. -1.
    9900016    2    1    2    0    0 -0.46110855491E+03 -0.18141487768E+03 -0.10438997287E+04  0.13540336278E+04  0.70579597928E+03 0.  0.
         25    2    3    3    0    0 -0.65150786282E+01 -0.74063857113E+02  0.58497736567E+02  0.15676187848E+03  0.12499760070E+03 0.  0.
         23    2    4    4    0    0  0.16509536080E+02 -0.27563605228E+02  0.52459234438E+00  0.72831788695E+02  0.65359598627E+02 0.  0.
        -15    1    5    5    0    0 -0.86531298290E+01  0.11657936909E+02 -0.17614506267E+02  0.22826628745E+02  0.00000000000E+00 0. -1.
        -15    1    4    4    0    0 -0.19433227546E+02 -0.65395007400E+01  0.17789959776E+02  0.27145866566E+02  0.00000000000E+00 0.  1.
         15    1    5    5    0    0  0.25162665909E+02 -0.39221542137E+02  0.18139098611E+02  0.50005159951E+02  0.00000000000E+00 0. -1.
         15    1    4    4    0    0 -0.35913871621E+01 -0.39960751145E+02  0.40183184447E+02  0.56784223215E+02  0.00000000000E+00 0.  1.
        -16    1    1    2    0    0  0.14717460274E+03  0.20328716283E+01 -0.16422922423E+02  0.14810202105E+03  0.00000000000E+00 0.  1.
         16    1    3    3    0    0 -0.45459347628E+03 -0.10735102057E+03 -0.11023974653E+04  0.11972717493E+04  0.00000000000E+00 0. -1.
    9900018    1    1    2    0    0  0.31393395217E+03  0.17938200606E+03 -0.10501696658E+04  0.11144074370E+04  0.91187600000E+02 0.  0.
<mgrwt>
<rscale>  0 0.15466480E+04</rscale>
<asrwt>0</asrwt>
<pdfrwt beam="1">  1        2 0.36361811E+00 0.15466480E+04</pdfrwt>
<pdfrwt beam="2">  1       -2 0.38926982E-01 0.15466480E+04</pdfrwt>
<totfact> 0.25092202E+01</totfact>
</mgrwt>
</event>
<event>
11    1  0.1652820E-010  0.1688039E+04  0.7818608E-02  0.8768215E-01
          2   -1    0    0  501    0  0.00000000000E+00  0.00000000000E+00  0.13567908597E+04  0.13567908597E+04  0.00000000000E+00 0. -1.
         -2   -1    0    0    0  501 -0.00000000000E+00 -0.00000000000E+00 -0.52503983467E+03  0.52503983467E+03  0.00000000000E+00 0.  1.
    9900016    2    1    2    0    0  0.28050589846E+03 -0.70587920325E+02  0.98135505580E+03  0.12436960347E+04  0.70714628446E+03 0.  0.
         25    2    3    3    0    0  0.29603796333E+03  0.25289774328E+03  0.36819089057E+03  0.55025929417E+03  0.12500005855E+03 0.  0.
        -15    1    4    4    0    0  0.29786124136E+02  0.35326317945E+01  0.17276726815E+02  0.34614707393E+02  0.00000000000E+00 0. -1.
        -15    1    4    4    0    0  0.14986266422E+03  0.11867118739E+03  0.23488292036E+03  0.30283932229E+03  0.00000000000E+00 0. -1.
         15    1    4    4    0    0  0.10351197709E+03  0.95963380168E+02  0.87774783988E+02  0.16621706422E+03  0.00000000000E+00 0.  1.
         15    1    4    4    0    0  0.12877197879E+02  0.34730543921E+02  0.28256459403E+02  0.46588200269E+02  0.00000000000E+00 0.  1.
        -16    1    1    2    0    0 -0.21533278154E+03  0.55135835798E+02 -0.34613569384E+03  0.41136125941E+03  0.00000000000E+00 0.  1.
         16    1    3    3    0    0 -0.15532064873E+02 -0.32348566360E+03  0.61316416523E+03  0.69343674053E+03  0.00000000000E+00 0. -1.
    9900018    1    1    2    0    0 -0.65173116916E+02  0.15452084527E+02  0.19653166311E+03  0.22677340030E+03  0.91187600000E+02 0.  0.
<mgrwt>
<rscale>  0 0.16880394E+04</rscale>
<asrwt>0</asrwt>
<pdfrwt beam="1">  1        2 0.20873705E+00 0.16880394E+04</pdfrwt>
<pdfrwt beam="2">  1       -2 0.80775360E-01 0.16880394E+04</pdfrwt>
<totfact> 0.19740687E+01</totfact>
</mgrwt>
</event>
<event>
12    1  0.1652820E-010  0.1068809E+04  0.7818608E-02  0.9236138E-01
          2   -1    0    0  501    0  0.00000000000E+00  0.00000000000E+00  0.13429086873E+04  0.13429086873E+04  0.00000000000E+00 0. -1.
         -2   -1    0    0    0  501 -0.00000000000E+00 -0.00000000000E+00 -0.21266373373E+03  0.21266373373E+03  0.00000000000E+00 0.  1.
    9900016    2    1    2    0    0  0.17340522421E+03 -0.52225815621E+02  0.88510105925E+03  0.11472637785E+04  0.70711624564E+03 0.  0.
         25    2    3    3    0    0  0.42581869375E+03 -0.11916452417E+03  0.64909393570E+03  0.79527981203E+03  0.12500119319E+03 0.  0.
         23    2    4    4    0    0  0.38732713264E+03 -0.94273865967E+02  0.59042360768E+03  0.71549256129E+03  0.66480818877E+02 0.  0.
        -15    1    4    4    0    0  0.29395467660E+02 -0.73527639010E+01  0.19835924725E+02  0.36216302484E+02  0.00000000000E+00 0. -1.
        -15    1    5    5    0    0  0.46072791092E+02  0.88338641856E+01  0.83374969541E+02  0.95666738114E+02  0.00000000000E+00 0.  1.
         15    1    4    4    0    0  0.90960934498E+01 -0.17537894302E+02  0.38834403293E+02  0.43570948254E+02  0.00000000000E+00 0. -1.
         15    1    5    5    0    0  0.34125434155E+03 -0.10310773015E+03  0.50704863814E+03  0.61982582318E+03  0.00000000000E+00 0.  1.
        -16    1    3    3    0    0 -0.25241346954E+03  0.66938708550E+02  0.23600712355E+03  0.35198396650E+03  0.00000000000E+00 0.  1.
         16    1    1    2    0    0 -0.21537143585E+03  0.65830563849E+02  0.16692037890E+03  0.28032290561E+03  0.00000000000E+00 0. -1.
    9900018    1    1    2    0    0  0.41966211636E+02 -0.13604748228E+02  0.78223515429E+02  0.12798573691E+03  0.91187600000E+02 0.  0.
<mgrwt>
<rscale>  0 0.10688086E+04</rscale>
<asrwt>0</asrwt>
<pdfrwt beam="1">  1        2 0.20660133E+00 0.10688086E+04</pdfrwt>
<pdfrwt beam="2">  1       -2 0.32717498E-01 0.10688086E+04</pdfrwt>
<totfact> 0.13509501E+02</totfact>
</mgrwt>
</event>
<event>
12    1  0.1652820E-010  0.1730201E+04  0.7818608E-02  0.8744325E-01
         -2   -1    0    0    0  501 -0.00000000000E+00  0.00000000000E+00  0.80212899830E+03  0.80212899830E+03  0.00000000000E+00 0.  1.
          2   -1    0    0  501    0  0.00000000000E+00 -0.00000000000E+00 -0.93301515974E+03  0.93301515974E+03  0.00000000000E+00 0. -1.
    9900016    2    1    2    0    0  0.21045390115E+03 -0.14618341558E+03  0.21088361124E+03  0.78321440064E+03  0.70943108501E+03 0.  0.
         25    2    3    3    0    0  0.43158528468E+03 -0.82236093815E+02  0.28852780251E+03  0.54028031662E+03  0.12500357848E+03 0.  0.
         23    2    4    4    0    0  0.33161315872E+03 -0.68018407199E+02  0.22808065946E+03  0.41352445581E+03  0.66241207512E+02 0.  0.
        -15    1    4    4    0    0  0.44035745070E+02 -0.22387877228E+02  0.87849214101E+01  0.50175080815E+02  0.00000000000E+00 0. -1.
        -15    1    5    5    0    0  0.25030602798E+03 -0.38496220367E+02  0.13706864129E+03  0.28796332935E+03  0.00000000000E+00 0.  1.
         15    1    4    4    0    0  0.55936380882E+02  0.81701906129E+01  0.51662221632E+02  0.76580779996E+02  0.00000000000E+00 0. -1.
         15    1    5    5    0    0  0.81307130748E+02 -0.29522186833E+02  0.91012018175E+02  0.12556112646E+03  0.00000000000E+00 0.  1.
        -16    1    3    3    0    0 -0.22113138352E+03 -0.63947321762E+02 -0.77644191270E+02  0.24293408402E+03  0.00000000000E+00 0.  1.
         16    1    1    2    0    0  0.44645046142E+02 -0.21287397841E+03 -0.44064116848E+03  0.49139917602E+03  0.00000000000E+00 0. -1.
    9900018    1    1    2    0    0 -0.25509894730E+03  0.35905739399E+03  0.98871395803E+02  0.46053058139E+03  0.91187600000E+02 0.  0.
<mgrwt>
<rscale>  0 0.17302006E+04</rscale>
<asrwt>0</asrwt>
<pdfrwt beam="1">  1        2 0.14354079E+00 0.17302006E+04</pdfrwt>
<pdfrwt beam="2">  1       -2 0.12340446E+00 0.17302006E+04</pdfrwt>
<totfact> 0.13097457E+01</totfact>
</mgrwt>
</event>
<event>
12    1  0.1652820E-010  0.1549291E+04  0.7818608E-02  0.8852320E-01
         -1   -1    0    0    0  501 -0.00000000000E+00  0.00000000000E+00  0.72185989252E+03  0.72185989252E+03  0.00000000000E+00 0.  1.
          1   -1    0    0  501    0  0.00000000000E+00 -0.00000000000E+00 -0.83129143993E+03  0.83129143993E+03  0.00000000000E+00 0. -1.
    9900016    2    1    2    0    0  0.16742465704E+03  0.20491664241E+03  0.61110243203E+02  0.76160004637E+03  0.71153237641E+03 0.  0.
         25    2    3    3    0    0 -0.11511032390E+03  0.31833646203E+03  0.21543519354E+03  0.42026991111E+03  0.12500394331E+03 0.  0.
         23    2    4    4    0    0 -0.24033124729E+02  0.19645180792E+03  0.13520715931E+03  0.24569457440E+03  0.53980959989E+02 0.  0.
        -15    1    5    5    0    0 -0.30460538957E+02  0.15222843401E+03  0.79933826288E+02  0.17461602773E+03  0.00000000000E+00 0.  1.
        -15    1    4    4    0    0 -0.23985794382E+02  0.30439115502E+02  0.64867138740E+01  0.39292945188E+02  0.00000000000E+00 0.  1.
         15    1    5    5    0    0  0.64274142279E+01  0.44223373914E+02  0.55273333019E+02  0.71078546672E+02  0.00000000000E+00 0. -1.
         15    1    4    4    0    0 -0.67091404793E+02  0.91445538605E+02  0.73741320355E+02  0.13528239152E+03  0.00000000000E+00 0. -1.
        -16    1    1    2    0    0  0.44160207140E+02  0.21989316087E+03 -0.20924746040E+03  0.30673706293E+03  0.00000000000E+00 0.  1.
         16    1    3    3    0    0  0.28253498095E+03 -0.11341981962E+03 -0.15432495033E+03  0.34133013526E+03  0.00000000000E+00 0. -1.
    9900018    1    1    2    0    0 -0.21158486418E+03 -0.42480980327E+03  0.38705669786E+02  0.48481422316E+03  0.91187600000E+02 0.  0.
<mgrwt>
<rscale>  0 0.15492914E+04</rscale>
<asrwt>0</asrwt>
<pdfrwt beam="1">  1        1 0.12789099E+00 0.15492914E+04</pdfrwt>
<pdfrwt beam="2">  1       -1 0.11105537E+00 0.15492914E+04</pdfrwt>
<totfact> 0.14938916E+01</totfact>
</mgrwt>
</event>
<event>
12    1  0.1652820E-010  0.1513226E+04  0.7818608E-02  0.8875705E-01
          2   -1    0    0  501    0  0.00000000000E+00  0.00000000000E+00  0.26654271915E+04  0.26654271915E+04  0.00000000000E+00 0. -1.
         -2   -1    0    0    0  501 -0.00000000000E+00 -0.00000000000E+00 -0.21477350220E+03  0.21477350220E+03  0.00000000000E+00 0.  1.
    9900016    2    1    2    0    0 -0.12352715440E+03 -0.14288972398E+03  0.13369449683E+04  0.15240663644E+04  0.70688047341E+03 0.  0.
         25    2    3    3    0    0  0.43220839627E+02  0.11624358038E+03  0.26727327887E+02  0.17810008390E+03  0.12499871548E+03 0.  0.
         23    2    4    4    0    0  0.36884108663E+02  0.58651637202E+02 -0.20198133679E+01  0.10441462142E+03  0.78088933283E+02 0.  0.
        -15    1    5    5    0    0  0.18976941184E+00 -0.15540318494E+02 -0.13832483093E+02  0.20805650671E+02  0.00000000000E+00 0. -1.
        -15    1    4    4    0    0 -0.10266928959E+02  0.20136540903E+02 -0.16604670565E+01  0.22663787429E+02  0.00000000000E+00 0. -1.
         15    1    4    4    0    0  0.16603659923E+02  0.37455402274E+02  0.30407608311E+02  0.51021675056E+02  0.00000000000E+00 0.  1.
         15    1    5    5    0    0  0.36694339251E+02  0.74191955696E+02  0.11812669725E+02  0.83608970746E+02  0.00000000000E+00 0.  1.
        -16    1    1    2    0    0  0.22098631134E+03 -0.81338530761E+02  0.25245911846E+02  0.23682960637E+03  0.00000000000E+00 0.  1.
         16    1    3    3    0    0 -0.16674799403E+03 -0.25913330436E+03  0.13102176404E+04  0.13459662805E+04  0.00000000000E+00 0. -1.
    9900018    1    1    2    0    0 -0.97459156943E+02  0.22422825474E+03  0.10884628091E+04  0.11193047229E+04  0.91187600000E+02 0.  0.
<mgrwt>
<rscale>  0 0.15132259E+04</rscale>
<asrwt>0</asrwt>
<pdfrwt beam="1">  1        2 0.41006570E+00 0.15132259E+04</pdfrwt>
<pdfrwt beam="2">  1       -2 0.33042079E-01 0.15132259E+04</pdfrwt>
<totfact> 0.23066665E+01</totfact>
</mgrwt>
</event>
