<event>
11    1  0.1531700E-012  0.1011840E+04  0.7818608E-02  0.9295654E-01
          1   -1    0    0  501    0  0.00000000000E+00  0.00000000000E+00  0.96090453248E+03  0.96090453248E+03  0.00000000000E+00 0. -1.
         -1   -1    0    0    0  501 -0.00000000000E+00 -0.00000000000E+00 -0.26636878709E+03  0.26636878709E+03  0.00000000000E+00 0.  1.
    9900016    2    1    2    0    0 -0.20441946974E+03  0.46612993124E+01  0.49629639914E+03  0.94247885732E+03  0.77469170215E+03 0.  0.
         23    2    3    3    0    0 -0.12797363548E+03  0.69163551200E+02  0.53751197577E+02  0.17991316982E+03  0.91206958279E+02 0.  0.
        -15    1    3    3    0    0 -0.15022030929E+03  0.27939820067E+01  0.20476461877E+02  0.15163519759E+03  0.00000000000E+00 0.  1.
        -15    1    4    4    0    0 -0.99779177301E+02  0.38993592090E+02  0.77551197409E+02  0.13225192878E+03  0.00000000000E+00 0.  1.
         15    1    4    4    0    0 -0.28194458183E+02  0.30169959110E+02 -0.23799999831E+02  0.47661241034E+02  0.00000000000E+00 0. -1.
         15    1    3    3    0    0 -0.41215610569E+02 -0.45937967217E+02  0.20658361852E+03  0.21560569294E+03  0.00000000000E+00 0. -1.
        -16    1    1    2    0    0  0.20441946974E+03 -0.46612993124E+01  0.19823934626E+03  0.28479446225E+03  0.00000000000E+00 0.  1.
         16    1    3    3    0    0  0.14111536748E+03  0.99909646326E+02  0.14647403616E+03  0.22660566550E+03  0.00000000000E+00 0. -1.
    9900018    1    3    3    0    0 -0.26125281888E+02 -0.12126791300E+03  0.69011085010E+02  0.16871913148E+03  0.91187600000E+02 0.  0.
<mgrwt>
<rscale>  0 0.10118399E+04</rscale>
<asrwt>0</asrwt>
<pdfrwt beam="1">  1        1 0.14783147E+00 0.10118399E+04</pdfrwt>
<pdfrwt beam="2">  1       -1 0.40979814E-01 0.10118399E+04</pdfrwt>
<totfact> 0.94747545E+01</totfact>
</mgrwt>
</event>
<event>
12    1  0.1531700E-012  0.9718453E+03  0.7818608E-02  0.9339975E-01
          1   -1    0    0  501    0  0.00000000000E+00  0.00000000000E+00  0.20093761714E+04  0.20093761714E+04  0.00000000000E+00 0. -1.
         -1   -1    0    0    0  501 -0.00000000000E+00 -0.00000000000E+00 -0.11750951752E+03  0.11750951752E+03  0.00000000000E+00 0.  1.
    9900016    2    1    2    0    0 -0.70116050604E+01  0.14471604232E+02  0.14504648075E+04  0.16851910207E+04  0.85776571891E+03 0.  0.
    9900016    2    3    3    0    0  0.86254277751E+02  0.11769415709E+02  0.85381427920E+03  0.10666316773E+04  0.63334508138E+03 0.  0.
         23    2    4    4    0    0  0.25955281018E+03 -0.31520903306E+02  0.13487728637E+03  0.30927867508E+03  0.95394904813E+02 0.  0.
        -15    1    3    3    0    0 -0.12779837151E+03 -0.14738591293E+01  0.44644859237E+03  0.46438232272E+03  0.00000000000E+00 0.  1.
        -15    1    5    5    0    0  0.14896337844E+03 -0.21462591026E+02  0.24087385546E+02  0.15241697108E+03  0.00000000000E+00 0.  1.
         15    1    3    3    0    0  0.34532488695E+02  0.41760476519E+01  0.15020193588E+03  0.15417702063E+03  0.00000000000E+00 0. -1.
         15    1    5    5    0    0  0.11058943173E+03 -0.10058312281E+02  0.11078990082E+03  0.15686170400E+03  0.00000000000E+00 0. -1.
        -16    1    4    4    0    0 -0.79188029209E+02  0.44312332394E+02  0.16688478570E+03  0.18996014969E+03  0.00000000000E+00 0.  1.
         16    1    1    2    0    0  0.70116050604E+01 -0.14471604232E+02  0.44140184640E+03  0.44169466822E+03  0.00000000000E+00 0. -1.
    9900018    1    4    4    0    0 -0.94110503219E+02 -0.10220133782E+01  0.55205220713E+03  0.56739285255E+03  0.91187600000E+02 0.  0.
<mgrwt>
<rscale>  0 0.97184531E+03</rscale>
<asrwt>0</asrwt>
<pdfrwt beam="1">  1        1 0.30913477E+00 0.97184531E+03</pdfrwt>
<pdfrwt beam="2">  1       -1 0.18078389E-01 0.97184531E+03</pdfrwt>
<totfact> 0.71793807E+01</totfact>
</mgrwt>
</event>
<event>
11    1  0.1531700E-012  0.2504131E+04  0.7818608E-02  0.8401515E-01
         -1   -1    0    0    0  501 -0.00000000000E+00  0.00000000000E+00  0.12297366420E+04  0.12297366420E+04  0.00000000000E+00 0.  1.
          1   -1    0    0  501    0  0.00000000000E+00 -0.00000000000E+00 -0.12747996109E+04  0.12747996109E+04  0.00000000000E+00 0. -1.
    9900016    2    1    2    0    0  0.38403568491E+03  0.47324252592E+03  0.21338286301E+03  0.89625353332E+03  0.62152735591E+03 0.  0.
         23    2    3    3    0    0  0.37715581575E+03  0.78710072100E+02  0.19603911216E+03  0.44146197308E+03  0.89529634058E+02 0.  0.
        -15    1    1    2    0    0  0.19282331318E+03 -0.48369957222E+03 -0.11585892965E+03  0.53345046429E+03  0.00000000000E+00 0.  1.
        -15    1    4    4    0    0  0.10955531222E+03  0.15039849280E+02  0.13661984536E+02  0.11142357616E+03  0.00000000000E+00 0.  1.
         15    1    1    2    0    0 -0.40151696126E+03 -0.23935757585E+03 -0.44484266509E+03  0.64528514316E+03  0.00000000000E+00 0. -1.
         15    1    4    4    0    0  0.26760050353E+03  0.63670222820E+02  0.18237712762E+03  0.33003839692E+03  0.00000000000E+00 0. -1.
        -16    1    1    2    0    0 -0.17534203683E+03  0.24981462216E+03  0.30225576292E+03  0.42954711213E+03  0.00000000000E+00 0.  1.
         16    1    3    3    0    0  0.37014157242E+02  0.29456875424E+03 -0.49352477822E+02  0.30095924288E+03  0.00000000000E+00 0. -1.
    9900018    1    3    3    0    0 -0.30134288082E+02  0.99963699582E+02  0.66696228673E+02  0.15383231736E+03  0.91187600000E+02 0.  0.
<mgrwt>
<rscale>  0 0.25041308E+04</rscale>
<asrwt>0</asrwt>
<pdfrwt beam="1">  1        1 0.19612302E+00 0.25041308E+04</pdfrwt>
<pdfrwt beam="2">  1       -1 0.18919025E+00 0.25041308E+04</pdfrwt>
<totfact> 0.14994297E+00</totfact>
</mgrwt>
</event>
<event>
10    1  0.1531700E-012  0.9438305E+03  0.7818608E-02  0.9648984E-01
          1   -1    0    0  501    0  0.00000000000E+00  0.00000000000E+00  0.33213823352E+03  0.33213823352E+03  0.00000000000E+00 0. -1.
         -1   -1    0    0    0  501 -0.00000000000E+00 -0.00000000000E+00 -0.12889778619E+04  0.12889778619E+04  0.00000000000E+00 0.  1.
         23    2    1    2    0    0  0.10158644996E+03 -0.15037558052E+03 -0.18268295538E+03  0.27275539621E+03  0.89943437480E+02 0.  0.
        -15    1    3    3    0    0  0.31680990755E+02 -0.12247224676E+03 -0.12583771809E+03  0.17843281003E+03  0.00000000000E+00 0. -1.
        -15    1    1    2    0    0  0.27867664487E+03  0.28943684546E+03 -0.30303799295E+03  0.50325578494E+03  0.00000000000E+00 0.  1.
         15    1    3    3    0    0  0.69905459207E+02 -0.27903333760E+02 -0.56845237289E+02  0.94322586183E+02  0.00000000000E+00 0.  1.
         15    1    1    2    0    0 -0.39975864014E+02  0.33400983646E+02 -0.11981530711E+02  0.53453273897E+02  0.00000000000E+00 0. -1.
        -16    1    1    2    0    0 -0.30222911461E+03 -0.36349371636E+02 -0.18733580704E+03  0.35743309742E+03  0.00000000000E+00 0.  1.
         16    1    1    2    0    0 -0.28089267202E+02  0.60137532003E+02  0.21337920377E+02  0.69719699751E+02  0.00000000000E+00 0. -1.
    9900018    1    1    2    0    0 -0.99688490093E+01 -0.19625040895E+03 -0.29313926266E+03  0.36449884317E+03  0.91187600000E+02 0.  0.
<mgrwt>
<rscale>  0 0.74137232E+03</rscale>
<asrwt>0</asrwt>
<pdfrwt beam="1">  1        1 0.51098190E-01 0.94383047E+03</pdfrwt>
<pdfrwt beam="2">  1       -1 0.19830428E+00 0.94383047E+03</pdfrwt>
<totfact> 0.11979678E+01</totfact>
</mgrwt>
</event>
<event>
11    1  0.1531700E-012  0.1078665E+04  0.7818608E-02  0.9226239E-01
         -1   -1    0    0    0  501 -0.00000000000E+00  0.00000000000E+00  0.83717928957E+03  0.83717928957E+03  0.00000000000E+00 0.  1.
          1   -1    0    0  501    0  0.00000000000E+00 -0.00000000000E+00 -0.34745201308E+03  0.34745201308E+03  0.00000000000E+00 0. -1.
    9900016    2    1    2    0    0 -0.10676003468E+03  0.70146774326E+02  0.61039512919E+03  0.10089070709E+04  0.79309078231E+03 0.  0.
         23    2    3    3    0    0  0.20606802378E+02  0.38695621989E+02  0.11983234192E+02  0.10250681671E+03  0.91880673188E+02 0.  0.
        -15    1    3    3    0    0 -0.11584290152E+03  0.20379113608E+03  0.29915289031E+03  0.38005638629E+03  0.00000000000E+00 0.  1.
        -15    1    4    4    0    0  0.37843675121E+02  0.36293971757E+02  0.42420417536E+02  0.67445444297E+02  0.00000000000E+00 0. -1.
         15    1    4    4    0    0 -0.17236872743E+02  0.24016502327E+01 -0.30437183343E+02  0.35061372416E+02  0.00000000000E+00 0.  1.
         15    1    3    3    0    0 -0.13635839520E+03  0.99029965842E+01  0.76861615290E+02  0.15684192421E+03  0.00000000000E+00 0. -1.
        -16    1    3    3    0    0 -0.49901326749E+01 -0.16409516628E+02 -0.26105504548E+02  0.31235733188E+02  0.00000000000E+00 0.  1.
         16    1    1    2    0    0  0.10676003468E+03 -0.70146774326E+02 -0.12066785270E+03  0.17572423176E+03  0.00000000000E+00 0. -1.
    9900018    1    3    3    0    0  0.12982459235E+03 -0.16583346370E+03  0.24850289395E+03  0.33826621048E+03  0.91187600000E+02 0.  0.
<mgrwt>
<rscale>  0 0.10786652E+04</rscale>
<asrwt>0</asrwt>
<pdfrwt beam="1">  1        1 0.53454156E-01 0.10786652E+04</pdfrwt>
<pdfrwt beam="2">  1       -1 0.12879681E+00 0.10786652E+04</pdfrwt>
<totfact> 0.37473954E+01</totfact>
</mgrwt>
</event>
<event>
11    1  0.1531700E-012  0.2306718E+04  0.7818608E-02  0.8475277E-01
         -1   -1    0    0    0  501 -0.00000000000E+00  0.00000000000E+00  0.23419170869E+04  0.23419170869E+04  0.00000000000E+00 0.  1.
          1   -1    0    0  501    0  0.00000000000E+00 -0.00000000000E+00 -0.56801198273E+03  0.56801198273E+03  0.00000000000E+00 0. -1.
    9900016    2    1    2    0    0 -0.62921912857E+03  0.30138915510E+03  0.31140310125E+03  0.11148956429E+04  0.81195336598E+03 0.  0.
         23    2    3    3    0    0 -0.45903040541E+02 -0.34282173532E+02  0.40218575706E+03  0.41635044786E+03  0.91169927608E+02 0.  0.
        -15    1    1    2    0    0  0.19798067758E+02 -0.19147869026E+03  0.12094604458E+03  0.22734114896E+03  0.00000000000E+00 0.  1.
        -15    1    4    4    0    0  0.25675825773E+01  0.28155642961E+02  0.12161003208E+03  0.12485324430E+03  0.00000000000E+00 0.  1.
         15    1    4    4    0    0 -0.48470623119E+02 -0.62437816493E+02  0.28057572498E+03  0.29149720356E+03  0.00000000000E+00 0. -1.
         15    1    1    2    0    0 -0.91832392195E+02  0.14639982125E+02  0.10152803126E+03  0.13767882359E+03  0.00000000000E+00 0. -1.
        -16    1    1    2    0    0  0.70125345300E+03 -0.12455044696E+03  0.12400279271E+04  0.14300134542E+04  0.00000000000E+00 0.  1.
         16    1    3    3    0    0 -0.17393964976E+03  0.16323979678E+03 -0.17419003416E+02  0.23917703630E+03  0.00000000000E+00 0. -1.
    9900018    1    3    3    0    0 -0.40937643826E+03  0.17243153185E+03 -0.73363652395E+02  0.45936815875E+03  0.91187600000E+02 0.  0.
<mgrwt>
<rscale>  0 0.23067180E+04</rscale>
<asrwt>0</asrwt>
<pdfrwt beam="1">  1        1 0.87386460E-01 0.23067180E+04</pdfrwt>
<pdfrwt beam="2">  1       -1 0.36029493E+00 0.23067180E+04</pdfrwt>
<totfact> 0.44452674E-01</totfact>
</mgrwt>
</event>
<event>
10    1  0.1531700E-012  0.1176646E+04  0.7818608E-02  0.9814341E-01
          2   -1    0    0  501    0  0.00000000000E+00  0.00000000000E+00  0.98389235027E+03  0.98389235027E+03  0.00000000000E+00 0.  1.
         -2   -1    0    0    0  501 -0.00000000000E+00 -0.00000000000E+00 -0.41995545644E+03  0.41995545644E+03  0.00000000000E+00 0. -1.
         23    2    1    2    0    0  0.11691428184E+02 -0.56752229728E+02  0.25697610030E+02  0.10993958570E+03  0.89826723584E+02 0.  0.
        -15    1    1    2    0    0  0.27016193307E+02  0.64298974705E+00  0.14656847342E+03  0.14903893967E+03  0.00000000000E+00 0.  1.
        -15    1    3    3    0    0  0.10781018898E+02 -0.44095119720E+02 -0.28948853314E+02  0.53839075585E+02  0.00000000000E+00 0. -1.
         15    1    1    2    0    0 -0.27544741508E+03  0.70658528199E+02  0.15368493699E+03  0.32323824950E+03  0.00000000000E+00 0. -1.
         15    1    3    3    0    0  0.91040928566E+00 -0.12657110008E+02  0.54646463344E+02  0.56100510112E+02  0.00000000000E+00 0.  1.
        -16    1    1    2    0    0  0.27354761595E+03  0.12355885381E+03  0.12956852949E+02  0.30043796129E+03  0.00000000000E+00 0.  1.
         16    1    1    2    0    0 -0.20134051922E+03  0.45126698791E+02  0.11732637957E+03  0.23736028094E+03  0.00000000000E+00 0. -1.
    9900018    1    1    2    0    0  0.16453269686E+03 -0.18323484081E+03  0.10770264087E+03  0.28383278963E+03  0.91187600000E+02 0.  0.
<mgrwt>
<rscale>  0 0.64598572E+03</rscale>
<asrwt>0</asrwt>
<pdfrwt beam="1">  1        2 0.15136805E+00 0.11766465E+04</pdfrwt>
<pdfrwt beam="2">  1       -2 0.64608532E-01 0.11766465E+04</pdfrwt>
<totfact> 0.56307483E+01</totfact>
</mgrwt>
</event>
<event>
10    1  0.1531700E-012  0.1798580E+04  0.7818608E-02  0.8707055E-01
         -2   -1    0    0    0  501 -0.00000000000E+00  0.00000000000E+00  0.25768058356E+03  0.25768058356E+03  0.00000000000E+00 0. -1.
          2   -1    0    0  501    0  0.00000000000E+00 -0.00000000000E+00 -0.31384677151E+04  0.31384677151E+04  0.00000000000E+00 0.  1.
         23    2    1    2    0    0  0.34101559714E+03 -0.18748669278E+03 -0.82033325400E+03  0.91221144627E+03  0.87978279345E+02 0.  0.
        -15    1    3    3    0    0  0.14146239239E+02 -0.15818694330E+02 -0.10602871837E+03  0.10813156937E+03  0.00000000000E+00 0.  1.
        -15    1    1    2    0    0 -0.83271132833E+02 -0.36485721380E+02  0.93475777966E+01  0.91392924445E+02  0.00000000000E+00 0.  1.
         15    1    3    3    0    0  0.32686935790E+03 -0.17166799845E+03 -0.71430453563E+03  0.80407987691E+03  0.00000000000E+00 0. -1.
         15    1    1    2    0    0  0.21047270164E+02 -0.11018208943E+03 -0.38846920365E+02  0.11871041923E+03  0.00000000000E+00 0. -1.
        -16    1    1    2    0    0 -0.39084775978E+02  0.12542428516E+03 -0.16099947991E+04  0.16153458219E+04  0.00000000000E+00 0.  1.
         16    1    1    2    0    0 -0.24910447386E+02  0.11872706305E+03 -0.38763074361E+03  0.40617020974E+03  0.00000000000E+00 0. -1.
    9900018    1    1    2    0    0 -0.21479651111E+03  0.90003155379E+02 -0.33328992299E+02  0.25231747717E+03  0.91187600000E+02 0.  0.
<mgrwt>
<rscale>  0 0.17985797E+04</rscale>
<asrwt>0</asrwt>
<pdfrwt beam="1">  1        2 0.48284122E+00 0.17985797E+04</pdfrwt>
<pdfrwt beam="2">  1       -2 0.39643164E-01 0.17985797E+04</pdfrwt>
<totfact> 0.81189484E+00</totfact>
</mgrwt>
</event>
