<event>
11    1  0.2779909E-011  0.2492841E+04  0.7818608E-02  0.8405541E-01
         -1   -1    0    0    0  501 -0.00000000000E+00  0.00000000000E+00  0.85609043974E+03  0.85609043974E+03  0.00000000000E+00 0.  1.
          1   -1    0    0  501    0  0.00000000000E+00 -0.00000000000E+00 -0.18147190578E+04  0.18147190578E+04  0.00000000000E+00 0. -1.
    9900016    2    1    2    0    0 -0.39447301331E+02  0.34435089870E+02 -0.38130391681E+03  0.82337686431E+03  0.72788386347E+03 0.  0.
         23    2    3    3    0    0  0.10518147945E+03  0.14549923560E+03 -0.23116413721E+03  0.30629410064E+03  0.90255451756E+02 0.  0.
        -15    1    1    2    0    0  0.29245614922E+03  0.11330389197E+02 -0.10759852358E+02  0.29287326843E+03  0.00000000000E+00 0.  1.
        -15    1    4    4    0    0  0.45158958854E+02  0.35537741945E+01 -0.69342529360E+02  0.82827213244E+02  0.00000000000E+00 0.  1.
         15    1    4    4    0    0  0.60022520597E+02  0.14194546141E+03 -0.16182160785E+03  0.22346688739E+03  0.00000000000E+00 0. -1.
         15    1    1    2    0    0  0.49756192094E+02  0.20911774917E+03 -0.96756047539E+03  0.99115043521E+03  0.00000000000E+00 0. -1.
        -16    1    1    2    0    0 -0.30276503999E+03 -0.25488322824E+03  0.40099562650E+03  0.56340892960E+03  0.00000000000E+00 0.  1.
         16    1    3    3    0    0 -0.22004096713E+03 -0.23550902054E+03 -0.84103750561E+02  0.33310053562E+03  0.00000000000E+00 0. -1.
    9900018    1    3    3    0    0  0.75412186348E+02  0.12444487480E+03 -0.66036029036E+02  0.18398222805E+03  0.91187600000E+02 0.  0.
<mgrwt>
<rscale>  0 0.24928407E+04</rscale>
<asrwt>0</asrwt>
<pdfrwt beam="1">  1        1 0.27918755E+00 0.24928407E+04</pdfrwt>
<pdfrwt beam="2">  1       -1 0.13170622E+00 0.24928407E+04</pdfrwt>
<totfact> 0.17363198E+00</totfact>
</mgrwt>
</event>
<event>
11    1  0.2779910E-011  0.1933884E+04  0.7818608E-02  0.8638171E-01
         -1   -1    0    0    0  501 -0.00000000000E+00  0.00000000000E+00  0.16035616781E+04  0.16035616781E+04  0.00000000000E+00 0.  1.
          1   -1    0    0  501    0  0.00000000000E+00 -0.00000000000E+00 -0.58306281223E+03  0.58306281223E+03  0.00000000000E+00 0. -1.
    9900016    2    1    2    0    0 -0.12142282627E+03 -0.76475922490E+02  0.43942702901E+03  0.86046917155E+03  0.72575409878E+03 0.  0.
         23    2    3    3    0    0  0.15662959291E+03  0.18513841050E+03  0.11273489921E+02  0.25917862184E+03  0.90760156605E+02 0.  0.
        -15    1    4    4    0    0  0.98701824337E+02  0.10911153334E+03  0.50932065007E+02  0.15569666689E+03  0.00000000000E+00 0. -1.
        -15    1    1    2    0    0 -0.27716749116E+02 -0.25377561392E+03  0.69791652416E+03  0.74314046794E+03  0.00000000000E+00 0.  1.
         15    1    4    4    0    0  0.57927768577E+02  0.76026877156E+02 -0.39658575085E+02  0.10348195495E+03  0.00000000000E+00 0.  1.
         15    1    1    2    0    0 -0.15745337855E+03  0.91723971669E+02 -0.48861717237E+02  0.18865927173E+03  0.00000000000E+00 0. -1.
        -16    1    3    3    0    0 -0.85383119904E+02 -0.16911343107E+03  0.20483634116E+03  0.27901174956E+03  0.00000000000E+00 0.  1.
         16    1    1    2    0    0  0.30659295394E+03  0.23852756474E+03 -0.67982970080E+02  0.39435557910E+03  0.00000000000E+00 0. -1.
    9900018    1    3    3    0    0 -0.19266929928E+03 -0.92500901915E+02  0.22331719792E+03  0.32227880014E+03  0.91187600000E+02 0.  0.
<mgrwt>
<rscale>  0 0.19338844E+04</rscale>
<asrwt>0</asrwt>
<pdfrwt beam="1">  1        1 0.89701971E-01 0.19338844E+04</pdfrwt>
<pdfrwt beam="2">  1       -1 0.24670180E+00 0.19338844E+04</pdfrwt>
<totfact> 0.24397974E+00</totfact>
</mgrwt>
</event>
<event>
11    1  0.2779909E-011  0.2205405E+04  0.7818608E-02  0.8714230E-01
          2   -1    0    0  501    0  0.00000000000E+00  0.00000000000E+00  0.20708297235E+04  0.20708297235E+04  0.00000000000E+00 0.  1.
         -2   -1    0    0    0  501 -0.00000000000E+00 -0.00000000000E+00 -0.20208384638E+04  0.20208384638E+04  0.00000000000E+00 0. -1.
    9900016    2    1    2    0    0 -0.23813261728E+03  0.46081451234E+03  0.88007645306E+03  0.12502411176E+04  0.72077120552E+03 0.  0.
         23    2    3    3    0    0 -0.41757697971E+03  0.27639884653E+03  0.46677907760E+03  0.69010890751E+03  0.87182226345E+02 0.  0.
        -15    1    4    4    0    0 -0.32754690318E+03  0.25662610681E+03  0.38431121185E+03  0.56642655307E+03  0.00000000000E+00 0.  1.
        -15    1    1    2    0    0  0.58860858611E+02 -0.92542776314E+02 -0.79865012153E+02  0.13567308609E+03  0.00000000000E+00 0.  1.
         15    1    4    4    0    0 -0.90030076533E+02  0.19772739723E+02  0.82467865757E+02  0.12368235444E+03  0.00000000000E+00 0. -1.
         15    1    1    2    0    0 -0.44330323278E+03  0.69829928381E+03 -0.11420438759E+04  0.14101077478E+04  0.00000000000E+00 0. -1.
        -16    1    1    2    0    0  0.62257499145E+03 -0.10665710198E+04  0.39182369475E+03  0.12956462357E+04  0.00000000000E+00 0.  1.
         16    1    3    3    0    0  0.70818931689E+01  0.10206016590E+03  0.30633520256E+03  0.32296700606E+03  0.00000000000E+00 0. -1.
    9900018    1    3    3    0    0  0.17236246926E+03  0.82355499913E+02  0.10696217289E+03  0.23716520403E+03  0.91187600000E+02 0.  0.
<mgrwt>
<rscale>  0 0.17851621E+04</rscale>
<asrwt>0</asrwt>
<pdfrwt beam="1">  1        2 0.31858919E+00 0.22054053E+04</pdfrwt>
<pdfrwt beam="2">  1       -2 0.31089822E+00 0.22054053E+04</pdfrwt>
<totfact> 0.14525234E-01</totfact>
</mgrwt>
</event>
<event>
11    1  0.2779909E-011  0.2654085E+04  0.7818608E-02  0.8350059E-01
          1   -1    0    0  501    0  0.00000000000E+00  0.00000000000E+00  0.16258856164E+04  0.16258856164E+04  0.00000000000E+00 0. -1.
         -1   -1    0    0    0  501 -0.00000000000E+00 -0.00000000000E+00 -0.10831273772E+04  0.10831273772E+04  0.00000000000E+00 0.  1.
    9900016    2    1    2    0    0 -0.29061941979E+03  0.13469765019E+03 -0.35075778597E+03  0.85369221723E+03  0.70933509233E+03 0.  0.
         23    2    3    3    0    0 -0.92924051857E+02  0.28724427371E+03 -0.13576210002E+03  0.34356372597E+03  0.91981160084E+02 0.  0.
        -15    1    4    4    0    0 -0.27096064154E+01  0.10023436117E+03 -0.80813552108E+02  0.12878314847E+03  0.00000000000E+00 0.  1.
        -15    1    1    2    0    0 -0.52113284821E+03 -0.48311847981E+03  0.55314222035E+03  0.90052719390E+03  0.00000000000E+00 0.  1.
         15    1    1    2    0    0  0.33763112635E+03  0.21189621442E+03  0.15765315710E+03  0.42865988978E+03  0.00000000000E+00 0. -1.
         15    1    4    4    0    0 -0.90214445442E+02  0.18700991253E+03 -0.54948547915E+02  0.21478057750E+03  0.00000000000E+00 0. -1.
        -16    1    3    3    0    0  0.76129340625E+02 -0.34070825599E+02 -0.17722476410E+03  0.19587014747E+03  0.00000000000E+00 0.  1.
         16    1    1    2    0    0  0.47412114165E+03  0.13652461519E+03  0.18272064763E+03  0.52613369269E+03  0.00000000000E+00 0. -1.
    9900018    1    3    3    0    0 -0.27382470856E+03 -0.11847579791E+03 -0.37770921848E+02  0.31425834379E+03  0.91187600000E+02 0.  0.
<mgrwt>
<rscale>  0 0.26540846E+04</rscale>
<asrwt>0</asrwt>
<pdfrwt beam="1">  1        1 0.25013625E+00 0.26540846E+04</pdfrwt>
<pdfrwt beam="2">  1       -1 0.16663498E+00 0.26540846E+04</pdfrwt>
<totfact> 0.12235688E+00</totfact>
</mgrwt>
</event>
<event>
11    1  0.2779909E-011  0.3132008E+04  0.7818608E-02  0.8207008E-01
          2   -1    0    0  501    0  0.00000000000E+00  0.00000000000E+00  0.21470707769E+04  0.21470707769E+04  0.00000000000E+00 0.  1.
         -2   -1    0    0    0  501 -0.00000000000E+00 -0.00000000000E+00 -0.11421925316E+04  0.11421925316E+04  0.00000000000E+00 0. -1.
    9900016    2    1    2    0    0  0.71504763112E+03 -0.18687409616E+03  0.66831909141E+03  0.12209225812E+04  0.70553986332E+03 0.  0.
         23    2    3    3    0    0  0.28187400319E+03 -0.50018258882E+02  0.25252898390E+03  0.39227323088E+03  0.90291860429E+02 0.  0.
        -15    1    1    2    0    0 -0.36236472226E+03  0.82838779438E+03  0.35678311419E+03  0.97202300404E+03  0.00000000000E+00 0.  1.
        -15    1    4    4    0    0  0.19191097814E+03 -0.37150331140E+02  0.11308025098E+03  0.22582540556E+03  0.00000000000E+00 0.  1.
         15    1    4    4    0    0  0.89963025043E+02 -0.12867927742E+02  0.13944873292E+03  0.16644782532E+03  0.00000000000E+00 0. -1.
         15    1    1    2    0    0  0.15216606474E+03  0.43815892037E+02 -0.16968241330E+03  0.23209150143E+03  0.00000000000E+00 0. -1.
        -16    1    3    3    0    0 -0.48079613013E+02 -0.19750275027E+03  0.21481308984E+03  0.29574253857E+03  0.00000000000E+00 0.  1.
         16    1    1    2    0    0 -0.50484897360E+03 -0.68532959026E+03  0.14945845303E+03  0.86422622190E+03  0.00000000000E+00 0. -1.
    9900018    1    3    3    0    0  0.48125324095E+03  0.60646912998E+02  0.20097701767E+03  0.53290681175E+03  0.91187600000E+02 0.  0.
<mgrwt>
<rscale>  0 0.31320078E+04</rscale>
<asrwt>0</asrwt>
<pdfrwt beam="1">  1        2 0.33031858E+00 0.31320078E+04</pdfrwt>
<pdfrwt beam="2">  1       -2 0.17572193E+00 0.31320078E+04</pdfrwt>
<totfact> 0.90937885E-01</totfact>
</mgrwt>
</event>
<event>
11    1  0.2779909E-011  0.1271044E+04  0.7818608E-02  0.9234520E-01
          2   -1    0    0  501    0  0.00000000000E+00  0.00000000000E+00  0.48119612086E+03  0.48119612086E+03  0.00000000000E+00 0. -1.
         -2   -1    0    0    0  501 -0.00000000000E+00 -0.00000000000E+00 -0.20931267563E+04  0.20931267563E+04  0.00000000000E+00 0.  1.
    9900016    2    1    2    0    0 -0.14163448257E+03 -0.30930259882E+02 -0.10482291640E+04  0.12681014713E+04  0.69877031531E+03 0.  0.
         23    2    3    3    0    0 -0.17323335337E+03 -0.18226293260E+03 -0.31739678642E+03  0.41435786712E+03  0.87875768528E+02 0.  0.
        -15    1    1    2    0    0  0.50980758806E+03 -0.94704354010E+02 -0.37403733960E+03  0.63935641306E+03  0.00000000000E+00 0.  1.
        -15    1    4    4    0    0 -0.10444055821E+03 -0.11509590032E+03 -0.12565057489E+03  0.19985735774E+03  0.00000000000E+00 0.  1.
         15    1    1    2    0    0 -0.12889293850E+03 -0.87808518677E+02  0.13812007728E+03  0.20832878172E+03  0.00000000000E+00 0. -1.
         15    1    4    4    0    0 -0.68792795163E+02 -0.67167032274E+02 -0.19174621153E+03  0.21450050938E+03  0.00000000000E+00 0. -1.
        -16    1    1    2    0    0 -0.23928016698E+03  0.21344313257E+03 -0.32778420919E+03  0.45853621116E+03  0.00000000000E+00 0.  1.
         16    1    3    3    0    0 -0.15564759208E+03 -0.27763305730E+02 -0.19019908749E+03  0.24733108771E+03  0.00000000000E+00 0. -1.
    9900018    1    3    3    0    0  0.18724646288E+03  0.17909597844E+03 -0.54063329007E+03  0.60641251643E+03  0.91187600000E+02 0.  0.
<mgrwt>
<rscale>  0 0.10704120E+04</rscale>
<asrwt>0</asrwt>
<pdfrwt beam="1">  1        2 0.74030173E-01 0.12710443E+04</pdfrwt>
<pdfrwt beam="2">  1       -2 0.32201950E+00 0.12710443E+04</pdfrwt>
<totfact> 0.14705826E+00</totfact>
</mgrwt>
</event>
<event>
11    1  0.2779909E-011  0.2119894E+04  0.7818608E-02  0.8552530E-01
         -2   -1    0    0    0  501 -0.00000000000E+00  0.00000000000E+00  0.11816594515E+04  0.11816594515E+04  0.00000000000E+00 0.  1.
          2   -1    0    0  501    0  0.00000000000E+00 -0.00000000000E+00 -0.95077125700E+03  0.95077125700E+03  0.00000000000E+00 0. -1.
    9900016    2    1    2    0    0 -0.78573387584E+02 -0.48213089711E+02  0.30717872772E+03  0.75807838651E+03  0.68689576362E+03 0.  0.
         23    2    3    3    0    0 -0.14664685147E+03 -0.22946680728E+03 -0.24228582019E+02  0.28854582514E+03  0.92257001540E+02 0.  0.
        -15    1    4    4    0    0 -0.51574582730E+02 -0.15730419184E+03  0.51601352361E+01  0.16562358935E+03  0.00000000000E+00 0.  1.
        -15    1    1    2    0    0 -0.31678180460E+03  0.15918601506E+02 -0.16340027834E+03  0.35679653104E+03  0.00000000000E+00 0.  1.
         15    1    1    2    0    0  0.65595789779E+03  0.19731910692E+03 -0.34808079360E+02  0.68587695399E+03  0.00000000000E+00 0. -1.
         15    1    4    4    0    0 -0.95072268744E+02 -0.72162615439E+02 -0.29388717255E+02  0.12292223580E+03  0.00000000000E+00 0. -1.
        -16    1    1    2    0    0 -0.26060270561E+03 -0.16502461871E+03  0.12191782448E+03  0.33167883694E+03  0.00000000000E+00 0.  1.
         16    1    3    3    0    0  0.43075348751E+02  0.14318191469E+03  0.33572111461E+03  0.36751219458E+03  0.00000000000E+00 0. -1.
    9900018    1    3    3    0    0  0.24998115139E+02  0.38071802872E+02 -0.43138048763E+01  0.10202036679E+03  0.91187600000E+02 0.  0.
<mgrwt>
<rscale>  0 0.21198942E+04</rscale>
<asrwt>0</asrwt>
<pdfrwt beam="1">  1        2 0.14627250E+00 0.21198942E+04</pdfrwt>
<pdfrwt beam="2">  1       -2 0.18179376E+00 0.21198942E+04</pdfrwt>
<totfact> 0.43958823E+00</totfact>
</mgrwt>
</event>
<event>
11    1  0.2779909E-011  0.3890867E+04  0.7818608E-02  0.8026931E-01
          1   -1    0    0  501    0  0.00000000000E+00  0.00000000000E+00  0.28368920800E+04  0.28368920800E+04  0.00000000000E+00 0. -1.
         -1   -1    0    0    0  501 -0.00000000000E+00 -0.00000000000E+00 -0.13341051976E+04  0.13341051976E+04  0.00000000000E+00 0.  1.
    9900016    2    1    2    0    0 -0.16244376798E+03 -0.34798032383E+03 -0.23952887267E+03  0.83515397734E+03  0.70187591603E+03 0.  0.
         23    2    3    3    0    0  0.31104308538E+02 -0.17972596426E+03  0.20504630424E+03  0.28941975214E+03  0.91928808362E+02 0.  0.
        -15    1    4    4    0    0  0.29718241488E+02 -0.11482019885E+03  0.65446176697E+02  0.13546237110E+03  0.00000000000E+00 0. -1.
        -15    1    1    2    0    0  0.53942164403E+03 -0.55588532719E+03 -0.35932478399E+03  0.85387265293E+03  0.00000000000E+00 0.  1.
         15    1    1    2    0    0 -0.80857784520E+02  0.97750096817E+02 -0.71271468181E+02  0.14550836719E+03  0.00000000000E+00 0. -1.
         15    1    4    4    0    0  0.13860670502E+01 -0.64905765414E+02  0.13960012754E+03  0.15395738104E+03  0.00000000000E+00 0.  1.
        -16    1    3    3    0    0  0.97843464715E+01 -0.67953257596E+02 -0.13379740732E+03  0.15038325990E+03  0.00000000000E+00 0.  1.
         16    1    1    2    0    0 -0.29612009153E+03  0.80611555420E+03  0.21729120072E+04  0.23364622801E+04  0.00000000000E+00 0. -1.
    9900018    1    3    3    0    0 -0.20333242299E+03 -0.10030110197E+03 -0.31077776959E+03  0.39535096530E+03  0.91187600000E+02 0.  0.
<mgrwt>
<rscale>  0 0.38908675E+04</rscale>
<asrwt>0</asrwt>
<pdfrwt beam="1">  1        1 0.43644493E+00 0.38908675E+04</pdfrwt>
<pdfrwt beam="2">  1       -1 0.20524695E+00 0.38908675E+04</pdfrwt>
<totfact> 0.85756031E-02</totfact>
</mgrwt>
</event>
