<event>
13    1  0.1771120E-008  0.4893748E+04  0.7818608E-02  0.7845110E-01
          2   -1    0    0  501    0  0.00000000000E+00  0.00000000000E+00  0.33143013359E+04  0.33143013359E+04  0.00000000000E+00 0. -1.
         -2   -1    0    0    0  501 -0.00000000000E+00 -0.00000000000E+00 -0.18064719424E+04  0.18064719424E+04  0.00000000000E+00 0.  1.
    9900016    2    1    2    0    0 -0.19039898906E+03  0.39094653200E+03  0.13274491718E+04  0.23977817519E+04  0.19488830288E+04 0.  0.
         23    2    3    3    0    0 -0.18877296496E+03  0.28877738160E+03 -0.47397941863E+03  0.59345746127E+03  0.92236980794E+02 0.  0.
    9900016    2    1    2    0    0  0.54360763052E+03 -0.85580101613E+03  0.25753075136E+03  0.21270775910E+04  0.18520886466E+04 0.  0.
         24    2    5    5    0    0 -0.24761576475E+03 -0.12019227278E+04  0.28710283840E+03  0.12629542150E+04  0.81813806207E+02 0.  0.
        -15    1    6    6    0    0 -0.24401722719E+03 -0.10523108117E+04  0.25255937130E+03  0.11093640916E+04  0.00000000000E+00 0.  1.
        -15    1    4    4    0    0 -0.15139398368E+03  0.27634243671E+03 -0.39574494362E+03  0.50586494346E+03  0.00000000000E+00 0.  1.
         15    1    5    5    0    0  0.79122339527E+03  0.34612171167E+03 -0.29572087044E+02  0.86412337594E+03  0.00000000000E+00 0. -1.
         15    1    4    4    0    0 -0.37378981277E+02  0.12434944892E+02 -0.78234475013E+02  0.87592517810E+02  0.00000000000E+00 0. -1.
        -16    1    3    3    0    0 -0.16260241074E+01  0.10216915040E+03  0.18014285904E+04  0.18043242906E+04  0.00000000000E+00 0.  1.
         16    1    6    6    0    0 -0.35985375605E+01 -0.14961191605E+03  0.34543467106E+02  0.15359012343E+03  0.00000000000E+00 0. -1.
    9900018    1    1    2    0    0 -0.35320864146E+03  0.46485448412E+03 -0.77150529679E+02  0.59591393542E+03  0.91187600000E+02 0.  0.
<mgrwt>
<rscale>  0 0.48937480E+04</rscale>
<asrwt>0</asrwt>
<pdfrwt beam="1">  1        2 0.50989251E+00 0.48937480E+04</pdfrwt>
<pdfrwt beam="2">  1       -2 0.27791876E+00 0.48937480E+04</pdfrwt>
<totfact> 0.34642469E-02</totfact>
</mgrwt>
</event>
<event>
13    1  0.1771120E-008  0.4353637E+04  0.7818608E-02  0.7936774E-01
         -2   -1    0    0    0  501 -0.00000000000E+00  0.00000000000E+00  0.22533268498E+04  0.22533268498E+04  0.00000000000E+00 0.  1.
          2   -1    0    0  501    0  0.00000000000E+00 -0.00000000000E+00 -0.21029082151E+04  0.21029082151E+04  0.00000000000E+00 0. -1.
    9900016    2    1    2    0    0 -0.89794073962E+03  0.28251281993E+03 -0.28633531839E+03  0.19854893445E+04  0.17245489141E+04 0.  0.
         23    2    3    3    0    0  0.71778979681E+01 -0.38686852086E+03 -0.68433661568E+03  0.79145577707E+03  0.91470590044E+02 0.  0.
    9900016    2    1    2    0    0  0.69811891681E+03 -0.46534708327E+03  0.28409136914E+03  0.20467423691E+04  0.18451364420E+04 0.  0.
         24    2    5    5    0    0 -0.14488289807E+03 -0.23470631217E+02  0.89850754806E+03  0.91386369084E+03  0.79303889090E+02 0.  0.
        -15    1    4    4    0    0  0.45557116484E+01 -0.24770854786E+03 -0.34551198477E+03  0.42515739534E+03  0.00000000000E+00 0.  1.
        -15    1    6    6    0    0 -0.12186356295E+03  0.90833475482E+01  0.57044876117E+03  0.58339097036E+03  0.00000000000E+00 0.  1.
         15    1    4    4    0    0  0.26221863197E+01 -0.13915997300E+03 -0.33882463091E+03  0.36629838173E+03  0.00000000000E+00 0. -1.
         15    1    5    5    0    0  0.84300181489E+03 -0.44187645205E+03 -0.61441617892E+03  0.11328786783E+04  0.00000000000E+00 0. -1.
        -16    1    3    3    0    0 -0.90511863759E+03  0.66938134078E+03  0.39800129729E+03  0.11940335674E+04  0.00000000000E+00 0.  1.
         16    1    6    6    0    0 -0.23019335120E+02 -0.32553978765E+02  0.32805878689E+03  0.33047272048E+03  0.00000000000E+00 0. -1.
    9900018    1    1    2    0    0  0.19982182281E+03  0.18283426334E+03  0.15266258394E+03  0.32400335129E+03  0.91187600000E+02 0.  0.
<mgrwt>
<rscale>  0 0.43536373E+04</rscale>
<asrwt>0</asrwt>
<pdfrwt beam="1">  1        2 0.32352434E+00 0.43536373E+04</pdfrwt>
<pdfrwt beam="2">  1       -2 0.34666567E+00 0.43536373E+04</pdfrwt>
<totfact> 0.73284071E-02</totfact>
</mgrwt>
</event>
<event>
13    1  0.1771120E-008  0.5275302E+04  0.7818608E-02  0.7787388E-01
         -2   -1    0    0    0  501 -0.00000000000E+00  0.00000000000E+00  0.48275462044E+04  0.48275462044E+04  0.00000000000E+00 0.  1.
          2   -1    0    0  501    0  0.00000000000E+00 -0.00000000000E+00 -0.14411468736E+04  0.14411468736E+04  0.00000000000E+00 0. -1.
    9900016    2    1    2    0    0  0.29212543778E+03  0.64051123546E+03 -0.20278383283E+03  0.19138911833E+04  0.17681250704E+04 0.  0.
         23    2    3    3    0    0  0.30160771423E+03 -0.11135942936E+03 -0.85534841690E+03  0.91828084460E+03  0.90833140822E+02 0.  0.
    9900016    2    1    2    0    0 -0.45424879069E+03 -0.87929742547E+03  0.27307239377E+04  0.34445435539E+04  0.18516266212E+04 0.  0.
         24    2    5    5    0    0  0.36933247354E+03  0.40603731497E+03  0.53752886422E+03  0.77237661970E+03  0.79721926851E+02 0.  0.
        -15    1    6    6    0    0  0.25475883515E+03  0.23963403381E+03  0.30223735950E+03  0.46224880284E+03  0.00000000000E+00 0.  1.
        -15    1    4    4    0    0  0.54179079610E+02  0.15060495016E+02 -0.14612285210E+03  0.15656972595E+03  0.00000000000E+00 0. -1.
         15    1    4    4    0    0  0.24742863462E+03 -0.12641992438E+03 -0.70922556480E+03  0.76171111865E+03  0.00000000000E+00 0.  1.
         15    1    5    5    0    0 -0.82358126423E+03 -0.12853347404E+04  0.21931950735E+04  0.26721669342E+04  0.00000000000E+00 0. -1.
        -16    1    3    3    0    0 -0.94822764506E+01  0.75187066482E+03  0.65256458407E+03  0.99561033872E+03  0.00000000000E+00 0.  1.
         16    1    6    6    0    0  0.11457363839E+03  0.16640328116E+03  0.23529150473E+03  0.31012781686E+03  0.00000000000E+00 0. -1.
    9900018    1    1    2    0    0  0.16212335291E+03  0.23878619001E+03  0.85845922586E+03  0.91025834078E+03  0.91187600000E+02 0.  0.
<mgrwt>
<rscale>  0 0.52753021E+04</rscale>
<asrwt>0</asrwt>
<pdfrwt beam="1">  1        2 0.22171491E+00 0.52753021E+04</pdfrwt>
<pdfrwt beam="2">  1       -2 0.74269941E+00 0.52753021E+04</pdfrwt>
<totfact> 0.15210479E-03</totfact>
</mgrwt>
</event>
<event>
13    1  0.1771120E-008  0.4272738E+04  0.7818608E-02  0.7951678E-01
          1   -1    0    0  501    0  0.00000000000E+00  0.00000000000E+00  0.30387358664E+04  0.30387358664E+04  0.00000000000E+00 0. -1.
         -1   -1    0    0    0  501 -0.00000000000E+00 -0.00000000000E+00 -0.15019644735E+04  0.15019644735E+04  0.00000000000E+00 0.  1.
    9900016    2    1    2    0    0 -0.25414133678E+03  0.47431920098E+03  0.14933344915E+04  0.23456615191E+04  0.17269955226E+04 0.  0.
         23    2    3    3    0    0 -0.17497326296E+03 -0.22259714913E+03 -0.29851697664E+03  0.42142357464E+03  0.91215735314E+02 0.  0.
    9900016    2    1    2    0    0  0.37371930540E+03 -0.61858214799E+03 -0.18005295903E+02  0.19777808855E+04  0.18409190768E+04 0.  0.
        -24    2    5    5    0    0  0.48957826815E+03  0.51355296084E+03  0.33033545184E+03  0.78761514898E+03  0.88275636101E+02 0.  0.
        -15    1    5    5    0    0 -0.11585896275E+03 -0.11321351088E+04 -0.34834074774E+03  0.11901657365E+04  0.00000000000E+00 0.  1.
        -15    1    4    4    0    0 -0.24794219357E+02 -0.94180582553E+02 -0.12495381112E+03  0.15842408389E+03  0.00000000000E+00 0. -1.
         15    1    6    6    0    0  0.20056800165E+02  0.40666388465E+02  0.40979085407E+02  0.61117230176E+02  0.00000000000E+00 0. -1.
         15    1    4    4    0    0 -0.15017904360E+03 -0.12841656657E+03 -0.17356316553E+03  0.26299949075E+03  0.00000000000E+00 0.  1.
        -16    1    6    6    0    0  0.46952146799E+03  0.47288657238E+03  0.28935636643E+03  0.72649791881E+03  0.00000000000E+00 0.  1.
         16    1    3    3    0    0 -0.79168073818E+02  0.69691635011E+03  0.17918514681E+04  0.19242379444E+04  0.00000000000E+00 0. -1.
    9900018    1    1    2    0    0 -0.11957796862E+03  0.14426294701E+03  0.61442197374E+02  0.21725793535E+03  0.91187600000E+02 0.  0.
<mgrwt>
<rscale>  0 0.42727384E+04</rscale>
<asrwt>0</asrwt>
<pdfrwt beam="1">  1        1 0.46749782E+00 0.42727384E+04</pdfrwt>
<pdfrwt beam="2">  1       -1 0.23107146E+00 0.42727384E+04</pdfrwt>
<totfact> 0.39783925E-02</totfact>
</mgrwt>
</event>
<event>
13    1  0.1771120E-008  0.4526934E+04  0.7818608E-02  0.7905938E-01
         -2   -1    0    0    0  501 -0.00000000000E+00  0.00000000000E+00  0.20086096007E+04  0.20086096007E+04  0.00000000000E+00 0.  1.
          2   -1    0    0  501    0  0.00000000000E+00 -0.00000000000E+00 -0.25506618120E+04  0.25506618120E+04  0.00000000000E+00 0. -1.
    9900016    2    1    2    0    0 -0.19664925349E+03  0.25914032970E+03  0.70827661141E+03  0.19262969100E+04  0.17615729868E+04 0.  0.
         23    2    3    3    0    0 -0.62093078596E+02 -0.24834171478E+03 -0.52209070828E+03  0.58859472678E+03  0.91301078952E+02 0.  0.
    9900016    2    1    2    0    0  0.15793778999E+03 -0.38550426515E+03 -0.14595654442E+04  0.23692292396E+04  0.18191640992E+04 0.  0.
         24    2    5    5    0    0  0.83936881407E+03  0.16313142589E+03 -0.28518482008E+03  0.90481153540E+03  0.78750649746E+02 0.  0.
        -15    1    4    4    0    0 -0.71057133362E+02 -0.13017509490E+03 -0.34482611634E+03  0.37536611734E+03  0.00000000000E+00 0.  1.
        -15    1    6    6    0    0  0.53496644660E+03  0.70532103130E+02 -0.19956886232E+03  0.57531870070E+03  0.00000000000E+00 0.  1.
         15    1    4    4    0    0  0.89640547658E+01 -0.11816661988E+03 -0.17726459193E+03  0.21322860944E+03  0.00000000000E+00 0. -1.
         15    1    5    5    0    0 -0.68143102408E+03 -0.54863569104E+03 -0.11743806242E+04  0.14644177042E+04  0.00000000000E+00 0. -1.
        -16    1    3    3    0    0 -0.13455617489E+03  0.50748204448E+03  0.12303673197E+04  0.13377021832E+04  0.00000000000E+00 0.  1.
         16    1    6    6    0    0  0.30440236747E+03  0.92599322764E+02 -0.85615957761E+02  0.32949283470E+03  0.00000000000E+00 0. -1.
    9900018    1    1    2    0    0  0.38711463503E+02  0.12636393545E+03  0.20923662150E+03  0.26374526301E+03  0.91187600000E+02 0.  0.
<mgrwt>
<rscale>  0 0.45269344E+04</rscale>
<asrwt>0</asrwt>
<pdfrwt beam="1">  1        2 0.39240951E+00 0.45269344E+04</pdfrwt>
<pdfrwt beam="2">  1       -2 0.30901686E+00 0.45269344E+04</pdfrwt>
<totfact> 0.68812098E-02</totfact>
</mgrwt>
</event>
