<event>
11    1  0.6178256E-015  0.9726978E+03  0.7818608E-02  0.9339007E-01
          2   -1    0    0  501    0  0.00000000000E+00  0.00000000000E+00  0.29772526866E+03  0.29772526866E+03  0.00000000000E+00 0.  1.
         -2   -1    0    0    0  501 -0.00000000000E+00 -0.00000000000E+00 -0.79447494876E+03  0.79447494876E+03  0.00000000000E+00 0. -1.
    9900016    2    1    2    0    0  0.14449845732E+02 -0.15476238302E+02 -0.20706810104E+03  0.69236080209E+03  0.66033171196E+03 0.  0.
         23    2    3    3    0    0  0.22443269764E+02  0.60183242541E+02 -0.14579075663E+03  0.19180024389E+03  0.10680199341E+03 0.  0.
        -15    1    3    3    0    0 -0.14534698143E+03 -0.73598655954E+02  0.13118454205E+03  0.20916952752E+03  0.00000000000E+00 0.  1.
        -15    1    4    4    0    0  0.37552081680E+02  0.79192519632E+02 -0.14250036711E+03  0.16729605085E+03  0.00000000000E+00 0.  1.
         15    1    3    3    0    0  0.79084040238E+02  0.23995191290E+02 -0.20959639756E+03  0.22530136372E+03  0.00000000000E+00 0. -1.
         15    1    4    4    0    0 -0.15108811916E+02 -0.19009277092E+02 -0.32903895166E+01  0.24504193034E+02  0.00000000000E+00 0. -1.
        -16    1    3    3    0    0  0.58269517163E+02 -0.26056016179E+02  0.17134511095E+02  0.66089666969E+02  0.00000000000E+00 0.  1.
         16    1    1    2    0    0 -0.14658608692E+02  0.49252366640E+01 -0.30618178557E+03  0.30657204468E+03  0.00000000000E+00 0. -1.
    9900018    1    1    2    0    0  0.20876295977E+00  0.10551001638E+02  0.16500206506E+02  0.93267370640E+02  0.91187600000E+02 0.  0.
<mgrwt>
<rscale>  0 0.97269783E+03</rscale>
<asrwt>0</asrwt>
<pdfrwt beam="1">  1        2 0.45803888E-01 0.97269783E+03</pdfrwt>
<pdfrwt beam="2">  1       -2 0.12222691E+00 0.97269783E+03</pdfrwt>
<totfact> 0.56122108E+01</totfact>
</mgrwt>
</event>
<event>
11    1  0.6178256E-015  0.9891905E+03  0.7818608E-02  0.9320481E-01
          2   -1    0    0  501    0  0.00000000000E+00  0.00000000000E+00  0.13092962473E+04  0.13092962473E+04  0.00000000000E+00 0. -1.
         -2   -1    0    0    0  501 -0.00000000000E+00 -0.00000000000E+00 -0.18683661728E+03  0.18683661728E+03  0.00000000000E+00 0.  1.
    9900016    2    1    2    0    0 -0.19090628951E+03  0.76562132802E+02  0.96050120197E+03  0.12343361802E+04  0.74747326046E+03 0.  0.
         23    2    3    3    0    0  0.68694125563E+02 -0.31368010679E+02 -0.14705411689E+02  0.10572500602E+03  0.72516844823E+02 0.  0.
        -15    1    4    4    0    0  0.14948268151E+02 -0.40654205257E+02  0.12069293460E+02  0.44965353000E+02  0.00000000000E+00 0. -1.
        -15    1    3    3    0    0 -0.73933876221E+02 -0.71182277194E+02  0.13700437768E+03  0.17118216655E+03  0.00000000000E+00 0.  1.
         15    1    4    4    0    0  0.53745857412E+02  0.92861945783E+01 -0.26774705150E+02  0.60759653015E+02  0.00000000000E+00 0.  1.
         15    1    3    3    0    0 -0.36217286459E+02  0.11257877179E+03  0.60405450347E+03  0.61552214814E+03  0.00000000000E+00 0. -1.
        -16    1    1    2    0    0  0.19090628951E+03 -0.76562132802E+02  0.16195842803E+03  0.26179668440E+03  0.00000000000E+00 0.  1.
         16    1    3    3    0    0 -0.13756561510E+03  0.70266055081E+02  0.12206257567E+03  0.19687785384E+03  0.00000000000E+00 0. -1.
    9900018    1    3    3    0    0 -0.11883637297E+02 -0.37324061924E+01  0.11208515684E+03  0.14502900561E+03  0.91187600000E+02 0.  0.
<mgrwt>
<rscale>  0 0.98919054E+03</rscale>
<asrwt>0</asrwt>
<pdfrwt beam="1">  1        2 0.20143019E+00 0.98919054E+03</pdfrwt>
<pdfrwt beam="2">  1       -2 0.28744096E-01 0.98919054E+03</pdfrwt>
<totfact> 0.18084206E+02</totfact>
</mgrwt>
</event>
<event>
11    1  0.6178256E-015  0.8050697E+03  0.7818608E-02  0.9552708E-01
         -1   -1    0    0    0  501 -0.00000000000E+00  0.00000000000E+00  0.26883398472E+03  0.26883398472E+03  0.00000000000E+00 0.  1.
          1   -1    0    0  501    0  0.00000000000E+00 -0.00000000000E+00 -0.60273001994E+03  0.60273001994E+03  0.00000000000E+00 0. -1.
    9900016    2    1    2    0    0 -0.37368570673E+02  0.16387388909E+02 -0.26904550434E+03  0.79494450359E+03  0.74691788289E+03 0.  0.
         23    2    3    3    0    0  0.89081921970E+02  0.93727931719E+02 -0.16297485685E+03  0.21784146718E+03  0.64603303718E+02 0.  0.
        -15    1    3    3    0    0 -0.51333643668E+02 -0.13962652479E+03  0.12596671355E+03  0.19493158369E+03  0.00000000000E+00 0.  1.
        -15    1    4    4    0    0  0.93030276941E+01 -0.93098955949E+01 -0.81728682383E+01  0.15492458020E+02  0.00000000000E+00 0. -1.
         15    1    4    4    0    0  0.79778894276E+02  0.10303782731E+03 -0.15480198862E+03  0.20234900916E+03  0.00000000000E+00 0. -1.
         15    1    3    3    0    0 -0.66152119528E+02  0.43448148877E+02 -0.24017048040E+03  0.25287487857E+03  0.00000000000E+00 0.  1.
        -16    1    3    3    0    0  0.61763714833E+01  0.13906678596E+02  0.30482344233E+02  0.34069290926E+02  0.00000000000E+00 0.  1.
         16    1    1    2    0    0  0.37368570673E+02 -0.16387388909E+02 -0.64850530875E+02  0.76619501070E+02  0.00000000000E+00 0. -1.
    9900018    1    3    3    0    0 -0.15141100930E+02  0.49311545055E+01 -0.22349224871E+02  0.95227283213E+02  0.91187600000E+02 0.  0.
<mgrwt>
<rscale>  0 0.80506972E+03</rscale>
<asrwt>0</asrwt>
<pdfrwt beam="1">  1        1 0.92727695E-01 0.80506972E+03</pdfrwt>
<pdfrwt beam="2">  1       -1 0.41359075E-01 0.80506972E+03</pdfrwt>
<totfact> 0.19695395E+02</totfact>
</mgrwt>
</event>
<event>
11    1  0.6178256E-015  0.1253378E+04  0.7818608E-02  0.9067376E-01
         -1   -1    0    0    0  501 -0.00000000000E+00  0.00000000000E+00  0.54023829305E+03  0.54023829305E+03  0.00000000000E+00 0.  1.
          1   -1    0    0  501    0  0.00000000000E+00 -0.00000000000E+00 -0.72697382899E+03  0.72697382899E+03  0.00000000000E+00 0. -1.
    9900016    2    1    2    0    0 -0.16825847486E+03 -0.76245707372E+02 -0.36213827361E+03  0.77622401158E+03  0.66125279938E+03 0.  0.
         23    2    3    3    0    0  0.11168619995E+03 -0.29370169171E+02  0.45330492295E+02  0.14413158531E+03  0.73366519995E+02 0.  0.
        -15    1    4    4    0    0  0.10037722790E+03 -0.65657614999E+01  0.57555455066E+02  0.11589360428E+03  0.00000000000E+00 0.  1.
        -15    1    3    3    0    0 -0.22216704008E+02  0.57289660144E+01 -0.35308354662E+02  0.42107990899E+02  0.00000000000E+00 0.  1.
         15    1    4    4    0    0  0.11308972051E+02 -0.22804407671E+02 -0.12224962771E+02  0.28237981033E+02  0.00000000000E+00 0. -1.
         15    1    3    3    0    0  0.69103686405E+02  0.73838419933E+02 -0.45450073688E+02  0.11087443768E+03  0.00000000000E+00 0. -1.
        -16    1    1    2    0    0  0.23506286438E+03  0.95156997259E+02  0.24849963557E+03  0.35505136701E+03  0.00000000000E+00 0.  1.
         16    1    3    3    0    0 -0.32683165721E+03 -0.12644292415E+03 -0.32671033756E+03  0.47910999769E+03  0.00000000000E+00 0. -1.
    9900018    1    1    2    0    0 -0.66804389517E+02 -0.18911289888E+02 -0.73096897898E+02  0.13593674345E+03  0.91187600000E+02 0.  0.
<mgrwt>
<rscale>  0 0.12533780E+04</rscale>
<asrwt>0</asrwt>
<pdfrwt beam="1">  1        1 0.11184213E+00 0.12533780E+04</pdfrwt>
<pdfrwt beam="2">  1       -1 0.83113584E-01 0.12533780E+04</pdfrwt>
<totfact> 0.36446847E+01</totfact>
</mgrwt>
</event>
<event>
11    1  0.6178256E-015  0.8706227E+03  0.7818608E-02  0.9463068E-01
         -5   -1    0    0    0  501 -0.00000000000E+00  0.00000000000E+00  0.80947574792E+03  0.80947574792E+03  0.00000000000E+00 0.  1.
          5   -1    0    0  501    0  0.00000000000E+00 -0.00000000000E+00 -0.23409713621E+03  0.23409713621E+03  0.00000000000E+00 0. -1.
    9900016    2    1    2    0    0 -0.20064854408E+02 -0.91419417506E+02  0.44429396317E+03  0.88250366496E+03  0.75674003771E+03 0.  0.
         23    2    3    3    0    0 -0.12177102519E+03  0.11434338793E+03  0.25529963640E+03  0.32375218015E+03  0.10832809822E+03 0.  0.
        -15    1    3    3    0    0  0.43726295118E+01 -0.20073259186E+03  0.23471804442E+03  0.30887740886E+03  0.00000000000E+00 0.  1.
        -15    1    4    4    0    0 -0.86321090720E+01  0.76841024097E+02  0.12652357685E+03  0.14828105674E+03  0.00000000000E+00 0.  1.
         15    1    3    3    0    0 -0.89434340978E+01 -0.31286869355E+02 -0.10395564647E+02  0.34160224997E+02  0.00000000000E+00 0. -1.
         15    1    4    4    0    0 -0.11313891612E+03  0.37502363829E+02  0.12877605956E+03  0.17547112341E+03  0.00000000000E+00 0. -1.
        -16    1    3    3    0    0  0.74514950597E+02  0.24632451598E+02 -0.77532472228E+02  0.11032007879E+03  0.00000000000E+00 0.  1.
         16    1    1    2    0    0  0.20064854408E+02  0.91419417506E+02  0.13108464855E+03  0.16106921917E+03  0.00000000000E+00 0. -1.
    9900018    1    3    3    0    0  0.31762024774E+02  0.16242041852E+01  0.42204319212E+02  0.10539377216E+03  0.91187600000E+02 0.  0.
<mgrwt>
<rscale>  0 0.87062266E+03</rscale>
<asrwt>0</asrwt>
<pdfrwt beam="1">  1        5 0.36014945E-01 0.87062266E+03</pdfrwt>
<pdfrwt beam="2">  1       -5 0.12453473E+00 0.87062266E+03</pdfrwt>
<totfact> 0.32922533E+00</totfact>
</mgrwt>
</event>
<event>
11    1  0.6178256E-015  0.8543954E+03  0.7818608E-02  0.9484457E-01
          1   -1    0    0  501    0  0.00000000000E+00  0.00000000000E+00  0.33123380323E+03  0.33123380323E+03  0.00000000000E+00 0. -1.
         -1   -1    0    0    0  501 -0.00000000000E+00 -0.00000000000E+00 -0.55096392841E+03  0.55096392841E+03  0.00000000000E+00 0.  1.
    9900016    2    1    2    0    0  0.98441621404E+01 -0.15812044894E+02 -0.28226488804E+03  0.81694802009E+03  0.76640959821E+03 0.  0.
         23    2    3    3    0    0 -0.55522073770E+02 -0.12415548996E+03  0.11350543623E+03  0.18816135747E+03  0.63434423064E+02 0.  0.
        -15    1    3    3    0    0  0.11398852674E+03 -0.68325188604E+02 -0.12753227662E+02  0.13350790404E+03  0.00000000000E+00 0.  1.
        -15    1    4    4    0    0 -0.13610841234E+02  0.41675603449E+01  0.17250310265E+02  0.22365079087E+02  0.00000000000E+00 0. -1.
         15    1    3    3    0    0 -0.39913737178E+02  0.48057158637E+02 -0.13852790519E+03  0.15196242111E+03  0.00000000000E+00 0. -1.
         15    1    4    4    0    0 -0.41911232537E+02 -0.12832305030E+03  0.96255125960E+02  0.16579627838E+03  0.00000000000E+00 0.  1.
        -16    1    3    3    0    0 -0.40786930605E+02  0.13785218093E+03 -0.13984414081E+03  0.20055717692E+03  0.00000000000E+00 0.  1.
         16    1    1    2    0    0 -0.98441621404E+01  0.15812044894E+02  0.62534762852E+02  0.65249711547E+02  0.00000000000E+00 0. -1.
    9900018    1    3    3    0    0  0.32078376957E+02 -0.92407059007E+01 -0.10464505061E+03  0.14275916056E+03  0.91187600000E+02 0.  0.
<mgrwt>
<rscale>  0 0.85439541E+03</rscale>
<asrwt>0</asrwt>
<pdfrwt beam="1">  1        1 0.50959048E-01 0.85439541E+03</pdfrwt>
<pdfrwt beam="2">  1       -1 0.84763679E-01 0.85439541E+03</pdfrwt>
<totfact> 0.10718679E+02</totfact>
</mgrwt>
</event>
<event>
11    1  0.6178256E-015  0.1175262E+04  0.7818608E-02  0.9134789E-01
          1   -1    0    0  501    0  0.00000000000E+00  0.00000000000E+00  0.22207272839E+04  0.22207272839E+04  0.00000000000E+00 0. -1.
         -1   -1    0    0    0  501 -0.00000000000E+00 -0.00000000000E+00 -0.15549419121E+03  0.15549419121E+03  0.00000000000E+00 0.  1.
    9900016    2    1    2    0    0  0.67092162261E+02 -0.26238232646E+03  0.13504375765E+04  0.15288328190E+04  0.66355278384E+03 0.  0.
         23    2    3    3    0    0 -0.55759346348E+02 -0.18921326718E+02  0.38347760449E+03  0.39196766889E+03  0.55825254115E+02 0.  0.
        -15    1    3    3    0    0  0.12592075538E+02  0.41043456067E+01  0.75071041756E+02  0.76230357008E+02  0.00000000000E+00 0.  1.
        -15    1    4    4    0    0 -0.61018642586E+02 -0.55207541218E+00  0.31595636197E+03  0.32179496920E+03  0.00000000000E+00 0.  1.
         15    1    3    3    0    0  0.24507501171E+03 -0.15930423640E+03  0.20987387405E+03  0.35984252682E+03  0.00000000000E+00 0. -1.
         15    1    4    4    0    0  0.52592962382E+01 -0.18369251306E+02  0.67521242518E+02  0.70172699689E+02  0.00000000000E+00 0. -1.
        -16    1    1    2    0    0 -0.32497573245E+02  0.32505360751E+03  0.43087238696E+03  0.54070967613E+03  0.00000000000E+00 0.  1.
         16    1    3    3    0    0 -0.13481557864E+03 -0.88261108944E+02  0.68201505619E+03  0.70079226627E+03  0.00000000000E+00 0. -1.
    9900018    1    1    2    0    0 -0.34594589016E+02 -0.62671281051E+02  0.28392312926E+03  0.30667898001E+03  0.91187600000E+02 0.  0.
<mgrwt>
<rscale>  0 0.11752620E+04</rscale>
<asrwt>0</asrwt>
<pdfrwt beam="1">  1        1 0.34165033E+00 0.11752620E+04</pdfrwt>
<pdfrwt beam="2">  1       -1 0.23922185E-01 0.11752620E+04</pdfrwt>
<totfact> 0.31705923E+01</totfact>
</mgrwt>
</event>
<event>
11    1  0.6178256E-015  0.1128109E+04  0.7818608E-02  0.9178220E-01
          1   -1    0    0  501    0  0.00000000000E+00  0.00000000000E+00  0.92567284049E+03  0.92567284049E+03  0.00000000000E+00 0. -1.
         -1   -1    0    0    0  501 -0.00000000000E+00 -0.00000000000E+00 -0.34370419644E+03  0.34370419644E+03  0.00000000000E+00 0.  1.
    9900016    2    1    2    0    0  0.11014752237E+03 -0.26241209121E+03  0.44123203465E+03  0.84923447358E+03  0.66747352039E+03 0.  0.
         23    2    3    3    0    0  0.83320753520E+02 -0.13638335927E+03  0.46095939421E+02  0.18195317061E+03  0.73751962772E+02 0.  0.
        -15    1    4    4    0    0  0.42596092776E+02 -0.14055501458E+02  0.24871613982E+02  0.51289194019E+02  0.00000000000E+00 0. -1.
        -15    1    3    3    0    0  0.45188312561E+02  0.10026469446E+03 -0.79051836150E+02  0.13544070786E+03  0.00000000000E+00 0.  1.
         15    1    4    4    0    0  0.40724660744E+02 -0.12232785781E+03  0.21224325439E+02  0.13066397659E+03  0.00000000000E+00 0.  1.
         15    1    3    3    0    0 -0.39825985972E+02 -0.62360096953E+02  0.17521994323E+03  0.19020231165E+03  0.00000000000E+00 0. -1.
        -16    1    3    3    0    0  0.21464442263E+02 -0.16393332946E+03  0.29896798814E+03  0.34163828346E+03  0.00000000000E+00 0.  1.
         16    1    1    2    0    0 -0.13307646914E+03  0.27053422463E+03  0.10690755747E+03  0.31988644732E+03  0.00000000000E+00 0. -1.
    9900018    1    1    2    0    0  0.22928946769E+02 -0.81221334178E+01  0.33829051927E+02  0.10025611602E+03  0.91187600000E+02 0.  0.
<mgrwt>
<rscale>  0 0.11281093E+04</rscale>
<asrwt>0</asrwt>
<pdfrwt beam="1">  1        1 0.14241121E+00 0.11281093E+04</pdfrwt>
<pdfrwt beam="2">  1       -1 0.52877569E-01 0.11281093E+04</pdfrwt>
<totfact> 0.62170915E+01</totfact>
</mgrwt>
</event>
<event>
11    1  0.6178256E-015  0.1106568E+04  0.7818608E-02  0.9198814E-01
          1   -1    0    0  501    0  0.00000000000E+00  0.00000000000E+00  0.26465388442E+03  0.26465388442E+03  0.00000000000E+00 0. -1.
         -1   -1    0    0    0  501 -0.00000000000E+00 -0.00000000000E+00 -0.11566924088E+04  0.11566924088E+04  0.00000000000E+00 0.  1.
    9900016    2    1    2    0    0 -0.65651882986E+02  0.27695838542E+03 -0.74951629061E+03  0.11030245941E+04  0.75754370726E+03 0.  0.
         23    2    3    3    0    0  0.26025555172E+02  0.39029498947E+02 -0.54842261964E+02  0.10535441260E+03  0.76754460769E+02 0.  0.
        -15    1    4    4    0    0  0.22743847360E+02  0.24743678939E+01  0.14367353155E+02  0.27015290594E+02  0.00000000000E+00 0. -1.
        -15    1    3    3    0    0  0.10061745544E+03 -0.56400138719E+02 -0.16366184365E+03  0.20022499108E+03  0.00000000000E+00 0.  1.
         15    1    4    4    0    0  0.32817078120E+01  0.36555131053E+02 -0.69209615119E+02  0.78339122010E+02  0.00000000000E+00 0.  1.
         15    1    3    3    0    0 -0.25654402386E+03  0.19673067030E+03 -0.14333288756E+03  0.35364121574E+03  0.00000000000E+00 0. -1.
        -16    1    1    2    0    0  0.65651882986E+02 -0.27695838542E+03 -0.14252223380E+03  0.31832169911E+03  0.00000000000E+00 0.  1.
         16    1    3    3    0    0  0.51560417653E+02  0.72110854911E+01 -0.24901869890E+03  0.25440280821E+03  0.00000000000E+00 0. -1.
    9900018    1    3    3    0    0  0.12688712609E+02  0.90387269404E+02 -0.13866059853E+03  0.18940116651E+03  0.91187600000E+02 0.  0.
<mgrwt>
<rscale>  0 0.11065679E+04</rscale>
<asrwt>0</asrwt>
<pdfrwt beam="1">  1        1 0.40715982E-01 0.11065679E+04</pdfrwt>
<pdfrwt beam="2">  1       -1 0.17795268E+00 0.11065679E+04</pdfrwt>
<totfact> 0.22148830E+01</totfact>
</mgrwt>
</event>
