<event>
11    1  0.5515479E-013  0.3154534E+04  0.7818608E-02  0.8200929E-01
          2   -1    0    0  501    0  0.00000000000E+00  0.00000000000E+00  0.10843761328E+04  0.10843761328E+04  0.00000000000E+00 0. -1.
         -2   -1    0    0    0  501 -0.00000000000E+00 -0.00000000000E+00 -0.22941958311E+04  0.22941958311E+04  0.00000000000E+00 0.  1.
    9900016    2    1    2    0    0 -0.38848742352E+03  0.34027256313E+03 -0.66606731362E+02  0.21241223701E+04  0.20593084983E+04 0.  0.
         24    2    3    3    0    0 -0.14156870410E+03  0.56161135318E+03 -0.10749156598E+03  0.59219263355E+03  0.60734409261E+02 0.  0.
        -15    1    3    3    0    0 -0.80285870078E+02 -0.14468409718E+03 -0.44307982676E+03  0.47296833065E+03  0.00000000000E+00 0.  1.
        -15    1    4    4    0    0 -0.41210035583E+02  0.22695291146E+03 -0.17045985697E+02  0.23129301044E+03  0.00000000000E+00 0.  1.
         15    1    3    3    0    0 -0.18103096059E+03  0.33152929580E+03  0.11753605646E+03  0.39559904858E+03  0.00000000000E+00 0. -1.
         15    1    3    3    0    0  0.39148543080E+02 -0.43045004599E+03  0.36586853422E+03  0.56628582434E+03  0.00000000000E+00 0. -1.
        -16    1    1    2    0    0  0.38848742352E+03 -0.34027256313E+03 -0.11432129669E+04  0.12544495937E+04  0.00000000000E+00 0.  1.
         16    1    4    4    0    0 -0.10035866851E+03  0.33465844172E+03 -0.90445580285E+02  0.36089962310E+03  0.00000000000E+00 0. -1.
    9900018    1    3    3    0    0 -0.24750431835E+02  0.22266057314E+02  0.56007069691E+00  0.97076532990E+02  0.91187600000E+02 0.  0.
<mgrwt>
<rscale>  0 0.31545340E+04</rscale>
<asrwt>0</asrwt>
<pdfrwt beam="1">  1        2 0.16682710E+00 0.31545340E+04</pdfrwt>
<pdfrwt beam="2">  1       -2 0.35295320E+00 0.31545340E+04</pdfrwt>
<totfact> 0.28052532E-01</totfact>
</mgrwt>
</event>
<event>
11    1  0.5515479E-013  0.2997041E+04  0.7818608E-02  0.8244576E-01
          1   -1    0    0  501    0  0.00000000000E+00  0.00000000000E+00  0.17784243920E+04  0.17784243920E+04  0.00000000000E+00 0. -1.
         -1   -1    0    0    0  501 -0.00000000000E+00 -0.00000000000E+00 -0.12626704760E+04  0.12626704760E+04  0.00000000000E+00 0.  1.
    9900016    2    1    2    0    0 -0.31094847786E+03  0.58541426005E+03 -0.41133001172E+02  0.21753455681E+04  0.20714819828E+04 0.  0.
         24    2    3    3    0    0  0.37143406176E+02  0.15024017218E+03 -0.40155757245E+03  0.43585749305E+03  0.69076249894E+02 0.  0.
        -15    1    3    3    0    0  0.50453529138E+02  0.51291760891E+03 -0.40010194572E+03  0.65246578386E+03  0.00000000000E+00 0.  1.
        -15    1    4    4    0    0  0.48712514861E+02  0.63790601738E+02 -0.22595482901E+03  0.23978685269E+03  0.00000000000E+00 0.  1.
         15    1    3    3    0    0 -0.40115063444E+03  0.67446062661E+02  0.70878153983E+03  0.81721605104E+03  0.00000000000E+00 0. -1.
         15    1    3    3    0    0 -0.56604256055E+01 -0.16859338640E+03  0.18843702011E+02  0.16973760768E+03  0.00000000000E+00 0. -1.
        -16    1    1    2    0    0  0.31094847786E+03 -0.58541426005E+03  0.55688691721E+03  0.86574929992E+03  0.00000000000E+00 0.  1.
         16    1    4    4    0    0 -0.11569108686E+02  0.86449570439E+02 -0.17560274344E+03  0.19607064035E+03  0.00000000000E+00 0. -1.
    9900018    1    3    3    0    0  0.82656468681E+01  0.23403802700E+02  0.32901275158E+02  0.10006863245E+03  0.91187600000E+02 0.  0.
<mgrwt>
<rscale>  0 0.29970412E+04</rscale>
<asrwt>0</asrwt>
<pdfrwt beam="1">  1        1 0.27360375E+00 0.29970412E+04</pdfrwt>
<pdfrwt beam="2">  1       -1 0.19425700E+00 0.29970412E+04</pdfrwt>
<totfact> 0.59184950E-01</totfact>
</mgrwt>
</event>
<event>
11    1  0.5515479E-013  0.3070256E+04  0.7818608E-02  0.8223949E-01
         -2   -1    0    0    0  501 -0.00000000000E+00  0.00000000000E+00  0.78570798110E+03  0.78570798110E+03  0.00000000000E+00 0.  1.
          2   -1    0    0  501    0  0.00000000000E+00 -0.00000000000E+00 -0.29993567062E+04  0.29993567062E+04  0.00000000000E+00 0. -1.
    9900016    2    1    2    0    0  0.84885360535E+02 -0.26915911941E+02 -0.60736054091E+03  0.20690027555E+04  0.19758430062E+04 0.  0.
        -24    2    3    3    0    0  0.54079039137E+03 -0.25863380232E+03 -0.22346002175E+03  0.64261529823E+03  0.60616409520E+02 0.  0.
        -15    1    3    3    0    0 -0.16866478351E+03  0.34276610328E+03  0.16815250908E+02  0.38238614438E+03  0.00000000000E+00 0.  1.
        -15    1    3    3    0    0 -0.25850513466E+03 -0.21482203108E+03  0.22798820104E+03  0.40614286833E+03  0.00000000000E+00 0.  1.
         15    1    3    3    0    0 -0.28735112658E+02  0.10377381819E+03 -0.62870397111E+03  0.63785844458E+03  0.00000000000E+00 0. -1.
         15    1    4    4    0    0  0.12824713590E+03 -0.43429942672E+02 -0.29914477630E+02  0.13866637573E+03  0.00000000000E+00 0. -1.
        -16    1    4    4    0    0  0.41254325547E+03 -0.21520385965E+03 -0.19354554412E+03  0.50394892250E+03  0.00000000000E+00 0.  1.
         16    1    1    2    0    0 -0.92492884059E+02  0.37561864938E+01 -0.16182693781E+04  0.16209148104E+04  0.00000000000E+00 0. -1.
    9900018    1    1    2    0    0  0.76075235241E+01  0.23159725447E+02  0.11981193936E+02  0.95147121338E+02  0.91187600000E+02 0.  0.
<mgrwt>
<rscale>  0 0.30702563E+04</rscale>
<asrwt>0</asrwt>
<pdfrwt beam="1">  1        2 0.46143949E+00 0.30702563E+04</pdfrwt>
<pdfrwt beam="2">  1       -2 0.12087815E+00 0.30702563E+04</pdfrwt>
<totfact> 0.77294723E-01</totfact>
</mgrwt>
</event>
<event>
11    1  0.5515479E-013  0.2703263E+04  0.7818608E-02  0.8333947E-01
         -1   -1    0    0    0  501 -0.00000000000E+00  0.00000000000E+00  0.69456308066E+03  0.69456308066E+03  0.00000000000E+00 0.  1.
          1   -1    0    0  501    0  0.00000000000E+00 -0.00000000000E+00 -0.26302969468E+04  0.26302969468E+04  0.00000000000E+00 0. -1.
    9900016    2    1    2    0    0  0.22719285836E+03  0.27604872056E+03 -0.19557389233E+04  0.28010940548E+04  0.19731684359E+04 0.  0.
         24    2    3    3    0    0 -0.19085164859E+03  0.62760952219E+03 -0.11862206951E+04  0.13567175718E+04  0.56964620262E+02 0.  0.
        -15    1    3    3    0    0  0.14417911145E+03 -0.14266796165E+02 -0.20403620315E+02  0.14631290228E+03  0.00000000000E+00 0.  1.
        -15    1    4    4    0    0 -0.56468725986E+02  0.20540573649E+03 -0.44033569658E+03  0.48915821497E+03  0.00000000000E+00 0.  1.
         15    1    3    3    0    0 -0.21977089578E+03 -0.58354390169E+02  0.12247985844E+03  0.25827465460E+03  0.00000000000E+00 0. -1.
         15    1    3    3    0    0  0.49363629128E+03 -0.27893961529E+03 -0.87159446633E+03  0.10397889261E+04  0.00000000000E+00 0. -1.
        -16    1    1    2    0    0 -0.24884569500E+03 -0.31101044207E+03  0.81195953223E+02  0.40650271564E+03  0.00000000000E+00 0.  1.
         16    1    4    4    0    0 -0.13438292260E+03  0.42220378571E+03 -0.74588499856E+03  0.86755935684E+03  0.00000000000E+00 0. -1.
    9900018    1    1    2    0    0  0.21652836643E+02  0.34961721510E+02 -0.61190895993E+02  0.11726325704E+03  0.91187600000E+02 0.  0.
<mgrwt>
<rscale>  0 0.27032626E+04</rscale>
<asrwt>0</asrwt>
<pdfrwt beam="1">  1        1 0.40466107E+00 0.27032626E+04</pdfrwt>
<pdfrwt beam="2">  1       -1 0.10685586E+00 0.27032626E+04</pdfrwt>
<totfact> 0.78340113E-01</totfact>
</mgrwt>
</event>
<event>
11    1  0.5515479E-013  0.3689845E+04  0.7818608E-02  0.8070216E-01
          1   -1    0    0  501    0  0.00000000000E+00  0.00000000000E+00  0.23669202671E+04  0.23669202671E+04  0.00000000000E+00 0. -1.
         -1   -1    0    0    0  501 -0.00000000000E+00 -0.00000000000E+00 -0.14380457694E+04  0.14380457694E+04  0.00000000000E+00 0.  1.
    9900016    2    1    2    0    0 -0.12035844427E+03  0.11668779595E+04  0.77017729937E+03  0.24230747753E+04  0.19753551495E+04 0.  0.
         24    2    3    3    0    0 -0.23343481420E+02 -0.29859742760E+03  0.31057564729E+03  0.43655499746E+03  0.66465714619E+02 0.  0.
        -15    1    4    4    0    0 -0.12835682135E+02 -0.26588229329E+03  0.29893567637E+03  0.40027576398E+03  0.00000000000E+00 0.  1.
        -15    1    3    3    0    0 -0.13079002767E+03  0.42650379315E+03 -0.19410842275E+03  0.48650755050E+03  0.00000000000E+00 0.  1.
         15    1    3    3    0    0  0.89793709214E+02  0.11442228734E+04  0.39270714221E+03  0.12130654532E+04  0.00000000000E+00 0. -1.
         15    1    3    3    0    0 -0.56018644393E+02 -0.10525127945E+03  0.26100293262E+03  0.28694677412E+03  0.00000000000E+00 0. -1.
        -16    1    1    2    0    0  0.95982719077E+02 -0.12413669011E+04  0.10284811121E+03  0.12493126908E+04  0.00000000000E+00 0.  1.
         16    1    4    4    0    0 -0.10507799285E+02 -0.32715134313E+02  0.11639970921E+02  0.36279233481E+02  0.00000000000E+00 0. -1.
    9900018    1    1    2    0    0  0.24375725194E+02  0.74488941595E+02  0.55849087137E+02  0.13257857039E+03  0.91187600000E+02 0.  0.
<mgrwt>
<rscale>  0 0.36898453E+04</rscale>
<asrwt>0</asrwt>
<pdfrwt beam="1">  1        1 0.36414158E+00 0.36898453E+04</pdfrwt>
<pdfrwt beam="2">  1       -1 0.22123781E+00 0.36898453E+04</pdfrwt>
<totfact> 0.14516092E-01</totfact>
</mgrwt>
</event>
<event>
10    1  0.5515479E-013  0.2577072E+04  0.7818608E-02  0.8376031E-01
          1   -1    0    0  501    0  0.00000000000E+00  0.00000000000E+00  0.12338416090E+04  0.12338416090E+04  0.00000000000E+00 0. -1.
         -1   -1    0    0    0  501 -0.00000000000E+00 -0.00000000000E+00 -0.13456549863E+04  0.13456549863E+04  0.00000000000E+00 0.  1.
    9900016    2    1    2    0    0  0.11358907041E+03  0.64090799293E+02 -0.53625719988E+03  0.21354665671E+04  0.20629191858E+04 0.  0.
        -15    1    3    3    0    0  0.65082562315E+03  0.50540545162E+03 -0.20657631514E+03  0.84951894402E+03  0.00000000000E+00 0.  1.
        -15    1    3    3    0    0 -0.18283585249E+03 -0.31655603512E+03 -0.17039244332E+03  0.40332401002E+03  0.00000000000E+00 0.  1.
         15    1    3    3    0    0  0.10111654196E+03 -0.78299867641E+02  0.16304373844E+03  0.20721651714E+03  0.00000000000E+00 0. -1.
         15    1    3    3    0    0 -0.85141119244E+02  0.15794297137E+02 -0.92038090230E+02  0.12637040817E+03  0.00000000000E+00 0. -1.
        -16    1    3    3    0    0 -0.39750745399E+03 -0.65330465928E+02 -0.17779300754E+03  0.44033010263E+03  0.00000000000E+00 0.  1.
         16    1    1    2    0    0 -0.11358907041E+03 -0.64090799293E+02  0.42444382252E+03  0.44403002820E+03  0.00000000000E+00 0. -1.
    9900018    1    3    3    0    0  0.27131331022E+02  0.30774192172E+01 -0.52501082103E+02  0.10870658512E+03  0.91187600000E+02 0.  0.
<mgrwt>
<rscale>  0 0.25770721E+04</rscale>
<asrwt>0</asrwt>
<pdfrwt beam="1">  1        1 0.18982179E+00 0.25770721E+04</pdfrwt>
<pdfrwt beam="2">  1       -1 0.20702384E+00 0.25770721E+04</pdfrwt>
<totfact> 0.12000505E+00</totfact>
</mgrwt>
</event>
<event>
11    1  0.5515479E-013  0.2359774E+04  0.7818608E-02  0.8454719E-01
          1   -1    0    0  501    0  0.00000000000E+00  0.00000000000E+00  0.16895049256E+04  0.16895049256E+04  0.00000000000E+00 0. -1.
         -1   -1    0    0    0  501 -0.00000000000E+00 -0.00000000000E+00 -0.82398875831E+03  0.82398875831E+03  0.00000000000E+00 0.  1.
    9900016    2    1    2    0    0 -0.22256115081E+03 -0.14928247078E+03  0.76973724807E+03  0.21455116577E+04  0.19846677607E+04 0.  0.
        -24    2    3    3    0    0  0.58043335522E+02  0.51745808452E+03  0.18411845422E+03  0.55621381741E+03  0.65896187029E+02 0.  0.
        -15    1    3    3    0    0 -0.37172226394E+03  0.18281272136E+03  0.36472391835E+03  0.55192523879E+03  0.00000000000E+00 0.  1.
        -15    1    3    3    0    0  0.32187396211E+03 -0.50572928628E+03  0.12675410564E+03  0.61272470309E+03  0.00000000000E+00 0.  1.
         15    1    4    4    0    0  0.52810526673E+02  0.47875242230E+03  0.15033528770E+03  0.50457262343E+03  0.00000000000E+00 0. -1.
         15    1    3    3    0    0 -0.23075618451E+03 -0.34382399037E+03  0.94140769877E+02  0.42464789838E+03  0.00000000000E+00 0. -1.
        -16    1    4    4    0    0  0.52328088498E+01  0.38705662219E+02  0.33783166516E+02  0.51641193984E+02  0.00000000000E+00 0.  1.
         16    1    1    2    0    0  0.21555788459E+03  0.15149993327E+03  0.78129810625E+02  0.27481211527E+03  0.00000000000E+00 0. -1.
    9900018    1    1    2    0    0  0.70032662240E+01 -0.22174624963E+01  0.17649108567E+02  0.93169910941E+02  0.91187600000E+02 0.  0.
<mgrwt>
<rscale>  0 0.23597738E+04</rscale>
<asrwt>0</asrwt>
<pdfrwt beam="1">  1        1 0.25992383E+00 0.23597738E+04</pdfrwt>
<pdfrwt beam="2">  1       -1 0.12676750E+00 0.23597738E+04</pdfrwt>
<totfact> 0.23541557E+00</totfact>
</mgrwt>
</event>
<event>
11    1  0.6861958E-013  0.2424499E+04  0.7818608E-02  0.8430388E-01
         -2   -1    0    0    0  501 -0.00000000000E+00  0.00000000000E+00  0.64426789428E+03  0.64426789428E+03  0.00000000000E+00 0.  1.
          2   -1    0    0  501    0  0.00000000000E+00 -0.00000000000E+00 -0.22809583947E+04  0.22809583947E+04  0.00000000000E+00 0. -1.
    9900016    2    1    2    0    0  0.30200077073E+03  0.74450750442E+02 -0.15259458442E+04  0.25104655831E+04  0.19690554449E+04 0.  0.
        -24    2    3    3    0    0  0.60385458425E+03 -0.48963162101E+03 -0.36328944903E+03  0.86288089689E+03  0.90579993565E+02 0.  0.
        -15    1    3    3    0    0  0.59042917265E+02 -0.11010720567E+03 -0.11008775007E+03  0.16652019558E+03  0.00000000000E+00 0.  1.
        -15    1    3    3    0    0 -0.19676442685E+03  0.74678929710E+03 -0.55193274409E+03  0.94923139852E+03  0.00000000000E+00 0.  1.
         15    1    4    4    0    0  0.26617408424E+03 -0.23645683865E+03 -0.11990359910E+03  0.37568251589E+03  0.00000000000E+00 0. -1.
         15    1    3    3    0    0 -0.16413230393E+03 -0.72599719981E+02 -0.50063590101E+03  0.53183309215E+03  0.00000000000E+00 0. -1.
        -16    1    4    4    0    0  0.33768050000E+03 -0.25317478235E+03 -0.24338584993E+03  0.48719838100E+03  0.00000000000E+00 0.  1.
         16    1    1    2    0    0 -0.29020766044E+03 -0.93031799466E+02 -0.97818885125E+02  0.32006864292E+03  0.00000000000E+00 0. -1.
    9900018    1    1    2    0    0 -0.11793110291E+02  0.18581049024E+02 -0.12925771129E+02  0.94692062953E+02  0.91187600000E+02 0.  0.
<mgrwt>
<rscale>  0 0.24244985E+04</rscale>
<asrwt>0</asrwt>
<pdfrwt beam="1">  1        2 0.35091668E+00 0.24244985E+04</pdfrwt>
<pdfrwt beam="2">  1       -2 0.99118137E-01 0.24244985E+04</pdfrwt>
<totfact> 0.35178049E+00</totfact>
</mgrwt>
</event>
<event>
11    1  0.5515479E-013  0.2734405E+04  0.7818608E-02  0.8323927E-01
          2   -1    0    0  501    0  0.00000000000E+00  0.00000000000E+00  0.23574410825E+04  0.23574410825E+04  0.00000000000E+00 0. -1.
         -2   -1    0    0    0  501 -0.00000000000E+00 -0.00000000000E+00 -0.79291190870E+03  0.79291190870E+03  0.00000000000E+00 0.  1.
    9900016    2    1    2    0    0  0.56766847814E+01  0.56629281337E+03  0.13924788689E+04  0.25584737107E+04  0.20702827229E+04 0.  0.
         24    2    3    3    0    0  0.23793108640E+03 -0.33933334860E+03  0.49979083372E+03  0.65295639477E+03  0.69302616487E+02 0.  0.
        -15    1    3    3    0    0  0.60116448610E+02  0.73309176475E+03  0.53747287113E+03  0.91099649293E+03  0.00000000000E+00 0.  1.
        -15    1    4    4    0    0  0.90267731198E+02 -0.16809425691E+03  0.18848651949E+03  0.26819975863E+03  0.00000000000E+00 0.  1.
         15    1    3    3    0    0  0.18438248442E+03 -0.11906645562E+03  0.28335351392E+03  0.35841726419E+03  0.00000000000E+00 0. -1.
         15    1    3    3    0    0 -0.43985065133E+03  0.28820841817E+03  0.23384774833E+02  0.52638344909E+03  0.00000000000E+00 0. -1.
        -16    1    1    2    0    0 -0.56766847814E+01 -0.56629281337E+03  0.17205030490E+03  0.59187928047E+03  0.00000000000E+00 0.  1.
         16    1    4    4    0    0  0.14766335520E+03 -0.17123909169E+03  0.31130431423E+03  0.38475663613E+03  0.00000000000E+00 0. -1.
    9900018    1    3    3    0    0 -0.36902683314E+02  0.33924346737E+01  0.48476875249E+02  0.10972010972E+03  0.91187600000E+02 0.  0.
<mgrwt>
<rscale>  0 0.27344053E+04</rscale>
<asrwt>0</asrwt>
<pdfrwt beam="1">  1        2 0.36268324E+00 0.27344053E+04</pdfrwt>
<pdfrwt beam="2">  1       -2 0.12198645E+00 0.27344053E+04</pdfrwt>
<totfact> 0.18746506E+00</totfact>
</mgrwt>
</event>
<event>
11    1  0.5515479E-013  0.3121852E+04  0.7818608E-02  0.8209766E-01
          2   -1    0    0  501    0  0.00000000000E+00  0.00000000000E+00  0.25900914999E+04  0.25900914999E+04  0.00000000000E+00 0. -1.
         -2   -1    0    0    0  501 -0.00000000000E+00 -0.00000000000E+00 -0.94069647142E+03  0.94069647142E+03  0.00000000000E+00 0.  1.
    9900016    2    1    2    0    0  0.44805158516E+03  0.62278820740E+03  0.13337351448E+04  0.25024422036E+04  0.19735126479E+04 0.  0.
         24    2    3    3    0    0 -0.21519309940E+03  0.46869255048E+03  0.13631073766E+03  0.54254715169E+03  0.98974833703E+02 0.  0.
        -15    1    3    3    0    0  0.14753980228E+02  0.33529186760E+02 -0.66113580261E+02  0.75583674112E+02  0.00000000000E+00 0.  1.
        -15    1    4    4    0    0 -0.93352965554E+02  0.12600273783E+03  0.85301016905E+01  0.15704849173E+03  0.00000000000E+00 0.  1.
         15    1    3    3    0    0  0.55037118899E+03 -0.47251012839E+03  0.98108138474E+03  0.12201208754E+04  0.00000000000E+00 0. -1.
         15    1    3    3    0    0  0.98119515346E+02  0.59307659855E+03  0.28245660265E+03  0.66419050236E+03  0.00000000000E+00 0. -1.
        -16    1    1    2    0    0 -0.53233198494E+03 -0.65681026695E+03  0.23930779173E+03  0.87866107695E+03  0.00000000000E+00 0.  1.
         16    1    4    4    0    0 -0.12184013384E+03  0.34268981265E+03  0.12778063597E+03  0.38549865997E+03  0.00000000000E+00 0. -1.
    9900018    1    1    2    0    0  0.84280399779E+02  0.34022059555E+02  0.76352091970E+02  0.14968469082E+03  0.91187600000E+02 0.  0.
<mgrwt>
<rscale>  0 0.31218520E+04</rscale>
<asrwt>0</asrwt>
<pdfrwt beam="1">  1        2 0.39847561E+00 0.31218520E+04</pdfrwt>
<pdfrwt beam="2">  1       -2 0.14472254E+00 0.31218520E+04</pdfrwt>
<totfact> 0.86059943E-01</totfact>
</mgrwt>
</event>
<event>
10    1  0.5515479E-013  0.2254575E+04  0.7818608E-02  0.8496050E-01
          1   -1    0    0  501    0  0.00000000000E+00  0.00000000000E+00  0.12943683765E+04  0.12943683765E+04  0.00000000000E+00 0. -1.
         -1   -1    0    0    0  501 -0.00000000000E+00 -0.00000000000E+00 -0.98177366339E+03  0.98177366339E+03  0.00000000000E+00 0.  1.
    9900016    2    1    2    0    0  0.80975638881E+02 -0.53747674072E+02  0.33972352131E+03  0.20045962661E+04  0.19732076051E+04 0.  0.
        -15    1    3    3    0    0 -0.18993117955E+03 -0.41555955799E+03  0.12465981006E+03  0.47360708129E+03  0.00000000000E+00 0.  1.
        -15    1    3    3    0    0 -0.37764003511E+02  0.39068891169E+03  0.15743918097E+03  0.42290784030E+03  0.00000000000E+00 0.  1.
         15    1    3    3    0    0 -0.23163202852E+03 -0.73998012555E+02  0.11981446318E+03  0.27108044578E+03  0.00000000000E+00 0. -1.
         15    1    3    3    0    0  0.51456056650E+03 -0.88381703135E+02 -0.27068335566E+03  0.58809300377E+03  0.00000000000E+00 0. -1.
        -16    1    1    2    0    0 -0.11446419987E+03  0.39623294597E+02 -0.93527708643E+02  0.15303427986E+03  0.00000000000E+00 0.  1.
         16    1    3    3    0    0  0.25742283960E+02  0.13350268791E+03  0.20849342275E+03  0.24890789500E+03  0.00000000000E+00 0. -1.
    9900018    1    1    2    0    0  0.33488560993E+02  0.14124379475E+02  0.66398900459E+02  0.11851149391E+03  0.91187600000E+02 0.  0.
<mgrwt>
<rscale>  0 0.22545747E+04</rscale>
<asrwt>0</asrwt>
<pdfrwt beam="1">  1        1 0.19913360E+00 0.22545747E+04</pdfrwt>
<pdfrwt beam="2">  1       -1 0.15104210E+00 0.22545747E+04</pdfrwt>
<totfact> 0.28371869E+00</totfact>
</mgrwt>
</event>
<event>
11    1  0.5515479E-013  0.2746784E+04  0.7818608E-02  0.8319983E-01
         -2   -1    0    0    0  501 -0.00000000000E+00  0.00000000000E+00  0.13873197296E+04  0.13873197296E+04  0.00000000000E+00 0.  1.
          2   -1    0    0  501    0  0.00000000000E+00 -0.00000000000E+00 -0.13596037014E+04  0.13596037014E+04  0.00000000000E+00 0. -1.
    9900016    2    1    2    0    0  0.44146725015E+02 -0.11160798350E+03 -0.56182418636E+03  0.21452898714E+04  0.20669341888E+04 0.  0.
         24    2    3    3    0    0 -0.66344343744E+02  0.38395703470E+03 -0.27852305168E+03  0.48318772800E+03  0.63802145149E+02 0.  0.
        -15    1    3    3    0    0  0.26562092191E+02  0.39201952061E+02  0.36007728476E+02  0.59488606446E+02  0.00000000000E+00 0.  1.
        -15    1    4    4    0    0 -0.18848617973E+02  0.95832561304E+02 -0.10547919214E+03  0.14375329624E+03  0.00000000000E+00 0.  1.
         15    1    3    3    0    0 -0.47022658903E+01 -0.71142567591E+03  0.37689658332E+03  0.80510846360E+03  0.00000000000E+00 0. -1.
         15    1    3    3    0    0  0.57853268636E+02  0.17013784431E+03 -0.67530209330E+03  0.69880383798E+03  0.00000000000E+00 0. -1.
        -16    1    1    2    0    0 -0.44146725015E+02  0.11160798350E+03  0.58954021462E+03  0.60163355954E+03  0.00000000000E+00 0.  1.
         16    1    4    4    0    0 -0.47495725771E+02  0.28812447340E+03 -0.17304385954E+03  0.33943443176E+03  0.00000000000E+00 0. -1.
    9900018    1    3    3    0    0  0.30777973821E+02  0.65208613339E+01 -0.20903353172E+02  0.98701235416E+02  0.91187600000E+02 0.  0.
<mgrwt>
<rscale>  0 0.27467836E+04</rscale>
<asrwt>0</asrwt>
<pdfrwt beam="1">  1        2 0.20916980E+00 0.27467836E+04</pdfrwt>
<pdfrwt beam="2">  1       -2 0.21343381E+00 0.27467836E+04</pdfrwt>
<totfact> 0.14520839E+00</totfact>
</mgrwt>
</event>
<event>
10    1  0.5515479E-013  0.2730425E+04  0.7818608E-02  0.8325200E-01
          1   -1    0    0  501    0  0.00000000000E+00  0.00000000000E+00  0.35546634374E+04  0.35546634374E+04  0.00000000000E+00 0. -1.
         -1   -1    0    0    0  501 -0.00000000000E+00 -0.00000000000E+00 -0.52432687769E+03  0.52432687769E+03  0.00000000000E+00 0.  1.
    9900016    2    1    2    0    0  0.43148331731E+02  0.24356771893E+03  0.15469804227E+04  0.25270325391E+04  0.19828156781E+04 0.  0.
        -15    1    3    3    0    0 -0.13453650027E+03  0.63386968885E+02  0.33023290353E+03  0.36217640496E+03  0.00000000000E+00 0. -1.
        -15    1    3    3    0    0  0.12661547446E+02  0.41018553128E+03  0.13804236084E+03  0.43297595573E+03  0.00000000000E+00 0.  1.
         15    1    3    3    0    0  0.40150479961E+03 -0.14979843446E+03 -0.35041429006E+02  0.42996927428E+03  0.00000000000E+00 0. -1.
         15    1    3    3    0    0 -0.35693627625E+03 -0.49011443182E+02  0.11207983066E+04  0.11772826640E+04  0.00000000000E+00 0.  1.
        -16    1    3    3    0    0  0.12045476119E+03 -0.31194903589E+02 -0.70517192476E+01  0.12462824017E+03  0.00000000000E+00 0.  1.
         16    1    1    2    0    0 -0.42543873256E+02 -0.26884666755E+03  0.13988576898E+04  0.14250934524E+04  0.00000000000E+00 0. -1.
    9900018    1    1    2    0    0 -0.60445847546E+00  0.25278948614E+02  0.84498447116E+02  0.12686432348E+03  0.91187600000E+02 0.  0.
<mgrwt>
<rscale>  0 0.27304253E+04</rscale>
<asrwt>0</asrwt>
<pdfrwt beam="1">  1        1 0.54687128E+00 0.27304253E+04</pdfrwt>
<pdfrwt beam="2">  1       -1 0.80665676E-01 0.27304253E+04</pdfrwt>
<totfact> 0.30183023E-01</totfact>
</mgrwt>
</event>
<event>
11    1  0.5515479E-013  0.2693711E+04  0.7818608E-02  0.8337049E-01
          1   -1    0    0  501    0  0.00000000000E+00  0.00000000000E+00  0.93502087704E+03  0.93502087704E+03  0.00000000000E+00 0. -1.
         -1   -1    0    0    0  501 -0.00000000000E+00 -0.00000000000E+00 -0.19400842716E+04  0.19400842716E+04  0.00000000000E+00 0.  1.
    9900016    2    1    2    0    0 -0.15525931077E+03  0.49977821027E+03 -0.59079669736E+03  0.22076468283E+04  0.20617419983E+04 0.  0.
         24    2    3    3    0    0  0.41201487130E+03  0.71785238534E+03 -0.41501142712E+03  0.93111832808E+03  0.98379646916E+02 0.  0.
        -15    1    4    4    0    0  0.18384188861E+03  0.24406788920E+03 -0.18456684504E+03  0.35697604238E+03  0.00000000000E+00 0.  1.
        -15    1    3    3    0    0 -0.35021630325E+02  0.11263223681E+03 -0.14877703942E+03  0.18986085120E+03  0.00000000000E+00 0.  1.
         15    1    3    3    0    0  0.76665359417E+02  0.12255652279E+03  0.15619787448E+03  0.21282728820E+03  0.00000000000E+00 0. -1.
         15    1    3    3    0    0 -0.59416908198E+03 -0.47361004492E+03 -0.16338177875E+03  0.77719815894E+03  0.00000000000E+00 0. -1.
        -16    1    1    2    0    0  0.15525931077E+03 -0.49977821027E+03 -0.41426669721E+03  0.66745832039E+03  0.00000000000E+00 0.  1.
         16    1    4    4    0    0  0.22817298269E+03  0.47378449614E+03 -0.23044458208E+03  0.57414228569E+03  0.00000000000E+00 0. -1.
    9900018    1    3    3    0    0 -0.14748829172E+02  0.20347110252E+02 -0.19824326547E+02  0.96642201829E+02  0.91187600000E+02 0.  0.
<mgrwt>
<rscale>  0 0.26937107E+04</rscale>
<asrwt>0</asrwt>
<pdfrwt beam="1">  1        1 0.14384937E+00 0.26937107E+04</pdfrwt>
<pdfrwt beam="2">  1       -1 0.29847450E+00 0.26937107E+04</pdfrwt>
<totfact> 0.50295717E-01</totfact>
</mgrwt>
</event>
<event>
10    1  0.5515479E-013  0.2355206E+04  0.7818608E-02  0.8456467E-01
          2   -1    0    0  501    0  0.00000000000E+00  0.00000000000E+00  0.36637178848E+04  0.36637178848E+04  0.00000000000E+00 0. -1.
         -2   -1    0    0    0  501 -0.00000000000E+00 -0.00000000000E+00 -0.37850861561E+03  0.37850861561E+03  0.00000000000E+00 0.  1.
    9900016    2    1    2    0    0  0.13428169970E+03  0.10784114435E+03  0.28470621884E+04  0.34635995937E+04  0.19649676214E+04 0.  0.
        -15    1    3    3    0    0  0.28677219101E+03 -0.57591499591E+02  0.88612595424E+03  0.93315286911E+03  0.00000000000E+00 0.  1.
        -15    1    3    3    0    0 -0.16826328052E+03  0.46053265946E+03  0.57881351483E+02  0.49371359395E+03  0.00000000000E+00 0.  1.
         15    1    3    3    0    0  0.23754756415E+03 -0.28575819238E+03  0.72463236895E+03  0.81435782054E+03  0.00000000000E+00 0. -1.
         15    1    3    3    0    0 -0.25096705945E+03 -0.38187088322E+02  0.11332903497E+04  0.11613740721E+04  0.00000000000E+00 0. -1.
        -16    1    1    2    0    0 -0.19332918996E+03 -0.16587578601E+03  0.29897213079E+03  0.39277892900E+03  0.00000000000E+00 0.  1.
         16    1    3    3    0    0  0.29192284509E+02  0.28845265191E+02  0.45132164094E+02  0.61001237976E+02  0.00000000000E+00 0. -1.
    9900018    1    1    2    0    0  0.59047490267E+02  0.58034641656E+02  0.13917494992E+03  0.18584797771E+03  0.91187600000E+02 0.  0.
<mgrwt>
<rscale>  0 0.23552060E+04</rscale>
<asrwt>0</asrwt>
<pdfrwt beam="1">  1        2 0.56364888E+00 0.23552060E+04</pdfrwt>
<pdfrwt beam="2">  1       -2 0.58232097E-01 0.23552060E+04</pdfrwt>
<totfact> 0.15501798E+00</totfact>
</mgrwt>
</event>
<event>
11    1  0.5515479E-013  0.2462884E+04  0.7818608E-02  0.8416329E-01
         -1   -1    0    0    0  501 -0.00000000000E+00  0.00000000000E+00  0.44313791186E+03  0.44313791186E+03  0.00000000000E+00 0.  1.
          1   -1    0    0  501    0  0.00000000000E+00 -0.00000000000E+00 -0.34220721302E+04  0.34220721302E+04  0.00000000000E+00 0. -1.
    9900016    2    1    2    0    0  0.20844234728E+03 -0.16283128603E+03 -0.21685179629E+04  0.29446325444E+04  0.19744438271E+04 0.  0.
        -24    2    3    3    0    0  0.20916410392E+02  0.32477057967E+03 -0.26584240762E+02  0.33884205253E+03  0.90519550712E+02 0.  0.
        -15    1    3    3    0    0  0.18061723275E+03 -0.65768422857E+02  0.30217305870E+02  0.19457943310E+03  0.00000000000E+00 0.  1.
        -15    1    3    3    0    0  0.37693620943E+03 -0.66597104829E+02 -0.15895072657E+04  0.16349463074E+04  0.00000000000E+00 0.  1.
         15    1    3    3    0    0 -0.37002750529E+03 -0.35523633801E+03 -0.58264376226E+03  0.77626475137E+03  0.00000000000E+00 0. -1.
         15    1    4    4    0    0  0.36565230821E+02  0.29643944020E+03 -0.44286732272E+02  0.30195144058E+03  0.00000000000E+00 0. -1.
        -16    1    4    4    0    0 -0.15648820428E+02  0.28331139472E+02  0.17702491510E+02  0.36890611953E+02  0.00000000000E+00 0.  1.
         16    1    1    2    0    0 -0.24956603666E+03  0.19429663162E+03 -0.70087377900E+03  0.76893331428E+03  0.00000000000E+00 0. -1.
    9900018    1    1    2    0    0  0.41123689378E+02 -0.31465345591E+02 -0.10954247644E+03  0.15164418333E+03  0.91187600000E+02 0.  0.
<mgrwt>
<rscale>  0 0.24628844E+04</rscale>
<asrwt>0</asrwt>
<pdfrwt beam="1">  1        1 0.52647260E+00 0.24628844E+04</pdfrwt>
<pdfrwt beam="2">  1       -1 0.68175068E-01 0.24628844E+04</pdfrwt>
<totfact> 0.55883925E-01</totfact>
</mgrwt>
</event>
<event>
11    1  0.5515479E-013  0.2703624E+04  0.7818608E-02  0.8333830E-01
          1   -1    0    0  501    0  0.00000000000E+00  0.00000000000E+00  0.14543250485E+04  0.14543250485E+04  0.00000000000E+00 0. -1.
         -1   -1    0    0    0  501 -0.00000000000E+00 -0.00000000000E+00 -0.12565249376E+04  0.12565249376E+04  0.00000000000E+00 0.  1.
    9900016    2    1    2    0    0 -0.10238765320E+03  0.25550680971E+03 -0.33383843206E+03  0.20235524648E+04  0.19767522651E+04 0.  0.
        -24    2    3    3    0    0  0.22195699380E+03  0.43982874726E+03  0.46930330325E+02  0.50470422470E+03  0.99043750486E+02 0.  0.
        -15    1    3    3    0    0 -0.27655641350E+02  0.29288698871E+03 -0.46986099658E+03  0.55436177606E+03  0.00000000000E+00 0.  1.
        -15    1    3    3    0    0 -0.32650661671E+03 -0.31549973330E+03 -0.29855975677E+03  0.54340093930E+03  0.00000000000E+00 0.  1.
         15    1    3    3    0    0  0.29817611067E+02 -0.16170919296E+03  0.38765199096E+03  0.42108552470E+03  0.00000000000E+00 0. -1.
         15    1    4    4    0    0  0.16681345632E+03  0.39591471966E+03  0.57394224457E+02  0.43343891317E+03  0.00000000000E+00 0. -1.
        -16    1    4    4    0    0  0.55143537482E+02  0.43914027597E+02 -0.10463894132E+02  0.71265311521E+02  0.00000000000E+00 0.  1.
         16    1    1    2    0    0  0.71618639254E+02 -0.26542171396E+03  0.52213054431E+03  0.59008323229E+03  0.00000000000E+00 0. -1.
    9900018    1    1    2    0    0  0.30769013941E+02  0.99149042480E+01  0.95079986524E+01  0.97214288956E+02  0.91187600000E+02 0.  0.
<mgrwt>
<rscale>  0 0.27036240E+04</rscale>
<asrwt>0</asrwt>
<pdfrwt beam="1">  1        1 0.22374232E+00 0.27036240E+04</pdfrwt>
<pdfrwt beam="2">  1       -1 0.19331153E+00 0.27036240E+04</pdfrwt>
<totfact> 0.10291428E+00</totfact>
</mgrwt>
</event>
<event>
11    1  0.5515479E-013  0.3058825E+04  0.7818608E-02  0.8227130E-01
          1   -1    0    0  501    0  0.00000000000E+00  0.00000000000E+00  0.85415194010E+03  0.85415194010E+03  0.00000000000E+00 0. -1.
         -1   -1    0    0    0  501 -0.00000000000E+00 -0.00000000000E+00 -0.27385093543E+04  0.27385093543E+04  0.00000000000E+00 0.  1.
    9900016    2    1    2    0    0 -0.48018929311E+03  0.88356223367E+02 -0.19790806259E+04  0.28447883262E+04  0.19843568019E+04 0.  0.
        -24    2    3    3    0    0 -0.47156432800E+03  0.20123437401E+03 -0.52372069748E+02  0.51912969547E+03  0.62326706185E+02 0.  0.
        -15    1    3    3    0    0 -0.99726411097E+02 -0.59178388367E+03 -0.98188245761E+03  0.11507591766E+04  0.00000000000E+00 0.  1.
        -15    1    3    3    0    0 -0.21385084173E+02  0.27235579303E+03 -0.89328173797E+03  0.93412379438E+03  0.00000000000E+00 0.  1.
         15    1    4    4    0    0 -0.64493397139E+02  0.19245664546E+02 -0.26971740470E+02  0.72507024917E+02  0.00000000000E+00 0. -1.
         15    1    3    3    0    0  0.11248653016E+03  0.20654994000E+03 -0.51544360604E+02  0.24077565968E+03  0.00000000000E+00 0. -1.
        -16    1    4    4    0    0 -0.40707093087E+03  0.18198870946E+03 -0.25400329278E+02  0.44662267056E+03  0.00000000000E+00 0.  1.
         16    1    1    2    0    0  0.52553384628E+03 -0.12107148407E+03  0.22061135863E+03  0.58267786932E+03  0.00000000000E+00 0. -1.
    9900018    1    1    2    0    0 -0.45344553167E+02  0.32715260705E+02 -0.12588814689E+03  0.16519509891E+03  0.91187600000E+02 0.  0.
<mgrwt>
<rscale>  0 0.30588253E+04</rscale>
<asrwt>0</asrwt>
<pdfrwt beam="1">  1        1 0.13140799E+00 0.30588253E+04</pdfrwt>
<pdfrwt beam="2">  1       -1 0.42130914E+00 0.30588253E+04</pdfrwt>
<totfact> 0.85829598E-02</totfact>
</mgrwt>
</event>
<event>
11    1  0.5515479E-013  0.2705413E+04  0.7818608E-02  0.8333251E-01
         -1   -1    0    0    0  501 -0.00000000000E+00  0.00000000000E+00  0.71957559905E+03  0.71957559905E+03  0.00000000000E+00 0.  1.
          1   -1    0    0  501    0  0.00000000000E+00 -0.00000000000E+00 -0.25429087912E+04  0.25429087912E+04  0.00000000000E+00 0. -1.
    9900016    2    1    2    0    0 -0.30744634075E+03 -0.37393953216E+03 -0.15768767347E+04  0.25778185261E+04  0.19809730161E+04 0.  0.
         24    2    3    3    0    0 -0.33679092031E+03 -0.57459784388E+03  0.14098094943E+03  0.68674959341E+03  0.90324801395E+02 0.  0.
        -15    1    3    3    0    0 -0.41041501980E+02  0.47358378925E+02  0.42313566252E+01  0.62810232590E+02  0.00000000000E+00 0.  1.
        -15    1    4    4    0    0 -0.22601671649E+03 -0.31151432264E+03  0.56055429981E+02  0.38893050867E+03  0.00000000000E+00 0.  1.
         15    1    3    3    0    0 -0.21361362710E+03  0.67707527927E+00 -0.28916289250E+03  0.35950857919E+03  0.00000000000E+00 0. -1.
         15    1    3    3    0    0  0.28399970864E+03  0.15262285751E+03 -0.14329261483E+04  0.14687501209E+04  0.00000000000E+00 0. -1.
        -16    1    1    2    0    0  0.32774753774E+03  0.40578554813E+03 -0.14122912416E+03  0.54039432369E+03  0.00000000000E+00 0.  1.
         16    1    4    4    0    0 -0.11077420382E+03 -0.26308352124E+03  0.84925519453E+02  0.29781908474E+03  0.00000000000E+00 0. -1.
    9900018    1    1    2    0    0 -0.20301196987E+02 -0.31846015971E+02 -0.10522733326E+03  0.14427154048E+03  0.91187600000E+02 0.  0.
<mgrwt>
<rscale>  0 0.27054132E+04</rscale>
<asrwt>0</asrwt>
<pdfrwt beam="1">  1        1 0.39121675E+00 0.27054132E+04</pdfrwt>
<pdfrwt beam="2">  1       -1 0.11070394E+00 0.27054132E+04</pdfrwt>
<totfact> 0.82940173E-01</totfact>
</mgrwt>
</event>
<event>
11    1  0.5515479E-013  0.2549544E+04  0.7818608E-02  0.8385545E-01
          1   -1    0    0  501    0  0.00000000000E+00  0.00000000000E+00  0.85408079493E+03  0.85408079493E+03  0.00000000000E+00 0. -1.
         -1   -1    0    0    0  501 -0.00000000000E+00 -0.00000000000E+00 -0.19026812407E+04  0.19026812407E+04  0.00000000000E+00 0.  1.
    9900016    2    1    2    0    0  0.39848388566E+03 -0.10274781811E+03 -0.10114846774E+04  0.23435743041E+04  0.20736182737E+04 0.  0.
        -24    2    3    3    0    0  0.45403548742E+03 -0.10880562491E+03 -0.11507059833E+04  0.12434062126E+04  0.62832011625E+02 0.  0.
        -15    1    3    3    0    0 -0.30962908510E+03 -0.21689370824E+03  0.30754418098E+03  0.48733609990E+03  0.00000000000E+00 0.  1.
        -15    1    3    3    0    0  0.19548651854E+03  0.29139727754E+03 -0.11463954531E+03  0.36914709485E+03  0.00000000000E+00 0.  1.
         15    1    4    4    0    0  0.28572360769E+03 -0.83310750770E+02 -0.80000398325E+03  0.85357192691E+03  0.00000000000E+00 0. -1.
         15    1    3    3    0    0  0.82678339025E+02 -0.52481532241E+02  0.43648874743E+02  0.10721587213E+03  0.00000000000E+00 0. -1.
        -16    1    4    4    0    0  0.16831187972E+03 -0.25494874138E+02 -0.35070200006E+03  0.38983428570E+03  0.00000000000E+00 0.  1.
         16    1    1    2    0    0 -0.39848388566E+03  0.10274781811E+03 -0.37115768394E+02  0.41318773158E+03  0.00000000000E+00 0. -1.
    9900018    1    3    3    0    0 -0.24087374221E+02 -0.15964230256E+02 -0.97332204496E+02  0.13646902458E+03  0.91187600000E+02 0.  0.
<mgrwt>
<rscale>  0 0.25495439E+04</rscale>
<asrwt>0</asrwt>
<pdfrwt beam="1">  1        1 0.13139705E+00 0.25495439E+04</pdfrwt>
<pdfrwt beam="2">  1       -1 0.29272019E+00 0.25495439E+04</pdfrwt>
<totfact> 0.64711569E-01</totfact>
</mgrwt>
</event>
<event>
11    1  0.5515479E-013  0.2310541E+04  0.7818608E-02  0.8473777E-01
         -1   -1    0    0    0  501 -0.00000000000E+00  0.00000000000E+00  0.75758572331E+03  0.75758572331E+03  0.00000000000E+00 0.  1.
          1   -1    0    0  501    0  0.00000000000E+00 -0.00000000000E+00 -0.17617144320E+04  0.17617144320E+04  0.00000000000E+00 0. -1.
    9900016    2    1    2    0    0  0.24078066989E+02  0.21461376218E+03 -0.82564925358E+03  0.22391328194E+04  0.20701160046E+04 0.  0.
         24    2    3    3    0    0  0.10753838778E+03 -0.27864120982E+03 -0.72029000689E+03  0.78690698150E+03  0.10582757125E+03 0.  0.
        -15    1    4    4    0    0  0.94287123014E+02 -0.10081087611E+03 -0.29225420816E+03  0.32321110206E+03  0.00000000000E+00 0.  1.
        -15    1    3    3    0    0 -0.40803837499E+03  0.21818109721E+03 -0.14433586043E+03  0.48469696435E+03  0.00000000000E+00 0.  1.
         15    1    3    3    0    0  0.11017202947E+03  0.51028502255E+03  0.18057865193E+03  0.55239236947E+03  0.00000000000E+00 0. -1.
         15    1    3    3    0    0  0.17888944519E+03 -0.22953694848E+03 -0.91556418777E+02  0.30507576458E+03  0.00000000000E+00 0. -1.
        -16    1    1    2    0    0 -0.24078066989E+02 -0.21461376218E+03 -0.17847945508E+03  0.28016733591E+03  0.00000000000E+00 0.  1.
         16    1    4    4    0    0  0.13251264764E+02 -0.17783033372E+03 -0.42803579873E+03  0.46369587943E+03  0.00000000000E+00 0. -1.
    9900018    1    3    3    0    0  0.35516579546E+02 -0.56741992809E+01 -0.50045619409E+02  0.11006073948E+03  0.91187600000E+02 0.  0.
<mgrwt>
<rscale>  0 0.23105408E+04</rscale>
<asrwt>0</asrwt>
<pdfrwt beam="1">  1        1 0.27103299E+00 0.23105408E+04</pdfrwt>
<pdfrwt beam="2">  1       -1 0.11655165E+00 0.23105408E+04</pdfrwt>
<totfact> 0.25960583E+00</totfact>
</mgrwt>
</event>
<event>
11    1  0.5515479E-013  0.3092149E+04  0.7818608E-02  0.8217896E-01
         -1   -1    0    0    0  501 -0.00000000000E+00  0.00000000000E+00  0.11862608662E+04  0.11862608662E+04  0.00000000000E+00 0.  1.
          1   -1    0    0  501    0  0.00000000000E+00 -0.00000000000E+00 -0.20150259191E+04  0.20150259191E+04  0.00000000000E+00 0. -1.
    9900016    2    1    2    0    0 -0.15053675663E+03 -0.44598596922E+03  0.11437528231E+03  0.20305421617E+04  0.19719165716E+04 0.  0.
        -24    2    3    3    0    0 -0.49838942646E+03  0.38778936524E+03 -0.85514924071E+01  0.64089791853E+03  0.10910729474E+03 0.  0.
        -15    1    3    3    0    0 -0.11728672390E+03 -0.54502851492E+03  0.11563106961E+03  0.56937053132E+03  0.00000000000E+00 0.  1.
        -15    1    3    3    0    0  0.14733574000E+03 -0.44019861812E+03  0.44187234081E+02  0.46629942669E+03  0.00000000000E+00 0.  1.
         15    1    4    4    0    0 -0.22392677174E+03  0.23337855682E+03 -0.32559775311E+02  0.32506751431E+03  0.00000000000E+00 0. -1.
         15    1    3    3    0    0  0.31780365373E+03  0.15145179857E+03 -0.36891528975E+02  0.35397428512E+03  0.00000000000E+00 0. -1.
        -16    1    4    4    0    0 -0.27446265471E+03  0.15441080841E+03  0.24008282904E+02  0.31583040423E+03  0.00000000000E+00 0.  1.
         16    1    1    2    0    0  0.19015167979E+03  0.42860424361E+03 -0.96002470672E+03  0.10684131675E+04  0.00000000000E+00 0. -1.
    9900018    1    1    2    0    0 -0.39614923160E+02  0.17381725616E+02  0.16884371585E+02  0.10233145616E+03  0.91187600000E+02 0.  0.
<mgrwt>
<rscale>  0 0.30921490E+04</rscale>
<asrwt>0</asrwt>
<pdfrwt beam="1">  1        1 0.31000398E+00 0.30921490E+04</pdfrwt>
<pdfrwt beam="2">  1       -1 0.18250167E+00 0.30921490E+04</pdfrwt>
<totfact> 0.49081507E-01</totfact>
</mgrwt>
</event>
