<event>
13    1  0.1118844E-007  0.4929231E+04  0.7818608E-02  0.7839518E-01
         -2   -1    0    0    0  501 -0.00000000000E+00  0.00000000000E+00  0.27243396635E+04  0.27243396635E+04  0.00000000000E+00 0.  1.
          2   -1    0    0  501    0  0.00000000000E+00 -0.00000000000E+00 -0.22296521317E+04  0.22296521317E+04  0.00000000000E+00 0. -1.
    9900016    2    1    2    0    0  0.86311553038E+03 -0.37726431621E+03  0.84106336160E+03  0.25403577068E+04  0.22042533695E+04 0.  0.
         23    2    3    3    0    0  0.34639299126E+03  0.34438346792E+03 -0.64159282736E+03  0.81233945413E+03  0.98315590097E+02 0.  0.
    9900016    2    1    2    0    0 -0.86311553038E+03  0.37726431621E+03 -0.34637582982E+03  0.24136340884E+04  0.21950755145E+04 0.  0.
         24    2    5    5    0    0  0.50783051430E+03 -0.30051092086E+03  0.32470308808E+03  0.67821259790E+03  0.79634086515E+02 0.  0.
        -15    1    4    4    0    0  0.15551244685E+03  0.16727859215E+03 -0.22196456684E+03  0.31848786075E+03  0.00000000000E+00 0. -1.
        -15    1    6    6    0    0  0.89561301045E+02 -0.89330560865E+02  0.79050920756E+02  0.14916508915E+03  0.00000000000E+00 0.  1.
         15    1    5    5    0    0 -0.27944032238E+03  0.36273592205E+03 -0.23936648066E+03  0.51668225727E+03  0.00000000000E+00 0. -1.
         15    1    4    4    0    0  0.19088054441E+03  0.17710487577E+03 -0.41962826052E+03  0.49385159338E+03  0.00000000000E+00 0.  1.
        -16    1    3    3    0    0  0.51672253911E+03 -0.72164778413E+03  0.14826561890E+04  0.17280182526E+04  0.00000000000E+00 0.  1.
         16    1    6    6    0    0  0.41826921325E+03 -0.21118035999E+03  0.24565216732E+03  0.52904750875E+03  0.00000000000E+00 0. -1.
    9900018    1    5    5    0    0 -0.10915057223E+04  0.31503931501E+03 -0.43171243724E+03  0.12187392333E+04  0.91187600000E+02 0.  0.
<mgrwt>
<rscale>  0 0.49292311E+04</rscale>
<asrwt>0</asrwt>
<pdfrwt beam="1">  1        2 0.34302340E+00 0.49292311E+04</pdfrwt>
<pdfrwt beam="2">  1       -2 0.41912918E+00 0.49292311E+04</pdfrwt>
<totfact> 0.20235300E-02</totfact>
</mgrwt>
</event>
<event>
13    1  0.1118844E-007  0.5675160E+04  0.7818608E-02  0.7732036E-01
         -1   -1    0    0    0  501 -0.00000000000E+00  0.00000000000E+00  0.45525697546E+04  0.45525697546E+04  0.00000000000E+00 0.  1.
          1   -1    0    0  501    0  0.00000000000E+00 -0.00000000000E+00 -0.17686408825E+04  0.17686408825E+04  0.00000000000E+00 0. -1.
    9900016    2    1    2    0    0  0.13343349767E+04 -0.49723368517E+03  0.16503034524E+03  0.26149285447E+04  0.21869899661E+04 0.  0.
         23    2    3    3    0    0  0.14391276488E+03 -0.37347679169E+03  0.10494103947E+04  0.11267925016E+04  0.90572443164E+02 0.  0.
    9900016    2    1    2    0    0 -0.13343349767E+04  0.49723368517E+03  0.26188985268E+04  0.37062820924E+04  0.22023183891E+04 0.  0.
        -24    2    5    5    0    0 -0.17105276105E+03  0.44626603962E+03  0.20853945937E+04  0.21409366660E+04  0.79541003126E+02 0.  0.
        -15    1    5    5    0    0 -0.11204061040E+03 -0.77124440741E+02 -0.22263661980E+03  0.26089910351E+03  0.00000000000E+00 0.  1.
        -15    1    4    4    0    0  0.17274801047E+02 -0.13083372515E+03  0.26581744054E+03  0.29677397811E+03  0.00000000000E+00 0. -1.
         15    1    6    6    0    0 -0.15967519913E+03  0.35164405247E+03  0.17599238487E+04  0.18017995621E+04  0.00000000000E+00 0. -1.
         15    1    4    4    0    0  0.12663796384E+03 -0.24264306654E+03  0.78359295413E+03  0.83001852352E+03  0.00000000000E+00 0.  1.
        -16    1    6    6    0    0 -0.11377561915E+02  0.94621987153E+02  0.32547074496E+03  0.33913710382E+03  0.00000000000E+00 0.  1.
         16    1    3    3    0    0  0.11904222118E+04 -0.12375689348E+03 -0.88438004943E+03  0.14881360431E+04  0.00000000000E+00 0. -1.
    9900018    1    5    5    0    0 -0.10512416052E+04  0.12809208629E+03  0.75614055297E+03  0.13044463229E+04  0.91187600000E+02 0.  0.
<mgrwt>
<rscale>  0 0.56751603E+04</rscale>
<asrwt>0</asrwt>
<pdfrwt beam="1">  1        1 0.27209860E+00 0.56751603E+04</pdfrwt>
<pdfrwt beam="2">  1       -1 0.70039534E+00 0.56751603E+04</pdfrwt>
<totfact> 0.59366352E-04</totfact>
</mgrwt>
</event>
<event>
13    1  0.1118844E-007  0.4527932E+04  0.7818608E-02  0.7905765E-01
         -2   -1    0    0    0  501 -0.00000000000E+00  0.00000000000E+00  0.25861984318E+04  0.25861984318E+04  0.00000000000E+00 0.  1.
          2   -1    0    0  501    0  0.00000000000E+00 -0.00000000000E+00 -0.19818831172E+04  0.19818831172E+04  0.00000000000E+00 0. -1.
    9900016    2    1    2    0    0  0.16749464260E+03 -0.21797997759E+02  0.80202520036E+03  0.23478205462E+04  0.22001107443E+04 0.  0.
         23    2    3    3    0    0  0.40714192028E+03  0.30000816009E+03 -0.65671526548E+03  0.83490489504E+03  0.10010896297E+03 0.  0.
    9900016    2    1    2    0    0 -0.16749464260E+03  0.21797997759E+02 -0.19770988577E+03  0.22202610028E+04  0.22049807513E+04 0.  0.
         24    2    5    5    0    0  0.17423341395E+03 -0.54938573193E+03  0.30061106408E+03  0.65493650480E+03  0.79955290620E+02 0.  0.
        -15    1    4    4    0    0 -0.29106956893E+01  0.12026152653E+02 -0.30356831779E+02  0.32781667631E+02  0.00000000000E+00 0.  1.
        -15    1    6    6    0    0  0.10515499994E+03 -0.24040941467E+03  0.10404839953E+03  0.28227704497E+03  0.00000000000E+00 0.  1.
         15    1    5    5    0    0 -0.80901163111E+03  0.52416531333E+03 -0.15473418092E+03  0.97631540073E+03  0.00000000000E+00 0. -1.
         15    1    4    4    0    0  0.41005261597E+03  0.28798200744E+03 -0.62635843370E+03  0.80212322741E+03  0.00000000000E+00 0. -1.
        -16    1    3    3    0    0 -0.23964727768E+03 -0.32180615785E+03  0.14587404658E+04  0.15129156512E+04  0.00000000000E+00 0.  1.
         16    1    6    6    0    0  0.69078414009E+02 -0.30897631726E+03  0.19656266454E+03  0.37265945983E+03  0.00000000000E+00 0. -1.
    9900018    1    5    5    0    0  0.46728357456E+03  0.47018416352E+02 -0.34358676893E+03  0.58900909730E+03  0.91187600000E+02 0.  0.
<mgrwt>
<rscale>  0 0.45279324E+04</rscale>
<asrwt>0</asrwt>
<pdfrwt beam="1">  1        2 0.30490509E+00 0.45279324E+04</pdfrwt>
<pdfrwt beam="2">  1       -2 0.39787668E+00 0.45279324E+04</pdfrwt>
<totfact> 0.39622957E-02</totfact>
</mgrwt>
</event>
<event>
13    1  0.1118844E-007  0.5309132E+04  0.7818608E-02  0.7782513E-01
          1   -1    0    0  501    0  0.00000000000E+00  0.00000000000E+00  0.26806692132E+04  0.26806692132E+04  0.00000000000E+00 0. -1.
         -1   -1    0    0    0  501 -0.00000000000E+00 -0.00000000000E+00 -0.26287168464E+04  0.26287168464E+04  0.00000000000E+00 0.  1.
    9900016    2    1    2    0    0 -0.20959303790E+02  0.10012257609E+04  0.11335597377E+04  0.26630510588E+04  0.21918008455E+04 0.  0.
         23    2    3    3    0    0 -0.27996855456E+03  0.22586764792E+03 -0.62329152510E+03  0.72532240006E+03  0.90563087597E+02 0.  0.
    9900016    2    1    2    0    0  0.20959303790E+02 -0.10012257609E+04 -0.10816073709E+04  0.26463350008E+04  0.21977993801E+04 0.  0.
        -24    2    5    5    0    0  0.98639568647E+02 -0.33567078915E+03  0.14807879881E+03  0.38831279101E+03  0.80342079984E+02 0.  0.
        -15    1    5    5    0    0  0.82610690295E+03 -0.30161939076E+03 -0.80145820454E+03  0.11898580275E+04  0.00000000000E+00 0.  1.
        -15    1    4    4    0    0 -0.20655244191E+03  0.11508577908E+03 -0.43052211261E+03  0.49118014745E+03  0.00000000000E+00 0.  1.
         15    1    6    6    0    0  0.11041657164E+03 -0.30410760683E+03  0.12223701878E+03  0.34585422448E+03  0.00000000000E+00 0. -1.
         15    1    4    4    0    0 -0.73416112650E+02  0.11078186884E+03 -0.19276941250E+03  0.23414225260E+03  0.00000000000E+00 0. -1.
        -16    1    6    6    0    0 -0.11777002994E+02 -0.31563182313E+02  0.25841780023E+02  0.42458566533E+02  0.00000000000E+00 0.  1.
         16    1    3    3    0    0  0.25900925077E+03  0.77535811298E+03  0.17568512628E+04  0.19377286588E+04  0.00000000000E+00 0. -1.
    9900018    1    5    5    0    0 -0.90378716781E+03 -0.36393558099E+03 -0.42822796518E+03  0.10681641823E+04  0.91187600000E+02 0.  0.
<mgrwt>
<rscale>  0 0.53091319E+04</rscale>
<asrwt>0</asrwt>
<pdfrwt beam="1">  1        1 0.41241065E+00 0.53091319E+04</pdfrwt>
<pdfrwt beam="2">  1       -1 0.40441798E+00 0.53091319E+04</pdfrwt>
<totfact> 0.47650200E-03</totfact>
</mgrwt>
</event>
<event>
13    1  0.1118844E-007  0.5240598E+04  0.7818608E-02  0.7792428E-01
          1   -1    0    0  501    0  0.00000000000E+00  0.00000000000E+00  0.26719810333E+04  0.26719810333E+04  0.00000000000E+00 0. -1.
         -1   -1    0    0    0  501 -0.00000000000E+00 -0.00000000000E+00 -0.25696170848E+04  0.25696170848E+04  0.00000000000E+00 0.  1.
    9900016    2    1    2    0    0  0.23370747437E+03 -0.47611783995E+03  0.13827890065E+04  0.26408562676E+04  0.21864832513E+04 0.  0.
         23    2    3    3    0    0 -0.10755650337E+03  0.28041344899E+03 -0.49585446545E+03  0.58705442993E+03  0.92526477265E+02 0.  0.
    9900016    2    1    2    0    0 -0.23370747437E+03  0.47611783995E+03 -0.12804250579E+04  0.26007418505E+04  0.22006959042E+04 0.  0.
        -24    2    5    5    0    0 -0.82651621772E+03 -0.20136172955E+03 -0.48171504505E+02  0.85576193504E+03  0.79576323920E+02 0.  0.
        -15    1    5    5    0    0  0.72184394615E+02  0.34977268485E+02  0.12765479564E+03  0.15076386499E+03  0.00000000000E+00 0.  1.
        -15    1    4    4    0    0 -0.10836645596E+03  0.20367361646E+03 -0.41974426350E+03  0.47896918226E+03  0.00000000000E+00 0.  1.
         15    1    6    6    0    0 -0.23431752959E+03 -0.94427892504E+02 -0.14619704703E+02  0.25305151120E+03  0.00000000000E+00 0. -1.
         15    1    4    4    0    0  0.80995259446E+00  0.76739832539E+02 -0.76110201955E+02  0.10808524767E+03  0.00000000000E+00 0. -1.
        -16    1    6    6    0    0 -0.59219868813E+03 -0.10693383704E+03 -0.33551799803E+02  0.60271042383E+03  0.00000000000E+00 0.  1.
         16    1    3    3    0    0  0.34126397774E+03 -0.75653128894E+03  0.18786434719E+04  0.20538018376E+04  0.00000000000E+00 0. -1.
    9900018    1    5    5    0    0  0.52062434874E+03  0.64250230101E+03 -0.13599083491E+04  0.15942160505E+04  0.91187600000E+02 0.  0.
<mgrwt>
<rscale>  0 0.52405985E+04</rscale>
<asrwt>0</asrwt>
<pdfrwt beam="1">  1        1 0.41107401E+00 0.52405985E+04</pdfrwt>
<pdfrwt beam="2">  1       -1 0.39532570E+00 0.52405985E+04</pdfrwt>
<totfact> 0.56052296E-03</totfact>
</mgrwt>
</event>
<event>
13    1  0.1118844E-007  0.4868704E+04  0.7818608E-02  0.7849086E-01
         -1   -1    0    0    0  501 -0.00000000000E+00  0.00000000000E+00  0.23171755574E+04  0.23171755574E+04  0.00000000000E+00 0.  1.
          1   -1    0    0  501    0  0.00000000000E+00 -0.00000000000E+00 -0.25574537092E+04  0.25574537092E+04  0.00000000000E+00 0. -1.
    9900016    2    1    2    0    0  0.49565126062E+03 -0.14260185970E+03  0.76559597929E+03  0.23997718790E+04  0.22151213071E+04 0.  0.
         23    2    3    3    0    0 -0.12100672617E+03 -0.27030594765E+03 -0.72099437878E+03  0.78529787811E+03  0.95665720168E+02 0.  0.
    9900016    2    1    2    0    0 -0.49565126062E+03  0.14260185970E+03 -0.10058741311E+04  0.24748573877E+04  0.22016200533E+04 0.  0.
         24    2    5    5    0    0 -0.50605810151E+03  0.98835720221E+03 -0.16150528605E+03  0.11249858264E+04  0.81020928540E+02 0.  0.
        -15    1    6    6    0    0 -0.17578555839E+03  0.29600730056E+03 -0.19173871438E+02  0.34480214887E+03  0.00000000000E+00 0.  1.
        -15    1    4    4    0    0 -0.81166735452E+02 -0.80838362842E+02 -0.21672554355E+03  0.24513841208E+03  0.00000000000E+00 0.  1.
         15    1    5    5    0    0  0.26583175400E+03 -0.69116939765E+03 -0.57522295376E+03  0.93769030293E+03  0.00000000000E+00 0. -1.
         15    1    4    4    0    0 -0.39839990714E+02 -0.18946758481E+03 -0.50426883523E+03  0.54015946603E+03  0.00000000000E+00 0. -1.
        -16    1    3    3    0    0  0.61665798678E+03  0.12770408795E+03  0.14865903581E+04  0.16144740009E+04  0.00000000000E+00 0.  1.
         16    1    6    6    0    0 -0.33027254313E+03  0.69234990165E+03 -0.14233141461E+03  0.78018367750E+03  0.00000000000E+00 0. -1.
    9900018    1    5    5    0    0 -0.25542491310E+03 -0.15458594486E+03 -0.26914589128E+03  0.41218125839E+03  0.91187600000E+02 0.  0.
<mgrwt>
<rscale>  0 0.48687038E+04</rscale>
<asrwt>0</asrwt>
<pdfrwt beam="1">  1        1 0.39345442E+00 0.48687038E+04</pdfrwt>
<pdfrwt beam="2">  1       -1 0.35648855E+00 0.48687038E+04</pdfrwt>
<totfact> 0.12682999E-02</totfact>
</mgrwt>
</event>
<event>
13    1  0.1118844E-007  0.6190433E+04  0.7818608E-02  0.7667229E-01
         -2   -1    0    0    0  501 -0.00000000000E+00  0.00000000000E+00  0.38290168348E+04  0.38290168348E+04  0.00000000000E+00 0.  1.
          2   -1    0    0  501    0  0.00000000000E+00 -0.00000000000E+00 -0.25020435053E+04  0.25020435053E+04  0.00000000000E+00 0. -1.
    9900016    2    1    2    0    0  0.35548895194E+03  0.14400236714E+04 -0.97089375628E+03  0.28206200931E+04  0.21939057533E+04 0.  0.
         23    2    3    3    0    0 -0.34019700769E+03 -0.18117661572E+03  0.41705772189E+03  0.57591997256E+03  0.95852497514E+02 0.  0.
    9900016    2    1    2    0    0 -0.35548895194E+03 -0.14400236714E+04  0.22978670858E+04  0.35104402470E+04  0.22006719460E+04 0.  0.
        -24    2    5    5    0    0  0.19279948458E+03  0.23181768114E+03 -0.13293115990E+03  0.33930614258E+03  0.80912833192E+02 0.  0.
        -15    1    5    5    0    0  0.14785428283E+03 -0.88651182598E+03  0.15771637199E+04  0.18152711935E+04  0.00000000000E+00 0.  1.
        -15    1    4    4    0    0 -0.14274142731E+03 -0.24334486887E+02  0.16110646391E+03  0.21661619292E+03  0.00000000000E+00 0.  1.
         15    1    6    6    0    0  0.53763031243E+02  0.12344291382E+03 -0.42571058368E+02  0.14121229235E+03  0.00000000000E+00 0. -1.
         15    1    4    4    0    0 -0.19745558039E+03 -0.15684212884E+03  0.25595125798E+03  0.35930377964E+03  0.00000000000E+00 0. -1.
        -16    1    6    6    0    0  0.13903645333E+03  0.10837476732E+03 -0.90360101532E+02  0.19809385022E+03  0.00000000000E+00 0.  1.
         16    1    3    3    0    0  0.69568595963E+03  0.16212002872E+04 -0.13879514782E+04  0.22447001206E+04  0.00000000000E+00 0. -1.
    9900018    1    5    5    0    0 -0.69614271934E+03 -0.78532952661E+03  0.85363452588E+03  0.13558629109E+04  0.91187600000E+02 0.  0.
<mgrwt>
<rscale>  0 0.61904335E+04</rscale>
<asrwt>0</asrwt>
<pdfrwt beam="1">  1        2 0.38492977E+00 0.61904335E+04</pdfrwt>
<pdfrwt beam="2">  1       -2 0.58907951E+00 0.61904335E+04</pdfrwt>
<totfact> 0.13236082E-03</totfact>
</mgrwt>
</event>
<event>
13    1  0.1163323E-007  0.5647446E+04  0.7818608E-02  0.7735720E-01
          1   -1    0    0  501    0  0.00000000000E+00  0.00000000000E+00  0.38355325237E+04  0.38355325237E+04  0.00000000000E+00 0. -1.
         -1   -1    0    0    0  501 -0.00000000000E+00 -0.00000000000E+00 -0.20788276972E+04  0.20788276972E+04  0.00000000000E+00 0.  1.
    9900016    2    1    2    0    0  0.66813432921E+03 -0.15408746875E+04  0.30330686841E+03  0.27843454076E+04  0.21999740925E+04 0.  0.
         23    2    3    3    0    0 -0.29451480973E+03 -0.19944292832E+03  0.94432496410E+03  0.10131772258E+04  0.90895534396E+02 0.  0.
    9900016    2    1    2    0    0 -0.66813432921E+03  0.15408746875E+04  0.14533979581E+04  0.31300148133E+04  0.22054316634E+04 0.  0.
         24    2    5    5    0    0 -0.21176758217E+03 -0.28754570948E+03 -0.18851572043E+03  0.41333113659E+03  0.88183942587E+02 0.  0.
        -15    1    6    6    0    0 -0.12084471488E+03 -0.21425010952E+03 -0.94892179685E+02  0.26364954069E+03  0.00000000000E+00 0.  1.
        -15    1    4    4    0    0 -0.22159235650E+03 -0.98402658384E+02  0.61530026709E+03  0.66134761988E+03  0.00000000000E+00 0.  1.
         15    1    5    5    0    0  0.13631265856E+03  0.42561923381E+03  0.93281237021E+03  0.10343460693E+04  0.00000000000E+00 0. -1.
         15    1    4    4    0    0 -0.72922453224E+02 -0.10104026994E+03  0.32902469701E+03  0.35182960588E+03  0.00000000000E+00 0. -1.
        -16    1    3    3    0    0  0.96264913894E+03 -0.13414317592E+04 -0.64101809569E+03  0.17711681818E+04  0.00000000000E+00 0.  1.
         16    1    6    6    0    0 -0.90922867289E+02 -0.73295599968E+02 -0.93623540742E+02  0.14968159590E+03  0.00000000000E+00 0. -1.
    9900018    1    5    5    0    0 -0.59267940561E+03  0.14028011632E+04  0.70910130833E+03  0.16823376074E+04  0.91187600000E+02 0.  0.
<mgrwt>
<rscale>  0 0.56474459E+04</rscale>
<asrwt>0</asrwt>
<pdfrwt beam="1">  1        1 0.59008193E+00 0.56474459E+04</pdfrwt>
<pdfrwt beam="2">  1       -1 0.31981965E+00 0.56474459E+04</pdfrwt>
<totfact> 0.22346394E-03</totfact>
</mgrwt>
</event>
<event>
13    1  0.1118844E-007  0.7117817E+04  0.7818608E-02  0.7565406E-01
         -2   -1    0    0    0  501 -0.00000000000E+00  0.00000000000E+00  0.35964408006E+04  0.35964408006E+04  0.00000000000E+00 0.  1.
          2   -1    0    0  501    0  0.00000000000E+00 -0.00000000000E+00 -0.35217676137E+04  0.35217676137E+04  0.00000000000E+00 0. -1.
    9900016    2    1    2    0    0  0.15166263780E+04 -0.23539273638E+04  0.76135181104E+02  0.35615632070E+04  0.21995013770E+04 0.  0.
         23    2    3    3    0    0  0.30355888302E+03  0.34639856951E+03  0.35388934671E+03  0.58827541906E+03  0.93221963803E+02 0.  0.
    9900016    2    1    2    0    0 -0.15166263780E+04  0.23539273638E+04 -0.14619941329E+01  0.35566452074E+04  0.21928505169E+04 0.  0.
        -24    2    5    5    0    0 -0.11377807223E+04  0.22731145575E+02  0.27257511849E+03  0.11733792432E+04  0.86371153445E+02 0.  0.
        -15    1    4    4    0    0  0.14993534392E+03  0.10434648428E+03  0.12373197193E+03  0.22063181324E+03  0.00000000000E+00 0. -1.
        -15    1    5    5    0    0 -0.13287434632E+03  0.79937996642E+03 -0.37148477403E+02  0.81119907051E+03  0.00000000000E+00 0.  1.
         15    1    4    4    0    0  0.15362353910E+03  0.24205208524E+03  0.23015737478E+03  0.36764360582E+03  0.00000000000E+00 0.  1.
         15    1    6    6    0    0 -0.45459223428E+03 -0.32680493490E+02  0.10191865340E+03  0.46702197597E+03  0.00000000000E+00 0. -1.
        -16    1    6    6    0    0 -0.68318848801E+03  0.55411639065E+02  0.17065646509E+03  0.70635726723E+03  0.00000000000E+00 0.  1.
         16    1    3    3    0    0  0.12130674949E+04 -0.27003259333E+04 -0.27775416560E+03  0.29732877879E+04  0.00000000000E+00 0. -1.
    9900018    1    5    5    0    0 -0.24597130935E+03  0.15318162518E+04 -0.23688863522E+03  0.15720668936E+04  0.91187600000E+02 0.  0.
<mgrwt>
<rscale>  0 0.71178167E+04</rscale>
<asrwt>0</asrwt>
<pdfrwt beam="1">  1        2 0.54181040E+00 0.71178167E+04</pdfrwt>
<pdfrwt beam="2">  1       -2 0.55329859E+00 0.71178167E+04</pdfrwt>
<totfact> 0.40776583E-04</totfact>
</mgrwt>
</event>
<event>
13    1  0.1118844E-007  0.5997826E+04  0.7818608E-02  0.7690671E-01
         -2   -1    0    0    0  501 -0.00000000000E+00  0.00000000000E+00  0.22614427772E+04  0.22614427772E+04  0.00000000000E+00 0.  1.
          2   -1    0    0  501    0  0.00000000000E+00 -0.00000000000E+00 -0.39768768129E+04  0.39768768129E+04  0.00000000000E+00 0. -1.
    9900016    2    1    2    0    0 -0.62777294264E+02  0.18850955170E+04 -0.16638462911E+04  0.33416532940E+04  0.22001673027E+04 0.  0.
         23    2    3    3    0    0 -0.80571751044E+03 -0.56009441601E+02 -0.57215092777E+03  0.99396349519E+03  0.91043843545E+02 0.  0.
    9900016    2    1    2    0    0  0.62777294264E+02 -0.18850955170E+04 -0.51587744630E+02  0.28966662961E+04  0.21978371730E+04 0.  0.
        -24    2    5    5    0    0 -0.17739963568E+03  0.19702052992E+03 -0.59573473005E+03  0.65682579677E+03  0.78946429754E+02 0.  0.
        -15    1    4    4    0    0 -0.78946714524E+03 -0.60371859549E+02 -0.57261053079E+03  0.97713149310E+03  0.00000000000E+00 0. -1.
        -15    1    5    5    0    0 -0.90914564339E+02 -0.12923784762E+04  0.45895291516E+03  0.13744618446E+04  0.00000000000E+00 0.  1.
         15    1    6    6    0    0 -0.91126802889E+02  0.69688854102E+02 -0.33509658487E+03  0.35418971157E+03  0.00000000000E+00 0. -1.
         15    1    4    4    0    0 -0.16250365202E+02  0.43624179479E+01  0.45960301684E+00  0.16832002094E+02  0.00000000000E+00 0.  1.
        -16    1    6    6    0    0 -0.86272832792E+02  0.12733167582E+03 -0.26063814518E+03  0.30263608520E+03  0.00000000000E+00 0.  1.
         16    1    3    3    0    0  0.74294021618E+03  0.19411049586E+04 -0.10916953633E+04  0.23476897988E+04  0.00000000000E+00 0. -1.
    9900018    1    5    5    0    0  0.33109149428E+03 -0.78973757071E+03  0.85194070255E+02  0.86537865480E+03  0.91187600000E+02 0.  0.
<mgrwt>
<rscale>  0 0.59978261E+04</rscale>
<asrwt>0</asrwt>
<pdfrwt beam="1">  1        2 0.61182720E+00 0.59978261E+04</pdfrwt>
<pdfrwt beam="2">  1       -2 0.34791427E+00 0.59978261E+04</pdfrwt>
<totfact> 0.38360789E-03</totfact>
</mgrwt>
</event>
<event>
13    1  0.1118844E-007  0.5037298E+04  0.7818608E-02  0.7822779E-01
         -2   -1    0    0    0  501 -0.00000000000E+00  0.00000000000E+00  0.24129184736E+04  0.24129184736E+04  0.00000000000E+00 0.  1.
          2   -1    0    0  501    0  0.00000000000E+00 -0.00000000000E+00 -0.26290127929E+04  0.26290127929E+04  0.00000000000E+00 0. -1.
    9900016    2    1    2    0    0 -0.10466925548E+04 -0.37509110581E+03  0.41268964486E+03  0.24909638966E+04  0.21905090161E+04 0.  0.
         23    2    3    3    0    0  0.93184880897E+02  0.43455013282E+03 -0.60894711105E+03  0.75932271996E+03  0.90758851033E+02 0.  0.
    9900016    2    1    2    0    0  0.10466925548E+04  0.37509110581E+03 -0.62878396411E+03  0.25509673698E+04  0.22081228694E+04 0.  0.
        -24    2    5    5    0    0 -0.47908334894E+03 -0.45643647216E+03 -0.25487814369E+03  0.71361372019E+03  0.80165860313E+02 0.  0.
        -15    1    4    4    0    0  0.48081432870E+02  0.37519022979E+03 -0.49132392219E+03  0.62006348807E+03  0.00000000000E+00 0.  1.
        -15    1    5    5    0    0  0.13418409772E+04  0.77184270071E+03 -0.19821884759E+03  0.15606309859E+04  0.00000000000E+00 0.  1.
         15    1    6    6    0    0 -0.14779001982E+03 -0.12988027442E+03 -0.38118295403E+02  0.20040903194E+03  0.00000000000E+00 0. -1.
         15    1    4    4    0    0  0.45103448027E+02  0.59359903021E+02 -0.11762318886E+03  0.13925923190E+03  0.00000000000E+00 0. -1.
        -16    1    6    6    0    0 -0.33129332912E+03 -0.32655619774E+03 -0.21675984829E+03  0.51320468824E+03  0.00000000000E+00 0.  1.
         16    1    3    3    0    0 -0.11398774357E+04 -0.80964123863E+03  0.10216367559E+04  0.17316411767E+04  0.00000000000E+00 0. -1.
    9900018    1    5    5    0    0  0.18393492657E+03  0.59684877255E+02 -0.17568697282E+03  0.27672266369E+03  0.91187600000E+02 0.  0.
<mgrwt>
<rscale>  0 0.50372983E+04</rscale>
<asrwt>0</asrwt>
<pdfrwt beam="1">  1        2 0.40446350E+00 0.50372983E+04</pdfrwt>
<pdfrwt beam="2">  1       -2 0.37121823E+00 0.50372983E+04</pdfrwt>
<totfact> 0.24223072E-02</totfact>
</mgrwt>
</event>
<event>
13    1  0.1118844E-007  0.4790722E+04  0.7818608E-02  0.7861627E-01
         -2   -1    0    0    0  501 -0.00000000000E+00  0.00000000000E+00  0.17523367449E+04  0.17523367449E+04  0.00000000000E+00 0.  1.
          2   -1    0    0  501    0  0.00000000000E+00 -0.00000000000E+00 -0.32743442321E+04  0.32743442321E+04  0.00000000000E+00 0. -1.
    9900016    2    1    2    0    0 -0.24449462123E+03 -0.15689959047E+03  0.17004338863E+03  0.22226305713E+04  0.21969926721E+04 0.  0.
         23    2    3    3    0    0 -0.89665592929E+01 -0.46685587313E+03 -0.93620030547E+03  0.10498895616E+04  0.88103769283E+02 0.  0.
    9900016    2    1    2    0    0  0.24449462123E+03  0.15689959047E+03 -0.16920508759E+04  0.28040504057E+04  0.22170402363E+04 0.  0.
         24    2    5    5    0    0  0.44066292514E+03  0.17990147864E+03  0.14285574935E+03  0.50322267538E+03  0.79227143616E+02 0.  0.
        -15    1    4    4    0    0 -0.24051221822E+02 -0.14853957188E+03 -0.22652268863E+03  0.27194667520E+03  0.00000000000E+00 0. -1.
        -15    1    6    6    0    0  0.25733613669E+03  0.14600931683E+03  0.94914855154E+02  0.31072405375E+03  0.00000000000E+00 0.  1.
         15    1    5    5    0    0 -0.60100470636E+03  0.36564690061E+03 -0.54081695849E+03  0.88734846345E+03  0.00000000000E+00 0. -1.
         15    1    4    4    0    0  0.15084662529E+02 -0.31831630125E+03 -0.70967761684E+03  0.77794288642E+03  0.00000000000E+00 0.  1.
        -16    1    3    3    0    0 -0.23552806194E+03  0.30995628266E+03  0.11062436941E+04  0.11727410097E+04  0.00000000000E+00 0.  1.
         16    1    6    6    0    0  0.18332678845E+03  0.33892161813E+02  0.47940894198E+02  0.19249862163E+03  0.00000000000E+00 0. -1.
    9900018    1    5    5    0    0  0.40483640246E+03 -0.38864878877E+03 -0.12940896667E+04  0.14134792668E+04  0.91187600000E+02 0.  0.
<mgrwt>
<rscale>  0 0.47907217E+04</rscale>
<asrwt>0</asrwt>
<pdfrwt beam="1">  1        2 0.50374526E+00 0.47907217E+04</pdfrwt>
<pdfrwt beam="2">  1       -2 0.26959027E+00 0.47907217E+04</pdfrwt>
<totfact> 0.41754164E-02</totfact>
</mgrwt>
</event>
<event>
13    1  0.1118844E-007  0.5348168E+04  0.7818608E-02  0.7776934E-01
         -2   -1    0    0    0  501 -0.00000000000E+00  0.00000000000E+00  0.26915175509E+04  0.26915175509E+04  0.00000000000E+00 0.  1.
          2   -1    0    0  501    0  0.00000000000E+00 -0.00000000000E+00 -0.26567637545E+04  0.26567637545E+04  0.00000000000E+00 0. -1.
    9900016    2    1    2    0    0  0.14042913864E+04 -0.22651039902E+03  0.55920133104E+03  0.26828844386E+04  0.22049538597E+04 0.  0.
         23    2    3    3    0    0 -0.21003335662E+03 -0.35429383399E+03 -0.56964629894E+03  0.70888597007E+03  0.91565719456E+02 0.  0.
    9900016    2    1    2    0    0 -0.14042913864E+04  0.22651039902E+03 -0.52444753463E+03  0.26653968668E+04  0.21922486133E+04 0.  0.
         24    2    5    5    0    0 -0.30860937575E+03  0.13106898655E+02 -0.10208898412E+04  0.10701469400E+04  0.87102627549E+02 0.  0.
        -15    1    4    4    0    0 -0.18829897146E+03 -0.24502702448E+03 -0.39139048317E+03  0.49867951201E+03  0.00000000000E+00 0.  1.
        -15    1    6    6    0    0 -0.12902948728E+03  0.43467498800E+02 -0.50585108827E+03  0.52385432665E+03  0.00000000000E+00 0.  1.
         15    1    4    4    0    0 -0.21734385157E+02 -0.10926680951E+03 -0.17825581576E+03  0.21020645806E+03  0.00000000000E+00 0. -1.
         15    1    5    5    0    0 -0.36150666330E+03  0.55571081297E+03  0.40029887719E+03  0.77442931655E+03  0.00000000000E+00 0. -1.
        -16    1    3    3    0    0  0.16143247430E+04  0.12778343497E+03  0.11288476300E+04  0.19739984685E+04  0.00000000000E+00 0.  1.
         16    1    6    6    0    0 -0.17957988847E+03 -0.30360600145E+02 -0.51503875293E+03  0.54629261336E+03  0.00000000000E+00 0. -1.
    9900018    1    5    5    0    0 -0.73417534732E+03 -0.34230731260E+03  0.96143429397E+02  0.82082061029E+03  0.91187600000E+02 0.  0.
<mgrwt>
<rscale>  0 0.53481684E+04</rscale>
<asrwt>0</asrwt>
<pdfrwt beam="1">  1        2 0.40873289E+00 0.53481684E+04</pdfrwt>
<pdfrwt beam="2">  1       -2 0.41407962E+00 0.53481684E+04</pdfrwt>
<totfact> 0.11987519E-02</totfact>
</mgrwt>
</event>
<event>
13    1  0.1118844E-007  0.5290468E+04  0.7818608E-02  0.7785198E-01
         -2   -1    0    0    0  501 -0.00000000000E+00  0.00000000000E+00  0.21858903782E+04  0.21858903782E+04  0.00000000000E+00 0.  1.
          2   -1    0    0  501    0  0.00000000000E+00 -0.00000000000E+00 -0.32011038286E+04  0.32011038286E+04  0.00000000000E+00 0. -1.
    9900016    2    1    2    0    0  0.53132724978E+02 -0.31317943285E+03 -0.19317017037E+04  0.29825695574E+04  0.22501878253E+04 0.  0.
         23    2    3    3    0    0 -0.22877569548E+03  0.39429016602E+03  0.34720533755E+03  0.57977891041E+03  0.88255224646E+02 0.  0.
    9900016    2    1    2    0    0 -0.53132724978E+02  0.31317943285E+03  0.91648825330E+03  0.24044246493E+04  0.22000915282E+04 0.  0.
        -24    2    5    5    0    0  0.19666518043E+02 -0.35866083802E+03 -0.24389296708E+03  0.44162705721E+03  0.80785577948E+02 0.  0.
        -15    1    5    5    0    0  0.30676049408E+03  0.35178148622E+03 -0.20298898735E+03  0.50897617209E+03  0.00000000000E+00 0.  1.
        -15    1    4    4    0    0 -0.21990997734E+03  0.38241830606E+03  0.30842911936E+03  0.53826822367E+03  0.00000000000E+00 0.  1.
         15    1    6    6    0    0  0.47178551082E+02 -0.14242727199E+03 -0.93105773599E+02  0.17657867529E+03  0.00000000000E+00 0. -1.
         15    1    4    4    0    0 -0.88657181408E+01  0.11871859954E+02  0.38776218182E+02  0.41510686737E+02  0.00000000000E+00 0. -1.
        -16    1    6    6    0    0 -0.27512033039E+02 -0.21623356602E+03 -0.15078719349E+03  0.26504838191E+03  0.00000000000E+00 0.  1.
         16    1    3    3    0    0  0.28190842046E+03 -0.70746959886E+03 -0.22789070412E+04  0.24027906470E+04  0.00000000000E+00 0. -1.
    9900018    1    5    5    0    0 -0.37955973710E+03  0.32005878464E+03  0.13633702077E+04  0.14538214200E+04  0.91187600000E+02 0.  0.
<mgrwt>
<rscale>  0 0.52904677E+04</rscale>
<asrwt>0</asrwt>
<pdfrwt beam="1">  1        2 0.49247751E+00 0.52904677E+04</pdfrwt>
<pdfrwt beam="2">  1       -2 0.33629083E+00 0.52904677E+04</pdfrwt>
<totfact> 0.17454543E-02</totfact>
</mgrwt>
</event>
<event>
13    1  0.1118844E-007  0.6269271E+04  0.7818608E-02  0.7657883E-01
          2   -1    0    0  501    0  0.00000000000E+00  0.00000000000E+00  0.32452658228E+04  0.32452658228E+04  0.00000000000E+00 0.  1.
         -2   -1    0    0    0  501 -0.00000000000E+00 -0.00000000000E+00 -0.30277769973E+04  0.30277769973E+04  0.00000000000E+00 0. -1.
    9900016    2    1    2    0    0 -0.11757803896E+04 -0.16691785316E+04 -0.81583455851E+03  0.31008576616E+04  0.21865762542E+04 0.  0.
         23    2    3    3    0    0 -0.53185694892E+02  0.13433919205E+03  0.54944681786E+03  0.57560752253E+03  0.92501230714E+02 0.  0.
    9900016    2    1    2    0    0  0.11757803896E+04  0.16691785316E+04  0.10333233841E+04  0.31721851585E+04  0.21969034956E+04 0.  0.
        -24    2    5    5    0    0  0.33780179882E+03 -0.45145121604E+03  0.15141710656E+03  0.58889197943E+03  0.77125660659E+02 0.  0.
        -15    1    4    4    0    0  0.20003817160E+02  0.72705633982E+02  0.26341523848E+03  0.27399607621E+03  0.00000000000E+00 0. -1.
        -15    1    5    5    0    0  0.69492501909E+03  0.11484269901E+04  0.14193614756E+03  0.13497967268E+04  0.00000000000E+00 0.  1.
         15    1    4    4    0    0 -0.73189512052E+02  0.61633558066E+02  0.28603157937E+03  0.30161144632E+03  0.00000000000E+00 0.  1.
         15    1    6    6    0    0  0.18445496073E+03 -0.26510485178E+03  0.48705056765E+02  0.32661352932E+03  0.00000000000E+00 0. -1.
        -16    1    6    6    0    0  0.15334683809E+03 -0.18634636426E+03  0.10271204979E+03  0.26227845012E+03  0.00000000000E+00 0.  1.
         16    1    3    3    0    0 -0.11225946947E+04 -0.18035177236E+04 -0.13652813764E+04  0.25252501390E+04  0.00000000000E+00 0. -1.
    9900018    1    5    5    0    0  0.14305357168E+03  0.97220275752E+03  0.73997012998E+03  0.12334964523E+04  0.91187600000E+02 0.  0.
<mgrwt>
<rscale>  0 0.62692715E+04</rscale>
<asrwt>0</asrwt>
<pdfrwt beam="1">  1        2 0.49927167E+00 0.62692715E+04</pdfrwt>
<pdfrwt beam="2">  1       -2 0.46581185E+00 0.62692715E+04</pdfrwt>
<totfact> 0.21937533E-03</totfact>
</mgrwt>
</event>
<event>
13    1  0.1118844E-007  0.6753238E+04  0.7818608E-02  0.7603433E-01
          2   -1    0    0  501    0  0.00000000000E+00  0.00000000000E+00  0.40490566781E+04  0.40490566781E+04  0.00000000000E+00 0. -1.
         -2   -1    0    0    0  501 -0.00000000000E+00 -0.00000000000E+00 -0.28158551829E+04  0.28158551829E+04  0.00000000000E+00 0.  1.
    9900016    2    1    2    0    0 -0.12536839033E+04  0.83177382593E+03  0.27284331456E+04  0.38150030848E+04  0.22014381845E+04 0.  0.
         23    2    3    3    0    0  0.97291024734E+02  0.23946006375E+03 -0.32412799613E+03  0.42470835233E+03  0.92258121820E+02 0.  0.
    9900016    2    1    2    0    0  0.12536839033E+04 -0.83177382593E+03 -0.14952316504E+04  0.30499087762E+04  0.21914960251E+04 0.  0.
        -24    2    5    5    0    0 -0.46818518592E+03  0.41909902238E+01 -0.73359093664E+03  0.87412923272E+03  0.82044624871E+02 0.  0.
        -15    1    4    4    0    0 -0.61223889406E+01  0.83216908262E+02 -0.69631992888E+02  0.10867912357E+03  0.00000000000E+00 0.  1.
        -15    1    5    5    0    0  0.52537912308E+03 -0.52861937692E+03 -0.49429034250E+02  0.74693031673E+03  0.00000000000E+00 0.  1.
         15    1    4    4    0    0  0.10341341367E+03  0.15624315549E+03 -0.25449600324E+03  0.31602922876E+03  0.00000000000E+00 0. -1.
         15    1    6    6    0    0 -0.30497967956E+03 -0.12524418009E+02 -0.40802002403E+03  0.50955844218E+03  0.00000000000E+00 0. -1.
        -16    1    6    6    0    0 -0.16320550636E+03  0.16715408233E+02 -0.32557091261E+03  0.36457079054E+03  0.00000000000E+00 0.  1.
         16    1    3    3    0    0 -0.13509749280E+04  0.59231376218E+03  0.30525611417E+04  0.33902947324E+04  0.00000000000E+00 0. -1.
    9900018    1    5    5    0    0  0.11964899661E+04 -0.30734543924E+03 -0.71221167955E+03  0.14288492268E+04  0.91187600000E+02 0.  0.
<mgrwt>
<rscale>  0 0.67532384E+04</rscale>
<asrwt>0</asrwt>
<pdfrwt beam="1">  1        2 0.62293180E+00 0.67532384E+04</pdfrwt>
<pdfrwt beam="2">  1       -2 0.43320849E+00 0.67532384E+04</pdfrwt>
<totfact> 0.88660255E-04</totfact>
</mgrwt>
</event>
<event>
13    1  0.1118844E-007  0.5520454E+04  0.7818608E-02  0.7752881E-01
          2   -1    0    0  501    0  0.00000000000E+00  0.00000000000E+00  0.33732092344E+04  0.33732092344E+04  0.00000000000E+00 0. -1.
         -2   -1    0    0    0  501 -0.00000000000E+00 -0.00000000000E+00 -0.22586364971E+04  0.22586364971E+04  0.00000000000E+00 0.  1.
    9900016    2    1    2    0    0  0.42818370752E+03  0.83006679653E+03  0.19616050664E+04  0.30916947756E+04  0.21996204161E+04 0.  0.
         23    2    3    3    0    0  0.22237703780E+03  0.20494533423E+02 -0.46559710856E+03  0.52477560416E+03  0.93472960695E+02 0.  0.
    9900016    2    1    2    0    0 -0.42818370752E+03 -0.83006679653E+03 -0.84703232904E+03  0.25401509560E+04  0.22051192573E+04 0.  0.
        -24    2    5    5    0    0 -0.86239120144E+03  0.49821194432E+01 -0.39141966128E+03  0.95034290228E+03  0.78732933654E+02 0.  0.
        -15    1    4    4    0    0  0.54839710716E+02  0.43115988197E+02 -0.17783486015E+03  0.19102779849E+03  0.00000000000E+00 0. -1.
        -15    1    5    5    0    0  0.52008507659E+03  0.98248840062E+02  0.30326031914E+02  0.53015185530E+03  0.00000000000E+00 0.  1.
         15    1    6    6    0    0 -0.76895484917E+03 -0.17153885039E+02 -0.36072002165E+03  0.84953207700E+03  0.00000000000E+00 0. -1.
         15    1    4    4    0    0  0.16753732708E+03 -0.22621454773E+02 -0.28776224841E+03  0.33374780567E+03  0.00000000000E+00 0.  1.
        -16    1    6    6    0    0 -0.93436352268E+02  0.22136004482E+02 -0.30699639626E+02  0.10081082528E+03  0.00000000000E+00 0.  1.
         16    1    3    3    0    0  0.20580666973E+03  0.80957226311E+03  0.24272021749E+04  0.25669191714E+04  0.00000000000E+00 0. -1.
    9900018    1    5    5    0    0 -0.85877582673E+02 -0.93329775603E+03 -0.48593869967E+03  0.10596561984E+04  0.91187600000E+02 0.  0.
<mgrwt>
<rscale>  0 0.55204541E+04</rscale>
<asrwt>0</asrwt>
<pdfrwt beam="1">  1        2 0.51895526E+00 0.55204541E+04</pdfrwt>
<pdfrwt beam="2">  1       -2 0.34748254E+00 0.55204541E+04</pdfrwt>
<totfact> 0.11194598E-02</totfact>
</mgrwt>
</event>
<event>
13    1  0.1118844E-007  0.6023490E+04  0.7818608E-02  0.7687496E-01
         -2   -1    0    0    0  501 -0.00000000000E+00  0.00000000000E+00  0.35992648599E+04  0.35992648599E+04  0.00000000000E+00 0. -1.
          2   -1    0    0  501    0  0.00000000000E+00 -0.00000000000E+00 -0.25201277551E+04  0.25201277551E+04  0.00000000000E+00 0.  1.
    9900016    2    1    2    0    0 -0.12447120217E+04 -0.15385176633E+04 -0.25027927624E+02  0.29573128241E+04  0.21974367169E+04 0.  0.
         23    2    3    3    0    0  0.39143996823E+03  0.66491227105E+02  0.46054143363E+03  0.61448878516E+03  0.88609948564E+02 0.  0.
    9900016    2    1    2    0    0  0.12447120217E+04  0.15385176633E+04  0.11041650324E+04  0.31620797909E+04  0.22052717674E+04 0.  0.
        -24    2    5    5    0    0 -0.22651423856E+03 -0.27164327017E+03  0.21253030766E+03  0.42010509398E+03  0.78869460563E+02 0.  0.
        -15    1    5    5    0    0  0.77389273854E+03  0.16328142755E+04  0.89554167167E+03  0.20166772957E+04  0.00000000000E+00 0.  1.
        -15    1    4    4    0    0  0.29801555781E+03  0.78282835822E+02  0.38889226257E+03  0.49616395170E+03  0.00000000000E+00 0.  1.
         15    1    6    6    0    0 -0.11216103858E+02 -0.57941793773E+02  0.33365309781E+02  0.67795990649E+02  0.00000000000E+00 0. -1.
         15    1    4    4    0    0  0.93424410422E+02 -0.11791608717E+02  0.71649171052E+02  0.11832483345E+03  0.00000000000E+00 0. -1.
        -16    1    6    6    0    0 -0.21529813470E+03 -0.21370147640E+03  0.17916499788E+03  0.35230910333E+03  0.00000000000E+00 0.  1.
         16    1    3    3    0    0 -0.16361519900E+04 -0.16050088904E+04 -0.48556936125E+03  0.23428240389E+04  0.00000000000E+00 0. -1.
    9900018    1    5    5    0    0  0.69733352176E+03  0.17734665794E+03 -0.39069469529E+01  0.72529740127E+03  0.91187600000E+02 0.  0.
<mgrwt>
<rscale>  0 0.60234898E+04</rscale>
<asrwt>0</asrwt>
<pdfrwt beam="1">  1        2 0.38771197E+00 0.60234898E+04</pdfrwt>
<pdfrwt beam="2">  1       -2 0.55373305E+00 0.60234898E+04</pdfrwt>
<totfact> 0.18954368E-03</totfact>
</mgrwt>
</event>
<event>
13    1  0.1118844E-007  0.4745409E+04  0.7818608E-02  0.7869027E-01
          2   -1    0    0  501    0  0.00000000000E+00  0.00000000000E+00  0.20808806362E+04  0.20808806362E+04  0.00000000000E+00 0. -1.
         -2   -1    0    0    0  501 -0.00000000000E+00 -0.00000000000E+00 -0.27054541489E+04  0.27054541489E+04  0.00000000000E+00 0.  1.
    9900016    2    1    2    0    0 -0.28556046657E+03  0.32253494959E+03  0.47347475844E+03  0.22869516983E+04  0.21955400588E+04 0.  0.
         23    2    3    3    0    0  0.24791922150E+03 -0.17076197786E+03 -0.77857844229E+03  0.83933999149E+03  0.87656357645E+02 0.  0.
    9900016    2    1    2    0    0  0.28556046657E+03 -0.32253494959E+03 -0.10980482712E+04  0.24993830868E+04  0.22035499166E+04 0.  0.
        -24    2    5    5    0    0  0.69237849741E+03  0.23563569504E+03  0.10005500569E+03  0.74241707226E+03  0.79119786186E+02 0.  0.
        -15    1    5    5    0    0 -0.49542947418E+03  0.14820385660E+03 -0.74946746812E+03  0.91055819846E+03  0.00000000000E+00 0.  1.
        -15    1    4    4    0    0  0.74139180723E+02 -0.90692930782E+02 -0.37161609789E+03  0.38964130944E+03  0.00000000000E+00 0. -1.
         15    1    6    6    0    0  0.43746711724E+03  0.15039521080E+03  0.24644847148E+02  0.46325324239E+03  0.00000000000E+00 0. -1.
         15    1    4    4    0    0  0.17378004078E+03 -0.80069047081E+02 -0.40696234440E+03  0.44969868205E+03  0.00000000000E+00 0.  1.
        -16    1    6    6    0    0  0.25491138017E+03  0.85240484233E+02  0.75410158542E+02  0.27916382986E+03  0.00000000000E+00 0.  1.
         16    1    3    3    0    0 -0.53347968807E+03  0.49329692746E+03  0.12520532007E+04  0.14476117068E+04  0.00000000000E+00 0. -1.
    9900018    1    5    5    0    0  0.88611443344E+02 -0.70637450123E+03 -0.44863580874E+03  0.84640781610E+03  0.91187600000E+02 0.  0.
<mgrwt>
<rscale>  0 0.47454092E+04</rscale>
<asrwt>0</asrwt>
<pdfrwt beam="1">  1        2 0.32013548E+00 0.47454092E+04</pdfrwt>
<pdfrwt beam="2">  1       -2 0.41622372E+00 0.47454092E+04</pdfrwt>
<totfact> 0.25998797E-02</totfact>
</mgrwt>
</event>
<event>
13    1  0.1118844E-007  0.4766726E+04  0.7818608E-02  0.7865535E-01
         -2   -1    0    0    0  501 -0.00000000000E+00  0.00000000000E+00  0.19867250829E+04  0.19867250829E+04  0.00000000000E+00 0.  1.
          2   -1    0    0  501    0  0.00000000000E+00 -0.00000000000E+00 -0.28591871971E+04  0.28591871971E+04  0.00000000000E+00 0. -1.
    9900016    2    1    2    0    0 -0.79945481471E+03 -0.12480086595E+03 -0.86772810465E+03  0.25030691171E+04  0.22040189846E+04 0.  0.
         23    2    3    3    0    0  0.17711041145E+03  0.33291253414E+03 -0.12887006913E+04  0.13453130477E+04  0.83179752085E+02 0.  0.
    9900016    2    1    2    0    0  0.79945481471E+03  0.12480086595E+03 -0.47340095403E+01  0.23428431629E+04  0.21986787892E+04 0.  0.
        -24    2    5    5    0    0  0.10799208726E+04  0.50619342851E+03 -0.13259458169E+03  0.12026710959E+04  0.79847127081E+02 0.  0.
        -15    1    5    5    0    0 -0.58431845510E+03  0.62173588484E+02  0.62433779016E+02  0.59092435120E+03  0.00000000000E+00 0.  1.
        -15    1    4    4    0    0  0.12055949744E+03  0.24635015074E+03 -0.79738891325E+03  0.84323903383E+03  0.00000000000E+00 0. -1.
         15    1    6    6    0    0  0.75097463121E+03  0.34869840692E+03 -0.55028998555E+02  0.82980821061E+03  0.00000000000E+00 0. -1.
         15    1    4    4    0    0  0.56550914013E+02  0.86562383401E+02 -0.49131177807E+03  0.50207401383E+03  0.00000000000E+00 0.  1.
        -16    1    6    6    0    0  0.32894624138E+03  0.15749502159E+03 -0.77565583131E+02  0.37286288530E+03  0.00000000000E+00 0.  1.
         16    1    3    3    0    0 -0.97656522616E+03 -0.45771340009E+03  0.42097258668E+03  0.11577560694E+04  0.00000000000E+00 0. -1.
    9900018    1    5    5    0    0  0.30385239722E+03 -0.44356615105E+03  0.65426793129E+02  0.54924771579E+03  0.91187600000E+02 0.  0.
<mgrwt>
<rscale>  0 0.47667259E+04</rscale>
<asrwt>0</asrwt>
<pdfrwt beam="1">  1        2 0.43987495E+00 0.47667259E+04</pdfrwt>
<pdfrwt beam="2">  1       -2 0.30565002E+00 0.47667259E+04</pdfrwt>
<totfact> 0.46309340E-02</totfact>
</mgrwt>
</event>
<event>
13    1  0.1118844E-007  0.7097306E+04  0.7818608E-02  0.7567483E-01
         -2   -1    0    0    0  501 -0.00000000000E+00  0.00000000000E+00  0.25530797321E+04  0.25530797321E+04  0.00000000000E+00 0. -1.
          2   -1    0    0  501    0  0.00000000000E+00 -0.00000000000E+00 -0.49324498658E+04  0.49324498658E+04  0.00000000000E+00 0.  1.
    9900016    2    1    2    0    0  0.16473111070E+04  0.22161303940E+04 -0.80295466924E+03  0.36173124825E+04  0.21943895709E+04 0.  0.
         23    2    3    3    0    0  0.63273773269E+01 -0.23692274079E+03  0.36426503372E+03  0.44356089835E+03  0.88796593093E+02 0.  0.
    9900016    2    1    2    0    0 -0.16473111070E+04 -0.22161303940E+04 -0.15764154645E+04  0.38682171154E+04  0.22029866384E+04 0.  0.
         24    2    5    5    0    0 -0.12580462665E+04 -0.52926524847E+03 -0.14333616584E+04  0.19808312544E+04  0.79779088072E+02 0.  0.
        -15    1    4    4    0    0 -0.48834784148E+01 -0.75907305612E+02  0.19673816490E+03  0.21093049314E+03  0.00000000000E+00 0. -1.
        -15    1    6    6    0    0 -0.64837477513E+03 -0.31579093879E+03 -0.76156254884E+03  0.10488523642E+04  0.00000000000E+00 0.  1.
         15    1    4    4    0    0  0.11210855742E+02 -0.16101543518E+03  0.16752686882E+03  0.23263040522E+03  0.00000000000E+00 0.  1.
         15    1    5    5    0    0 -0.52154449798E+03 -0.14333046417E+04  0.57581574235E+02  0.15263310574E+04  0.00000000000E+00 0. -1.
        -16    1    3    3    0    0  0.16409837297E+04  0.24530531348E+04 -0.11672197030E+04  0.31737515842E+04  0.00000000000E+00 0.  1.
         16    1    6    6    0    0 -0.60967149141E+03 -0.21347430969E+03 -0.67179910953E+03  0.93197889026E+03  0.00000000000E+00 0. -1.
    9900018    1    5    5    0    0  0.13227965752E+03 -0.25356050381E+03 -0.20063538037E+03  0.36105480350E+03  0.91187600000E+02 0.  0.
<mgrwt>
<rscale>  0 0.70973059E+04</rscale>
<asrwt>0</asrwt>
<pdfrwt beam="1">  1        2 0.75883844E+00 0.70973059E+04</pdfrwt>
<pdfrwt beam="2">  1       -2 0.39278150E+00 0.70973059E+04</pdfrwt>
<totfact> 0.20867322E-04</totfact>
</mgrwt>
</event>
<event>
13    1  0.1118844E-007  0.4531804E+04  0.7818608E-02  0.7905092E-01
         -1   -1    0    0    0  501 -0.00000000000E+00  0.00000000000E+00  0.17916133494E+04  0.17916133494E+04  0.00000000000E+00 0.  1.
          1   -1    0    0  501    0  0.00000000000E+00 -0.00000000000E+00 -0.28657478440E+04  0.28657478440E+04  0.00000000000E+00 0. -1.
    9900016    2    1    2    0    0 -0.17295196946E+03  0.53531455271E+03 -0.51609794163E+03  0.23208733741E+04  0.21917166968E+04 0.  0.
         23    2    3    3    0    0  0.10842073625E+02 -0.30237045924E+03 -0.11894603673E+04  0.12305003251E+04  0.88145558914E+02 0.  0.
    9900016    2    1    2    0    0  0.17295196946E+03 -0.53531455271E+03 -0.55803655305E+03  0.23364878193E+04  0.21980210375E+04 0.  0.
        -24    2    5    5    0    0  0.44983627690E+03 -0.28466455973E+03 -0.63957826810E+03  0.83529930642E+03  0.72649726124E+02 0.  0.
        -15    1    5    5    0    0 -0.58050798924E+03 -0.65661831532E+03  0.32073036344E+03  0.93327654188E+03  0.00000000000E+00 0.  1.
        -15    1    4    4    0    0  0.34971773289E+02 -0.20388381422E+03 -0.66890622072E+03  0.70016224316E+03  0.00000000000E+00 0. -1.
         15    1    6    6    0    0  0.41140509004E+03 -0.25130313019E+03 -0.60583551658E+03  0.77423774417E+03  0.00000000000E+00 0. -1.
         15    1    4    4    0    0 -0.24129699664E+02 -0.98486645019E+02 -0.52055414662E+03  0.53033808199E+03  0.00000000000E+00 0.  1.
        -16    1    6    6    0    0  0.38431186858E+02 -0.33361429539E+02 -0.33742751522E+02  0.61061562251E+02  0.00000000000E+00 0.  1.
         16    1    3    3    0    0 -0.18379404309E+03  0.83768501195E+03  0.67336242570E+03  0.10903730489E+04  0.00000000000E+00 0. -1.
    9900018    1    5    5    0    0  0.30362368181E+03  0.40596832234E+03 -0.23918864838E+03  0.56791197100E+03  0.91187600000E+02 0.  0.
<mgrwt>
<rscale>  0 0.45318041E+04</rscale>
<asrwt>0</asrwt>
<pdfrwt beam="1">  1        1 0.44088428E+00 0.45318041E+04</pdfrwt>
<pdfrwt beam="2">  1       -1 0.27563282E+00 0.45318041E+04</pdfrwt>
<totfact> 0.26620010E-02</totfact>
</mgrwt>
</event>
<event>
13    1  0.1118844E-007  0.6070489E+04  0.7818608E-02  0.7681723E-01
          2   -1    0    0  501    0  0.00000000000E+00  0.00000000000E+00  0.28154220628E+04  0.28154220628E+04  0.00000000000E+00 0. -1.
         -2   -1    0    0    0  501 -0.00000000000E+00 -0.00000000000E+00 -0.32722300284E+04  0.32722300284E+04  0.00000000000E+00 0.  1.
    9900016    2    1    2    0    0 -0.20208541986E+04  0.37712811671E+03 -0.59019160470E+03  0.30736165422E+04  0.22074227528E+04 0.  0.
         23    2    3    3    0    0  0.38250433241E+03  0.18041766483E+03 -0.49804003368E+03  0.66046110946E+03  0.96461929597E+02 0.  0.
    9900016    2    1    2    0    0  0.20208541986E+04 -0.37712811671E+03  0.13338363914E+03  0.30140355490E+04  0.22001231300E+04 0.  0.
        -24    2    5    5    0    0  0.19185420694E+03 -0.89515472983E+03 -0.20079309847E+03  0.94055767454E+03  0.78872325190E+02 0.  0.
        -15    1    4    4    0    0  0.19760518479E+03  0.62411964905E+02 -0.18225920293E+03  0.27597369344E+03  0.00000000000E+00 0. -1.
        -15    1    5    5    0    0  0.15484838369E+04  0.24536830023E+03  0.49006132250E+03  0.16426100864E+04  0.00000000000E+00 0.  1.
         15    1    6    6    0    0  0.20318209769E+02 -0.16088878218E+03 -0.63327841473E+02  0.17409320890E+03  0.00000000000E+00 0. -1.
         15    1    4    4    0    0  0.18489914762E+03  0.11800569993E+03 -0.31578083075E+03  0.38448741602E+03  0.00000000000E+00 0.  1.
        -16    1    6    6    0    0  0.17153599717E+03 -0.73426594765E+03 -0.13746525700E+03  0.76646446564E+03  0.00000000000E+00 0.  1.
         16    1    3    3    0    0 -0.24033585310E+04  0.19671045188E+03 -0.92151571020E+02  0.24131554327E+04  0.00000000000E+00 0. -1.
    9900018    1    5    5    0    0  0.28051615473E+03  0.27265831289E+03 -0.15588458488E+03  0.43086778813E+03  0.91187600000E+02 0.  0.
<mgrwt>
<rscale>  0 0.60704888E+04</rscale>
<asrwt>0</asrwt>
<pdfrwt beam="1">  1        2 0.43314186E+00 0.60704888E+04</pdfrwt>
<pdfrwt beam="2">  1       -2 0.50342000E+00 0.60704888E+04</pdfrwt>
<totfact> 0.24096449E-03</totfact>
</mgrwt>
</event>
<event>
13    1  0.1118844E-007  0.5979115E+04  0.7818608E-02  0.7692997E-01
          2   -1    0    0  501    0  0.00000000000E+00  0.00000000000E+00  0.26847385714E+04  0.26847385714E+04  0.00000000000E+00 0.  1.
         -2   -1    0    0    0  501 -0.00000000000E+00 -0.00000000000E+00 -0.33289845965E+04  0.33289845965E+04  0.00000000000E+00 0. -1.
    9900016    2    1    2    0    0  0.12946049200E+04  0.56240592852E+03 -0.17898145159E+04  0.31686122558E+04  0.22009918898E+04 0.  0.
         23    2    3    3    0    0 -0.36480134620E+03 -0.16118952508E+03 -0.11948074489E+04  0.12630275827E+04  0.92799512014E+02 0.  0.
    9900016    2    1    2    0    0 -0.12946049200E+04 -0.56240592852E+03  0.11455684908E+04  0.28451109120E+04  0.21886129415E+04 0.  0.
        -24    2    5    5    0    0 -0.13618439439E+04 -0.21751092449E+03 -0.23072580964E+03  0.14005844630E+04  0.80451905485E+02 0.  0.
        -15    1    4    4    0    0 -0.13559999081E+03 -0.10342377588E+03 -0.43222363722E+03  0.46465159798E+03  0.00000000000E+00 0.  1.
        -15    1    5    5    0    0 -0.41931057049E+02 -0.17993575820E+03  0.92680733267E+03  0.94504334425E+03  0.00000000000E+00 0.  1.
         15    1    6    6    0    0 -0.24333288636E+03 -0.83736756402E+01 -0.35028775112E+02  0.24598379442E+03  0.00000000000E+00 0. -1.
         15    1    4    4    0    0 -0.22920135539E+03 -0.57765749197E+02 -0.76258381168E+03  0.79837598469E+03  0.00000000000E+00 0. -1.
        -16    1    6    6    0    0 -0.11185110575E+04 -0.20913724885E+03 -0.19569703453E+03  0.11546006686E+04  0.00000000000E+00 0.  1.
         16    1    3    3    0    0  0.16594062662E+04  0.72359545360E+03 -0.59500706700E+03  0.19055846731E+04  0.00000000000E+00 0. -1.
    9900018    1    5    5    0    0  0.10917008095E+03 -0.16495924584E+03  0.44948696775E+03  0.49948310475E+03  0.91187600000E+02 0.  0.
<mgrwt>
<rscale>  0 0.59791148E+04</rscale>
<asrwt>0</asrwt>
<pdfrwt beam="1">  1        2 0.41303670E+00 0.59791148E+04</pdfrwt>
<pdfrwt beam="2">  1       -2 0.51215148E+00 0.59791148E+04</pdfrwt>
<totfact> 0.25756767E-03</totfact>
</mgrwt>
</event>
<event>
13    1  0.1118844E-007  0.5371040E+04  0.7818608E-02  0.7773688E-01
          1   -1    0    0  501    0  0.00000000000E+00  0.00000000000E+00  0.41600746200E+04  0.41600746200E+04  0.00000000000E+00 0. -1.
         -1   -1    0    0    0  501 -0.00000000000E+00 -0.00000000000E+00 -0.17336266980E+04  0.17336266980E+04  0.00000000000E+00 0.  1.
    9900016    2    1    2    0    0  0.77191833690E+03  0.10306630172E+04  0.27230498958E+03  0.25596256981E+04  0.21953153608E+04 0.  0.
         23    2    3    3    0    0  0.23880063758E+03 -0.33367025827E+03  0.87891726065E+03  0.97419256636E+03  0.90520823715E+02 0.  0.
    9900016    2    1    2    0    0 -0.77191833690E+03 -0.10306630172E+04  0.21541429324E+04  0.33340756198E+04  0.21949041645E+04 0.  0.
         24    2    5    5    0    0 -0.32514478125E+03  0.18362748743E+03 -0.22195382060E+03  0.44129088218E+03  0.77691449322E+02 0.  0.
        -15    1    6    6    0    0 -0.31039747247E+02  0.59036691738E+01 -0.44408545704E+02  0.54501726123E+02  0.00000000000E+00 0.  1.
        -15    1    4    4    0    0  0.10560541143E+03 -0.20815043602E+03  0.42715578953E+03  0.48676603771E+03  0.00000000000E+00 0.  1.
         15    1    5    5    0    0  0.75631225231E+02 -0.10797655482E+04  0.17834501378E+04  0.20862186164E+04  0.00000000000E+00 0. -1.
         15    1    4    4    0    0  0.13319522614E+03 -0.12551982225E+03  0.45176147111E+03  0.48742652864E+03  0.00000000000E+00 0. -1.
        -16    1    3    3    0    0  0.53311769932E+03  0.13643332755E+04 -0.60661227107E+03  0.15854331318E+04  0.00000000000E+00 0.  1.
         16    1    6    6    0    0 -0.29410503401E+03  0.17772381825E+03 -0.17754527490E+03  0.38678915606E+03  0.00000000000E+00 0. -1.
    9900018    1    5    5    0    0 -0.52240478088E+03 -0.13452495637E+03  0.59264661524E+03  0.80656612123E+03  0.91187600000E+02 0.  0.
<mgrwt>
<rscale>  0 0.53710395E+04</rscale>
<asrwt>0</asrwt>
<pdfrwt beam="1">  1        1 0.64001148E+00 0.53710395E+04</pdfrwt>
<pdfrwt beam="2">  1       -1 0.26671180E+00 0.53710395E+04</pdfrwt>
<totfact> 0.26082895E-03</totfact>
</mgrwt>
</event>
<event>
13    1  0.1118844E-007  0.6120608E+04  0.7818608E-02  0.7675625E-01
          2   -1    0    0  501    0  0.00000000000E+00  0.00000000000E+00  0.28568267607E+04  0.28568267607E+04  0.00000000000E+00 0. -1.
         -2   -1    0    0    0  501 -0.00000000000E+00 -0.00000000000E+00 -0.32782735075E+04  0.32782735075E+04  0.00000000000E+00 0.  1.
    9900016    2    1    2    0    0  0.18536791678E+04 -0.67367569085E+03  0.53472762528E+03  0.30250023617E+04  0.22304125765E+04 0.  0.
         23    2    3    3    0    0 -0.47876097346E+03  0.50669468293E+02  0.29277557087E+03  0.57072166894E+03  0.90698532393E+02 0.  0.
    9900016    2    1    2    0    0 -0.18536791678E+04  0.67367569085E+03 -0.95617437209E+03  0.31100979065E+04  0.22064619110E+04 0.  0.
        -24    2    5    5    0    0 -0.54115728679E+03 -0.35759864964E+03 -0.11447360794E+04  0.13181243076E+04  0.79391406674E+02 0.  0.
        -15    1    5    5    0    0 -0.10241472282E+04  0.57804326643E+03  0.34411152492E+03  0.12253262033E+04  0.00000000000E+00 0.  1.
        -15    1    4    4    0    0 -0.14854610939E+03  0.44276751888E+02  0.13102870862E+03  0.20296526761E+03  0.00000000000E+00 0.  1.
         15    1    6    6    0    0 -0.16292044968E+03 -0.12638978089E+03 -0.43356176351E+03  0.48009712811E+03  0.00000000000E+00 0. -1.
         15    1    4    4    0    0 -0.33021486407E+03  0.63927164051E+01  0.16174686225E+03  0.36775640134E+03  0.00000000000E+00 0. -1.
        -16    1    6    6    0    0 -0.37823683712E+03 -0.23120886875E+03 -0.71117431587E+03  0.83802717945E+03  0.00000000000E+00 0.  1.
         16    1    3    3    0    0  0.23324401412E+04 -0.72434515914E+03  0.24195205441E+03  0.24542806927E+04  0.00000000000E+00 0. -1.
    9900018    1    5    5    0    0 -0.28837465276E+03  0.45323107405E+03 -0.15554981762E+03  0.56664739565E+03  0.91187600000E+02 0.  0.
<mgrwt>
<rscale>  0 0.61206076E+04</rscale>
<asrwt>0</asrwt>
<pdfrwt beam="1">  1        2 0.43951181E+00 0.61206076E+04</pdfrwt>
<pdfrwt beam="2">  1       -2 0.50434977E+00 0.61206076E+04</pdfrwt>
<totfact> 0.22360016E-03</totfact>
</mgrwt>
</event>
<event>
13    1  0.1118844E-007  0.4807646E+04  0.7818608E-02  0.7858884E-01
          1   -1    0    0  501    0  0.00000000000E+00  0.00000000000E+00  0.24229338956E+04  0.24229338956E+04  0.00000000000E+00 0. -1.
         -1   -1    0    0    0  501 -0.00000000000E+00 -0.00000000000E+00 -0.23848632816E+04  0.23848632816E+04  0.00000000000E+00 0.  1.
    9900016    2    1    2    0    0 -0.80172849231E+03  0.80967592926E+02  0.57168727721E+03  0.24042035984E+04  0.21918130105E+04 0.  0.
         23    2    3    3    0    0  0.16840922854E+03 -0.37611344392E+03 -0.65227486125E+03  0.77688261344E+03  0.90890645766E+02 0.  0.
    9900016    2    1    2    0    0  0.80172849231E+03 -0.80967592926E+02 -0.53361666317E+03  0.24035935788E+04  0.22007251128E+04 0.  0.
        -24    2    5    5    0    0  0.20823888090E+03  0.56459075742E+03  0.25850014374E+03  0.65984141324E+03  0.80263387881E+02 0.  0.
        -15    1    4    4    0    0  0.11987320268E+03 -0.34271613889E+03 -0.55952044679E+03  0.66699855094E+03  0.00000000000E+00 0. -1.
        -15    1    5    5    0    0  0.65449141053E+03 -0.45228320035E+03  0.12034700052E+03  0.80461326133E+03  0.00000000000E+00 0.  1.
         15    1    6    6    0    0  0.19129319897E+03  0.47017804241E+03  0.24265313979E+03  0.56261978794E+03  0.00000000000E+00 0. -1.
         15    1    4    4    0    0  0.48536025856E+02 -0.33397305022E+02 -0.92754414465E+02  0.10988406250E+03  0.00000000000E+00 0.  1.
        -16    1    6    6    0    0  0.16945681931E+02  0.94412715008E+02  0.15847003951E+02  0.97221625298E+02  0.00000000000E+00 0.  1.
         16    1    3    3    0    0 -0.97013772084E+03  0.45708103684E+03  0.12239621385E+04  0.16273209849E+04  0.00000000000E+00 0. -1.
    9900018    1    5    5    0    0 -0.61001799126E+02 -0.19327515000E+03 -0.91246380743E+03  0.93913890419E+03  0.91187600000E+02 0.  0.
<mgrwt>
<rscale>  0 0.48076464E+04</rscale>
<asrwt>0</asrwt>
<pdfrwt beam="1">  1        1 0.37275906E+00 0.48076464E+04</pdfrwt>
<pdfrwt beam="2">  1       -1 0.36690204E+00 0.48076464E+04</pdfrwt>
<totfact> 0.13460572E-02</totfact>
</mgrwt>
</event>
<event>
13    1  0.1118844E-007  0.5605421E+04  0.7818608E-02  0.7741347E-01
         -1   -1    0    0    0  501 -0.00000000000E+00  0.00000000000E+00  0.33843065947E+04  0.33843065947E+04  0.00000000000E+00 0.  1.
          1   -1    0    0  501    0  0.00000000000E+00 -0.00000000000E+00 -0.23210625326E+04  0.23210625326E+04  0.00000000000E+00 0. -1.
    9900016    2    1    2    0    0 -0.29926241863E+03  0.14571715521E+04 -0.41564545565E+03  0.26911886111E+04  0.22038212423E+04 0.  0.
         23    2    3    3    0    0 -0.49031645847E+03 -0.34514092948E+03  0.37578136640E+03  0.71351615538E+03  0.91439477262E+02 0.  0.
    9900016    2    1    2    0    0  0.29926241863E+03 -0.14571715521E+04  0.14788895177E+04  0.30141805163E+04  0.21645468467E+04 0.  0.
        -24    2    5    5    0    0  0.68119562748E+03  0.85862906327E+02  0.36775764942E+03  0.78276622022E+03  0.77957329537E+02 0.  0.
        -15    1    5    5    0    0 -0.28002696259E+03 -0.18469237883E+02 -0.80072449242E+02  0.29183524402E+03  0.00000000000E+00 0.  1.
        -15    1    4    4    0    0 -0.42226593794E+03 -0.28099647043E+03  0.27879107726E+03  0.57878493717E+03  0.00000000000E+00 0.  1.
         15    1    4    4    0    0 -0.68050520530E+02 -0.64144459055E+02  0.96990289142E+02  0.13473121821E+03  0.00000000000E+00 0. -1.
         15    1    6    6    0    0  0.20929593460E+03  0.45114843475E+02  0.80057527151E+02  0.22858115626E+03  0.00000000000E+00 0. -1.
        -16    1    6    6    0    0  0.47189969288E+03  0.40748062852E+02  0.28770012227E+03  0.55418506396E+03  0.00000000000E+00 0.  1.
         16    1    3    3    0    0  0.19105403984E+03  0.18023124815E+04 -0.79142682205E+03  0.19776724557E+04  0.00000000000E+00 0. -1.
    9900018    1    5    5    0    0 -0.10190624626E+03 -0.15245652205E+04  0.11912043175E+04  0.19395790520E+04  0.91187600000E+02 0.  0.
<mgrwt>
<rscale>  0 0.56054214E+04</rscale>
<asrwt>0</asrwt>
<pdfrwt beam="1">  1        1 0.35708654E+00 0.56054214E+04</pdfrwt>
<pdfrwt beam="2">  1       -1 0.52066256E+00 0.56054214E+04</pdfrwt>
<totfact> 0.13852777E-03</totfact>
</mgrwt>
</event>
<event>
13    1  0.1118844E-007  0.6975726E+04  0.7818608E-02  0.7579944E-01
          2   -1    0    0  501    0  0.00000000000E+00  0.00000000000E+00  0.32488765740E+04  0.32488765740E+04  0.00000000000E+00 0.  1.
         -2   -1    0    0    0  501 -0.00000000000E+00 -0.00000000000E+00 -0.37444292799E+04  0.37444292799E+04  0.00000000000E+00 0. -1.
    9900016    2    1    2    0    0  0.14787675824E+04 -0.14260705779E+04  0.15166002740E+04  0.33733029076E+04  0.22042380225E+04 0.  0.
         23    2    3    3    0    0  0.33367169565E+03  0.38908868179E+03 -0.26509578236E+03  0.58395019328E+03  0.89416171041E+02 0.  0.
    9900016    2    1    2    0    0 -0.14787675824E+04  0.14260705779E+04 -0.20121529799E+04  0.36200029462E+04  0.21989158375E+04 0.  0.
         24    2    5    5    0    0 -0.65430215206E+03 -0.48579018145E+03 -0.86043862860E+03  0.11878108835E+04  0.80228765482E+02 0.  0.
        -15    1    6    6    0    0 -0.20036377324E+03 -0.10415962203E+03 -0.23712045936E+03  0.32744614937E+03  0.00000000000E+00 0.  1.
        -15    1    4    4    0    0  0.80262253945E+01  0.45660753378E+02 -0.15432521305E+02  0.48861921851E+02  0.00000000000E+00 0.  1.
         15    1    4    4    0    0  0.32564547025E+03  0.34342792841E+03 -0.24966326105E+03  0.53508827143E+03  0.00000000000E+00 0. -1.
         15    1    5    5    0    0 -0.86134503390E+03  0.17799628025E+04 -0.10529068499E+04  0.22402668771E+04  0.00000000000E+00 0. -1.
        -16    1    3    3    0    0  0.11450958868E+04 -0.18151592596E+04  0.17816960564E+04  0.27893527144E+04  0.00000000000E+00 0.  1.
         16    1    6    6    0    0 -0.45393837882E+03 -0.38163055942E+03 -0.62331816924E+03  0.86036473414E+03  0.00000000000E+00 0. -1.
    9900018    1    5    5    0    0  0.36879603554E+02  0.13189795678E+03 -0.98807501385E+02  0.19192518565E+03  0.91187600000E+02 0.  0.
<mgrwt>
<rscale>  0 0.69757261E+04</rscale>
<asrwt>0</asrwt>
<pdfrwt beam="1">  1        2 0.49982717E+00 0.69757261E+04</pdfrwt>
<pdfrwt beam="2">  1       -2 0.57606604E+00 0.69757261E+04</pdfrwt>
<totfact> 0.49422753E-04</totfact>
</mgrwt>
</event>
<event>
13    1  0.1118844E-007  0.4652379E+04  0.7818608E-02  0.7884490E-01
         -2   -1    0    0    0  501 -0.00000000000E+00  0.00000000000E+00  0.20735964719E+04  0.20735964719E+04  0.00000000000E+00 0.  1.
          2   -1    0    0  501    0  0.00000000000E+00 -0.00000000000E+00 -0.26095515430E+04  0.26095515430E+04  0.00000000000E+00 0. -1.
    9900016    2    1    2    0    0  0.28142853918E+03  0.40870143730E+03  0.27509693770E+03  0.22727393003E+04  0.22007786610E+04 0.  0.
         23    2    3    3    0    0  0.40428046660E+03  0.16195815371E+03 -0.93301893519E+03  0.10335787754E+04  0.89931153702E+02 0.  0.
    9900016    2    1    2    0    0 -0.28142853918E+03 -0.40870143730E+03 -0.81105200880E+03  0.24104087146E+04  0.22149550611E+04 0.  0.
         24    2    5    5    0    0 -0.50406016895E+03 -0.37354090178E+03 -0.11402661160E+04  0.13038257456E+04  0.78391967056E+02 0.  0.
        -15    1    4    4    0    0  0.10468639930E+03  0.86368592002E+02 -0.28685918095E+03  0.31734360807E+03  0.00000000000E+00 0. -1.
        -15    1    6    6    0    0 -0.39715152581E+03 -0.26088276559E+03 -0.81560481032E+03  0.94392815322E+03  0.00000000000E+00 0.  1.
         15    1    4    4    0    0  0.29959406730E+03  0.75589561711E+02 -0.64615975423E+03  0.71623516738E+03  0.00000000000E+00 0.  1.
         15    1    5    5    0    0 -0.14264720484E+03  0.13582350429E+02  0.61495762602E+03  0.63143137956E+03  0.00000000000E+00 0. -1.
        -16    1    3    3    0    0 -0.12285192742E+03  0.24674328359E+03  0.12081158729E+04  0.12391605249E+04  0.00000000000E+00 0.  1.
         16    1    6    6    0    0 -0.10690864313E+03 -0.11265813618E+03 -0.32466130564E+03  0.35989759238E+03  0.00000000000E+00 0. -1.
    9900018    1    5    5    0    0  0.36527883461E+03 -0.48742885954E+02 -0.28574351887E+03  0.47515158941E+03  0.91187600000E+02 0.  0.
<mgrwt>
<rscale>  0 0.46523787E+04</rscale>
<asrwt>0</asrwt>
<pdfrwt beam="1">  1        2 0.40146947E+00 0.46523787E+04</pdfrwt>
<pdfrwt beam="2">  1       -2 0.31901484E+00 0.46523787E+04</pdfrwt>
<totfact> 0.54594350E-02</totfact>
</mgrwt>
</event>
<event>
13    1  0.1118844E-007  0.5628579E+04  0.7818608E-02  0.7738240E-01
          1   -1    0    0  501    0  0.00000000000E+00  0.00000000000E+00  0.26741280365E+04  0.26741280365E+04  0.00000000000E+00 0. -1.
         -1   -1    0    0    0  501 -0.00000000000E+00 -0.00000000000E+00 -0.29617975269E+04  0.29617975269E+04  0.00000000000E+00 0.  1.
    9900016    2    1    2    0    0  0.14108992929E+04 -0.85890406781E+03 -0.75423868270E+03  0.28428566690E+04  0.21873740050E+04 0.  0.
         23    2    3    3    0    0 -0.28778435217E+03  0.21150297527E+02 -0.87503114144E+03  0.92592875434E+03  0.91637280499E+02 0.  0.
    9900016    2    1    2    0    0 -0.14108992929E+04  0.85890406781E+03  0.46656919229E+03  0.27930688944E+04  0.22034504817E+04 0.  0.
         24    2    5    5    0    0  0.35538776273E+03 -0.15730629289E+03  0.31464268558E+03  0.50632179785E+03  0.79473339624E+02 0.  0.
        -15    1    4    4    0    0 -0.14663331806E+03 -0.17513448901E+02 -0.32896819400E+03  0.36059412574E+03  0.00000000000E+00 0. -1.
        -15    1    6    6    0    0  0.26158598483E+03 -0.79571179069E+02  0.19729295774E+03  0.33716955849E+03  0.00000000000E+00 0.  1.
         15    1    5    5    0    0 -0.70413447807E+03  0.54203305225E+03 -0.42516116455E+03  0.98507218455E+03  0.00000000000E+00 0. -1.
         15    1    4    4    0    0 -0.14115103411E+03  0.38663746428E+02 -0.54606294745E+03  0.56533462860E+03  0.00000000000E+00 0.  1.
        -16    1    3    3    0    0  0.16986836450E+04 -0.88005436533E+03  0.12079245874E+03  0.19169279146E+04  0.00000000000E+00 0.  1.
         16    1    6    6    0    0  0.93801777902E+02 -0.77735113822E+02  0.11734972783E+03  0.16915223936E+03  0.00000000000E+00 0. -1.
    9900018    1    5    5    0    0 -0.10621525775E+04  0.47417730845E+03  0.57708767127E+03  0.13016749120E+04  0.91187600000E+02 0.  0.
<mgrwt>
<rscale>  0 0.56285791E+04</rscale>
<asrwt>0</asrwt>
<pdfrwt beam="1">  1        1 0.41140431E+00 0.56285791E+04</pdfrwt>
<pdfrwt beam="2">  1       -1 0.45566116E+00 0.56285791E+04</pdfrwt>
<totfact> 0.20890212E-03</totfact>
</mgrwt>
</event>
<event>
13    1  0.1118845E-007  0.5617816E+04  0.7818608E-02  0.7739683E-01
         -1   -1    0    0    0  501 -0.00000000000E+00  0.00000000000E+00  0.24751880163E+04  0.24751880163E+04  0.00000000000E+00 0.  1.
          1   -1    0    0  501    0  0.00000000000E+00 -0.00000000000E+00 -0.31876217525E+04  0.31876217525E+04  0.00000000000E+00 0. -1.
    9900016    2    1    2    0    0 -0.17149925370E+03  0.75362511421E+03 -0.19414277063E+04  0.30304579622E+04  0.21948054846E+04 0.  0.
         23    2    3    3    0    0 -0.29754101845E+03 -0.26049395253E+03  0.34077265927E+03  0.52990551994E+03  0.91028005544E+02 0.  0.
    9900016    2    1    2    0    0  0.17149925370E+03 -0.75362511421E+03  0.12289939701E+04  0.26323518066E+04  0.21957884799E+04 0.  0.
        -24    2    5    5    0    0 -0.14907431076E+03  0.38972539170E+03 -0.28471199521E+03  0.51180224099E+03  0.82289626318E+02 0.  0.
        -15    1    5    5    0    0  0.41601470350E+03 -0.20705742238E+03  0.20973628017E+03  0.50983361689E+03  0.00000000000E+00 0.  1.
        -15    1    4    4    0    0 -0.23598265627E+03 -0.17262405276E+03  0.20609518783E+03  0.35771791134E+03  0.00000000000E+00 0.  1.
         15    1    6    6    0    0 -0.71171858090E+02  0.87039697601E+02 -0.84140205916E+02  0.14043118099E+03  0.00000000000E+00 0. -1.
         15    1    4    4    0    0 -0.61558362182E+02 -0.87869899768E+02  0.13467747145E+03  0.17218760860E+03  0.00000000000E+00 0. -1.
        -16    1    6    6    0    0 -0.77902452674E+02  0.30268569410E+03 -0.20057178929E+03  0.37137106000E+03  0.00000000000E+00 0.  1.
         16    1    3    3    0    0  0.12604176475E+03  0.10141190667E+04 -0.22822003656E+04  0.25005524423E+04  0.00000000000E+00 0. -1.
    9900018    1    5    5    0    0 -0.95441139035E+02 -0.93629308353E+03  0.13039696852E+04  0.16107159487E+04  0.91187600000E+02 0.  0.
<mgrwt>
<rscale>  0 0.56178156E+04</rscale>
<asrwt>0</asrwt>
<pdfrwt beam="1">  1        1 0.49040335E+00 0.56178156E+04</pdfrwt>
<pdfrwt beam="2">  1       -1 0.38079816E+00 0.56178156E+04</pdfrwt>
<totfact> 0.28864374E-03</totfact>
</mgrwt>
</event>
<event>
13    1  0.1118844E-007  0.5205913E+04  0.7818608E-02  0.7797505E-01
         -2   -1    0    0    0  501 -0.00000000000E+00  0.00000000000E+00  0.22076305505E+04  0.22076305505E+04  0.00000000000E+00 0.  1.
          2   -1    0    0  501    0  0.00000000000E+00 -0.00000000000E+00 -0.30690749438E+04  0.30690749438E+04  0.00000000000E+00 0. -1.
    9900016    2    1    2    0    0  0.13719436229E+03  0.12946076072E+03 -0.18263296934E+04  0.28662491257E+04  0.22009819445E+04 0.  0.
         23    2    3    3    0    0  0.16333025986E+03 -0.35566595096E+03  0.41271768494E+03  0.57510003103E+03  0.85024206981E+02 0.  0.
    9900016    2    1    2    0    0 -0.13719436229E+03 -0.12946076072E+03  0.96488530007E+03  0.24104563686E+04  0.22008439020E+04 0.  0.
        -24    2    5    5    0    0 -0.51661489471E+02  0.45621198883E+03 -0.55561654003E+03  0.72501064744E+03  0.78309712683E+02 0.  0.
        -15    1    4    4    0    0  0.94830328963E+02 -0.23808018723E+03  0.21196978453E+03  0.33257503875E+03  0.00000000000E+00 0. -1.
        -15    1    5    5    0    0 -0.17559705298E+03 -0.45650164481E+03  0.13508123770E+04  0.14366357070E+04  0.00000000000E+00 0.  1.
         15    1    6    6    0    0  0.12718955478E+02  0.22230657502E+03 -0.28244297022E+03  0.35966097446E+03  0.00000000000E+00 0. -1.
         15    1    4    4    0    0  0.68499930900E+02 -0.11758576373E+03  0.20074790040E+03  0.24252499228E+03  0.00000000000E+00 0.  1.
        -16    1    6    6    0    0 -0.64380444949E+02  0.23390541381E+03 -0.27317356982E+03  0.36534967298E+03  0.00000000000E+00 0.  1.
         16    1    3    3    0    0 -0.26135897570E+02  0.48512671167E+03 -0.22390473783E+04  0.22911490947E+04  0.00000000000E+00 0. -1.
    9900018    1    5    5    0    0  0.90064180153E+02 -0.12917110473E+03  0.16968946307E+03  0.24881001410E+03  0.91187600000E+02 0.  0.
<mgrwt>
<rscale>  0 0.52059134E+04</rscale>
<asrwt>0</asrwt>
<pdfrwt beam="1">  1        2 0.47216538E+00 0.52059134E+04</pdfrwt>
<pdfrwt beam="2">  1       -2 0.33963547E+00 0.52059134E+04</pdfrwt>
<totfact> 0.20376444E-02</totfact>
</mgrwt>
</event>
<event>
13    1  0.1118844E-007  0.5246900E+04  0.7818608E-02  0.7791510E-01
         -2   -1    0    0    0  501 -0.00000000000E+00  0.00000000000E+00  0.20592115111E+04  0.20592115111E+04  0.00000000000E+00 0. -1.
          2   -1    0    0  501    0  0.00000000000E+00 -0.00000000000E+00 -0.33422943741E+04  0.33422943741E+04  0.00000000000E+00 0.  1.
    9900016    2    1    2    0    0  0.23364312792E+03  0.13443769419E+04 -0.32707910781E+03  0.26372739976E+04  0.22330013261E+04 0.  0.
         23    2    3    3    0    0 -0.14452101071E+03 -0.43235468187E+03  0.46333986022E+03  0.65622742478E+03  0.90187102702E+02 0.  0.
    9900016    2    1    2    0    0 -0.23364312792E+03 -0.13443769419E+04 -0.95600375517E+03  0.27642318876E+04  0.22056963244E+04 0.  0.
         24    2    5    5    0    0 -0.12239108510E+03 -0.44374805869E+03 -0.11636883607E+04  0.12536449050E+04  0.74585719828E+02 0.  0.
        -15    1    4    4    0    0 -0.12196334253E+02 -0.16819693526E+03  0.15224916364E+03  0.22719763958E+03  0.00000000000E+00 0.  1.
        -15    1    6    6    0    0 -0.56946992498E+02 -0.32302408502E+03 -0.85658398787E+03  0.91723696379E+03  0.00000000000E+00 0.  1.
         15    1    5    5    0    0 -0.16780050015E+03  0.26345806755E+03 -0.42087605091E+02  0.31518015120E+03  0.00000000000E+00 0. -1.
         15    1    4    4    0    0 -0.13232467646E+03 -0.26415774661E+03  0.31109069658E+03  0.42902978521E+03  0.00000000000E+00 0. -1.
        -16    1    3    3    0    0  0.37816413863E+03  0.17767316238E+04 -0.79041896803E+03  0.19810465728E+04  0.00000000000E+00 0.  1.
         16    1    6    6    0    0 -0.65444092605E+02 -0.12072397367E+03 -0.30710437286E+03  0.33640794121E+03  0.00000000000E+00 0. -1.
    9900018    1    5    5    0    0  0.56548457328E+02 -0.11640869508E+04  0.24977221066E+03  0.11954068314E+04  0.91187600000E+02 0.  0.
<mgrwt>
<rscale>  0 0.52469004E+04</rscale>
<asrwt>0</asrwt>
<pdfrwt beam="1">  1        2 0.51419913E+00 0.52469004E+04</pdfrwt>
<pdfrwt beam="2">  1       -2 0.31680177E+00 0.52469004E+04</pdfrwt>
<totfact> 0.18639824E-02</totfact>
</mgrwt>
</event>
<event>
13    1  0.1118844E-007  0.4654925E+04  0.7818608E-02  0.7884061E-01
         -2   -1    0    0    0  501 -0.00000000000E+00  0.00000000000E+00  0.13828416491E+04  0.13828416491E+04  0.00000000000E+00 0.  1.
          2   -1    0    0  501    0  0.00000000000E+00 -0.00000000000E+00 -0.39173556861E+04  0.39173556861E+04  0.00000000000E+00 0. -1.
    9900016    2    1    2    0    0 -0.35129666354E+03  0.23916442089E+03 -0.55195711277E+03  0.23078467081E+04  0.22002024470E+04 0.  0.
         23    2    3    3    0    0 -0.62361017562E+01 -0.31812213952E+03  0.76671983819E+03  0.83524900244E+03  0.92417537185E+02 0.  0.
    9900016    2    1    2    0    0  0.35129666354E+03 -0.23916442089E+03 -0.19825569242E+04  0.29923506271E+04  0.22006865637E+04 0.  0.
        -24    2    5    5    0    0  0.82047449640E+03  0.20245758608E+03 -0.10639249488E+04  0.13611782525E+04  0.81868582667E+02 0.  0.
        -15    1    4    4    0    0 -0.65957287033E+01 -0.83550384613E+02  0.31870005117E+03  0.32953587517E+03  0.00000000000E+00 0.  1.
        -15    1    5    5    0    0 -0.53810224072E+03 -0.52816840956E+03 -0.11403824122E+04  0.13671093359E+04  0.00000000000E+00 0.  1.
         15    1    6    6    0    0  0.22595143061E+03  0.74655893399E+02 -0.24967113887E+03  0.34491046519E+03  0.00000000000E+00 0. -1.
         15    1    4    4    0    0  0.35962694712E+00 -0.23457175491E+03  0.44801978702E+03  0.50571312727E+03  0.00000000000E+00 0. -1.
        -16    1    6    6    0    0  0.59452306579E+03  0.12780169268E+03 -0.81425380998E+03  0.10162677873E+04  0.00000000000E+00 0.  1.
         16    1    3    3    0    0 -0.34506056178E+03  0.55728656041E+03 -0.13186769510E+04  0.14725977057E+04  0.00000000000E+00 0. -1.
    9900018    1    5    5    0    0  0.68924407862E+02  0.86546402590E+02  0.22175043680E+03  0.26406303872E+03  0.91187600000E+02 0.  0.
<mgrwt>
<rscale>  0 0.46549254E+04</rscale>
<asrwt>0</asrwt>
<pdfrwt beam="1">  1        2 0.60267009E+00 0.46549254E+04</pdfrwt>
<pdfrwt beam="2">  1       -2 0.21274487E+00 0.46549254E+04</pdfrwt>
<totfact> 0.32646162E-02</totfact>
</mgrwt>
</event>
<event>
13    1  0.1118844E-007  0.6200732E+04  0.7818608E-02  0.7666000E-01
         -1   -1    0    0    0  501 -0.00000000000E+00  0.00000000000E+00  0.49445663619E+04  0.49445663619E+04  0.00000000000E+00 0.  1.
          1   -1    0    0  501    0  0.00000000000E+00 -0.00000000000E+00 -0.19440067152E+04  0.19440067152E+04  0.00000000000E+00 0. -1.
    9900016    2    1    2    0    0  0.74506156666E+03  0.36001515925E+03  0.37521221832E+04  0.44233834793E+04  0.21916142165E+04 0.  0.
         23    2    3    3    0    0 -0.65067469525E+03  0.30891731234E+02  0.22604064799E+04  0.23541764613E+04  0.91528675406E+02 0.  0.
    9900016    2    1    2    0    0 -0.74506156666E+03 -0.36001515925E+03 -0.75156253652E+03  0.24651895978E+04  0.21971767917E+04 0.  0.
         24    2    5    5    0    0  0.38769284183E+03 -0.72392855602E+03 -0.41255594798E+03  0.92260194338E+03  0.81324300745E+02 0.  0.
        -15    1    6    6    0    0  0.28981675760E+03 -0.60522941638E+03 -0.32529515569E+03  0.74573007030E+03  0.00000000000E+00 0.  1.
        -15    1    4    4    0    0 -0.57199854909E+03  0.23571836933E+01  0.20296507764E+04  0.21087129180E+04  0.00000000000E+00 0. -1.
         15    1    5    5    0    0 -0.52575588705E+03 -0.23008803886E+03  0.99463822233E+02  0.58245412723E+03  0.00000000000E+00 0. -1.
         15    1    4    4    0    0 -0.78676146157E+02  0.28534547541E+02  0.23075570351E+03  0.24546354328E+03  0.00000000000E+00 0.  1.
        -16    1    3    3    0    0  0.13957362619E+04  0.32912342801E+03  0.14917157033E+04  0.20692070180E+04  0.00000000000E+00 0.  1.
         16    1    6    6    0    0  0.97876084234E+02 -0.11869913964E+03 -0.87260792291E+02  0.17687187308E+03  0.00000000000E+00 0. -1.
    9900018    1    5    5    0    0 -0.60699852144E+03  0.59400143563E+03 -0.43847041077E+03  0.96013352721E+03  0.91187600000E+02 0.  0.
<mgrwt>
<rscale>  0 0.62007323E+04</rscale>
<asrwt>0</asrwt>
<pdfrwt beam="1">  1        1 0.29907796E+00 0.62007323E+04</pdfrwt>
<pdfrwt beam="2">  1       -1 0.76070251E+00 0.62007323E+04</pdfrwt>
<totfact> 0.24638297E-04</totfact>
</mgrwt>
</event>
<event>
13    1  0.1118844E-007  0.5876019E+04  0.7818608E-02  0.7705967E-01
          1   -1    0    0  501    0  0.00000000000E+00  0.00000000000E+00  0.44454099995E+04  0.44454099995E+04  0.00000000000E+00 0. -1.
         -1   -1    0    0    0  501 -0.00000000000E+00 -0.00000000000E+00 -0.19417553864E+04  0.19417553864E+04  0.00000000000E+00 0.  1.
    9900016    2    1    2    0    0 -0.36535444272E+03 -0.10781717332E+04  0.29731879963E+04  0.38654875725E+04  0.21923068118E+04 0.  0.
         23    2    3    3    0    0 -0.22257696863E+03 -0.32006496265E+03 -0.30139995271E+03  0.50125846047E+03  0.91847838406E+02 0.  0.
    9900016    2    1    2    0    0  0.36535444272E+03  0.10781717332E+04 -0.46953338314E+03  0.25216778134E+04  0.22005588476E+04 0.  0.
         24    2    5    5    0    0  0.80541934959E+03  0.77623608685E+03 -0.44574212218E+03  0.12068216708E+04  0.80558763326E+02 0.  0.
        -15    1    6    6    0    0  0.42786868676E+03  0.43766945963E+03 -0.28212700143E+03  0.67395980142E+03  0.00000000000E+00 0.  1.
        -15    1    4    4    0    0 -0.16606746918E+03 -0.18862183609E+03 -0.23287984778E+03  0.34262169352E+03  0.00000000000E+00 0. -1.
         15    1    4    4    0    0 -0.56509499444E+02 -0.13144312657E+03 -0.68520104935E+02  0.15863676696E+03  0.00000000000E+00 0.  1.
         15    1    5    5    0    0 -0.73201970327E+03  0.43433880812E+03 -0.27828144926E+03  0.89551304357E+03  0.00000000000E+00 0. -1.
        -16    1    3    3    0    0 -0.14277747409E+03 -0.75810677055E+03  0.32745879490E+04  0.33642291121E+04  0.00000000000E+00 0.  1.
         16    1    6    6    0    0  0.37755066283E+03  0.33856662722E+03 -0.16361512076E+03  0.53286186936E+03  0.00000000000E+00 0. -1.
    9900018    1    5    5    0    0  0.29195479639E+03 -0.13240316176E+03  0.25449018830E+03  0.41934309904E+03  0.91187600000E+02 0.  0.
<mgrwt>
<rscale>  0 0.58760187E+04</rscale>
<asrwt>0</asrwt>
<pdfrwt beam="1">  1        1 0.68390923E+00 0.58760187E+04</pdfrwt>
<pdfrwt beam="2">  1       -1 0.29873160E+00 0.58760187E+04</pdfrwt>
<totfact> 0.82427830E-04</totfact>
</mgrwt>
</event>
<event>
13    1  0.1118844E-007  0.5229360E+04  0.7818608E-02  0.7794068E-01
          2   -1    0    0  501    0  0.00000000000E+00  0.00000000000E+00  0.44394688961E+04  0.44394688961E+04  0.00000000000E+00 0.  1.
         -2   -1    0    0    0  501 -0.00000000000E+00 -0.00000000000E+00 -0.15399478424E+04  0.15399478424E+04  0.00000000000E+00 0. -1.
    9900016    2    1    2    0    0 -0.11400765436E+03  0.43052767285E+03  0.29806930299E+04  0.37319424145E+04  0.22010250849E+04 0.  0.
         23    2    3    3    0    0 -0.27952796929E+03  0.69351662324E+02 -0.30127607821E+03  0.42601345098E+03  0.88173955506E+02 0.  0.
    9900016    2    1    2    0    0  0.11400765436E+03 -0.43052767285E+03 -0.81171976138E+02  0.22474743241E+04  0.22014086684E+04 0.  0.
         24    2    5    5    0    0  0.73255556290E+03 -0.44600237329E+02 -0.48993502282E+03  0.88636298392E+03  0.83523522248E+02 0.  0.
        -15    1    6    6    0    0  0.24316510405E+03 -0.43517962545E+02 -0.13233107545E+03  0.28024024411E+03  0.00000000000E+00 0.  1.
        -15    1    4    4    0    0 -0.14319507299E+03 -0.55996830497E+01 -0.11820546835E+03  0.18576522313E+03  0.00000000000E+00 0.  1.
         15    1    5    5    0    0  0.23857807354E+02  0.31885118542E+03  0.21056903082E+03  0.38285061075E+03  0.00000000000E+00 0. -1.
         15    1    4    4    0    0 -0.13633289630E+03  0.74951345374E+02 -0.18307060986E+03  0.24024822785E+03  0.00000000000E+00 0. -1.
        -16    1    3    3    0    0  0.16552031493E+03  0.36117601053E+03  0.32819691081E+04  0.33059289635E+04  0.00000000000E+00 0.  1.
         16    1    6    6    0    0  0.48939045886E+03 -0.10822747840E+01 -0.35760394737E+03  0.60612273981E+03  0.00000000000E+00 0. -1.
    9900018    1    5    5    0    0 -0.64240571589E+03 -0.70477862094E+03  0.19819401586E+03  0.97826072939E+03  0.91187600000E+02 0.  0.
<mgrwt>
<rscale>  0 0.52293596E+04</rscale>
<asrwt>0</asrwt>
<pdfrwt beam="1">  1        2 0.68299521E+00 0.52293596E+04</pdfrwt>
<pdfrwt beam="2">  1       -2 0.23691505E+00 0.52293596E+04</pdfrwt>
<totfact> 0.77209505E-03</totfact>
</mgrwt>
</event>
<event>
13    1  0.1118844E-007  0.5669562E+04  0.7818608E-02  0.7732779E-01
         -2   -1    0    0    0  501 -0.00000000000E+00  0.00000000000E+00  0.33827689751E+04  0.33827689751E+04  0.00000000000E+00 0.  1.
          2   -1    0    0  501    0  0.00000000000E+00 -0.00000000000E+00 -0.23755641181E+04  0.23755641181E+04  0.00000000000E+00 0. -1.
    9900016    2    1    2    0    0  0.42709554596E+03  0.96019054025E+03  0.19721297043E+04  0.31350146736E+04  0.21987826073E+04 0.  0.
         23    2    3    3    0    0 -0.54557183880E+03  0.49092128263E+03 -0.14924774264E+03  0.75456560883E+03  0.91880532869E+02 0.  0.
    9900016    2    1    2    0    0 -0.42709554596E+03 -0.96019054025E+03 -0.96492484733E+03  0.26233184195E+04  0.22014411394E+04 0.  0.
         24    2    5    5    0    0  0.24257196062E+03  0.23135268889E+03 -0.45853012135E+03  0.57286157834E+03  0.74533838020E+02 0.  0.
        -15    1    6    6    0    0  0.88702201285E+02  0.68109703993E+02 -0.10049816164E+03  0.15035588709E+03  0.00000000000E+00 0.  1.
        -15    1    4    4    0    0 -0.27102502831E+02  0.54298678115E+02 -0.24020316764E+02  0.65267662147E+02  0.00000000000E+00 0. -1.
         15    1    5    5    0    0 -0.39879639663E+03 -0.17275680588E+03  0.44896376705E+03  0.62486153992E+03  0.00000000000E+00 0. -1.
         15    1    4    4    0    0 -0.51846933597E+03  0.43662260451E+03 -0.12522742588E+03  0.68929794669E+03  0.00000000000E+00 0.  1.
        -16    1    3    3    0    0  0.97266738477E+03  0.46926925762E+03  0.21213774470E+04  0.23804490648E+04  0.00000000000E+00 0.  1.
         16    1    6    6    0    0  0.15386975934E+03  0.16324298490E+03 -0.35803195972E+03  0.42250569124E+03  0.00000000000E+00 0. -1.
    9900018    1    5    5    0    0 -0.27087110995E+03 -0.10187864233E+04 -0.95535849302E+03  0.14255953013E+04  0.91187600000E+02 0.  0.
<mgrwt>
<rscale>  0 0.56695625E+04</rscale>
<asrwt>0</asrwt>
<pdfrwt beam="1">  1        2 0.36547140E+00 0.56695625E+04</pdfrwt>
<pdfrwt beam="2">  1       -2 0.52042600E+00 0.56695625E+04</pdfrwt>
<totfact> 0.35666972E-03</totfact>
</mgrwt>
</event>
<event>
13    1  0.1118844E-007  0.6925569E+04  0.7818608E-02  0.7585161E-01
         -2   -1    0    0    0  501 -0.00000000000E+00  0.00000000000E+00  0.38883334405E+04  0.38883334405E+04  0.00000000000E+00 0. -1.
          2   -1    0    0  501    0  0.00000000000E+00 -0.00000000000E+00 -0.30838083879E+04  0.30838083879E+04  0.00000000000E+00 0.  1.
    9900016    2    1    2    0    0  0.16939560645E+04 -0.43724428667E+03  0.24371407509E+04  0.37192845646E+04  0.21983523189E+04 0.  0.
         23    2    3    3    0    0 -0.57823097636E+02 -0.56284992465E+03 -0.14977923582E+03  0.59251913897E+03  0.92203916746E+02 0.  0.
    9900016    2    1    2    0    0 -0.16939560645E+04  0.43724428667E+03 -0.16326156984E+04  0.32528572638E+04  0.22034011540E+04 0.  0.
        -24    2    5    5    0    0  0.57732189862E+02  0.56287839777E+03  0.20528981837E+03  0.60720159163E+03  0.79904736526E+02 0.  0.
        -15    1    4    4    0    0 -0.31128027919E+02 -0.76706379650E+02 -0.46006303194E+02  0.94706930764E+02  0.00000000000E+00 0.  1.
        -15    1    5    5    0    0 -0.89595662137E+03 -0.42465362275E+03 -0.92733719955E+03  0.13575799234E+04  0.00000000000E+00 0.  1.
         15    1    6    6    0    0  0.31246173910E+00  0.10147466404E+03  0.68871013271E+02  0.12263939638E+03  0.00000000000E+00 0. -1.
         15    1    4    4    0    0 -0.26695069717E+02 -0.48614354500E+03 -0.10377293262E+03  0.49781220820E+03  0.00000000000E+00 0. -1.
        -16    1    6    6    0    0  0.57419728123E+02  0.46140373373E+03  0.13641880510E+03  0.48456219525E+03  0.00000000000E+00 0.  1.
         16    1    3    3    0    0  0.17517791621E+04  0.12560563798E+03  0.25869199868E+04  0.31267654256E+04  0.00000000000E+00 0. -1.
    9900018    1    5    5    0    0 -0.85573163299E+03  0.29901951165E+03 -0.91056831718E+03  0.12880757488E+04  0.91187600000E+02 0.  0.
<mgrwt>
<rscale>  0 0.69255686E+04</rscale>
<asrwt>0</asrwt>
<pdfrwt beam="1">  1        2 0.47443206E+00 0.69255686E+04</pdfrwt>
<pdfrwt beam="2">  1       -2 0.59820515E+00 0.69255686E+04</pdfrwt>
<totfact> 0.51288000E-04</totfact>
</mgrwt>
</event>
<event>
13    1  0.1118844E-007  0.4606942E+04  0.7818608E-02  0.7892177E-01
         -2   -1    0    0    0  501 -0.00000000000E+00  0.00000000000E+00  0.14461267230E+04  0.14461267230E+04  0.00000000000E+00 0.  1.
          2   -1    0    0  501    0  0.00000000000E+00 -0.00000000000E+00 -0.36690970662E+04  0.36690970662E+04  0.00000000000E+00 0. -1.
    9900016    2    1    2    0    0 -0.16797928330E+03  0.19824005611E+03 -0.41768013909E+03  0.22543137748E+04  0.21999903948E+04 0.  0.
         23    2    3    3    0    0  0.15571422631E+02  0.25425233211E+03  0.89136577159E+03  0.93127581882E+03  0.88628406074E+02 0.  0.
    9900016    2    1    2    0    0  0.16797928330E+03 -0.19824005611E+03 -0.18052902042E+04  0.28609100144E+04  0.22041363909E+04 0.  0.
        -24    2    5    5    0    0  0.33215791593E+03 -0.29164486742E+03 -0.21254210660E+04  0.21724040351E+04  0.80863924124E+02 0.  0.
        -15    1    4    4    0    0  0.36515285677E+02  0.15075431975E+03  0.64201944950E+03  0.66049163852E+03  0.00000000000E+00 0. -1.
        -15    1    5    5    0    0 -0.11909904971E+03  0.27429051405E+03  0.36934778419E+03  0.47522379510E+03  0.00000000000E+00 0.  1.
         15    1    4    4    0    0 -0.20943863046E+02  0.10349801236E+03  0.24934632209E+03  0.27078418030E+03  0.00000000000E+00 0.  1.
         15    1    6    6    0    0  0.28092616050E+03 -0.20186261293E+03 -0.16215066397E+04  0.16579963223E+04  0.00000000000E+00 0. -1.
        -16    1    6    6    0    0  0.51231755424E+02 -0.89782254491E+02 -0.50391442634E+03  0.51440771286E+03  0.00000000000E+00 0.  1.
         16    1    3    3    0    0 -0.18355070593E+03 -0.56012276004E+02 -0.13090459107E+04  0.13230379560E+04  0.00000000000E+00 0. -1.
    9900018    1    5    5    0    0 -0.45079582921E+02 -0.18088570273E+03 -0.49216922393E+02  0.21328218419E+03  0.91187600000E+02 0.  0.
<mgrwt>
<rscale>  0 0.46069423E+04</rscale>
<asrwt>0</asrwt>
<pdfrwt beam="1">  1        2 0.56447647E+00 0.46069423E+04</pdfrwt>
<pdfrwt beam="2">  1       -2 0.22248104E+00 0.46069423E+04</pdfrwt>
<totfact> 0.43930668E-02</totfact>
</mgrwt>
</event>
<event>
13    1  0.1118844E-007  0.5166181E+04  0.7818608E-02  0.7803371E-01
         -2   -1    0    0    0  501 -0.00000000000E+00  0.00000000000E+00  0.14712291339E+04  0.14712291339E+04  0.00000000000E+00 0.  1.
          2   -1    0    0  501    0  0.00000000000E+00 -0.00000000000E+00 -0.45352261509E+04  0.45352261509E+04  0.00000000000E+00 0. -1.
    9900016    2    1    2    0    0 -0.79454869230E+03  0.46596389965E+03 -0.27008841429E+04  0.36018327231E+04  0.21977246941E+04 0.  0.
         23    2    3    3    0    0  0.21037516886E+03 -0.19177322851E+03  0.26651981331E+03  0.40058666314E+03  0.91663411195E+02 0.  0.
    9900016    2    1    2    0    0  0.79454869230E+03 -0.46596389965E+03 -0.36311287399E+03  0.24046225617E+04  0.21913303550E+04 0.  0.
        -24    2    5    5    0    0 -0.68594651154E+03 -0.34704164176E+03  0.23741399443E+02  0.77306283693E+03  0.78115158450E+02 0.  0.
        -15    1    5    5    0    0  0.86272516756E+03 -0.14944433832E+03 -0.48148767577E+03  0.99922905628E+03  0.00000000000E+00 0.  1.
        -15    1    4    4    0    0  0.32446776651E+02 -0.46864591713E+02  0.10661670038E+03  0.12089749406E+03  0.00000000000E+00 0. -1.
         15    1    4    4    0    0  0.17792839221E+03 -0.14490863680E+03  0.15990311293E+03  0.27968916908E+03  0.00000000000E+00 0.  1.
         15    1    6    6    0    0 -0.49622149889E+03 -0.21101263352E+03  0.13807931172E+02  0.53940037674E+03  0.00000000000E+00 0. -1.
        -16    1    6    6    0    0 -0.18972501266E+03 -0.13602900824E+03  0.99334682715E+01  0.23366246019E+03  0.00000000000E+00 0.  1.
         16    1    3    3    0    0 -0.10049238612E+04  0.65773712816E+03 -0.29674039563E+04  0.32012460599E+04  0.00000000000E+00 0. -1.
    9900018    1    5    5    0    0  0.61777003629E+03  0.30522080425E+02  0.94633402338E+02  0.63233066853E+03  0.91187600000E+02 0.  0.
<mgrwt>
<rscale>  0 0.51661811E+04</rscale>
<asrwt>0</asrwt>
<pdfrwt beam="1">  1        2 0.69772709E+00 0.51661811E+04</pdfrwt>
<pdfrwt beam="2">  1       -2 0.22634295E+00 0.51661811E+04</pdfrwt>
<totfact> 0.72799184E-03</totfact>
</mgrwt>
</event>
<event>
13    1  0.1118844E-007  0.5325040E+04  0.7818608E-02  0.7780233E-01
         -1   -1    0    0    0  501 -0.00000000000E+00  0.00000000000E+00  0.19787602950E+04  0.19787602950E+04  0.00000000000E+00 0.  1.
          1   -1    0    0  501    0  0.00000000000E+00 -0.00000000000E+00 -0.35825527464E+04  0.35825527464E+04  0.00000000000E+00 0. -1.
    9900016    2    1    2    0    0 -0.67533999630E+03 -0.12869360052E+04 -0.11847994082E+04  0.28880543914E+04  0.21965473221E+04 0.  0.
         23    2    3    3    0    0 -0.47192704788E+02  0.19379360922E+03  0.50776222401E+03  0.55312525125E+03  0.91334292990E+02 0.  0.
    9900016    2    1    2    0    0  0.67533999630E+03  0.12869360052E+04 -0.41899304321E+03  0.26732586499E+04  0.22041933325E+04 0.  0.
        -24    2    5    5    0    0  0.27752798709E+03 -0.59555369631E+02 -0.19306528137E+03  0.35253135270E+03  0.80221730781E+02 0.  0.
        -15    1    5    5    0    0  0.16649484166E+03 -0.16089716116E+02  0.65713660871E+03  0.67809139042E+03  0.00000000000E+00 0.  1.
        -15    1    4    4    0    0 -0.37772997201E+02  0.11374466790E+03  0.18484272472E+03  0.22029861932E+03  0.00000000000E+00 0. -1.
         15    1    6    6    0    0  0.27094043130E+03 -0.68236856406E+02 -0.17008825728E+03  0.32710090362E+03  0.00000000000E+00 0. -1.
         15    1    4    4    0    0 -0.94197075871E+01  0.80048941327E+02  0.32291949929E+03  0.33282663193E+03  0.00000000000E+00 0.  1.
        -16    1    6    6    0    0  0.65875557937E+01  0.86814867753E+01 -0.22977024092E+02  0.25430449074E+02  0.00000000000E+00 0.  1.
         16    1    3    3    0    0 -0.62814729151E+03 -0.14807296144E+04 -0.16925616322E+04  0.23349291402E+04  0.00000000000E+00 0. -1.
    9900018    1    5    5    0    0  0.23131716755E+03  0.13625810909E+04 -0.88306437054E+03  0.16426359068E+04  0.91187600000E+02 0.  0.
<mgrwt>
<rscale>  0 0.53250401E+04</rscale>
<asrwt>0</asrwt>
<pdfrwt beam="1">  1        1 0.55116195E+00 0.53250401E+04</pdfrwt>
<pdfrwt beam="2">  1       -1 0.30442466E+00 0.53250401E+04</pdfrwt>
<totfact> 0.46670277E-03</totfact>
</mgrwt>
</event>
<event>
13    1  0.1118844E-007  0.5358296E+04  0.7818608E-02  0.7775494E-01
         -2   -1    0    0    0  501 -0.00000000000E+00  0.00000000000E+00  0.19204185295E+04  0.19204185295E+04  0.00000000000E+00 0.  1.
          2   -1    0    0  501    0  0.00000000000E+00 -0.00000000000E+00 -0.37376408633E+04  0.37376408633E+04  0.00000000000E+00 0. -1.
    9900016    2    1    2    0    0  0.20207339511E+03 -0.87994122056E+03 -0.22246970497E+04  0.32517625739E+04  0.21930692342E+04 0.  0.
         23    2    3    3    0    0 -0.37660961828E+03  0.71922658569E+02  0.29863608914E+03  0.49347886776E+03  0.85616621029E+02 0.  0.
    9900016    2    1    2    0    0 -0.20207339511E+03  0.87994122056E+03  0.40747471587E+03  0.24062968189E+04  0.21929656924E+04 0.  0.
        -24    2    5    5    0    0  0.43874179013E+03 -0.41730855251E+03  0.83093465929E+02  0.61634449294E+03  0.79594117255E+02 0.  0.
        -15    1    4    4    0    0 -0.52696888772E+02 -0.18798816134E+02  0.51862281813E+02  0.76289277419E+02  0.00000000000E+00 0. -1.
        -15    1    5    5    0    0 -0.45031556126E+03  0.31165688066E+03 -0.27959051533E+03  0.61488614575E+03  0.00000000000E+00 0.  1.
         15    1    4    4    0    0 -0.32391272950E+03  0.90721474703E+02  0.24677380733E+03  0.41718959034E+03  0.00000000000E+00 0.  1.
         15    1    6    6    0    0  0.30145499082E+03 -0.33365595970E+03  0.52906517509E+02  0.45276982069E+03  0.00000000000E+00 0. -1.
        -16    1    6    6    0    0  0.13728679931E+03 -0.83652592805E+02  0.30186948420E+02  0.16357467225E+03  0.00000000000E+00 0.  1.
         16    1    3    3    0    0  0.57868301339E+03 -0.95186387912E+03 -0.25233331388E+04  0.27582837062E+04  0.00000000000E+00 0. -1.
    9900018    1    5    5    0    0 -0.19049962398E+03  0.98559289241E+03  0.60397176528E+03  0.11750661802E+04  0.91187600000E+02 0.  0.
<mgrwt>
<rscale>  0 0.53582963E+04</rscale>
<asrwt>0</asrwt>
<pdfrwt beam="1">  1        2 0.57502167E+00 0.53582963E+04</pdfrwt>
<pdfrwt beam="2">  1       -2 0.29544900E+00 0.53582963E+04</pdfrwt>
<totfact> 0.13082556E-02</totfact>
</mgrwt>
</event>
<event>
13    1  0.1118844E-007  0.6366796E+04  0.7818608E-02  0.7646516E-01
         -1   -1    0    0    0  501 -0.00000000000E+00  0.00000000000E+00  0.38381645537E+04  0.38381645537E+04  0.00000000000E+00 0.  1.
          1   -1    0    0  501    0  0.00000000000E+00 -0.00000000000E+00 -0.26403302301E+04  0.26403302301E+04  0.00000000000E+00 0. -1.
    9900016    2    1    2    0    0  0.74547530926E+03 -0.21768628857E+04  0.77504924603E+03  0.32718081428E+04  0.21930713006E+04 0.  0.
         23    2    3    3    0    0 -0.41690147122E+03  0.13781441461E+03  0.49273366278E+03  0.66632299164E+03  0.91652698618E+02 0.  0.
    9900016    2    1    2    0    0 -0.74547530926E+03  0.21768628857E+04  0.42278507760E+03  0.32066866410E+04  0.21930860749E+04 0.  0.
        -24    2    5    5    0    0  0.43780781850E+03  0.95959290240E+03  0.92507747048E+03  0.14052561401E+04  0.80512536551E+02 0.  0.
        -15    1    4    4    0    0 -0.16604507112E+03  0.46896647134E+02  0.13005242256E+03  0.21606455926E+03  0.00000000000E+00 0.  1.
        -15    1    5    5    0    0 -0.95786729596E+03  0.87683930489E+03 -0.28296604009E+03  0.13290698639E+04  0.00000000000E+00 0.  1.
         15    1    6    6    0    0  0.14234793201E+03  0.39888841624E+03  0.39187817869E+03  0.57701248625E+03  0.00000000000E+00 0. -1.
         15    1    4    4    0    0 -0.25085640010E+03  0.90917767476E+02  0.36268124022E+03  0.45025843237E+03  0.00000000000E+00 0. -1.
        -16    1    6    6    0    0  0.29545988650E+03  0.56070448616E+03  0.53319929179E+03  0.82824365382E+03  0.00000000000E+00 0.  1.
         16    1    3    3    0    0  0.11623767805E+04 -0.23146773003E+04  0.28231558325E+03  0.26054851512E+04  0.00000000000E+00 0. -1.
    9900018    1    5    5    0    0 -0.22541583180E+03  0.34043067843E+03 -0.21932635278E+03  0.47236063708E+03  0.91187600000E+02 0.  0.
<mgrwt>
<rscale>  0 0.63667957E+04</rscale>
<asrwt>0</asrwt>
<pdfrwt beam="1">  1        1 0.40620465E+00 0.63667957E+04</pdfrwt>
<pdfrwt beam="2">  1       -1 0.59048686E+00 0.63667957E+04</pdfrwt>
<totfact> 0.34679981E-04</totfact>
</mgrwt>
</event>
<event>
13    1  0.1118844E-007  0.5623342E+04  0.7818608E-02  0.7738942E-01
         -1   -1    0    0    0  501 -0.00000000000E+00  0.00000000000E+00  0.19264425270E+04  0.19264425270E+04  0.00000000000E+00 0.  1.
          1   -1    0    0  501    0  0.00000000000E+00 -0.00000000000E+00 -0.41036747189E+04  0.41036747189E+04  0.00000000000E+00 0. -1.
    9900016    2    1    2    0    0 -0.80486852145E+03  0.13186190121E+04 -0.27014150576E+03  0.27256433112E+04  0.22292567351E+04 0.  0.
         23    2    3    3    0    0  0.19386083146E+03 -0.53784512776E+03 -0.21325625056E+03  0.61681535347E+03  0.90130729772E+02 0.  0.
    9900016    2    1    2    0    0  0.80486852145E+03 -0.13186190121E+04 -0.19070906861E+04  0.33044739346E+04  0.22126869782E+04 0.  0.
         24    2    5    5    0    0 -0.13899600452E+02 -0.15488215735E+03 -0.15506885055E+04  0.15604592125E+04  0.78844347321E+02 0.  0.
        -15    1    4    4    0    0  0.19685282792E+03 -0.45384713750E+03 -0.18023114259E+03  0.52650880794E+03  0.00000000000E+00 0. -1.
        -15    1    6    6    0    0 -0.23338611817E+02 -0.38107726135E+02 -0.21224898105E+03  0.21690209669E+03  0.00000000000E+00 0.  1.
         15    1    4    4    0    0 -0.29919964558E+01 -0.83997990260E+02 -0.33025107973E+02  0.90306545539E+02  0.00000000000E+00 0.  1.
         15    1    5    5    0    0  0.34182737814E+03 -0.79900488775E+02  0.22981324610E+03  0.41957618216E+03  0.00000000000E+00 0. -1.
        -16    1    3    3    0    0 -0.99872935292E+03  0.18564641399E+04 -0.56885255198E+02  0.21088279577E+04  0.00000000000E+00 0.  1.
         16    1    6    6    0    0  0.94390113648E+01 -0.11677443121E+03 -0.13384395245E+04  0.13435571158E+04  0.00000000000E+00 0. -1.
    9900018    1    5    5    0    0  0.47694074377E+03 -0.10838363660E+04 -0.58621542673E+03  0.13244385400E+04  0.91187600000E+02 0.  0.
<mgrwt>
<rscale>  0 0.56233419E+04</rscale>
<asrwt>0</asrwt>
<pdfrwt beam="1">  1        1 0.63133457E+00 0.56233419E+04</pdfrwt>
<pdfrwt beam="2">  1       -1 0.29637577E+00 0.56233419E+04</pdfrwt>
<totfact> 0.18500666E-03</totfact>
</mgrwt>
</event>
<event>
13    1  0.1118844E-007  0.5127443E+04  0.7818608E-02  0.7809143E-01
          2   -1    0    0  501    0  0.00000000000E+00  0.00000000000E+00  0.25316844910E+04  0.25316844910E+04  0.00000000000E+00 0. -1.
         -2   -1    0    0    0  501 -0.00000000000E+00 -0.00000000000E+00 -0.25961635546E+04  0.25961635546E+04  0.00000000000E+00 0.  1.
    9900016    2    1    2    0    0  0.10063287115E+04  0.42575923652E+03 -0.78588786580E+03  0.25746858376E+04  0.21948619596E+04 0.  0.
         23    2    3    3    0    0 -0.50506621181E+03  0.55982947252E+03  0.17405986660E+03  0.77919451447E+03  0.91358292456E+02 0.  0.
    9900016    2    1    2    0    0 -0.10063287115E+04 -0.42575923652E+03  0.72140880216E+03  0.25531622081E+04  0.21918572485E+04 0.  0.
        -24    2    5    5    0    0 -0.55497436840E+03 -0.10867092389E+04 -0.30918589957E+02  0.12233601516E+04  0.81979154467E+02 0.  0.
        -15    1    4    4    0    0 -0.17541084343E+02  0.50912158923E+02  0.22313270096E+02  0.58289103515E+02  0.00000000000E+00 0.  1.
        -15    1    5    5    0    0  0.15349181049E+03  0.16073643161E+03 -0.22176370596E+02  0.22335560827E+03  0.00000000000E+00 0.  1.
         15    1    4    4    0    0 -0.48752512746E+03  0.50891731360E+03  0.15174659650E+03  0.72090541095E+03  0.00000000000E+00 0. -1.
         15    1    6    6    0    0 -0.32946973764E+03 -0.64368238881E+03  0.21981580945E+02  0.72343660094E+03  0.00000000000E+00 0. -1.
        -16    1    6    6    0    0 -0.22550463076E+03 -0.44302685010E+03 -0.52900170902E+02  0.49992355064E+03  0.00000000000E+00 0.  1.
         16    1    3    3    0    0  0.15113949233E+04 -0.13407023601E+03 -0.95994773240E+03  0.17954913231E+04  0.00000000000E+00 0. -1.
    9900018    1    5    5    0    0 -0.60484615360E+03  0.50021357079E+03  0.77450376271E+03  0.11064464482E+04  0.91187600000E+02 0.  0.
<mgrwt>
<rscale>  0 0.51274426E+04</rscale>
<asrwt>0</asrwt>
<pdfrwt beam="1">  1        2 0.38948992E+00 0.51274426E+04</pdfrwt>
<pdfrwt beam="2">  1       -2 0.39940978E+00 0.51274426E+04</pdfrwt>
<totfact> 0.18022372E-02</totfact>
</mgrwt>
</event>
<event>
13    1  0.1118844E-007  0.5209507E+04  0.7818608E-02  0.7796977E-01
         -2   -1    0    0    0  501 -0.00000000000E+00  0.00000000000E+00  0.24729344304E+04  0.24729344304E+04  0.00000000000E+00 0.  1.
          2   -1    0    0  501    0  0.00000000000E+00 -0.00000000000E+00 -0.27435995270E+04  0.27435995270E+04  0.00000000000E+00 0. -1.
    9900016    2    1    2    0    0 -0.83066464893E+02 -0.27457309368E+02 -0.15199195773E+04  0.26857161272E+04  0.22125238198E+04 0.  0.
         23    2    3    3    0    0 -0.11056682422E+04 -0.36067416513E+02 -0.42793722635E+03  0.11896499577E+04  0.91288728420E+02 0.  0.
    9900016    2    1    2    0    0  0.83066464893E+02  0.27457309368E+02  0.12492544808E+04  0.25308178302E+04  0.21992608282E+04 0.  0.
        -24    2    5    5    0    0 -0.75831628996E+03  0.36825255727E+03 -0.99315788799E+02  0.85333531487E+03  0.87544229606E+02 0.  0.
        -15    1    4    4    0    0 -0.15934973203E+02  0.10298404742E+01  0.46143222629E+01  0.16621549637E+02  0.00000000000E+00 0.  1.
        -15    1    5    5    0    0  0.81283141240E+03 -0.36793872952E+03  0.11507661353E+04  0.14561375319E+04  0.00000000000E+00 0.  1.
         15    1    4    4    0    0 -0.10897332690E+04 -0.37097256988E+02 -0.43255154861E+03  0.11730284081E+04  0.00000000000E+00 0. -1.
         15    1    6    6    0    0 -0.52545265663E+03  0.26191098801E+03 -0.10906287911E+03  0.59715372527E+03  0.00000000000E+00 0. -1.
        -16    1    6    6    0    0 -0.23286363333E+03  0.10634156926E+03  0.97470903083E+01  0.25618158960E+03  0.00000000000E+00 0.  1.
         16    1    3    3    0    0  0.10226017773E+04  0.86101071455E+01 -0.10919823509E+04  0.14960661695E+04  0.00000000000E+00 0. -1.
    9900018    1    5    5    0    0  0.28551342450E+02  0.27143481612E+02  0.19780413421E+03  0.22134498335E+03  0.91187600000E+02 0.  0.
<mgrwt>
<rscale>  0 0.52095074E+04</rscale>
<asrwt>0</asrwt>
<pdfrwt beam="1">  1        2 0.42209223E+00 0.52095074E+04</pdfrwt>
<pdfrwt beam="2">  1       -2 0.38045145E+00 0.52095074E+04</pdfrwt>
<totfact> 0.17814243E-02</totfact>
</mgrwt>
</event>
<event>
13    1  0.1118844E-007  0.7530898E+04  0.7818608E-02  0.7525031E-01
         -2   -1    0    0    0  501 -0.00000000000E+00  0.00000000000E+00  0.31605997819E+04  0.31605997819E+04  0.00000000000E+00 0.  1.
          2   -1    0    0  501    0  0.00000000000E+00 -0.00000000000E+00 -0.44860488347E+04  0.44860488347E+04  0.00000000000E+00 0. -1.
    9900016    2    1    2    0    0  0.54487740999E+03 -0.21254297160E+04  0.15001110671E+04  0.34464740370E+04  0.21939706480E+04 0.  0.
         23    2    3    3    0    0 -0.18281356097E+03  0.16792615192E+03 -0.33021676885E+03  0.42337706975E+03  0.92655481144E+02 0.  0.
    9900016    2    1    2    0    0 -0.54487740999E+03  0.21254297160E+04 -0.28255601200E+04  0.42001745797E+04  0.22007575146E+04 0.  0.
         24    2    5    5    0    0  0.47393710914E+03  0.16674159513E+04 -0.23073376190E+04  0.28868856661E+04  0.73550140244E+02 0.  0.
        -15    1    4    4    0    0 -0.14978147583E+03  0.11922317554E+03 -0.30330409800E+03  0.35866702100E+03  0.00000000000E+00 0.  1.
        -15    1    6    6    0    0  0.44059450599E+03  0.15582137794E+04 -0.21233744285E+04  0.26703693873E+04  0.00000000000E+00 0.  1.
         15    1    5    5    0    0 -0.46803904600E+03  0.19969047462E+03  0.14874844692E+00  0.50885838537E+03  0.00000000000E+00 0. -1.
         15    1    4    4    0    0 -0.33032085142E+02  0.48702976381E+02 -0.26912670850E+02  0.64710048752E+02  0.00000000000E+00 0. -1.
        -16    1    3    3    0    0  0.72769097096E+03 -0.22933558679E+04  0.18303278360E+04  0.30230969672E+04  0.00000000000E+00 0.  1.
         16    1    6    6    0    0  0.33342603159E+02  0.10920217185E+03 -0.18396319056E+03  0.21651627884E+03  0.00000000000E+00 0. -1.
    9900018    1    5    5    0    0 -0.55077547314E+03  0.25832329013E+03 -0.51837124939E+03  0.80443052815E+03  0.91187600000E+02 0.  0.
<mgrwt>
<rscale>  0 0.75308977E+04</rscale>
<asrwt>0</asrwt>
<pdfrwt beam="1">  1        2 0.69016136E+00 0.75308977E+04</pdfrwt>
<pdfrwt beam="2">  1       -2 0.48624612E+00 0.75308977E+04</pdfrwt>
<totfact> 0.15329671E-04</totfact>
</mgrwt>
</event>
<event>
13    1  0.1118844E-007  0.6523895E+04  0.7818608E-02  0.7628634E-01
          1   -1    0    0  501    0  0.00000000000E+00  0.00000000000E+00  0.41963722993E+04  0.41963722993E+04  0.00000000000E+00 0. -1.
         -1   -1    0    0    0  501 -0.00000000000E+00 -0.00000000000E+00 -0.25355951619E+04  0.25355951619E+04  0.00000000000E+00 0.  1.
    9900016    2    1    2    0    0  0.16265707328E+04 -0.47443958790E+03 -0.93973123508E+03  0.29360767538E+04  0.22060432088E+04 0.  0.
         23    2    3    3    0    0 -0.34858597280E+03 -0.14283238341E+03 -0.84670327691E+03  0.93111751470E+03  0.90333365258E+02 0.  0.
    9900016    2    1    2    0    0 -0.16265707328E+04  0.47443958790E+03  0.26005083725E+04  0.37958907073E+04  0.21852499160E+04 0.  0.
         24    2    5    5    0    0  0.23153084659E+03 -0.21654882180E+03  0.82925876784E+03  0.89139124816E+03  0.80052033808E+02 0.  0.
        -15    1    4    4    0    0 -0.28668153225E+03 -0.78133089292E+02 -0.62599923395E+03  0.69294020051E+03  0.00000000000E+00 0.  1.
        -15    1    6    6    0    0  0.18430351987E+03 -0.12275755715E+03  0.58539497286E+03  0.62587896555E+03  0.00000000000E+00 0.  1.
         15    1    4    4    0    0 -0.61904440550E+02 -0.64699294120E+02 -0.22070404295E+03  0.23817731419E+03  0.00000000000E+00 0. -1.
         15    1    5    5    0    0 -0.24638731186E+03  0.11323526015E+03 -0.16563859477E+03  0.31775002071E+03  0.00000000000E+00 0. -1.
        -16    1    3    3    0    0  0.19751567056E+04 -0.33160720448E+03 -0.93027958175E+02  0.20049592391E+04  0.00000000000E+00 0.  1.
         16    1    6    6    0    0  0.47227326714E+02 -0.93791264649E+02  0.24386379499E+03  0.26551228261E+03  0.00000000000E+00 0. -1.
    9900018    1    5    5    0    0 -0.16117142675E+04  0.57775314955E+03  0.19368881994E+04  0.25867494384E+04  0.91187600000E+02 0.  0.
<mgrwt>
<rscale>  0 0.65238949E+04</rscale>
<asrwt>0</asrwt>
<pdfrwt beam="1">  1        1 0.64559574E+00 0.65238949E+04</pdfrwt>
<pdfrwt beam="2">  1       -1 0.39009156E+00 0.65238949E+04</pdfrwt>
<totfact> 0.34042268E-04</totfact>
</mgrwt>
</event>
