<event>
12    1  0.6520420E-016  0.2699339E+04  0.7818608E-02  0.8335220E-01
         -2   -1    0    0    0  501 -0.00000000000E+00  0.00000000000E+00  0.57291141169E+03  0.57291141169E+03  0.00000000000E+00 0.  1.
          2   -1    0    0  501    0  0.00000000000E+00 -0.00000000000E+00 -0.31795623922E+04  0.31795623922E+04  0.00000000000E+00 0. -1.
         23    2    1    2    0    0  0.25158538523E+03 -0.19351538106E+02 -0.10135653377E+04  0.10472066818E+04  0.75216039798E+02 0.  0.
    9900016    2    1    2    0    0 -0.26098141718E+03 -0.41534979999E+02 -0.17111420851E+04  0.25721026484E+04  0.19020694897E+04 0.  0.
         24    2    4    4    0    0  0.68542978885E+03 -0.22403657695E+02 -0.15480652181E+03  0.71127042362E+03  0.10781760985E+03 0.  0.
        -15    1    3    3    0    0  0.13363878189E+03  0.16798104455E+02 -0.42422887765E+03  0.44509733876E+03  0.00000000000E+00 0. -1.
        -15    1    5    5    0    0  0.47017039851E+03 -0.65071065319E+02 -0.99699200207E+02  0.48500966764E+03  0.00000000000E+00 0.  1.
         15    1    3    3    0    0  0.11794660333E+03 -0.36149642561E+02 -0.58933646003E+03  0.60210934307E+03  0.00000000000E+00 0.  1.
         15    1    4    4    0    0 -0.86565270319E+03 -0.24958982739E+02 -0.14863313728E+04  0.17202204809E+04  0.00000000000E+00 0. -1.
        -16    1    1    2    0    0  0.93960319588E+01  0.60886518105E+02  0.11805644226E+03  0.13316447373E+03  0.00000000000E+00 0.  1.
         16    1    5    5    0    0  0.21525939034E+03  0.42667407624E+02 -0.55107321602E+02  0.22626075598E+03  0.00000000000E+00 0. -1.
    9900018    1    4    4    0    0 -0.80758502851E+02  0.58276604346E+01 -0.70004190526E+02  0.14061174380E+03  0.91187600000E+02 0.  0.
<mgrwt>
<rscale>  0 0.26993389E+04</rscale>
<asrwt>0</asrwt>
<pdfrwt beam="1">  1        2 0.48916345E+00 0.26993389E+04</pdfrwt>
<pdfrwt beam="2">  1       -2 0.88140216E-01 0.26993389E+04</pdfrwt>
<totfact> 0.13006569E+00</totfact>
</mgrwt>
</event>
<event>
12    1  0.6520420E-016  0.2245418E+04  0.7818608E-02  0.9147718E-01
          1   -1    0    0  501    0  0.00000000000E+00  0.00000000000E+00  0.18065083750E+04  0.18065083750E+04  0.00000000000E+00 0. -1.
         -1   -1    0    0    0  501 -0.00000000000E+00 -0.00000000000E+00 -0.87954097358E+03  0.87954097358E+03  0.00000000000E+00 0.  1.
         23    2    1    2    0    0  0.97268663490E+02  0.56923153188E+02  0.32324530660E+03  0.36088627704E+03  0.11423632718E+03 0.  0.
    9900016    2    1    2    0    0  0.19753239311E+03  0.45159622305E+02  0.64997629215E+03  0.20097775823E+04  0.18909464065E+04 0.  0.
        -24    2    4    4    0    0  0.29450686676E+03  0.30874561165E+03  0.11940629739E+04  0.12713569584E+04  0.92217042626E+02 0.  0.
        -15    1    3    3    0    0  0.10865230609E+03  0.66926445298E+01  0.21311403883E+03  0.23930672505E+03  0.00000000000E+00 0. -1.
        -15    1    4    4    0    0 -0.88614859936E+02 -0.24554747636E+03 -0.58186045810E+03  0.63773642615E+03  0.00000000000E+00 0.  1.
         15    1    5    5    0    0  0.10151079481E+03  0.70124559125E+02  0.44693937633E+03  0.46365580054E+03  0.00000000000E+00 0.  1.
         15    1    3    3    0    0 -0.11383642604E+02  0.50230508658E+02  0.11013126778E+03  0.12157955199E+03  0.00000000000E+00 0. -1.
        -16    1    5    5    0    0  0.19299607195E+03  0.23862105252E+03  0.74712359753E+03  0.80770115790E+03  0.00000000000E+00 0.  1.
         16    1    1    2    0    0 -0.29480105660E+03 -0.10208277549E+03 -0.46254197371E+02  0.31538548921E+03  0.00000000000E+00 0. -1.
    9900018    1    4    4    0    0 -0.83596137056E+01 -0.18038512985E+02  0.37773776382E+02  0.10068419771E+03  0.91187600000E+02 0.  0.
<mgrwt>
<rscale>  0 0.11609753E+04</rscale>
<asrwt>0</asrwt>
<pdfrwt beam="1">  1        1 0.27792436E+00 0.22454182E+04</pdfrwt>
<pdfrwt beam="2">  1       -1 0.13531400E+00 0.22454182E+04</pdfrwt>
<totfact> 0.16632033E+00</totfact>
</mgrwt>
</event>
<event>
12    1  0.6520420E-016  0.3514835E+04  0.7818608E-02  0.8884992E-01
          1   -1    0    0  501    0  0.00000000000E+00  0.00000000000E+00  0.13906371958E+04  0.13906371958E+04  0.00000000000E+00 0. -1.
         -1   -1    0    0    0  501 -0.00000000000E+00 -0.00000000000E+00 -0.24065766173E+04  0.24065766173E+04  0.00000000000E+00 0.  1.
         23    2    1    2    0    0  0.22191339768E+02  0.11267348480E+02  0.46546186305E+02  0.12530133274E+03  0.11364184011E+03 0.  0.
    9900016    2    1    2    0    0  0.29742328454E+03  0.55064375036E+03 -0.18074480142E+04  0.26855724893E+04  0.18851424671E+04 0.  0.
        -24    2    4    4    0    0  0.39319477516E+02  0.10883386366E+04 -0.55305676022E+03  0.12253797206E+04  0.98268358450E+02 0.  0.
        -15    1    3    3    0    0 -0.11128245056E+02  0.57932341013E+02  0.23069101923E+02  0.63341751135E+02  0.00000000000E+00 0.  1.
        -15    1    4    4    0    0  0.24154631849E+03 -0.57489842745E+03 -0.11834706929E+04  0.13377053887E+04  0.00000000000E+00 0.  1.
         15    1    5    5    0    0  0.64125224848E+01  0.50729106459E+03 -0.20443523744E+03  0.54697267844E+03  0.00000000000E+00 0. -1.
         15    1    3    3    0    0  0.33319584825E+02 -0.46664992533E+02  0.23477084382E+02  0.61959581600E+02  0.00000000000E+00 0. -1.
        -16    1    5    5    0    0  0.32906955031E+02  0.58104757203E+03 -0.34862152279E+03  0.67840704213E+03  0.00000000000E+00 0.  1.
         16    1    1    2    0    0 -0.31961462431E+03 -0.56191109884E+03  0.74496240638E+03  0.98633999107E+03  0.00000000000E+00 0. -1.
    9900018    1    4    4    0    0  0.16557488538E+02  0.37203541183E+02 -0.70920561018E+02  0.12248738005E+03  0.91187600000E+02 0.  0.
<mgrwt>
<rscale>  0 0.14991894E+04</rscale>
<asrwt>0</asrwt>
<pdfrwt beam="1">  1        1 0.21394419E+00 0.35148351E+04</pdfrwt>
<pdfrwt beam="2">  1       -1 0.37024255E+00 0.35148351E+04</pdfrwt>
<totfact> 0.71954599E-02</totfact>
</mgrwt>
</event>
<event>
11    1  0.6520420E-016  0.2833398E+04  0.7818608E-02  0.8786084E-01
          2   -1    0    0  501    0  0.00000000000E+00  0.00000000000E+00  0.16991328604E+04  0.16991328604E+04  0.00000000000E+00 0. -1.
         -2   -1    0    0    0  501 -0.00000000000E+00 -0.00000000000E+00 -0.15311852411E+04  0.15311852411E+04  0.00000000000E+00 0.  1.
         23    2    1    2    0    0 -0.11150531577E+03 -0.30370814284E+03 -0.17708905013E+03  0.37598873857E+03  0.73040594070E+02 0.  0.
    9900016    2    1    2    0    0 -0.35336004811E+03  0.19885998249E+03  0.88815694296E+03  0.21317834649E+04  0.18950644763E+04 0.  0.
        -15    1    3    3    0    0 -0.46521478805E+02 -0.13208784940E+03 -0.36234735606E+02  0.14465270137E+03  0.00000000000E+00 0. -1.
        -15    1    4    4    0    0 -0.10490258195E+04  0.11757597785E+03  0.31437752589E+03  0.11014138683E+04  0.00000000000E+00 0.  1.
         15    1    4    4    0    0  0.43564248919E+03  0.55930666452E+02  0.34247156093E+03  0.55695546310E+03  0.00000000000E+00 0. -1.
         15    1    3    3    0    0 -0.64983836963E+02 -0.17162029345E+03 -0.14085431452E+03  0.23133603720E+03  0.00000000000E+00 0.  1.
        -16    1    4    4    0    0  0.30330684124E+03  0.12359594641E+02  0.13132902251E+03  0.33074931848E+03  0.00000000000E+00 0.  1.
         16    1    1    2    0    0  0.46486536388E+03  0.10484816035E+03 -0.54312027354E+03  0.72254589805E+03  0.00000000000E+00 0. -1.
    9900018    1    4    4    0    0 -0.43283559024E+02  0.12993743554E+02  0.99978833632E+02  0.14266481494E+03  0.91187600000E+02 0.  0.
<mgrwt>
<rscale>  0 0.16573272E+04</rscale>
<asrwt>0</asrwt>
<pdfrwt beam="1">  1        2 0.26140505E+00 0.28333983E+04</pdfrwt>
<pdfrwt beam="2">  1       -2 0.23556696E+00 0.28333983E+04</pdfrwt>
<totfact> 0.66329935E-01</totfact>
</mgrwt>
</event>
<event>
12    1  0.6520421E-016  0.2371714E+04  0.7818608E-02  0.9251920E-01
          1   -1    0    0  501    0  0.00000000000E+00  0.00000000000E+00  0.12010793060E+04  0.12010793060E+04  0.00000000000E+00 0. -1.
         -1   -1    0    0    0  501 -0.00000000000E+00 -0.00000000000E+00 -0.12763129418E+04  0.12763129418E+04  0.00000000000E+00 0.  1.
         23    2    1    2    0    0  0.59840192505E+02  0.21603855258E+02 -0.51270330513E+02  0.10555736990E+03  0.66829157917E+02 0.  0.
    9900016    2    1    2    0    0 -0.29788502742E+03  0.21221156988E+03  0.24475982473E+03  0.19434108858E+04  0.18929261104E+04 0.  0.
         24    2    4    4    0    0  0.14853866612E+03  0.77885998842E+03 -0.40765732069E+03  0.89328234213E+03  0.55517877862E+02 0.  0.
        -15    1    5    5    0    0  0.12273088615E+03  0.72243252207E+03 -0.37677960569E+03  0.82397481189E+03  0.00000000000E+00 0.  1.
        -15    1    3    3    0    0  0.34401171628E+02  0.31339081643E+02 -0.60919958170E+02  0.76660419716E+02  0.00000000000E+00 0.  1.
         15    1    4    4    0    0 -0.39681418720E+03 -0.58753437359E+03  0.61265901266E+03  0.93702145392E+03  0.00000000000E+00 0. -1.
         15    1    3    3    0    0  0.25439020876E+02 -0.97352263844E+01  0.96496276570E+01  0.28896950182E+02  0.00000000000E+00 0. -1.
        -16    1    1    2    0    0  0.23804483492E+03 -0.23381542513E+03 -0.26872312995E+03  0.42842399213E+03  0.00000000000E+00 0.  1.
         16    1    5    5    0    0  0.25807779962E+02  0.56427466350E+02 -0.30877715002E+02  0.69307530247E+02  0.00000000000E+00 0. -1.
    9900018    1    4    4    0    0 -0.49609506341E+02  0.20885955045E+02  0.39758132758E+02  0.11310708975E+03  0.91187600000E+02 0.  0.
<mgrwt>
<rscale>  0 0.10533230E+04</rscale>
<asrwt>0</asrwt>
<pdfrwt beam="1">  1        1 0.18478143E+00 0.23717138E+04</pdfrwt>
<pdfrwt beam="2">  1       -1 0.19635584E+00 0.23717138E+04</pdfrwt>
<totfact> 0.15231927E+00</totfact>
</mgrwt>
</event>
<event>
11    1  0.6520420E-016  0.2533262E+04  0.7818608E-02  0.8391231E-01
         -1   -1    0    0    0  501 -0.00000000000E+00  0.00000000000E+00  0.66646640094E+03  0.66646640094E+03  0.00000000000E+00 0.  1.
          1   -1    0    0  501    0  0.00000000000E+00 -0.00000000000E+00 -0.24072539102E+04  0.24072539102E+04  0.00000000000E+00 0. -1.
         23    2    1    2    0    0  0.19340888354E+03  0.16560640573E+03 -0.88127631447E+02  0.27734758529E+03  0.65747439442E+02 0.  0.
    9900016    2    1    2    0    0 -0.20549234022E+03 -0.17963199684E+03 -0.10387308520E+04  0.21821646374E+04  0.18995752067E+04 0.  0.
        -15    1    4    4    0    0 -0.32318552076E+03 -0.85566823100E+03 -0.99088940456E+03  0.13485098496E+04  0.00000000000E+00 0.  1.
        -15    1    3    3    0    0  0.18276931986E+03  0.17062624301E+03 -0.78272972352E+02  0.26200113986E+03  0.00000000000E+00 0.  1.
         15    1    3    3    0    0  0.10639563675E+02 -0.50198372816E+01 -0.98546590953E+01  0.15346445433E+02  0.00000000000E+00 0. -1.
         15    1    4    4    0    0  0.11602216709E+03  0.40751910465E+03 -0.29208118706E+02  0.42471882241E+03  0.00000000000E+00 0. -1.
        -16    1    4    4    0    0  0.52354914658E+02  0.29598770358E+03 -0.10999509321E+02  0.30078355501E+03  0.00000000000E+00 0.  1.
         16    1    1    2    0    0  0.12083456686E+02  0.14025591112E+02 -0.61392902581E+03  0.61420808841E+03  0.00000000000E+00 0. -1.
    9900018    1    4    4    0    0 -0.50683901215E+02 -0.27470574073E+02 -0.76338193844E+01  0.10815241040E+03  0.91187600000E+02 0.  0.
<mgrwt>
<rscale>  0 0.25332618E+04</rscale>
<asrwt>0</asrwt>
<pdfrwt beam="1">  1        1 0.37034675E+00 0.25332618E+04</pdfrwt>
<pdfrwt beam="2">  1       -1 0.10253329E+00 0.25332618E+04</pdfrwt>
<totfact> 0.12512900E+00</totfact>
</mgrwt>
</event>
<event>
12    1  0.6520420E-016  0.3510784E+04  0.7818608E-02  0.8721678E-01
         -2   -1    0    0    0  501 -0.00000000000E+00  0.00000000000E+00  0.19807169891E+04  0.19807169891E+04  0.00000000000E+00 0.  1.
          2   -1    0    0  501    0  0.00000000000E+00 -0.00000000000E+00 -0.18830652326E+04  0.18830652326E+04  0.00000000000E+00 0. -1.
         23    2    1    2    0    0  0.19864872012E+03  0.35817382164E+02  0.26467897371E+03  0.34902697378E+03  0.10497938097E+03 0.  0.
    9900016    2    1    2    0    0  0.11041037830E+02 -0.35189226708E+03 -0.12995868409E+04  0.23203665219E+04  0.18897684427E+04 0.  0.
         24    2    4    4    0    0  0.31986430867E+03 -0.64493405814E+03  0.16258061858E+03  0.73999486057E+03  0.53914940605E+02 0.  0.
        -15    1    3    3    0    0  0.65895888895E+02  0.63583225895E+02  0.97625809259E+02  0.13385026493E+03  0.00000000000E+00 0.  1.
        -15    1    5    5    0    0  0.17877962688E+03 -0.31698009469E+03  0.62800908412E+02  0.36929999934E+03  0.00000000000E+00 0.  1.
         15    1    4    4    0    0 -0.30134597888E+03  0.33845353020E+03 -0.13692377947E+04  0.14422802534E+04  0.00000000000E+00 0. -1.
         15    1    3    3    0    0  0.13275283122E+03 -0.27765843731E+02  0.16705316445E+03  0.21517670885E+03  0.00000000000E+00 0. -1.
        -16    1    1    2    0    0 -0.20968975795E+03  0.31607488491E+03  0.11325596237E+04  0.11943887260E+04  0.00000000000E+00 0.  1.
         16    1    5    5    0    0  0.14108468179E+03 -0.32795396345E+03  0.99779710169E+02  0.37069486123E+03  0.00000000000E+00 0. -1.
    9900018    1    4    4    0    0 -0.74772919629E+01 -0.45411739132E+02 -0.92929664817E+02  0.13809140793E+03  0.91187600000E+02 0.  0.
<mgrwt>
<rscale>  0 0.17713627E+04</rscale>
<asrwt>0</asrwt>
<pdfrwt beam="1">  1        2 0.28970234E+00 0.35107843E+04</pdfrwt>
<pdfrwt beam="2">  1       -2 0.30472569E+00 0.35107843E+04</pdfrwt>
<totfact> 0.18701265E-01</totfact>
</mgrwt>
</event>
