<event>
12    1  0.6093202E-010  0.3301785E+04  0.7818608E-02  0.8917224E-01
          2   -1    0    0  501    0  0.00000000000E+00  0.00000000000E+00  0.18260057463E+04  0.18260057463E+04  0.00000000000E+00 0. -1.
         -2   -1    0    0    0  501 -0.00000000000E+00 -0.00000000000E+00 -0.23923893539E+04  0.23923893539E+04  0.00000000000E+00 0.  1.
         24    2    1    2    0    0 -0.79405488747E+02  0.49570235714E+02  0.67857204675E+03  0.68969819848E+03  0.80381231880E+02 0.  0.
    9900016    2    1    2    0    0  0.78380339562E+02  0.29159479942E+03 -0.83443785794E+03  0.20447969528E+04  0.18422098238E+04 0.  0.
        -24    2    4    4    0    0  0.36735447337E+03  0.10059146945E+04 -0.63970535498E+03  0.12500141459E+04  0.80614776002E+02 0.  0.
        -15    1    4    4    0    0 -0.28897413381E+03 -0.71431989505E+03 -0.19473250296E+03  0.79478280693E+03  0.00000000000E+00 0.  1.
        -15    1    3    3    0    0 -0.93468088442E+02  0.28009734427E+02  0.54600835310E+03  0.55465840878E+03  0.00000000000E+00 0.  1.
         15    1    5    5    0    0  0.24677665510E+03  0.56882435715E+03 -0.38750191123E+03  0.73117549056E+03  0.00000000000E+00 0. -1.
         15    1    1    2    0    0 -0.11135007312E+02 -0.30804641307E+03  0.48956379087E+03  0.57852336714E+03  0.00000000000E+00 0. -1.
        -16    1    5    5    0    0  0.12057781827E+03  0.43709033732E+03 -0.25220344375E+03  0.51883865534E+03  0.00000000000E+00 0.  1.
         16    1    3    3    0    0  0.14062599695E+02  0.21560501287E+02  0.13256369365E+03  0.13503978970E+03  0.00000000000E+00 0. -1.
    9900018    1    1    2    0    0  0.12160156497E+02 -0.33118622063E+02 -0.90008158732E+03  0.90537658174E+03  0.91187600000E+02 0.  0.
<mgrwt>
<rscale>  0 0.14516979E+04</rscale>
<asrwt>0</asrwt>
<pdfrwt beam="1">  1        2 0.28092396E+00 0.33017855E+04</pdfrwt>
<pdfrwt beam="2">  1       -2 0.36805990E+00 0.33017855E+04</pdfrwt>
<totfact> 0.80872463E-02</totfact>
</mgrwt>
</event>
<event>
12    1  0.6093202E-010  0.3500824E+04  0.7818608E-02  0.8801988E-01
         -4   -1    0    0    0  501 -0.00000000000E+00  0.00000000000E+00  0.16005892333E+04  0.16005892333E+04  0.00000000000E+00 0.  1.
          4   -1    0    0  501    0  0.00000000000E+00 -0.00000000000E+00 -0.22387230330E+04  0.22387230330E+04  0.00000000000E+00 0. -1.
         24    2    1    2    0    0 -0.14294003573E+03 -0.25661346275E+02 -0.27384425715E+03  0.31958612224E+03  0.77809085865E+02 0.  0.
    9900016    2    1    2    0    0 -0.32126988762E+03 -0.29880100496E+03 -0.63136145987E+03  0.19976251175E+04  0.18437441352E+04 0.  0.
        -24    2    4    4    0    0  0.71196212079E+02 -0.55340537927E+03  0.51224594244E+03  0.76203177122E+03  0.83487126971E+02 0.  0.
        -15    1    4    4    0    0 -0.39246609970E+03  0.25460437431E+03 -0.11436074023E+04  0.12355933463E+04  0.00000000000E+00 0.  1.
        -15    1    3    3    0    0 -0.14135914224E+03 -0.42672260495E+02 -0.24422921976E+03  0.28539663750E+03  0.00000000000E+00 0.  1.
         15    1    1    2    0    0 -0.48024478919E+03  0.24625752501E+03  0.27730217263E+02  0.54041353713E+03  0.00000000000E+00 0. -1.
         15    1    5    5    0    0  0.48590198737E+02 -0.30474540754E+03  0.22794006865E+03  0.38365016060E+03  0.00000000000E+00 0. -1.
        -16    1    5    5    0    0  0.22606013342E+02 -0.24865997173E+03  0.28430587379E+03  0.37838161062E+03  0.00000000000E+00 0.  1.
         16    1    3    3    0    0 -0.15808934882E+01  0.17010914220E+02 -0.29615037397E+02  0.34189484741E+02  0.00000000000E+00 0. -1.
    9900018    1    1    2    0    0  0.94445471254E+03  0.78204826232E+02  0.23934170008E+03  0.98168748931E+03  0.91187600000E+02 0.  0.
<mgrwt>
<rscale>  0 0.16305650E+04</rscale>
<asrwt>0</asrwt>
<pdfrwt beam="1">  1        4 0.34441893E+00 0.35008235E+04</pdfrwt>
<pdfrwt beam="2">  1       -4 0.24624450E+00 0.35008235E+04</pdfrwt>
<totfact> 0.17139618E-03</totfact>
</mgrwt>
</event>
<event>
12    1  0.6093202E-010  0.3944889E+04  0.7818608E-02  0.8015757E-01
         -2   -1    0    0    0  501 -0.00000000000E+00  0.00000000000E+00  0.29141796714E+04  0.29141796714E+04  0.00000000000E+00 0.  1.
          2   -1    0    0  501    0  0.00000000000E+00 -0.00000000000E+00 -0.13350371129E+04  0.13350371129E+04  0.00000000000E+00 0. -1.
         24    2    1    2    0    0 -0.72177429545E+03 -0.35564514703E+03  0.56682096997E+03  0.98740823385E+03  0.79040521829E+02 0.  0.
    9900016    2    1    2    0    0  0.60972065505E+03  0.34171130353E+03  0.67180185156E+03  0.20830463543E+04  0.18437023877E+04 0.  0.
        -24    2    4    4    0    0  0.23788463505E+03  0.61618043637E+02 -0.64058978226E+03  0.69053565040E+03  0.78091820541E+02 0.  0.
        -15    1    3    3    0    0 -0.21785714254E+03 -0.67757455565E+02  0.16145263097E+03  0.27949912233E+03  0.00000000000E+00 0.  1.
        -15    1    4    4    0    0  0.37183602000E+03  0.28009325990E+03  0.13123916338E+04  0.13925107039E+04  0.00000000000E+00 0.  1.
         15    1    1    2    0    0 -0.60614490363E+02 -0.27328585259E+03 -0.32447353464E+03  0.42853511916E+03  0.00000000000E+00 0. -1.
         15    1    5    5    0    0  0.11612168661E+03 -0.10032875777E+02 -0.29274500620E+03  0.31509449908E+03  0.00000000000E+00 0. -1.
        -16    1    5    5    0    0  0.12176294844E+03  0.71650919413E+02 -0.34784477607E+03  0.37544115132E+03  0.00000000000E+00 0.  1.
         16    1    3    3    0    0 -0.50391715292E+03 -0.28788769146E+03  0.40536833900E+03  0.70790911152E+03  0.00000000000E+00 0. -1.
    9900018    1    1    2    0    0  0.17266813076E+03  0.28721969608E+03  0.66499327162E+03  0.75022707688E+03  0.91187600000E+02 0.  0.
<mgrwt>
<rscale>  0 0.39448894E+04</rscale>
<asrwt>0</asrwt>
<pdfrwt beam="1">  1        2 0.20539033E+00 0.39448894E+04</pdfrwt>
<pdfrwt beam="2">  1       -2 0.44833533E+00 0.39448894E+04</pdfrwt>
<totfact> 0.44487261E-02</totfact>
</mgrwt>
</event>
<event>
12    1  0.6093202E-010  0.4515113E+04  0.7818608E-02  0.8341106E-01
          3   -1    0    0  501    0  0.00000000000E+00  0.00000000000E+00  0.33376015786E+04  0.33376015786E+04  0.00000000000E+00 0. -1.
         -3   -1    0    0    0  501 -0.00000000000E+00 -0.00000000000E+00 -0.19431170671E+04  0.19431170671E+04  0.00000000000E+00 0.  1.
        -24    2    1    2    0    0  0.39870621055E+03  0.38693411601E+03  0.23326938874E+02  0.56199822957E+03  0.81321654562E+02 0.  0.
    9900016    2    1    2    0    0  0.60355847804E+03 -0.57560558796E+02  0.96583273745E+03  0.21614654811E+04  0.18361655957E+04 0.  0.
         24    2    4    4    0    0 -0.50717870071E+03 -0.38670697217E+03 -0.15938268973E+02  0.64293041372E+03  0.79579970424E+02 0.  0.
        -15    1    5    5    0    0 -0.61884555015E+02 -0.62089475556E+02 -0.27114278954E+02  0.91760477589E+02  0.00000000000E+00 0.  1.
        -15    1    1    2    0    0 -0.16132951311E+04 -0.56820561032E+03 -0.11597916749E+03  0.17143599280E+04  0.00000000000E+00 0.  1.
         15    1    4    4    0    0  0.11107371787E+04  0.32914641337E+03  0.98177100643E+03  0.15185350673E+04  0.00000000000E+00 0. -1.
         15    1    3    3    0    0  0.62504637170E+02  0.92064119590E+02 -0.18696580470E+02  0.11283702364E+03  0.00000000000E+00 0. -1.
        -16    1    3    3    0    0  0.33620157338E+03  0.29486999642E+03  0.42023519344E+02  0.44916120592E+03  0.00000000000E+00 0.  1.
         16    1    5    5    0    0 -0.44529414569E+03 -0.32461749662E+03  0.11176009981E+02  0.55116993613E+03  0.00000000000E+00 0. -1.
    9900018    1    1    2    0    0  0.61103044248E+03  0.23883205311E+03  0.52130400272E+03  0.84289500703E+03  0.91187600000E+02 0.  0.
<mgrwt>
<rscale>  0 0.26812770E+04</rscale>
<asrwt>0</asrwt>
<pdfrwt beam="1">  1        3 0.51347717E+00 0.45151134E+04</pdfrwt>
<pdfrwt beam="2">  1       -3 0.29894109E+00 0.45151134E+04</pdfrwt>
<totfact> 0.21535786E-04</totfact>
</mgrwt>
</event>
<event>
12    1  0.6093202E-010  0.2755029E+04  0.7818608E-02  0.9014731E-01
         -2   -1    0    0    0  501 -0.00000000000E+00  0.00000000000E+00  0.17285938821E+04  0.17285938821E+04  0.00000000000E+00 0.  1.
          2   -1    0    0  501    0  0.00000000000E+00 -0.00000000000E+00 -0.12193363853E+04  0.12193363853E+04  0.00000000000E+00 0. -1.
         24    2    1    2    0    0 -0.64036297707E+02 -0.10249265698E+03  0.59441073733E+02  0.15642222627E+03  0.79556768828E+02 0.  0.
    9900016    2    1    2    0    0  0.17207519086E+03  0.13334004426E+03  0.37104403828E+03  0.18949196457E+04  0.18454423173E+04 0.  0.
        -24    2    4    4    0    0  0.13464874120E+03  0.46077414918E+03  0.10404900196E+04  0.11487482484E+04  0.80993561997E+02 0.  0.
        -15    1    4    4    0    0  0.37426449653E+02 -0.32743410492E+03 -0.66944598135E+03  0.74617139730E+03  0.00000000000E+00 0.  1.
        -15    1    3    3    0    0 -0.17503542109E+02  0.78560215966E+01  0.25567113680E+02  0.31965111663E+02  0.00000000000E+00 0.  1.
         15    1    1    2    0    0  0.31819240159E+03  0.16020387230E+03 -0.12685239418E+03  0.37815765897E+03  0.00000000000E+00 0. -1.
         15    1    5    5    0    0  0.13549713455E+02  0.10917219784E+03  0.17439592867E+03  0.20619433419E+03  0.00000000000E+00 0. -1.
        -16    1    5    5    0    0  0.12109902775E+03  0.35160195134E+03  0.86609409096E+03  0.94255391417E+03  0.00000000000E+00 0.  1.
         16    1    3    3    0    0 -0.46532755598E+02 -0.11034867857E+03  0.33873960052E+02  0.12445711461E+03  0.00000000000E+00 0. -1.
    9900018    1    1    2    0    0 -0.42623129474E+03 -0.19105125958E+03  0.20562477892E+03  0.51843073646E+03  0.91187600000E+02 0.  0.
<mgrwt>
<rscale>  0 0.13188728E+04</rscale>
<asrwt>0</asrwt>
<pdfrwt beam="1">  1        2 0.18759021E+00 0.27550286E+04</pdfrwt>
<pdfrwt beam="2">  1       -2 0.26593752E+00 0.27550286E+04</pdfrwt>
<totfact> 0.82236500E-01</totfact>
</mgrwt>
</event>
<event>
12    1  0.6093202E-010  0.3352043E+04  0.7818608E-02  0.8913889E-01
         -1   -1    0    0    0  501 -0.00000000000E+00  0.00000000000E+00  0.11522227930E+04  0.11522227930E+04  0.00000000000E+00 0.  1.
          1   -1    0    0  501    0  0.00000000000E+00 -0.00000000000E+00 -0.26435868793E+04  0.26435868793E+04  0.00000000000E+00 0. -1.
         24    2    1    2    0    0  0.65372223647E+02  0.66051194584E+02 -0.13354357106E+03  0.17919968567E+03  0.75115604514E+02 0.  0.
    9900016    2    1    2    0    0 -0.98905677591E+02 -0.33915482032E+03 -0.72908689856E+03  0.20140136038E+04  0.18438749322E+04 0.  0.
        -24    2    4    4    0    0  0.50261311186E+03  0.23430908898E+03 -0.99461092043E+03  0.11415523064E+04  0.79812880021E+02 0.  0.
        -15    1    3    3    0    0  0.67944874983E+02  0.79026446762E+02 -0.10604505998E+03  0.14868503647E+03  0.00000000000E+00 0.  1.
        -15    1    4    4    0    0 -0.60151878945E+03 -0.57346390930E+03  0.26552402186E+03  0.87246129743E+03  0.00000000000E+00 0.  1.
         15    1    5    5    0    0  0.10065565140E+03  0.14322715400E+02 -0.19707087063E+03  0.22175127595E+03  0.00000000000E+00 0. -1.
         15    1    1    2    0    0 -0.27977915911E+03  0.29998514619E+03 -0.10158730355E+04  0.10955662874E+04  0.00000000000E+00 0. -1.
        -16    1    5    5    0    0  0.40195746046E+03  0.21998637358E+03 -0.79754004980E+03  0.91980103045E+03  0.00000000000E+00 0.  1.
         16    1    3    3    0    0 -0.25726513354E+01 -0.12975252178E+02 -0.27498511083E+02  0.30514649199E+02  0.00000000000E+00 0. -1.
    9900018    1    1    2    0    0  0.31331261306E+03 -0.26881520454E+02  0.38713941878E+03  0.50703009537E+03  0.91187600000E+02 0.  0.
<mgrwt>
<rscale>  0 0.14565255E+04</rscale>
<asrwt>0</asrwt>
<pdfrwt beam="1">  1        1 0.40670568E+00 0.33520428E+04</pdfrwt>
<pdfrwt beam="2">  1       -1 0.17726504E+00 0.33520428E+04</pdfrwt>
<totfact> 0.19249373E-01</totfact>
</mgrwt>
</event>
<event>
12    1  0.6093202E-010  0.3876548E+04  0.7818608E-02  0.8840445E-01
          2   -1    0    0  501    0  0.00000000000E+00  0.00000000000E+00  0.26083781987E+04  0.26083781987E+04  0.00000000000E+00 0. -1.
         -2   -1    0    0    0  501 -0.00000000000E+00 -0.00000000000E+00 -0.15188300420E+04  0.15188300420E+04  0.00000000000E+00 0.  1.
         24    2    1    2    0    0  0.66003031834E+02  0.49625299561E+01  0.38751242275E+02  0.11076683693E+03  0.79916246602E+02 0.  0.
    9900016    2    1    2    0    0  0.20374124311E+02 -0.54337697343E+03  0.11926397668E+04  0.22694150508E+04  0.18526147519E+04 0.  0.
        -24    2    4    4    0    0  0.24526012439E+03 -0.84662418158E+03  0.15271817514E+04  0.17649837653E+04  0.77191687741E+02 0.  0.
        -15    1    3    3    0    0 -0.11257910937E+02 -0.19553537098E+02  0.60344273200E+01  0.23355849049E+02  0.00000000000E+00 0.  1.
        -15    1    4    4    0    0 -0.22488600008E+03  0.30324720814E+03 -0.33454198455E+03  0.50443128541E+03  0.00000000000E+00 0.  1.
         15    1    1    2    0    0  0.25316630059E+03 -0.30428040353E+03  0.49498689220E+03  0.63379157708E+03  0.00000000000E+00 0. -1.
         15    1    5    5    0    0  0.16290469502E+03 -0.42445606413E+03  0.77663340677E+03  0.89992240696E+03  0.00000000000E+00 0. -1.
        -16    1    5    5    0    0  0.82355429367E+02 -0.42216811745E+03  0.75054834463E+03  0.86506135838E+03  0.00000000000E+00 0.  1.
         16    1    3    3    0    0  0.77260942771E+02  0.24516067054E+02  0.32716814955E+02  0.87410987882E+02  0.00000000000E+00 0. -1.
    9900018    1    1    2    0    0 -0.33954345673E+03  0.84269484701E+03 -0.63682974463E+03  0.11132347759E+04  0.91187600000E+02 0.  0.
<mgrwt>
<rscale>  0 0.15680104E+04</rscale>
<asrwt>0</asrwt>
<pdfrwt beam="1">  1        2 0.40128895E+00 0.38765484E+04</pdfrwt>
<pdfrwt beam="2">  1       -2 0.23366616E+00 0.38765484E+04</pdfrwt>
<totfact> 0.19367119E-01</totfact>
</mgrwt>
</event>
<event>
12    1  0.6093202E-010  0.2943056E+04  0.7818608E-02  0.8988985E-01
          1   -1    0    0  501    0  0.00000000000E+00  0.00000000000E+00  0.14102035528E+04  0.14102035528E+04  0.00000000000E+00 0. -1.
         -1   -1    0    0    0  501 -0.00000000000E+00 -0.00000000000E+00 -0.17016564062E+04  0.17016564062E+04  0.00000000000E+00 0.  1.
         24    2    1    2    0    0  0.10038611232E+03  0.27364031308E+02 -0.95456413699E+02  0.16228517437E+03  0.79989931534E+02 0.  0.
    9900016    2    1    2    0    0  0.21816171670E+03  0.33045618123E+03 -0.26128174072E+03  0.19039899012E+04  0.18439396881E+04 0.  0.
        -24    2    4    4    0    0 -0.63547730201E+03  0.57295274268E+03  0.23032865882E+03  0.88950237467E+03  0.77826324336E+02 0.  0.
        -15    1    4    4    0    0  0.85363901871E+03 -0.24249656144E+03 -0.49161039953E+03  0.10144875265E+04  0.00000000000E+00 0.  1.
        -15    1    3    3    0    0  0.15952099854E+02  0.23315094597E+02  0.73482972001E+01  0.29190077039E+02  0.00000000000E+00 0.  1.
         15    1    5    5    0    0 -0.27368479977E+03  0.27607410065E+03  0.13775119418E+03  0.41242656337E+03  0.00000000000E+00 0. -1.
         15    1    1    2    0    0 -0.50694226950E+03 -0.22579018241E+03  0.35943489378E+03  0.66118462925E+03  0.00000000000E+00 0. -1.
        -16    1    5    5    0    0 -0.36179250224E+03  0.29687864202E+03  0.92577464640E+02  0.47707581130E+03  0.00000000000E+00 0.  1.
         16    1    3    3    0    0  0.84434012468E+02  0.40489367115E+01 -0.10280471090E+03  0.13309509733E+03  0.00000000000E+00 0. -1.
    9900018    1    1    2    0    0  0.18839444048E+03 -0.13203003013E+03 -0.29414959276E+03  0.38440025412E+03  0.91187600000E+02 0.  0.
<mgrwt>
<rscale>  0 0.13524379E+04</rscale>
<asrwt>0</asrwt>
<pdfrwt beam="1">  1        1 0.21695439E+00 0.29430557E+04</pdfrwt>
<pdfrwt beam="2">  1       -1 0.26179329E+00 0.29430557E+04</pdfrwt>
<totfact> 0.37550707E-01</totfact>
</mgrwt>
</event>
<event>
12    1  0.6093202E-010  0.4464442E+04  0.7818608E-02  0.8522907E-01
         -1   -1    0    0    0  501 -0.00000000000E+00  0.00000000000E+00  0.23755178602E+04  0.23755178602E+04  0.00000000000E+00 0.  1.
          1   -1    0    0  501    0  0.00000000000E+00 -0.00000000000E+00 -0.33899035368E+04  0.33899035368E+04  0.00000000000E+00 0. -1.
         24    2    1    2    0    0 -0.13170918914E+03 -0.20687217785E+03 -0.12677759034E+04  0.12937946940E+04  0.80657055096E+02 0.  0.
    9900016    2    1    2    0    0  0.80583621422E+03 -0.38600146372E+03 -0.10025975495E+03  0.20489438130E+04  0.18411272624E+04 0.  0.
        -24    2    4    4    0    0  0.23742844938E+03  0.65653190551E+03 -0.42071736130E+03  0.81904288589E+03  0.80135755463E+02 0.  0.
        -15    1    4    4    0    0  0.56840776484E+03 -0.10425333692E+04  0.32045760634E+03  0.12299009271E+04  0.00000000000E+00 0.  1.
        -15    1    3    3    0    0 -0.10769868873E+03 -0.11133506898E+03 -0.89040448830E+03  0.90377799150E+03  0.00000000000E+00 0.  1.
         15    1    1    2    0    0 -0.13721449015E+04  0.63513074919E+03 -0.20123019364E+03  0.15253413684E+04  0.00000000000E+00 0. -1.
         15    1    5    5    0    0  0.10524498788E+03  0.18385440034E+03 -0.13218333517E+03  0.24970258728E+03  0.00000000000E+00 0. -1.
        -16    1    5    5    0    0  0.13218346150E+03  0.47267750517E+03 -0.28853402613E+03  0.56934029861E+03  0.00000000000E+00 0.  1.
         16    1    3    3    0    0 -0.24010500408E+02 -0.95537108873E+02 -0.37737141512E+03  0.39001670253E+03  0.00000000000E+00 0. -1.
    9900018    1    1    2    0    0  0.69801787643E+03 -0.42257107608E+02  0.55488017541E+03  0.89734152161E+03  0.91187600000E+02 0.  0.
<mgrwt>
<rscale>  0 0.21892713E+04</rscale>
<asrwt>0</asrwt>
<pdfrwt beam="1">  1        1 0.52152362E+00 0.44644416E+04</pdfrwt>
<pdfrwt beam="2">  1       -1 0.36546429E+00 0.44644416E+04</pdfrwt>
<totfact> 0.27036028E-03</totfact>
</mgrwt>
</event>
<event>
12    1  0.6093202E-010  0.3913001E+04  0.7818608E-02  0.8569307E-01
          2   -1    0    0  501    0  0.00000000000E+00  0.00000000000E+00  0.18896681799E+04  0.18896681799E+04  0.00000000000E+00 0. -1.
         -2   -1    0    0    0  501 -0.00000000000E+00 -0.00000000000E+00 -0.24372935575E+04  0.24372935575E+04  0.00000000000E+00 0.  1.
        -24    2    1    2    0    0 -0.29756033500E+03 -0.56433992585E+02 -0.25307321682E+03  0.40288980961E+03  0.80914752248E+02 0.  0.
    9900016    2    1    2    0    0  0.43636462355E+03  0.42240432012E+03  0.55363771125E+03  0.20181571145E+04  0.18432590510E+04 0.  0.
         24    2    4    4    0    0 -0.27340822567E+03 -0.16562379743E+03 -0.51227670906E+03  0.60899845913E+03  0.79173205304E+02 0.  0.
        -15    1    5    5    0    0 -0.16563460733E+03 -0.11177069017E+03 -0.38485689160E+03  0.43363848692E+03  0.00000000000E+00 0.  1.
        -15    1    1    2    0    0 -0.11532076073E+03 -0.43201704120E+03 -0.13338596285E+04  0.14068116826E+04  0.00000000000E+00 0.  1.
         15    1    4    4    0    0  0.70977284922E+03  0.58802811755E+03  0.10659144203E+04  0.14091586554E+04  0.00000000000E+00 0. -1.
         15    1    3    3    0    0 -0.29731842787E+03 -0.44761494053E+02 -0.24942148255E+03  0.39065702970E+03  0.00000000000E+00 0. -1.
        -16    1    3    3    0    0 -0.24190713183E+00 -0.11672498532E+02 -0.36517342688E+01  0.12232779905E+02  0.00000000000E+00 0.  1.
         16    1    5    5    0    0 -0.10777361834E+03 -0.53853107266E+02 -0.12741981746E+03  0.17535997221E+03  0.00000000000E+00 0. -1.
    9900018    1    1    2    0    0 -0.23483527821E+02  0.66046713668E+02  0.48566975638E+03  0.49910313074E+03  0.91187600000E+02 0.  0.
<mgrwt>
<rscale>  0 0.20817923E+04</rscale>
<asrwt>0</asrwt>
<pdfrwt beam="1">  1        2 0.29071818E+00 0.39130013E+04</pdfrwt>
<pdfrwt beam="2">  1       -2 0.37496824E+00 0.39130013E+04</pdfrwt>
<totfact> 0.65029802E-02</totfact>
</mgrwt>
</event>
<event>
12    1  0.6093202E-010  0.3250091E+04  0.7818608E-02  0.8835521E-01
         -2   -1    0    0    0  501 -0.00000000000E+00  0.00000000000E+00  0.10197044296E+04  0.10197044296E+04  0.00000000000E+00 0.  1.
          2   -1    0    0  501    0  0.00000000000E+00 -0.00000000000E+00 -0.37517299047E+04  0.37517299047E+04  0.00000000000E+00 0. -1.
        -24    2    1    2    0    0  0.11843906963E+03  0.11092271324E+03  0.28497720148E+03  0.33686576065E+03  0.77038132164E+02 0.  0.
    9900016    2    1    2    0    0 -0.64683144917E+03 -0.63911175352E+03 -0.22824420702E+04  0.30775348165E+04  0.18533278140E+04 0.  0.
         24    2    4    4    0    0 -0.48221160627E+03 -0.52970002847E+03 -0.26029542577E+04  0.27009731607E+04  0.82310350587E+02 0.  0.
        -15    1    5    5    0    0 -0.25608621335E+03 -0.25464104320E+03 -0.14492955342E+04  0.14936129870E+04  0.00000000000E+00 0.  1.
        -15    1    1    2    0    0  0.69415150432E+03  0.45129168989E+03 -0.30670031721E+03  0.88293577620E+03  0.00000000000E+00 0.  1.
         15    1    4    4    0    0 -0.16461984290E+03 -0.10941172505E+03  0.32051218756E+03  0.37656165581E+03  0.00000000000E+00 0. -1.
         15    1    3    3    0    0  0.10369479052E+03  0.51852946953E+02  0.21372446190E+03  0.24314498412E+03  0.00000000000E+00 0. -1.
        -16    1    3    3    0    0  0.14744279108E+02  0.59069766283E+02  0.71252739581E+02  0.93720776527E+02  0.00000000000E+00 0.  1.
         16    1    5    5    0    0 -0.22612539292E+03 -0.27505898527E+03 -0.11536587236E+04  0.12073601737E+04  0.00000000000E+00 0. -1.
    9900018    1    1    2    0    0 -0.16575912478E+03  0.76897350387E+02 -0.42786028923E+03  0.47409798084E+03  0.91187600000E+02 0.  0.
<mgrwt>
<rscale>  0 0.15758530E+04</rscale>
<asrwt>0</asrwt>
<pdfrwt beam="1">  1        2 0.57718922E+00 0.32500913E+04</pdfrwt>
<pdfrwt beam="2">  1       -2 0.15687760E+00 0.32500913E+04</pdfrwt>
<totfact> 0.11652313E-01</totfact>
</mgrwt>
</event>
<event>
12    1  0.6093202E-010  0.3097167E+04  0.7818608E-02  0.9048959E-01
         -1   -1    0    0    0  501 -0.00000000000E+00  0.00000000000E+00  0.16678362970E+04  0.16678362970E+04  0.00000000000E+00 0.  1.
          1   -1    0    0  501    0  0.00000000000E+00 -0.00000000000E+00 -0.15283611961E+04  0.15283611961E+04  0.00000000000E+00 0. -1.
         24    2    1    2    0    0 -0.90037539907E+01  0.39260310498E+02  0.39177590639E+02  0.97406652493E+02  0.79565902089E+02 0.  0.
    9900016    2    1    2    0    0 -0.96374391707E+02 -0.28508579588E+03  0.43016008555E+02  0.18707087541E+04  0.18458436909E+04 0.  0.
        -24    2    4    4    0    0 -0.81712189704E+03  0.98060152216E+02 -0.42571889199E+03  0.92943823454E+03  0.72903146393E+02 0.  0.
        -15    1    3    3    0    0 -0.39038879215E+02  0.17416167992E+02 -0.91319417930E+00  0.42757349327E+02  0.00000000000E+00 0.  1.
        -15    1    4    4    0    0  0.72074750533E+03 -0.38314594810E+03  0.46873490054E+03  0.94127051955E+03  0.00000000000E+00 0.  1.
         15    1    1    2    0    0 -0.16497212243E+02  0.54660280561E+03 -0.38732855472E+03  0.67012699872E+03  0.00000000000E+00 0. -1.
         15    1    5    5    0    0 -0.19039176562E+03  0.23889143287E+02 -0.65430215694E+02  0.20273339318E+03  0.00000000000E+00 0. -1.
        -16    1    5    5    0    0 -0.62673013141E+03  0.74171008929E+02 -0.36028867630E+03  0.72670484136E+03  0.00000000000E+00 0.  1.
         16    1    3    3    0    0  0.30035125224E+02  0.21844142506E+02  0.40090784819E+02  0.54649303165E+02  0.00000000000E+00 0. -1.
    9900018    1    1    2    0    0  0.12187535794E+03 -0.30077732023E+03  0.44461005650E+03  0.55795508777E+03  0.91187600000E+02 0.  0.
<mgrwt>
<rscale>  0 0.12758248E+04</rscale>
<asrwt>0</asrwt>
<pdfrwt beam="1">  1        1 0.23513249E+00 0.30971673E+04</pdfrwt>
<pdfrwt beam="2">  1       -1 0.25659020E+00 0.30971673E+04</pdfrwt>
<totfact> 0.33211159E-01</totfact>
</mgrwt>
</event>
<event>
12    1  0.6093202E-010  0.4427095E+04  0.7818608E-02  0.8445331E-01
          1   -1    0    0  501    0  0.00000000000E+00  0.00000000000E+00  0.17730393548E+04  0.17730393548E+04  0.00000000000E+00 0. -1.
         -1   -1    0    0    0  501 -0.00000000000E+00 -0.00000000000E+00 -0.34578532461E+04  0.34578532461E+04  0.00000000000E+00 0.  1.
         24    2    1    2    0    0 -0.31973146348E+03 -0.17391556676E+03 -0.54366971293E+03  0.65909008653E+03  0.79675292904E+02 0.  0.
    9900016    2    1    2    0    0  0.30462230905E+03  0.98016777728E+01 -0.15092273420E+04  0.24059805576E+04  0.18488062229E+04 0.  0.
        -24    2    4    4    0    0  0.57784203930E+03 -0.44784957351E+03 -0.16901133703E+04  0.18431187238E+04  0.78311957216E+02 0.  0.
        -15    1    4    4    0    0 -0.27321973025E+03  0.45765125129E+03  0.18088602828E+03  0.56286183387E+03  0.00000000000E+00 0.  1.
        -15    1    3    3    0    0 -0.11777888878E+03 -0.42396603252E+02 -0.24663457037E+03  0.27658262764E+03  0.00000000000E+00 0.  1.
         15    1    1    2    0    0  0.39122847191E+03  0.20236912252E+03  0.11832846657E+04  0.12626066605E+04  0.00000000000E+00 0. -1.
         15    1    5    5    0    0  0.17705827530E+03 -0.11070925185E+03 -0.41304581343E+03  0.46283151934E+03  0.00000000000E+00 0. -1.
        -16    1    5    5    0    0  0.40078376400E+03 -0.33714032167E+03 -0.12770675568E+04  0.13802872044E+04  0.00000000000E+00 0.  1.
         16    1    3    3    0    0 -0.20195257470E+03 -0.13151896351E+03 -0.29703514257E+03  0.38250745889E+03  0.00000000000E+00 0. -1.
    9900018    1    1    2    0    0 -0.37611931748E+03 -0.38255233532E+02 -0.81520150216E+03  0.90321529626E+03  0.91187600000E+02 0.  0.
<mgrwt>
<rscale>  0 0.23844970E+04</rscale>
<asrwt>0</asrwt>
<pdfrwt beam="1">  1        1 0.27277529E+00 0.44270948E+04</pdfrwt>
<pdfrwt beam="2">  1       -1 0.53197742E+00 0.44270948E+04</pdfrwt>
<totfact> 0.30027926E-03</totfact>
</mgrwt>
</event>
<event>
12    1  0.6093202E-010  0.4837731E+04  0.7818608E-02  0.8270718E-01
          2   -1    0    0  501    0  0.00000000000E+00  0.00000000000E+00  0.28214980052E+04  0.28214980052E+04  0.00000000000E+00 0. -1.
         -2   -1    0    0    0  501 -0.00000000000E+00 -0.00000000000E+00 -0.26984740828E+04  0.26984740828E+04  0.00000000000E+00 0.  1.
        -24    2    1    2    0    0  0.58777331852E+03 -0.21410009856E+03  0.25470506544E+03  0.68044912714E+03  0.82583400910E+02 0.  0.
    9900016    2    1    2    0    0 -0.87760185482E+03 -0.27245725489E+03  0.87400056005E+02  0.20627474557E+04  0.18446870533E+04 0.  0.
         24    2    4    4    0    0  0.21259603984E+03  0.33729388476E+03 -0.53092014592E+03  0.66895845659E+03  0.81639294751E+02 0.  0.
        -15    1    1    2    0    0 -0.14568270213E+03  0.97759871123E+03 -0.12238758316E+04  0.15731480354E+04  0.00000000000E+00 0.  1.
        -15    1    5    5    0    0  0.14882940005E+03  0.19897396089E+03 -0.27077366750E+03  0.36750402235E+03  0.00000000000E+00 0.  1.
         15    1    4    4    0    0 -0.10901978947E+04 -0.60975113965E+03  0.61832020192E+03  0.13937889991E+04  0.00000000000E+00 0. -1.
         15    1    3    3    0    0  0.39659948391E+03 -0.17263828129E+03  0.14519421611E+03  0.45626361591E+03  0.00000000000E+00 0. -1.
        -16    1    3    3    0    0  0.19117383460E+03 -0.41461817265E+02  0.10951084932E+03  0.22418551123E+03  0.00000000000E+00 0.  1.
         16    1    5    5    0    0  0.63766639791E+02  0.13831992387E+03 -0.26014647841E+03  0.30145443424E+03  0.00000000000E+00 0. -1.
    9900018    1    1    2    0    0  0.43551123844E+03 -0.49104135778E+03  0.10047946326E+04  0.12036274697E+04  0.91187600000E+02 0.  0.
<mgrwt>
<rscale>  0 0.29072697E+04</rscale>
<asrwt>0</asrwt>
<pdfrwt beam="1">  1        2 0.43407661E+00 0.48377311E+04</pdfrwt>
<pdfrwt beam="2">  1       -2 0.41514986E+00 0.48377311E+04</pdfrwt>
<totfact> 0.95376860E-03</totfact>
</mgrwt>
</event>
