<event>
12    1  0.5992160E-010  0.4375681E+04  0.7818608E-02  0.8377278E-01
         -2   -1    0    0    0  501 -0.00000000000E+00  0.00000000000E+00  0.25201346818E+04  0.25201346818E+04  0.00000000000E+00 0.  1.
          2   -1    0    0  501    0  0.00000000000E+00 -0.00000000000E+00 -0.26248388673E+04  0.26248388673E+04  0.00000000000E+00 0. -1.
        -24    2    1    2    0    0 -0.37955419116E+03  0.35157006709E+03  0.50456379053E+03  0.72707878041E+03  0.79975234276E+02 0.  0.
    9900016    2    1    2    0    0 -0.74254700525E+03  0.53307569939E+03 -0.15148828301E+04  0.25294446764E+04  0.18076710501E+04 0.  0.
         24    2    4    4    0    0 -0.98304405909E+03  0.10552199701E+04 -0.11708779103E+04  0.18595097114E+04  0.83405506761E+02 0.  0.
        -15    1    5    5    0    0 -0.20993112399E+03  0.27035651187E+03 -0.30069136764E+03  0.45560840522E+03  0.00000000000E+00 0.  1.
        -15    1    1    2    0    0  0.11640799831E+04 -0.92198169620E+03  0.96007224873E+03  0.17682961228E+04  0.00000000000E+00 0.  1.
         15    1    3    3    0    0 -0.11384964899E+03  0.14615280359E+03  0.21330050307E+03  0.28252343121E+03  0.00000000000E+00 0. -1.
         15    1    4    4    0    0  0.24049705384E+03 -0.52214427075E+03 -0.34400491981E+03  0.66993496494E+03  0.00000000000E+00 0. -1.
        -16    1    3    3    0    0 -0.26570454218E+03  0.20541726351E+03  0.29126328746E+03  0.44455534920E+03  0.00000000000E+00 0.  1.
         16    1    5    5    0    0 -0.77311293510E+03  0.78486345827E+03 -0.87018654264E+03  0.14039013062E+04  0.00000000000E+00 0. -1.
    9900018    1    1    2    0    0 -0.41978786639E+02  0.37335929723E+02 -0.54457394623E+02  0.12015396955E+03  0.91187600000E+02 0.  0.
<mgrwt>
<rscale>  0 0.25734442E+04</rscale>
<asrwt>0</asrwt>
<pdfrwt beam="1">  1        2 0.40382136E+00 0.43756813E+04</pdfrwt>
<pdfrwt beam="2">  1       -2 0.38771303E+00 0.43756813E+04</pdfrwt>
<totfact> 0.19558483E-02</totfact>
</mgrwt>
</event>
<event>
12    1  0.5992160E-010  0.3551469E+04  0.7818608E-02  0.8493168E-01
         -2   -1    0    0    0  501 -0.00000000000E+00  0.00000000000E+00  0.18064042427E+04  0.18064042427E+04  0.00000000000E+00 0.  1.
          2   -1    0    0  501    0  0.00000000000E+00 -0.00000000000E+00 -0.23808038910E+04  0.23808038910E+04  0.00000000000E+00 0. -1.
         24    2    1    2    0    0 -0.57708246323E+03  0.41796392916E+02 -0.19348131063E+03  0.61536953335E+03  0.80458294713E+02 0.  0.
    9900016    2    1    2    0    0 -0.88942406045E+03 -0.58570278912E+02 -0.13231890680E+03  0.20843156849E+04  0.18794568216E+04 0.  0.
        -24    2    4    4    0    0  0.23726155222E+03  0.57704036891E+03  0.23584533156E+03  0.67173951984E+03  0.79638750520E+02 0.  0.
        -15    1    4    4    0    0 -0.10790843271E+04 -0.63397930266E+03 -0.38254398989E+03  0.13086988368E+04  0.00000000000E+00 0.  1.
        -15    1    3    3    0    0 -0.21913264072E+03  0.59634062842E+01 -0.33883093444E+02  0.22181690752E+03  0.00000000000E+00 0.  1.
         15    1    5    5    0    0  0.59253579446E+02  0.22028167224E+03  0.11283036471E+03  0.25449104700E+03  0.00000000000E+00 0. -1.
         15    1    1    2    0    0  0.14665065237E+04  0.16773885996E+02 -0.24859943087E+03  0.14875229155E+04  0.00000000000E+00 0. -1.
        -16    1    5    5    0    0  0.17800797277E+03  0.35675869667E+03  0.12301496685E+03  0.41724847284E+03  0.00000000000E+00 0.  1.
         16    1    3    3    0    0 -0.35794982251E+03  0.35832986632E+02 -0.15959821719E+03  0.39355262583E+03  0.00000000000E+00 0. -1.
    9900018    1    4    4    0    0 -0.47601285538E+02 -0.16313451597E+01  0.14379751536E+02  0.10387732823E+03  0.91187600000E+02 0.  0.
<mgrwt>
<rscale>  0 0.22617222E+04</rscale>
<asrwt>0</asrwt>
<pdfrwt beam="1">  1        2 0.36627752E+00 0.35514690E+04</pdfrwt>
<pdfrwt beam="2">  1       -2 0.27790835E+00 0.35514690E+04</pdfrwt>
<totfact> 0.14167725E-01</totfact>
</mgrwt>
</event>
<event>
12    1  0.5992160E-010  0.4867960E+04  0.7818608E-02  0.7849205E-01
         -2   -1    0    0    0  501 -0.00000000000E+00  0.00000000000E+00  0.17651065626E+04  0.17651065626E+04  0.00000000000E+00 0.  1.
          2   -1    0    0  501    0  0.00000000000E+00 -0.00000000000E+00 -0.33563183676E+04  0.33563183676E+04  0.00000000000E+00 0. -1.
        -24    2    1    2    0    0 -0.88025350582E+03  0.16756079788E+04 -0.79617600677E+02  0.18961412176E+04  0.80648755040E+02 0.  0.
    9900016    2    1    2    0    0  0.88509314359E+03 -0.12360654587E+04 -0.11518946392E+04  0.26163682948E+04  0.17908864015E+04 0.  0.
         24    2    4    4    0    0  0.11900195823E+04 -0.73361664441E+03 -0.13984796015E+04  0.19789994160E+04  0.79708879302E+02 0.  0.
        -15    1    1    2    0    0 -0.66093759024E+02 -0.28670118942E+03 -0.27420159625E+03  0.40218462475E+03  0.00000000000E+00 0.  1.
        -15    1    5    5    0    0  0.53125012775E+03 -0.32905327099E+03 -0.56938582632E+03  0.84540107204E+03  0.00000000000E+00 0.  1.
         15    1    4    4    0    0 -0.30492643872E+03 -0.50244881428E+03  0.24658496227E+03  0.63736887876E+03  0.00000000000E+00 0. -1.
         15    1    3    3    0    0 -0.17455249253E+03  0.33514701223E+03 -0.48193595304E+02  0.38093925379E+03  0.00000000000E+00 0. -1.
        -16    1    3    3    0    0 -0.70570101328E+03  0.13404609665E+04 -0.31424005374E+02  0.15152019638E+04  0.00000000000E+00 0.  1.
         16    1    5    5    0    0  0.65876945456E+03 -0.40456337342E+03 -0.82909377519E+03  0.11335983440E+04  0.00000000000E+00 0. -1.
    9900018    1    1    2    0    0  0.61254121246E+02 -0.15284133067E+03 -0.85497968901E+02  0.20673079308E+03  0.91187600000E+02 0.  0.
<mgrwt>
<rscale>  0 0.48679604E+04</rscale>
<asrwt>0</asrwt>
<pdfrwt beam="1">  1        2 0.51635667E+00 0.48679604E+04</pdfrwt>
<pdfrwt beam="2">  1       -2 0.27155486E+00 0.48679604E+04</pdfrwt>
<totfact> 0.35562710E-02</totfact>
</mgrwt>
</event>
<event>
12    1  0.5992160E-010  0.3935517E+04  0.7818608E-02  0.8017683E-01
         -2   -1    0    0    0  501 -0.00000000000E+00  0.00000000000E+00  0.24803718281E+04  0.24803718281E+04  0.00000000000E+00 0.  1.
          2   -1    0    0  501    0  0.00000000000E+00 -0.00000000000E+00 -0.15610858969E+04  0.15610858969E+04  0.00000000000E+00 0. -1.
        -24    2    1    2    0    0  0.41675553527E+02 -0.69384064826E+03 -0.56539578269E+03  0.89962978711E+03  0.80682500166E+02 0.  0.
    9900016    2    1    2    0    0 -0.43917379049E+03  0.62366414362E+03  0.52913328654E+03  0.21045225889E+04  0.18887039762E+04 0.  0.
         24    2    4    4    0    0 -0.35263697121E+02 -0.30649353571E+03 -0.50276961742E+03  0.59527431547E+03  0.79952527750E+02 0.  0.
        -15    1    1    2    0    0  0.39749823697E+03  0.70176504634E+02  0.95554842736E+03  0.10373053491E+04  0.00000000000E+00 0.  1.
        -15    1    5    5    0    0 -0.41087855223E+02 -0.92915532806E+02 -0.20486734522E+03  0.22867474111E+03  0.00000000000E+00 0.  1.
         15    1    3    3    0    0 -0.18715437422E+02 -0.25745272630E+03 -0.18500849748E+03  0.31758513507E+03  0.00000000000E+00 0. -1.
         15    1    4    4    0    0 -0.38331562608E+03  0.92567344768E+03  0.98321429200E+03  0.14037494595E+04  0.00000000000E+00 0. -1.
        -16    1    3    3    0    0  0.60390990949E+02 -0.43638792195E+03 -0.38038728521E+03  0.58204465204E+03  0.00000000000E+00 0.  1.
         16    1    5    5    0    0  0.58241581022E+01 -0.21357800290E+03 -0.29790227220E+03  0.36659957436E+03  0.00000000000E+00 0. -1.
    9900018    1    4    4    0    0 -0.20594467294E+02  0.44842316484E+01  0.48688611957E+02  0.10549881395E+03  0.91187600000E+02 0.  0.
<mgrwt>
<rscale>  0 0.39355170E+04</rscale>
<asrwt>0</asrwt>
<pdfrwt beam="1">  1        2 0.24016706E+00 0.39355170E+04</pdfrwt>
<pdfrwt beam="2">  1       -2 0.38159566E+00 0.39355170E+04</pdfrwt>
<totfact> 0.90877581E-02</totfact>
</mgrwt>
</event>
<event>
12    1  0.5992160E-010  0.2383423E+04  0.7818608E-02  0.8693744E-01
          2   -1    0    0  501    0  0.00000000000E+00  0.00000000000E+00  0.27035401596E+04  0.27035401596E+04  0.00000000000E+00 0. -1.
         -2   -1    0    0    0  501 -0.00000000000E+00 -0.00000000000E+00 -0.18752362722E+04  0.18752362722E+04  0.00000000000E+00 0.  1.
         24    2    1    2    0    0  0.13817662886E+03  0.80123405368E+03 -0.11981790631E+04  0.14503040645E+04  0.81731405700E+02 0.  0.
    9900016    2    1    2    0    0  0.18937272420E+02 -0.59353983873E+03  0.13598643095E+04  0.24127894224E+04  0.19025440064E+04 0.  0.
        -24    2    4    4    0    0 -0.12993865027E+03 -0.75959897086E+03 -0.17030182683E+03  0.79301340831E+03  0.77413849981E+02 0.  0.
        -15    1    3    3    0    0  0.30672238785E+02  0.36761512527E+03 -0.58612366278E+03  0.69254791504E+03  0.00000000000E+00 0.  1.
        -15    1    4    4    0    0  0.20961921508E+03  0.16461489251E+03  0.14715777963E+04  0.14955198055E+04  0.00000000000E+00 0.  1.
         15    1    1    2    0    0 -0.15711390128E+03 -0.20769421495E+03  0.66661864107E+03  0.71568294483E+03  0.00000000000E+00 0. -1.
         15    1    5    5    0    0 -0.58933760083E+02 -0.38423868188E+03 -0.46853312234E+02  0.39154538127E+03  0.00000000000E+00 0. -1.
        -16    1    5    5    0    0 -0.71004890190E+02 -0.37536028898E+03 -0.12344851460E+03  0.40146802704E+03  0.00000000000E+00 0.  1.
         16    1    3    3    0    0  0.10750439007E+03  0.43361892841E+03 -0.61205540033E+03  0.75775614945E+03  0.00000000000E+00 0. -1.
    9900018    1    4    4    0    0 -0.60743292382E+02  0.14442396237E+01  0.58588340041E+02  0.12425620862E+03  0.91187600000E+02 0.  0.
<mgrwt>
<rscale>  0 0.18238015E+04</rscale>
<asrwt>0</asrwt>
<pdfrwt beam="1">  1        2 0.41592926E+00 0.23834232E+04</pdfrwt>
<pdfrwt beam="2">  1       -2 0.28849789E+00 0.23834232E+04</pdfrwt>
<totfact> 0.84533161E-02</totfact>
</mgrwt>
</event>
<event>
12    1  0.5992160E-010  0.3565312E+04  0.7818608E-02  0.8369982E-01
          2   -1    0    0  501    0  0.00000000000E+00  0.00000000000E+00  0.28112645827E+04  0.28112645827E+04  0.00000000000E+00 0.  1.
         -2   -1    0    0    0  501 -0.00000000000E+00 -0.00000000000E+00 -0.18731573822E+04  0.18731573822E+04  0.00000000000E+00 0. -1.
         24    2    1    2    0    0  0.15904832735E+03  0.98421085867E+03  0.99539309565E+01  0.10002782590E+04  0.80561342184E+02 0.  0.
    9900016    2    1    2    0    0  0.10804588335E+04 -0.52704673993E+03  0.52290625176E+03  0.23022601441E+04  0.18925647324E+04 0.  0.
        -24    2    4    4    0    0  0.92982130462E+03 -0.91619430779E+03  0.92430711531E+03  0.16014134244E+04  0.78750519171E+02 0.  0.
        -15    1    3    3    0    0  0.13090449598E+03  0.58605432423E+03 -0.10739925703E+02  0.60059221109E+03  0.00000000000E+00 0.  1.
        -15    1    4    4    0    0  0.58845463346E+02  0.38763365475E+03 -0.41478338497E+03  0.57076080392E+03  0.00000000000E+00 0.  1.
         15    1    1    2    0    0 -0.12395071608E+04 -0.45716411874E+03  0.40524701773E+03  0.13818835619E+04  0.00000000000E+00 0. -1.
         15    1    5    5    0    0  0.10745718396E+03 -0.82269924731E+02  0.75454831430E+02  0.15494779278E+03  0.00000000000E+00 0. -1.
        -16    1    5    5    0    0  0.82236412065E+03 -0.83392438306E+03  0.84885228388E+03  0.14464656316E+04  0.00000000000E+00 0.  1.
         16    1    3    3    0    0  0.28143831373E+02  0.39815653445E+03  0.20693856659E+02  0.39968604788E+03  0.00000000000E+00 0. -1.
    9900018    1    4    4    0    0  0.91792065490E+02  0.15139131068E+01  0.13382521415E+02  0.13008591581E+03  0.91187600000E+02 0.  0.
<mgrwt>
<rscale>  0 0.25947648E+04</rscale>
<asrwt>0</asrwt>
<pdfrwt beam="1">  1        2 0.43250225E+00 0.35653115E+04</pdfrwt>
<pdfrwt beam="2">  1       -2 0.28817806E+00 0.35653115E+04</pdfrwt>
<totfact> 0.67480346E-02</totfact>
</mgrwt>
</event>
<event>
12    1  0.5992160E-010  0.3535698E+04  0.7818608E-02  0.8358262E-01
         -2   -1    0    0    0  501 -0.00000000000E+00  0.00000000000E+00  0.41260612375E+04  0.41260612375E+04  0.00000000000E+00 0.  1.
          2   -1    0    0  501    0  0.00000000000E+00 -0.00000000000E+00 -0.28195767118E+04  0.28195767118E+04  0.00000000000E+00 0. -1.
        -24    2    1    2    0    0 -0.10701394081E+03  0.10733101836E+04  0.28794254148E+04  0.30758440576E+04  0.79241490519E+02 0.  0.
    9900016    2    1    2    0    0  0.25595612798E+03 -0.25635043375E+03 -0.19765824623E+04  0.26945687353E+04  0.17951583091E+04 0.  0.
         24    2    4    4    0    0 -0.75372797213E+03 -0.41132939612E+02 -0.11180031210E+04  0.13518330811E+04  0.87885868713E+02 0.  0.
        -15    1    5    5    0    0 -0.29125937637E+03 -0.25167099985E+02 -0.36008648383E+03  0.46381858855E+03  0.00000000000E+00 0.  1.
        -15    1    1    2    0    0 -0.14096633135E+03 -0.84382758316E+03  0.53786649094E+03  0.10105527491E+04  0.00000000000E+00 0.  1.
         15    1    3    3    0    0 -0.73382040715E+02  0.83696089304E+03  0.21491815554E+04  0.23075679445E+04  0.00000000000E+00 0. -1.
         15    1    4    4    0    0  0.10096841001E+04 -0.21521749414E+03 -0.85857934130E+03  0.13427356542E+04  0.00000000000E+00 0. -1.
        -16    1    3    3    0    0 -0.33631900099E+02  0.23634929053E+03  0.73024385935E+03  0.76827611310E+03  0.00000000000E+00 0.  1.
         16    1    5    5    0    0 -0.46246859576E+03 -0.15965839627E+02 -0.75791663716E+03  0.88801449255E+03  0.00000000000E+00 0. -1.
    9900018    1    1    2    0    0 -0.79758558221E+01  0.26867833338E+02 -0.13422491777E+03  0.16467240719E+03  0.91187600000E+02 0.  0.
<mgrwt>
<rscale>  0 0.26294620E+04</rscale>
<asrwt>0</asrwt>
<pdfrwt beam="1">  1        2 0.43378104E+00 0.35356982E+04</pdfrwt>
<pdfrwt beam="2">  1       -2 0.63477865E+00 0.35356982E+04</pdfrwt>
<totfact> 0.63776902E-04</totfact>
</mgrwt>
</event>
<event>
12    1  0.5992160E-010  0.3824069E+04  0.7818608E-02  0.8438359E-01
          3   -1    0    0  501    0  0.00000000000E+00  0.00000000000E+00  0.11837963648E+04  0.11837963648E+04  0.00000000000E+00 0. -1.
         -3   -1    0    0    0  501 -0.00000000000E+00 -0.00000000000E+00 -0.41764284203E+04  0.41764284203E+04  0.00000000000E+00 0.  1.
         24    2    1    2    0    0 -0.47724556435E+03  0.34790217657E+03 -0.61829129614E+03  0.85900263242E+03  0.82475102095E+02 0.  0.
    9900016    2    1    2    0    0 -0.70987797146E+03 -0.41417087603E+03 -0.25653446488E+04  0.32970060941E+04  0.19009975720E+04 0.  0.
        -24    2    4    4    0    0 -0.57633177717E+03 -0.31032933823E+03 -0.27160280507E+04  0.27951443129E+04  0.86952528329E+02 0.  0.
        -15    1    3    3    0    0 -0.25538025354E+03  0.22562326374E+03 -0.39094723224E+03  0.51861803809E+03  0.00000000000E+00 0.  1.
        -15    1    4    4    0    0 -0.76130506947E+02 -0.14723941912E+03  0.28164509508E+03  0.32680156091E+03  0.00000000000E+00 0.  1.
         15    1    1    2    0    0  0.11871235358E+04  0.66268699463E+02  0.19100388943E+03  0.12042160585E+04  0.00000000000E+00 0. -1.
         15    1    5    5    0    0 -0.33695199575E+03 -0.19373023882E+03 -0.17826457392E+04  0.18245256601E+04  0.00000000000E+00 0. -1.
        -16    1    5    5    0    0 -0.23937978142E+03 -0.11659909941E+03 -0.93338231155E+03  0.97061865284E+03  0.00000000000E+00 0.  1.
         16    1    3    3    0    0 -0.22186531081E+03  0.12227891283E+03 -0.22734406390E+03  0.34038459433E+03  0.00000000000E+00 0. -1.
    9900018    1    4    4    0    0 -0.57415687344E+02  0.43397881321E+02 -0.13096169316E+03  0.17506022028E+03  0.91187600000E+02 0.  0.
<mgrwt>
<rscale>  0 0.24030608E+04</rscale>
<asrwt>0</asrwt>
<pdfrwt beam="1">  1        3 0.18212252E+00 0.38240694E+04</pdfrwt>
<pdfrwt beam="2">  1       -3 0.64252745E+00 0.38240694E+04</pdfrwt>
<totfact> 0.20418122E-04</totfact>
</mgrwt>
</event>
<event>
12    1  0.5992160E-010  0.4150794E+04  0.7818608E-02  0.7974799E-01
         -2   -1    0    0    0  501 -0.00000000000E+00  0.00000000000E+00  0.12106158287E+04  0.12106158287E+04  0.00000000000E+00 0. -1.
          2   -1    0    0  501    0  0.00000000000E+00 -0.00000000000E+00 -0.35579188456E+04  0.35579188456E+04  0.00000000000E+00 0.  1.
         24    2    1    2    0    0  0.11565142878E+04  0.67128532380E+03 -0.11931300757E+04  0.17938708911E+04  0.79146145868E+02 0.  0.
    9900016    2    1    2    0    0 -0.10151160997E+04 -0.10476061048E+03 -0.98217494546E+03  0.23659544857E+04  0.18951616088E+04 0.  0.
        -24    2    4    4    0    0 -0.16365227189E+03  0.67161659432E+03 -0.85615999370E+03  0.11033209059E+04  0.80350300772E+02 0.  0.
        -15    1    4    4    0    0 -0.75375129447E+03 -0.81784557008E+03 -0.79014140365E+02  0.11150137330E+04  0.00000000000E+00 0.  1.
        -15    1    3    3    0    0  0.22050868621E+03  0.98277962654E+02 -0.23729350857E+03  0.33851269968E+03  0.00000000000E+00 0.  1.
         15    1    1    2    0    0 -0.14139818805E+03 -0.56652471331E+03 -0.17199799572E+03  0.60870929754E+03  0.00000000000E+00 0. -1.
         15    1    5    5    0    0 -0.10504152523E+03  0.41125996758E+03 -0.46278765182E+03  0.62796567871E+03  0.00000000000E+00 0. -1.
        -16    1    5    5    0    0 -0.58610746654E+02  0.26035662674E+03 -0.39337234188E+03  0.47535522724E+03  0.00000000000E+00 0.  1.
         16    1    3    3    0    0  0.93600560156E+03  0.57300736115E+03 -0.95583656716E+03  0.14553581914E+04  0.00000000000E+00 0. -1.
    9900018    1    4    4    0    0 -0.97712533355E+02  0.41468365275E+02 -0.47000811402E+02  0.14761984677E+03  0.91187600000E+02 0.  0.
<mgrwt>
<rscale>  0 0.41507941E+04</rscale>
<asrwt>0</asrwt>
<pdfrwt beam="1">  1        2 0.54737212E+00 0.41507941E+04</pdfrwt>
<pdfrwt beam="2">  1       -2 0.18624859E+00 0.41507941E+04</pdfrwt>
<totfact> 0.94558894E-02</totfact>
</mgrwt>
</event>
<event>
12    1  0.5992160E-010  0.3855501E+04  0.7818608E-02  0.8034348E-01
         -2   -1    0    0    0  501 -0.00000000000E+00  0.00000000000E+00  0.18780007568E+04  0.18780007568E+04  0.00000000000E+00 0.  1.
          2   -1    0    0  501    0  0.00000000000E+00 -0.00000000000E+00 -0.19788185648E+04  0.19788185648E+04  0.00000000000E+00 0. -1.
        -24    2    1    2    0    0  0.74573302202E+03  0.74830245187E+03 -0.46810366922E+03  0.11585969317E+04  0.84566574023E+02 0.  0.
    9900016    2    1    2    0    0 -0.52833263467E+03 -0.58062139932E+03 -0.20259418540E+03  0.20656537127E+04  0.18999011224E+04 0.  0.
         24    2    4    4    0    0 -0.99621629634E+03 -0.47636919616E+03 -0.54783138114E+03  0.12349402362E+04  0.74723788629E+02 0.  0.
        -15    1    1    2    0    0 -0.21740038735E+03 -0.16768105255E+03  0.56988004658E+03  0.63256867714E+03  0.00000000000E+00 0.  1.
        -15    1    5    5    0    0 -0.44435192943E+03 -0.21647059901E+03 -0.28660417947E+03  0.57135813035E+03  0.00000000000E+00 0.  1.
         15    1    4    4    0    0  0.55455943265E+03 -0.37892582771E+02  0.39291136664E+03  0.68069916572E+03  0.00000000000E+00 0. -1.
         15    1    3    3    0    0  0.57682652717E+03  0.55149601081E+03 -0.38649785226E+03  0.88671149885E+03  0.00000000000E+00 0. -1.
        -16    1    3    3    0    0  0.16890649485E+03  0.19680644106E+03 -0.81605816956E+02  0.27188543287E+03  0.00000000000E+00 0.  1.
         16    1    5    5    0    0 -0.55186436691E+03 -0.25989859715E+03 -0.26122720167E+03  0.66358210581E+03  0.00000000000E+00 0. -1.
    9900018    1    4    4    0    0 -0.86675770981E+02 -0.66359620394E+02 -0.47674170895E+02  0.15001431085E+03  0.91187600000E+02 0.  0.
<mgrwt>
<rscale>  0 0.38555014E+04</rscale>
<asrwt>0</asrwt>
<pdfrwt beam="1">  1        2 0.30443362E+00 0.38555014E+04</pdfrwt>
<pdfrwt beam="2">  1       -2 0.28892319E+00 0.38555014E+04</pdfrwt>
<totfact> 0.20356182E-01</totfact>
</mgrwt>
</event>
<event>
12    1  0.5992160E-010  0.3541486E+04  0.7818608E-02  0.8416463E-01
         -1   -1    0    0    0  501 -0.00000000000E+00  0.00000000000E+00  0.19652303267E+04  0.19652303267E+04  0.00000000000E+00 0.  1.
          1   -1    0    0  501    0  0.00000000000E+00 -0.00000000000E+00 -0.24311913032E+04  0.24311913032E+04  0.00000000000E+00 0. -1.
        -24    2    1    2    0    0  0.50165389132E+03  0.65390083996E+03 -0.14446701989E+03  0.84037302353E+03  0.78186723060E+02 0.  0.
    9900016    2    1    2    0    0  0.73709442819E+03 -0.64250565504E+03 -0.46935180694E+03  0.21035142517E+04  0.18023205530E+04 0.  0.
         24    2    4    4    0    0  0.56692054414E+03  0.22300272574E+03  0.50058053247E+03  0.79247167003E+03  0.79381101368E+02 0.  0.
        -15    1    1    2    0    0 -0.13033828756E+04  0.60200525990E+02  0.17675299550E+03  0.13166900339E+04  0.00000000000E+00 0.  1.
        -15    1    5    5    0    0  0.25908420020E+03  0.66756655877E+02  0.19048121790E+03  0.32842680809E+03  0.00000000000E+00 0.  1.
         15    1    4    4    0    0  0.17017388405E+03 -0.86550838078E+03 -0.96993233941E+03  0.13110425817E+04  0.00000000000E+00 0. -1.
         15    1    3    3    0    0  0.33822531037E+03  0.43278074214E+03 -0.58956054745E+02  0.55242316002E+03  0.00000000000E+00 0. -1.
        -16    1    3    3    0    0  0.16342858095E+03  0.22112009782E+03 -0.85510965149E+02  0.28794986351E+03  0.00000000000E+00 0.  1.
         16    1    5    5    0    0  0.30783634393E+03  0.15624606986E+03  0.31009931456E+03  0.46404486193E+03  0.00000000000E+00 0. -1.
    9900018    1    1    2    0    0  0.64634556140E+02 -0.71595710912E+02 -0.28895145170E+02  0.13584432074E+03  0.91187600000E+02 0.  0.
<mgrwt>
<rscale>  0 0.24625139E+04</rscale>
<asrwt>0</asrwt>
<pdfrwt beam="1">  1        1 0.37402943E+00 0.35414860E+04</pdfrwt>
<pdfrwt beam="2">  1       -1 0.30234313E+00 0.35414860E+04</pdfrwt>
<totfact> 0.38154193E-02</totfact>
</mgrwt>
</event>
<event>
12    1  0.5992160E-010  0.3727654E+04  0.7818608E-02  0.8467455E-01
         -2   -1    0    0    0  501 -0.00000000000E+00  0.00000000000E+00  0.13839017896E+04  0.13839017896E+04  0.00000000000E+00 0.  1.
          2   -1    0    0  501    0  0.00000000000E+00 -0.00000000000E+00 -0.33834836312E+04  0.33834836312E+04  0.00000000000E+00 0. -1.
         24    2    1    2    0    0  0.23334049226E+03 -0.50927920667E+03 -0.70626322293E+02  0.57021090904E+03  0.79619769591E+02 0.  0.
    9900016    2    1    2    0    0 -0.45912428569E+02 -0.29729554989E+03  0.12525942740E+03  0.18340842552E+04  0.18049051321E+04 0.  0.
        -24    2    4    4    0    0  0.83960459928E+03 -0.24898464253E+03  0.30170691354E+03  0.92986743067E+03  0.81836065367E+02 0.  0.
        -15    1    4    4    0    0 -0.88551702784E+03 -0.48310907356E+02 -0.17644748614E+03  0.90421682452E+03  0.00000000000E+00 0.  1.
        -15    1    3    3    0    0  0.60033347448E+02 -0.21137882423E+03 -0.77329662427E+01  0.21987452992E+03  0.00000000000E+00 0.  1.
         15    1    1    2    0    0 -0.20848472097E+03  0.83825544444E+03 -0.20872363395E+04  0.22589142538E+04  0.00000000000E+00 0. -1.
         15    1    5    5    0    0  0.62404130458E+03 -0.18353692921E+03  0.26129883608E+03  0.70099246497E+03  0.00000000000E+00 0. -1.
        -16    1    5    5    0    0  0.21556329469E+03 -0.65447713323E+02  0.40408077458E+02  0.22887496570E+03  0.00000000000E+00 0.  1.
         16    1    3    3    0    0  0.17330714481E+03 -0.29790038244E+03 -0.62893356050E+02  0.35033637912E+03  0.00000000000E+00 0. -1.
    9900018    1    1    2    0    0  0.21056657285E+02 -0.31680687884E+02  0.33021392714E+02  0.10417600286E+03  0.91187600000E+02 0.  0.
<mgrwt>
<rscale>  0 0.23267319E+04</rscale>
<asrwt>0</asrwt>
<pdfrwt beam="1">  1        2 0.52053594E+00 0.37276540E+04</pdfrwt>
<pdfrwt beam="2">  1       -2 0.21290797E+00 0.37276540E+04</pdfrwt>
<totfact> 0.84713868E-02</totfact>
</mgrwt>
</event>
<event>
12    1  0.5992160E-010  0.3765407E+04  0.7818608E-02  0.8362039E-01
         -2   -1    0    0    0  501 -0.00000000000E+00  0.00000000000E+00  0.42146965650E+04  0.42146965650E+04  0.00000000000E+00 0.  1.
          2   -1    0    0  501    0  0.00000000000E+00 -0.00000000000E+00 -0.12895476639E+04  0.12895476639E+04  0.00000000000E+00 0. -1.
        -24    2    1    2    0    0  0.95961167739E+02 -0.87126542054E+03  0.37629365200E+03  0.95727270620E+03  0.80387453954E+02 0.  0.
    9900016    2    1    2    0    0 -0.13658771818E+04  0.23991695990E+03  0.16706096636E+04  0.28788579563E+04  0.18904247833E+04 0.  0.
         24    2    4    4    0    0 -0.63926256297E+03 -0.72943133837E+03  0.11028280945E+04  0.14709880189E+04  0.82760159291E+02 0.  0.
        -15    1    5    5    0    0 -0.19592495559E+03 -0.16836642809E+03  0.28809582650E+03  0.38695354706E+03  0.00000000000E+00 0.  1.
        -15    1    1    2    0    0  0.12699160141E+04  0.63134846064E+03  0.87824558557E+03  0.16681135663E+04  0.00000000000E+00 0.  1.
         15    1    3    3    0    0  0.15236836141E+02 -0.47301640395E+03  0.18478038556E+03  0.50805557813E+03  0.00000000000E+00 0. -1.
         15    1    4    4    0    0 -0.63178894328E+03  0.93633115083E+03  0.41450927955E+03  0.12032004138E+04  0.00000000000E+00 0. -1.
        -16    1    3    3    0    0  0.80724331598E+02 -0.39824901660E+03  0.19151326644E+03  0.44921712807E+03  0.00000000000E+00 0.  1.
         16    1    5    5    0    0 -0.44333760737E+03 -0.56106491028E+03  0.81473226801E+03  0.10840344719E+04  0.00000000000E+00 0. -1.
    9900018    1    4    4    0    0 -0.94825675582E+02  0.33017147436E+02  0.15327228950E+03  0.20466952361E+03  0.91187600000E+02 0.  0.
<mgrwt>
<rscale>  0 0.26182183E+04</rscale>
<asrwt>0</asrwt>
<pdfrwt beam="1">  1        2 0.19839195E+00 0.37654066E+04</pdfrwt>
<pdfrwt beam="2">  1       -2 0.64841485E+00 0.37654066E+04</pdfrwt>
<totfact> 0.44481855E-03</totfact>
</mgrwt>
</event>
<event>
12    1  0.5992160E-010  0.4500621E+04  0.7818608E-02  0.8278095E-01
          2   -1    0    0  501    0  0.00000000000E+00  0.00000000000E+00  0.34947590086E+04  0.34947590086E+04  0.00000000000E+00 0. -1.
         -2   -1    0    0    0  501 -0.00000000000E+00 -0.00000000000E+00 -0.20753240526E+04  0.20753240526E+04  0.00000000000E+00 0.  1.
         24    2    1    2    0    0  0.74811632720E+03  0.85550332802E+02  0.66261688884E+03  0.10062733925E+04  0.80796661574E+02 0.  0.
    9900016    2    1    2    0    0  0.24014585518E+03 -0.83944926052E+03 -0.99655993824E+03  0.22347249450E+04  0.17995885020E+04 0.  0.
        -24    2    4    4    0    0  0.82719514783E+03 -0.18355597884E+03 -0.10514438772E+04  0.13527753343E+04  0.80760560792E+02 0.  0.
        -15    1    4    4    0    0 -0.58704929265E+03 -0.65589328167E+03  0.54883939011E+02  0.88194961064E+03  0.00000000000E+00 0.  1.
        -15    1    3    3    0    0  0.69779441003E+03  0.61285991992E+02  0.62629639939E+03  0.93963833009E+03  0.00000000000E+00 0.  1.
         15    1    1    2    0    0 -0.99009758920E+03  0.79878620785E+03  0.18102944915E+04  0.22125819280E+04  0.00000000000E+00 0. -1.
         15    1    5    5    0    0  0.40047573479E+03 -0.13020205016E+03 -0.51800146592E+03  0.66757689199E+03  0.00000000000E+00 0. -1.
        -16    1    5    5    0    0  0.42671941304E+03 -0.53353928689E+02 -0.53344241133E+03  0.68519844233E+03  0.00000000000E+00 0.  1.
         16    1    3    3    0    0  0.50321917174E+02  0.24264340811E+02  0.36320489449E+02  0.66635062368E+02  0.00000000000E+00 0. -1.
    9900018    1    1    2    0    0  0.18354068101E+01 -0.44887280138E+02 -0.56916486172E+02  0.11650279580E+03  0.91187600000E+02 0.  0.
<mgrwt>
<rscale>  0 0.28825267E+04</rscale>
<asrwt>0</asrwt>
<pdfrwt beam="1">  1        2 0.53765523E+00 0.45006205E+04</pdfrwt>
<pdfrwt beam="2">  1       -2 0.31928062E+00 0.45006205E+04</pdfrwt>
<totfact> 0.14543751E-02</totfact>
</mgrwt>
</event>
<event>
12    1  0.5992160E-010  0.2583453E+04  0.7818608E-02  0.8520410E-01
          2   -1    0    0  501    0  0.00000000000E+00  0.00000000000E+00  0.18526203101E+04  0.18526203101E+04  0.00000000000E+00 0. -1.
         -2   -1    0    0    0  501 -0.00000000000E+00 -0.00000000000E+00 -0.22971471646E+04  0.22971471646E+04  0.00000000000E+00 0.  1.
        -24    2    1    2    0    0  0.92855199662E+03  0.97243164235E+03 -0.76100327538E+03  0.15470025832E+04  0.79113196453E+02 0.  0.
    9900016    2    1    2    0    0 -0.78554409867E+03 -0.66123268057E+03  0.23331169337E+02  0.21519542979E+04  0.18910459455E+04 0.  0.
         24    2    4    4    0    0 -0.98012489460E+03 -0.89415647573E+03 -0.45835784769E+03  0.14059995419E+04  0.81130654381E+02 0.  0.
        -15    1    5    5    0    0 -0.45910438273E+03 -0.43126363665E+03 -0.25937814208E+03  0.68120641448E+03  0.00000000000E+00 0.  1.
        -15    1    1    2    0    0 -0.14300789794E+03 -0.31119896178E+03  0.29314525154E+03  0.45081059347E+03  0.00000000000E+00 0.  1.
         15    1    4    4    0    0  0.27012476239E+03  0.26976208631E+03  0.49058792660E+03  0.62162326548E+03  0.00000000000E+00 0. -1.
         15    1    3    3    0    0  0.24419630931E+03  0.28244620734E+03 -0.17690291332E+03  0.41316139493E+03  0.00000000000E+00 0. -1.
        -16    1    3    3    0    0  0.68435568731E+03  0.68998543501E+03 -0.58410036206E+03  0.11338411883E+04  0.00000000000E+00 0.  1.
         16    1    5    5    0    0 -0.52102051187E+03 -0.46289283908E+03 -0.19897970561E+03  0.72479312739E+03  0.00000000000E+00 0. -1.
    9900018    1    4    4    0    0 -0.75543966464E+02 -0.36838291153E+02 -0.88989095633E+01  0.12433149058E+03  0.91187600000E+02 0.  0.
<mgrwt>
<rscale>  0 0.21952438E+04</rscale>
<asrwt>0</asrwt>
<pdfrwt beam="1">  1        2 0.28501851E+00 0.25834527E+04</pdfrwt>
<pdfrwt beam="2">  1       -2 0.35340725E+00 0.25834527E+04</pdfrwt>
<totfact> 0.10144309E-01</totfact>
</mgrwt>
</event>
<event>
12    1  0.5992160E-010  0.3886310E+04  0.7818608E-02  0.8398441E-01
         -2   -1    0    0    0  501 -0.00000000000E+00  0.00000000000E+00  0.28155410043E+04  0.28155410043E+04  0.00000000000E+00 0.  1.
          2   -1    0    0  501    0  0.00000000000E+00 -0.00000000000E+00 -0.18511194357E+04  0.18511194357E+04  0.00000000000E+00 0. -1.
        -24    2    1    2    0    0  0.58899121969E+03 -0.33033305397E+03  0.12214301774E+03  0.69012417406E+03  0.72951185211E+02 0.  0.
    9900016    2    1    2    0    0  0.26165780616E+02  0.47346690752E+03  0.19155855946E+04  0.27311875416E+04  0.18881370863E+04 0.  0.
         24    2    4    4    0    0 -0.26827661094E+03  0.64829364891E+03  0.20689943274E+04  0.21861127657E+04  0.78067294701E+02 0.  0.
        -15    1    5    5    0    0 -0.14429222549E+03  0.31356818977E+03  0.90385186227E+03  0.96751922198E+03  0.00000000000E+00 0.  1.
        -15    1    1    2    0    0 -0.61515700030E+03 -0.14313385355E+03 -0.10733070437E+04  0.12453487243E+04  0.00000000000E+00 0.  1.
         15    1    4    4    0    0  0.26793324340E+03 -0.21238985362E+03 -0.23456655238E+03  0.41463133062E+03  0.00000000000E+00 0. -1.
         15    1    3    3    0    0  0.37324664436E+03 -0.20085709011E+03  0.11152566253E+03  0.43828598149E+03  0.00000000000E+00 0. -1.
        -16    1    3    3    0    0  0.21574457533E+03 -0.12947596387E+03  0.10617355204E+02  0.25183819257E+03  0.00000000000E+00 0.  1.
         16    1    5    5    0    0 -0.12398438545E+03  0.33472545914E+03  0.11651424651E+04  0.12185935437E+04  0.00000000000E+00 0. -1.
    9900018    1    4    4    0    0  0.26509148162E+02  0.37563112232E+02  0.81157819623E+02  0.13044344528E+03  0.91187600000E+02 0.  0.
<mgrwt>
<rscale>  0 0.25127962E+04</rscale>
<asrwt>0</asrwt>
<pdfrwt beam="1">  1        2 0.28478761E+00 0.38863103E+04</pdfrwt>
<pdfrwt beam="2">  1       -2 0.43316015E+00 0.38863103E+04</pdfrwt>
<totfact> 0.28205922E-02</totfact>
</mgrwt>
</event>
