<event>
10    1  0.6778970E-014  0.2490765E+04  0.7818608E-02  0.8406283E-01
          1   -1    0    0  501    0  0.00000000000E+00  0.00000000000E+00  0.15408149405E+04  0.15408149405E+04  0.00000000000E+00 0. -1.
         -1   -1    0    0    0  501 -0.00000000000E+00 -0.00000000000E+00 -0.10065955600E+04  0.10065955600E+04  0.00000000000E+00 0.  1.
    9900016    2    1    2    0    0  0.31484683216E+02  0.21728800933E+03  0.53906404834E+03  0.23277998562E+04  0.22538537570E+04 0.  0.
        -15    1    3    3    0    0 -0.46812241109E+03  0.32874632289E+03  0.59282291050E+03  0.82380321667E+03  0.00000000000E+00 0.  1.
        -15    1    3    3    0    0  0.84464563004E+02 -0.59139884747E+02  0.81560760943E+02  0.13146842243E+03  0.00000000000E+00 0.  1.
         15    1    3    3    0    0  0.45432051388E+03 -0.17638502005E+03 -0.51301669110E+03  0.70760506639E+03  0.00000000000E+00 0. -1.
         15    1    3    3    0    0  0.16187794331E+03  0.39320935528E+02  0.10992548544E+03  0.19958511180E+03  0.00000000000E+00 0. -1.
        -16    1    1    2    0    0 -0.31484683216E+02 -0.21728800933E+03 -0.48446678645E+01  0.21961064429E+03  0.00000000000E+00 0.  1.
         16    1    3    3    0    0 -0.21073236346E+03  0.12503917937E+03  0.27070184083E+03  0.36513341673E+03  0.00000000000E+00 0. -1.
    9900018    1    3    3    0    0  0.96764375696E+01 -0.40293523662E+02 -0.29302582735E+01  0.10020462215E+03  0.91187600000E+02 0.  0.
<mgrwt>
<rscale>  0 0.24907649E+04</rscale>
<asrwt>0</asrwt>
<pdfrwt beam="1">  1        1 0.23704845E+00 0.24907649E+04</pdfrwt>
<pdfrwt beam="2">  1       -1 0.15486086E+00 0.24907649E+04</pdfrwt>
<totfact> 0.17435424E+00</totfact>
</mgrwt>
</event>
<event>
11    1  0.6778970E-014  0.2563031E+04  0.7818608E-02  0.8380868E-01
         -2   -1    0    0    0  501 -0.00000000000E+00  0.00000000000E+00  0.50106159258E+03  0.50106159258E+03  0.00000000000E+00 0.  1.
          2   -1    0    0  501    0  0.00000000000E+00 -0.00000000000E+00 -0.32776042768E+04  0.32776042768E+04  0.00000000000E+00 0. -1.
    9900016    2    1    2    0    0 -0.22958890551E+02  0.15927568614E+03 -0.20742350124E+04  0.30581577704E+04  0.22414241470E+04 0.  0.
        -24    2    3    3    0    0  0.45767467528E+03  0.39919208644E+03 -0.18145994462E+04  0.19159063847E+04  0.95423761852E+02 0.  0.
        -15    1    3    3    0    0 -0.63961037925E+02  0.78270155536E+02 -0.19808525928E+02  0.10300295782E+03  0.00000000000E+00 0.  1.
        -15    1    3    3    0    0 -0.22847630639E+03 -0.51660510512E+03 -0.27223100968E+03  0.62705022115E+03  0.00000000000E+00 0.  1.
         15    1    3    3    0    0 -0.15985817188E+03  0.21628613876E+03  0.10726728792E+03  0.28955241321E+03  0.00000000000E+00 0. -1.
         15    1    4    4    0    0  0.26768997761E+03  0.17271615561E+03 -0.89981927733E+03  0.95454886013E+03  0.00000000000E+00 0. -1.
        -16    1    4    4    0    0  0.18998469768E+03  0.22647593083E+03 -0.91478016892E+03  0.96135752457E+03  0.00000000000E+00 0.  1.
         16    1    1    2    0    0  0.22958890551E+02 -0.15927568614E+03 -0.70230767180E+03  0.72050809900E+03  0.00000000000E+00 0. -1.
    9900018    1    3    3    0    0 -0.28338049638E+02 -0.17867589467E+02 -0.74863318463E+02  0.12264579347E+03  0.91187600000E+02 0.  0.
<mgrwt>
<rscale>  0 0.25630307E+04</rscale>
<asrwt>0</asrwt>
<pdfrwt beam="1">  1        2 0.50424683E+00 0.25630307E+04</pdfrwt>
<pdfrwt beam="2">  1       -2 0.77086395E-01 0.25630307E+04</pdfrwt>
<totfact> 0.15370929E+00</totfact>
</mgrwt>
</event>
<event>
11    1  0.6778970E-014  0.3407069E+04  0.7818608E-02  0.8136173E-01
          1   -1    0    0  501    0  0.00000000000E+00  0.00000000000E+00  0.17834647062E+04  0.17834647062E+04  0.00000000000E+00 0. -1.
         -1   -1    0    0    0  501 -0.00000000000E+00 -0.00000000000E+00 -0.16271867888E+04  0.16271867888E+04  0.00000000000E+00 0.  1.
    9900016    2    1    2    0    0 -0.74028992030E+03 -0.61327400108E+03 -0.58154443523E+01  0.24357625657E+04  0.22380284383E+04 0.  0.
         24    2    3    3    0    0 -0.58193375223E+03 -0.13707411854E+02 -0.96793487376E+03  0.11309129699E+04  0.56845760690E+02 0.  0.
        -15    1    4    4    0    0 -0.36908618260E+03 -0.24636350345E+02 -0.65634137002E+03  0.75340265061E+03  0.00000000000E+00 0.  1.
        -15    1    3    3    0    0  0.13859782602E+02  0.53649454543E+00  0.37895711745E+01  0.14378534343E+02  0.00000000000E+00 0. -1.
         15    1    3    3    0    0 -0.45083801262E+02 -0.53919649121E+03  0.95562131763E+03  0.10981700724E+04  0.00000000000E+00 0. -1.
         15    1    3    3    0    0 -0.66156707849E+02 -0.23198544415E+02 -0.22440127466E+02  0.73610065733E+02  0.00000000000E+00 0.  1.
        -16    1    1    2    0    0  0.74028992030E+03  0.61327400108E+03  0.16209336174E+03  0.97488892927E+03  0.00000000000E+00 0.  1.
         16    1    4    4    0    0 -0.21284756962E+03  0.10928938492E+02 -0.31159350374E+03  0.37751031929E+03  0.00000000000E+00 0. -1.
    9900018    1    3    3    0    0 -0.60975441560E+02 -0.37708048143E+02  0.25148668069E+02  0.11869092327E+03  0.91187600000E+02 0.  0.
<mgrwt>
<rscale>  0 0.34070692E+04</rscale>
<asrwt>0</asrwt>
<pdfrwt beam="1">  1        1 0.27437919E+00 0.34070692E+04</pdfrwt>
<pdfrwt beam="2">  1       -1 0.25033643E+00 0.34070692E+04</pdfrwt>
<totfact> 0.23846527E-01</totfact>
</mgrwt>
</event>
<event>
11    1  0.6778973E-014  0.2419414E+04  0.7818608E-02  0.8432271E-01
         -2   -1    0    0    0  501 -0.00000000000E+00  0.00000000000E+00  0.78479475028E+03  0.78479475028E+03  0.00000000000E+00 0.  1.
          2   -1    0    0  501    0  0.00000000000E+00 -0.00000000000E+00 -0.18646793238E+04  0.18646793238E+04  0.00000000000E+00 0. -1.
    9900016    2    1    2    0    0  0.42789179422E+02  0.14240842608E+03 -0.87515733402E+03  0.23229328891E+04  0.21466266034E+04 0.  0.
        -24    2    3    3    0    0  0.22609017043E+03  0.49848283398E+03  0.10211437766E+03  0.56718707390E+03  0.10803670548E+03 0.  0.
        -15    1    3    3    0    0  0.62282746338E+02  0.19685480530E+02  0.78002624679E+02  0.10174019900E+03  0.00000000000E+00 0. -1.
        -15    1    3    3    0    0 -0.28662353502E+03 -0.43391101662E+03 -0.12994629880E+04  0.13996556284E+04  0.00000000000E+00 0.  1.
         15    1    3    3    0    0  0.41039797675E+02  0.58151128184E+02  0.24418865160E+03  0.25434998776E+03  0.00000000000E+00 0.  1.
         15    1    4    4    0    0  0.13849447123E+03  0.25913345906E+03  0.33345511127E+01  0.29384007112E+03  0.00000000000E+00 0. -1.
        -16    1    4    4    0    0  0.87595699196E+02  0.23934937492E+03  0.98779826544E+02  0.27334700277E+03  0.00000000000E+00 0.  1.
         16    1    1    2    0    0  0.11585467614E+02 -0.11738506750E+03 -0.17916583512E+03  0.21450844647E+03  0.00000000000E+00 0. -1.
    9900018    1    1    2    0    0 -0.54374647036E+02 -0.25023358571E+02 -0.25561404393E+02  0.11203273853E+03  0.91187600000E+02 0.  0.
<mgrwt>
<rscale>  0 0.24194136E+04</rscale>
<asrwt>0</asrwt>
<pdfrwt beam="1">  1        2 0.28687374E+00 0.24194136E+04</pdfrwt>
<pdfrwt beam="2">  1       -2 0.12073766E+00 0.24194136E+04</pdfrwt>
<totfact> 0.37301178E+00</totfact>
</mgrwt>
</event>
<event>
11    1  0.6778970E-014  0.3525716E+04  0.7818608E-02  0.8107722E-01
         -2   -1    0    0    0  501 -0.00000000000E+00  0.00000000000E+00  0.11975344608E+04  0.11975344608E+04  0.00000000000E+00 0.  1.
          2   -1    0    0  501    0  0.00000000000E+00 -0.00000000000E+00 -0.25950554788E+04  0.25950554788E+04  0.00000000000E+00 0. -1.
    9900016    2    1    2    0    0 -0.64414960313E+02  0.15545912474E+03  0.12727133387E+03  0.22585402197E+04  0.22486638488E+04 0.  0.
        -24    2    3    3    0    0  0.52855493078E+03 -0.23899682038E+03 -0.62175998764E+03  0.85613011860E+03  0.99415807304E+02 0.  0.
        -15    1    3    3    0    0  0.14804390768E+03 -0.19214810258E+02  0.49947355755E+01  0.14936918999E+03  0.00000000000E+00 0.  1.
        -15    1    3    3    0    0 -0.66293309861E+03  0.26086277691E+03  0.50015737710E+03  0.87045222929E+03  0.00000000000E+00 0.  1.
         15    1    3    3    0    0 -0.10655178200E+03  0.12737392300E+03  0.22860996430E+03  0.28255957652E+03  0.00000000000E+00 0. -1.
         15    1    4    4    0    0  0.35843972207E+03 -0.20676126060E+03 -0.46638675084E+03  0.62349487135E+03  0.00000000000E+00 0. -1.
        -16    1    4    4    0    0  0.17011520871E+03 -0.32235559775E+02 -0.15537323680E+03  0.23263524725E+03  0.00000000000E+00 0.  1.
         16    1    1    2    0    0  0.64414960313E+02 -0.15545912474E+03 -0.15247923519E+04  0.15340497199E+04  0.00000000000E+00 0. -1.
    9900018    1    3    3    0    0  0.28471081844E+02  0.25434055467E+02  0.15269244535E+02  0.10002910527E+03  0.91187600000E+02 0.  0.
<mgrwt>
<rscale>  0 0.35257160E+04</rscale>
<asrwt>0</asrwt>
<pdfrwt beam="1">  1        2 0.39923930E+00 0.35257160E+04</pdfrwt>
<pdfrwt beam="2">  1       -2 0.18423607E+00 0.35257160E+04</pdfrwt>
<totfact> 0.42591729E-01</totfact>
</mgrwt>
</event>
<event>
11    1  0.6778970E-014  0.3154629E+04  0.7818608E-02  0.8200903E-01
         -1   -1    0    0    0  501 -0.00000000000E+00  0.00000000000E+00  0.94028519400E+03  0.94028519400E+03  0.00000000000E+00 0.  1.
          1   -1    0    0  501    0  0.00000000000E+00 -0.00000000000E+00 -0.26459210941E+04  0.26459210941E+04  0.00000000000E+00 0. -1.
    9900016    2    1    2    0    0  0.77032812812E+03 -0.73739918730E+02 -0.11912809564E+04  0.26570109326E+04  0.22453760884E+04 0.  0.
         24    2    3    3    0    0 -0.64801456266E+03  0.11151528365E+03 -0.29230457364E+03  0.72273005728E+03  0.67366460578E+02 0.  0.
        -15    1    4    4    0    0 -0.26588882922E+03  0.26835208111E+02 -0.14867539718E+03  0.30581264137E+03  0.00000000000E+00 0.  1.
        -15    1    3    3    0    0  0.79601050341E+02 -0.14541157365E+03 -0.17789792039E+03  0.24316357261E+03  0.00000000000E+00 0. -1.
         15    1    3    3    0    0  0.20489234801E+03 -0.13205772598E+03 -0.34162041766E+03  0.41967204700E+03  0.00000000000E+00 0.  1.
         15    1    3    3    0    0  0.10975987526E+04  0.11688125771E+03 -0.30303708745E+03  0.11446465509E+04  0.00000000000E+00 0. -1.
        -16    1    1    2    0    0 -0.77032812812E+03  0.73739918730E+02 -0.51435494376E+03  0.92919535554E+03  0.00000000000E+00 0.  1.
         16    1    4    4    0    0 -0.38212573344E+03  0.84680075542E+02 -0.14362917646E+03  0.41691741590E+03  0.00000000000E+00 0. -1.
    9900018    1    3    3    0    0  0.36250539808E+02 -0.24667160465E+02 -0.76420957233E+02  0.12679870480E+03  0.91187600000E+02 0.  0.
<mgrwt>
<rscale>  0 0.31546286E+04</rscale>
<asrwt>0</asrwt>
<pdfrwt beam="1">  1        1 0.40706478E+00 0.31546286E+04</pdfrwt>
<pdfrwt beam="2">  1       -1 0.14465926E+00 0.31546286E+04</pdfrwt>
<totfact> 0.34580174E-01</totfact>
</mgrwt>
</event>
<event>
10    1  0.6778970E-014  0.2845423E+04  0.7818608E-02  0.8289303E-01
         -2   -1    0    0    0  501 -0.00000000000E+00  0.00000000000E+00  0.78013297674E+03  0.78013297674E+03  0.00000000000E+00 0. -1.
          2   -1    0    0  501    0  0.00000000000E+00 -0.00000000000E+00 -0.25945680167E+04  0.25945680167E+04  0.00000000000E+00 0.  1.
    9900016    2    1    2    0    0 -0.10255956245E+03 -0.14986724680E+03 -0.87454945180E+03  0.23448322547E+04  0.21680458721E+04 0.  0.
        -15    1    3    3    0    0  0.38370599250E+03 -0.16824946038E+03 -0.42913000785E+03  0.59974222232E+03  0.00000000000E+00 0.  1.
        -15    1    3    3    0    0 -0.16444056448E+02  0.63989311895E+02  0.26498784726E+02  0.71184440864E+02  0.00000000000E+00 0. -1.
         15    1    3    3    0    0 -0.90680075164E+03  0.86325717682E+02 -0.68414274589E+02  0.91346606159E+03  0.00000000000E+00 0. -1.
         15    1    3    3    0    0  0.15711830270E+02  0.71084764526E+02  0.65649414730E+02  0.98029337509E+02  0.00000000000E+00 0.  1.
        -16    1    1    2    0    0  0.11695167960E+03  0.16788668082E+03 -0.90767126612E+03  0.93044653812E+03  0.00000000000E+00 0.  1.
         16    1    3    3    0    0  0.42126742288E+03 -0.20301758052E+03 -0.46915336882E+03  0.66241019244E+03  0.00000000000E+00 0. -1.
    9900018    1    1    2    0    0 -0.14392117149E+02 -0.18019434026E+02 -0.32214322081E+02  0.99422200637E+02  0.91187600000E+02 0.  0.
<mgrwt>
<rscale>  0 0.28454230E+04</rscale>
<asrwt>0</asrwt>
<pdfrwt beam="1">  1        2 0.39916431E+00 0.28454230E+04</pdfrwt>
<pdfrwt beam="2">  1       -2 0.12002046E+00 0.28454230E+04</pdfrwt>
<totfact> 0.14102616E+00</totfact>
</mgrwt>
</event>
