<event>
11    1  0.7434207E-016  0.1024873E+04  0.7818608E-02  0.9281678E-01
         -1   -1    0    0    0  501 -0.00000000000E+00  0.00000000000E+00  0.18765209387E+03  0.18765209387E+03  0.00000000000E+00 0.  1.
          1   -1    0    0  501    0  0.00000000000E+00 -0.00000000000E+00 -0.13993504755E+04  0.13993504755E+04  0.00000000000E+00 0. -1.
    9900016    2    1    2    0    0 -0.84688831142E+02 -0.82534894678E+02 -0.82547416402E+03  0.10444693845E+04  0.62890738006E+03 0.  0.
         24    2    3    3    0    0  0.53152216475E+02 -0.29776834645E+03 -0.68479947827E+03  0.75272470093E+03  0.78441084170E+02 0.  0.
        -15    1    4    4    0    0  0.12653286535E+02 -0.90703602266E+02 -0.21148903549E+03  0.23046661636E+03  0.00000000000E+00 0.  1.
        -15    1    4    4    0    0  0.27060739182E+02 -0.28896508078E+02 -0.10774083413E+03  0.11478405431E+03  0.00000000000E+00 0.  1.
         15    1    4    4    0    0 -0.43090722539E+01 -0.11502707853E+02 -0.21831225839E+02  0.25049607049E+02  0.00000000000E+00 0. -1.
         15    1    3    3    0    0 -0.13784104762E+03  0.21523345177E+03 -0.14067468575E+03  0.29174468355E+03  0.00000000000E+00 0. -1.
        -16    1    1    2    0    0  0.72046918904E+02 -0.79332792965E+02  0.70530731291E+01  0.10739737615E+03  0.00000000000E+00 0.  1.
         16    1    4    4    0    0  0.17747263011E+02 -0.16666552825E+03 -0.34373838281E+03  0.38242442321E+03  0.00000000000E+00 0. -1.
    9900018    1    1    2    0    0  0.12641912238E+02  0.16186768764E+03 -0.39327729072E+03  0.43513580873E+03  0.91187600000E+02 0.  0.
<mgrwt>
<rscale>  0 0.10248728E+04</rscale>
<asrwt>0</asrwt>
<pdfrwt beam="1">  1        1 0.21528470E+00 0.10248728E+04</pdfrwt>
<pdfrwt beam="2">  1       -1 0.28869552E-01 0.10248728E+04</pdfrwt>
<totfact> 0.83995636E+01</totfact>
</mgrwt>
</event>
<event>
12    1  0.7434207E-016  0.1255694E+04  0.7818608E-02  0.9065458E-01
          2   -1    0    0  501    0  0.00000000000E+00  0.00000000000E+00  0.82413274428E+03  0.82413274428E+03  0.00000000000E+00 0. -1.
         -2   -1    0    0    0  501 -0.00000000000E+00 -0.00000000000E+00 -0.47831094308E+03  0.47831094308E+03  0.00000000000E+00 0.  1.
    9900016    2    1    2    0    0 -0.84049691915E+02 -0.18198871789E+03 -0.10211060495E+03  0.81170171379E+03  0.77990310448E+03 0.  0.
        -24    2    3    3    0    0  0.34877904219E+02 -0.19143503548E+03 -0.32069301006E+03  0.38338873481E+03  0.79240609968E+02 0.  0.
         23    2    4    4    0    0  0.24259354776E+02 -0.15577078443E+03 -0.26052494845E+03  0.31063393169E+03  0.61377008535E+02 0.  0.
        -15    1    3    3    0    0  0.11067538746E+02  0.13640793813E+03  0.17188450062E+03  0.21971321661E+03  0.00000000000E+00 0.  1.
        -15    1    5    5    0    0  0.39646563631E+02 -0.14511542044E+03 -0.23333787380E+03  0.27762726560E+03  0.00000000000E+00 0. -1.
         15    1    4    4    0    0  0.57209914273E+01 -0.20870260429E+02 -0.19225527368E+02  0.28946820480E+02  0.00000000000E+00 0.  1.
         15    1    5    5    0    0 -0.15387208855E+02 -0.10655363989E+02 -0.27187074649E+02  0.33006666086E+02  0.00000000000E+00 0. -1.
        -16    1    4    4    0    0  0.48975580154E+01 -0.14793990620E+02 -0.40942534246E+02  0.43807982646E+02  0.00000000000E+00 0.  1.
         16    1    1    2    0    0  0.84049691915E+02  0.18198871789E+03  0.44793240614E+03  0.49074197357E+03  0.00000000000E+00 0. -1.
    9900018    1    3    3    0    0 -0.12999513488E+03 -0.12696162053E+03  0.46697904491E+02  0.20859976236E+03  0.91187600000E+02 0.  0.
<mgrwt>
<rscale>  0 0.12556938E+04</rscale>
<asrwt>0</asrwt>
<pdfrwt beam="1">  1        2 0.12678965E+00 0.12556938E+04</pdfrwt>
<pdfrwt beam="2">  1       -2 0.73586299E-01 0.12556938E+04</pdfrwt>
<totfact> 0.54222032E+01</totfact>
</mgrwt>
</event>
<event>
11    1  0.7434207E-016  0.1463424E+04  0.7818608E-02  0.8909146E-01
         -2   -1    0    0    0  501 -0.00000000000E+00  0.00000000000E+00  0.29482523792E+03  0.29482523792E+03  0.00000000000E+00 0.  1.
          2   -1    0    0  501    0  0.00000000000E+00 -0.00000000000E+00 -0.18160004876E+04  0.18160004876E+04  0.00000000000E+00 0. -1.
    9900016    2    1    2    0    0 -0.53693228530E+02  0.23439043022E+02 -0.49748591488E+03  0.73375247014E+03  0.53616051739E+03 0.  0.
         24    2    3    3    0    0  0.48281090590E+02  0.26001396146E+03 -0.20354997979E+03  0.34290110743E+03  0.78805147975E+02 0.  0.
        -15    1    4    4    0    0  0.20608910213E+02  0.36054679136E+02 -0.49737251151E+02  0.64795533949E+02  0.00000000000E+00 0. -1.
        -15    1    4    4    0    0  0.69268961932E+01  0.38240443384E+02 -0.23882401985E+02  0.45614499072E+02  0.00000000000E+00 0.  1.
         15    1    3    3    0    0 -0.10197431912E+03 -0.23657491844E+03 -0.29393593509E+03  0.39085136271E+03  0.00000000000E+00 0. -1.
         15    1    4    4    0    0 -0.68227928476E+01  0.32795610210E+02 -0.42771485877E+02  0.54327732839E+02  0.00000000000E+00 0.  1.
        -16    1    1    2    0    0 -0.10614034990E+03  0.37353106091E+03 -0.18287558517E+03  0.42922570636E+03  0.00000000000E+00 0.  1.
         16    1    4    4    0    0  0.27568077031E+02  0.15292322873E+03 -0.87158840775E+02  0.17816334157E+03  0.00000000000E+00 0. -1.
    9900018    1    1    2    0    0  0.15983357843E+03 -0.39697010394E+03 -0.84081374959E+03  0.94784754898E+03  0.91187600000E+02 0.  0.
<mgrwt>
<rscale>  0 0.14634244E+04</rscale>
<asrwt>0</asrwt>
<pdfrwt beam="1">  1        2 0.27938469E+00 0.14634244E+04</pdfrwt>
<pdfrwt beam="2">  1       -2 0.45357728E-01 0.14634244E+04</pdfrwt>
<totfact> 0.37754499E+01</totfact>
</mgrwt>
</event>
<event>
11    1  0.7434207E-016  0.1049201E+04  0.7818608E-02  0.9256169E-01
         -2   -1    0    0    0  501 -0.00000000000E+00  0.00000000000E+00  0.28821766930E+03  0.28821766930E+03  0.00000000000E+00 0.  1.
          2   -1    0    0  501    0  0.00000000000E+00 -0.00000000000E+00 -0.95485383818E+03  0.95485383818E+03  0.00000000000E+00 0. -1.
    9900016    2    1    2    0    0 -0.29832501827E+03 -0.34650872567E+02 -0.61510722565E+03  0.93835240489E+03  0.64183318488E+03 0.  0.
         24    2    3    3    0    0 -0.22375230939E+03 -0.47429788609E+02 -0.34224054857E+02  0.24506665237E+03  0.81066006226E+02 0.  0.
        -15    1    4    4    0    0 -0.84076111361E+02 -0.71699096773E+01 -0.19713581804E+02  0.86653478949E+02  0.00000000000E+00 0.  1.
        -15    1    4    4    0    0 -0.65001142650E+02 -0.38897975596E+02 -0.27350430988E+02  0.80537240619E+02  0.00000000000E+00 0.  1.
         15    1    4    4    0    0 -0.14586628831E+02 -0.53147022818E+01  0.79966714370E+01  0.17463177118E+02  0.00000000000E+00 0. -1.
         15    1    3    3    0    0  0.85203650479E+02  0.12989358648E+03 -0.29841465884E+03  0.33642727962E+03  0.00000000000E+00 0. -1.
        -16    1    1    2    0    0  0.29832501827E+03  0.34650872567E+02 -0.51528943228E+02  0.30471910259E+03  0.00000000000E+00 0.  1.
         16    1    4    4    0    0 -0.60088426552E+02  0.39527989457E+01  0.48432864985E+01  0.60412755683E+02  0.00000000000E+00 0. -1.
    9900018    1    3    3    0    0 -0.15977635935E+03 -0.11711467044E+03 -0.28246851195E+03  0.35685847290E+03  0.91187600000E+02 0.  0.
<mgrwt>
<rscale>  0 0.10492011E+04</rscale>
<asrwt>0</asrwt>
<pdfrwt beam="1">  1        2 0.14690059E+00 0.10492011E+04</pdfrwt>
<pdfrwt beam="2">  1       -2 0.44341180E-01 0.10492011E+04</pdfrwt>
<totfact> 0.12937815E+02</totfact>
</mgrwt>
</event>
<event>
11    1  0.7434207E-016  0.3524525E+04  0.7818608E-02  0.8108002E-01
          1   -1    0    0  501    0  0.00000000000E+00  0.00000000000E+00  0.38734802497E+04  0.38734802497E+04  0.00000000000E+00 0.  1.
         -1   -1    0    0    0  501 -0.00000000000E+00 -0.00000000000E+00 -0.80175166446E+03  0.80175166446E+03  0.00000000000E+00 0. -1.
    9900016    2    1    2    0    0  0.24550594348E+03  0.58181212803E+03  0.10336655385E+03  0.10378573589E+04  0.81711977851E+03 0.  0.
         24    2    3    3    0    0 -0.27757515959E+03  0.93719034205E+02 -0.46119537176E+02  0.30697104764E+03  0.79202182963E+02 0.  0.
        -15    1    4    4    0    0 -0.38963394068E+02 -0.35814547258E+01 -0.34960938819E+01  0.39283527943E+02  0.00000000000E+00 0.  1.
        -15    1    4    4    0    0 -0.22967945093E+02  0.94759665775E+01 -0.21097408941E+02  0.32594801861E+02  0.00000000000E+00 0.  1.
         15    1    4    4    0    0 -0.57155250057E+02  0.25898888376E+02 -0.16406594727E+02  0.64858703184E+02  0.00000000000E+00 0. -1.
         15    1    3    3    0    0  0.52308110307E+03  0.48809309383E+03  0.14948609103E+03  0.73088631130E+03  0.00000000000E+00 0. -1.
        -16    1    1    2    0    0 -0.43684348301E+03 -0.97610986663E+03  0.30036363218E+04  0.31883308884E+04  0.00000000000E+00 0.  1.
         16    1    4    4    0    0 -0.15848857037E+03  0.61925633977E+02 -0.51194396259E+01  0.17023401465E+03  0.00000000000E+00 0. -1.
    9900018    1    1    2    0    0  0.19133753953E+03  0.39429773860E+03 -0.35274290450E+02  0.44904366676E+03  0.91187600000E+02 0.  0.
<mgrwt>
<rscale>  0 0.35245251E+04</rscale>
<asrwt>0</asrwt>
<pdfrwt beam="1">  1        1 0.59592003E+00 0.35245251E+04</pdfrwt>
<pdfrwt beam="2">  1       -1 0.12334641E+00 0.35245251E+04</pdfrwt>
<totfact> 0.58040507E-02</totfact>
</mgrwt>
</event>
<event>
11    1  0.7434207E-016  0.1568688E+04  0.7818608E-02  0.8840019E-01
          2   -1    0    0  501    0  0.00000000000E+00  0.00000000000E+00  0.15469380462E+04  0.15469380462E+04  0.00000000000E+00 0.  1.
         -2   -1    0    0    0  501 -0.00000000000E+00 -0.00000000000E+00 -0.39768589236E+03  0.39768589236E+03  0.00000000000E+00 0. -1.
    9900016    2    1    2    0    0 -0.24121593476E+03 -0.10880251876E+03  0.25856064217E+03  0.73241113073E+03  0.63209915636E+03 0.  0.
         24    2    3    3    0    0 -0.11649830942E+03 -0.20591665206E+02 -0.20180182206E+03  0.24736552542E+03  0.80435408928E+02 0.  0.
        -15    1    4    4    0    0 -0.43372260585E+02  0.24957061567E+01 -0.40167828700E+02  0.59167862898E+02  0.00000000000E+00 0.  1.
        -15    1    4    4    0    0 -0.23657356892E+02 -0.91726202803E+01 -0.12958236892E+02  0.28490759929E+02  0.00000000000E+00 0. -1.
         15    1    4    4    0    0 -0.30324022463E+02 -0.69977551572E+01 -0.49549252183E+02  0.58511907399E+02  0.00000000000E+00 0.  1.
         15    1    3    3    0    0 -0.12471762534E+03 -0.88210853555E+02  0.46036246423E+03  0.48504560531E+03  0.00000000000E+00 0. -1.
        -16    1    1    2    0    0  0.39127139827E+03  0.22763395587E+03  0.89188966448E+03  0.10001888315E+04  0.00000000000E+00 0.  1.
         16    1    4    4    0    0 -0.19144669479E+02 -0.69169959256E+01 -0.99126504283E+02  0.10119499520E+03  0.00000000000E+00 0. -1.
    9900018    1    1    2    0    0 -0.15005546351E+03 -0.11883143711E+03 -0.11981528495E+01  0.21202397633E+03  0.91187600000E+02 0.  0.
<mgrwt>
<rscale>  0 0.15686879E+04</rscale>
<asrwt>0</asrwt>
<pdfrwt beam="1">  1        2 0.23799047E+00 0.15686879E+04</pdfrwt>
<pdfrwt beam="2">  1       -2 0.61182446E-01 0.15686879E+04</pdfrwt>
<totfact> 0.28523531E+01</totfact>
</mgrwt>
</event>
