<event>
13    1  0.2945606E-012  0.5670695E+04  0.7818608E-02  0.7732629E-01
         -2   -1    0    0    0  501 -0.00000000000E+00  0.00000000000E+00  0.31549352038E+04  0.31549352038E+04  0.00000000000E+00 0.  1.
          2   -1    0    0  501    0  0.00000000000E+00 -0.00000000000E+00 -0.25481333326E+04  0.25481333326E+04  0.00000000000E+00 0. -1.
    9900016    2    1    2    0    0 -0.91565715598E+02 -0.24922084433E+03  0.53042149950E+03  0.22713535288E+04  0.21925338256E+04 0.  0.
         23    2    3    3    0    0 -0.52892588770E+02  0.52199217526E+03  0.11597170350E+04  0.12752220097E+04  0.77292403714E+02 0.  0.
    9900016    2    1    2    0    0  0.20541444932E+03 -0.14420834494E+03 -0.83467062242E+03  0.24286810333E+04  0.22668977416E+04 0.  0.
        -24    2    5    5    0    0  0.60134522720E+03  0.69368010981E+03  0.29635846269E+03  0.96647549546E+03  0.58637598007E+02 0.  0.
        -15    1    5    5    0    0 -0.39593077788E+03 -0.83788845475E+03 -0.11310290851E+04  0.14622055378E+04  0.00000000000E+00 0.  1.
        -15    1    4    4    0    0 -0.40945839187E+02  0.50817747698E+03  0.10930906382E+04  0.12061376593E+04  0.00000000000E+00 0. -1.
         15    1    4    4    0    0 -0.11946749584E+02  0.13814698280E+02  0.66626396822E+02  0.69084350381E+02  0.00000000000E+00 0.  1.
         15    1    6    6    0    0  0.34153004458E+03  0.43775400672E+03  0.17857119526E+03  0.58323152652E+03  0.00000000000E+00 0. -1.
        -16    1    6    6    0    0  0.25981518262E+03  0.25592610310E+03  0.11778726743E+03  0.38324396895E+03  0.00000000000E+00 0.  1.
         16    1    3    3    0    0 -0.38673126827E+02 -0.77121301959E+03 -0.62929553555E+03  0.99613151912E+03  0.00000000000E+00 0. -1.
    9900018    1    1    2    0    0 -0.11384873372E+03  0.39342918927E+03  0.91105099419E+03  0.10030339743E+04  0.91187600000E+02 0.  0.
<mgrwt>
<rscale>  0 0.56706950E+04</rscale>
<asrwt>0</asrwt>
<pdfrwt beam="1">  1        2 0.39202051E+00 0.56706950E+04</pdfrwt>
<pdfrwt beam="2">  1       -2 0.48537465E+00 0.56706950E+04</pdfrwt>
<totfact> 0.46340987E-03</totfact>
</mgrwt>
</event>
<event>
12    1  0.3018371E-012  0.6850663E+04  0.7818608E-02  0.7593036E-01
         -2   -1    0    0    0  501 -0.00000000000E+00  0.00000000000E+00  0.32112757638E+04  0.32112757638E+04  0.00000000000E+00 0.  1.
          2   -1    0    0  501    0  0.00000000000E+00 -0.00000000000E+00 -0.36536554842E+04  0.36536554842E+04  0.00000000000E+00 0. -1.
    9900016    2    1    2    0    0 -0.12471643452E+04 -0.56605468917E+03 -0.25394365074E+04  0.36354237403E+04  0.22117258378E+04 0.  0.
    9900016    2    1    2    0    0  0.12471643452E+04  0.56605468917E+03  0.20970567870E+04  0.32295075076E+04  0.20386845658E+04 0.  0.
        -24    2    4    4    0    0 -0.22565437231E+03  0.57424583879E+03  0.12028746564E+04  0.13557392055E+04  0.10219185437E+03 0.  0.
        -15    1    3    3    0    0  0.34342885693E+01  0.21928896474E+02  0.89538923216E+02  0.92249062918E+02  0.00000000000E+00 0.  1.
        -15    1    4    4    0    0  0.54572330068E+03 -0.32133032266E+03  0.52952035830E+03  0.82550524348E+03  0.00000000000E+00 0.  1.
         15    1    5    5    0    0 -0.10718253015E+03  0.37648684838E+03  0.68693018203E+03  0.79063488208E+03  0.00000000000E+00 0. -1.
         15    1    3    3    0    0  0.45504597626E+02  0.11913080730E+03  0.26513529766E+03  0.29421003334E+03  0.00000000000E+00 0. -1.
        -16    1    5    5    0    0 -0.11847184216E+03  0.19775899041E+03  0.51594447436E+03  0.56510432337E+03  0.00000000000E+00 0.  1.
         16    1    3    3    0    0 -0.12961032314E+04 -0.70711439295E+03 -0.28941107282E+04  0.32489646441E+04  0.00000000000E+00 0. -1.
    9900018    1    4    4    0    0  0.92709541685E+03  0.31313917304E+03  0.36466177231E+03  0.10482630587E+04  0.91187600000E+02 0.  0.
<mgrwt>
<rscale>  0 0.68506628E+04</rscale>
<asrwt>0</asrwt>
<pdfrwt beam="1">  1        2 0.56210084E+00 0.68506628E+04</pdfrwt>
<pdfrwt beam="2">  1       -2 0.49404242E+00 0.68506628E+04</pdfrwt>
<totfact> 0.72279143E-04</totfact>
</mgrwt>
</event>
<event>
13    1  0.2945606E-012  0.4721852E+04  0.7818608E-02  0.7872908E-01
          1   -1    0    0  501    0  0.00000000000E+00  0.00000000000E+00  0.24260214427E+04  0.24260214427E+04  0.00000000000E+00 0. -1.
         -1   -1    0    0    0  501 -0.00000000000E+00 -0.00000000000E+00 -0.22975776223E+04  0.22975776223E+04  0.00000000000E+00 0.  1.
    9900016    2    1    2    0    0  0.23431226376E+03  0.50391771336E+03  0.38399622782E+03  0.23078719352E+04  0.22068041298E+04 0.  0.
         23    2    3    3    0    0 -0.41579887819E+03 -0.56496734964E+02 -0.76362757853E+03  0.87478113147E+03  0.77681150293E+02 0.  0.
    9900016    2    1    2    0    0 -0.23431226376E+03 -0.50391771336E+03 -0.25555240739E+03  0.24157271297E+04  0.23370056127E+04 0.  0.
        -24    2    5    5    0    0  0.24990587911E+03  0.30259284888E+03  0.84931374925E+03  0.93718507736E+03  0.54466906939E+02 0.  0.
        -15    1    5    5    0    0 -0.25099325698E+03 -0.62413903143E+03 -0.75187995286E+03  0.10088957375E+04  0.00000000000E+00 0.  1.
        -15    1    4    4    0    0 -0.89057194129E+02  0.71253500473E+01 -0.21842435637E+03  0.23598973260E+03  0.00000000000E+00 0. -1.
         15    1    4    4    0    0 -0.32674168406E+03 -0.63622085012E+02 -0.54520322216E+03  0.63879139887E+03  0.00000000000E+00 0.  1.
         15    1    6    6    0    0  0.18775462142E+03  0.18969456952E+03  0.59298402946E+03  0.65028139045E+03  0.00000000000E+00 0. -1.
        -16    1    6    6    0    0  0.62151257693E+02  0.11289827936E+03  0.25632971979E+03  0.28690368691E+03  0.00000000000E+00 0.  1.
         16    1    3    3    0    0  0.65011114195E+03  0.56041444832E+03  0.11476238064E+04  0.14330908037E+04  0.00000000000E+00 0. -1.
    9900018    1    5    5    0    0 -0.23322488589E+03 -0.18237153081E+03 -0.35298620378E+03  0.46964631490E+03  0.91187600000E+02 0.  0.
<mgrwt>
<rscale>  0 0.47218524E+04</rscale>
<asrwt>0</asrwt>
<pdfrwt beam="1">  1        1 0.37323407E+00 0.47218524E+04</pdfrwt>
<pdfrwt beam="2">  1       -1 0.35347348E+00 0.47218524E+04</pdfrwt>
<totfact> 0.16577400E-02</totfact>
</mgrwt>
</event>
<event>
13    1  0.2945606E-012  0.5889989E+04  0.7818608E-02  0.7704193E-01
         -1   -1    0    0    0  501 -0.00000000000E+00  0.00000000000E+00  0.25260008711E+04  0.25260008711E+04  0.00000000000E+00 0.  1.
          1   -1    0    0  501    0  0.00000000000E+00 -0.00000000000E+00 -0.34334873289E+04  0.34334873289E+04  0.00000000000E+00 0. -1.
    9900016    2    1    2    0    0  0.74846888522E+02 -0.11857435099E+03  0.14322345717E+04  0.26481770431E+04  0.22230348288E+04 0.  0.
         23    2    3    3    0    0 -0.21087834157E+03 -0.32280634924E+03 -0.52462156566E+03  0.66005341555E+03  0.10848552980E+03 0.  0.
    9900016    2    1    2    0    0 -0.74846888522E+02  0.11857435099E+03 -0.23397210295E+04  0.33113111569E+04  0.23389795101E+04 0.  0.
         24    2    5    5    0    0  0.88154722759E+03  0.52881784562E+03 -0.15652632445E+04  0.18750552325E+04  0.94917184360E+02 0.  0.
        -15    1    6    6    0    0  0.29457082292E+03  0.21093770237E+03 -0.61455031601E+03  0.71339944975E+03  0.00000000000E+00 0.  1.
        -15    1    4    4    0    0 -0.19596116630E+03 -0.21287194817E+03 -0.39000921189E+03  0.48561551702E+03  0.00000000000E+00 0. -1.
         15    1    5    5    0    0 -0.70103069396E+03 -0.79124067594E+02 -0.22645995742E+03  0.74093776004E+03  0.00000000000E+00 0. -1.
         15    1    4    4    0    0 -0.14917175274E+02 -0.10993440107E+03 -0.13461235377E+03  0.17443789853E+03  0.00000000000E+00 0.  1.
        -16    1    3    3    0    0  0.28572523009E+03  0.20423199825E+03  0.19568561374E+04  0.19881236276E+04  0.00000000000E+00 0.  1.
         16    1    6    6    0    0  0.58697640467E+03  0.31788014325E+03 -0.95071292853E+03  0.11616557827E+04  0.00000000000E+00 0. -1.
    9900018    1    5    5    0    0 -0.25536342215E+03 -0.33111942703E+03 -0.54799782755E+03  0.69531816438E+03  0.91187600000E+02 0.  0.
<mgrwt>
<rscale>  0 0.58899888E+04</rscale>
<asrwt>0</asrwt>
<pdfrwt beam="1">  1        1 0.52822882E+00 0.58899888E+04</pdfrwt>
<pdfrwt beam="2">  1       -1 0.38861552E+00 0.58899888E+04</pdfrwt>
<totfact> 0.16230382E-03</totfact>
</mgrwt>
</event>
