<event>
12    1  0.4996799E-020  0.2346787E+04  0.7818608E-02  0.8459699E-01
         -2   -1    0    0    0  501 -0.00000000000E+00  0.00000000000E+00  0.15353661993E+04  0.15353661993E+04  0.00000000000E+00 0.  1.
          2   -1    0    0  501    0  0.00000000000E+00 -0.00000000000E+00 -0.89675856382E+03  0.89675856382E+03  0.00000000000E+00 0. -1.
    9900016    2    1    2    0    0  0.14566573474E+03 -0.26163546986E+03  0.57863728734E+03  0.21267265509E+04  0.20244685936E+04 0.  0.
         24    2    3    3    0    0 -0.19279475683E+03 -0.21923855972E+03 -0.74353102909E+02  0.31340429514E+03  0.86362630641E+02 0.  0.
         24    2    4    4    0    0 -0.15595735385E+03 -0.18794967156E+03 -0.66842599924E+02  0.26309557680E+03  0.71439303673E+02 0.  0.
        -15    1    4    4    0    0 -0.93997839860E+01 -0.11384767037E+02 -0.71639486476E+01  0.16410088961E+02  0.00000000000E+00 0.  1.
        -15    1    5    5    0    0 -0.17666377547E+02 -0.18866449880E+01 -0.19691483796E+02  0.26521969366E+02  0.00000000000E+00 0.  1.
         15    1    4    4    0    0 -0.27437618995E+02 -0.19904121123E+02 -0.34655433763E+00  0.33898629378E+02  0.00000000000E+00 0. -1.
         15    1    3    3    0    0  0.36528413692E+03  0.67985129327E+03 -0.84895996465E+02  0.77642617928E+03  0.00000000000E+00 0. -1.
        -16    1    1    2    0    0 -0.14566573474E+03  0.26163546986E+03  0.59970348101E+02  0.30539821220E+03  0.00000000000E+00 0.  1.
         16    1    5    5    0    0 -0.13829097630E+03 -0.18606302657E+03 -0.47151116129E+02  0.23657360743E+03  0.00000000000E+00 0. -1.
    9900018    1    3    3    0    0 -0.26823645355E+02 -0.72224820342E+03  0.73788638671E+03  0.10368960765E+04  0.91187600000E+02 0.  0.
<mgrwt>
<rscale>  0 0.23467874E+04</rscale>
<asrwt>0</asrwt>
<pdfrwt beam="1">  1        2 0.13796286E+00 0.23467874E+04</pdfrwt>
<pdfrwt beam="2">  1       -2 0.23621018E+00 0.23467874E+04</pdfrwt>
<totfact> 0.20808957E+00</totfact>
</mgrwt>
</event>
<event>
12    1  0.4996799E-020  0.2820995E+04  0.7818608E-02  0.8296780E-01
          2   -1    0    0  501    0  0.00000000000E+00  0.00000000000E+00  0.10942763709E+04  0.10942763709E+04  0.00000000000E+00 0. -1.
         -2   -1    0    0    0  501 -0.00000000000E+00 -0.00000000000E+00 -0.18180988105E+04  0.18180988105E+04  0.00000000000E+00 0.  1.
    9900016    2    1    2    0    0  0.20816250026E+03 -0.23936512486E+03 -0.11727659937E+04  0.23626683465E+04  0.20263746815E+04 0.  0.
        -24    2    3    3    0    0  0.98262640674E+02  0.63129342317E+01 -0.63610202921E+03  0.64911939398E+03  0.83873693067E+02 0.  0.
        -24    2    4    4    0    0  0.75141313818E+02  0.79114925987E+01 -0.54645214041E+03  0.55633304660E+03  0.72025746991E+02 0.  0.
        -15    1    4    4    0    0  0.10276719046E+02  0.18786000731E+01 -0.34072731955E+02  0.35638338281E+02  0.00000000000E+00 0. -1.
        -15    1    3    3    0    0  0.85351613351E+03 -0.64695715508E+02 -0.30638730544E+03  0.90914713150E+03  0.00000000000E+00 0.  1.
         15    1    4    4    0    0  0.12844607810E+02 -0.34771584402E+01 -0.55577156848E+02  0.57148009098E+02  0.00000000000E+00 0.  1.
         15    1    5    5    0    0  0.12305049995E+02  0.34077545540E+02 -0.17905055432E+03  0.18267948535E+03  0.00000000000E+00 0. -1.
        -16    1    5    5    0    0  0.62836263823E+02 -0.26166052941E+02 -0.36740158609E+03  0.37365356125E+03  0.00000000000E+00 0.  1.
         16    1    1    2    0    0 -0.20816250026E+03  0.23936512486E+03  0.44894355408E+03  0.54970683484E+03  0.00000000000E+00 0. -1.
    9900018    1    3    3    0    0 -0.74361627393E+03 -0.18098234359E+03 -0.23027665902E+03  0.80440182100E+03  0.91187600000E+02 0.  0.
<mgrwt>
<rscale>  0 0.28209946E+04</rscale>
<asrwt>0</asrwt>
<pdfrwt beam="1">  1        2 0.16835021E+00 0.28209946E+04</pdfrwt>
<pdfrwt beam="2">  1       -2 0.27970751E+00 0.28209946E+04</pdfrwt>
<totfact> 0.80678076E-01</totfact>
</mgrwt>
</event>
<event>
12    1  0.4996799E-020  0.2713481E+04  0.7818608E-02  0.8330644E-01
         -2   -1    0    0    0  501 -0.00000000000E+00  0.00000000000E+00  0.18693922202E+04  0.18693922202E+04  0.00000000000E+00 0.  1.
          2   -1    0    0  501    0  0.00000000000E+00 -0.00000000000E+00 -0.98467569079E+03  0.98467569079E+03  0.00000000000E+00 0. -1.
    9900016    2    1    2    0    0 -0.26530813566E+03  0.55951953931E+03  0.62109376428E+03  0.21810541786E+04  0.19969450028E+04 0.  0.
         24    2    3    3    0    0 -0.50600091013E+03 -0.27674810731E+03  0.32715344508E+03  0.66869579295E+03  0.86592441475E+02 0.  0.
         24    2    4    4    0    0 -0.46326743857E+03 -0.25806408856E+03  0.29654056721E+03  0.61189464969E+03  0.72560050156E+02 0.  0.
        -15    1    5    5    0    0 -0.32237420907E+02 -0.78146442284E+01  0.26190819328E+01  0.33274307826E+02  0.00000000000E+00 0.  1.
        -15    1    4    4    0    0 -0.25032380371E+02 -0.59818335596E+01  0.13285442950E+02  0.28963863592E+02  0.00000000000E+00 0. -1.
         15    1    3    3    0    0 -0.11784923075E+03  0.10203237626E+04  0.37093237101E+03  0.10920347273E+04  0.00000000000E+00 0. -1.
         15    1    4    4    0    0 -0.17701091195E+02 -0.12702185192E+02  0.17327434923E+02  0.27837279665E+02  0.00000000000E+00 0.  1.
        -16    1    1    2    0    0  0.26530813566E+03 -0.55951953931E+03  0.26362276513E+03  0.67301373241E+03  0.00000000000E+00 0.  1.
         16    1    5    5    0    0 -0.43103001766E+03 -0.25024944434E+03  0.29392148527E+03  0.57862034186E+03  0.00000000000E+00 0. -1.
    9900018    1    3    3    0    0  0.35854200522E+03 -0.18405611599E+03 -0.76992051808E+02  0.42032365836E+03  0.91187600000E+02 0.  0.
<mgrwt>
<rscale>  0 0.27134812E+04</rscale>
<asrwt>0</asrwt>
<pdfrwt beam="1">  1        2 0.15148857E+00 0.27134812E+04</pdfrwt>
<pdfrwt beam="2">  1       -2 0.28759880E+00 0.27134812E+04</pdfrwt>
<totfact> 0.85466160E-01</totfact>
</mgrwt>
</event>
<event>
12    1  0.4996799E-020  0.2869551E+04  0.7818608E-02  0.8281995E-01
         -1   -1    0    0    0  501 -0.00000000000E+00  0.00000000000E+00  0.13977348097E+04  0.13977348097E+04  0.00000000000E+00 0.  1.
          1   -1    0    0  501    0  0.00000000000E+00 -0.00000000000E+00 -0.14727973756E+04  0.14727973756E+04  0.00000000000E+00 0. -1.
    9900016    2    1    2    0    0  0.36444890008E+03 -0.61550562187E+03  0.16160118146E+02  0.21494276510E+04  0.20268467890E+04 0.  0.
        -24    2    3    3    0    0  0.11273818455E+03  0.15124700154E+03  0.45001844003E+03  0.49481308380E+03  0.82084333498E+02 0.  0.
        -24    2    4    4    0    0  0.90982050410E+02  0.12371323464E+03  0.36656827872E+03  0.40382878073E+03  0.71572922653E+02 0.  0.
        -15    1    4    4    0    0  0.12015544793E+02  0.86765448997E+01  0.39174243127E+02  0.41884090925E+02  0.00000000000E+00 0.  1.
        -15    1    3    3    0    0 -0.44048077242E+03  0.91219518306E+02  0.39255036362E+02  0.45153656472E+03  0.00000000000E+00 0.  1.
         15    1    5    5    0    0  0.57357201256E+02  0.21741039083E+02  0.11587147224E+03  0.13110575653E+03  0.00000000000E+00 0. -1.
         15    1    4    4    0    0  0.97405893445E+01  0.18857222006E+02  0.44275918177E+02  0.49100212149E+02  0.00000000000E+00 0. -1.
        -16    1    5    5    0    0  0.33624849154E+02  0.10197219555E+03  0.25069680648E+03  0.27272302419E+03  0.00000000000E+00 0.  1.
         16    1    1    2    0    0 -0.36444890008E+03  0.61550562187E+03 -0.91222683976E+02  0.72110453431E+03  0.00000000000E+00 0. -1.
    9900018    1    3    3    0    0  0.69219148795E+03 -0.85797214172E+03 -0.47311335824E+03  0.12030780025E+04  0.91187600000E+02 0.  0.
<mgrwt>
<rscale>  0 0.28695506E+04</rscale>
<asrwt>0</asrwt>
<pdfrwt beam="1">  1        1 0.22658421E+00 0.28695506E+04</pdfrwt>
<pdfrwt beam="2">  1       -1 0.21503613E+00 0.28695506E+04</pdfrwt>
<totfact> 0.69887375E-01</totfact>
</mgrwt>
</event>
<event>
12    1  0.4996800E-020  0.2411602E+04  0.7818608E-02  0.8435173E-01
         -2   -1    0    0    0  501 -0.00000000000E+00  0.00000000000E+00  0.17150604481E+04  0.17150604481E+04  0.00000000000E+00 0.  1.
          2   -1    0    0  501    0  0.00000000000E+00 -0.00000000000E+00 -0.84775782587E+03  0.84775782587E+03  0.00000000000E+00 0. -1.
    9900016    2    1    2    0    0  0.18921404805E+03 -0.23487135896E+03  0.93477475243E+03  0.22537567920E+04  0.20284598415E+04 0.  0.
         24    2    3    3    0    0  0.36857222731E+02 -0.25086145363E+03  0.11570477361E+04  0.11872777902E+04  0.81112044310E+02 0.  0.
         24    2    4    4    0    0  0.31836758315E+02 -0.22601747017E+03  0.10131635023E+04  0.10409104923E+04  0.69977815034E+02 0.  0.
        -15    1    5    5    0    0  0.99862797084E+01  0.15480591899E+01  0.45476130755E+02  0.46585413362E+02  0.00000000000E+00 0.  1.
        -15    1    4    4    0    0  0.69914503263E+01 -0.12481855397E+02  0.73822671697E+02  0.75196169772E+02  0.00000000000E+00 0. -1.
         15    1    4    4    0    0 -0.19709859102E+01 -0.12362128058E+02  0.70061562084E+02  0.71171128116E+02  0.00000000000E+00 0.  1.
         15    1    3    3    0    0 -0.11471162135E+03  0.40103428259E+03  0.16818474320E+03  0.44974810698E+03  0.00000000000E+00 0. -1.
        -16    1    1    2    0    0 -0.18921404805E+03  0.23487135896E+03 -0.67472130235E+02  0.30906148190E+03  0.00000000000E+00 0.  1.
         16    1    5    5    0    0  0.21850478607E+02 -0.22756552936E+03  0.96768737154E+03  0.99432507894E+03  0.00000000000E+00 0. -1.
    9900018    1    3    3    0    0  0.26706844667E+03 -0.38504418792E+03 -0.39045772684E+03  0.61673089488E+03  0.91187600000E+02 0.  0.
<mgrwt>
<rscale>  0 0.24116019E+04</rscale>
<asrwt>0</asrwt>
<pdfrwt beam="1">  1        2 0.13042428E+00 0.24116019E+04</pdfrwt>
<pdfrwt beam="2">  1       -2 0.26385545E+00 0.24116019E+04</pdfrwt>
<totfact> 0.15121130E+00</totfact>
</mgrwt>
</event>
<event>
12    1  0.4996799E-020  0.3217719E+04  0.7818608E-02  0.8184153E-01
          2   -1    0    0  501    0  0.00000000000E+00  0.00000000000E+00  0.32194936209E+04  0.32194936209E+04  0.00000000000E+00 0. -1.
         -2   -1    0    0    0  501 -0.00000000000E+00 -0.00000000000E+00 -0.80398658909E+03  0.80398658909E+03  0.00000000000E+00 0.  1.
    9900016    2    1    2    0    0  0.63824180785E+03  0.41026230667E+03  0.10037727675E+04  0.24207758085E+04  0.20680734950E+04 0.  0.
         24    2    3    3    0    0 -0.39933224941E+03  0.26758706627E+03  0.38991142867E+03  0.62509790280E+03  0.87449313419E+02 0.  0.
         24    2    4    4    0    0 -0.34074347084E+03  0.22763462252E+03  0.33199524747E+03  0.53220040993E+03  0.71363840244E+02 0.  0.
        -15    1    5    5    0    0 -0.15075983967E+02 -0.48054496123E+01  0.13630678309E+02  0.20884755917E+02  0.00000000000E+00 0.  1.
        -15    1    4    4    0    0 -0.21614574232E+02  0.62669099647E+01  0.15630875920E+02  0.27400515720E+02  0.00000000000E+00 0. -1.
         15    1    4    4    0    0 -0.36974204341E+02  0.33685533782E+02  0.42285305279E+02  0.65496977147E+02  0.00000000000E+00 0.  1.
         15    1    3    3    0    0  0.65964501899E+02 -0.13631874340E+03 -0.35907068166E+03  0.38969971740E+03  0.00000000000E+00 0. -1.
        -16    1    1    2    0    0 -0.63824180785E+03 -0.41026230667E+03  0.14117342643E+04  0.16027044015E+04  0.00000000000E+00 0.  1.
         16    1    5    5    0    0 -0.32566748687E+03  0.23244007213E+03  0.31836456916E+03  0.51131565401E+03  0.00000000000E+00 0. -1.
    9900018    1    3    3    0    0  0.97160955536E+03  0.27899398381E+03  0.97293202046E+03  0.14059781883E+04  0.91187600000E+02 0.  0.
<mgrwt>
<rscale>  0 0.32177195E+04</rscale>
<asrwt>0</asrwt>
<pdfrwt beam="1">  1        2 0.49530670E+00 0.32177195E+04</pdfrwt>
<pdfrwt beam="2">  1       -2 0.12369025E+00 0.32177195E+04</pdfrwt>
<totfact> 0.52075587E-01</totfact>
</mgrwt>
</event>
