<event>
12    1  0.8179430E-016  0.1887166E+04  0.7818608E-02  0.9373616E-01
          2   -1    0    0  501    0  0.00000000000E+00  0.00000000000E+00  0.11453907201E+04  0.11453907201E+04  0.00000000000E+00 0. -1.
         -2   -1    0    0    0  501 -0.00000000000E+00 -0.00000000000E+00 -0.98460084777E+03  0.98460084777E+03  0.00000000000E+00 0.  1.
         23    2    1    2    0    0  0.11744943768E+02  0.11135579398E+02 -0.17734995071E+03  0.21277132668E+03  0.11643318947E+03 0.  0.
    9900016    2    1    2    0    0  0.29817319823E+03  0.53872698096E+03  0.69508629769E+03  0.11920934414E+04  0.74753447784E+03 0.  0.
         23    2    4    4    0    0  0.11522901408E+03 -0.55525743617E+02 -0.83480528662E+02  0.16911178452E+03  0.72587623656E+02 0.  0.
        -15    1    5    5    0    0  0.90251474430E+02 -0.54927267242E+02 -0.29599617512E+02  0.10971996482E+03  0.00000000000E+00 0. -1.
        -15    1    3    3    0    0  0.17740995271E+01  0.62564805095E+02 -0.74137680866E+02  0.97025244086E+02  0.00000000000E+00 0. -1.
         15    1    5    5    0    0  0.24977539652E+02 -0.59847637483E+00 -0.53880911150E+02  0.59391819701E+02  0.00000000000E+00 0.  1.
         15    1    3    3    0    0  0.99708442404E+01 -0.51429225697E+02 -0.10321226984E+03  0.11574608260E+03  0.00000000000E+00 0.  1.
        -16    1    1    2    0    0 -0.30991814200E+03 -0.54986256036E+03 -0.35694647466E+03  0.72512679980E+03  0.00000000000E+00 0.  1.
         16    1    4    4    0    0  0.13815032069E+03  0.51696443299E+03  0.64799153578E+03  0.84037537239E+03  0.00000000000E+00 0. -1.
    9900018    1    4    4    0    0  0.44793863466E+02  0.77288291581E+02  0.13057529058E+03  0.18260628446E+03  0.91187600000E+02 0.  0.
<mgrwt>
<rscale>  0 0.94279155E+03</rscale>
<asrwt>0</asrwt>
<pdfrwt beam="1">  1        2 0.17621396E+00 0.18871658E+04</pdfrwt>
<pdfrwt beam="2">  1       -2 0.15147705E+00 0.18871658E+04</pdfrwt>
<totfact> 0.55504058E+00</totfact>
</mgrwt>
</event>
<event>
11    1  0.8179430E-016  0.1938577E+04  0.7818608E-02  0.9243373E-01
         -1   -1    0    0    0  501 -0.00000000000E+00  0.00000000000E+00  0.14022223308E+04  0.14022223308E+04  0.00000000000E+00 0.  1.
          1   -1    0    0  501    0  0.00000000000E+00 -0.00000000000E+00 -0.85976201026E+03  0.85976201026E+03  0.00000000000E+00 0. -1.
    9900016    2    1    2    0    0  0.48465615993E+03 -0.22492349307E+03  0.10840685728E+04  0.14296569751E+04  0.76369642196E+03 0.  0.
         23    2    3    3    0    0  0.32884730832E+03 -0.29567960677E+02  0.41027555287E+02  0.34007659512E+03  0.70384755222E+02 0.  0.
        -15    1    4    4    0    0  0.15140250517E+03 -0.10836811051E+01 -0.14186793366E+02  0.15206958290E+03  0.00000000000E+00 0.  1.
        -15    1    1    2    0    0  0.10888895797E+02 -0.54082600067E+02 -0.50306802763E+02  0.74661034589E+02  0.00000000000E+00 0.  1.
         15    1    4    4    0    0  0.17744480315E+03 -0.28484279572E+02  0.55214348654E+02  0.18800701222E+03  0.00000000000E+00 0. -1.
         15    1    1    2    0    0 -0.11446816831E+03  0.29063609618E+02 -0.71546220527E+02  0.13808155790E+03  0.00000000000E+00 0. -1.
        -16    1    3    3    0    0  0.95779773524E+02 -0.14750530090E+03  0.79715178119E+03  0.81632257169E+03  0.00000000000E+00 0.  1.
         16    1    1    2    0    0 -0.38107688741E+03  0.24994248352E+03 -0.41975522899E+03  0.61958477342E+03  0.00000000000E+00 0. -1.
    9900018    1    3    3    0    0  0.60029078084E+02 -0.47850231502E+02  0.24588923633E+03  0.27325780832E+03  0.91187600000E+02 0.  0.
<mgrwt>
<rscale>  0 0.10616748E+04</rscale>
<asrwt>0</asrwt>
<pdfrwt beam="1">  1        1 0.13227108E+00 0.19385767E+04</pdfrwt>
<pdfrwt beam="2">  1       -1 0.21572651E+00 0.19385767E+04</pdfrwt>
<totfact> 0.21393615E+00</totfact>
</mgrwt>
</event>
<event>
11    1  0.8179430E-016  0.2120409E+04  0.7818608E-02  0.8552306E-01
         -2   -1    0    0    0  501 -0.00000000000E+00  0.00000000000E+00  0.61127284854E+03  0.61127284854E+03  0.00000000000E+00 0. -1.
          2   -1    0    0  501    0  0.00000000000E+00 -0.00000000000E+00 -0.18388405949E+04  0.18388405949E+04  0.00000000000E+00 0.  1.
    9900016    2    1    2    0    0  0.41000740070E+03 -0.69711281990E+03 -0.72468007035E+03  0.13229894721E+04  0.75569013926E+03 0.  0.
         23    2    3    3    0    0  0.34298845233E+03  0.24352808376E+02 -0.20260068980E+03  0.40664028722E+03  0.77943222781E+02 0.  0.
        -15    1    1    2    0    0 -0.49694742450E+00  0.90295937226E+02 -0.74180475536E+01  0.90601493728E+02  0.00000000000E+00 0. -1.
        -15    1    4    4    0    0  0.23838958171E+03 -0.18560219157E+02 -0.12838003479E+03  0.27139548216E+03  0.00000000000E+00 0.  1.
         15    1    4    4    0    0  0.10459887063E+03  0.42913027533E+02 -0.74220655006E+02  0.13524480507E+03  0.00000000000E+00 0. -1.
         15    1    1    2    0    0 -0.25574893299E+03  0.32970026536E+03  0.34856804697E+02  0.41871801793E+03  0.00000000000E+00 0.  1.
        -16    1    1    2    0    0 -0.15376152029E+03  0.27711661732E+03 -0.53032643310E+03  0.61780445965E+03  0.00000000000E+00 0.  1.
         16    1    3    3    0    0  0.21778911903E+02 -0.56996811978E+03 -0.38695916123E+03  0.68925711533E+03  0.00000000000E+00 0. -1.
    9900018    1    3    3    0    0  0.45240036465E+02 -0.15149750850E+03 -0.13512021932E+03  0.22709206953E+03  0.91187600000E+02 0.  0.
<mgrwt>
<rscale>  0 0.21204088E+04</rscale>
<asrwt>0</asrwt>
<pdfrwt beam="1">  1        2 0.28289855E+00 0.21204088E+04</pdfrwt>
<pdfrwt beam="2">  1       -2 0.94041977E-01 0.21204088E+04</pdfrwt>
<totfact> 0.72089959E+00</totfact>
</mgrwt>
</event>
<event>
11    1  0.8179430E-016  0.1164102E+04  0.7818608E-02  0.9908484E-01
          1   -1    0    0  501    0  0.00000000000E+00  0.00000000000E+00  0.49867741852E+03  0.49867741852E+03  0.00000000000E+00 0. -1.
         -1   -1    0    0    0  501 -0.00000000000E+00 -0.00000000000E+00 -0.77813781584E+03  0.77813781584E+03  0.00000000000E+00 0.  1.
         23    2    1    2    0    0  0.37699244929E+02 -0.41378656278E+02 -0.10248557679E+02  0.81989277074E+02  0.59023574588E+02 0.  0.
    9900016    2    1    2    0    0  0.14079359908E+03  0.22864511204E+03  0.24089719133E+02  0.80373233013E+03  0.75716835587E+03 0.  0.
        -15    1    3    3    0    0 -0.55347637418E+01 -0.34723849998E+02 -0.14511289280E+02  0.38038886484E+02  0.00000000000E+00 0. -1.
        -15    1    4    4    0    0  0.68237173514E+02  0.52896964328E+02 -0.17652698743E+03  0.19650999459E+03  0.00000000000E+00 0. -1.
         15    1    4    4    0    0  0.18140290093E+02  0.33468032518E+02 -0.11289112068E+03  0.11913683080E+03  0.00000000000E+00 0.  1.
         15    1    3    3    0    0  0.43234008671E+02 -0.66548062796E+01  0.42627316012E+01  0.43950390590E+02  0.00000000000E+00 0.  1.
        -16    1    1    2    0    0 -0.17849284401E+03 -0.18726645577E+03 -0.29330155877E+03  0.39109362715E+03  0.00000000000E+00 0.  1.
         16    1    4    4    0    0  0.54998739741E+02  0.12398292361E+03  0.35956723160E+03  0.38429834863E+03  0.00000000000E+00 0. -1.
    9900018    1    4    4    0    0 -0.58260426784E+00  0.18297191592E+02 -0.46059404362E+02  0.10378715610E+03  0.91187600000E+02 0.  0.
<mgrwt>
<rscale>  0 0.59851867E+03</rscale>
<asrwt>0</asrwt>
<pdfrwt beam="1">  1        1 0.76719603E-01 0.11641023E+04</pdfrwt>
<pdfrwt beam="2">  1       -1 0.11971351E+00 0.11641023E+04</pdfrwt>
<totfact> 0.27472985E+01</totfact>
</mgrwt>
</event>
<event>
12    1  0.8179430E-016  0.1002306E+04  0.7818608E-02  0.9963607E-01
          1   -1    0    0  501    0  0.00000000000E+00  0.00000000000E+00  0.29699213917E+03  0.29699213917E+03  0.00000000000E+00 0. -1.
         -1   -1    0    0    0  501 -0.00000000000E+00 -0.00000000000E+00 -0.10400353058E+04  0.10400353058E+04  0.00000000000E+00 0.  1.
         23    2    1    2    0    0  0.46693293087E+02  0.70781163819E+02 -0.98693517664E+02  0.14547195647E+03  0.65049542027E+02 0.  0.
    9900016    2    1    2    0    0 -0.23286135461E+03 -0.44933940107E+02 -0.59604463091E+03  0.99749364047E+03  0.76385920908E+03 0.  0.
         23    2    4    4    0    0  0.57823737726E+02 -0.87269244979E+02 -0.60268547325E+03  0.62369065889E+03  0.12165834358E+03 0.  0.
        -15    1    5    5    0    0 -0.31388135629E+02 -0.19155660380E+01 -0.67761158909E+02  0.74702470563E+02  0.00000000000E+00 0.  1.
        -15    1    3    3    0    0 -0.86060613673E+01  0.90399263809E+01  0.43610083016E+01  0.13221306843E+02  0.00000000000E+00 0.  1.
         15    1    3    3    0    0  0.55299354454E+02  0.61741237438E+02 -0.10305452597E+03  0.13225064962E+03  0.00000000000E+00 0. -1.
         15    1    5    5    0    0  0.89211873355E+02 -0.85353678941E+02 -0.53492431434E+03  0.54898818833E+03  0.00000000000E+00 0. -1.
        -16    1    4    4    0    0 -0.20487023940E+03  0.36796992096E+02  0.86258462547E+02  0.22531390543E+03  0.00000000000E+00 0.  1.
         16    1    1    2    0    0  0.18616806152E+03 -0.25847223713E+02 -0.48305018107E+02  0.19406184808E+03  0.00000000000E+00 0. -1.
    9900018    1    4    4    0    0 -0.85814852938E+02  0.55383127765E+01 -0.79617620209E+02  0.14848907615E+03  0.91187600000E+02 0.  0.
<mgrwt>
<rscale>  0 0.57275199E+03</rscale>
<asrwt>0</asrwt>
<pdfrwt beam="1">  1        1 0.45691099E-01 0.10023063E+04</pdfrwt>
<pdfrwt beam="2">  1       -1 0.16000543E+00 0.10023063E+04</pdfrwt>
<totfact> 0.26039153E+01</totfact>
</mgrwt>
</event>
<event>
11    1  0.8179430E-016  0.1611925E+04  0.7818608E-02  0.9468948E-01
         -1   -1    0    0    0  501 -0.00000000000E+00  0.00000000000E+00  0.12053779144E+04  0.12053779144E+04  0.00000000000E+00 0.  1.
          1   -1    0    0  501    0  0.00000000000E+00 -0.00000000000E+00 -0.68664745862E+03  0.68664745862E+03  0.00000000000E+00 0. -1.
         23    2    1    2    0    0 -0.35294528148E+02  0.19065425051E+02 -0.97830785118E+02  0.16620697854E+03  0.12823690206E+03 0.  0.
    9900016    2    1    2    0    0 -0.13704336606E+02 -0.47299316933E+03  0.83396870220E+03  0.12201334233E+04  0.75452728736E+03 0.  0.
        -15    1    4    4    0    0  0.51682678128E+01 -0.17425720186E+03  0.78642281238E+02  0.19125086089E+03  0.00000000000E+00 0.  1.
        -15    1    3    3    0    0 -0.38842351814E+02  0.60905724527E+02 -0.15639894441E+02  0.73911040263E+02  0.00000000000E+00 0.  1.
         15    1    4    4    0    0 -0.13936038512E+03 -0.35091567850E+03  0.36055296695E+03  0.52207429771E+03  0.00000000000E+00 0. -1.
         15    1    3    3    0    0  0.35478236654E+01 -0.41840299476E+02 -0.82190890677E+02  0.92295938282E+02  0.00000000000E+00 0. -1.
        -16    1    4    4    0    0  0.11551663598E+03  0.14574559885E+03  0.21082496525E+03  0.28112815360E+03  0.00000000000E+00 0.  1.
         16    1    1    2    0    0  0.48998864754E+02  0.45392774428E+03 -0.21740746134E+03  0.50568497112E+03  0.00000000000E+00 0. -1.
    9900018    1    4    4    0    0  0.49711447222E+01 -0.93565887814E+02  0.18394848876E+03  0.22568011112E+03  0.91187600000E+02 0.  0.
<mgrwt>
<rscale>  0 0.86612374E+03</rscale>
<asrwt>0</asrwt>
<pdfrwt beam="1">  1        1 0.10563807E+00 0.16119247E+04</pdfrwt>
<pdfrwt beam="2">  1       -1 0.18544276E+00 0.16119247E+04</pdfrwt>
<totfact> 0.50921635E+00</totfact>
</mgrwt>
</event>
