<event>
12    1  0.4153213E-013  0.4345146E+04  0.7818608E-02  0.7938323E-01
         -2   -1    0    0    0  501 -0.00000000000E+00  0.00000000000E+00  0.25662141282E+04  0.25662141282E+04  0.00000000000E+00 0.  1.
          2   -1    0    0  501    0  0.00000000000E+00 -0.00000000000E+00 -0.18393136160E+04  0.18393136160E+04  0.00000000000E+00 0. -1.
    9900016    2    1    2    0    0  0.10287662497E+04 -0.17815862994E+03  0.84369351166E+03  0.22303983421E+04  0.17812236044E+04 0.  0.
         24    2    3    3    0    0  0.96552833969E+03  0.46882879853E+03  0.10931798027E+04  0.15340972756E+04  0.79793187598E+02 0.  0.
    9900016    2    1    2    0    0 -0.90464510067E+03  0.16504181043E+03 -0.76385070123E+02  0.20153605386E+04  0.17917092019E+04 0.  0.
        -15    1    5    5    0    0 -0.28195524409E+02  0.14621852138E+03 -0.58874754543E+03  0.60728783608E+03  0.00000000000E+00 0.  1.
        -15    1    4    4    0    0  0.45982525000E+03  0.17939345892E+03  0.50810659331E+03  0.70837390113E+03  0.00000000000E+00 0.  1.
         15    1    3    3    0    0  0.63237910025E+02 -0.64698742848E+03 -0.24948629104E+03  0.69630106656E+03  0.00000000000E+00 0. -1.
         15    1    5    5    0    0  0.18132394239E+02 -0.35123851937E+02 -0.23674308955E+03  0.24002033069E+03  0.00000000000E+00 0. -1.
        -16    1    5    5    0    0 -0.89458197050E+03  0.53947140986E+02  0.74910556486E+03  0.11680523718E+04  0.00000000000E+00 0.  1.
         16    1    4    4    0    0  0.50570308969E+03  0.28943533961E+03  0.58507320939E+03  0.82572337444E+03  0.00000000000E+00 0. -1.
    9900018    1    1    2    0    0 -0.12412114904E+03  0.13116819514E+02 -0.40407929337E+02  0.15976886349E+03  0.91187600000E+02 0.  0.
<mgrwt>
<rscale>  0 0.43451456E+04</rscale>
<asrwt>0</asrwt>
<pdfrwt beam="1">  1        2 0.28297133E+00 0.43451456E+04</pdfrwt>
<pdfrwt beam="2">  1       -2 0.39480217E+00 0.43451456E+04</pdfrwt>
<totfact> 0.50525240E-02</totfact>
</mgrwt>
</event>
<event>
13    1  0.4153213E-013  0.4061446E+04  0.7818608E-02  0.7992264E-01
          2   -1    0    0  501    0  0.00000000000E+00  0.00000000000E+00  0.31979377793E+04  0.31979377793E+04  0.00000000000E+00 0. -1.
         -2   -1    0    0    0  501 -0.00000000000E+00 -0.00000000000E+00 -0.12895297082E+04  0.12895297082E+04  0.00000000000E+00 0.  1.
    9900016    2    1    2    0    0  0.59888160054E+03 -0.43264309182E+03  0.43367840285E+03  0.19774669733E+04  0.17822624546E+04 0.  0.
        -24    2    3    3    0    0 -0.73755675759E+02  0.28846374460E+03  0.85210183894E+03  0.90624610584E+03  0.80952015185E+02 0.  0.
    9900016    2    1    2    0    0 -0.59888160054E+03  0.43264309182E+03  0.14747296683E+04  0.25100005142E+04  0.18919396846E+04 0.  0.
         23    2    5    5    0    0 -0.26478450075E+03 -0.32728774490E+03 -0.28503955595E+03  0.51905029188E+03  0.10458277698E+03 0.  0.
        -15    1    3    3    0    0  0.67263727630E+03 -0.72110683642E+03 -0.41842343609E+03  0.10712208675E+04  0.00000000000E+00 0.  1.
        -15    1    6    6    0    0 -0.16034294860E+03 -0.14233699172E+03 -0.18951243746E+03  0.28615493064E+03  0.00000000000E+00 0.  1.
         15    1    4    4    0    0 -0.62111072486E+01  0.10662012890E+03  0.40562049014E+03  0.41944536206E+03  0.00000000000E+00 0. -1.
         15    1    6    6    0    0 -0.10444155216E+03 -0.18495075319E+03 -0.95527118487E+02  0.23289536124E+03  0.00000000000E+00 0. -1.
        -16    1    4    4    0    0 -0.67544568510E+02  0.18184361570E+03  0.44648134881E+03  0.48680074377E+03  0.00000000000E+00 0.  1.
         16    1    5    5    0    0 -0.25260845667E+03  0.74839944699E+03  0.16353170437E+04  0.18160877177E+04  0.00000000000E+00 0. -1.
    9900018    1    5    5    0    0 -0.81488643110E+02  0.11531389741E+02  0.12445218051E+03  0.17486250465E+03  0.91187600000E+02 0.  0.
<mgrwt>
<rscale>  0 0.40614459E+04</rscale>
<asrwt>0</asrwt>
<pdfrwt beam="1">  1        2 0.49199043E+00 0.40614459E+04</pdfrwt>
<pdfrwt beam="2">  1       -2 0.19838919E+00 0.40614459E+04</pdfrwt>
<totfact> 0.13902456E-01</totfact>
</mgrwt>
</event>
<event>
12    1  0.4153213E-013  0.3766230E+04  0.7818608E-02  0.8053441E-01
          2   -1    0    0  501    0  0.00000000000E+00  0.00000000000E+00  0.17910570929E+04  0.17910570929E+04  0.00000000000E+00 0. -1.
         -2   -1    0    0    0  501 -0.00000000000E+00 -0.00000000000E+00 -0.19799045771E+04  0.19799045771E+04  0.00000000000E+00 0.  1.
    9900016    2    1    2    0    0  0.24465884762E+03  0.35156510192E+03 -0.44053071719E+03  0.18159956073E+04  0.17088934315E+04 0.  0.
         24    2    3    3    0    0  0.38804248459E+03  0.39105600572E+03 -0.10501246218E+04  0.11885220004E+04  0.79505059939E+02 0.  0.
    9900016    2    1    2    0    0 -0.24465884762E+03 -0.35156510192E+03  0.25168323300E+03  0.19549660627E+04  0.18907913380E+04 0.  0.
        -15    1    4    4    0    0  0.26345589888E+02  0.59640438902E+02 -0.14552594624E+03  0.15946433171E+03  0.00000000000E+00 0.  1.
        -15    1    5    5    0    0 -0.30022244460E+02 -0.41322867001E+03 -0.65767440662E+03  0.77729974527E+03  0.00000000000E+00 0. -1.
         15    1    3    3    0    0 -0.14338363696E+03 -0.39490903796E+02  0.60959390464E+03  0.62747360694E+03  0.00000000000E+00 0. -1.
         15    1    5    5    0    0  0.35037560708E+02  0.37820407795E+01 -0.74148045481E+02  0.82096693852E+02  0.00000000000E+00 0.  1.
        -16    1    5    5    0    0 -0.24930333745E+03  0.93945747848E+02  0.95784658004E+03  0.99420723619E+03  0.00000000000E+00 0.  1.
         16    1    4    4    0    0  0.36169689470E+03  0.33141556681E+03 -0.90459867559E+03  0.10290576687E+04  0.00000000000E+00 0. -1.
    9900018    1    5    5    0    0 -0.37082642595E+00 -0.36064220541E+02  0.25659105062E+02  0.10136238741E+03  0.91187600000E+02 0.  0.
<mgrwt>
<rscale>  0 0.37662300E+04</rscale>
<asrwt>0</asrwt>
<pdfrwt beam="1">  1        2 0.27554725E+00 0.37662300E+04</pdfrwt>
<pdfrwt beam="2">  1       -2 0.30460070E+00 0.37662300E+04</pdfrwt>
<totfact> 0.20901086E-01</totfact>
</mgrwt>
</event>
<event>
13    1  0.4153213E-013  0.4254411E+04  0.7818608E-02  0.7955102E-01
          2   -1    0    0  501    0  0.00000000000E+00  0.00000000000E+00  0.22537970931E+04  0.22537970931E+04  0.00000000000E+00 0. -1.
         -2   -1    0    0    0  501 -0.00000000000E+00 -0.00000000000E+00 -0.20077247097E+04  0.20077247097E+04  0.00000000000E+00 0.  1.
    9900016    2    1    2    0    0  0.24105720448E+03 -0.87533308423E+03 -0.47518577627E+03  0.20466244351E+04  0.17715963062E+04 0.  0.
        -24    2    3    3    0    0 -0.35144165215E+03 -0.54646433961E+03  0.52448406175E+03  0.83892027787E+03  0.81050553702E+02 0.  0.
    9900016    2    1    2    0    0 -0.24105720448E+03  0.87533308423E+03  0.72125815960E+03  0.22148973677E+04  0.18871249117E+04 0.  0.
         23    2    5    5    0    0 -0.10735548806E+03  0.51661971615E+03 -0.56942986823E+03  0.78376100886E+03  0.10774883872E+03 0.  0.
        -15    1    3    3    0    0  0.59249885663E+03 -0.32886874461E+03 -0.99966983802E+03  0.12077041572E+04  0.00000000000E+00 0.  1.
        -15    1    6    6    0    0  0.33374068972E+01  0.15393342430E+03 -0.21698746093E+03  0.26606426968E+03  0.00000000000E+00 0. -1.
         15    1    4    4    0    0 -0.17429865526E+03 -0.32791557002E+03  0.26517701379E+03  0.45631950532E+03  0.00000000000E+00 0. -1.
         15    1    6    6    0    0 -0.11069289496E+03  0.36268629185E+03 -0.35244240730E+03  0.51769673917E+03  0.00000000000E+00 0.  1.
        -16    1    4    4    0    0 -0.17714299689E+03 -0.21854876959E+03  0.25930704796E+03  0.38260077255E+03  0.00000000000E+00 0.  1.
         16    1    5    5    0    0 -0.10620525910E+03  0.26401351170E+03  0.12621421239E+04  0.12938258895E+04  0.00000000000E+00 0. -1.
    9900018    1    5    5    0    0 -0.27496457313E+02  0.94699856383E+02  0.28545903925E+02  0.13731046933E+03  0.91187600000E+02 0.  0.
<mgrwt>
<rscale>  0 0.42544114E+04</rscale>
<asrwt>0</asrwt>
<pdfrwt beam="1">  1        2 0.34673802E+00 0.42544114E+04</pdfrwt>
<pdfrwt beam="2">  1       -2 0.30888072E+00 0.42544114E+04</pdfrwt>
<totfact> 0.10433981E-01</totfact>
</mgrwt>
</event>
