<event>
12    1  0.5490063E-012  0.3726446E+04  0.7818608E-02  0.8772957E-01
          2   -1    0    0  501    0  0.00000000000E+00  0.00000000000E+00  0.37066478330E+04  0.37066478330E+04  0.00000000000E+00 0. -1.
         -2   -1    0    0    0  501 -0.00000000000E+00 -0.00000000000E+00 -0.13044969836E+04  0.13044969836E+04  0.00000000000E+00 0.  1.
         23    2    1    2    0    0 -0.54063178525E+02 -0.11165473491E+03 -0.34750771462E+03  0.38005150286E+03  0.91038047022E+02 0.  0.
    9900016    2    1    2    0    0 -0.37375001797E+03  0.66760580364E+03  0.25980414325E+04  0.34981544879E+04  0.22140187332E+04 0.  0.
         24    2    4    4    0    0 -0.89484257339E+03 -0.90671966538E+02  0.19334353100E+03  0.92345166513E+03  0.80103808752E+02 0.  0.
        -15    1    5    5    0    0 -0.29074092209E+03  0.29783910908E+01  0.81770987143E+02  0.30203584047E+03  0.00000000000E+00 0.  1.
        -15    1    3    3    0    0 -0.72793086107E+02 -0.50196043803E+02 -0.22426199935E+03  0.24106414198E+03  0.00000000000E+00 0.  1.
         15    1    3    3    0    0  0.18729907582E+02 -0.61458691108E+02 -0.12324571527E+03  0.13898736088E+03  0.00000000000E+00 0. -1.
         15    1    4    4    0    0  0.52109255542E+03  0.75827777018E+03  0.24046979015E+04  0.25747028228E+04  0.00000000000E+00 0. -1.
        -16    1    1    2    0    0  0.41153681455E+03 -0.42368469440E+03 -0.29341457754E+03  0.65951753905E+03  0.00000000000E+00 0.  1.
         16    1    5    5    0    0 -0.60410165130E+03 -0.93650357628E+02  0.11157254386E+03  0.62141582466E+03  0.00000000000E+00 0. -1.
    9900018    1    1    2    0    0  0.16276381938E+02 -0.13226637433E+03  0.44503170903E+03  0.47342128683E+03  0.91187600000E+02 0.  0.
<mgrwt>
<rscale>  0 0.16798218E+04</rscale>
<asrwt>0</asrwt>
<pdfrwt beam="1">  1        2 0.57025351E+00 0.37264464E+04</pdfrwt>
<pdfrwt beam="2">  1       -2 0.20069184E+00 0.37264464E+04</pdfrwt>
<totfact> 0.59817283E-02</totfact>
</mgrwt>
</event>
<event>
12    1  0.5490063E-012  0.2824361E+04  0.7818608E-02  0.8900976E-01
          1   -1    0    0  501    0  0.00000000000E+00  0.00000000000E+00  0.15657242457E+04  0.15657242457E+04  0.00000000000E+00 0. -1.
         -1   -1    0    0    0  501 -0.00000000000E+00 -0.00000000000E+00 -0.17106516700E+04  0.17106516700E+04  0.00000000000E+00 0.  1.
         23    2    1    2    0    0 -0.13470623937E+03  0.13372060393E+03  0.35062773703E+03  0.40887015836E+03  0.90598154373E+02 0.  0.
    9900016    2    1    2    0    0  0.83575009769E+02 -0.48738842600E+02 -0.58354667864E+02  0.21951572052E+04  0.21922476209E+04 0.  0.
        -24    2    4    4    0    0  0.73920650418E+03 -0.54938675166E+03  0.63160027051E+03  0.11197322649E+04  0.81421033236E+02 0.  0.
        -15    1    4    4    0    0 -0.65563149441E+03  0.50064790906E+03 -0.68995493837E+03  0.10754249403E+04  0.00000000000E+00 0.  1.
        -15    1    3    3    0    0 -0.42376597393E+02  0.10562400380E+03  0.19089178270E+03  0.22224283765E+03  0.00000000000E+00 0. -1.
         15    1    3    3    0    0 -0.92329641977E+02  0.28096600135E+02  0.15973595433E+03  0.18662732071E+03  0.00000000000E+00 0.  1.
         15    1    5    5    0    0  0.55273162103E+03 -0.41056429883E+03  0.42807591457E+03  0.81075537433E+03  0.00000000000E+00 0. -1.
        -16    1    5    5    0    0  0.18647488314E+03 -0.13882245283E+03  0.20352435594E+03  0.30897689058E+03  0.00000000000E+00 0.  1.
         16    1    1    2    0    0  0.85024991182E+02 -0.59207578452E+01  0.93807369964E+02  0.12674433778E+03  0.00000000000E+00 0. -1.
    9900018    1    1    2    0    0 -0.33893761582E+02 -0.79061003489E+02 -0.53100786345E+03  0.54560421441E+03  0.91187600000E+02 0.  0.
<mgrwt>
<rscale>  0 0.14754038E+04</rscale>
<asrwt>0</asrwt>
<pdfrwt beam="1">  1        1 0.24088065E+00 0.28243609E+04</pdfrwt>
<pdfrwt beam="2">  1       -1 0.26317718E+00 0.28243609E+04</pdfrwt>
<totfact> 0.28701699E-01</totfact>
</mgrwt>
</event>
<event>
12    1  0.5490063E-012  0.4981486E+04  0.7818608E-02  0.8403625E-01
         -2   -1    0    0    0  501 -0.00000000000E+00  0.00000000000E+00  0.20804102012E+04  0.20804102012E+04  0.00000000000E+00 0.  1.
          2   -1    0    0  501    0  0.00000000000E+00 -0.00000000000E+00 -0.34702274775E+04  0.34702274775E+04  0.00000000000E+00 0. -1.
         23    2    1    2    0    0  0.29876318812E+03 -0.39854338658E+02 -0.33269021688E+03  0.45822004819E+03  0.91842371844E+02 0.  0.
    9900016    2    1    2    0    0 -0.59942704963E+03  0.75599749932E+03 -0.63792755306E+03  0.24826715510E+04  0.21967843454E+04 0.  0.
        -24    2    4    4    0    0  0.81378414050E+03  0.27373182641E+03 -0.46432102496E+03  0.97938007097E+03  0.80109731363E+02 0.  0.
        -15    1    3    3    0    0  0.13474076982E+03 -0.57376806662E+02 -0.12180044318E+03  0.19047971271E+03  0.00000000000E+00 0.  1.
        -15    1    4    4    0    0 -0.14132111901E+04  0.48226567291E+03 -0.17360652810E+03  0.15032914800E+04  0.00000000000E+00 0.  1.
         15    1    3    3    0    0  0.16402241829E+03  0.17522468004E+02 -0.21088977371E+03  0.26774033548E+03  0.00000000000E+00 0. -1.
         15    1    5    5    0    0  0.40905340600E+03  0.14662307825E+03 -0.19048814346E+03  0.47445626651E+03  0.00000000000E+00 0. -1.
        -16    1    5    5    0    0  0.40473073450E+03  0.12710874817E+03 -0.27383288150E+03  0.50492380445E+03  0.00000000000E+00 0.  1.
         16    1    1    2    0    0 -0.94466916960E+02 -0.22214983832E+03 -0.14100989881E+04  0.14306130523E+04  0.00000000000E+00 0. -1.
    9900018    1    1    2    0    0  0.39513077847E+03 -0.49399332235E+03  0.99089948180E+03  0.11791330273E+04  0.91187600000E+02 0.  0.
<mgrwt>
<rscale>  0 0.24982071E+04</rscale>
<asrwt>0</asrwt>
<pdfrwt beam="1">  1        2 0.53388114E+00 0.49814857E+04</pdfrwt>
<pdfrwt beam="2">  1       -2 0.32006311E+00 0.49814857E+04</pdfrwt>
<totfact> 0.14634907E-02</totfact>
</mgrwt>
</event>
<event>
12    1  0.5490063E-012  0.4742627E+04  0.7818608E-02  0.8363645E-01
         -2   -1    0    0    0  501 -0.00000000000E+00  0.00000000000E+00  0.28013284168E+04  0.28013284168E+04  0.00000000000E+00 0.  1.
          2   -1    0    0  501    0  0.00000000000E+00 -0.00000000000E+00 -0.24058779724E+04  0.24058779724E+04  0.00000000000E+00 0. -1.
         23    2    1    2    0    0  0.83054678241E+02  0.41925218248E+03  0.13393461449E+03  0.45737480603E+03  0.92643187208E+02 0.  0.
    9900016    2    1    2    0    0  0.12286152187E+03  0.89754640445E+03  0.11390234272E+04  0.26343731584E+04  0.21958741012E+04 0.  0.
        -24    2    4    4    0    0 -0.26571759068E+03  0.19302078928E+03  0.16479920944E+04  0.16823231737E+04  0.80439136769E+02 0.  0.
        -15    1    4    4    0    0  0.38857911254E+03  0.70452561518E+03 -0.50896866715E+03  0.95204998466E+03  0.00000000000E+00 0.  1.
        -15    1    3    3    0    0  0.18461623188E+02  0.27506756511E+03  0.11322335380E+03  0.29803108018E+03  0.00000000000E+00 0.  1.
         15    1    3    3    0    0  0.64593055052E+02  0.14418461737E+03  0.20711260685E+02  0.15934372585E+03  0.00000000000E+00 0. -1.
         15    1    5    5    0    0 -0.18998598852E+03  0.15796110906E+03  0.13689872044E+04  0.13911047242E+04  0.00000000000E+00 0. -1.
        -16    1    5    5    0    0 -0.75731602159E+02  0.35059680218E+02  0.27900488993E+03  0.29121844953E+03  0.00000000000E+00 0.  1.
         16    1    1    2    0    0  0.30526170317E+03 -0.11531898562E+04 -0.10009571208E+04  0.15572240396E+04  0.00000000000E+00 0. -1.
    9900018    1    1    2    0    0 -0.51117790328E+03 -0.16360873078E+03  0.12344952353E+03  0.55823438522E+03  0.91187600000E+02 0.  0.
<mgrwt>
<rscale>  0 0.26134567E+04</rscale>
<asrwt>0</asrwt>
<pdfrwt beam="1">  1        2 0.37013507E+00 0.47426269E+04</pdfrwt>
<pdfrwt beam="2">  1       -2 0.43097360E+00 0.47426269E+04</pdfrwt>
<totfact> 0.13394436E-02</totfact>
</mgrwt>
</event>
<event>
12    1  0.5490063E-012  0.3570727E+04  0.7818608E-02  0.8666449E-01
          2   -1    0    0  501    0  0.00000000000E+00  0.00000000000E+00  0.24900198250E+04  0.24900198250E+04  0.00000000000E+00 0. -1.
         -2   -1    0    0    0  501 -0.00000000000E+00 -0.00000000000E+00 -0.18086202383E+04  0.18086202383E+04  0.00000000000E+00 0.  1.
         23    2    1    2    0    0 -0.25689315431E+03 -0.64846336327E+01 -0.47302403546E+03  0.54593638553E+03  0.90877146246E+02 0.  0.
    9900016    2    1    2    0    0  0.58589578855E+03  0.14016553515E+03  0.59167151114E+03  0.23475645403E+04  0.21904483198E+04 0.  0.
         24    2    4    4    0    0  0.81584417389E+03 -0.51904333511E+03 -0.46898546395E+03  0.10777512417E+04  0.81195281775E+02 0.  0.
        -15    1    3    3    0    0 -0.26984360085E+02 -0.29970546219E+02 -0.53875384087E+02  0.67297446760E+02  0.00000000000E+00 0. -1.
        -15    1    5    5    0    0  0.22944097301E+03 -0.11224553593E+03 -0.99833734980E+02  0.27424258435E+03  0.00000000000E+00 0.  1.
         15    1    4    4    0    0 -0.22994838535E+03  0.65920887027E+03  0.10606569751E+04  0.12698132986E+04  0.00000000000E+00 0. -1.
         15    1    3    3    0    0 -0.22990879423E+03  0.23485912586E+02 -0.41914865138E+03  0.47863893877E+03  0.00000000000E+00 0.  1.
        -16    1    1    2    0    0 -0.22350571971E+03 -0.59568599339E+03 -0.34634215348E+02  0.63717826261E+03  0.00000000000E+00 0.  1.
         16    1    5    5    0    0  0.58640320088E+03 -0.40679779919E+03 -0.36915172897E+03  0.80350865735E+03  0.00000000000E+00 0. -1.
    9900018    1    1    2    0    0 -0.10549691452E+03  0.46200509187E+03  0.59738632634E+03  0.76796087477E+03  0.91187600000E+02 0.  0.
<mgrwt>
<rscale>  0 0.18768834E+04</rscale>
<asrwt>0</asrwt>
<pdfrwt beam="1">  1        2 0.38307997E+00 0.35707270E+04</pdfrwt>
<pdfrwt beam="2">  1       -2 0.27824927E+00 0.35707270E+04</pdfrwt>
<totfact> 0.12149348E-01</totfact>
</mgrwt>
</event>
<event>
12    1  0.5490063E-012  0.2843536E+04  0.7818608E-02  0.8970621E-01
          1   -1    0    0  501    0  0.00000000000E+00  0.00000000000E+00  0.23924060638E+04  0.23924060638E+04  0.00000000000E+00 0. -1.
         -1   -1    0    0    0  501 -0.00000000000E+00 -0.00000000000E+00 -0.97594194553E+03  0.97594194553E+03  0.00000000000E+00 0.  1.
         23    2    1    2    0    0  0.65544162896E+02 -0.10913559665E+03 -0.56098802912E+02  0.16613994001E+03  0.90822839809E+02 0.  0.
    9900016    2    1    2    0    0 -0.10466271572E+03 -0.15491075790E+03  0.13234060742E+04  0.25749190437E+04  0.22008754662E+04 0.  0.
         24    2    4    4    0    0  0.83568965101E+03 -0.40620680015E+03  0.56765482241E+00  0.93256897197E+03  0.79394004544E+02 0.  0.
        -15    1    5    5    0    0  0.42665750651E+03 -0.16780387131E+03 -0.17272374659E+02  0.45879527244E+03  0.00000000000E+00 0.  1.
        -15    1    3    3    0    0  0.56778708064E+02 -0.78597576471E+02  0.51964947260E+01  0.97099970515E+02  0.00000000000E+00 0.  1.
         15    1    3    3    0    0  0.87654548322E+01 -0.30538020184E+02 -0.61295297638E+02  0.69039969494E+02  0.00000000000E+00 0. -1.
         15    1    4    4    0    0 -0.94035236674E+03  0.25129604224E+03  0.13228384193E+04  0.16423500717E+04  0.00000000000E+00 0. -1.
        -16    1    1    2    0    0 -0.12203453219E+03  0.31975411248E+03 -0.54384096027E+02  0.34654400787E+03  0.00000000000E+00 0.  1.
         16    1    5    5    0    0  0.40903214450E+03 -0.23840292884E+03  0.17840029481E+02  0.47377369953E+03  0.00000000000E+00 0. -1.
    9900018    1    1    2    0    0  0.16115308501E+03 -0.55707757919E+02  0.20354094310E+03  0.28074501779E+03  0.91187600000E+02 0.  0.
<mgrwt>
<rscale>  0 0.13770219E+04</rscale>
<asrwt>0</asrwt>
<pdfrwt beam="1">  1        1 0.36806247E+00 0.28435356E+04</pdfrwt>
<pdfrwt beam="2">  1       -1 0.15014492E+00 0.28435356E+04</pdfrwt>
<totfact> 0.47922190E-01</totfact>
</mgrwt>
</event>
<event>
12    1  0.5490065E-012  0.3915839E+04  0.7818608E-02  0.8648186E-01
         -1   -1    0    0    0  501 -0.00000000000E+00  0.00000000000E+00  0.15211212741E+04  0.15211212741E+04  0.00000000000E+00 0.  1.
          1   -1    0    0  501    0  0.00000000000E+00 -0.00000000000E+00 -0.28706682885E+04  0.28706682885E+04  0.00000000000E+00 0. -1.
         23    2    1    2    0    0  0.15207126993E+03 -0.13545174267E+03 -0.22662968563E+03  0.31812596742E+03  0.91489185197E+02 0.  0.
    9900016    2    1    2    0    0 -0.37733071323E+03  0.25400780532E+03 -0.92501025361E+02  0.22738412695E+04  0.22259602977E+04 0.  0.
        -24    2    4    4    0    0 -0.86745124269E+03 -0.43722875379E+03 -0.72613363593E+03  0.12157692496E+04  0.84759480514E+02 0.  0.
        -15    1    3    3    0    0  0.15610963396E+03 -0.10623455260E+03 -0.16910639051E+03  0.25348169419E+03  0.00000000000E+00 0.  1.
        -15    1    4    4    0    0  0.49012052947E+03  0.69123655911E+03  0.63363261057E+03  0.10580720199E+04  0.00000000000E+00 0.  1.
         15    1    3    3    0    0 -0.40383640243E+01 -0.29217190071E+02 -0.57523295121E+02  0.64644273228E+02  0.00000000000E+00 0. -1.
         15    1    5    5    0    0 -0.14048357795E+03 -0.38349202254E+02 -0.98411687122E+02  0.17575880390E+03  0.00000000000E+00 0. -1.
        -16    1    5    5    0    0 -0.72696766474E+03 -0.39887955154E+03 -0.62772194881E+03  0.10400104457E+04  0.00000000000E+00 0.  1.
         16    1    1    2    0    0  0.15003347156E+03 -0.11338928302E+03 -0.13995804400E+04  0.14121588368E+04  0.00000000000E+00 0. -1.
    9900018    1    1    2    0    0  0.75225971735E+02 -0.51667796236E+01  0.36916413664E+03  0.38766348888E+03  0.91187600000E+02 0.  0.
<mgrwt>
<rscale>  0 0.19134593E+04</rscale>
<asrwt>0</asrwt>
<pdfrwt beam="1">  1        1 0.44164127E+00 0.39158386E+04</pdfrwt>
<pdfrwt beam="2">  1       -1 0.23401866E+00 0.39158386E+04</pdfrwt>
<totfact> 0.51406801E-02</totfact>
</mgrwt>
</event>
<event>
12    1  0.5490063E-012  0.2883566E+04  0.7818608E-02  0.8740611E-01
         -2   -1    0    0    0  501 -0.00000000000E+00  0.00000000000E+00  0.28853130166E+04  0.28853130166E+04  0.00000000000E+00 0.  1.
          2   -1    0    0  501    0  0.00000000000E+00 -0.00000000000E+00 -0.11071143847E+04  0.11071143847E+04  0.00000000000E+00 0. -1.
         23    2    1    2    0    0  0.11219664670E+03 -0.35150371655E+03  0.90211701457E+03  0.97871330972E+03  0.89003844672E+02 0.  0.
    9900016    2    1    2    0    0  0.88752882971E+02  0.41294464251E+03  0.43422356705E+03  0.22826005387E+04  0.22007532258E+04 0.  0.
         24    2    4    4    0    0 -0.23386850657E+03 -0.41571658471E+03  0.10801543493E+04  0.11835142974E+04  0.80361163797E+02 0.  0.
        -15    1    5    5    0    0 -0.11682602012E+03 -0.28511617886E+03  0.67137205165E+03  0.73870155419E+03  0.00000000000E+00 0.  1.
        -15    1    3    3    0    0  0.62987620392E+02 -0.20153862613E+03  0.62622235464E+03  0.66086284174E+03  0.00000000000E+00 0.  1.
         15    1    3    3    0    0  0.49209026310E+02 -0.14996509042E+03  0.27589465992E+03  0.31785046797E+03  0.00000000000E+00 0. -1.
         15    1    4    4    0    0  0.32262138954E+03  0.82866122722E+03 -0.64593078220E+03  0.10990862413E+04  0.00000000000E+00 0. -1.
        -16    1    1    2    0    0 -0.24425542175E+03 -0.55995882584E+02  0.53680967280E+03  0.59241950908E+03  0.00000000000E+00 0.  1.
         16    1    5    5    0    0 -0.11704248645E+03 -0.13060040585E+03  0.40878229760E+03  0.44481274316E+03  0.00000000000E+00 0. -1.
    9900018    1    1    2    0    0  0.43305892074E+02 -0.54450433744E+01 -0.94951622500E+02  0.13869404383E+03  0.91187600000E+02 0.  0.
<mgrwt>
<rscale>  0 0.17368692E+04</rscale>
<asrwt>0</asrwt>
<pdfrwt beam="1">  1        2 0.17032529E+00 0.28835661E+04</pdfrwt>
<pdfrwt beam="2">  1       -2 0.44389431E+00 0.28835661E+04</pdfrwt>
<totfact> 0.69468789E-02</totfact>
</mgrwt>
</event>
<event>
12    1  0.5490063E-012  0.3966960E+04  0.7818608E-02  0.8705906E-01
         -2   -1    0    0    0  501 -0.00000000000E+00  0.00000000000E+00  0.17127436568E+04  0.17127436568E+04  0.00000000000E+00 0.  1.
          2   -1    0    0  501    0  0.00000000000E+00 -0.00000000000E+00 -0.37221279626E+04  0.37221279626E+04  0.00000000000E+00 0. -1.
         23    2    1    2    0    0 -0.12315475202E+02  0.14077639087E+03  0.64180798341E+03  0.66354172158E+03  0.91654053683E+02 0.  0.
    9900016    2    1    2    0    0  0.59324187092E+02 -0.25214366685E+03 -0.14721255326E+04  0.26623096853E+04  0.22030986108E+04 0.  0.
         24    2    4    4    0    0 -0.10014625019E+04  0.18390512025E+03 -0.97598323296E+03  0.14126840911E+04  0.79905157402E+02 0.  0.
        -15    1    5    5    0    0 -0.36678155695E+03  0.85325050254E+02 -0.40876624433E+03  0.55578675517E+03  0.00000000000E+00 0.  1.
        -15    1    3    3    0    0 -0.16019362517E+02  0.34225723787E+00  0.17946133587E+02  0.24058279784E+02  0.00000000000E+00 0. -1.
         15    1    3    3    0    0  0.37038873146E+01  0.14043413363E+03  0.62386184982E+03  0.63948344179E+03  0.00000000000E+00 0.  1.
         15    1    4    4    0    0  0.10607866890E+04 -0.43604878710E+03 -0.49614229967E+03  0.12496255942E+04  0.00000000000E+00 0. -1.
        -16    1    1    2    0    0 -0.13538391504E+03  0.49914789818E+03  0.28406217100E+03  0.59005825619E+03  0.00000000000E+00 0.  1.
         16    1    5    5    0    0 -0.63468094494E+03  0.98580070001E+02 -0.56721698863E+03  0.85689733589E+03  0.00000000000E+00 0. -1.
    9900018    1    1    2    0    0  0.88375203151E+02 -0.38778062220E+03 -0.14631289276E+04  0.15189619563E+04  0.91187600000E+02 0.  0.
<mgrwt>
<rscale>  0 0.18007399E+04</rscale>
<asrwt>0</asrwt>
<pdfrwt beam="1">  1        2 0.57263506E+00 0.39669596E+04</pdfrwt>
<pdfrwt beam="2">  1       -2 0.26349903E+00 0.39669596E+04</pdfrwt>
<totfact> 0.22735723E-02</totfact>
</mgrwt>
</event>
<event>
12    1  0.5490063E-012  0.3863003E+04  0.7818608E-02  0.8685304E-01
         -3   -1    0    0    0  501 -0.00000000000E+00  0.00000000000E+00  0.12553918989E+04  0.12553918989E+04  0.00000000000E+00 0.  1.
          3   -1    0    0  501    0  0.00000000000E+00 -0.00000000000E+00 -0.33069498500E+04  0.33069498500E+04  0.00000000000E+00 0. -1.
         23    2    1    2    0    0  0.13746603098E+02  0.17720538205E+03 -0.18672945348E+03  0.27277554040E+03  0.89150940084E+02 0.  0.
    9900016    2    1    2    0    0 -0.69442097197E+03  0.49135168814E+03 -0.92226058832E+03  0.25343087229E+04  0.22019330467E+04 0.  0.
        -24    2    4    4    0    0 -0.87019127191E+03  0.67416577880E+03 -0.15238306932E+04  0.18814666431E+04  0.78258548147E+02 0.  0.
        -15    1    3    3    0    0  0.88836225958E+01 -0.89268332773E+01 -0.13416508659E+02  0.18401353412E+02  0.00000000000E+00 0. -1.
        -15    1    4    4    0    0  0.17577029994E+03 -0.18281409066E+03  0.60157010489E+03  0.65284207982E+03  0.00000000000E+00 0.  1.
         15    1    5    5    0    0 -0.50572007041E+03  0.39817526147E+03 -0.95553432324E+03  0.11521033683E+04  0.00000000000E+00 0. -1.
         15    1    3    3    0    0  0.48629805021E+01  0.18613221533E+03 -0.17331294482E+03  0.25437418699E+03  0.00000000000E+00 0.  1.
        -16    1    5    5    0    0 -0.36447120150E+03  0.27599051733E+03 -0.56829636997E+03  0.72936327472E+03  0.00000000000E+00 0.  1.
         16    1    1    2    0    0  0.52593800062E+03 -0.79362117090E+03 -0.11225298891E+04  0.14719098801E+04  0.00000000000E+00 0. -1.
    9900018    1    1    2    0    0  0.15473636826E+03  0.12506410071E+03  0.17996197981E+03  0.28334760546E+03  0.91187600000E+02 0.  0.
<mgrwt>
<rscale>  0 0.18400154E+04</rscale>
<asrwt>0</asrwt>
<pdfrwt beam="1">  1        3 0.50876150E+00 0.38630031E+04</pdfrwt>
<pdfrwt beam="2">  1       -3 0.19313722E+00 0.38630031E+04</pdfrwt>
<totfact> 0.10263142E-03</totfact>
</mgrwt>
</event>
<event>
12    1  0.5490063E-012  0.3074835E+04  0.7818608E-02  0.8842021E-01
         -2   -1    0    0    0  501 -0.00000000000E+00  0.00000000000E+00  0.22889593133E+04  0.22889593133E+04  0.00000000000E+00 0.  1.
          2   -1    0    0  501    0  0.00000000000E+00 -0.00000000000E+00 -0.12007306651E+04  0.12007306651E+04  0.00000000000E+00 0. -1.
         23    2    1    2    0    0 -0.15539420009E+03  0.10024890075E+03  0.20373788274E+03  0.29016948822E+03  0.92152088995E+02 0.  0.
    9900016    2    1    2    0    0  0.20403219618E+03 -0.11639874721E+03  0.27459373033E+03  0.22624699202E+04  0.22334257583E+04 0.  0.
         24    2    4    4    0    0 -0.84636786789E+02 -0.52157152119E+03  0.11428998477E+04  0.12617450469E+04  0.81118826990E+02 0.  0.
        -15    1    5    5    0    0 -0.39913133665E+02 -0.41860086053E+03  0.94233010917E+03  0.10318942646E+04  0.00000000000E+00 0.  1.
        -15    1    3    3    0    0  0.74207540990E+01  0.12199688609E+02  0.42009070387E+02  0.44369606584E+02  0.00000000000E+00 0. -1.
         15    1    4    4    0    0  0.28866898297E+03  0.40517277398E+03 -0.86830611742E+03  0.10007248733E+04  0.00000000000E+00 0. -1.
         15    1    3    3    0    0 -0.16281495419E+03  0.88049212142E+02  0.16172881235E+03  0.24579988164E+03  0.00000000000E+00 0.  1.
        -16    1    1    2    0    0 -0.11915391633E+03  0.11148508321E+03  0.72824848214E+03  0.74630585640E+03  0.00000000000E+00 0.  1.
         16    1    5    5    0    0 -0.44723653124E+02 -0.10297066066E+03  0.20056973858E+03  0.22985078233E+03  0.00000000000E+00 0. -1.
    9900018    1    1    2    0    0  0.70515920243E+02 -0.95335236750E+02 -0.11835144694E+03  0.19074471359E+03  0.91187600000E+02 0.  0.
<mgrwt>
<rscale>  0 0.15655108E+04</rscale>
<asrwt>0</asrwt>
<pdfrwt beam="1">  1        2 0.18472779E+00 0.30748345E+04</pdfrwt>
<pdfrwt beam="2">  1       -2 0.35214759E+00 0.30748345E+04</pdfrwt>
<totfact> 0.24071818E-01</totfact>
</mgrwt>
</event>
