<event>
11    1  0.4187089E-016  0.3632299E+04  0.7818608E-02  0.8146634E-01
         -1   -1    0    0    0  501 -0.00000000000E+00  0.00000000000E+00  0.21675182189E+04  0.21675182189E+04  0.00000000000E+00 0.  1.
          1   -1    0    0  501    0  0.00000000000E+00 -0.00000000000E+00 -0.49186988093E+04  0.49186988093E+04  0.00000000000E+00 0. -1.
    9900016    2    1    2    0    0 -0.37144636632E+03  0.71623241654E+02 -0.10673244846E+04  0.22081683323E+04  0.18957118812E+04 0.  0.
        -24    2    3    3    0    0 -0.49838927152E+03  0.85269593556E+03 -0.78014415514E+03  0.12610065871E+04  0.77656200854E+02 0.  0.
        -15    1    1    2    0    0 -0.36216436451E+03 -0.18138236761E+04  0.45293733625E+03  0.19042771819E+04  0.00000000000E+00 0.  1.
        -15    1    3    3    0    0  0.15426611420E+03 -0.78645188931E+03 -0.28856540867E+03  0.85180667012E+03  0.00000000000E+00 0.  1.
         15    1    4    4    0    0 -0.35199665376E+03  0.54831316546E+03 -0.54503771431E+03  0.84947930033E+03  0.00000000000E+00 0. -1.
         15    1    1    2    0    0  0.26772588657E+03  0.13487545334E+03 -0.72422930272E+03  0.78382180447E+03  0.00000000000E+00 0. -1.
        -16    1    4    4    0    0 -0.14639261777E+03  0.30438277010E+03 -0.23510644082E+03  0.41152728681E+03  0.00000000000E+00 0.  1.
         16    1    1    2    0    0  0.46588484426E+03  0.16073249811E+04 -0.14125641393E+04  0.21899497096E+04  0.00000000000E+00 0. -1.
    9900018    1    3    3    0    0 -0.27323208999E+02  0.53791954018E+01  0.13850791706E+01  0.95355075016E+02  0.91187600000E+02 0.  0.
<mgrwt>
<rscale>  0 0.33646641E+04</rscale>
<asrwt>0</asrwt>
<pdfrwt beam="1">  1        1 0.75672290E+00 0.36322988E+04</pdfrwt>
<pdfrwt beam="2">  1       -1 0.33346434E+00 0.36322988E+04</pdfrwt>
<totfact> 0.16299106E-04</totfact>
</mgrwt>
</event>
<event>
11    1  0.4187089E-016  0.2603261E+04  0.7818608E-02  0.8636697E-01
         -2   -1    0    0    0  501 -0.00000000000E+00  0.00000000000E+00  0.98376882205E+03  0.98376882205E+03  0.00000000000E+00 0.  1.
          2   -1    0    0  501    0  0.00000000000E+00 -0.00000000000E+00 -0.32543704418E+04  0.32543704418E+04  0.00000000000E+00 0. -1.
    9900016    2    1    2    0    0 -0.25922341091E+03  0.32625957532E+03 -0.10814545457E+04  0.21323060945E+04  0.17898444790E+04 0.  0.
        -24    2    3    3    0    0 -0.14198246988E+03  0.70581623062E+03  0.23164324194E+03  0.76043347181E+03  0.79151123464E+02 0.  0.
        -15    1    1    2    0    0  0.25294843323E+03  0.28149208970E+03  0.22202875629E+03  0.43876813359E+03  0.00000000000E+00 0.  1.
        -15    1    3    3    0    0 -0.11724094103E+03 -0.37955665530E+03 -0.13130977877E+04  0.13718726227E+04  0.00000000000E+00 0.  1.
         15    1    1    2    0    0 -0.56252317845E+02 -0.25783844087E+03 -0.24385377055E+03  0.35931830773E+03  0.00000000000E+00 0. -1.
         15    1    4    4    0    0 -0.11662856050E+03  0.59898714352E+03  0.16560610247E+03  0.63230783674E+03  0.00000000000E+00 0. -1.
        -16    1    4    4    0    0 -0.25353909380E+02  0.10682908710E+03  0.66037139475E+02  0.12812563507E+03  0.00000000000E+00 0.  1.
         16    1    1    2    0    0  0.13896557450E+03 -0.35473025494E+03 -0.11138587208E+04  0.11772112107E+04  0.00000000000E+00 0. -1.
    9900018    1    1    2    0    0 -0.76438278973E+02  0.48170307919E+01 -0.53463338873E+02  0.13053551729E+03  0.91187600000E+02 0.  0.
<mgrwt>
<rscale>  0 0.19369131E+04</rscale>
<asrwt>0</asrwt>
<pdfrwt beam="1">  1        2 0.50067238E+00 0.26032609E+04</pdfrwt>
<pdfrwt beam="2">  1       -2 0.15134905E+00 0.26032609E+04</pdfrwt>
<totfact> 0.30102957E-01</totfact>
</mgrwt>
</event>
<event>
11    1  0.4187089E-016  0.3014619E+04  0.7818608E-02  0.8334924E-01
         -2   -1    0    0    0  501 -0.00000000000E+00  0.00000000000E+00  0.19835931924E+04  0.19835931924E+04  0.00000000000E+00 0.  1.
          2   -1    0    0  501    0  0.00000000000E+00 -0.00000000000E+00 -0.32849116448E+04  0.32849116448E+04  0.00000000000E+00 0. -1.
    9900016    2    1    2    0    0  0.31275398540E+03  0.48276779643E+03 -0.17868644950E+03  0.18891319809E+04  0.17905337174E+04 0.  0.
         24    2    3    3    0    0  0.10611817477E+04  0.32231791985E+03 -0.15763412606E+03  0.11234091337E+04  0.84876503907E+02 0.  0.
        -15    1    4    4    0    0  0.30664634779E+03  0.12643657615E+03 -0.69533151788E+02  0.33889976335E+03  0.00000000000E+00 0.  1.
        -15    1    1    2    0    0  0.24654455286E+03 -0.90673293124E+03  0.10769686498E+03  0.94580518072E+03  0.00000000000E+00 0.  1.
         15    1    3    3    0    0 -0.74842776231E+03  0.16044987658E+03 -0.21052323438E+02  0.76572284712E+03  0.00000000000E+00 0. -1.
         15    1    1    2    0    0  0.37868968075E+03 -0.70942814625E+02 -0.12454120117E+04  0.13036448274E+04  0.00000000000E+00 0. -1.
        -16    1    1    2    0    0 -0.91811745289E+03  0.44079394753E+03 -0.12673466228E+02  0.10185281431E+04  0.00000000000E+00 0.  1.
         16    1    4    4    0    0  0.75453539992E+03  0.19588134370E+03 -0.88100974274E+02  0.78450937038E+03  0.00000000000E+00 0. -1.
    9900018    1    1    2    0    0 -0.19870766128E+02  0.54114001903E+02  0.27756609991E+02  0.11139470517E+03  0.91187600000E+02 0.  0.
<mgrwt>
<rscale>  0 0.27002501E+04</rscale>
<asrwt>0</asrwt>
<pdfrwt beam="1">  1        2 0.50537101E+00 0.30146187E+04</pdfrwt>
<pdfrwt beam="2">  1       -2 0.30516819E+00 0.30146187E+04</pdfrwt>
<totfact> 0.27190497E-02</totfact>
</mgrwt>
</event>
<event>
11    1  0.4187089E-016  0.6277148E+04  0.7818608E-02  0.7656957E-01
          2   -1    0    0  501    0  0.00000000000E+00  0.00000000000E+00  0.18273963699E+04  0.18273963699E+04  0.00000000000E+00 0. -1.
         -2   -1    0    0    0  501 -0.00000000000E+00 -0.00000000000E+00 -0.53905356145E+04  0.53905356145E+04  0.00000000000E+00 0.  1.
    9900016    2    1    2    0    0 -0.86148441851E+03 -0.11969491876E+03 -0.21529443721E+04  0.29954604562E+04  0.18923878034E+04 0.  0.
        -24    2    3    3    0    0 -0.65719826148E+02  0.26955081489E+03  0.26714437045E+03  0.39360548317E+03  0.81132141379E+02 0.  0.
        -15    1    1    2    0    0 -0.56464108592E+03  0.62430586727E+02 -0.17662557866E+04  0.18553642871E+04  0.00000000000E+00 0.  1.
        -15    1    3    3    0    0 -0.73173500902E+03 -0.32904483634E+03 -0.22570412369E+04  0.23954001279E+04  0.00000000000E+00 0.  1.
         15    1    1    2    0    0  0.18488283163E+03 -0.52996205760E+03  0.75167327665E+03  0.93811201824E+03  0.00000000000E+00 0. -1.
         15    1    4    4    0    0 -0.48382783925E+02  0.58473065386E+02  0.88048447321E+02  0.11624337500E+03  0.00000000000E+00 0. -1.
        -16    1    4    4    0    0 -0.17337042223E+02  0.21107774950E+03  0.17909592313E+03  0.27736210817E+03  0.00000000000E+00 0.  1.
         16    1    1    2    0    0  0.12412426728E+04  0.58722638963E+03 -0.39561236251E+03  0.14289952228E+04  0.00000000000E+00 0. -1.
    9900018    1    3    3    0    0 -0.64029583351E+02 -0.60200897313E+02 -0.16304750570E+03  0.20645484516E+03  0.91187600000E+02 0.  0.
<mgrwt>
<rscale>  0 0.62771475E+04</rscale>
<asrwt>0</asrwt>
<pdfrwt beam="1">  1        2 0.28113791E+00 0.62771475E+04</pdfrwt>
<pdfrwt beam="2">  1       -2 0.82931315E+00 0.62771475E+04</pdfrwt>
<totfact> 0.26777890E-04</totfact>
</mgrwt>
</event>
<event>
11    1  0.4187089E-016  0.3642836E+04  0.7818608E-02  0.8393007E-01
          2   -1    0    0  501    0  0.00000000000E+00  0.00000000000E+00  0.36541762970E+04  0.36541762970E+04  0.00000000000E+00 0. -1.
         -2   -1    0    0    0  501 -0.00000000000E+00 -0.00000000000E+00 -0.14135921515E+04  0.14135921515E+04  0.00000000000E+00 0.  1.
    9900016    2    1    2    0    0  0.83769924145E+03  0.43788588799E+03  0.19839126745E+04  0.28380115787E+04  0.17958051540E+04 0.  0.
        -24    2    3    3    0    0  0.48508659006E+03 -0.34065809100E+03  0.18850792743E+04  0.19776427915E+04  0.78677857427E+02 0.  0.
        -15    1    3    3    0    0  0.35261265138E+03  0.77854397898E+03  0.98833400130E+02  0.86036878727E+03  0.00000000000E+00 0.  1.
        -15    1    1    2    0    0 -0.35933397299E+02 -0.50029976871E+03  0.87395874114E+03  0.10076680747E+04  0.00000000000E+00 0. -1.
         15    1    1    2    0    0 -0.32180019684E+02  0.33815316416E+02 -0.11758364363E+03  0.12651064200E+03  0.00000000000E+00 0.  1.
         15    1    4    4    0    0  0.38516479309E+03 -0.22949471564E+03  0.14313417899E+04  0.14999196851E+04  0.00000000000E+00 0. -1.
        -16    1    4    4    0    0  0.99921796970E+02 -0.11116337536E+03  0.45373748449E+03  0.47772310637E+03  0.00000000000E+00 0.  1.
         16    1    1    2    0    0 -0.81511526711E+03  0.14549298448E+02 -0.54760545450E+03  0.98208773262E+03  0.00000000000E+00 0. -1.
    9900018    1    1    2    0    0  0.45529442644E+02  0.14049265859E+02  0.47901828035E+02  0.11349042048E+03  0.91187600000E+02 0.  0.
<mgrwt>
<rscale>  0 0.25282009E+04</rscale>
<asrwt>0</asrwt>
<pdfrwt beam="1">  1        2 0.56218097E+00 0.36428357E+04</pdfrwt>
<pdfrwt beam="2">  1       -2 0.21747572E+00 0.36428357E+04</pdfrwt>
<totfact> 0.50940899E-02</totfact>
</mgrwt>
</event>
<event>
11    1  0.4187089E-016  0.3936681E+04  0.7818608E-02  0.8017443E-01
         -1   -1    0    0    0  501 -0.00000000000E+00  0.00000000000E+00  0.17027365457E+04  0.17027365457E+04  0.00000000000E+00 0.  1.
          1   -1    0    0  501    0  0.00000000000E+00 -0.00000000000E+00 -0.22753750682E+04  0.22753750682E+04  0.00000000000E+00 0. -1.
    9900016    2    1    2    0    0 -0.86942742395E+03 -0.57319265068E+02 -0.17363726999E+03  0.20777129769E+04  0.18781777789E+04 0.  0.
         24    2    3    3    0    0 -0.11503944402E+04 -0.26127867892E+03  0.41834477413E+03  0.12541744615E+04  0.79166368744E+02 0.  0.
        -15    1    1    2    0    0  0.73216455593E+03 -0.84763774606E+02 -0.34287516936E+03  0.81290418637E+03  0.00000000000E+00 0.  1.
        -15    1    4    4    0    0 -0.90266455436E+03 -0.17405817902E+03  0.31145413580E+03  0.97062002147E+03  0.00000000000E+00 0.  1.
         15    1    3    3    0    0  0.33619364376E+03  0.21299304870E+03 -0.59577985922E+03  0.71648157377E+03  0.00000000000E+00 0. -1.
         15    1    1    2    0    0 -0.40678071306E+03 -0.12587410538E+03 -0.19026293231E+03  0.46638484359E+03  0.00000000000E+00 0. -1.
        -16    1    1    2    0    0  0.54404358107E+03  0.26795714506E+03  0.13413684911E+03  0.62110960706E+03  0.00000000000E+00 0.  1.
         16    1    4    4    0    0 -0.24772988580E+03 -0.87220499892E+02  0.10689063833E+03  0.28355444007E+03  0.00000000000E+00 0. -1.
    9900018    1    3    3    0    0 -0.55226627541E+02 -0.90336348474E+01  0.37978151065E+01  0.10705694158E+03  0.91187600000E+02 0.  0.
<mgrwt>
<rscale>  0 0.39366810E+04</rscale>
<asrwt>0</asrwt>
<pdfrwt beam="1">  1        1 0.35005770E+00 0.39366810E+04</pdfrwt>
<pdfrwt beam="2">  1       -1 0.26195947E+00 0.39366810E+04</pdfrwt>
<totfact> 0.88699409E-02</totfact>
</mgrwt>
</event>
<event>
11    1  0.4187089E-016  0.2683771E+04  0.7818608E-02  0.8483010E-01
         -1   -1    0    0    0  501 -0.00000000000E+00  0.00000000000E+00  0.22687625351E+04  0.22687625351E+04  0.00000000000E+00 0.  1.
          1   -1    0    0  501    0  0.00000000000E+00 -0.00000000000E+00 -0.18564347229E+04  0.18564347229E+04  0.00000000000E+00 0. -1.
    9900016    2    1    2    0    0  0.34728960421E+02 -0.15451352791E+01 -0.10859699743E+03  0.19019042543E+04  0.18984830777E+04 0.  0.
        -24    2    3    3    0    0 -0.36937597771E+03  0.35011167641E+03  0.70715073057E+03  0.87435552219E+03  0.73611307297E+02 0.  0.
        -15    1    3    3    0    0  0.38092539142E+03 -0.35517194185E+03 -0.74840819383E+03  0.91179278715E+03  0.00000000000E+00 0.  1.
        -15    1    1    2    0    0  0.27721602692E+03 -0.72615885804E+03 -0.41070939284E+03  0.87911183479E+03  0.00000000000E+00 0.  1.
         15    1    4    4    0    0 -0.29614809437E+03  0.23815068954E+03  0.50713914241E+03  0.63372671910E+03  0.00000000000E+00 0. -1.
         15    1    1    2    0    0  0.13352269532E+03  0.25302779877E+03  0.45461250647E+03  0.53714421541E+03  0.00000000000E+00 0. -1.
        -16    1    4    4    0    0 -0.73227883339E+02  0.11196098687E+03  0.20001158816E+03  0.24062880309E+03  0.00000000000E+00 0.  1.
         16    1    1    2    0    0 -0.44546768266E+03  0.47467619455E+03  0.47702169595E+03  0.80703695354E+03  0.00000000000E+00 0. -1.
    9900018    1    3    3    0    0  0.23179546716E+02  0.35151301627E+01 -0.67339534173E+02  0.11575594491E+03  0.91187600000E+02 0.  0.
<mgrwt>
<rscale>  0 0.22871377E+04</rscale>
<asrwt>0</asrwt>
<pdfrwt beam="1">  1        1 0.28560534E+00 0.26837708E+04</pdfrwt>
<pdfrwt beam="2">  1       -1 0.34904039E+00 0.26837708E+04</pdfrwt>
<totfact> 0.49473207E-02</totfact>
</mgrwt>
</event>
<event>
11    1  0.4187089E-016  0.4262989E+04  0.7818608E-02  0.7953497E-01
         -2   -1    0    0    0  501 -0.00000000000E+00  0.00000000000E+00  0.13049398510E+04  0.13049398510E+04  0.00000000000E+00 0. -1.
          2   -1    0    0  501    0  0.00000000000E+00 -0.00000000000E+00 -0.34815932340E+04  0.34815932340E+04  0.00000000000E+00 0.  1.
    9900016    2    1    2    0    0  0.35074775615E+03 -0.20634664179E+03 -0.94665992841E+03  0.20686281761E+04  0.17937264523E+04 0.  0.
        -24    2    3    3    0    0 -0.53146713407E+03  0.52756330886E+02  0.22006352269E+03  0.58313799626E+03  0.79883813278E+02 0.  0.
        -15    1    1    2    0    0 -0.38747219378E+03  0.45916541862E+03 -0.17459449857E+04  0.18464266776E+04  0.00000000000E+00 0.  1.
        -15    1    3    3    0    0  0.88221489023E+03 -0.25910297268E+03 -0.11667234511E+04  0.14854901798E+04  0.00000000000E+00 0.  1.
         15    1    4    4    0    0 -0.22399996598E+03  0.61973891423E+02  0.94679119385E+02  0.25095992434E+03  0.00000000000E+00 0. -1.
         15    1    1    2    0    0 -0.74578486559E+02  0.19866622569E+02  0.36914621383E+03  0.37712804263E+03  0.00000000000E+00 0. -1.
        -16    1    4    4    0    0 -0.30746716809E+03 -0.92175605374E+01  0.12538440330E+03  0.33217807192E+03  0.00000000000E+00 0.  1.
         16    1    1    2    0    0  0.51309309385E+02 -0.25415390905E+03  0.23720582288E+03  0.35141635865E+03  0.00000000000E+00 0. -1.
    9900018    1    1    2    0    0  0.59993614796E+02 -0.18531490349E+02 -0.90400505691E+02  0.14293383005E+03  0.91187600000E+02 0.  0.
<mgrwt>
<rscale>  0 0.42629894E+04</rscale>
<asrwt>0</asrwt>
<pdfrwt beam="1">  1        2 0.53562972E+00 0.42629894E+04</pdfrwt>
<pdfrwt beam="2">  1       -2 0.20075998E+00 0.42629894E+04</pdfrwt>
<totfact> 0.84884362E-02</totfact>
</mgrwt>
</event>
<event>
11    1  0.4187089E-016  0.2532201E+04  0.7818608E-02  0.8532244E-01
         -2   -1    0    0    0  501 -0.00000000000E+00  0.00000000000E+00  0.12794135910E+04  0.12794135910E+04  0.00000000000E+00 0.  1.
          2   -1    0    0  501    0  0.00000000000E+00 -0.00000000000E+00 -0.33695838277E+04  0.33695838277E+04  0.00000000000E+00 0. -1.
    9900016    2    1    2    0    0  0.36617289021E+03  0.96633013718E+03 -0.15984250074E+04  0.26094791707E+04  0.17850889385E+04 0.  0.
        -24    2    3    3    0    0 -0.33675019503E+03  0.10188438718E+04 -0.27594588864E+03  0.11108766298E+04  0.80356854903E+02 0.  0.
        -15    1    3    3    0    0  0.70292308524E+03 -0.52513734631E+02 -0.13224791187E+04  0.14986025409E+04  0.00000000000E+00 0.  1.
        -15    1    1    2    0    0 -0.27352470506E+03 -0.11098016873E+04  0.80804640216E+02  0.11458642761E+04  0.00000000000E+00 0.  1.
         15    1    1    2    0    0 -0.42644434120E+02  0.34345283022E+03 -0.45376904483E+03  0.57068795361E+03  0.00000000000E+00 0. -1.
         15    1    4    4    0    0 -0.19807511486E+03  0.61442382352E+03 -0.12553090513E+03  0.65765370384E+03  0.00000000000E+00 0. -1.
        -16    1    4    4    0    0 -0.13867508018E+03  0.40442004829E+03 -0.15041498351E+03  0.45322292592E+03  0.00000000000E+00 0.  1.
         16    1    1    2    0    0 -0.83877377158E+02 -0.18250651430E+03 -0.69622351796E+02  0.21258248759E+03  0.00000000000E+00 0. -1.
    9900018    1    1    2    0    0  0.33873626124E+02 -0.17474765793E+02 -0.49158472918E+02  0.11038353065E+03  0.91187600000E+02 0.  0.
<mgrwt>
<rscale>  0 0.21671084E+04</rscale>
<asrwt>0</asrwt>
<pdfrwt beam="1">  1        2 0.51839749E+00 0.25322009E+04</pdfrwt>
<pdfrwt beam="2">  1       -2 0.19683287E+00 0.25322009E+04</pdfrwt>
<totfact> 0.11922424E-01</totfact>
</mgrwt>
</event>
<event>
11    1  0.5360069E-016  0.4501813E+04  0.7818608E-02  0.7910319E-01
          2   -1    0    0  501    0  0.00000000000E+00  0.00000000000E+00  0.34188899147E+04  0.34188899147E+04  0.00000000000E+00 0. -1.
         -2   -1    0    0    0  501 -0.00000000000E+00 -0.00000000000E+00 -0.14819374799E+04  0.14819374799E+04  0.00000000000E+00 0.  1.
    9900016    2    1    2    0    0 -0.11896780814E+03 -0.29036500176E+03  0.31855163665E+03  0.18498872640E+04  0.17950327492E+04 0.  0.
         24    2    3    3    0    0 -0.51962664123E+03  0.45558576525E+03  0.63905689477E+03  0.94451790964E+03  0.78422771535E+02 0.  0.
        -15    1    1    2    0    0  0.20389606038E+02  0.69201154838E+03  0.18495010623E+03  0.71659072065E+03  0.00000000000E+00 0.  1.
        -15    1    4    4    0    0 -0.14423684045E+03  0.14587057300E+03  0.23534349367E+03  0.31220033668E+03  0.00000000000E+00 0.  1.
         15    1    1    2    0    0 -0.33340114758E+03 -0.62081626435E+03  0.15827847941E+04  0.17325636680E+04  0.00000000000E+00 0. -1.
         15    1    3    3    0    0  0.40065883309E+03 -0.74595076701E+03 -0.32050525812E+03  0.90536935436E+03  0.00000000000E+00 0. -1.
        -16    1    1    2    0    0  0.39015143918E+03  0.22556058746E+03 -0.19540926487E+03  0.49120311981E+03  0.00000000000E+00 0.  1.
         16    1    4    4    0    0 -0.37538980078E+03  0.30971519226E+03  0.40371340109E+03  0.63231757295E+03  0.00000000000E+00 0. -1.
    9900018    1    1    2    0    0  0.41827910498E+02 -0.63908697202E+01  0.46075162710E+02  0.11058262217E+03  0.91187600000E+02 0.  0.
<mgrwt>
<rscale>  0 0.45018135E+04</rscale>
<asrwt>0</asrwt>
<pdfrwt beam="1">  1        2 0.52598306E+00 0.45018135E+04</pdfrwt>
<pdfrwt beam="2">  1       -2 0.22799038E+00 0.45018135E+04</pdfrwt>
<totfact> 0.61606073E-02</totfact>
</mgrwt>
</event>
<event>
11    1  0.4187089E-016  0.2767785E+04  0.7818608E-02  0.8453893E-01
         -1   -1    0    0    0  501 -0.00000000000E+00  0.00000000000E+00  0.10719516813E+04  0.10719516813E+04  0.00000000000E+00 0.  1.
          1   -1    0    0  501    0  0.00000000000E+00 -0.00000000000E+00 -0.47156595226E+04  0.47156595226E+04  0.00000000000E+00 0. -1.
    9900016    2    1    2    0    0 -0.50110287496E+03 -0.26953892584E+03 -0.18378893211E+04  0.26394254894E+04  0.18069240254E+04 0.  0.
         24    2    3    3    0    0  0.20292665350E+03  0.29645808435E+03  0.19394764610E+03  0.41583117978E+03  0.78950985890E+02 0.  0.
        -15    1    1    2    0    0 -0.32400496877E+03 -0.47014414899E+02  0.50927402038E+02  0.33133544222E+03  0.00000000000E+00 0.  1.
        -15    1    4    4    0    0  0.94711136575E+02  0.86256193955E+02  0.95254901392E+02  0.15963654540E+03  0.00000000000E+00 0.  1.
         15    1    1    2    0    0  0.10524683637E+04 -0.32608317302E+03 -0.44654766977E+03  0.11888753988E+04  0.00000000000E+00 0. -1.
         15    1    3    3    0    0 -0.70402952845E+03 -0.56599701019E+03 -0.20318369672E+04  0.22235943096E+04  0.00000000000E+00 0. -1.
        -16    1    1    2    0    0 -0.16971641337E+03  0.67439947527E+03 -0.12730799033E+04  0.14506380505E+04  0.00000000000E+00 0.  1.
         16    1    4    4    0    0  0.10821551692E+03  0.21020189040E+03  0.98692744707E+02  0.25619463438E+03  0.00000000000E+00 0. -1.
    9900018    1    1    2    0    0 -0.57644106637E+02 -0.31762961508E+02 -0.13711834912E+03  0.17733682306E+03  0.91187600000E+02 0.  0.
<mgrwt>
<rscale>  0 0.23619364E+04</rscale>
<asrwt>0</asrwt>
<pdfrwt beam="1">  1        1 0.72548609E+00 0.27677848E+04</pdfrwt>
<pdfrwt beam="2">  1       -1 0.16491564E+00 0.27677848E+04</pdfrwt>
<totfact> 0.42466216E-03</totfact>
</mgrwt>
</event>
<event>
11    1  0.4187089E-016  0.5116349E+04  0.7818608E-02  0.7810806E-01
          2   -1    0    0  501    0  0.00000000000E+00  0.00000000000E+00  0.14948171615E+04  0.14948171615E+04  0.00000000000E+00 0. -1.
         -2   -1    0    0    0  501 -0.00000000000E+00 -0.00000000000E+00 -0.43779641819E+04  0.43779641819E+04  0.00000000000E+00 0.  1.
    9900016    2    1    2    0    0 -0.18319492735E+03  0.52944074561E+03 -0.23172230165E+04  0.29853312940E+04  0.17968896856E+04 0.  0.
        -24    2    3    3    0    0  0.65607521456E+03  0.50213757486E+03 -0.18425666216E+04  0.20207492459E+04  0.76150697138E+02 0.  0.
        -15    1    3    3    0    0 -0.83927014190E+03  0.27303170758E+02 -0.47465639493E+03  0.96458204808E+03  0.00000000000E+00 0.  1.
        -15    1    1    2    0    0 -0.45944949521E+02 -0.31926867922E+03 -0.15430778142E+04  0.15764303247E+04  0.00000000000E+00 0.  1.
         15    1    4    4    0    0  0.46988755436E+03  0.40138349050E+03 -0.13731728391E+04  0.15058242481E+04  0.00000000000E+00 0. -1.
         15    1    1    2    0    0  0.72420209957E+02 -0.16208362745E+03  0.57077216740E+03  0.59774296832E+03  0.00000000000E+00 0. -1.
        -16    1    4    4    0    0  0.18618766020E+03  0.10075408436E+03 -0.46939378252E+03  0.51492499783E+03  0.00000000000E+00 0.  1.
         16    1    1    2    0    0  0.19621557688E+03 -0.83358344240E+02  0.51774064938E+03  0.55991476689E+03  0.00000000000E+00 0. -1.
    9900018    1    1    2    0    0 -0.39495909968E+02  0.35269905299E+02 -0.11135900638E+03  0.15336198949E+03  0.91187600000E+02 0.  0.
<mgrwt>
<rscale>  0 0.51163487E+04</rscale>
<asrwt>0</asrwt>
<pdfrwt beam="1">  1        2 0.22997187E+00 0.51163487E+04</pdfrwt>
<pdfrwt beam="2">  1       -2 0.67353295E+00 0.51163487E+04</pdfrwt>
<totfact> 0.26143367E-03</totfact>
</mgrwt>
</event>
<event>
11    1  0.4187089E-016  0.3266008E+04  0.7818608E-02  0.8438511E-01
          2   -1    0    0  501    0  0.00000000000E+00  0.00000000000E+00  0.25088724605E+04  0.25088724605E+04  0.00000000000E+00 0.  1.
         -2   -1    0    0    0  501 -0.00000000000E+00 -0.00000000000E+00 -0.18923909990E+04  0.18923909990E+04  0.00000000000E+00 0. -1.
    9900016    2    1    2    0    0 -0.65018585661E+02 -0.30481961732E+03  0.61724949447E+03  0.19317942754E+04  0.18037987051E+04 0.  0.
        -24    2    3    3    0    0  0.48108000715E+03 -0.89914007816E+03  0.35658522895E+03  0.10836278162E+04  0.84884421721E+02 0.  0.
        -15    1    1    2    0    0  0.18409279807E+03 -0.72302380318E+03  0.64230830137E+03  0.98448643072E+03  0.00000000000E+00 0.  1.
        -15    1    3    3    0    0 -0.54609859281E+03  0.59432046084E+03  0.26066426551E+03  0.84816645923E+03  0.00000000000E+00 0.  1.
         15    1    1    2    0    0  0.14749173439E+03  0.44651678948E+01 -0.30924050252E+02  0.15076487098E+03  0.00000000000E+00 0. -1.
         15    1    4    4    0    0  0.16955696072E+03 -0.39735325342E+03  0.13181003945E+03  0.45167804621E+03  0.00000000000E+00 0. -1.
        -16    1    4    4    0    0  0.31152304643E+03 -0.50178682474E+03  0.22477518951E+03  0.63194976997E+03  0.00000000000E+00 0.  1.
         16    1    1    2    0    0 -0.29343707365E+03  0.10096271084E+04 -0.64407507812E+03  0.12329983457E+04  0.00000000000E+00 0. -1.
    9900018    1    1    2    0    0  0.26871126852E+02  0.13751144196E+02  0.31922794008E+02  0.10121953663E+03  0.91187600000E+02 0.  0.
<mgrwt>
<rscale>  0 0.24026520E+04</rscale>
<asrwt>0</asrwt>
<pdfrwt beam="1">  1        2 0.38598038E+00 0.32660082E+04</pdfrwt>
<pdfrwt beam="2">  1       -2 0.29113708E+00 0.32660082E+04</pdfrwt>
<totfact> 0.10011810E-01</totfact>
</mgrwt>
</event>
<event>
11    1  0.4187089E-016  0.2401945E+04  0.7818608E-02  0.8440924E-01
         -2   -1    0    0    0  501 -0.00000000000E+00  0.00000000000E+00  0.21342955370E+04  0.21342955370E+04  0.00000000000E+00 0.  1.
          2   -1    0    0  501    0  0.00000000000E+00 -0.00000000000E+00 -0.30624889580E+04  0.30624889580E+04  0.00000000000E+00 0. -1.
    9900016    2    1    2    0    0 -0.70018750078E+03 -0.42494300577E+03 -0.78874377416E+03  0.21265010385E+04  0.17969559903E+04 0.  0.
        -24    2    3    3    0    0  0.27939561110E+03 -0.15051459006E+03  0.42896643136E+03  0.53977101326E+03  0.81387948774E+02 0.  0.
        -15    1    1    2    0    0  0.93528731737E+03  0.25274389454E+03  0.12483340343E+04  0.15801834398E+04  0.00000000000E+00 0.  1.
        -15    1    3    3    0    0 -0.97958311188E+03 -0.27442841570E+03 -0.12177102055E+04  0.15867300253E+04  0.00000000000E+00 0.  1.
         15    1    4    4    0    0  0.16314001447E+03 -0.12836073934E+03  0.24620326399E+03  0.32203600874E+03  0.00000000000E+00 0. -1.
         15    1    1    2    0    0 -0.26840167985E+03  0.12414956296E+03 -0.78921127048E+03  0.84279713169E+03  0.00000000000E+00 0. -1.
        -16    1    4    4    0    0  0.11625559662E+03 -0.22153850722E+02  0.18276316737E+03  0.21773500452E+03  0.00000000000E+00 0.  1.
         16    1    1    2    0    0  0.43623471750E+02  0.50050905660E+02 -0.52630688123E+03  0.53047811800E+03  0.00000000000E+00 0. -1.
    9900018    1    1    2    0    0 -0.10321608486E+02 -0.20013573854E+01 -0.72265529493E+02  0.11682476698E+03  0.91187600000E+02 0.  0.
<mgrwt>
<rscale>  0 0.23962096E+04</rscale>
<asrwt>0</asrwt>
<pdfrwt beam="1">  1        2 0.47115215E+00 0.24019455E+04</pdfrwt>
<pdfrwt beam="2">  1       -2 0.32835316E+00 0.24019455E+04</pdfrwt>
<totfact> 0.28653779E-02</totfact>
</mgrwt>
</event>
<event>
11    1  0.4187089E-016  0.4825385E+04  0.7818608E-02  0.7856023E-01
         -1   -1    0    0    0  501 -0.00000000000E+00  0.00000000000E+00  0.15484062606E+04  0.15484062606E+04  0.00000000000E+00 0.  1.
          1   -1    0    0  501    0  0.00000000000E+00 -0.00000000000E+00 -0.37594037605E+04  0.37594037605E+04  0.00000000000E+00 0. -1.
    9900016    2    1    2    0    0  0.24054952367E+03  0.31161091928E+03 -0.61011303899E+03  0.19329598257E+04  0.17914045688E+04 0.  0.
         24    2    3    3    0    0  0.52951781566E+03  0.73692417385E+03  0.23769200926E+03  0.94141182481E+03  0.79450472014E+02 0.  0.
        -15    1    1    2    0    0 -0.59127735817E+03  0.25655025122E+03 -0.94080099349E+03  0.11404093366E+04  0.00000000000E+00 0.  1.
        -15    1    4    4    0    0  0.34371480708E+03  0.53996909361E+03  0.17204956755E+03  0.66280279447E+03  0.00000000000E+00 0.  1.
         15    1    1    2    0    0  0.11510179512E+04 -0.35550931884E+03 -0.18698347246E+03  0.12190947538E+04  0.00000000000E+00 0. -1.
         15    1    3    3    0    0 -0.28896829199E+03 -0.42531325457E+03 -0.84780504826E+03  0.99154800093E+03  0.00000000000E+00 0. -1.
        -16    1    1    2    0    0 -0.76522031406E+03 -0.22721574591E+03 -0.40285274212E+03  0.89413615074E+03  0.00000000000E+00 0.  1.
         16    1    4    4    0    0  0.18580300858E+03  0.19695508024E+03  0.65642441710E+02  0.27860903033E+03  0.00000000000E+00 0. -1.
    9900018    1    1    2    0    0 -0.35069802604E+02  0.14563894256E+02 -0.70247252907E+02  0.12120995423E+03  0.91187600000E+02 0.  0.
<mgrwt>
<rscale>  0 0.48253847E+04</rscale>
<asrwt>0</asrwt>
<pdfrwt beam="1">  1        1 0.57836981E+00 0.48253847E+04</pdfrwt>
<pdfrwt beam="2">  1       -1 0.23821635E+00 0.48253847E+04</pdfrwt>
<totfact> 0.93749757E-03</totfact>
</mgrwt>
</event>
<event>
11    1  0.4187089E-016  0.3695027E+04  0.7818608E-02  0.8277420E-01
          2   -1    0    0  501    0  0.00000000000E+00  0.00000000000E+00  0.28474606243E+04  0.28474606243E+04  0.00000000000E+00 0.  1.
         -2   -1    0    0    0  501 -0.00000000000E+00 -0.00000000000E+00 -0.22559689402E+04  0.22559689402E+04  0.00000000000E+00 0. -1.
    9900016    2    1    2    0    0  0.35405239245E+03 -0.44312651073E+03  0.11855581974E+04  0.22209062884E+04  0.17902967076E+04 0.  0.
        -24    2    3    3    0    0  0.42686916260E+02  0.74478168607E+02 -0.45651511451E+03  0.47125837365E+03  0.79430690143E+02 0.  0.
        -15    1    1    2    0    0  0.44831379549E+03  0.47539207537E+03  0.38972506055E+03  0.76083408662E+03  0.00000000000E+00 0.  1.
        -15    1    3    3    0    0  0.31136547619E+03 -0.51760467934E+03  0.16420733119E+04  0.17496479147E+04  0.00000000000E+00 0.  1.
         15    1    1    2    0    0  0.52370044066E+02 -0.54684607132E+03 -0.27949247125E+03  0.61635970725E+03  0.00000000000E+00 0. -1.
         15    1    4    4    0    0  0.50867281522E+02  0.12782094873E+02 -0.16348965514E+03  0.17169662086E+03  0.00000000000E+00 0. -1.
        -16    1    4    4    0    0 -0.81803652619E+01  0.61696073734E+02 -0.29302545937E+03  0.29956175278E+03  0.00000000000E+00 0.  1.
         16    1    1    2    0    0 -0.87785364836E+03  0.61639652178E+03 -0.79893341685E+03  0.13374850670E+04  0.00000000000E+00 0. -1.
    9900018    1    1    2    0    0  0.23117416360E+02 -0.10181601509E+03  0.94634314303E+02  0.16784441518E+03  0.91187600000E+02 0.  0.
<mgrwt>
<rscale>  0 0.28847823E+04</rscale>
<asrwt>0</asrwt>
<pdfrwt beam="1">  1        2 0.43807086E+00 0.36950268E+04</pdfrwt>
<pdfrwt beam="2">  1       -2 0.34707215E+00 0.36950268E+04</pdfrwt>
<totfact> 0.27158808E-02</totfact>
</mgrwt>
</event>
<event>
11    1  0.4187089E-016  0.3324057E+04  0.7818608E-02  0.8226946E-01
          2   -1    0    0  501    0  0.00000000000E+00  0.00000000000E+00  0.37066131149E+04  0.37066131149E+04  0.00000000000E+00 0. -1.
         -2   -1    0    0    0  501 -0.00000000000E+00 -0.00000000000E+00 -0.22932115457E+04  0.22932115457E+04  0.00000000000E+00 0.  1.
    9900016    2    1    2    0    0  0.63129065626E+03 -0.49161817608E+03  0.40485014167E+03  0.20028376941E+04  0.17908765641E+04 0.  0.
         24    2    3    3    0    0  0.79770199613E+03 -0.10816941824E+04  0.24230433614E+03  0.13685636475E+04  0.88680816499E+02 0.  0.
        -15    1    4    4    0    0  0.22042903557E+03 -0.23972611716E+03  0.44033214582E+02  0.32862820171E+03  0.00000000000E+00 0.  1.
        -15    1    1    2    0    0 -0.15280040541E+03 -0.40991199031E+03  0.27841183756E+03  0.51854503661E+03  0.00000000000E+00 0.  1.
         15    1    3    3    0    0 -0.16641133988E+03  0.59007600630E+03  0.16254580552E+03  0.63427404656E+03  0.00000000000E+00 0. -1.
         15    1    1    2    0    0  0.15177709994E+03  0.19384508989E+04  0.91786014649E+03  0.21501384662E+04  0.00000000000E+00 0. -1.
        -16    1    1    2    0    0 -0.67214345708E+03 -0.10001140024E+04 -0.14698599332E+03  0.12139232788E+04  0.00000000000E+00 0.  1.
         16    1    4    4    0    0  0.57727296056E+03 -0.84196806522E+03  0.19827112156E+03  0.10399354458E+04  0.00000000000E+00 0. -1.
    9900018    1    1    2    0    0  0.41876106297E+02 -0.36806730095E+02 -0.40734563193E+02  0.11438018487E+03  0.91187600000E+02 0.  0.
<mgrwt>
<rscale>  0 0.30594832E+04</rscale>
<asrwt>0</asrwt>
<pdfrwt beam="1">  1        2 0.57024817E+00 0.33240572E+04</pdfrwt>
<pdfrwt beam="2">  1       -2 0.35280178E+00 0.33240572E+04</pdfrwt>
<totfact> 0.67048817E-03</totfact>
</mgrwt>
</event>
<event>
11    1  0.4187089E-016  0.4451409E+04  0.7818608E-02  0.7919199E-01
         -2   -1    0    0    0  501 -0.00000000000E+00  0.00000000000E+00  0.24374914625E+04  0.24374914625E+04  0.00000000000E+00 0.  1.
          2   -1    0    0  501    0  0.00000000000E+00 -0.00000000000E+00 -0.20323195445E+04  0.20323195445E+04  0.00000000000E+00 0. -1.
    9900016    2    1    2    0    0 -0.14474179659E+03  0.57794479873E+03  0.34355168161E+03  0.19135547668E+04  0.17856913813E+04 0.  0.
         24    2    3    3    0    0 -0.21098018505E+03 -0.42109046918E+03  0.70293842297E+03  0.84977949891E+03  0.78568114173E+02 0.  0.
        -15    1    4    4    0    0 -0.17287279462E+02 -0.43076918482E+02  0.11875904558E+03  0.12750757563E+03  0.00000000000E+00 0.  1.
        -15    1    1    2    0    0  0.35033495155E+03 -0.10434023454E+03  0.14499517953E+03  0.39324936734E+03  0.00000000000E+00 0.  1.
         15    1    3    3    0    0  0.66238388456E+02  0.99903526791E+03 -0.35938674136E+03  0.10637752679E+04  0.00000000000E+00 0. -1.
         15    1    1    2    0    0 -0.49631602906E+03  0.97605273659E+02 -0.83985735291E+03  0.98041662745E+03  0.00000000000E+00 0. -1.
        -16    1    1    2    0    0  0.26005784753E+03 -0.64866119630E+03  0.78986926344E+03  0.10546491763E+04  0.00000000000E+00 0.  1.
         16    1    4    4    0    0 -0.19369290558E+03 -0.37801355070E+03  0.58417937739E+03  0.72227192327E+03  0.00000000000E+00 0. -1.
    9900018    1    1    2    0    0  0.30665026565E+02  0.77451358461E+02 -0.33386853646E+02  0.12794106914E+03  0.91187600000E+02 0.  0.
<mgrwt>
<rscale>  0 0.44514095E+04</rscale>
<asrwt>0</asrwt>
<pdfrwt beam="1">  1        2 0.31266454E+00 0.44514095E+04</pdfrwt>
<pdfrwt beam="2">  1       -2 0.37499869E+00 0.44514095E+04</pdfrwt>
<totfact> 0.52576525E-02</totfact>
</mgrwt>
</event>
<event>
11    1  0.4187089E-016  0.4687284E+04  0.7818608E-02  0.7878645E-01
         -2   -1    0    0    0  501 -0.00000000000E+00  0.00000000000E+00  0.17382159895E+04  0.17382159895E+04  0.00000000000E+00 0.  1.
          2   -1    0    0  501    0  0.00000000000E+00 -0.00000000000E+00 -0.31599402129E+04  0.31599402129E+04  0.00000000000E+00 0. -1.
    9900016    2    1    2    0    0 -0.29982498357E+03 -0.40699514697E+03 -0.12279797429E+04  0.23133881256E+04  0.18942783059E+04 0.  0.
         24    2    3    3    0    0 -0.70310581280E+03 -0.69321508220E+03 -0.13640098743E+04  0.16857204782E+04  0.78902846671E+02 0.  0.
        -15    1    1    2    0    0  0.45271724538E+02  0.69872526156E+03 -0.30087528144E+03  0.76209740530E+03  0.00000000000E+00 0.  1.
        -15    1    4    4    0    0 -0.42861785173E+03 -0.39902085158E+03 -0.74836949319E+03  0.95025670277E+03  0.00000000000E+00 0.  1.
         15    1    1    2    0    0  0.76032501025E+03 -0.71405124575E+03  0.37914043051E+03  0.11098246568E+04  0.00000000000E+00 0. -1.
         15    1    3    3    0    0  0.41936549287E+03  0.26902995395E+03  0.17164834154E+03  0.52697977749E+03  0.00000000000E+00 0. -1.
        -16    1    1    2    0    0 -0.50577175122E+03  0.42232113116E+03 -0.27200962956E+03  0.71284601474E+03  0.00000000000E+00 0.  1.
         16    1    4    4    0    0 -0.27448796106E+03 -0.29419423062E+03 -0.61564038110E+03  0.73546377541E+03  0.00000000000E+00 0. -1.
    9900018    1    3    3    0    0 -0.16084663642E+02  0.17189981285E+02 -0.35618210158E+02  0.10068786992E+03  0.91187600000E+02 0.  0.
<mgrwt>
<rscale>  0 0.46872843E+04</rscale>
<asrwt>0</asrwt>
<pdfrwt beam="1">  1        2 0.48614465E+00 0.46872843E+04</pdfrwt>
<pdfrwt beam="2">  1       -2 0.26741785E+00 0.46872843E+04</pdfrwt>
<totfact> 0.51605599E-02</totfact>
</mgrwt>
</event>
<event>
11    1  0.4187089E-016  0.3576680E+04  0.7818608E-02  0.8095854E-01
         -1   -1    0    0    0  501 -0.00000000000E+00  0.00000000000E+00  0.12069789448E+04  0.12069789448E+04  0.00000000000E+00 0.  1.
          1   -1    0    0  501    0  0.00000000000E+00 -0.00000000000E+00 -0.26497237748E+04  0.26497237748E+04  0.00000000000E+00 0. -1.
    9900016    2    1    2    0    0  0.37377636087E+03 -0.28154196828E+03 -0.10945905433E+04  0.22396291648E+04  0.18970597488E+04 0.  0.
        -24    2    3    3    0    0 -0.42478426071E+03 -0.45110726446E+03 -0.11599416877E+04  0.13174267207E+04  0.78797292537E+02 0.  0.
        -15    1    1    2    0    0 -0.34381139361E+03 -0.50885266021E+03 -0.35745696164E+03  0.71057215229E+03  0.00000000000E+00 0.  1.
        -15    1    3    3    0    0  0.71496177306E+03  0.21235748662E+03  0.15729350401E+03  0.76223833902E+03  0.00000000000E+00 0.  1.
         15    1    1    2    0    0  0.14659662983E+03  0.50982053392E+03 -0.13118098729E+03  0.54645768373E+03  0.00000000000E+00 0. -1.
         15    1    4    4    0    0 -0.17068014729E+03 -0.15955231078E+03 -0.51296512649E+03  0.56366823004E+03  0.00000000000E+00 0. -1.
        -16    1    4    4    0    0 -0.25410411342E+03 -0.29155495368E+03 -0.64697656121E+03  0.75375849065E+03  0.00000000000E+00 0.  1.
         16    1    1    2    0    0 -0.17656159708E+03  0.28057409456E+03  0.14048366227E+03  0.36004371883E+03  0.00000000000E+00 0. -1.
    9900018    1    3    3    0    0  0.83598848520E+02 -0.42792190437E+02 -0.91942359565E+02  0.15996410507E+03  0.91187600000E+02 0.  0.
<mgrwt>
<rscale>  0 0.35766805E+04</rscale>
<asrwt>0</asrwt>
<pdfrwt beam="1">  1        1 0.40764981E+00 0.35766805E+04</pdfrwt>
<pdfrwt beam="2">  1       -1 0.18568907E+00 0.35766805E+04</pdfrwt>
<totfact> 0.16354502E-01</totfact>
</mgrwt>
</event>
<event>
11    1  0.4187089E-016  0.3150245E+04  0.7818608E-02  0.8291861E-01
          1   -1    0    0  501    0  0.00000000000E+00  0.00000000000E+00  0.27966922902E+04  0.27966922902E+04  0.00000000000E+00 0. -1.
         -1   -1    0    0    0  501 -0.00000000000E+00 -0.00000000000E+00 -0.24524646704E+04  0.24524646704E+04  0.00000000000E+00 0.  1.
    9900016    2    1    2    0    0 -0.50448508652E+03 -0.43393729079E+03  0.76013339036E+02  0.19115858706E+04  0.17904121699E+04 0.  0.
        -24    2    3    3    0    0  0.38062919825E+03 -0.84115074889E+03 -0.55527519869E+02  0.92845154858E+03  0.80782446568E+02 0.  0.
        -15    1    1    2    0    0  0.70308806335E+03  0.38935451581E+03 -0.52342898101E+03  0.95911816893E+03  0.00000000000E+00 0.  1.
        -15    1    3    3    0    0 -0.88511428477E+03  0.40721345810E+03  0.13154085890E+03  0.98313432201E+03  0.00000000000E+00 0.  1.
         15    1    4    4    0    0  0.27869094725E+03 -0.67241616754E+03 -0.20115768893E+02  0.72815986610E+03  0.00000000000E+00 0. -1.
         15    1    1    2    0    0  0.56115025070E+03 -0.84344268344E+03  0.46322025902E+03  0.11139381367E+04  0.00000000000E+00 0. -1.
        -16    1    4    4    0    0  0.10193825100E+03 -0.16873458135E+03 -0.35411750976E+02  0.20029168247E+03  0.00000000000E+00 0.  1.
         16    1    1    2    0    0 -0.71652243170E+03  0.84974551862E+03  0.31781887866E+03  0.11560625767E+04  0.00000000000E+00 0. -1.
    9900018    1    1    2    0    0 -0.43230795832E+02  0.38279939799E+02  0.10604124058E+02  0.10845220763E+03  0.91187600000E+02 0.  0.
<mgrwt>
<rscale>  0 0.28370387E+04</rscale>
<asrwt>0</asrwt>
<pdfrwt beam="1">  1        1 0.43026035E+00 0.31502455E+04</pdfrwt>
<pdfrwt beam="2">  1       -1 0.37730226E+00 0.31502455E+04</pdfrwt>
<totfact> 0.67886892E-03</totfact>
</mgrwt>
</event>
<event>
11    1  0.4187089E-016  0.3044132E+04  0.7818608E-02  0.8398922E-01
         -2   -1    0    0    0  501 -0.00000000000E+00  0.00000000000E+00  0.23168089730E+04  0.23168089730E+04  0.00000000000E+00 0.  1.
          2   -1    0    0  501    0  0.00000000000E+00 -0.00000000000E+00 -0.21712943744E+04  0.21712943744E+04  0.00000000000E+00 0. -1.
    9900016    2    1    2    0    0 -0.78172046310E+03  0.53640078396E+02 -0.39587032705E+03  0.19999439249E+04  0.17969691835E+04 0.  0.
        -24    2    3    3    0    0  0.43950731047E+03  0.16581535751E+03  0.32562475890E+03  0.57708211597E+03  0.79566803496E+02 0.  0.
        -15    1    1    2    0    0  0.20749739669E+03 -0.96530652815E+03  0.43598963027E+03  0.10793325811E+04  0.00000000000E+00 0.  1.
        -15    1    3    3    0    0 -0.12212277736E+04 -0.11217527912E+03 -0.72149508594E+03  0.14228618089E+04  0.00000000000E+00 0.  1.
         15    1    1    2    0    0  0.28943751991E+03  0.84063001113E+03  0.29725911884E+03  0.93744113270E+03  0.00000000000E+00 0. -1.
         15    1    4    4    0    0  0.34126657342E+03  0.16251358421E+03  0.26431178872E+03  0.46123124444E+03  0.00000000000E+00 0. -1.
        -16    1    4    4    0    0  0.98240737045E+02  0.33017733045E+01  0.61312970180E+02  0.11585087153E+03  0.00000000000E+00 0.  1.
         16    1    1    2    0    0  0.32103627212E+03  0.82984520742E+02 -0.14288338322E+03  0.36106284758E+03  0.00000000000E+00 0. -1.
    9900018    1    1    2    0    0 -0.36250725614E+02 -0.11948082116E+02 -0.48980440302E+02  0.11032286118E+03  0.91187600000E+02 0.  0.
<mgrwt>
<rscale>  0 0.25114372E+04</rscale>
<asrwt>0</asrwt>
<pdfrwt beam="1">  1        2 0.33404529E+00 0.30441321E+04</pdfrwt>
<pdfrwt beam="2">  1       -2 0.35643215E+00 0.30441321E+04</pdfrwt>
<totfact> 0.61997636E-02</totfact>
</mgrwt>
</event>
<event>
11    1  0.4187089E-016  0.2888349E+04  0.7818608E-02  0.8355080E-01
         -2   -1    0    0    0  501 -0.00000000000E+00  0.00000000000E+00  0.22189126692E+04  0.22189126692E+04  0.00000000000E+00 0.  1.
          2   -1    0    0  501    0  0.00000000000E+00 -0.00000000000E+00 -0.31445681091E+04  0.31445681091E+04  0.00000000000E+00 0. -1.
    9900016    2    1    2    0    0  0.72844860155E+02 -0.44821889712E+03 -0.45505018244E+03  0.19145491179E+04  0.18033915557E+04 0.  0.
        -24    2    3    3    0    0  0.52439495755E+03 -0.63066489879E+03  0.41096760499E+03  0.92098440331E+03  0.81176429493E+02 0.  0.
        -15    1    3    3    0    0 -0.45155009740E+03  0.18244600167E+03 -0.86601778743E+03  0.99356471462E+03  0.00000000000E+00 0.  1.
        -15    1    1    2    0    0 -0.10493832230E+04  0.73035698019E+03  0.82894435891E+03  0.15237372534E+04  0.00000000000E+00 0.  1.
         15    1    1    2    0    0  0.46551825169E+03  0.24450736339E+03 -0.23339122921E+03  0.57529345493E+03  0.00000000000E+00 0. -1.
         15    1    4    4    0    0  0.46587146109E+03 -0.52519717495E+03  0.33019544335E+03  0.77582041842E+03  0.00000000000E+00 0. -1.
        -16    1    4    4    0    0  0.58523496464E+02 -0.10546772385E+03  0.80772161644E+02  0.14516398489E+03  0.00000000000E+00 0.  1.
         16    1    1    2    0    0  0.48247501224E+03 -0.50939012635E+03 -0.10300663091E+04  0.12463133793E+04  0.00000000000E+00 0. -1.
    9900018    1    1    2    0    0  0.28545098955E+02 -0.17255320119E+02 -0.36092078043E+02  0.10358757280E+03  0.91187600000E+02 0.  0.
<mgrwt>
<rscale>  0 0.26389782E+04</rscale>
<asrwt>0</asrwt>
<pdfrwt beam="1">  1        2 0.48377971E+00 0.28883488E+04</pdfrwt>
<pdfrwt beam="2">  1       -2 0.34137118E+00 0.28883488E+04</pdfrwt>
<totfact> 0.20161764E-02</totfact>
</mgrwt>
</event>
<event>
11    1  0.4187089E-016  0.3480718E+04  0.7818608E-02  0.8148397E-01
          2   -1    0    0  501    0  0.00000000000E+00  0.00000000000E+00  0.33769904808E+04  0.33769904808E+04  0.00000000000E+00 0.  1.
         -2   -1    0    0    0  501 -0.00000000000E+00 -0.00000000000E+00 -0.32254633677E+04  0.32254633677E+04  0.00000000000E+00 0. -1.
    9900016    2    1    2    0    0 -0.10588712755E+04  0.36504074549E+03 -0.23816821702E+03  0.22081284712E+04  0.18880265151E+04 0.  0.
         24    2    3    3    0    0 -0.12234075846E+04  0.90794031093E+03 -0.51394160194E+02  0.15264677017E+04  0.79878396360E+02 0.  0.
        -15    1    1    2    0    0  0.13450839647E+03 -0.82394123931E+03 -0.63985062826E+03  0.10518462345E+04  0.00000000000E+00 0.  1.
        -15    1    4    4    0    0 -0.27920447204E+03  0.20463933576E+03  0.21730469064E+02  0.34684954697E+03  0.00000000000E+00 0.  1.
         15    1    1    2    0    0  0.18728470291E+04  0.70845095457E+03  0.12173692515E+03  0.20060604748E+04  0.00000000000E+00 0. -1.
         15    1    3    3    0    0  0.20079716587E+03 -0.51619069503E+03 -0.15820616178E+03  0.57602215676E+03  0.00000000000E+00 0. -1.
        -16    1    1    2    0    0 -0.94848415006E+03 -0.24955046074E+03  0.90780903323E+03  0.13364186680E+04  0.00000000000E+00 0.  1.
         16    1    4    4    0    0 -0.94420311260E+03  0.70330097517E+03 -0.73124629258E+02  0.11796181547E+04  0.00000000000E+00 0. -1.
    9900018    1    3    3    0    0 -0.36260856752E+02 -0.26708870408E+02 -0.28567895055E+02  0.10563861279E+03  0.91187600000E+02 0.  0.
<mgrwt>
<rscale>  0 0.33575802E+04</rscale>
<asrwt>0</asrwt>
<pdfrwt beam="1">  1        2 0.51953700E+00 0.34807177E+04</pdfrwt>
<pdfrwt beam="2">  1       -2 0.49622513E+00 0.34807177E+04</pdfrwt>
<totfact> 0.13037017E-03</totfact>
</mgrwt>
</event>
<event>
11    1  0.4187089E-016  0.3259644E+04  0.7818608E-02  0.8233742E-01
         -2   -1    0    0    0  501 -0.00000000000E+00  0.00000000000E+00  0.28536197627E+04  0.28536197627E+04  0.00000000000E+00 0. -1.
          2   -1    0    0  501    0  0.00000000000E+00 -0.00000000000E+00 -0.29377977651E+04  0.29377977651E+04  0.00000000000E+00 0.  1.
    9900016    2    1    2    0    0  0.30799272992E+03 -0.84686912768E+03  0.93582867766E+03  0.22258226609E+04  0.18073362617E+04 0.  0.
         24    2    3    3    0    0 -0.59506873172E+03 -0.92606518566E+03  0.40679500524E+03  0.11762186186E+04  0.79401126046E+02 0.  0.
        -15    1    1    2    0    0 -0.52771646338E+03  0.10766813383E+04 -0.11000985671E+04  0.16272505116E+04  0.00000000000E+00 0.  1.
        -15    1    4    4    0    0 -0.10273405523E+03 -0.19138278482E+03  0.52281309152E+02  0.22341663259E+03  0.00000000000E+00 0.  1.
         15    1    3    3    0    0  0.90306146164E+03  0.79196057986E+02  0.52903367242E+03  0.10496040423E+04  0.00000000000E+00 0. -1.
         15    1    1    2    0    0  0.22738115110E+03  0.60987254506E+03  0.58689905399E+03  0.87641155210E+03  0.00000000000E+00 0. -1.
        -16    1    1    2    0    0 -0.26673080377E+02 -0.80343188805E+03 -0.52528987333E+03  0.96028313688E+03  0.00000000000E+00 0.  1.
         16    1    4    4    0    0 -0.49233467649E+03 -0.73468240084E+03  0.35451369608E+03  0.95280198598E+03  0.00000000000E+00 0. -1.
    9900018    1    1    2    0    0  0.19015662738E+02 -0.36252867660E+02  0.18482706356E+02  0.10164966636E+03  0.91187600000E+02 0.  0.
<mgrwt>
<rscale>  0 0.30352276E+04</rscale>
<asrwt>0</asrwt>
<pdfrwt beam="1">  1        2 0.45196889E+00 0.32596436E+04</pdfrwt>
<pdfrwt beam="2">  1       -2 0.43901842E+00 0.32596436E+04</pdfrwt>
<totfact> 0.61049068E-03</totfact>
</mgrwt>
</event>
<event>
11    1  0.4187089E-016  0.2970928E+04  0.7818608E-02  0.8470029E-01
          2   -1    0    0  501    0  0.00000000000E+00  0.00000000000E+00  0.29235972280E+04  0.29235972280E+04  0.00000000000E+00 0. -1.
         -2   -1    0    0    0  501 -0.00000000000E+00 -0.00000000000E+00 -0.14857509964E+04  0.14857509964E+04  0.00000000000E+00 0.  1.
    9900016    2    1    2    0    0 -0.55199257495E+02  0.19103000824E+03  0.70890183944E+02  0.18196161927E+04  0.18073290372E+04 0.  0.
        -24    2    3    3    0    0  0.37308514886E+03 -0.99709653733E+02 -0.75100104771E+03  0.84829632757E+03  0.80433465431E+02 0.  0.
        -15    1    1    2    0    0  0.23063687910E+03 -0.25834929389E+03 -0.49861753054E+03  0.60708909512E+03  0.00000000000E+00 0.  1.
        -15    1    3    3    0    0 -0.42828440636E+03  0.29073966197E+03  0.82189123165E+03  0.97131986515E+03  0.00000000000E+00 0.  1.
         15    1    1    2    0    0  0.87501873233E+02  0.10812455525E+02  0.49008950697E+03  0.49795703817E+03  0.00000000000E+00 0. -1.
         15    1    4    4    0    0  0.23429914208E+03 -0.78660971589E+02 -0.55162463198E+03  0.60446122376E+03  0.00000000000E+00 0. -1.
        -16    1    4    4    0    0  0.13878600678E+03 -0.21048682145E+02 -0.19937641573E+03  0.24383510381E+03  0.00000000000E+00 0.  1.
         16    1    1    2    0    0 -0.25180296618E+03  0.41873929228E+02  0.13677234559E+04  0.13913395026E+04  0.00000000000E+00 0. -1.
    9900018    1    1    2    0    0 -0.11136528658E+02  0.14632900903E+02  0.77606153362E+01  0.93346395772E+02  0.91187600000E+02 0.  0.
<mgrwt>
<rscale>  0 0.23201228E+04</rscale>
<asrwt>0</asrwt>
<pdfrwt beam="1">  1        2 0.44978419E+00 0.29709281E+04</pdfrwt>
<pdfrwt beam="2">  1       -2 0.22857708E+00 0.29709281E+04</pdfrwt>
<totfact> 0.14026005E-01</totfact>
</mgrwt>
</event>
<event>
11    1  0.4187089E-016  0.3100060E+04  0.7818608E-02  0.8350359E-01
         -2   -1    0    0    0  501 -0.00000000000E+00  0.00000000000E+00  0.36844046119E+04  0.36844046119E+04  0.00000000000E+00 0.  1.
          2   -1    0    0  501    0  0.00000000000E+00 -0.00000000000E+00 -0.16998973886E+04  0.16998973886E+04  0.00000000000E+00 0. -1.
    9900016    2    1    2    0    0 -0.17029746883E+03 -0.26400818324E+03  0.92669791186E+02  0.18190223541E+04  0.17892884301E+04 0.  0.
        -24    2    3    3    0    0 -0.55179977487E+03 -0.72989379186E+03  0.54321268167E+03  0.10669702908E+04  0.78215375311E+02 0.  0.
        -15    1    1    2    0    0  0.59393334372E+02 -0.54413072812E+03 -0.13284232350E+03  0.56325207533E+03  0.00000000000E+00 0.  1.
        -15    1    3    3    0    0  0.38150230605E+03  0.46588560862E+03 -0.45054289048E+03  0.75205206336E+03  0.00000000000E+00 0.  1.
         15    1    4    4    0    0 -0.20710309305E+03 -0.21628666824E+03  0.19073579796E+03  0.35503768621E+03  0.00000000000E+00 0. -1.
         15    1    1    2    0    0 -0.49996214760E+02 -0.35822674268E+03  0.16461076889E+04  0.16853772706E+04  0.00000000000E+00 0. -1.
        -16    1    4    4    0    0 -0.34469668182E+03 -0.51360712362E+03  0.35247688371E+03  0.71193260456E+03  0.00000000000E+00 0.  1.
         16    1    1    2    0    0  0.11937197108E+03  0.11389088628E+04  0.39522550709E+03  0.12114314949E+04  0.00000000000E+00 0. -1.
    9900018    1    1    2    0    0  0.41528378134E+02  0.27456791202E+02 -0.16653440429E+02  0.10521880557E+03  0.91187600000E+02 0.  0.
<mgrwt>
<rscale>  0 0.26531771E+04</rscale>
<asrwt>0</asrwt>
<pdfrwt beam="1">  1        2 0.26152268E+00 0.31000603E+04</pdfrwt>
<pdfrwt beam="2">  1       -2 0.56683148E+00 0.31000603E+04</pdfrwt>
<totfact> 0.55342766E-03</totfact>
</mgrwt>
</event>
<event>
11    1  0.4187089E-016  0.3435573E+04  0.7818608E-02  0.8262561E-01
          2   -1    0    0  501    0  0.00000000000E+00  0.00000000000E+00  0.25493075246E+04  0.25493075246E+04  0.00000000000E+00 0. -1.
         -2   -1    0    0    0  501 -0.00000000000E+00 -0.00000000000E+00 -0.34578762388E+04  0.34578762388E+04  0.00000000000E+00 0.  1.
    9900016    2    1    2    0    0 -0.27703600840E+03  0.46668999920E+03 -0.23276500202E+03  0.18856364745E+04  0.17907810761E+04 0.  0.
         24    2    3    3    0    0  0.67974603705E+03  0.56404158056E+03 -0.25781694960E+03  0.92358823613E+03  0.79674782286E+02 0.  0.
        -15    1    4    4    0    0  0.12028178858E+03  0.13459315237E+03 -0.71107256327E+02  0.19400842052E+03  0.00000000000E+00 0.  1.
        -15    1    1    2    0    0 -0.79290305927E+03 -0.72054979356E+03  0.10611409083E+04  0.15079480408E+04  0.00000000000E+00 0.  1.
         15    1    1    2    0    0  0.84448547586E+03  0.31172326436E+03 -0.19061187717E+04  0.21079885873E+04  0.00000000000E+00 0. -1.
         15    1    3    3    0    0 -0.95678204544E+03 -0.97351581361E+02  0.25051947577E+02  0.96204823837E+03  0.00000000000E+00 0. -1.
        -16    1    1    2    0    0  0.29403572681E+03 -0.77476855642E+02  0.22384389604E+03  0.37757881508E+03  0.00000000000E+00 0.  1.
         16    1    4    4    0    0  0.55946424846E+03  0.42944842819E+03 -0.18670969327E+03  0.72957981561E+03  0.00000000000E+00 0. -1.
    9900018    1    1    2    0    0 -0.68582135006E+02  0.19613385637E+02 -0.54669744803E+02  0.12803184576E+03  0.91187600000E+02 0.  0.
<mgrwt>
<rscale>  0 0.29349283E+04</rscale>
<asrwt>0</asrwt>
<pdfrwt beam="1">  1        2 0.39220116E+00 0.34355728E+04</pdfrwt>
<pdfrwt beam="2">  1       -2 0.53198096E+00 0.34355728E+04</pdfrwt>
<totfact> 0.26752606E-03</totfact>
</mgrwt>
</event>
<event>
11    1  0.4187089E-016  0.3942134E+04  0.7818608E-02  0.8119078E-01
          2   -1    0    0  501    0  0.00000000000E+00  0.00000000000E+00  0.35011660080E+04  0.35011660080E+04  0.00000000000E+00 0.  1.
         -2   -1    0    0    0  501 -0.00000000000E+00 -0.00000000000E+00 -0.31715589522E+04  0.31715589522E+04  0.00000000000E+00 0. -1.
    9900016    2    1    2    0    0  0.11173876370E+03  0.51073137349E+03 -0.34209659495E+03  0.19071841284E+04  0.18019403797E+04 0.  0.
        -24    2    3    3    0    0 -0.18044006807E+03  0.46459376455E+03  0.67785013644E+03  0.84521026640E+03  0.80582893438E+02 0.  0.
        -15    1    3    3    0    0  0.29217883178E+03  0.46137608934E+02 -0.10199467314E+04  0.10619738620E+04  0.00000000000E+00 0.  1.
        -15    1    1    2    0    0 -0.13394351732E+04 -0.11548968384E+04  0.96529417314E+03  0.20148613181E+04  0.00000000000E+00 0.  1.
         15    1    4    4    0    0 -0.90210480735E+02  0.14621562269E+03  0.26957620663E+03  0.31966900121E+03  0.00000000000E+00 0. -1.
         15    1    1    2    0    0 -0.60703651713E+03 -0.34244994924E+01  0.17805043769E+03  0.63261917351E+03  0.00000000000E+00 0. -1.
        -16    1    4    4    0    0 -0.90229587340E+02  0.31837814187E+03  0.40827392982E+03  0.52554126519E+03  0.00000000000E+00 0.  1.
         16    1    1    2    0    0  0.18612810990E+04  0.59750178553E+03 -0.42246759423E+03  0.19999636450E+04  0.00000000000E+00 0. -1.
    9900018    1    1    2    0    0 -0.26548172299E+02  0.50088178862E+02 -0.49173365813E+02  0.11809669518E+03  0.91187600000E+02 0.  0.
<mgrwt>
<rscale>  0 0.34777726E+04</rscale>
<asrwt>0</asrwt>
<pdfrwt beam="1">  1        2 0.53864092E+00 0.39421345E+04</pdfrwt>
<pdfrwt beam="2">  1       -2 0.48793215E+00 0.39421345E+04</pdfrwt>
<totfact> 0.11688525E-03</totfact>
</mgrwt>
</event>
<event>
11    1  0.4187089E-016  0.3911899E+04  0.7818608E-02  0.8252908E-01
         -1   -1    0    0    0  501 -0.00000000000E+00  0.00000000000E+00  0.19019571621E+04  0.19019571621E+04  0.00000000000E+00 0.  1.
          1   -1    0    0  501    0  0.00000000000E+00 -0.00000000000E+00 -0.42235683792E+04  0.42235683792E+04  0.00000000000E+00 0. -1.
    9900016    2    1    2    0    0  0.44511106365E+03 -0.12392678022E+04 -0.15331004501E+04  0.27042560885E+04  0.17968571055E+04 0.  0.
         24    2    3    3    0    0  0.10981018418E+04 -0.86946890861E+03 -0.65211329602E+03  0.15469806054E+04  0.78060263106E+02 0.  0.
        -15    1    4    4    0    0  0.54410920830E+03 -0.42110868389E+03 -0.27812536211E+03  0.74211931066E+03  0.00000000000E+00 0.  1.
        -15    1    1    2    0    0 -0.10121548204E+03  0.47067677112E+03  0.10222359593E+04  0.11299325436E+04  0.00000000000E+00 0.  1.
         15    1    3    3    0    0 -0.65299077815E+03 -0.36979889355E+03 -0.88098715407E+03  0.11572754830E+04  0.00000000000E+00 0. -1.
         15    1    1    2    0    0 -0.66886404964E+03  0.39754062608E+03 -0.98989243326E+03  0.12590888355E+04  0.00000000000E+00 0. -1.
        -16    1    1    2    0    0  0.31748889075E+03  0.40738617570E+03 -0.75130528845E+03  0.91171395095E+03  0.00000000000E+00 0.  1.
         16    1    4    4    0    0  0.55399263349E+03 -0.44836022471E+03 -0.37398793391E+03  0.80486129474E+03  0.00000000000E+00 0. -1.
    9900018    1    1    2    0    0  0.74795772749E+01 -0.36335770735E+02 -0.69549004561E+02  0.12053412272E+03  0.91187600000E+02 0.  0.
<mgrwt>
<rscale>  0 0.29680707E+04</rscale>
<asrwt>0</asrwt>
<pdfrwt beam="1">  1        1 0.64977975E+00 0.39118988E+04</pdfrwt>
<pdfrwt beam="2">  1       -1 0.29260880E+00 0.39118988E+04</pdfrwt>
<totfact> 0.16557834E-03</totfact>
</mgrwt>
</event>
<event>
11    1  0.5215425E-016  0.2931840E+04  0.7818608E-02  0.8431745E-01
         -1   -1    0    0    0  501 -0.00000000000E+00  0.00000000000E+00  0.24200045769E+04  0.24200045769E+04  0.00000000000E+00 0.  1.
          1   -1    0    0  501    0  0.00000000000E+00 -0.00000000000E+00 -0.21415639848E+04  0.21415639848E+04  0.00000000000E+00 0. -1.
    9900016    2    1    2    0    0 -0.83811084324E+02 -0.77425410396E+02  0.15896669048E+03  0.18072667541E+04  0.17966423461E+04 0.  0.
        -24    2    3    3    0    0 -0.50683571141E+03  0.33797695013E+03 -0.59016735098E+03  0.85190778059E+03  0.79614742976E+02 0.  0.
        -15    1    3    3    0    0  0.42302462708E+03 -0.41540236052E+03  0.74913404147E+03  0.95535897354E+03  0.00000000000E+00 0.  1.
        -15    1    1    2    0    0 -0.54390407476E+03  0.38008577216E+03 -0.33727024460E+02  0.66440525955E+03  0.00000000000E+00 0.  1.
         15    1    4    4    0    0 -0.19582279965E+03  0.15564988197E+03 -0.28834565054E+03  0.38172852763E+03  0.00000000000E+00 0. -1.
         15    1    1    2    0    0 -0.28604130464E+03 -0.51909953588E+03 -0.58334267634E+03  0.83160846205E+03  0.00000000000E+00 0. -1.
        -16    1    4    4    0    0 -0.31101291176E+03  0.18232706815E+03 -0.30182170044E+03  0.47017925296E+03  0.00000000000E+00 0.  1.
         16    1    1    2    0    0  0.90077059633E+03  0.21485582002E+03  0.69155910210E+03  0.11557701685E+04  0.00000000000E+00 0. -1.
    9900018    1    1    2    0    0  0.12985867394E+02  0.15833540890E+01  0.44984500310E+02  0.10251791758E+03  0.91187600000E+02 0.  0.
<mgrwt>
<rscale>  0 0.24208338E+04</rscale>
<asrwt>0</asrwt>
<pdfrwt beam="1">  1        1 0.32947139E+00 0.29318403E+04</pdfrwt>
<pdfrwt beam="2">  1       -1 0.37230839E+00 0.29318403E+04</pdfrwt>
<totfact> 0.21547163E-02</totfact>
</mgrwt>
</event>
<event>
11    1  0.4187089E-016  0.3115399E+04  0.7818608E-02  0.8211525E-01
          2   -1    0    0  501    0  0.00000000000E+00  0.00000000000E+00  0.13669431524E+04  0.13669431524E+04  0.00000000000E+00 0. -1.
         -2   -1    0    0    0  501 -0.00000000000E+00 -0.00000000000E+00 -0.17750754761E+04  0.17750754761E+04  0.00000000000E+00 0.  1.
    9900016    2    1    2    0    0 -0.42510762927E+02 -0.36978983877E+03 -0.65289406258E+03  0.20333937474E+04  0.18894093747E+04 0.  0.
        -24    2    3    3    0    0  0.51607767353E+03 -0.60390473181E+03 -0.93723168872E+03  0.12310967261E+04  0.78478152702E+02 0.  0.
        -15    1    1    2    0    0 -0.73733412744E+02  0.28936437617E+03 -0.16869036304E+03  0.34296471675E+03  0.00000000000E+00 0.  1.
        -15    1    3    3    0    0 -0.55602406954E+03  0.29277675715E+03  0.29329276831E+03  0.69347072280E+03  0.00000000000E+00 0.  1.
         15    1    1    2    0    0  0.27982067959E+03  0.17086566381E+03  0.18115122480E+02  0.32836389183E+03  0.00000000000E+00 0. -1.
         15    1    4    4    0    0  0.38553017662E+03 -0.49395008301E+03 -0.76081856242E+03  0.98562928453E+03  0.00000000000E+00 0. -1.
        -16    1    4    4    0    0  0.13054749691E+03 -0.10995464880E+03 -0.17641312630E+03  0.24546744157E+03  0.00000000000E+00 0.  1.
         16    1    1    2    0    0 -0.16357650392E+03 -0.90440201201E+02  0.39533697942E+03  0.43729627247E+03  0.00000000000E+00 0. -1.
    9900018    1    3    3    0    0 -0.25643669119E+01 -0.58661864109E+02 -0.89551421689E+01  0.10882629849E+03  0.91187600000E+02 0.  0.
<mgrwt>
<rscale>  0 0.31153987E+04</rscale>
<asrwt>0</asrwt>
<pdfrwt beam="1">  1        2 0.21029895E+00 0.31153987E+04</pdfrwt>
<pdfrwt beam="2">  1       -2 0.27308853E+00 0.31153987E+04</pdfrwt>
<totfact> 0.59487191E-01</totfact>
</mgrwt>
</event>
<event>
11    1  0.4187089E-016  0.2833649E+04  0.7818608E-02  0.8486693E-01
         -2   -1    0    0    0  501 -0.00000000000E+00  0.00000000000E+00  0.16894802929E+04  0.16894802929E+04  0.00000000000E+00 0.  1.
          2   -1    0    0  501    0  0.00000000000E+00 -0.00000000000E+00 -0.24238898840E+04  0.24238898840E+04  0.00000000000E+00 0. -1.
    9900016    2    1    2    0    0 -0.78994497275E+02  0.42178751510E+03  0.10223799293E+03  0.18447957522E+04  0.17912771761E+04 0.  0.
        -24    2    3    3    0    0  0.44851033655E+03  0.92937580775E+03 -0.19764485743E+03  0.10536971815E+04  0.79456571210E+02 0.  0.
        -15    1    3    3    0    0 -0.52750483382E+03 -0.50758829265E+03  0.29988285036E+03  0.79109857065E+03  0.00000000000E+00 0.  1.
        -15    1    1    2    0    0 -0.15415716641E+03 -0.65977498717E+03  0.27282075771E+03  0.73040990648E+03  0.00000000000E+00 0.  1.
         15    1    4    4    0    0  0.17987359548E+03  0.40106102431E+03 -0.12222394174E+03  0.45622707888E+03  0.00000000000E+00 0. -1.
         15    1    1    2    0    0 -0.34575629134E+03  0.13044509872E+03 -0.26186384989E+03  0.45291943285E+03  0.00000000000E+00 0. -1.
        -16    1    4    4    0    0  0.26863674106E+03  0.52831478345E+03 -0.75420915685E+02  0.59747010267E+03  0.00000000000E+00 0.  1.
         16    1    1    2    0    0  0.54121720432E+03  0.94675959044E+02 -0.81022489439E+03  0.97895044765E+03  0.00000000000E+00 0. -1.
    9900018    1    1    2    0    0  0.37690750705E+02  0.12866414302E+02 -0.37379597542E+02  0.10629463774E+03  0.91187600000E+02 0.  0.
<mgrwt>
<rscale>  0 0.22778825E+04</rscale>
<asrwt>0</asrwt>
<pdfrwt beam="1">  1        2 0.37290614E+00 0.28336493E+04</pdfrwt>
<pdfrwt beam="2">  1       -2 0.25992004E+00 0.28336493E+04</pdfrwt>
<totfact> 0.17990951E-01</totfact>
</mgrwt>
</event>
<event>
11    1  0.4187089E-016  0.3051450E+04  0.7818608E-02  0.8388159E-01
         -1   -1    0    0    0  501 -0.00000000000E+00  0.00000000000E+00  0.21605253664E+04  0.21605253664E+04  0.00000000000E+00 0.  1.
          1   -1    0    0  501    0  0.00000000000E+00 -0.00000000000E+00 -0.23720700848E+04  0.23720700848E+04  0.00000000000E+00 0. -1.
    9900016    2    1    2    0    0  0.54432527045E+03  0.53059720591E+03 -0.36493678709E+03  0.19941490193E+04  0.18071048828E+04 0.  0.
         24    2    3    3    0    0  0.48240075182E+03 -0.60603298790E+03  0.55624530124E+02  0.78062742285E+03  0.79363827869E+02 0.  0.
        -15    1    1    2    0    0 -0.21371994151E+03  0.13335175905E+03  0.48013545254E+02  0.25644532667E+03  0.00000000000E+00 0.  1.
        -15    1    4    4    0    0  0.57135066317E+01 -0.12820162642E+02 -0.93288857859E+01  0.16853155141E+02  0.00000000000E+00 0.  1.
         15    1    3    3    0    0  0.61924518626E+02  0.11366301938E+04 -0.42056131722E+03  0.12135215964E+04  0.00000000000E+00 0. -1.
         15    1    1    2    0    0  0.38541454208E+03 -0.11391146565E+04 -0.23117123339E+03  0.12245679683E+04  0.00000000000E+00 0. -1.
        -16    1    1    2    0    0 -0.76027664884E+03  0.45259628278E+03  0.35239339939E+03  0.95238914624E+03  0.00000000000E+00 0.  1.
         16    1    4    4    0    0  0.47668724519E+03 -0.59321282525E+03  0.64953415910E+02  0.76377426771E+03  0.00000000000E+00 0. -1.
    9900018    1    1    2    0    0  0.44256777820E+02  0.22569408710E+02 -0.15843642524E+02  0.10504399076E+03  0.91187600000E+02 0.  0.
<mgrwt>
<rscale>  0 0.25420421E+04</rscale>
<asrwt>0</asrwt>
<pdfrwt beam="1">  1        1 0.36493386E+00 0.30514501E+04</pdfrwt>
<pdfrwt beam="2">  1       -1 0.33238852E+00 0.30514501E+04</pdfrwt>
<totfact> 0.27385274E-02</totfact>
</mgrwt>
</event>
<event>
11    1  0.4187089E-016  0.2336024E+04  0.7818608E-02  0.8892341E-01
          2   -1    0    0  501    0  0.00000000000E+00  0.00000000000E+00  0.10626601158E+04  0.10626601158E+04  0.00000000000E+00 0. -1.
         -2   -1    0    0    0  501 -0.00000000000E+00 -0.00000000000E+00 -0.21512604082E+04  0.21512604082E+04  0.00000000000E+00 0.  1.
    9900016    2    1    2    0    0 -0.45019744500E+02 -0.13211881791E+03 -0.66487670649E+03  0.20088356416E+04  0.18904701639E+04 0.  0.
        -24    2    3    3    0    0  0.84931966122E+03 -0.17648157282E+03 -0.27681484948E+03  0.91398727327E+03  0.79098940127E+02 0.  0.
        -15    1    1    2    0    0 -0.46189613137E+02  0.18219904355E+03 -0.70913342559E+03  0.73362128317E+03  0.00000000000E+00 0.  1.
        -15    1    3    3    0    0 -0.92423709703E+03  0.45754179678E+02 -0.37292707716E+03  0.99768845907E+03  0.00000000000E+00 0.  1.
         15    1    4    4    0    0  0.11120319959E+03  0.15597423589E+01 -0.24543867096E+02  0.11389023579E+03  0.00000000000E+00 0. -1.
         15    1    1    2    0    0  0.31889979930E+02 -0.10398346177E+03 -0.54905696054E+02  0.12183663899E+03  0.00000000000E+00 0. -1.
        -16    1    4    4    0    0  0.73811646162E+03 -0.17804131518E+03 -0.25227098238E+03  0.80009703748E+03  0.00000000000E+00 0.  1.
         16    1    1    2    0    0  0.59319377707E+02  0.53903236125E+02  0.34031553571E+03  0.34962696018E+03  0.00000000000E+00 0. -1.
    9900018    1    3    3    0    0  0.29897691316E+02 -0.13914247637E+01 -0.15134779860E+02  0.97159909243E+02  0.91187600000E+02 0.  0.
<mgrwt>
<rscale>  0 0.14881951E+04</rscale>
<asrwt>0</asrwt>
<pdfrwt beam="1">  1        2 0.16348618E+00 0.23360235E+04</pdfrwt>
<pdfrwt beam="2">  1       -2 0.33096313E+00 0.23360235E+04</pdfrwt>
<totfact> 0.41737815E-01</totfact>
</mgrwt>
</event>
<event>
11    1  0.4187089E-016  0.4062076E+04  0.7818608E-02  0.7992140E-01
          2   -1    0    0  501    0  0.00000000000E+00  0.00000000000E+00  0.29502834765E+04  0.29502834765E+04  0.00000000000E+00 0. -1.
         -2   -1    0    0    0  501 -0.00000000000E+00 -0.00000000000E+00 -0.13982099049E+04  0.13982099049E+04  0.00000000000E+00 0.  1.
    9900016    2    1    2    0    0 -0.42060876439E+03  0.94681029674E+02  0.17582642662E+04  0.26189296380E+04  0.18924647920E+04 0.  0.
         24    2    3    3    0    0 -0.58861608656E+03  0.32992690106E+03  0.19110484041E+04  0.20281687800E+04  0.77729918160E+02 0.  0.
        -15    1    4    4    0    0 -0.39077389601E+03  0.25738853704E+03  0.12778711751E+04  0.13608482050E+04  0.00000000000E+00 0.  1.
        -15    1    1    2    0    0 -0.94744953875E+02 -0.35743594860E+03 -0.21498439697E+03  0.42773280746E+03  0.00000000000E+00 0.  1.
         15    1    3    3    0    0  0.20931276617E+03 -0.22586325555E+03 -0.28842505000E+03  0.42191830223E+03  0.00000000000E+00 0. -1.
         15    1    1    2    0    0  0.73295423886E+03  0.54028904981E+03  0.14831271730E+03  0.92256752367E+03  0.00000000000E+00 0. -1.
        -16    1    1    2    0    0 -0.21760052060E+03 -0.27753413088E+03 -0.13951901488E+03  0.37926341226E+03  0.00000000000E+00 0.  1.
         16    1    4    4    0    0 -0.19784219054E+03  0.72538364019E+02  0.63317722894E+03  0.66732057503E+03  0.00000000000E+00 0. -1.
    9900018    1    3    3    0    0 -0.41305443997E+02 -0.93826158374E+01  0.13564091216E+03  0.16884255574E+03  0.91187600000E+02 0.  0.
<mgrwt>
<rscale>  0 0.40620761E+04</rscale>
<asrwt>0</asrwt>
<pdfrwt beam="1">  1        2 0.45388976E+00 0.40620761E+04</pdfrwt>
<pdfrwt beam="2">  1       -2 0.21510922E+00 0.40620761E+04</pdfrwt>
<totfact> 0.15579228E-01</totfact>
</mgrwt>
</event>
<event>
11    1  0.4187089E-016  0.2826985E+04  0.7818608E-02  0.8493431E-01
          2   -1    0    0  501    0  0.00000000000E+00  0.00000000000E+00  0.44944739436E+04  0.44944739436E+04  0.00000000000E+00 0. -1.
         -2   -1    0    0    0  501 -0.00000000000E+00 -0.00000000000E+00 -0.98031092506E+03  0.98031092506E+03  0.00000000000E+00 0.  1.
    9900016    2    1    2    0    0  0.24541197965E+03  0.28428453048E+03  0.99089992234E+03  0.20861118624E+04  0.17969238471E+04 0.  0.
         24    2    3    3    0    0 -0.44571075825E+03 -0.85363685529E+02  0.11911523242E+04  0.12771672000E+04  0.79794475821E+02 0.  0.
        -15    1    1    2    0    0  0.27830472131E+03 -0.40433572185E+03  0.26893446778E+03  0.55970227963E+03  0.00000000000E+00 0.  1.
        -15    1    4    4    0    0 -0.95049528945E+02 -0.37731584659E+02  0.34923762970E+03  0.36390246967E+03  0.00000000000E+00 0.  1.
         15    1    1    2    0    0  0.32631681388E+03 -0.10294149811E+03  0.16168311709E+04  0.16526411136E+04  0.00000000000E+00 0. -1.
         15    1    3    3    0    0  0.69112273790E+03  0.36964821601E+03 -0.20025240188E+03  0.80894466244E+03  0.00000000000E+00 0. -1.
        -16    1    1    2    0    0 -0.85274876778E+03  0.23639104781E+03  0.62480042803E+03  0.10832528621E+04  0.00000000000E+00 0.  1.
         16    1    4    4    0    0 -0.35066122930E+03 -0.47632100870E+02  0.84191469452E+03  0.91326473030E+03  0.00000000000E+00 0. -1.
    9900018    1    1    2    0    0  0.27152529427E+01 -0.13398358339E+02  0.12697029468E+02  0.93076750888E+02  0.91187600000E+02 0.  0.
<mgrwt>
<rscale>  0 0.22610696E+04</rscale>
<asrwt>0</asrwt>
<pdfrwt beam="1">  1        2 0.69145752E+00 0.28269854E+04</pdfrwt>
<pdfrwt beam="2">  1       -2 0.15081707E+00 0.28269854E+04</pdfrwt>
<totfact> 0.30928781E-02</totfact>
</mgrwt>
</event>
<event>
11    1  0.4187089E-016  0.2783102E+04  0.7818608E-02  0.8509865E-01
          2   -1    0    0  501    0  0.00000000000E+00  0.00000000000E+00  0.17285580313E+04  0.17285580313E+04  0.00000000000E+00 0.  1.
         -2   -1    0    0    0  501 -0.00000000000E+00 -0.00000000000E+00 -0.22372979980E+04  0.22372979980E+04  0.00000000000E+00 0. -1.
    9900016    2    1    2    0    0 -0.32115607255E+03 -0.29681320295E+03 -0.73985824757E+03  0.19889976697E+04  0.17937341506E+04 0.  0.
         24    2    3    3    0    0 -0.46513476644E+03 -0.10074872132E+04 -0.35301555028E+03  0.11671493348E+04  0.78973129920E+02 0.  0.
        -15    1    4    4    0    0 -0.29948206709E+03 -0.73236467014E+03 -0.24373772247E+03  0.82792245768E+03  0.00000000000E+00 0.  1.
        -15    1    1    2    0    0 -0.24166949770E+03  0.74929607069E+03  0.26575407444E+03  0.83094763719E+03  0.00000000000E+00 0.  1.
         15    1    3    3    0    0  0.14397869389E+03  0.71067401023E+03 -0.38684269729E+03  0.82184833489E+03  0.00000000000E+00 0. -1.
         15    1    1    2    0    0 -0.11634183419E+03 -0.15779270357E+03 -0.22437743717E+03  0.29795837628E+03  0.00000000000E+00 0. -1.
        -16    1    1    2    0    0  0.64452004655E+03 -0.24247913714E+03  0.23612470943E+03  0.72798152501E+03  0.00000000000E+00 0.  1.
         16    1    4    4    0    0 -0.16565269935E+03 -0.27512254305E+03 -0.10927782781E+03  0.33922687710E+03  0.00000000000E+00 0. -1.
    9900018    1    1    2    0    0  0.34647357893E+02 -0.52211027018E+02 -0.46383065810E+02  0.11997082120E+03  0.91187600000E+02 0.  0.
<mgrwt>
<rscale>  0 0.22206920E+04</rscale>
<asrwt>0</asrwt>
<pdfrwt beam="1">  1        2 0.26593201E+00 0.27831021E+04</pdfrwt>
<pdfrwt beam="2">  1       -2 0.34419969E+00 0.27831021E+04</pdfrwt>
<totfact> 0.13469337E-01</totfact>
</mgrwt>
</event>
<event>
11    1  0.4187089E-016  0.2787395E+04  0.7818608E-02  0.8478158E-01
          2   -1    0    0  501    0  0.00000000000E+00  0.00000000000E+00  0.26707236559E+04  0.26707236559E+04  0.00000000000E+00 0.  1.
         -2   -1    0    0    0  501 -0.00000000000E+00 -0.00000000000E+00 -0.17410428947E+04  0.17410428947E+04  0.00000000000E+00 0. -1.
    9900016    2    1    2    0    0 -0.20488451986E+02 -0.36357970965E+03  0.15058577231E+03  0.18361165246E+04  0.17933314906E+04 0.  0.
         24    2    3    3    0    0  0.38522192538E+03  0.16798540495E+03  0.79772890191E+03  0.90554862731E+03  0.83856349897E+02 0.  0.
        -15    1    4    4    0    0  0.35685854914E+03  0.16717567443E+03  0.77405484963E+03  0.86859463528E+03  0.00000000000E+00 0.  1.
        -15    1    1    2    0    0 -0.16845817631E+03  0.43881858000E+03  0.27138955953E+03  0.54276348103E+03  0.00000000000E+00 0.  1.
         15    1    1    2    0    0  0.48586824922E+03 -0.22211028790E+02 -0.63197156164E+03  0.79746431903E+03  0.00000000000E+00 0. -1.
         15    1    3    3    0    0 -0.40571037737E+03 -0.53156511460E+03 -0.64714312959E+03  0.93056789733E+03  0.00000000000E+00 0. -1.
        -16    1    1    2    0    0 -0.25581938881E+03 -0.23867852372E+02  0.10902323398E+04  0.11200981157E+04  0.00000000000E+00 0.  1.
         16    1    4    4    0    0  0.28363376242E+02  0.80973052104E+00  0.23674052279E+02  0.36953992027E+02  0.00000000000E+00 0. -1.
    9900018    1    1    2    0    0 -0.41102232120E+02 -0.29159989180E+02  0.49444651236E+02  0.11532411016E+03  0.91187600000E+02 0.  0.
<mgrwt>
<rscale>  0 0.22994000E+04</rscale>
<asrwt>0</asrwt>
<pdfrwt beam="1">  1        2 0.41088056E+00 0.27873953E+04</pdfrwt>
<pdfrwt beam="2">  1       -2 0.26785275E+00 0.27873953E+04</pdfrwt>
<totfact> 0.11510226E-01</totfact>
</mgrwt>
</event>
<event>
11    1  0.4187089E-016  0.5361269E+04  0.7818608E-02  0.7775072E-01
          2   -1    0    0  501    0  0.00000000000E+00  0.00000000000E+00  0.26802468827E+04  0.26802468827E+04  0.00000000000E+00 0. -1.
         -2   -1    0    0    0  501 -0.00000000000E+00 -0.00000000000E+00 -0.26810225349E+04  0.26810225349E+04  0.00000000000E+00 0.  1.
    9900016    2    1    2    0    0  0.13491527143E+04 -0.18590804659E+03  0.11877206788E+04  0.26161523970E+04  0.18917711555E+04 0.  0.
         24    2    3    3    0    0  0.17239201717E+04 -0.65797264509E+02  0.10235380219E+04  0.20075391239E+04  0.79707046162E+02 0.  0.
        -15    1    4    4    0    0  0.95730996487E+03 -0.74258417765E+02  0.58323203154E+03  0.11234394884E+04  0.00000000000E+00 0.  1.
        -15    1    1    2    0    0 -0.26953770033E+03 -0.18119540206E+02 -0.29822039638E+03  0.40238575330E+03  0.00000000000E+00 0.  1.
         15    1    3    3    0    0 -0.43476623048E+03 -0.13066488703E+03  0.61034982991E+02  0.45806141184E+03  0.00000000000E+00 0. -1.
         15    1    1    2    0    0  0.42546945975E+03 -0.22387016618E+03  0.99874198038E+02  0.49103662584E+03  0.00000000000E+00 0. -1.
        -16    1    1    2    0    0 -0.15050844738E+04  0.42789775298E+03 -0.99015013268E+03  0.18516946415E+04  0.00000000000E+00 0.  1.
         16    1    4    4    0    0  0.76661020680E+03  0.84611532569E+01  0.44030599041E+03  0.88409963549E+03  0.00000000000E+00 0. -1.
    9900018    1    3    3    0    0  0.59998773135E+02  0.10554104947E+02  0.10314767384E+03  0.15055186124E+03  0.91187600000E+02 0.  0.
<mgrwt>
<rscale>  0 0.53612694E+04</rscale>
<asrwt>0</asrwt>
<pdfrwt beam="1">  1        2 0.41234567E+00 0.53612694E+04</pdfrwt>
<pdfrwt beam="2">  1       -2 0.41246501E+00 0.53612694E+04</pdfrwt>
<totfact> 0.11883753E-02</totfact>
</mgrwt>
</event>
<event>
11    1  0.4187089E-016  0.2718230E+04  0.7818608E-02  0.8612009E-01
          2   -1    0    0  501    0  0.00000000000E+00  0.00000000000E+00  0.21913079359E+04  0.21913079359E+04  0.00000000000E+00 0. -1.
         -2   -1    0    0    0  501 -0.00000000000E+00 -0.00000000000E+00 -0.13953335095E+04  0.13953335095E+04  0.00000000000E+00 0.  1.
    9900016    2    1    2    0    0 -0.32837120895E+03  0.31874492066E+03  0.42748901774E+03  0.19991143016E+04  0.18984954978E+04 0.  0.
         24    2    3    3    0    0 -0.96624020512E+03  0.38166928447E+03  0.55528762821E+03  0.11806424327E+04  0.79250408436E+02 0.  0.
        -15    1    4    4    0    0 -0.28541820574E+03  0.10353924768E+03  0.12319301412E+03  0.32765904032E+03  0.00000000000E+00 0.  1.
        -15    1    1    2    0    0 -0.11402736981E+03  0.11189277407E+03 -0.15907063175E+03  0.22544555849E+03  0.00000000000E+00 0.  1.
         15    1    1    2    0    0 -0.31791073182E+03 -0.35244755751E+03  0.31179157244E+03  0.56789127379E+03  0.00000000000E+00 0. -1.
         15    1    3    3    0    0  0.69649542706E+03 -0.62716685194E+02 -0.98849009094E+02  0.70626509833E+03  0.00000000000E+00 0. -1.
        -16    1    1    2    0    0  0.76030931058E+03 -0.78190137222E+02  0.21576446804E+03  0.79419031157E+03  0.00000000000E+00 0.  1.
         16    1    4    4    0    0 -0.68082199938E+03  0.27813003679E+03  0.43209461410E+03  0.85298339241E+03  0.00000000000E+00 0. -1.
    9900018    1    3    3    0    0 -0.58626430897E+02 -0.20767861363E+00 -0.28949601383E+02  0.11220677049E+03  0.91187600000E+02 0.  0.
<mgrwt>
<rscale>  0 0.19885160E+04</rscale>
<asrwt>0</asrwt>
<pdfrwt beam="1">  1        2 0.33712430E+00 0.27182302E+04</pdfrwt>
<pdfrwt beam="2">  1       -2 0.21466669E+00 0.27182302E+04</pdfrwt>
<totfact> 0.47681214E-01</totfact>
</mgrwt>
</event>
<event>
11    1  0.4187089E-016  0.6160287E+04  0.7818608E-02  0.7670840E-01
         -2   -1    0    0    0  501 -0.00000000000E+00  0.00000000000E+00  0.34200595252E+04  0.34200595252E+04  0.00000000000E+00 0.  1.
          2   -1    0    0  501    0  0.00000000000E+00 -0.00000000000E+00 -0.27740110117E+04  0.27740110117E+04  0.00000000000E+00 0. -1.
    9900016    2    1    2    0    0  0.97459172371E+03  0.62276572301E+03 -0.69147680093E+03  0.23232849950E+04  0.18925767694E+04 0.  0.
        -24    2    3    3    0    0  0.11153549605E+04 -0.31165345180E+03 -0.28552316010E+03  0.11958821478E+04  0.86406449943E+02 0.  0.
        -15    1    3    3    0    0 -0.16119690599E+03  0.94060746625E+03 -0.39600748110E+03  0.10332225187E+04  0.00000000000E+00 0.  1.
        -15    1    1    2    0    0 -0.10034790263E+03 -0.29336582323E+03  0.18200466545E+04  0.18462673242E+04  0.00000000000E+00 0.  1.
         15    1    4    4    0    0  0.50572601988E+03 -0.12169793251E+03 -0.16799617526E+03  0.54661861372E+03  0.00000000000E+00 0. -1.
         15    1    1    2    0    0 -0.55028162174E+03 -0.10443637490E+04 -0.26200537370E+03  0.12091949054E+04  0.00000000000E+00 0. -1.
        -16    1    4    4    0    0  0.60962894064E+03 -0.18995551929E+03 -0.11752698484E+03  0.64926353412E+03  0.00000000000E+00 0.  1.
         16    1    1    2    0    0 -0.32396219934E+03  0.71496384918E+03 -0.22051596639E+03  0.81532331236E+03  0.00000000000E+00 0. -1.
    9900018    1    3    3    0    0  0.20433669183E+02 -0.61882914405E+01 -0.99461597298E+01  0.94180328489E+02  0.91187600000E+02 0.  0.
<mgrwt>
<rscale>  0 0.61602866E+04</rscale>
<asrwt>0</asrwt>
<pdfrwt beam="1">  1        2 0.42677093E+00 0.61602866E+04</pdfrwt>
<pdfrwt beam="2">  1       -2 0.52616300E+00 0.61602866E+04</pdfrwt>
<totfact> 0.18640856E-03</totfact>
</mgrwt>
</event>
<event>
11    1  0.4187089E-016  0.2963757E+04  0.7818608E-02  0.8515284E-01
         -1   -1    0    0    0  501 -0.00000000000E+00  0.00000000000E+00  0.18704968554E+04  0.18704968554E+04  0.00000000000E+00 0.  1.
          1   -1    0    0  501    0  0.00000000000E+00 -0.00000000000E+00 -0.22892422906E+04  0.22892422906E+04  0.00000000000E+00 0. -1.
    9900016    2    1    2    0    0 -0.37064780515E+02  0.62199898337E+03 -0.22682714347E+03  0.19178468785E+04  0.17995637147E+04 0.  0.
        -24    2    3    3    0    0 -0.19816119736E+03  0.36942807548E+03  0.76825099406E+03  0.87865266242E+03  0.77948368964E+02 0.  0.
        -15    1    3    3    0    0  0.16109641684E+03  0.25257090789E+03 -0.99507813753E+03  0.10391942161E+04  0.00000000000E+00 0.  1.
        -15    1    1    2    0    0 -0.47066759599E+03 -0.14341706516E+03  0.51548450032E+03  0.71261540157E+03  0.00000000000E+00 0.  1.
         15    1    4    4    0    0 -0.34938524579E+02  0.97185932360E+02  0.13184983042E+03  0.16748189075E+03  0.00000000000E+00 0. -1.
         15    1    1    2    0    0  0.29354006170E+03 -0.79709724687E+03 -0.65547079701E+03  0.10729267237E+04  0.00000000000E+00 0. -1.
        -16    1    4    4    0    0 -0.16322267278E+03  0.27224214312E+03  0.63640116364E+03  0.71117077168E+03  0.00000000000E+00 0.  1.
         16    1    1    2    0    0  0.20171233431E+03  0.27109626456E+03  0.55023500476E+01  0.33795166271E+03  0.00000000000E+00 0. -1.
    9900018    1    1    2    0    0  0.12479980489E+02  0.47419064099E+02 -0.57434344999E+02  0.11839847943E+03  0.91187600000E+02 0.  0.
<mgrwt>
<rscale>  0 0.22075703E+04</rscale>
<asrwt>0</asrwt>
<pdfrwt beam="1">  1        1 0.35219112E+00 0.29637568E+04</pdfrwt>
<pdfrwt beam="2">  1       -1 0.28776875E+00 0.29637568E+04</pdfrwt>
<totfact> 0.61868930E-02</totfact>
</mgrwt>
</event>
<event>
11    1  0.4187089E-016  0.4313273E+04  0.7818608E-02  0.7944168E-01
          1   -1    0    0  501    0  0.00000000000E+00  0.00000000000E+00  0.93845150380E+03  0.93845150380E+03  0.00000000000E+00 0. -1.
         -1   -1    0    0    0  501 -0.00000000000E+00 -0.00000000000E+00 -0.49561223403E+04  0.49561223403E+04  0.00000000000E+00 0.  1.
    9900016    2    1    2    0    0  0.89395007713E+03  0.18091180211E+03 -0.17487660747E+04  0.27371414937E+04  0.18978632596E+04 0.  0.
         24    2    3    3    0    0  0.53512391100E+02  0.16074985387E+03  0.36549864786E+03  0.41058323218E+03  0.79279489390E+02 0.  0.
        -15    1    4    4    0    0  0.37417109217E+02  0.60571797863E+02  0.23338875210E+03  0.24400674656E+03  0.00000000000E+00 0.  1.
        -15    1    1    2    0    0 -0.99275433833E+02 -0.47513735754E+01 -0.37693138897E+03  0.38981464737E+03  0.00000000000E+00 0.  1.
         15    1    3    3    0    0  0.84943961213E+03  0.41329295279E+02 -0.20273562572E+04  0.21985061198E+04  0.00000000000E+00 0. -1.
         15    1    1    2    0    0  0.36068704590E+03  0.59034802937E+02  0.16161328098E+03  0.39962370504E+03  0.00000000000E+00 0. -1.
        -16    1    1    2    0    0 -0.11553616892E+04 -0.23519523147E+03 -0.20535866538E+04  0.23679939980E+04  0.00000000000E+00 0.  1.
         16    1    4    4    0    0  0.16095281884E+02  0.10017805600E+03  0.13210989576E+03  0.16657648562E+03  0.00000000000E+00 0. -1.
    9900018    1    3    3    0    0 -0.90019260971E+01 -0.21167347034E+02 -0.86908465380E+02  0.12805214173E+03  0.91187600000E+02 0.  0.
<mgrwt>
<rscale>  0 0.43132728E+04</rscale>
<asrwt>0</asrwt>
<pdfrwt beam="1">  1        1 0.14437716E+00 0.43132728E+04</pdfrwt>
<pdfrwt beam="2">  1       -1 0.76248034E+00 0.43132728E+04</pdfrwt>
<totfact> 0.14439902E-03</totfact>
</mgrwt>
</event>
<event>
11    1  0.4187089E-016  0.4478229E+04  0.7818608E-02  0.7914459E-01
         -1   -1    0    0    0  501 -0.00000000000E+00  0.00000000000E+00  0.20751805707E+04  0.20751805707E+04  0.00000000000E+00 0.  1.
          1   -1    0    0  501    0  0.00000000000E+00 -0.00000000000E+00 -0.24159985683E+04  0.24159985683E+04  0.00000000000E+00 0. -1.
    9900016    2    1    2    0    0 -0.12665127776E+03  0.99489292207E+02  0.68887892033E+03  0.19391844520E+04  0.18055313641E+04 0.  0.
        -24    2    3    3    0    0 -0.95036208519E+03  0.22271308033E+03  0.39275145076E+03  0.10552302256E+04  0.80423365481E+02 0.  0.
        -15    1    3    3    0    0  0.82371080743E+03 -0.12322378812E+03  0.29612746957E+03  0.88395422646E+03  0.00000000000E+00 0.  1.
        -15    1    1    2    0    0  0.79916713046E+02 -0.57237319826E+03  0.34179419800E+03  0.67143207616E+03  0.00000000000E+00 0.  1.
         15    1    1    2    0    0 -0.29899282506E+03  0.45300709017E+03 -0.37400670501E+03  0.65916094285E+03  0.00000000000E+00 0. -1.
         15    1    4    4    0    0 -0.50158302566E+03  0.85084793297E+02  0.17752096472E+03  0.53883081445E+03  0.00000000000E+00 0. -1.
        -16    1    4    4    0    0 -0.44877905953E+03  0.13762828703E+03  0.21523048604E+03  0.51639941110E+03  0.00000000000E+00 0.  1.
         16    1    1    2    0    0  0.33755715568E+03  0.25194710847E+02 -0.10584634084E+04  0.11112715211E+04  0.00000000000E+00 0. -1.
    9900018    1    1    2    0    0  0.81702340901E+01 -0.53178949675E+01  0.60978997431E+02  0.11013014689E+03  0.91187600000E+02 0.  0.
<mgrwt>
<rscale>  0 0.44782288E+04</rscale>
<asrwt>0</asrwt>
<pdfrwt beam="1">  1        1 0.37169209E+00 0.44782288E+04</pdfrwt>
<pdfrwt beam="2">  1       -1 0.31925855E+00 0.44782288E+04</pdfrwt>
<totfact> 0.28856771E-02</totfact>
</mgrwt>
</event>
<event>
11    1  0.4187089E-016  0.2852248E+04  0.7818608E-02  0.8459099E-01
         -2   -1    0    0    0  501 -0.00000000000E+00  0.00000000000E+00  0.26079049523E+04  0.26079049523E+04  0.00000000000E+00 0. -1.
          2   -1    0    0  501    0  0.00000000000E+00 -0.00000000000E+00 -0.26174943683E+04  0.26174943683E+04  0.00000000000E+00 0.  1.
    9900016    2    1    2    0    0 -0.66224312920E+03 -0.43110906180E+03 -0.44674123979E+03  0.21032390813E+04  0.18972653775E+04 0.  0.
         24    2    3    3    0    0  0.58229590538E+03 -0.28308666326E+03 -0.42751058438E+03  0.77997029398E+03  0.79886040097E+02 0.  0.
        -15    1    4    4    0    0  0.52604194255E+03 -0.27225555088E+03 -0.36780239750E+03  0.69722436412E+03  0.00000000000E+00 0.  1.
        -15    1    1    2    0    0 -0.21115761493E+03  0.17492875989E+03  0.42199144706E+03  0.50325380353E+03  0.00000000000E+00 0.  1.
         15    1    3    3    0    0 -0.11777740235E+04 -0.16093198265E+03  0.50597645172E+02  0.11897944676E+04  0.00000000000E+00 0. -1.
         15    1    1    2    0    0  0.82572070263E+03  0.61049329911E+03  0.10832154782E+04  0.14926059491E+04  0.00000000000E+00 0. -1.
        -16    1    1    2    0    0  0.47680041496E+02 -0.35431299720E+03 -0.10680551015E+04  0.11263004866E+04  0.00000000000E+00 0.  1.
         16    1    4    4    0    0  0.56253962824E+02 -0.10831112375E+02 -0.59708186876E+02  0.82745929862E+02  0.00000000000E+00 0. -1.
    9900018    1    3    3    0    0 -0.66765011064E+02  0.12909584109E+02 -0.69828300583E+02  0.13347431970E+03  0.91187600000E+02 0.  0.
<mgrwt>
<rscale>  0 0.23483471E+04</rscale>
<asrwt>0</asrwt>
<pdfrwt beam="1">  1        2 0.40269144E+00 0.28522479E+04</pdfrwt>
<pdfrwt beam="2">  1       -2 0.40121615E+00 0.28522479E+04</pdfrwt>
<totfact> 0.17638533E-02</totfact>
</mgrwt>
</event>
<event>
11    1  0.4187089E-016  0.3440166E+04  0.7818608E-02  0.8257938E-01
         -1   -1    0    0    0  501 -0.00000000000E+00  0.00000000000E+00  0.22219801892E+04  0.22219801892E+04  0.00000000000E+00 0.  1.
          1   -1    0    0  501    0  0.00000000000E+00 -0.00000000000E+00 -0.32681210762E+04  0.32681210762E+04  0.00000000000E+00 0. -1.
    9900016    2    1    2    0    0  0.81263993652E+03 -0.10350484134E+04  0.39257835069E+03  0.22649694019E+04  0.18011828740E+04 0.  0.
         24    2    3    3    0    0  0.69896581878E+03 -0.13812444823E+04  0.77821995366E+03  0.17344102920E+04  0.78506236289E+02 0.  0.
        -15    1    1    2    0    0 -0.17813439845E+02  0.22066156657E+03 -0.66390481194E+03  0.69984172848E+03  0.00000000000E+00 0.  1.
        -15    1    4    4    0    0  0.27195969815E+03 -0.50455305621E+03  0.32734299913E+03  0.66006765035E+03  0.00000000000E+00 0.  1.
         15    1    3    3    0    0  0.11367411774E+03  0.34619606888E+03 -0.38564160297E+03  0.53055910989E+03  0.00000000000E+00 0. -1.
         15    1    1    2    0    0 -0.13285135413E+04  0.97980281672E+02 -0.17901806557E+03  0.13440966605E+04  0.00000000000E+00 0. -1.
        -16    1    1    2    0    0  0.51989906665E+03  0.72511245424E+03 -0.61871336431E+03  0.10857667051E+04  0.00000000000E+00 0.  1.
         16    1    4    4    0    0  0.42700612063E+03 -0.87669142605E+03  0.45087695452E+03  0.10743426417E+04  0.00000000000E+00 0. -1.
    9900018    1    1    2    0    0  0.13787977923E+02 -0.87058891010E+01  0.22917004112E+02  0.95426769365E+02  0.91187600000E+02 0.  0.
<mgrwt>
<rscale>  0 0.29507428E+04</rscale>
<asrwt>0</asrwt>
<pdfrwt beam="1">  1        1 0.50278786E+00 0.34401658E+04</pdfrwt>
<pdfrwt beam="2">  1       -1 0.34184311E+00 0.34401658E+04</pdfrwt>
<totfact> 0.51544863E-03</totfact>
</mgrwt>
</event>
<event>
11    1  0.4187089E-016  0.3625332E+04  0.7818608E-02  0.8084714E-01
         -1   -1    0    0    0  501 -0.00000000000E+00  0.00000000000E+00  0.19377596292E+04  0.19377596292E+04  0.00000000000E+00 0.  1.
          1   -1    0    0  501    0  0.00000000000E+00 -0.00000000000E+00 -0.16956482791E+04  0.16956482791E+04  0.00000000000E+00 0. -1.
    9900016    2    1    2    0    0  0.25788429477E+03 -0.73519305364E+03 -0.72085811890E+03  0.21732112882E+04  0.18963643479E+04 0.  0.
         24    2    3    3    0    0 -0.64141139017E+03 -0.20146848389E+03 -0.78584289586E+03  0.10373285470E+04  0.80643263748E+02 0.  0.
        -15    1    4    4    0    0 -0.37040000258E+03 -0.75154003117E+02 -0.42693025572E+03  0.57018745106E+03  0.00000000000E+00 0.  1.
        -15    1    1    2    0    0 -0.16266424252E+03  0.28644514677E+03  0.29929921507E+03  0.44507358722E+03  0.00000000000E+00 0.  1.
         15    1    1    2    0    0 -0.26725338373E+02  0.59149547679E+03  0.42551247042E+03  0.72913785065E+03  0.00000000000E+00 0. -1.
         15    1    3    3    0    0  0.90025262973E+03 -0.52563357899E+03  0.59417816483E+02  0.10441627908E+04  0.00000000000E+00 0. -1.
        -16    1    1    2    0    0 -0.68494713873E+02 -0.14274756992E+03  0.23815778350E+03  0.28598518211E+03  0.00000000000E+00 0.  1.
         16    1    4    4    0    0 -0.27101138759E+03 -0.12631448078E+03 -0.35891264014E+03  0.46714109593E+03  0.00000000000E+00 0. -1.
    9900018    1    3    3    0    0 -0.95694479408E+00 -0.80909907549E+01  0.55669604715E+01  0.91719950487E+02  0.91187600000E+02 0.  0.
<mgrwt>
<rscale>  0 0.36253324E+04</rscale>
<asrwt>0</asrwt>
<pdfrwt beam="1">  1        1 0.26086897E+00 0.36253324E+04</pdfrwt>
<pdfrwt beam="2">  1       -1 0.29811687E+00 0.36253324E+04</pdfrwt>
<totfact> 0.13158151E-01</totfact>
</mgrwt>
</event>
<event>
11    1  0.4187089E-016  0.2805938E+04  0.7818608E-02  0.8591546E-01
         -1   -1    0    0    0  501 -0.00000000000E+00  0.00000000000E+00  0.87749679184E+03  0.87749679184E+03  0.00000000000E+00 0.  1.
          1   -1    0    0  501    0  0.00000000000E+00 -0.00000000000E+00 -0.46120769556E+04  0.46120769556E+04  0.00000000000E+00 0. -1.
    9900016    2    1    2    0    0  0.36982857808E+03 -0.19171470598E+03 -0.74258319280E+03  0.19777418299E+04  0.17850784974E+04 0.  0.
        -24    2    3    3    0    0  0.46354911679E+03  0.20098254564E+03 -0.12376138924E+04  0.13389538648E+04  0.76403783899E+02 0.  0.
        -15    1    3    3    0    0 -0.93720538712E+02 -0.39269725162E+03  0.49503069957E+03  0.63878796507E+03  0.00000000000E+00 0.  1.
        -15    1    1    2    0    0  0.31443028854E+03  0.34481730531E+03 -0.10727616256E+04  0.11698644733E+04  0.00000000000E+00 0.  1.
         15    1    4    4    0    0  0.19378731731E+03  0.45028538256E+02 -0.50963088401E+03  0.54708749898E+03  0.00000000000E+00 0. -1.
         15    1    1    2    0    0 -0.72215341337E+03  0.16314367654E+03 -0.83564800337E+03  0.11164358455E+04  0.00000000000E+00 0. -1.
        -16    1    4    4    0    0  0.26976179948E+03  0.15595400739E+03 -0.72798300837E+03  0.79186636584E+03  0.00000000000E+00 0.  1.
         16    1    1    2    0    0 -0.63863160003E+02 -0.28324987885E+03 -0.10378661019E+04  0.10777175152E+04  0.00000000000E+00 0. -1.
    9900018    1    1    2    0    0  0.10175770676E+03 -0.32996397021E+02 -0.45721240007E+02  0.14781408351E+03  0.91187600000E+02 0.  0.
<mgrwt>
<rscale>  0 0.20325633E+04</rscale>
<asrwt>0</asrwt>
<pdfrwt beam="1">  1        1 0.70955031E+00 0.28059382E+04</pdfrwt>
<pdfrwt beam="2">  1       -1 0.13499950E+00 0.28059382E+04</pdfrwt>
<totfact> 0.95287733E-03</totfact>
</mgrwt>
</event>
<event>
11    1  0.4187089E-016  0.3674040E+04  0.7818608E-02  0.8147046E-01
         -2   -1    0    0    0  501 -0.00000000000E+00  0.00000000000E+00  0.37640706637E+04  0.37640706637E+04  0.00000000000E+00 0.  1.
          2   -1    0    0  501    0  0.00000000000E+00 -0.00000000000E+00 -0.33069669601E+04  0.33069669601E+04  0.00000000000E+00 0. -1.
    9900016    2    1    2    0    0 -0.32778741994E+03  0.10924433694E+04  0.78423894163E+03  0.23463574755E+04  0.18945937763E+04 0.  0.
         24    2    3    3    0    0 -0.59143083416E+03  0.15688406961E+03 -0.40982180330E+03  0.74050612576E+03  0.77410392961E+02 0.  0.
        -15    1    1    2    0    0 -0.85285520262E+03 -0.11159607651E+02 -0.23219128545E+03  0.88396794428E+03  0.00000000000E+00 0.  1.
        -15    1    4    4    0    0 -0.15084559695E+03  0.11793485242E+02 -0.12428193531E+03  0.19580469825E+03  0.00000000000E+00 0.  1.
         15    1    3    3    0    0  0.26434020078E+03  0.93032339152E+03  0.11551492512E+04  0.15065680028E+04  0.00000000000E+00 0. -1.
         15    1    1    2    0    0  0.16666331837E+04  0.23598363231E+03 -0.11889043271E+04  0.20607881848E+04  0.00000000000E+00 0. -1.
        -16    1    1    2    0    0 -0.48599056112E+03 -0.13172673941E+04  0.10939603746E+04  0.17799240192E+04  0.00000000000E+00 0.  1.
         16    1    4    4    0    0 -0.44058523721E+03  0.14509058437E+03 -0.28553986799E+03  0.54470142751E+03  0.00000000000E+00 0. -1.
    9900018    1    3    3    0    0 -0.69678655692E+00  0.52359083048E+01  0.38911493768E+02  0.99283346984E+02  0.91187600000E+02 0.  0.
<mgrwt>
<rscale>  0 0.33630050E+04</rscale>
<asrwt>0</asrwt>
<pdfrwt beam="1">  1        2 0.50876415E+00 0.36740395E+04</pdfrwt>
<pdfrwt beam="2">  1       -2 0.57908780E+00 0.36740395E+04</pdfrwt>
<totfact> 0.50526568E-04</totfact>
</mgrwt>
</event>
<event>
11    1  0.4187089E-016  0.3713616E+04  0.7818608E-02  0.8238643E-01
          2   -1    0    0  501    0  0.00000000000E+00  0.00000000000E+00  0.33479670892E+04  0.33479670892E+04  0.00000000000E+00 0. -1.
         -2   -1    0    0    0  501 -0.00000000000E+00 -0.00000000000E+00 -0.22228656749E+04  0.22228656749E+04  0.00000000000E+00 0.  1.
    9900016    2    1    2    0    0 -0.37726748702E+03  0.14248542422E+03  0.11285313005E+04  0.22388741127E+04  0.18911217685E+04 0.  0.
        -24    2    3    3    0    0 -0.62212599515E+03  0.83197192727E+03  0.78298583811E+03  0.13032645834E+04  0.78827089098E+02 0.  0.
        -15    1    3    3    0    0  0.24677810746E+03 -0.72083131731E+03  0.25533152365E+03  0.80354925755E+03  0.00000000000E+00 0.  1.
        -15    1    1    2    0    0  0.14094098879E+03  0.37268482801E+03 -0.30586525948E+03  0.50230658000E+03  0.00000000000E+00 0.  1.
         15    1    4    4    0    0 -0.16853368153E+03  0.25902089940E+03  0.27069900954E+03  0.41082037669E+03  0.00000000000E+00 0. -1.
         15    1    1    2    0    0 -0.20570078956E+03  0.57804834646E+03  0.11999710340E+04  0.13477326100E+04  0.00000000000E+00 0. -1.
        -16    1    4    4    0    0 -0.45359231362E+03  0.57295102786E+03  0.51228682857E+03  0.89244420668E+03  0.00000000000E+00 0.  1.
         16    1    1    2    0    0  0.44202728779E+03 -0.10932185987E+04 -0.89753566072E+03  0.14819194614E+04  0.00000000000E+00 0. -1.
    9900018    1    3    3    0    0 -0.19195993267E+01  0.31344814259E+02  0.90213938770E+02  0.13206027179E+03  0.91187600000E+02 0.  0.
<mgrwt>
<rscale>  0 0.30178810E+04</rscale>
<asrwt>0</asrwt>
<pdfrwt beam="1">  1        2 0.51507186E+00 0.37136163E+04</pdfrwt>
<pdfrwt beam="2">  1       -2 0.34197933E+00 0.37136163E+04</pdfrwt>
<totfact> 0.13812683E-02</totfact>
</mgrwt>
</event>
<event>
11    1  0.4187089E-016  0.3437855E+04  0.7818608E-02  0.8498922E-01
         -1   -1    0    0    0  501 -0.00000000000E+00  0.00000000000E+00  0.20884191339E+04  0.20884191339E+04  0.00000000000E+00 0. -1.
          1   -1    0    0  501    0  0.00000000000E+00 -0.00000000000E+00 -0.19878181355E+04  0.19878181355E+04  0.00000000000E+00 0.  1.
    9900016    2    1    2    0    0 -0.51964723982E+03  0.72799904145E+03  0.62062513775E+03  0.20960982972E+04  0.17912109456E+04 0.  0.
         24    2    3    3    0    0  0.60679208136E+03  0.52020542005E+03  0.49481986360E+03  0.94376557599E+03  0.83883585766E+02 0.  0.
        -15    1    4    4    0    0  0.40786206403E+03  0.30667207997E+03  0.28667256185E+03  0.58530366958E+03  0.00000000000E+00 0.  1.
        -15    1    1    2    0    0  0.56264767537E+03 -0.85839905938E+03 -0.65256553196E+03  0.12162496147E+04  0.00000000000E+00 0.  1.
         15    1    1    2    0    0  0.23164454538E+02  0.28761453493E+03  0.27859544131E+03  0.40109117739E+03  0.00000000000E+00 0. -1.
         15    1    3    3    0    0 -0.11264393212E+04  0.20779362139E+03  0.12580527415E+03  0.11523327212E+04  0.00000000000E+00 0. -1.
        -16    1    1    2    0    0  0.17174209106E+02 -0.17080276324E+03 -0.16378162143E+03  0.23726136834E+03  0.00000000000E+00 0.  1.
         16    1    4    4    0    0  0.19893001733E+03  0.21353334008E+03  0.20814730175E+03  0.35846190641E+03  0.00000000000E+00 0. -1.
    9900018    1    1    2    0    0 -0.83339099190E+02  0.13588246235E+02  0.17727572724E+02  0.12553681180E+03  0.91187600000E+02 0.  0.
<mgrwt>
<rscale>  0 0.22474794E+04</rscale>
<asrwt>0</asrwt>
<pdfrwt beam="1">  1        1 0.30581818E+00 0.34378553E+04</pdfrwt>
<pdfrwt beam="2">  1       -1 0.32129525E+00 0.34378553E+04</pdfrwt>
<totfact> 0.58541008E-02</totfact>
</mgrwt>
</event>
<event>
11    1  0.4187089E-016  0.5650125E+04  0.7818608E-02  0.7735363E-01
         -2   -1    0    0    0  501 -0.00000000000E+00  0.00000000000E+00  0.36809348221E+04  0.36809348221E+04  0.00000000000E+00 0.  1.
          2   -1    0    0  501    0  0.00000000000E+00 -0.00000000000E+00 -0.21681929581E+04  0.21681929581E+04  0.00000000000E+00 0. -1.
    9900016    2    1    2    0    0 -0.14667657913E+03 -0.77214776362E+03  0.84959618302E+03  0.21394688629E+04  0.17993852154E+04 0.  0.
         24    2    3    3    0    0 -0.53673700523E+03 -0.11848029782E+04  0.27536284730E+03  0.13318950978E+04  0.79215806195E+02 0.  0.
        -15    1    4    4    0    0 -0.35292663396E+03 -0.86501559531E+03  0.20126771578E+03  0.95567666211E+03  0.00000000000E+00 0.  1.
        -15    1    1    2    0    0 -0.10438286238E+02  0.41618520878E+03  0.10780025882E+04  0.11555988344E+04  0.00000000000E+00 0.  1.
         15    1    1    2    0    0 -0.15940390541E+02  0.73351510265E+03 -0.13139743549E+04  0.15049342534E+04  0.00000000000E+00 0. -1.
         15    1    3    3    0    0  0.39006042610E+03  0.41265521460E+03  0.57423333573E+03  0.80757376506E+03  0.00000000000E+00 0. -1.
        -16    1    1    2    0    0  0.14313145926E+03 -0.32223393998E+03  0.86358715864E+03  0.93279371099E+03  0.00000000000E+00 0.  1.
         16    1    4    4    0    0 -0.18381037127E+03 -0.31978738290E+03  0.74095131515E+02  0.37621843571E+03  0.00000000000E+00 0. -1.
    9900018    1    1    2    0    0  0.29923796646E+02 -0.55318607831E+02  0.35530288957E+02  0.11633211855E+03  0.91187600000E+02 0.  0.
<mgrwt>
<rscale>  0 0.56501246E+04</rscale>
<asrwt>0</asrwt>
<pdfrwt beam="1">  1        2 0.33356815E+00 0.56501246E+04</pdfrwt>
<pdfrwt beam="2">  1       -2 0.56629766E+00 0.56501246E+04</pdfrwt>
<totfact> 0.26840931E-03</totfact>
</mgrwt>
</event>
<event>
11    1  0.4187089E-016  0.4657368E+04  0.7818608E-02  0.7883651E-01
         -2   -1    0    0    0  501 -0.00000000000E+00  0.00000000000E+00  0.15804157181E+04  0.15804157181E+04  0.00000000000E+00 0. -1.
          2   -1    0    0  501    0  0.00000000000E+00 -0.00000000000E+00 -0.34312290141E+04  0.34312290141E+04  0.00000000000E+00 0.  1.
    9900016    2    1    2    0    0  0.64605869526E+03  0.34371974506E+03 -0.53205314054E+03  0.20063194945E+04  0.17907267432E+04 0.  0.
        -24    2    3    3    0    0  0.58179566986E+03  0.44739430670E+03 -0.11555290103E+04  0.13710240425E+04  0.76234928079E+02 0.  0.
        -15    1    1    2    0    0 -0.36769063624E+03 -0.57563205662E+03 -0.19561194811E+04  0.20719440372E+04  0.00000000000E+00 0.  1.
        -15    1    3    3    0    0  0.64263025400E+02 -0.10367456164E+03  0.62347586978E+03  0.63529545202E+03  0.00000000000E+00 0.  1.
         15    1    4    4    0    0  0.36382957462E+03  0.32475043658E+03 -0.77393660086E+03  0.91477465399E+03  0.00000000000E+00 0. -1.
         15    1    1    2    0    0 -0.14605228133E+03  0.20662622236E+03  0.43751557790E+03  0.50541621022E+03  0.00000000000E+00 0. -1.
        -16    1    4    4    0    0  0.21796609524E+03  0.12264387013E+03 -0.38159240946E+03  0.45624938850E+03  0.00000000000E+00 0.  1.
         16    1    1    2    0    0 -0.16215806981E+03 -0.67551374326E+02  0.23164665286E+03  0.29072082753E+03  0.00000000000E+00 0. -1.
    9900018    1    1    2    0    0  0.29842292117E+02  0.92837463517E+02 -0.31802905058E+02  0.13724416270E+03  0.91187600000E+02 0.  0.
<mgrwt>
<rscale>  0 0.46573676E+04</rscale>
<asrwt>0</asrwt>
<pdfrwt beam="1">  1        2 0.52788139E+00 0.46573676E+04</pdfrwt>
<pdfrwt beam="2">  1       -2 0.24314088E+00 0.46573676E+04</pdfrwt>
<totfact> 0.48011456E-02</totfact>
</mgrwt>
</event>
<event>
11    1  0.4187089E-016  0.2577222E+04  0.7818608E-02  0.8469170E-01
         -2   -1    0    0    0  501 -0.00000000000E+00  0.00000000000E+00  0.15614423105E+04  0.15614423105E+04  0.00000000000E+00 0.  1.
          2   -1    0    0  501    0  0.00000000000E+00 -0.00000000000E+00 -0.29355539066E+04  0.29355539066E+04  0.00000000000E+00 0. -1.
    9900016    2    1    2    0    0  0.79085442734E+02 -0.58372138036E+00 -0.67971538720E+03  0.19286401144E+04  0.18031596810E+04 0.  0.
        -24    2    3    3    0    0  0.66033707005E+03 -0.64078502173E+03 -0.48122394985E+03  0.10414479087E+04  0.79917247208E+02 0.  0.
        -15    1    1    2    0    0  0.92661673687E+03 -0.32599344396E+03  0.27976009021E+02  0.98268660296E+03  0.00000000000E+00 0.  1.
        -15    1    3    3    0    0 -0.58125162732E+03  0.64020130035E+03 -0.19849143735E+03  0.88719220574E+03  0.00000000000E+00 0.  1.
         15    1    1    2    0    0 -0.47925538516E+03 -0.65912820445E+02 -0.68605999568E+03  0.83946920240E+03  0.00000000000E+00 0. -1.
         15    1    4    4    0    0  0.10010778163E+03 -0.65340932153E+02 -0.46911907850E+02  0.12842014038E+03  0.00000000000E+00 0. -1.
        -16    1    4    4    0    0  0.56022928842E+03 -0.57544408958E+03 -0.43431204200E+03  0.91302776828E+03  0.00000000000E+00 0.  1.
         16    1    1    2    0    0 -0.51006044519E+03  0.40515504942E+03 -0.39982080902E+02  0.65261844795E+03  0.00000000000E+00 0. -1.
    9900018    1    1    2    0    0 -0.16386349253E+02 -0.12665063635E+02  0.36698587268E+01  0.93581849392E+02  0.91187600000E+02 0.  0.
<mgrwt>
<rscale>  0 0.23223256E+04</rscale>
<asrwt>0</asrwt>
<pdfrwt beam="1">  1        2 0.45162368E+00 0.25772225E+04</pdfrwt>
<pdfrwt beam="2">  1       -2 0.24022189E+00 0.25772225E+04</pdfrwt>
<totfact> 0.11947347E-01</totfact>
</mgrwt>
</event>
<event>
11    1  0.4187089E-016  0.2833666E+04  0.7818608E-02  0.8446255E-01
          1   -1    0    0  501    0  0.00000000000E+00  0.00000000000E+00  0.29670618103E+04  0.29670618103E+04  0.00000000000E+00 0. -1.
         -1   -1    0    0    0  501 -0.00000000000E+00 -0.00000000000E+00 -0.15617167636E+04  0.15617167636E+04  0.00000000000E+00 0.  1.
    9900016    2    1    2    0    0  0.15155646352E+03  0.29607954961E+03  0.10050683292E+04  0.21634805935E+04  0.18867573958E+04 0.  0.
         24    2    3    3    0    0 -0.42391949598E+03 -0.54172316649E+02  0.12737184328E+04  0.13457964876E+04  0.78531273125E+02 0.  0.
        -15    1    4    4    0    0 -0.12654839052E+03 -0.80554537754E+01  0.49422424309E+03  0.51023228821E+03  0.00000000000E+00 0.  1.
        -15    1    1    2    0    0 -0.48061695101E+03 -0.64779457521E+03  0.64089978512E+03  0.10302344393E+04  0.00000000000E+00 0.  1.
         15    1    3    3    0    0  0.55563135648E+03  0.33934808521E+03 -0.30238065845E+03  0.71785610664E+03  0.00000000000E+00 0. -1.
         15    1    1    2    0    0 -0.24321637302E+03  0.52432002335E+03  0.17862011667E+03  0.60495523559E+03  0.00000000000E+00 0. -1.
        -16    1    1    2    0    0  0.57227686051E+03 -0.17260499775E+03 -0.41924318426E+03  0.73010830557E+03  0.00000000000E+00 0.  1.
         16    1    4    4    0    0 -0.29737110546E+03 -0.46116862873E+02  0.77949418974E+03  0.83556419935E+03  0.00000000000E+00 0. -1.
    9900018    1    3    3    0    0  0.19844603028E+02  0.10903781048E+02  0.33730554860E+02  0.99827999256E+02  0.91187600000E+02 0.  0.
<mgrwt>
<rscale>  0 0.23820499E+04</rscale>
<asrwt>0</asrwt>
<pdfrwt beam="1">  1        1 0.45647105E+00 0.28336665E+04</pdfrwt>
<pdfrwt beam="2">  1       -1 0.24026412E+00 0.28336665E+04</pdfrwt>
<totfact> 0.42297920E-02</totfact>
</mgrwt>
</event>
<event>
11    1  0.4187089E-016  0.3139917E+04  0.7818608E-02  0.8345128E-01
          2   -1    0    0  501    0  0.00000000000E+00  0.00000000000E+00  0.15568422161E+04  0.15568422161E+04  0.00000000000E+00 0. -1.
         -2   -1    0    0    0  501 -0.00000000000E+00 -0.00000000000E+00 -0.39033254264E+04  0.39033254264E+04  0.00000000000E+00 0.  1.
    9900016    2    1    2    0    0  0.46549773132E+03 -0.59066644769E+03 -0.18577467794E+04  0.26939520907E+04  0.18001610429E+04 0.  0.
         24    2    3    3    0    0  0.24208145117E+03 -0.41029043699E+03 -0.21970014046E+04  0.22494928235E+04  0.80381089712E+02 0.  0.
        -15    1    1    2    0    0 -0.12145105694E+03  0.16730181914E+03  0.22264303056E+03  0.30382589912E+03  0.00000000000E+00 0.  1.
        -15    1    4    4    0    0  0.85639085916E+02 -0.20957400302E+03 -0.92695842587E+03  0.95420502989E+03  0.00000000000E+00 0.  1.
         15    1    1    2    0    0 -0.12512896374E+04  0.27884732257E+03 -0.41091167083E+03  0.13462280592E+04  0.00000000000E+00 0. -1.
         15    1    3    3    0    0  0.22341628015E+03 -0.18037601069E+03  0.33925462521E+03  0.44445926720E+03  0.00000000000E+00 0. -1.
        -16    1    1    2    0    0  0.89793806539E+03  0.20562235199E+03 -0.15570026014E+03  0.93424616238E+03  0.00000000000E+00 0.  1.
         16    1    4    4    0    0  0.15644236526E+03 -0.20071643397E+03 -0.12700429787E+04  0.12952877936E+04  0.00000000000E+00 0. -1.
    9900018    1    1    2    0    0  0.93048976530E+01 -0.61105046010E+02 -0.14476753054E+03  0.18191543107E+03  0.91187600000E+02 0.  0.
<mgrwt>
<rscale>  0 0.26690195E+04</rscale>
<asrwt>0</asrwt>
<pdfrwt beam="1">  1        2 0.23951419E+00 0.31399166E+04</pdfrwt>
<pdfrwt beam="2">  1       -2 0.60051159E+00 0.31399166E+04</pdfrwt>
<totfact> 0.47548841E-03</totfact>
</mgrwt>
</event>
<event>
11    1  0.4187089E-016  0.5557035E+04  0.7818608E-02  0.7747890E-01
          2   -1    0    0  501    0  0.00000000000E+00  0.00000000000E+00  0.36921732182E+04  0.36921732182E+04  0.00000000000E+00 0. -1.
         -2   -1    0    0    0  501 -0.00000000000E+00 -0.00000000000E+00 -0.20909528896E+04  0.20909528896E+04  0.00000000000E+00 0.  1.
    9900016    2    1    2    0    0  0.65046831577E+02  0.74754755577E+03  0.11398299849E+04  0.23251593003E+04  0.18825766754E+04 0.  0.
         24    2    3    3    0    0 -0.10166066097E+03  0.13000664679E+04  0.93464425459E+03  0.16063674512E+04  0.79679323837E+02 0.  0.
        -15    1    4    4    0    0 -0.23337846669E+02  0.79684714271E+03  0.57082895139E+03  0.98048748879E+03  0.00000000000E+00 0.  1.
        -15    1    1    2    0    0  0.32568089100E+03  0.34631919309E+02  0.15606190950E+04  0.15946157444E+04  0.00000000000E+00 0.  1.
         15    1    1    2    0    0  0.43658753647E+02 -0.10066706940E+04 -0.82813953120E+03  0.13042649486E+04  0.00000000000E+00 0. -1.
         15    1    3    3    0    0  0.16469400891E+03 -0.57091587914E+03  0.16004031950E+03  0.61537140126E+03  0.00000000000E+00 0. -1.
        -16    1    1    2    0    0 -0.43438647622E+03  0.22449121897E+03 -0.27108922014E+03  0.55908611447E+03  0.00000000000E+00 0.  1.
         16    1    4    4    0    0 -0.78322814305E+02  0.50321932521E+03  0.36381530320E+03  0.62587996241E+03  0.00000000000E+00 0. -1.
    9900018    1    3    3    0    0  0.20134836378E+01  0.18396966991E+02  0.45145410858E+02  0.10342044781E+03  0.91187600000E+02 0.  0.
<mgrwt>
<rscale>  0 0.55570353E+04</rscale>
<asrwt>0</asrwt>
<pdfrwt beam="1">  1        2 0.56802665E+00 0.55570353E+04</pdfrwt>
<pdfrwt beam="2">  1       -2 0.32168506E+00 0.55570353E+04</pdfrwt>
<totfact> 0.96039114E-03</totfact>
</mgrwt>
</event>
<event>
11    1  0.4187089E-016  0.2716318E+04  0.7818608E-02  0.8501560E-01
          1   -1    0    0  501    0  0.00000000000E+00  0.00000000000E+00  0.19730237096E+04  0.19730237096E+04  0.00000000000E+00 0. -1.
         -1   -1    0    0    0  501 -0.00000000000E+00 -0.00000000000E+00 -0.22050374921E+04  0.22050374921E+04  0.00000000000E+00 0.  1.
    9900016    2    1    2    0    0  0.57863756933E+02 -0.16328078923E+03 -0.18590843086E+03  0.18175205163E+04  0.17996694286E+04 0.  0.
         24    2    3    3    0    0 -0.79319189816E+03 -0.29691581129E+03 -0.38431854031E+03  0.93348396805E+03  0.79869843466E+02 0.  0.
        -15    1    4    4    0    0 -0.46633710206E+03 -0.16026143081E+03 -0.26405489863E+03  0.55935588711E+03  0.00000000000E+00 0.  1.
        -15    1    1    2    0    0 -0.39111379603E+03 -0.26051449741E+03  0.35962835294E+02  0.47130789335E+03  0.00000000000E+00 0.  1.
         15    1    1    2    0    0  0.63970064633E+03 -0.47998268646E+02 -0.70758751606E+03  0.95509206027E+03  0.00000000000E+00 0. -1.
         15    1    3    3    0    0  0.85105565509E+03  0.13363502206E+03  0.19841010945E+03  0.88403654829E+03  0.00000000000E+00 0. -1.
        -16    1    1    2    0    0 -0.30906699281E+03  0.49728976806E+03  0.59463448550E+03  0.83451164809E+03  0.00000000000E+00 0.  1.
         16    1    4    4    0    0 -0.32685479610E+03 -0.13665438048E+03 -0.12026364168E+03  0.37412808094E+03  0.00000000000E+00 0. -1.
    9900018    1    1    2    0    0  0.26163855732E+01 -0.25496212769E+02  0.30884843685E+02  0.99629083616E+02  0.91187600000E+02 0.  0.
<mgrwt>
<rscale>  0 0.22409850E+04</rscale>
<asrwt>0</asrwt>
<pdfrwt beam="1">  1        1 0.30354211E+00 0.27163177E+04</pdfrwt>
<pdfrwt beam="2">  1       -1 0.33923654E+00 0.27163177E+04</pdfrwt>
<totfact> 0.47681540E-02</totfact>
</mgrwt>
</event>
<event>
11    1  0.4293710E-016  0.6019347E+04  0.7818608E-02  0.7688008E-01
          3   -1    0    0  501    0  0.00000000000E+00  0.00000000000E+00  0.36319094236E+04  0.36319094236E+04  0.00000000000E+00 0. -1.
         -3   -1    0    0    0  501 -0.00000000000E+00 -0.00000000000E+00 -0.24940419457E+04  0.24940419457E+04  0.00000000000E+00 0.  1.
    9900016    2    1    2    0    0  0.10351343516E+03 -0.17911880412E+03  0.15639501733E+03  0.19019634052E+04  0.18841992506E+04 0.  0.
         24    2    3    3    0    0 -0.11565805546E+03  0.34526844710E+03 -0.71054375565E+03  0.80225848309E+03  0.78480307369E+02 0.  0.
        -15    1    4    4    0    0 -0.50442099106E+02  0.22335702493E+03 -0.37552109034E+03  0.43982821105E+03  0.00000000000E+00 0.  1.
        -15    1    1    2    0    0 -0.81233278474E+03  0.62780447479E+03 -0.49561341695E+03  0.11400244168E+04  0.00000000000E+00 0.  1.
         15    1    1    2    0    0  0.12935471440E+04 -0.10877646418E+04  0.14343048298E+04  0.22166926883E+04  0.00000000000E+00 0. -1.
         15    1    3    3    0    0  0.23539381990E+03 -0.49784920313E+03  0.83093014546E+03  0.99684953034E+03  0.00000000000E+00 0. -1.
        -16    1    1    2    0    0 -0.58472779446E+03  0.63907897112E+03  0.42781047678E+02  0.86727085906E+03  0.00000000000E+00 0.  1.
         16    1    4    4    0    0 -0.65215956356E+02  0.12191142216E+03 -0.33502266531E+03  0.36243027204E+03  0.00000000000E+00 0. -1.
    9900018    1    3    3    0    0 -0.16222329274E+02 -0.26538048077E+02  0.36008627520E+02  0.10285539175E+03  0.91187600000E+02 0.  0.
<mgrwt>
<rscale>  0 0.60193470E+04</rscale>
<asrwt>0</asrwt>
<pdfrwt beam="1">  1        3 0.55875529E+00 0.60193470E+04</pdfrwt>
<pdfrwt beam="2">  1       -3 0.38369876E+00 0.60193470E+04</pdfrwt>
<totfact> 0.39994335E-05</totfact>
</mgrwt>
</event>
<event>
11    1  0.4187089E-016  0.3493596E+04  0.7818608E-02  0.8242260E-01
          2   -1    0    0  501    0  0.00000000000E+00  0.00000000000E+00  0.36161275055E+04  0.36161275055E+04  0.00000000000E+00 0. -1.
         -2   -1    0    0    0  501 -0.00000000000E+00 -0.00000000000E+00 -0.20207350638E+04  0.20207350638E+04  0.00000000000E+00 0.  1.
    9900016    2    1    2    0    0  0.60336012383E+03  0.62762775735E+02  0.25146950532E+03  0.19168881856E+04  0.18008999969E+04 0.  0.
         24    2    3    3    0    0  0.44271717706E+03 -0.85208821779E+03  0.21768445914E+03  0.98742601530E+03  0.74637672636E+02 0.  0.
        -15    1    1    2    0    0  0.17273151255E+03  0.25523151891E+03  0.98591737261E+03  0.10329629080E+04  0.00000000000E+00 0.  1.
        -15    1    4    4    0    0  0.21603855401E+03 -0.34326136326E+03  0.10760063555E+03  0.41961758435E+03  0.00000000000E+00 0.  1.
         15    1    1    2    0    0  0.55323743091E+03 -0.64952374384E+03 -0.43475478191E+03  0.95758261741E+03  0.00000000000E+00 0. -1.
         15    1    3    3    0    0  0.16064294677E+03  0.91485099352E+03  0.33785046177E+02  0.92946217031E+03  0.00000000000E+00 0. -1.
        -16    1    1    2    0    0 -0.13800571674E+04  0.36006615522E+03  0.76154641836E+03  0.16168359127E+04  0.00000000000E+00 0.  1.
         16    1    4    4    0    0  0.22667862305E+03 -0.50882685453E+03  0.11008382359E+03  0.56780843095E+03  0.00000000000E+00 0. -1.
    9900018    1    1    2    0    0  0.50728100115E+02 -0.28536706024E+02  0.31213927294E+02  0.11259294553E+03  0.91187600000E+02 0.  0.
<mgrwt>
<rscale>  0 0.30051576E+04</rscale>
<asrwt>0</asrwt>
<pdfrwt beam="1">  1        2 0.55632731E+00 0.34935959E+04</pdfrwt>
<pdfrwt beam="2">  1       -2 0.31088232E+00 0.34935959E+04</pdfrwt>
<totfact> 0.14216305E-02</totfact>
</mgrwt>
</event>
<event>
11    1  0.4187089E-016  0.4610986E+04  0.7818608E-02  0.7891489E-01
          2   -1    0    0  501    0  0.00000000000E+00  0.00000000000E+00  0.18050880948E+04  0.18050880948E+04  0.00000000000E+00 0. -1.
         -2   -1    0    0    0  501 -0.00000000000E+00 -0.00000000000E+00 -0.29446194364E+04  0.29446194364E+04  0.00000000000E+00 0.  1.
    9900016    2    1    2    0    0  0.25122400500E+03 -0.12594209618E+04 -0.10460048147E+04  0.25193817322E+04  0.18983950011E+04 0.  0.
        -24    2    3    3    0    0 -0.14095548637E+03 -0.33185063722E+03  0.50667134145E+03  0.62695297218E+03  0.79755166104E+02 0.  0.
        -15    1    3    3    0    0  0.35308322516E+03 -0.90535002299E+03 -0.14659691075E+04  0.17588040972E+04  0.00000000000E+00 0.  1.
        -15    1    1    2    0    0 -0.98378319214E+03  0.88414278775E+03 -0.13900212717E+03  0.13299847479E+04  0.00000000000E+00 0.  1.
         15    1    4    4    0    0 -0.11645625510E+03 -0.30003124826E+03  0.40277865336E+03  0.51556905734E+03  0.00000000000E+00 0. -1.
         15    1    1    2    0    0  0.12665626516E+03 -0.46139406572E+02  0.88150874847E+02  0.16106281718E+03  0.00000000000E+00 0. -1.
        -16    1    4    4    0    0 -0.24499231268E+02 -0.31819388956E+02  0.10389268809E+03  0.11138391484E+03  0.00000000000E+00 0.  1.
         16    1    1    2    0    0  0.60590292198E+03  0.42141758065E+03 -0.42675274507E+02  0.73927823395E+03  0.00000000000E+00 0. -1.
    9900018    1    3    3    0    0  0.39096266213E+02 -0.22220301618E+02 -0.86707048586E+02  0.13362466278E+03  0.91187600000E+02 0.  0.
<mgrwt>
<rscale>  0 0.46109858E+04</rscale>
<asrwt>0</asrwt>
<pdfrwt beam="1">  1        2 0.27770586E+00 0.46109858E+04</pdfrwt>
<pdfrwt beam="2">  1       -2 0.45301837E+00 0.46109858E+04</pdfrwt>
<totfact> 0.21379542E-02</totfact>
</mgrwt>
</event>
<event>
11    1  0.4187089E-016  0.4181044E+04  0.7818608E-02  0.7968988E-01
         -2   -1    0    0    0  501 -0.00000000000E+00  0.00000000000E+00  0.12666857027E+04  0.12666857027E+04  0.00000000000E+00 0. -1.
          2   -1    0    0  501    0  0.00000000000E+00 -0.00000000000E+00 -0.34501704701E+04  0.34501704701E+04  0.00000000000E+00 0.  1.
    9900016    2    1    2    0    0 -0.39898993959E+03  0.63434101320E+03 -0.10864992799E+04  0.22297502886E+04  0.17971433363E+04 0.  0.
         24    2    3    3    0    0 -0.28445508012E+03  0.10419264019E+04 -0.20976382038E+02  0.10831975732E+04  0.79697267757E+02 0.  0.
        -15    1    4    4    0    0 -0.23090766901E+03  0.84275908384E+03  0.14437397233E+02  0.87393916461E+03  0.00000000000E+00 0.  1.
        -15    1    1    2    0    0  0.74031507723E+03 -0.61818086170E+03 -0.77296534143E+03  0.12359973343E+04  0.00000000000E+00 0.  1.
         15    1    1    2    0    0 -0.61339780730E+03 -0.29549626212E+02  0.16964120153E+03  0.63710924312E+03  0.00000000000E+00 0. -1.
         15    1    3    3    0    0 -0.11453485947E+03 -0.40758538871E+03 -0.10655228979E+04  0.11465527153E+04  0.00000000000E+00 0. -1.
        -16    1    1    2    0    0  0.26863400716E+03 -0.99374203697E+01 -0.39302125611E+03  0.47616036152E+03  0.00000000000E+00 0.  1.
         16    1    4    4    0    0 -0.53547411116E+02  0.19916731807E+03 -0.35413779271E+02  0.20925840864E+03  0.00000000000E+00 0. -1.
    9900018    1    1    2    0    0  0.34386625055E+01  0.23326895090E+02 -0.10064009149E+03  0.13783894530E+03  0.91187600000E+02 0.  0.
<mgrwt>
<rscale>  0 0.41810437E+04</rscale>
<asrwt>0</asrwt>
<pdfrwt beam="1">  1        2 0.53079545E+00 0.41810437E+04</pdfrwt>
<pdfrwt beam="2">  1       -2 0.19487473E+00 0.41810437E+04</pdfrwt>
<totfact> 0.98277495E-02</totfact>
</mgrwt>
</event>
<event>
11    1  0.4187089E-016  0.2754929E+04  0.7818608E-02  0.8413451E-01
          2   -1    0    0  501    0  0.00000000000E+00  0.00000000000E+00  0.35463600105E+04  0.35463600105E+04  0.00000000000E+00 0. -1.
         -2   -1    0    0    0  501 -0.00000000000E+00 -0.00000000000E+00 -0.14956551081E+04  0.14956551081E+04  0.00000000000E+00 0.  1.
    9900016    2    1    2    0    0  0.19239780994E+03  0.68290345255E+03  0.10931157861E+04  0.22977339378E+04  0.18924336407E+04 0.  0.
         24    2    3    3    0    0  0.75308157363E+02  0.87391823493E+03 -0.22714631053E+03  0.90964237209E+03  0.80308149068E+02 0.  0.
        -15    1    1    2    0    0  0.24831995623E+03  0.49404449347E+03  0.40971533119E+02  0.55445597546E+03  0.00000000000E+00 0.  1.
        -15    1    4    4    0    0  0.34237231992E+02  0.50607774410E+03 -0.17099288259E+03  0.53528070862E+03  0.00000000000E+00 0.  1.
         15    1    3    3    0    0  0.78044239582E+02 -0.19293175295E+03  0.12482935632E+04  0.12655237590E+04  0.00000000000E+00 0. -1.
         15    1    1    2    0    0 -0.75304039491E+03 -0.78233783672E+03  0.11950343789E+04  0.16146917643E+04  0.00000000000E+00 0. -1.
        -16    1    1    2    0    0  0.31232262873E+03 -0.39461010931E+03 -0.27841679567E+03  0.57513344095E+03  0.00000000000E+00 0.  1.
         16    1    4    4    0    0  0.41070925371E+02  0.36784049083E+03 -0.56153427943E+02  0.37436166347E+03  0.00000000000E+00 0. -1.
    9900018    1    3    3    0    0  0.39045412998E+02  0.19169705764E+01  0.71968533358E+02  0.12256780670E+03  0.91187600000E+02 0.  0.
<mgrwt>
<rscale>  0 0.24708326E+04</rscale>
<asrwt>0</asrwt>
<pdfrwt beam="1">  1        2 0.54559384E+00 0.27549288E+04</pdfrwt>
<pdfrwt beam="2">  1       -2 0.23010079E+00 0.27549288E+04</pdfrwt>
<totfact> 0.53590749E-02</totfact>
</mgrwt>
</event>
<event>
11    1  0.4187089E-016  0.4370772E+04  0.7818608E-02  0.7933660E-01
         -2   -1    0    0    0  501 -0.00000000000E+00  0.00000000000E+00  0.10346033119E+04  0.10346033119E+04  0.00000000000E+00 0.  1.
          2   -1    0    0  501    0  0.00000000000E+00 -0.00000000000E+00 -0.46161773105E+04  0.46161773105E+04  0.00000000000E+00 0. -1.
    9900016    2    1    2    0    0 -0.12477633197E+03  0.43454136520E+03 -0.22755319000E+04  0.29937996130E+04  0.18921932681E+04 0.  0.
        -24    2    3    3    0    0 -0.80621652482E+03 -0.31650252570E+03 -0.92559610802E+03  0.12701685184E+04  0.80255693582E+02 0.  0.
        -15    1    1    2    0    0  0.99995572577E+02  0.10793063764E+03  0.37202504173E+03  0.40006345591E+03  0.00000000000E+00 0.  1.
        -15    1    3    3    0    0  0.66379557348E+03  0.69726292318E+03 -0.11837222073E+04  0.15257779693E+04  0.00000000000E+00 0.  1.
         15    1    4    4    0    0 -0.35364032830E+03 -0.18172225446E+03 -0.42612892024E+03  0.58281241942E+03  0.00000000000E+00 0. -1.
         15    1    1    2    0    0 -0.41407457009E+03 -0.86329689926E+03 -0.11804385996E+04  0.15199258447E+04  0.00000000000E+00 0. -1.
        -16    1    4    4    0    0 -0.45257619652E+03 -0.13478027125E+03 -0.49946718779E+03  0.68735609901E+03  0.00000000000E+00 0.  1.
         16    1    1    2    0    0  0.43885532949E+03  0.32082489642E+03 -0.49762854069E+03  0.73699170883E+03  0.00000000000E+00 0. -1.
    9900018    1    3    3    0    0  0.17644619366E+02  0.53780967717E+02 -0.16621358463E+03  0.19785312530E+03  0.91187600000E+02 0.  0.
<mgrwt>
<rscale>  0 0.43707722E+04</rscale>
<asrwt>0</asrwt>
<pdfrwt beam="1">  1        2 0.71018112E+00 0.43707722E+04</pdfrwt>
<pdfrwt beam="2">  1       -2 0.15916974E+00 0.43707722E+04</pdfrwt>
<totfact> 0.18223234E-02</totfact>
</mgrwt>
</event>
