<event>
11    1  0.3581433E-010  0.2200504E+04  0.7818608E-02  0.8518218E-01
         -2   -1    0    0    0  501 -0.00000000000E+00  0.00000000000E+00  0.40303137418E+03  0.40303137418E+03  0.00000000000E+00 0.  1.
          2   -1    0    0  501    0  0.00000000000E+00 -0.00000000000E+00 -0.30036225973E+04  0.30036225973E+04  0.00000000000E+00 0. -1.
    9900016    2    1    2    0    0  0.19727206921E+03 -0.72737294590E+02 -0.18146671423E+04  0.25930916542E+04  0.18403533646E+04 0.  0.
        -24    2    3    3    0    0  0.13692597573E+02  0.15733454707E+03 -0.11132262728E+04  0.11283299154E+04  0.94414069798E+02 0.  0.
        -15    1    3    3    0    0  0.17970587325E+03  0.22977801766E+03 -0.40140063893E+03  0.49620017253E+03  0.00000000000E+00 0.  1.
        -15    1    3    3    0    0  0.15341420864E+03 -0.34696133613E+03 -0.69041317847E+02  0.38559666979E+03  0.00000000000E+00 0.  1.
         15    1    3    3    0    0  0.96016346289E+02  0.11009667565E+03  0.32485814143E+02  0.14965207938E+03  0.00000000000E+00 0. -1.
         15    1    4    4    0    0 -0.31380723974E+02  0.82491451821E+02 -0.39093903776E+03  0.40077789448E+03  0.00000000000E+00 0. -1.
        -16    1    4    4    0    0  0.45073321547E+02  0.74843095245E+02 -0.72228723502E+03  0.72755202089E+03  0.00000000000E+00 0.  1.
         16    1    1    2    0    0 -0.19727206921E+03  0.72737294590E+02 -0.78592408080E+03  0.81356231728E+03  0.00000000000E+00 0. -1.
    9900018    1    3    3    0    0 -0.24555695655E+03 -0.22298519883E+03 -0.26348472692E+03  0.43331281717E+03  0.91187600000E+02 0.  0.
<mgrwt>
<rscale>  0 0.22005037E+04</rscale>
<asrwt>0</asrwt>
<pdfrwt beam="1">  1        2 0.46209577E+00 0.22005037E+04</pdfrwt>
<pdfrwt beam="2">  1       -2 0.62004828E-01 0.22005037E+04</pdfrwt>
<totfact> 0.38284081E+00</totfact>
</mgrwt>
</event>
<event>
11    1  0.3581433E-010  0.2549603E+04  0.7818608E-02  0.8385524E-01
         -1   -1    0    0    0  501 -0.00000000000E+00  0.00000000000E+00  0.91157719223E+03  0.91157719223E+03  0.00000000000E+00 0.  1.
          1   -1    0    0  501    0  0.00000000000E+00 -0.00000000000E+00 -0.17827555750E+04  0.17827555750E+04  0.00000000000E+00 0. -1.
    9900016    2    1    2    0    0 -0.36461744721E+03  0.43513669947E+03 -0.89453701791E+03  0.21261466570E+04  0.18433700933E+04 0.  0.
        -24    2    3    3    0    0  0.19044320275E+03  0.24080909431E+03 -0.45713119859E+03  0.56032660797E+03  0.10363079414E+03 0.  0.
        -15    1    3    3    0    0 -0.50073788148E+03  0.47439700151E+03  0.15238106212E+02  0.68994430273E+03  0.00000000000E+00 0.  1.
        -15    1    3    3    0    0  0.19992306993E+02  0.17481178537E+02 -0.33960033792E+02  0.43111110368E+02  0.00000000000E+00 0.  1.
         15    1    3    3    0    0 -0.26033736612E+03  0.82880956732E+02 -0.24184894219E+03  0.36487766173E+03  0.00000000000E+00 0. -1.
         15    1    4    4    0    0  0.98606953558E+02  0.18328010711E+03 -0.35447089401E+03  0.41105296940E+03  0.00000000000E+00 0. -1.
        -16    1    4    4    0    0  0.91836249195E+02  0.57528987201E+02 -0.10266030458E+03  0.14927363857E+03  0.00000000000E+00 0.  1.
         16    1    1    2    0    0  0.36461744721E+03 -0.43513669947E+03  0.23358635108E+02  0.56818611024E+03  0.00000000000E+00 0. -1.
    9900018    1    3    3    0    0  0.18602229065E+03 -0.38043153162E+03 -0.17683494955E+03  0.46788697422E+03  0.91187600000E+02 0.  0.
<mgrwt>
<rscale>  0 0.25496034E+04</rscale>
<asrwt>0</asrwt>
<pdfrwt beam="1">  1        1 0.27427009E+00 0.25496034E+04</pdfrwt>
<pdfrwt beam="2">  1       -1 0.14024265E+00 0.25496034E+04</pdfrwt>
<totfact> 0.15448509E+00</totfact>
</mgrwt>
</event>
<event>
11    1  0.3581433E-010  0.2671489E+04  0.7818608E-02  0.8344316E-01
          2   -1    0    0  501    0  0.00000000000E+00  0.00000000000E+00  0.16715263918E+04  0.16715263918E+04  0.00000000000E+00 0. -1.
         -2   -1    0    0    0  501 -0.00000000000E+00 -0.00000000000E+00 -0.10674153483E+04  0.10674153483E+04  0.00000000000E+00 0.  1.
    9900016    2    1    2    0    0  0.60772893055E+03 -0.30958565252E+03  0.29658062372E+03  0.19907755231E+04  0.18466319037E+04 0.  0.
        -24    2    3    3    0    0  0.11277373071E+03 -0.31913014977E+03 -0.15925804320E+03  0.38009724321E+03  0.67444963812E+02 0.  0.
        -15    1    3    3    0    0  0.41608335238E+02  0.24403444197E+03  0.29216336221E+03  0.38294058632E+03  0.00000000000E+00 0.  1.
        -15    1    3    3    0    0  0.60451888350E+03  0.83778070808E+02  0.37611246374E+03  0.71688383371E+03  0.00000000000E+00 0.  1.
         15    1    3    3    0    0 -0.57789342521E+02  0.27701943390E+02 -0.10974721907E+03  0.12708838606E+03  0.00000000000E+00 0. -1.
         15    1    4    4    0    0  0.10030522131E+03 -0.19618732832E+03 -0.86622754962E+02  0.23675748540E+03  0.00000000000E+00 0. -1.
        -16    1    4    4    0    0  0.12468509403E+02 -0.12294282145E+03 -0.72635288237E+02  0.14333975781E+03  0.00000000000E+00 0.  1.
         16    1    1    2    0    0 -0.60772893055E+03  0.30958565252E+03  0.30753041978E+03  0.74816621706E+03  0.00000000000E+00 0. -1.
    9900018    1    3    3    0    0 -0.93382676382E+02 -0.34596995892E+03 -0.10268993997E+03  0.38376547381E+03  0.91187600000E+02 0.  0.
<mgrwt>
<rscale>  0 0.26714887E+04</rscale>
<asrwt>0</asrwt>
<pdfrwt beam="1">  1        2 0.25715791E+00 0.26714887E+04</pdfrwt>
<pdfrwt beam="2">  1       -2 0.16421775E+00 0.26714887E+04</pdfrwt>
<totfact> 0.20984437E+00</totfact>
</mgrwt>
</event>
<event>
11    1  0.3581433E-010  0.2336224E+04  0.7818608E-02  0.8463774E-01
          2   -1    0    0  501    0  0.00000000000E+00  0.00000000000E+00  0.18100360011E+04  0.18100360011E+04  0.00000000000E+00 0. -1.
         -2   -1    0    0    0  501 -0.00000000000E+00 -0.00000000000E+00 -0.75384462136E+03  0.75384462136E+03  0.00000000000E+00 0.  1.
    9900016    2    1    2    0    0 -0.39061611749E+03  0.99919936450E+02  0.65003898978E+03  0.19915828776E+04  0.18388275409E+04 0.  0.
         24    2    3    3    0    0 -0.41304681779E+03 -0.37610195512E+03 -0.39301873876E+03  0.68581231474E+03  0.61761215184E+02 0.  0.
        -15    1    3    3    0    0 -0.10012607759E+03 -0.44241171572E+02  0.19972997973E+03  0.22775991192E+03  0.00000000000E+00 0.  1.
        -15    1    4    4    0    0 -0.25927330700E+03 -0.20554918457E+03 -0.25659853744E+03  0.41870744490E+03  0.00000000000E+00 0.  1.
         15    1    3    3    0    0  0.51428853500E+02  0.30356602945E+03  0.30146890908E+03  0.43090690914E+03  0.00000000000E+00 0. -1.
         15    1    3    3    0    0  0.12895980393E+02  0.15905047985E+03  0.48758600310E+03  0.51303359722E+03  0.00000000000E+00 0. -1.
        -16    1    1    2    0    0  0.39061611749E+03 -0.99919936450E+02  0.40615239001E+03  0.57229774493E+03  0.00000000000E+00 0.  1.
         16    1    4    4    0    0 -0.15377351079E+03 -0.17055277055E+03 -0.13642020132E+03  0.26710486984E+03  0.00000000000E+00 0. -1.
    9900018    1    3    3    0    0  0.58231944002E+02  0.57646553840E+02  0.54272836631E+02  0.13407014456E+03  0.91187600000E+02 0.  0.
<mgrwt>
<rscale>  0 0.23362242E+04</rscale>
<asrwt>0</asrwt>
<pdfrwt beam="1">  1        2 0.27846708E+00 0.23362242E+04</pdfrwt>
<pdfrwt beam="2">  1       -2 0.11597610E+00 0.23362242E+04</pdfrwt>
<totfact> 0.44479396E+00</totfact>
</mgrwt>
</event>
<event>
11    1  0.3581433E-010  0.2701610E+04  0.7818608E-02  0.8334483E-01
          2   -1    0    0  501    0  0.00000000000E+00  0.00000000000E+00  0.22247296840E+04  0.22247296840E+04  0.00000000000E+00 0. -1.
         -2   -1    0    0    0  501 -0.00000000000E+00 -0.00000000000E+00 -0.82017799001E+03  0.82017799001E+03  0.00000000000E+00 0.  1.
    9900016    2    1    2    0    0 -0.46281722336E+03  0.50814121064E+03  0.78927046299E+03  0.21224228419E+04  0.18464353723E+04 0.  0.
        -24    2    3    3    0    0 -0.90670381166E+03 -0.13106154757E+03  0.68508027634E+03  0.11484884245E+04  0.10198894449E+03 0.  0.
        -15    1    3    3    0    0  0.21506436717E+03  0.93364556243E+01  0.99005019309E+01  0.21549448106E+03  0.00000000000E+00 0.  1.
        -15    1    3    3    0    0 -0.45374211976E+02  0.16642424525E+03 -0.82122669629E+01  0.17269420908E+03  0.00000000000E+00 0.  1.
         15    1    4    4    0    0 -0.55341009287E+03 -0.59344987557E+02  0.35841742623E+03  0.66200272647E+03  0.00000000000E+00 0. -1.
         15    1    3    3    0    0  0.72120904053E+02  0.47945560269E+02  0.74047828384E+02  0.11394420757E+03  0.00000000000E+00 0. -1.
        -16    1    4    4    0    0 -0.35329371879E+03 -0.71716560013E+02  0.32666285011E+03  0.48648569800E+03  0.00000000000E+00 0.  1.
         16    1    1    2    0    0  0.46281722336E+03 -0.50814121064E+03  0.61528123101E+03  0.92248483208E+03  0.00000000000E+00 0. -1.
    9900018    1    3    3    0    0  0.20207552905E+03  0.41549649706E+03  0.28454123296E+02  0.47180151975E+03  0.91187600000E+02 0.  0.
<mgrwt>
<rscale>  0 0.27016101E+04</rscale>
<asrwt>0</asrwt>
<pdfrwt beam="1">  1        2 0.34226610E+00 0.27016101E+04</pdfrwt>
<pdfrwt beam="2">  1       -2 0.12618123E+00 0.27016101E+04</pdfrwt>
<totfact> 0.20539281E+00</totfact>
</mgrwt>
</event>
<event>
11    1  0.3581433E-010  0.3054359E+04  0.7818608E-02  0.8228376E-01
         -1   -1    0    0    0  501 -0.00000000000E+00  0.00000000000E+00  0.55444015513E+03  0.55444015513E+03  0.00000000000E+00 0.  1.
          1   -1    0    0  501    0  0.00000000000E+00 -0.00000000000E+00 -0.42065456219E+04  0.42065456219E+04  0.00000000000E+00 0. -1.
    9900016    2    1    2    0    0  0.21755087042E+02  0.86129138806E+03 -0.31863531238E+04  0.37815872964E+04  0.18453346882E+04 0.  0.
         24    2    3    3    0    0  0.13414686049E+03  0.26929302266E+02 -0.15909327236E+03  0.22028371650E+03  0.67034908401E+02 0.  0.
        -15    1    3    3    0    0  0.64734544250E+03  0.32266457342E+03 -0.63646892761E+03  0.96346315170E+03  0.00000000000E+00 0.  1.
        -15    1    4    4    0    0  0.12893869800E+02  0.89412724222E+01  0.40652968456E+01  0.16208789881E+02  0.00000000000E+00 0. -1.
         15    1    3    3    0    0 -0.62797365384E+03  0.34200030442E+03 -0.14129858113E+04  0.15836173847E+04  0.00000000000E+00 0. -1.
         15    1    3    3    0    0 -0.51042942038E+02  0.89702923230E+02 -0.22631281624E+03  0.24873577781E+03  0.00000000000E+00 0.  1.
        -16    1    1    2    0    0 -0.21755087042E+02 -0.86129138806E+03 -0.46575234294E+03  0.97939848066E+03  0.00000000000E+00 0.  1.
         16    1    4    4    0    0  0.12125299069E+03  0.17988029843E+02 -0.16315856920E+03  0.20407492662E+03  0.00000000000E+00 0. -1.
    9900018    1    3    3    0    0 -0.80720620063E+02  0.79994284733E+02 -0.75149229632E+03  0.76548726568E+03  0.91187600000E+02 0.  0.
<mgrwt>
<rscale>  0 0.30543594E+04</rscale>
<asrwt>0</asrwt>
<pdfrwt beam="1">  1        1 0.64716088E+00 0.30543594E+04</pdfrwt>
<pdfrwt beam="2">  1       -1 0.85298484E-01 0.30543594E+04</pdfrwt>
<totfact> 0.71712731E-02</totfact>
</mgrwt>
</event>
<event>
11    1  0.3581433E-010  0.2470605E+04  0.7818608E-02  0.8413533E-01
         -2   -1    0    0    0  501 -0.00000000000E+00  0.00000000000E+00  0.10188048276E+04  0.10188048276E+04  0.00000000000E+00 0.  1.
          2   -1    0    0  501    0  0.00000000000E+00 -0.00000000000E+00 -0.14978059812E+04  0.14978059812E+04  0.00000000000E+00 0. -1.
    9900016    2    1    2    0    0  0.53528920375E+03 -0.61200068301E+02 -0.48712727055E+03  0.19777731581E+04  0.18395688917E+04 0.  0.
        -24    2    3    3    0    0  0.48823483808E+03 -0.45100329684E+01 -0.35612979222E+02  0.50037840940E+03  0.10352135431E+03 0.  0.
        -15    1    3    3    0    0 -0.18533349625E+03  0.36413156383E+03 -0.44789183023E+02  0.41103086444E+03  0.00000000000E+00 0.  1.
        -15    1    3    3    0    0  0.27793501771E+03 -0.25738203241E+03 -0.45504346835E+03  0.59207933824E+03  0.00000000000E+00 0.  1.
         15    1    3    3    0    0 -0.85402558919E+02  0.80864966833E+02 -0.11461799625E+03  0.16422553088E+03  0.00000000000E+00 0. -1.
         15    1    4    4    0    0  0.95236458881E+02 -0.41317941974E+02  0.23418211769E+01  0.10383948938E+03  0.00000000000E+00 0. -1.
        -16    1    4    4    0    0  0.39299837920E+03  0.36807909005E+02 -0.37954800399E+02  0.39653892002E+03  0.00000000000E+00 0.  1.
         16    1    1    2    0    0 -0.53528920375E+03  0.61200068301E+02  0.81261170406E+01  0.53883765068E+03  0.00000000000E+00 0. -1.
    9900018    1    3    3    0    0  0.39855403119E+02 -0.24430453358E+03  0.16293635629E+03  0.31005901516E+03  0.91187600000E+02 0.  0.
<mgrwt>
<rscale>  0 0.24706048E+04</rscale>
<asrwt>0</asrwt>
<pdfrwt beam="1">  1        2 0.23043169E+00 0.24706048E+04</pdfrwt>
<pdfrwt beam="2">  1       -2 0.15673921E+00 0.24706048E+04</pdfrwt>
<totfact> 0.30322026E+00</totfact>
</mgrwt>
</event>
<event>
11    1  0.3581433E-010  0.2278697E+04  0.7818608E-02  0.8486368E-01
         -1   -1    0    0    0  501 -0.00000000000E+00  0.00000000000E+00  0.90702980412E+03  0.90702980412E+03  0.00000000000E+00 0.  1.
          1   -1    0    0  501    0  0.00000000000E+00 -0.00000000000E+00 -0.14311718763E+04  0.14311718763E+04  0.00000000000E+00 0. -1.
    9900016    2    1    2    0    0 -0.72681280009E+02  0.38882496257E+03 -0.46381377238E+03  0.19380680481E+04  0.18397057166E+04 0.  0.
         24    2    3    3    0    0  0.11585825879E+03 -0.25420928896E+03 -0.80565513147E+03  0.85533181057E+03  0.66834247107E+02 0.  0.
        -15    1    4    4    0    0  0.50257130876E+01 -0.81795982353E+02 -0.24919069158E+03  0.26232011225E+03  0.00000000000E+00 0.  1.
        -15    1    3    3    0    0  0.14016606221E+02  0.10068520734E+03  0.22878002283E+02  0.10419874862E+03  0.00000000000E+00 0.  1.
         15    1    3    3    0    0 -0.16320601640E+03  0.25190747981E+03 -0.10181942025E+03  0.31695548033E+03  0.00000000000E+00 0. -1.
         15    1    3    3    0    0 -0.60645848708E+02  0.13913779711E+03  0.45564693645E+03  0.48026177887E+03  0.00000000000E+00 0. -1.
        -16    1    1    2    0    0  0.72681280009E+02 -0.38882496257E+03 -0.60328299792E+02  0.40013363235E+03  0.00000000000E+00 0.  1.
         16    1    4    4    0    0  0.11083254570E+03 -0.17241330661E+03 -0.55646443990E+03  0.59301169833E+03  0.00000000000E+00 0. -1.
    9900018    1    3    3    0    0  0.21295720089E+02  0.15130376728E+03 -0.34864159391E+02  0.18132022968E+03  0.91187600000E+02 0.  0.
<mgrwt>
<rscale>  0 0.22786975E+04</rscale>
<asrwt>0</asrwt>
<pdfrwt beam="1">  1        1 0.22018029E+00 0.22786975E+04</pdfrwt>
<pdfrwt beam="2">  1       -1 0.13954305E+00 0.22786975E+04</pdfrwt>
<totfact> 0.27969172E+00</totfact>
</mgrwt>
</event>
<event>
11    1  0.3581433E-010  0.2349996E+04  0.7818608E-02  0.8458465E-01
         -2   -1    0    0    0  501 -0.00000000000E+00  0.00000000000E+00  0.13340266054E+04  0.13340266054E+04  0.00000000000E+00 0. -1.
          2   -1    0    0  501    0  0.00000000000E+00 -0.00000000000E+00 -0.10349273664E+04  0.10349273664E+04  0.00000000000E+00 0.  1.
    9900016    2    1    2    0    0 -0.89029418139E+01 -0.22905961642E+03  0.62431162795E+03  0.19710712402E+04  0.18554808689E+04 0.  0.
         24    2    3    3    0    0  0.57542209330E+03  0.83704287645E+02  0.38061844242E+03  0.69780272440E+03  0.62779377521E+02 0.  0.
        -15    1    3    3    0    0 -0.33647379700E+03  0.21398185786E+02 -0.19692845538E+03  0.39045270515E+03  0.00000000000E+00 0.  1.
        -15    1    4    4    0    0  0.42094303285E+03  0.42070121473E+02  0.25103036814E+03  0.49191379098E+03  0.00000000000E+00 0.  1.
         15    1    3    3    0    0  0.15624457879E+03 -0.18804961334E+03  0.48504653444E+02  0.24925434176E+03  0.00000000000E+00 0. -1.
         15    1    3    3    0    0 -0.20046159383E+03  0.24855710942E+02  0.90730718722E+02  0.22143784746E+03  0.00000000000E+00 0. -1.
        -16    1    1    2    0    0  0.89029418139E+01  0.22905961642E+03 -0.32521238887E+03  0.39788273162E+03  0.00000000000E+00 0.  1.
         16    1    4    4    0    0  0.15447906045E+03  0.41634166172E+02  0.12958807428E+03  0.20588893342E+03  0.00000000000E+00 0. -1.
    9900018    1    3    3    0    0 -0.20363422307E+03 -0.17096818745E+03  0.30138626875E+03  0.41212362139E+03  0.91187600000E+02 0.  0.
<mgrwt>
<rscale>  0 0.23499963E+04</rscale>
<asrwt>0</asrwt>
<pdfrwt beam="1">  1        2 0.15921959E+00 0.23499963E+04</pdfrwt>
<pdfrwt beam="2">  1       -2 0.20523486E+00 0.23499963E+04</pdfrwt>
<totfact> 0.26552831E+00</totfact>
</mgrwt>
</event>
<event>
11    1  0.3581433E-010  0.2552966E+04  0.7818608E-02  0.8384355E-01
         -2   -1    0    0    0  501 -0.00000000000E+00  0.00000000000E+00  0.15092959663E+04  0.15092959663E+04  0.00000000000E+00 0.  1.
          2   -1    0    0  501    0  0.00000000000E+00 -0.00000000000E+00 -0.10795818033E+04  0.10795818033E+04  0.00000000000E+00 0. -1.
    9900016    2    1    2    0    0  0.35487288187E+03 -0.44634815870E+03  0.53904659040E+03  0.20082616996E+04  0.18486163438E+04 0.  0.
        -24    2    3    3    0    0  0.33992544327E+03 -0.15181027817E+03  0.78761073426E+03  0.87367025367E+03  0.66131504574E+02 0.  0.
        -15    1    3    3    0    0 -0.25066554987E+03 -0.62503175176E+02  0.18955565716E+03  0.32042348847E+03  0.00000000000E+00 0.  1.
        -15    1    3    3    0    0  0.12845297407E+03 -0.28549257749E+03 -0.70802019635E+02  0.32096589279E+03  0.00000000000E+00 0.  1.
         15    1    3    3    0    0  0.61186800271E+02  0.53570815632E+02  0.23586981366E+02  0.84675867311E+02  0.00000000000E+00 0. -1.
         15    1    4    4    0    0  0.15332779388E+03 -0.91229292016E+02  0.31614205631E+03  0.36301239079E+03  0.00000000000E+00 0. -1.
        -16    1    4    4    0    0  0.18659764939E+03 -0.60580986150E+02  0.47146867795E+03  0.51065786288E+03  0.00000000000E+00 0.  1.
         16    1    1    2    0    0 -0.35487288187E+03  0.44634815870E+03 -0.10933242742E+03  0.58061607000E+03  0.00000000000E+00 0. -1.
    9900018    1    3    3    0    0  0.75973214131E+02 -0.11294350181E+00 -0.39090476274E+03  0.40852619739E+03  0.91187600000E+02 0.  0.
<mgrwt>
<rscale>  0 0.25529657E+04</rscale>
<asrwt>0</asrwt>
<pdfrwt beam="1">  1        2 0.16608951E+00 0.25529657E+04</pdfrwt>
<pdfrwt beam="2">  1       -2 0.23219938E+00 0.25529657E+04</pdfrwt>
<totfact> 0.16497369E+00</totfact>
</mgrwt>
</event>
<event>
11    1  0.3581433E-010  0.2282895E+04  0.7818608E-02  0.8484696E-01
          2   -1    0    0  501    0  0.00000000000E+00  0.00000000000E+00  0.25177390977E+04  0.25177390977E+04  0.00000000000E+00 0. -1.
         -2   -1    0    0    0  501 -0.00000000000E+00 -0.00000000000E+00 -0.51748904019E+03  0.51748904019E+03  0.00000000000E+00 0.  1.
    9900016    2    1    2    0    0 -0.88289498153E+02  0.32589112979E+03  0.13807464113E+04  0.23296894560E+04  0.18458039563E+04 0.  0.
        -24    2    3    3    0    0 -0.18872325272E+03 -0.18091248005E+03  0.80632436173E+03  0.84977530435E+03  0.60110731292E+02 0.  0.
        -15    1    3    3    0    0  0.39650329076E+03  0.52166258017E+03  0.46058226334E+03  0.80092616916E+03  0.00000000000E+00 0.  1.
        -15    1    3    3    0    0 -0.78414544410E+02 -0.10737543531E+03  0.20015446170E+02  0.13445795986E+03  0.00000000000E+00 0.  1.
         15    1    4    4    0    0 -0.15258233933E+03 -0.13531440052E+03  0.54140768726E+03  0.57854441583E+03  0.00000000000E+00 0. -1.
         15    1    3    3    0    0 -0.15115331982E+03  0.25780374610E+03  0.15311456647E+03  0.33578887424E+03  0.00000000000E+00 0. -1.
        -16    1    4    4    0    0 -0.36140913385E+02 -0.45598079531E+02  0.26491667447E+03  0.27123088853E+03  0.00000000000E+00 0.  1.
         16    1    1    2    0    0  0.88289498153E+02 -0.32589112979E+03  0.61950364623E+03  0.70553868189E+03  0.00000000000E+00 0. -1.
    9900018    1    3    3    0    0 -0.66501671973E+02 -0.16528728113E+03 -0.59290226449E+02  0.20874114837E+03  0.91187600000E+02 0.  0.
<mgrwt>
<rscale>  0 0.22828950E+04</rscale>
<asrwt>0</asrwt>
<pdfrwt beam="1">  1        2 0.38734447E+00 0.22828950E+04</pdfrwt>
<pdfrwt beam="2">  1       -2 0.79613700E-01 0.22828950E+04</pdfrwt>
<totfact> 0.43129993E+00</totfact>
</mgrwt>
</event>
<event>
10    1  0.3581433E-010  0.2338685E+04  0.7818608E-02  0.8462822E-01
          1   -1    0    0  501    0  0.00000000000E+00  0.00000000000E+00  0.38818905887E+04  0.38818905887E+04  0.00000000000E+00 0. -1.
         -1   -1    0    0    0  501 -0.00000000000E+00 -0.00000000000E+00 -0.35224135357E+03  0.35224135357E+03  0.00000000000E+00 0.  1.
    9900016    2    1    2    0    0 -0.32442427098E+01 -0.21436381063E+03  0.22361136961E+04  0.29229505821E+04  0.18701532759E+04 0.  0.
        -15    1    3    3    0    0 -0.24722332733E+03  0.39299038999E+03  0.89309382208E+03  0.10065671340E+04  0.00000000000E+00 0.  1.
        -15    1    3    3    0    0  0.63174336252E+02 -0.12994615517E+03  0.57579686306E+03  0.59364890930E+03  0.00000000000E+00 0.  1.
         15    1    3    3    0    0 -0.28690072356E+03 -0.22612162464E+03  0.81683093846E+02  0.37431957219E+03  0.00000000000E+00 0. -1.
         15    1    3    3    0    0  0.22917556482E+03 -0.13906994225E+03  0.28619703543E+03  0.39213598590E+03  0.00000000000E+00 0. -1.
        -16    1    3    3    0    0  0.24592683749E+03 -0.15014701079E+03  0.29209288068E+03  0.41029548522E+03  0.00000000000E+00 0.  1.
         16    1    1    2    0    0  0.32442427098E+01  0.21436381063E+03  0.12935355390E+04  0.13111813601E+04  0.00000000000E+00 0. -1.
    9900018    1    3    3    0    0 -0.73969303819E+01  0.37930532236E+02  0.10725000099E+03  0.14598349551E+03  0.91187600000E+02 0.  0.
<mgrwt>
<rscale>  0 0.23386854E+04</rscale>
<asrwt>0</asrwt>
<pdfrwt beam="1">  1        1 0.59721391E+00 0.23386854E+04</pdfrwt>
<pdfrwt beam="2">  1       -1 0.54190980E-01 0.23386854E+04</pdfrwt>
<totfact> 0.37764766E-01</totfact>
</mgrwt>
</event>
<event>
11    1  0.3581433E-010  0.2666243E+04  0.7818608E-02  0.8346042E-01
         -1   -1    0    0    0  501 -0.00000000000E+00  0.00000000000E+00  0.16977853530E+04  0.16977853530E+04  0.00000000000E+00 0.  1.
          1   -1    0    0  501    0  0.00000000000E+00 -0.00000000000E+00 -0.10467829740E+04  0.10467829740E+04  0.00000000000E+00 0. -1.
    9900016    2    1    2    0    0 -0.41664705148E+03 -0.42691354334E+03  0.84115828385E+03  0.21184619405E+04  0.18505360834E+04 0.  0.
        -24    2    3    3    0    0 -0.48571282752E+03 -0.34101916746E+03  0.76680985719E+02  0.60549455145E+03  0.92372370756E+02 0.  0.
        -15    1    3    3    0    0 -0.37169896892E+03 -0.58336657310E+02  0.20250909378E+03  0.42728587871E+03  0.00000000000E+00 0.  1.
        -15    1    3    3    0    0  0.27452030345E+03  0.60573107183E+02  0.45125893753E+03  0.53166260638E+03  0.00000000000E+00 0.  1.
         15    1    3    3    0    0  0.26113613107E+03  0.59751789252E+02 -0.79554339622E+02  0.27944811365E+03  0.00000000000E+00 0. -1.
         15    1    4    4    0    0 -0.32710666301E+03 -0.17817612126E+03  0.32294150333E+02  0.37388288449E+03  0.00000000000E+00 0. -1.
        -16    1    4    4    0    0 -0.15860616451E+03 -0.16284304620E+03  0.44386835386E+02  0.23161166696E+03  0.00000000000E+00 0.  1.
         16    1    1    2    0    0  0.41664705148E+03  0.42691354334E+03 -0.19015590482E+03  0.62610638643E+03  0.00000000000E+00 0. -1.
    9900018    1    3    3    0    0 -0.94891689573E+02 -0.14788261500E+03  0.19026360644E+03  0.27457079033E+03  0.91187600000E+02 0.  0.
<mgrwt>
<rscale>  0 0.26662429E+04</rscale>
<asrwt>0</asrwt>
<pdfrwt beam="1">  1        1 0.16104354E+00 0.26662429E+04</pdfrwt>
<pdfrwt beam="2">  1       -1 0.26119775E+00 0.26662429E+04</pdfrwt>
<totfact> 0.71827334E-01</totfact>
</mgrwt>
</event>
<event>
11    1  0.3581433E-010  0.2152938E+04  0.7818608E-02  0.8538276E-01
         -2   -1    0    0    0  501 -0.00000000000E+00  0.00000000000E+00  0.38046566074E+03  0.38046566074E+03  0.00000000000E+00 0.  1.
          2   -1    0    0  501    0  0.00000000000E+00 -0.00000000000E+00 -0.30457034107E+04  0.30457034107E+04  0.00000000000E+00 0. -1.
    9900016    2    1    2    0    0  0.91561909177E+02 -0.24178730077E+03 -0.20693901761E+04  0.27766469291E+04  0.18331796928E+04 0.  0.
        -24    2    3    3    0    0  0.13874526453E+03 -0.46846034233E+03 -0.30504349409E+03  0.57841426831E+03  0.52973500223E+02 0.  0.
        -15    1    3    3    0    0 -0.16601272584E+03 -0.63088440776E+02 -0.10712895703E+04  0.10859105488E+04  0.00000000000E+00 0.  1.
        -15    1    3    3    0    0  0.34822145285E+03  0.13258814634E+03 -0.68100339821E+02  0.37878153738E+03  0.00000000000E+00 0.  1.
         15    1    3    3    0    0 -0.13714349276E+03  0.60904661758E+02 -0.51924252548E+03  0.54049099502E+03  0.00000000000E+00 0. -1.
         15    1    4    4    0    0  0.73390463606E+02 -0.20272338880E+03 -0.10754111584E+03  0.24093157558E+03  0.00000000000E+00 0. -1.
        -16    1    4    4    0    0  0.65354800923E+02 -0.26573695354E+03 -0.19750237825E+03  0.33748269273E+03  0.00000000000E+00 0.  1.
         16    1    1    2    0    0 -0.91561909177E+02  0.24178730077E+03 -0.59584757391E+03  0.64952214232E+03  0.00000000000E+00 0. -1.
    9900018    1    3    3    0    0 -0.92248589594E+02  0.96268674238E+02 -0.10571424637E+03  0.19304957964E+03  0.91187600000E+02 0.  0.
<mgrwt>
<rscale>  0 0.21529380E+04</rscale>
<asrwt>0</asrwt>
<pdfrwt beam="1">  1        2 0.46856978E+00 0.21529380E+04</pdfrwt>
<pdfrwt beam="2">  1       -2 0.58533176E-01 0.21529380E+04</pdfrwt>
<totfact> 0.40868941E+00</totfact>
</mgrwt>
</event>
<event>
11    1  0.3581433E-010  0.2784698E+04  0.7818608E-02  0.8308035E-01
          2   -1    0    0  501    0  0.00000000000E+00  0.00000000000E+00  0.13202577979E+04  0.13202577979E+04  0.00000000000E+00 0.  1.
         -2   -1    0    0    0  501 -0.00000000000E+00 -0.00000000000E+00 -0.14683763055E+04  0.14683763055E+04  0.00000000000E+00 0. -1.
    9900016    2    1    2    0    0  0.69854233402E+03  0.34234246135E+03 -0.19730710487E+03  0.20091603890E+04  0.18419108615E+04 0.  0.
        -24    2    3    3    0    0 -0.23729403647E+03  0.29516835075E+03  0.24044048013E+03  0.45380946648E+03  0.68546278935E+02 0.  0.
        -15    1    3    3    0    0  0.46213599837E+03 -0.13710491680E+02 -0.43200826161E+03  0.63276282814E+03  0.00000000000E+00 0.  1.
        -15    1    3    3    0    0  0.10151911460E+03 -0.72446075636E+02  0.19731765807E+03  0.23342841021E+03  0.00000000000E+00 0.  1.
         15    1    3    3    0    0 -0.41808644715E+02 -0.14275395406E+03 -0.15237923667E+02  0.14952875473E+03  0.00000000000E+00 0. -1.
         15    1    4    4    0    0 -0.12036708971E+03  0.11930627310E+03  0.74037112967E+02  0.18494246993E+03  0.00000000000E+00 0. -1.
        -16    1    4    4    0    0 -0.11692694676E+03  0.17586207765E+03  0.16640336716E+03  0.26886699656E+03  0.00000000000E+00 0.  1.
         16    1    1    2    0    0 -0.69854233402E+03 -0.34234246135E+03  0.49188597229E+02  0.77947371434E+03  0.00000000000E+00 0. -1.
    9900018    1    3    3    0    0  0.41398990223E+03  0.27608463197E+03 -0.18781905779E+03  0.53963092945E+03  0.91187600000E+02 0.  0.
<mgrwt>
<rscale>  0 0.27846977E+04</rscale>
<asrwt>0</asrwt>
<pdfrwt beam="1">  1        2 0.20311658E+00 0.27846977E+04</pdfrwt>
<pdfrwt beam="2">  1       -2 0.22590405E+00 0.27846977E+04</pdfrwt>
<totfact> 0.12714727E+00</totfact>
</mgrwt>
</event>
<event>
10    1  0.3581433E-010  0.3200338E+04  0.7818608E-02  0.8188728E-01
         -2   -1    0    0    0  501 -0.00000000000E+00  0.00000000000E+00  0.19451853422E+04  0.19451853422E+04  0.00000000000E+00 0.  1.
          2   -1    0    0  501    0  0.00000000000E+00 -0.00000000000E+00 -0.13163478302E+04  0.13163478302E+04  0.00000000000E+00 0. -1.
    9900016    2    1    2    0    0 -0.40940459332E+03 -0.53786559997E+03 -0.41007013224E+03  0.20220814315E+04  0.18611137197E+04 0.  0.
        -15    1    3    3    0    0  0.13453760894E+03 -0.44516787485E+03  0.24759181340E+03  0.52685530374E+03  0.00000000000E+00 0.  1.
        -15    1    3    3    0    0 -0.45060592579E+03  0.18786605142E+03 -0.20660026677E+03  0.53011604754E+03  0.00000000000E+00 0.  1.
         15    1    3    3    0    0 -0.48185733288E+02  0.24146030639E+02 -0.93765557831E+02  0.10815209440E+03  0.00000000000E+00 0. -1.
         15    1    3    3    0    0  0.12760311365E+03  0.10639394089E+03  0.18932575997E+02  0.16721443630E+03  0.00000000000E+00 0. -1.
        -16    1    3    3    0    0 -0.10928283385E+03  0.14650637115E+02 -0.17280232433E+03  0.20498298036E+03  0.00000000000E+00 0.  1.
         16    1    1    2    0    0  0.40940459332E+03  0.53786559997E+03  0.10389076442E+04  0.12394517409E+04  0.00000000000E+00 0. -1.
    9900018    1    3    3    0    0 -0.63470822990E+02 -0.42575438519E+03 -0.20342637271E+03  0.48476056914E+03  0.91187600000E+02 0.  0.
<mgrwt>
<rscale>  0 0.32003378E+04</rscale>
<asrwt>0</asrwt>
<pdfrwt beam="1">  1        2 0.20251505E+00 0.32003378E+04</pdfrwt>
<pdfrwt beam="2">  1       -2 0.29925928E+00 0.32003378E+04</pdfrwt>
<totfact> 0.43732515E-01</totfact>
</mgrwt>
</event>
<event>
11    1  0.3581433E-010  0.2719935E+04  0.7818608E-02  0.8328566E-01
         -2   -1    0    0    0  501 -0.00000000000E+00  0.00000000000E+00  0.55128299685E+03  0.55128299685E+03  0.00000000000E+00 0.  1.
          2   -1    0    0  501    0  0.00000000000E+00 -0.00000000000E+00 -0.33549213211E+04  0.33549213211E+04  0.00000000000E+00 0. -1.
    9900016    2    1    2    0    0 -0.50215758135E+03 -0.50311505435E+03 -0.17773660415E+04  0.26577966150E+04  0.18437911506E+04 0.  0.
         24    2    3    3    0    0  0.52387284015E+02  0.20049380934E+03 -0.39196615255E+03  0.45456553019E+03  0.10025049317E+03 0.  0.
        -15    1    3    3    0    0  0.43903676007E+02  0.45079419549E+02 -0.47706391655E+02  0.78965730785E+02  0.00000000000E+00 0.  1.
        -15    1    4    4    0    0  0.67729412564E+02  0.99373888436E+02 -0.15280408343E+03  0.19445187307E+03  0.00000000000E+00 0.  1.
         15    1    3    3    0    0 -0.64553762607E+03 -0.78347079154E+03 -0.10314286338E+04  0.14472008618E+04  0.00000000000E+00 0. -1.
         15    1    3    3    0    0  0.17534034046E+03  0.10152343702E+03  0.10751374208E+03  0.22936967540E+03  0.00000000000E+00 0. -1.
        -16    1    1    2    0    0  0.50215758135E+03  0.50311505435E+03 -0.10262722828E+04  0.12484077030E+04  0.00000000000E+00 0.  1.
         16    1    4    4    0    0 -0.15342128549E+02  0.10111992091E+03 -0.23916206912E+03  0.26011365711E+03  0.00000000000E+00 0. -1.
    9900018    1    3    3    0    0 -0.12825125575E+03 -0.66740928729E+02 -0.41377860556E+03  0.44769481679E+03  0.91187600000E+02 0.  0.
<mgrwt>
<rscale>  0 0.27199346E+04</rscale>
<asrwt>0</asrwt>
<pdfrwt beam="1">  1        2 0.51614175E+00 0.27199346E+04</pdfrwt>
<pdfrwt beam="2">  1       -2 0.84812767E-01 0.27199346E+04</pdfrwt>
<totfact> 0.10851062E+00</totfact>
</mgrwt>
</event>
<event>
11    1  0.3581433E-010  0.2412640E+04  0.7818608E-02  0.8434786E-01
         -1   -1    0    0    0  501 -0.00000000000E+00  0.00000000000E+00  0.71111680478E+03  0.71111680478E+03  0.00000000000E+00 0.  1.
          1   -1    0    0  501    0  0.00000000000E+00 -0.00000000000E+00 -0.20463702447E+04  0.20463702447E+04  0.00000000000E+00 0. -1.
    9900016    2    1    2    0    0 -0.49322606106E+03  0.72615413955E+02 -0.11007342722E+04  0.22065386076E+04  0.18462534341E+04 0.  0.
        -24    2    3    3    0    0 -0.28884926574E+03  0.69999821398E+03 -0.88210826368E+03  0.11671072904E+04  0.10292249773E+03 0.  0.
        -15    1    3    3    0    0 -0.75083050533E+02 -0.56495909463E+02 -0.51299324029E+02  0.10705546651E+03  0.00000000000E+00 0.  1.
        -15    1    3    3    0    0  0.13646511165E+03 -0.15424185796E+03 -0.53814247246E+02  0.21285969710E+03  0.00000000000E+00 0.  1.
         15    1    3    3    0    0  0.14185964169E+03 -0.52481492114E+02  0.10632947432E+02  0.15162956349E+03  0.00000000000E+00 0. -1.
         15    1    4    4    0    0 -0.17678529682E+03  0.50156385944E+03 -0.67353853098E+03  0.85818034176E+03  0.00000000000E+00 0. -1.
        -16    1    4    4    0    0 -0.11206396893E+03  0.19843435454E+03 -0.20856973270E+03  0.30892694864E+03  0.00000000000E+00 0.  1.
         16    1    1    2    0    0  0.49322606106E+03 -0.72615413955E+02 -0.23451916767E+03  0.55094844192E+03  0.00000000000E+00 0. -1.
    9900018    1    3    3    0    0 -0.40761849811E+03 -0.36416354049E+03 -0.12414538471E+03  0.56788659006E+03  0.91187600000E+02 0.  0.
<mgrwt>
<rscale>  0 0.24126403E+04</rscale>
<asrwt>0</asrwt>
<pdfrwt beam="1">  1        1 0.31482619E+00 0.24126403E+04</pdfrwt>
<pdfrwt beam="2">  1       -1 0.10940259E+00 0.24126403E+04</pdfrwt>
<totfact> 0.19175717E+00</totfact>
</mgrwt>
</event>
<event>
11    1  0.3581433E-010  0.2390893E+04  0.7818608E-02  0.8442921E-01
          1   -1    0    0  501    0  0.00000000000E+00  0.00000000000E+00  0.13652854360E+04  0.13652854360E+04  0.00000000000E+00 0. -1.
         -1   -1    0    0    0  501 -0.00000000000E+00 -0.00000000000E+00 -0.10467350265E+04  0.10467350265E+04  0.00000000000E+00 0.  1.
    9900016    2    1    2    0    0 -0.12164620548E+03  0.39362922669E+03  0.13078410323E+01  0.18920352564E+04  0.18466331345E+04 0.  0.
        -24    2    3    3    0    0  0.27543169320E+03 -0.95853910680E+02  0.18525282774E+02  0.31166084265E+03  0.10834530414E+03 0.  0.
        -15    1    3    3    0    0 -0.52027353060E+02  0.60313022442E+03  0.15282360283E+03  0.62436204773E+03  0.00000000000E+00 0.  1.
        -15    1    3    3    0    0 -0.62203787203E+02 -0.21737983438E+03 -0.30747143779E+03  0.38165689906E+03  0.00000000000E+00 0.  1.
         15    1    4    4    0    0  0.25744096431E+03 -0.65005329069E+02  0.42144777822E+02  0.26884516959E+03  0.00000000000E+00 0. -1.
         15    1    3    3    0    0 -0.16779175636E+03  0.92414906633E+01  0.29478505171E+03  0.33931947389E+03  0.00000000000E+00 0. -1.
        -16    1    4    4    0    0  0.17990728885E+02 -0.30848581611E+02 -0.23619495048E+02  0.42815673060E+02  0.00000000000E+00 0.  1.
         16    1    1    2    0    0  0.12164620548E+03 -0.39362922669E+03  0.31724256843E+03  0.51998520617E+03  0.00000000000E+00 0. -1.
    9900018    1    3    3    0    0 -0.11505500206E+03  0.94491256671E+02 -0.15735465849E+03  0.23503599305E+03  0.91187600000E+02 0.  0.
<mgrwt>
<rscale>  0 0.23908928E+04</rscale>
<asrwt>0</asrwt>
<pdfrwt beam="1">  1        1 0.21004391E+00 0.23908928E+04</pdfrwt>
<pdfrwt beam="2">  1       -1 0.16103616E+00 0.23908928E+04</pdfrwt>
<totfact> 0.20923393E+00</totfact>
</mgrwt>
</event>
<event>
11    1  0.3581433E-010  0.2220955E+04  0.7818608E-02  0.8509756E-01
         -2   -1    0    0    0  501 -0.00000000000E+00  0.00000000000E+00  0.38570178442E+03  0.38570178442E+03  0.00000000000E+00 0.  1.
          2   -1    0    0  501    0  0.00000000000E+00 -0.00000000000E+00 -0.31971871444E+04  0.31971871444E+04  0.00000000000E+00 0. -1.
    9900016    2    1    2    0    0 -0.32014967212E+03 -0.90064904271E+02 -0.25429736029E+04  0.31554476308E+04  0.18383491253E+04 0.  0.
         24    2    3    3    0    0 -0.41224903070E+03  0.37691940573E+03 -0.71986781645E+03  0.91273266828E+03  0.53420490933E+02 0.  0.
        -15    1    4    4    0    0 -0.11041193973E+03  0.12549402759E+03 -0.24216017070E+03  0.29424665787E+03  0.00000000000E+00 0.  1.
        -15    1    3    3    0    0  0.89812663424E+02 -0.47950246289E+02 -0.29401660308E+03  0.31114514864E+03  0.00000000000E+00 0.  1.
         15    1    3    3    0    0 -0.21848583268E+03 -0.10146637329E+03 -0.37782948739E+03  0.44809218419E+03  0.00000000000E+00 0. -1.
         15    1    3    3    0    0  0.29210807795E+03  0.10159771020E+02 -0.12168747508E+02  0.29253790962E+03  0.00000000000E+00 0. -1.
        -16    1    1    2    0    0  0.32014967212E+03  0.90064904271E+02 -0.26851175712E+03  0.42744129802E+03  0.00000000000E+00 0.  1.
         16    1    4    4    0    0 -0.30183709098E+03  0.25142537813E+03 -0.47770764575E+03  0.61848601040E+03  0.00000000000E+00 0. -1.
    9900018    1    3    3    0    0 -0.71335550110E+02 -0.32772746144E+03 -0.11390909484E+04  0.11909397201E+04  0.91187600000E+02 0.  0.
<mgrwt>
<rscale>  0 0.22209555E+04</rscale>
<asrwt>0</asrwt>
<pdfrwt beam="1">  1        2 0.49187494E+00 0.22209555E+04</pdfrwt>
<pdfrwt beam="2">  1       -2 0.59338737E-01 0.22209555E+04</pdfrwt>
<totfact> 0.31563504E+00</totfact>
</mgrwt>
</event>
<event>
11    1  0.3581433E-010  0.2475499E+04  0.7818608E-02  0.8411767E-01
         -1   -1    0    0    0  501 -0.00000000000E+00  0.00000000000E+00  0.65942029951E+03  0.65942029951E+03  0.00000000000E+00 0.  1.
          1   -1    0    0  501    0  0.00000000000E+00 -0.00000000000E+00 -0.23232883964E+04  0.23232883964E+04  0.00000000000E+00 0. -1.
    9900016    2    1    2    0    0  0.88738631328E+01  0.76373820738E+02 -0.67936503743E+03  0.19952078199E+04  0.18744080892E+04 0.  0.
        -24    2    3    3    0    0 -0.26569997695E+03  0.54489599974E+03 -0.61271109430E+03  0.86692107091E+03  0.92893109634E+02 0.  0.
        -15    1    3    3    0    0  0.32369452702E+03 -0.11371434137E+03  0.62711210792E+02  0.34877183690E+03  0.00000000000E+00 0.  1.
        -15    1    3    3    0    0 -0.22917525968E+03  0.28833460485E+02  0.94037678036E+02  0.24939076363E+03  0.00000000000E+00 0.  1.
         15    1    3    3    0    0  0.11757526595E+03 -0.93979659852E+02 -0.14790818752E+03  0.21102831934E+03  0.00000000000E+00 0. -1.
         15    1    4    4    0    0 -0.25329480682E+02  0.12782893345E+03 -0.15718965810E+03  0.20418228971E+03  0.00000000000E+00 0. -1.
        -16    1    4    4    0    0 -0.24037049627E+03  0.41706706629E+03 -0.45552143620E+03  0.66273878120E+03  0.00000000000E+00 0.  1.
         16    1    1    2    0    0 -0.88738631328E+01 -0.76373820738E+02 -0.98450305947E+03  0.98750087597E+03  0.00000000000E+00 0. -1.
    9900018    1    3    3    0    0  0.62479306797E+02 -0.28966163827E+03 -0.75494644437E+02  0.31909582917E+03  0.91187600000E+02 0.  0.
<mgrwt>
<rscale>  0 0.24754988E+04</rscale>
<asrwt>0</asrwt>
<pdfrwt beam="1">  1        1 0.35742898E+00 0.24754988E+04</pdfrwt>
<pdfrwt beam="2">  1       -1 0.10144928E+00 0.24754988E+04</pdfrwt>
<totfact> 0.14722641E+00</totfact>
</mgrwt>
</event>
<event>
11    1  0.3581433E-010  0.2032204E+04  0.7818608E-02  0.8591710E-01
          1   -1    0    0  501    0  0.00000000000E+00  0.00000000000E+00  0.83327560859E+03  0.83327560859E+03  0.00000000000E+00 0. -1.
         -1   -1    0    0    0  501 -0.00000000000E+00 -0.00000000000E+00 -0.12390422559E+04  0.12390422559E+04  0.00000000000E+00 0.  1.
    9900016    2    1    2    0    0  0.76458736844E+02 -0.13681206368E+02 -0.20844409229E+03  0.18602581923E+04  0.18469105253E+04 0.  0.
         24    2    3    3    0    0  0.20600642568E+03 -0.52608798463E+03 -0.23536594543E+03  0.62185651568E+03  0.11000537640E+03 0.  0.
        -15    1    3    3    0    0  0.77006445110E+02  0.60561945977E+02  0.21038106343E+02  0.10020151599E+03  0.00000000000E+00 0.  1.
        -15    1    4    4    0    0  0.90738824354E+02 -0.32532741644E+03 -0.93895797787E+02  0.35055368059E+03  0.00000000000E+00 0.  1.
         15    1    3    3    0    0  0.64501332470E+02  0.22541437235E+03  0.30555677688E+02  0.23644388466E+03  0.00000000000E+00 0. -1.
         15    1    3    3    0    0  0.26313525751E+03 -0.46141892589E+02 -0.11051441017E+03  0.28910668074E+03  0.00000000000E+00 0. -1.
        -16    1    1    2    0    0 -0.76458736844E+02  0.13681206368E+02 -0.19732255498E+03  0.21205967215E+03  0.00000000000E+00 0.  1.
         16    1    4    4    0    0  0.11526760133E+03 -0.20076056819E+03 -0.14147014765E+03  0.27130283509E+03  0.00000000000E+00 0. -1.
    9900018    1    3    3    0    0 -0.53419072392E+03  0.27257235252E+03  0.85842479285E+02  0.61264959522E+03  0.91187600000E+02 0.  0.
<mgrwt>
<rscale>  0 0.20322044E+04</rscale>
<asrwt>0</asrwt>
<pdfrwt beam="1">  1        1 0.12819625E+00 0.20322044E+04</pdfrwt>
<pdfrwt beam="2">  1       -1 0.19062188E+00 0.20322044E+04</pdfrwt>
<totfact> 0.33485491E+00</totfact>
</mgrwt>
</event>
<event>
11    1  0.4884527E-010  0.1995749E+04  0.7818608E-02  0.8608611E-01
          1   -1    0    0  501    0  0.00000000000E+00  0.00000000000E+00  0.16044108471E+04  0.16044108471E+04  0.00000000000E+00 0. -1.
         -1   -1    0    0    0  501 -0.00000000000E+00 -0.00000000000E+00 -0.62063483897E+03  0.62063483897E+03  0.00000000000E+00 0.  1.
    9900016    2    1    2    0    0 -0.10869321588E+03  0.69766903728E+02  0.10175463507E+04  0.20915463525E+04  0.18227682060E+04 0.  0.
         24    2    3    3    0    0  0.38618457841E+03  0.20335862111E+03 -0.16724067161E+02  0.44977297362E+03  0.10734419403E+03 0.  0.
        -15    1    4    4    0    0  0.41097811355E+02  0.62521913240E+02  0.12714995721E+02  0.75892627109E+02  0.00000000000E+00 0.  1.
        -15    1    3    3    0    0  0.99498749804E+02 -0.20387607400E+03  0.51549847378E+01  0.22691855065E+03  0.00000000000E+00 0.  1.
         15    1    3    3    0    0 -0.14029040225E+03 -0.15307151306E+03  0.20931992329E+03  0.29483404715E+03  0.00000000000E+00 0. -1.
         15    1    3    3    0    0 -0.15203683634E+03  0.31131065837E+03  0.15629421143E+03  0.38007552689E+03  0.00000000000E+00 0. -1.
        -16    1    1    2    0    0  0.10869321588E+03 -0.69766903728E+02 -0.33770342547E+02  0.13349933360E+03  0.00000000000E+00 0.  1.
         16    1    4    4    0    0  0.34508676706E+03  0.14083670787E+03 -0.29439062883E+02  0.37388034651E+03  0.00000000000E+00 0. -1.
    9900018    1    3    3    0    0 -0.30204930552E+03 -0.87954788688E+02  0.66350129843E+03  0.73994525421E+03  0.91187600000E+02 0.  0.
<mgrwt>
<rscale>  0 0.19957487E+04</rscale>
<asrwt>0</asrwt>
<pdfrwt beam="1">  1        1 0.24683244E+00 0.19957487E+04</pdfrwt>
<pdfrwt beam="2">  1       -1 0.95482284E-01 0.19957487E+04</pdfrwt>
<totfact> 0.54433145E+00</totfact>
</mgrwt>
</event>
<event>
10    1  0.3581433E-010  0.2702789E+04  0.7818608E-02  0.8334101E-01
          1   -1    0    0  501    0  0.00000000000E+00  0.00000000000E+00  0.15003257118E+04  0.15003257118E+04  0.00000000000E+00 0. -1.
         -1   -1    0    0    0  501 -0.00000000000E+00 -0.00000000000E+00 -0.12172468985E+04  0.12172468985E+04  0.00000000000E+00 0.  1.
    9900016    2    1    2    0    0 -0.67803022483E+03 -0.23564416909E+03  0.12520432437E+03  0.19826049140E+04  0.18438527496E+04 0.  0.
        -15    1    3    3    0    0  0.82804955618E+02 -0.62992922351E+03  0.26127390650E+03  0.68697273710E+03  0.00000000000E+00 0.  1.
        -15    1    3    3    0    0 -0.15117154071E+03  0.24648619929E+03 -0.16458618389E+03  0.33271142614E+03  0.00000000000E+00 0.  1.
         15    1    3    3    0    0 -0.32017154869E+02  0.95497955867E+02  0.18633293459E+03  0.21181340914E+03  0.00000000000E+00 0. -1.
         15    1    3    3    0    0 -0.31072076012E+03  0.83144881729E+02 -0.33889965407E+02  0.32343313356E+03  0.00000000000E+00 0. -1.
        -16    1    3    3    0    0 -0.26236877075E+03  0.36941682649E+02 -0.76946971584E+01  0.26506842164E+03  0.00000000000E+00 0.  1.
         16    1    1    2    0    0  0.67803022483E+03  0.23564416909E+03  0.15787448890E+03  0.73496769620E+03  0.00000000000E+00 0. -1.
    9900018    1    3    3    0    0 -0.45569539959E+01 -0.67785665119E+02 -0.11623167027E+03  0.16260578646E+03  0.91187600000E+02 0.  0.
<mgrwt>
<rscale>  0 0.27027888E+04</rscale>
<asrwt>0</asrwt>
<pdfrwt beam="1">  1        1 0.23081934E+00 0.27027888E+04</pdfrwt>
<pdfrwt beam="2">  1       -1 0.18726875E+00 0.27027888E+04</pdfrwt>
<totfact> 0.10542784E+00</totfact>
</mgrwt>
</event>
<event>
11    1  0.3581433E-010  0.2939482E+04  0.7818608E-02  0.8261226E-01
         -2   -1    0    0    0  501 -0.00000000000E+00  0.00000000000E+00  0.64025632501E+03  0.64025632501E+03  0.00000000000E+00 0.  1.
          2   -1    0    0  501    0  0.00000000000E+00 -0.00000000000E+00 -0.33738659289E+04  0.33738659289E+04  0.00000000000E+00 0. -1.
    9900016    2    1    2    0    0 -0.31504470305E+03 -0.49047137156E+03 -0.28258626052E+04  0.34239308040E+04  0.18433630560E+04 0.  0.
         24    2    3    3    0    0 -0.38806933841E+03 -0.23125770282E+03 -0.30370788021E+03  0.54694786957E+03  0.53249967168E+02 0.  0.
        -15    1    4    4    0    0 -0.14379925344E+03 -0.57598790225E+02 -0.11235358325E+03  0.19136136913E+03  0.00000000000E+00 0.  1.
        -15    1    3    3    0    0 -0.18715208229E+03  0.14088430050E+03 -0.81547250721E+03  0.84845135279E+03  0.00000000000E+00 0.  1.
         15    1    3    3    0    0  0.57742795854E+03 -0.24382608853E+03 -0.67055927698E+03  0.91789103531E+03  0.00000000000E+00 0. -1.
         15    1    3    3    0    0 -0.11068710803E+03 -0.82486736919E+02 -0.58193195333E+03  0.59808067679E+03  0.00000000000E+00 0. -1.
        -16    1    1    2    0    0  0.31504470305E+03  0.49047137156E+03  0.92253001287E+02  0.59019144986E+03  0.00000000000E+00 0.  1.
         16    1    4    4    0    0 -0.24427008497E+03 -0.17365891260E+03 -0.19135429696E+03  0.35558650044E+03  0.00000000000E+00 0. -1.
    9900018    1    3    3    0    0 -0.20656413287E+03 -0.73785143797E+02 -0.45419098743E+03  0.51255986956E+03  0.91187600000E+02 0.  0.
<mgrwt>
<rscale>  0 0.29394823E+04</rscale>
<asrwt>0</asrwt>
<pdfrwt beam="1">  1        2 0.51905629E+00 0.29394823E+04</pdfrwt>
<pdfrwt beam="2">  1       -2 0.98500975E-01 0.29394823E+04</pdfrwt>
<totfact> 0.73103628E-01</totfact>
</mgrwt>
</event>
<event>
10    1  0.3581433E-010  0.3564683E+04  0.7818608E-02  0.8098630E-01
         -1   -1    0    0    0  501 -0.00000000000E+00  0.00000000000E+00  0.20875037345E+04  0.20875037345E+04  0.00000000000E+00 0.  1.
          1   -1    0    0  501    0  0.00000000000E+00 -0.00000000000E+00 -0.15217893567E+04  0.15217893567E+04  0.00000000000E+00 0. -1.
    9900016    2    1    2    0    0  0.10284214688E+04 -0.78907167314E+03  0.50078567716E+03  0.23114099843E+04  0.18470368156E+04 0.  0.
        -15    1    3    3    0    0  0.22755541310E+03  0.65352065657E+02  0.30052727640E+03  0.38258202046E+03  0.00000000000E+00 0.  1.
        -15    1    3    3    0    0  0.42848846746E+03 -0.33124987023E+03 -0.95736297215E+02  0.54999480168E+03  0.00000000000E+00 0.  1.
         15    1    3    3    0    0 -0.10606775857E+03 -0.20791604205E+03 -0.21704185203E+03  0.31872655284E+03  0.00000000000E+00 0. -1.
         15    1    3    3    0    0  0.89649696701E+02  0.12875417281E+03  0.20972348540E+03  0.26191343124E+03  0.00000000000E+00 0. -1.
        -16    1    3    3    0    0  0.19094684667E+02 -0.46802289892E+02 -0.10263495796E+03  0.11440714977E+03  0.00000000000E+00 0.  1.
         16    1    1    2    0    0 -0.10284214688E+04  0.78907167314E+03  0.64928700604E+02  0.12978831069E+04  0.00000000000E+00 0. -1.
    9900018    1    3    3    0    0  0.36970096549E+03 -0.39720970943E+03  0.40594802257E+03  0.68378602835E+03  0.91187600000E+02 0.  0.
<mgrwt>
<rscale>  0 0.35646829E+04</rscale>
<asrwt>0</asrwt>
<pdfrwt beam="1">  1        1 0.23412144E+00 0.35646829E+04</pdfrwt>
<pdfrwt beam="2">  1       -1 0.32115442E+00 0.35646829E+04</pdfrwt>
<totfact> 0.12328996E-01</totfact>
</mgrwt>
</event>
<event>
11    1  0.3581433E-010  0.2685985E+04  0.7818608E-02  0.8339567E-01
          2   -1    0    0  501    0  0.00000000000E+00  0.00000000000E+00  0.10804113700E+04  0.10804113700E+04  0.00000000000E+00 0. -1.
         -2   -1    0    0    0  501 -0.00000000000E+00 -0.00000000000E+00 -0.16693914308E+04  0.16693914308E+04  0.00000000000E+00 0.  1.
    9900016    2    1    2    0    0 -0.23447822615E+03  0.56133932403E+03 -0.80260866028E+03  0.21050400121E+04  0.18484942293E+04 0.  0.
        -24    2    3    3    0    0  0.29939516023E+03 -0.97461275477E+02  0.27151641158E+03  0.42546545870E+03  0.90352269475E+02 0.  0.
        -15    1    3    3    0    0 -0.35622633034E+03  0.43148553774E+03 -0.71317578328E+03  0.90647485655E+03  0.00000000000E+00 0.  1.
        -15    1    3    3    0    0 -0.38956018011E+02  0.35895314111E+03 -0.14638873716E+03  0.38960825353E+03  0.00000000000E+00 0.  1.
         15    1    3    3    0    0  0.24747015769E+02 -0.40389827480E+02  0.34692440159E+02  0.58713868528E+02  0.00000000000E+00 0. -1.
         15    1    4    4    0    0  0.47517235271E+02  0.33565990253E+01  0.10069998393E+02  0.48688389503E+02  0.00000000000E+00 0. -1.
        -16    1    4    4    0    0  0.25187792496E+03 -0.10081787450E+03  0.26144641319E+03  0.37677706919E+03  0.00000000000E+00 0.  1.
         16    1    1    2    0    0  0.23447822615E+03 -0.56133932403E+03  0.21362859948E+03  0.64476278875E+03  0.00000000000E+00 0. -1.
    9900018    1    3    3    0    0 -0.16343805380E+03 -0.91248251865E+02 -0.24925299157E+03  0.32477757481E+03  0.91187600000E+02 0.  0.
<mgrwt>
<rscale>  0 0.26859855E+04</rscale>
<asrwt>0</asrwt>
<pdfrwt beam="1">  1        2 0.16621713E+00 0.26859855E+04</pdfrwt>
<pdfrwt beam="2">  1       -2 0.25682945E+00 0.26859855E+04</pdfrwt>
<totfact> 0.11480234E+00</totfact>
</mgrwt>
</event>
<event>
11    1  0.3581433E-010  0.2376272E+04  0.7818608E-02  0.8448441E-01
         -1   -1    0    0    0  501 -0.00000000000E+00  0.00000000000E+00  0.12053897343E+04  0.12053897343E+04  0.00000000000E+00 0.  1.
          1   -1    0    0  501    0  0.00000000000E+00 -0.00000000000E+00 -0.11711296485E+04  0.11711296485E+04  0.00000000000E+00 0. -1.
    9900016    2    1    2    0    0  0.34741232146E+03 -0.31824583164E+03  0.42263213236E+02  0.19053084104E+04  0.18456538757E+04 0.  0.
         24    2    3    3    0    0 -0.10759980069E+03  0.11741187859E+03  0.91966076043E+02  0.20676878973E+03  0.94510882542E+02 0.  0.
        -15    1    3    3    0    0  0.14321813289E+03 -0.18789270385E+03  0.43667175104E+03  0.49648496443E+03  0.00000000000E+00 0.  1.
        -15    1    4    4    0    0 -0.33310787212E+01  0.69179166487E+02  0.45358958318E+02  0.82790629065E+02  0.00000000000E+00 0.  1.
         15    1    3    3    0    0  0.22199905160E+03 -0.53384425496E+03 -0.11193543966E+03  0.58889966049E+03  0.00000000000E+00 0. -1.
         15    1    3    3    0    0  0.21958079629E+03  0.22801884666E+03 -0.24939361667E+03  0.40299565328E+03  0.00000000000E+00 0. -1.
        -16    1    1    2    0    0 -0.34741232146E+03  0.31824583164E+03 -0.80031275001E+01  0.47121097240E+03  0.00000000000E+00 0.  1.
         16    1    4    4    0    0 -0.10426872197E+03  0.48232712104E+02  0.46607117725E+02  0.12397816066E+03  0.00000000000E+00 0. -1.
    9900018    1    3    3    0    0 -0.12978585863E+03  0.58060401922E+02 -0.12504555752E+03  0.21015934246E+03  0.91187600000E+02 0.  0.
<mgrwt>
<rscale>  0 0.23762724E+04</rscale>
<asrwt>0</asrwt>
<pdfrwt beam="1">  1        1 0.18017379E+00 0.23762724E+04</pdfrwt>
<pdfrwt beam="2">  1       -1 0.18544457E+00 0.23762724E+04</pdfrwt>
<totfact> 0.19173435E+00</totfact>
</mgrwt>
</event>
<event>
10    1  0.3581433E-010  0.3069766E+04  0.7818608E-02  0.8224085E-01
         -2   -1    0    0    0  501 -0.00000000000E+00  0.00000000000E+00  0.88597984378E+03  0.88597984378E+03  0.00000000000E+00 0.  1.
          2   -1    0    0  501    0  0.00000000000E+00 -0.00000000000E+00 -0.26590521172E+04  0.26590521172E+04  0.00000000000E+00 0. -1.
    9900016    2    1    2    0    0 -0.12503726412E+03  0.29616272200E+03 -0.10818113359E+03  0.18493877817E+04  0.18180168685E+04 0.  0.
        -15    1    3    3    0    0  0.36493290409E+03  0.12270316256E+03 -0.37006590754E+03  0.53402328275E+03  0.00000000000E+00 0.  1.
        -15    1    3    3    0    0  0.17514115311E+02  0.11850323406E+02 -0.18819203567E+01  0.21230073580E+02  0.00000000000E+00 0. -1.
         15    1    3    3    0    0 -0.13369600790E+02 -0.86048791954E+02 -0.91236160854E+02  0.12612366102E+03  0.00000000000E+00 0. -1.
         15    1    3    3    0    0  0.34895223489E+02  0.85888116742E+02 -0.68273551496E+02  0.11513350100E+03  0.00000000000E+00 0.  1.
        -16    1    3    3    0    0 -0.19006661988E+03 -0.17765159234E+03 -0.14963564871E+03  0.30012703247E+03  0.00000000000E+00 0.  1.
         16    1    1    2    0    0  0.12503726412E+03 -0.29616272200E+03 -0.16648911399E+04  0.16956441793E+04  0.00000000000E+00 0. -1.
    9900018    1    3    3    0    0 -0.33894328635E+03  0.33942150360E+03  0.57291205537E+03  0.75275023085E+03  0.91187600000E+02 0.  0.
<mgrwt>
<rscale>  0 0.30697665E+04</rscale>
<asrwt>0</asrwt>
<pdfrwt beam="1">  1        2 0.40908494E+00 0.30697665E+04</pdfrwt>
<pdfrwt beam="2">  1       -2 0.13630459E+00 0.30697665E+04</pdfrwt>
<totfact> 0.91981885E-01</totfact>
</mgrwt>
</event>
<event>
11    1  0.3581433E-010  0.2074273E+04  0.7818608E-02  0.8572662E-01
         -1   -1    0    0    0  501 -0.00000000000E+00  0.00000000000E+00  0.84986883205E+03  0.84986883205E+03  0.00000000000E+00 0.  1.
          1   -1    0    0  501    0  0.00000000000E+00 -0.00000000000E+00 -0.12656689344E+04  0.12656689344E+04  0.00000000000E+00 0. -1.
    9900016    2    1    2    0    0 -0.10819654988E+03  0.97253610290E+02 -0.20141068557E+03  0.18564478590E+04  0.18397466214E+04 0.  0.
        -24    2    3    3    0    0 -0.83799052209E+02 -0.42695587622E+03 -0.32266540211E+03  0.54462033995E+03  0.56433603176E+02 0.  0.
        -15    1    3    3    0    0  0.27123772808E+02 -0.87597079221E+01  0.29522968038E+02  0.41037022017E+02  0.00000000000E+00 0.  1.
        -15    1    3    3    0    0 -0.28146398876E+03  0.45594930407E+03 -0.24048266858E+03  0.58731904340E+03  0.00000000000E+00 0.  1.
         15    1    3    3    0    0  0.10275339924E+03 -0.94367576804E+02 -0.11422479599E+03  0.18030752792E+03  0.00000000000E+00 0. -1.
         15    1    4    4    0    0 -0.11918956837E+02 -0.18911482013E+03 -0.12349213329E+03  0.22617865441E+03  0.00000000000E+00 0. -1.
        -16    1    4    4    0    0 -0.71880095372E+02 -0.23784105609E+03 -0.19917326882E+03  0.31844168554E+03  0.00000000000E+00 0.  1.
         16    1    1    2    0    0  0.10819654988E+03 -0.97253610290E+02 -0.21438941676E+03  0.25908990744E+03  0.00000000000E+00 0. -1.
    9900018    1    3    3    0    0  0.12718931903E+03  0.17138746717E+03  0.44643921307E+03  0.50316392571E+03  0.91187600000E+02 0.  0.
<mgrwt>
<rscale>  0 0.20742734E+04</rscale>
<asrwt>0</asrwt>
<pdfrwt beam="1">  1        1 0.19471830E+00 0.20742734E+04</pdfrwt>
<pdfrwt beam="2">  1       -1 0.13074905E+00 0.20742734E+04</pdfrwt>
<totfact> 0.44110921E+00</totfact>
</mgrwt>
</event>
<event>
11    1  0.3581433E-010  0.1987567E+04  0.7818608E-02  0.8612456E-01
         -2   -1    0    0    0  501 -0.00000000000E+00  0.00000000000E+00  0.17935998201E+04  0.17935998201E+04  0.00000000000E+00 0.  1.
          2   -1    0    0  501    0  0.00000000000E+00 -0.00000000000E+00 -0.55062761684E+03  0.55062761684E+03  0.00000000000E+00 0. -1.
    9900016    2    1    2    0    0 -0.25953965423E+02  0.87780055075E+02  0.10283323556E+04  0.21108838906E+04  0.18411910329E+04 0.  0.
         24    2    3    3    0    0 -0.92445653530E+02  0.38530820148E+03  0.37325742874E+03  0.54810880010E+03  0.63980775642E+02 0.  0.
        -15    1    4    4    0    0 -0.51163883067E+02  0.19095566191E+03  0.14306681035E+03  0.24402852286E+03  0.00000000000E+00 0.  1.
        -15    1    3    3    0    0  0.35824374988E+02 -0.89683254645E+02  0.58945469356E+02  0.11314168270E+03  0.00000000000E+00 0.  1.
         15    1    3    3    0    0 -0.39938352830E+03  0.95861781958E+01  0.78623932377E+02  0.40716190911E+03  0.00000000000E+00 0. -1.
         15    1    3    3    0    0  0.31820926376E+03 -0.32279799112E+03  0.66908118890E+03  0.80816168924E+03  0.00000000000E+00 0. -1.
        -16    1    1    2    0    0  0.25953965423E+02 -0.87780055075E+02  0.21463984764E+03  0.23334354627E+03  0.00000000000E+00 0.  1.
         16    1    4    4    0    0 -0.41281770462E+02  0.19435253957E+03  0.23019061839E+03  0.30408027724E+03  0.00000000000E+00 0. -1.
    9900018    1    3    3    0    0  0.11184157766E+03  0.10536692117E+03 -0.15157566380E+03  0.23430980948E+03  0.91187600000E+02 0.  0.
<mgrwt>
<rscale>  0 0.19875669E+04</rscale>
<asrwt>0</asrwt>
<pdfrwt beam="1">  1        2 0.84711942E-01 0.19875669E+04</pdfrwt>
<pdfrwt beam="2">  1       -2 0.27593843E+00 0.19875669E+04</pdfrwt>
<totfact> 0.22804781E+00</totfact>
</mgrwt>
</event>
<event>
11    1  0.3581433E-010  0.2855911E+04  0.7818608E-02  0.8286118E-01
          2   -1    0    0  501    0  0.00000000000E+00  0.00000000000E+00  0.20253377871E+04  0.20253377871E+04  0.00000000000E+00 0. -1.
         -2   -1    0    0    0  501 -0.00000000000E+00 -0.00000000000E+00 -0.10067733996E+04  0.10067733996E+04  0.00000000000E+00 0.  1.
    9900016    2    1    2    0    0  0.34261814448E+02 -0.39536946818E+03  0.14937014462E+04  0.24130424403E+04  0.18531429842E+04 0.  0.
         24    2    3    3    0    0 -0.40805960770E+03 -0.22008706387E+03  0.27885085478E+03  0.54523139395E+03  0.67590787943E+02 0.  0.
        -15    1    4    4    0    0 -0.19871937990E+03 -0.13394100404E+03  0.11517366131E+03  0.26588448012E+03  0.00000000000E+00 0.  1.
        -15    1    3    3    0    0 -0.70975465795E+02 -0.28414681067E+01 -0.16551748186E+03  0.18011559479E+03  0.00000000000E+00 0.  1.
         15    1    3    3    0    0  0.10444168692E+03 -0.14151127050E+03  0.68736432491E+03  0.70950914074E+03  0.00000000000E+00 0. -1.
         15    1    3    3    0    0  0.32431914180E+03  0.15243531036E+03  0.14407496993E+03  0.38623441916E+03  0.00000000000E+00 0. -1.
        -16    1    1    2    0    0 -0.34261814448E+02  0.39536946818E+03 -0.47513705865E+03  0.61906874643E+03  0.00000000000E+00 0.  1.
         16    1    4    4    0    0 -0.20934022780E+03 -0.86146059823E+02  0.16367719348E+03  0.27934691383E+03  0.00000000000E+00 0. -1.
    9900018    1    3    3    0    0  0.84536059224E+02 -0.18336497607E+03  0.54892877846E+03  0.59195189161E+03  0.91187600000E+02 0.  0.
<mgrwt>
<rscale>  0 0.28559105E+04</rscale>
<asrwt>0</asrwt>
<pdfrwt beam="1">  1        2 0.31159043E+00 0.28559105E+04</pdfrwt>
<pdfrwt beam="2">  1       -2 0.15488822E+00 0.28559105E+04</pdfrwt>
<totfact> 0.15410098E+00</totfact>
</mgrwt>
</event>
<event>
11    1  0.3581433E-010  0.2978062E+04  0.7818608E-02  0.8250023E-01
          2   -1    0    0  501    0  0.00000000000E+00  0.00000000000E+00  0.16492757912E+04  0.16492757912E+04  0.00000000000E+00 0. -1.
         -2   -1    0    0    0  501 -0.00000000000E+00 -0.00000000000E+00 -0.13443561108E+04  0.13443561108E+04  0.00000000000E+00 0.  1.
    9900016    2    1    2    0    0  0.31551176289E+03  0.60701608671E+03 -0.40587579273E+03  0.20070993853E+04  0.18427415937E+04 0.  0.
        -24    2    3    3    0    0 -0.51619672375E+02  0.42699110412E+03 -0.27199003333E+03  0.51852492853E+03  0.99516479550E+02 0.  0.
        -15    1    3    3    0    0 -0.23218457563E+03 -0.17289097039E+03 -0.10772858512E+02  0.28968434422E+03  0.00000000000E+00 0.  1.
        -15    1    3    3    0    0  0.54624223095E+03  0.37975711837E+03 -0.87487282597E+02  0.67100675737E+03  0.00000000000E+00 0.  1.
         15    1    3    3    0    0 -0.57026109027E+02  0.22514307017E+03  0.19140092472E+02  0.23304017314E+03  0.00000000000E+00 0. -1.
         15    1    4    4    0    0  0.28882368595E+01  0.23970600346E+03 -0.19425913121E+03  0.30855132485E+03  0.00000000000E+00 0. -1.
        -16    1    4    4    0    0 -0.54507909235E+02  0.18728510066E+03 -0.77730902115E+02  0.20997360368E+03  0.00000000000E+00 0.  1.
         16    1    1    2    0    0 -0.31551176289E+03 -0.60701608671E+03  0.71079547309E+03  0.98653251676E+03  0.00000000000E+00 0. -1.
    9900018    1    3    3    0    0  0.11009988898E+03 -0.25198423557E+03 -0.54765710771E+02  0.29484318204E+03  0.91187600000E+02 0.  0.
<mgrwt>
<rscale>  0 0.29780624E+04</rscale>
<asrwt>0</asrwt>
<pdfrwt beam="1">  1        2 0.25373474E+00 0.29780624E+04</pdfrwt>
<pdfrwt beam="2">  1       -2 0.20682402E+00 0.29780624E+04</pdfrwt>
<totfact> 0.10775947E+00</totfact>
</mgrwt>
</event>
<event>
11    1  0.3581433E-010  0.2040404E+04  0.7818608E-02  0.8587960E-01
          2   -1    0    0  501    0  0.00000000000E+00  0.00000000000E+00  0.67364371755E+03  0.67364371755E+03  0.00000000000E+00 0. -1.
         -2   -1    0    0    0  501 -0.00000000000E+00 -0.00000000000E+00 -0.15450488476E+04  0.15450488476E+04  0.00000000000E+00 0.  1.
    9900016    2    1    2    0    0 -0.26105657973E+02  0.16327128118E+03 -0.89188526796E+03  0.20520838838E+04  0.18407199457E+04 0.  0.
        -24    2    3    3    0    0  0.19916056392E+03  0.11689339953E+03 -0.17722793488E+03  0.30598916364E+03  0.94290138857E+02 0.  0.
        -15    1    3    3    0    0 -0.16116614001E+03  0.17875827173E+03 -0.11388870659E+03  0.26626994176E+03  0.00000000000E+00 0.  1.
        -15    1    3    3    0    0  0.94560299343E+02  0.36241317534E+03 -0.49596274465E+03  0.62150141106E+03  0.00000000000E+00 0.  1.
         15    1    4    4    0    0  0.10176810795E+03  0.90455233933E+01 -0.92232265369E+02  0.13764214494E+03  0.00000000000E+00 0. -1.
         15    1    3    3    0    0 -0.10460591024E+03 -0.45062465270E+03  0.22113519712E+03  0.51274335635E+03  0.00000000000E+00 0. -1.
        -16    1    4    4    0    0  0.97392455966E+02  0.10784787614E+03 -0.84995669515E+02  0.16834701869E+03  0.00000000000E+00 0.  1.
         16    1    1    2    0    0  0.26105657973E+02 -0.16327128118E+03  0.20480137911E+02  0.16660868130E+03  0.00000000000E+00 0. -1.
    9900018    1    3    3    0    0 -0.54054470982E+02 -0.44168912723E+02 -0.32594107895E+03  0.34558001104E+03  0.91187600000E+02 0.  0.
<mgrwt>
<rscale>  0 0.20404043E+04</rscale>
<asrwt>0</asrwt>
<pdfrwt beam="1">  1        2 0.10363750E+00 0.20404043E+04</pdfrwt>
<pdfrwt beam="2">  1       -2 0.23769982E+00 0.20404043E+04</pdfrwt>
<totfact> 0.30473359E+00</totfact>
</mgrwt>
</event>
