<event>
11    1  0.2499679E-011  0.2149134E+04  0.7818608E-02  0.8539903E-01
          2   -1    0    0  501    0  0.00000000000E+00  0.00000000000E+00  0.10114811953E+04  0.10114811953E+04  0.00000000000E+00 0. -1.
         -2   -1    0    0    0  501 -0.00000000000E+00 -0.00000000000E+00 -0.11415874037E+04  0.11415874037E+04  0.00000000000E+00 0.  1.
    9900016    2    1    2    0    0 -0.12340024760E+03  0.55225063245E+03  0.10726806225E+03  0.91448631347E+03  0.71033118909E+03 0.  0.
         24    2    3    3    0    0 -0.38712343152E+03  0.39637591068E+03 -0.61921381452E+02  0.56452643794E+03  0.88754875062E+02 0.  0.
        -15    1    4    4    0    0 -0.57157528885E+01  0.28864696479E+02 -0.80995665112E+01  0.30519559492E+02  0.00000000000E+00 0.  1.
        -15    1    4    4    0    0 -0.19786320428E+02  0.21377204693E+02 -0.10164639608E+02  0.30851308804E+02  0.00000000000E+00 0.  1.
         15    1    3    3    0    0  0.26372318392E+03  0.15587472177E+03  0.16918944370E+03  0.34995987553E+03  0.00000000000E+00 0. -1.
         15    1    4    4    0    0 -0.72720664444E+01  0.12580328501E+02  0.27491948841E+00  0.14533519749E+02  0.00000000000E+00 0. -1.
        -16    1    1    2    0    0  0.19615302491E+03 -0.47497926110E+03 -0.63509696235E+03  0.81696356053E+03  0.00000000000E+00 0.  1.
         16    1    4    4    0    0 -0.35434929176E+03  0.33355368101E+03 -0.43932094822E+02  0.48862204989E+03  0.00000000000E+00 0. -1.
    9900018    1    1    2    0    0 -0.72752777314E+02 -0.77271371353E+02  0.39772269166E+03  0.42161872503E+03  0.91187600000E+02 0.  0.
<mgrwt>
<rscale>  0 0.21491340E+04</rscale>
<asrwt>0</asrwt>
<pdfrwt beam="1">  1        2 0.15561249E+00 0.21491340E+04</pdfrwt>
<pdfrwt beam="2">  1       -2 0.17562883E+00 0.21491340E+04</pdfrwt>
<totfact> 0.44200667E+00</totfact>
</mgrwt>
</event>
<event>
11    1  0.2499679E-011  0.1466829E+04  0.7818608E-02  0.8906816E-01
         -1   -1    0    0    0  501 -0.00000000000E+00  0.00000000000E+00  0.63847166093E+03  0.63847166093E+03  0.00000000000E+00 0.  1.
          1   -1    0    0  501    0  0.00000000000E+00 -0.00000000000E+00 -0.84247593008E+03  0.84247593008E+03  0.00000000000E+00 0. -1.
    9900016    2    1    2    0    0 -0.17147689726E+03 -0.94185676686E+01 -0.17821037591E+03  0.74892461163E+03  0.70684941827E+03 0.  0.
        -24    2    3    3    0    0  0.23675896242E+03  0.12516415116E+03  0.93670303109E+01  0.27993174530E+03  0.80951650669E+02 0.  0.
        -15    1    3    3    0    0 -0.40823585968E+03 -0.13458271883E+03 -0.18757740622E+03  0.46899286632E+03  0.00000000000E+00 0.  1.
        -15    1    4    4    0    0  0.14912728207E+02 -0.36122977150E+01  0.21991193908E+00  0.15345570000E+02  0.00000000000E+00 0.  1.
         15    1    4    4    0    0  0.36069528778E+02  0.22630925505E+02  0.22477818562E+02  0.48149995045E+02  0.00000000000E+00 0. -1.
         15    1    4    4    0    0  0.27357810801E+02  0.43049618923E+01 -0.19491337019E+01  0.27762954290E+02  0.00000000000E+00 0. -1.
        -16    1    4    4    0    0  0.15841889464E+03  0.10184056148E+03 -0.11381566488E+02  0.18867322597E+03  0.00000000000E+00 0.  1.
         16    1    1    2    0    0  0.31954440974E+03  0.64654587759E+02 -0.27268789499E+03  0.42502650928E+03  0.00000000000E+00 0. -1.
    9900018    1    1    2    0    0 -0.14806751248E+03 -0.55236020090E+02  0.24689400175E+03  0.30699647011E+03  0.91187600000E+02 0.  0.
<mgrwt>
<rscale>  0 0.14668292E+04</rscale>
<asrwt>0</asrwt>
<pdfrwt beam="1">  1        1 0.12961168E+00 0.14668292E+04</pdfrwt>
<pdfrwt beam="2">  1       -1 0.98226409E-01 0.14668292E+04</pdfrwt>
<totfact> 0.19578960E+01</totfact>
</mgrwt>
</event>
<event>
11    1  0.2499679E-011  0.3771171E+04  0.7818608E-02  0.8052370E-01
         -2   -1    0    0    0  501 -0.00000000000E+00  0.00000000000E+00  0.12031630475E+04  0.12031630475E+04  0.00000000000E+00 0.  1.
          2   -1    0    0  501    0  0.00000000000E+00 -0.00000000000E+00 -0.29550712283E+04  0.29550712283E+04  0.00000000000E+00 0. -1.
    9900016    2    1    2    0    0 -0.15305723456E+03  0.17936492647E+03 -0.33461692581E+03  0.82038104823E+03  0.71095589411E+03 0.  0.
         24    2    3    3    0    0 -0.52840562168E+02  0.37498254980E+03  0.37910914059E+02  0.38784593121E+03  0.74720755394E+02 0.  0.
        -15    1    4    4    0    0 -0.61941663091E+01  0.12968346483E+02  0.10399740928E+02  0.17739794761E+02  0.00000000000E+00 0.  1.
        -15    1    4    4    0    0 -0.23219459656E+02  0.72898819937E+02  0.20235146787E+02  0.79138122422E+02  0.00000000000E+00 0.  1.
         15    1    3    3    0    0 -0.10021667239E+03 -0.19561762333E+03 -0.37252783987E+03  0.43253511702E+03  0.00000000000E+00 0. -1.
         15    1    4    4    0    0  0.25254453149E+01  0.16228126599E+02  0.36564564644E+01  0.16825565097E+02  0.00000000000E+00 0. -1.
        -16    1    1    2    0    0  0.80180857670E+03 -0.21766566925E+02  0.73169684130E+03  0.10857030186E+04  0.00000000000E+00 0.  1.
         16    1    4    4    0    0 -0.25952381518E+02  0.27288725678E+03  0.36195698793E+01  0.27414244893E+03  0.00000000000E+00 0. -1.
    9900018    1    1    2    0    0 -0.64875134214E+03 -0.15759835955E+03 -0.21489880963E+04  0.22521502089E+04  0.91187600000E+02 0.  0.
<mgrwt>
<rscale>  0 0.37711709E+04</rscale>
<asrwt>0</asrwt>
<pdfrwt beam="1">  1        2 0.45462633E+00 0.37711709E+04</pdfrwt>
<pdfrwt beam="2">  1       -2 0.18510201E+00 0.37711709E+04</pdfrwt>
<totfact> 0.24957787E-01</totfact>
</mgrwt>
</event>
<event>
11    1  0.2499679E-011  0.1557442E+04  0.7818608E-02  0.8847128E-01
          2   -1    0    0  501    0  0.00000000000E+00  0.00000000000E+00  0.15849714776E+04  0.15849714776E+04  0.00000000000E+00 0. -1.
         -2   -1    0    0    0  501 -0.00000000000E+00 -0.00000000000E+00 -0.38259763173E+03  0.38259763173E+03  0.00000000000E+00 0.  1.
    9900016    2    1    2    0    0 -0.12732320337E+02  0.13773388680E+03  0.61851763061E+03  0.95021562084E+03  0.70796393352E+03 0.  0.
        -24    2    3    3    0    0  0.27024524003E+03 -0.13222733006E+03  0.38353953744E+03  0.49395904550E+03  0.79852396803E+02 0.  0.
        -15    1    3    3    0    0 -0.28297756037E+03  0.26996121685E+03  0.23497809317E+03  0.45625657534E+03  0.00000000000E+00 0.  1.
        -15    1    4    4    0    0  0.75133730508E+02 -0.31947595592E+02  0.10953987982E+03  0.13661885520E+03  0.00000000000E+00 0. -1.
         15    1    4    4    0    0  0.12733947206E+02  0.32377796820E+01  0.19872595965E+02  0.23823448514E+02  0.00000000000E+00 0.  1.
         15    1    4    4    0    0  0.20857703984E+02  0.18766825211E+00  0.10478818174E+02  0.23342764729E+02  0.00000000000E+00 0. -1.
        -16    1    4    4    0    0  0.16151985833E+03 -0.10370518240E+03  0.24364824348E+03  0.31017397706E+03  0.00000000000E+00 0.  1.
         16    1    1    2    0    0  0.20967873444E+03 -0.17136156612E+03  0.71291899706E+03  0.76261619075E+03  0.00000000000E+00 0. -1.
    9900018    1    1    2    0    0 -0.19694641411E+03  0.33627679329E+02 -0.12906278176E+03  0.25473729777E+03  0.91187600000E+02 0.  0.
<mgrwt>
<rscale>  0 0.15574419E+04</rscale>
<asrwt>0</asrwt>
<pdfrwt beam="1">  1        2 0.24384176E+00 0.15574419E+04</pdfrwt>
<pdfrwt beam="2">  1       -2 0.58861175E-01 0.15574419E+04</pdfrwt>
<totfact> 0.29496789E+01</totfact>
</mgrwt>
</event>
<event>
11    1  0.2499679E-011  0.2187780E+04  0.7818608E-02  0.8523532E-01
          2   -1    0    0  501    0  0.00000000000E+00  0.00000000000E+00  0.48163740266E+03  0.48163740266E+03  0.00000000000E+00 0. -1.
         -2   -1    0    0    0  501 -0.00000000000E+00 -0.00000000000E+00 -0.24844318942E+04  0.24844318942E+04  0.00000000000E+00 0.  1.
    9900016    2    1    2    0    0  0.11219757343E+03 -0.57474006954E+03 -0.32096823769E+03  0.97548345991E+03  0.71107870728E+03 0.  0.
        -24    2    3    3    0    0 -0.63303007791E+02 -0.61542046409E+02  0.19407523338E+03  0.22752460941E+03  0.79420132219E+02 0.  0.
        -15    1    3    3    0    0  0.17550058122E+03 -0.51319802313E+03 -0.51504347108E+03  0.74795885051E+03  0.00000000000E+00 0.  1.
        -15    1    4    4    0    0 -0.26124745194E+02 -0.28098349067E+02  0.36054960813E+02  0.52649593834E+02  0.00000000000E+00 0.  1.
         15    1    4    4    0    0 -0.12127535365E+02 -0.71775025055E+01  0.48623894351E+01  0.14907598306E+02  0.00000000000E+00 0. -1.
         15    1    4    4    0    0 -0.15714203375E+02 -0.19446928307E+01  0.94040773623E+02  0.95364485641E+02  0.00000000000E+00 0. -1.
        -16    1    4    4    0    0 -0.93365238577E+01 -0.24321502006E+02  0.59117109513E+02  0.64602931626E+02  0.00000000000E+00 0.  1.
         16    1    1    2    0    0 -0.66490282390E+02  0.80746595949E+03 -0.13070510250E+04  0.15377921236E+04  0.00000000000E+00 0. -1.
    9900018    1    1    2    0    0 -0.45707291039E+02 -0.23272588995E+03 -0.37477522882E+03  0.45279371333E+03  0.91187600000E+02 0.  0.
<mgrwt>
<rscale>  0 0.21877800E+04</rscale>
<asrwt>0</asrwt>
<pdfrwt beam="1">  1        2 0.74098062E-01 0.21877800E+04</pdfrwt>
<pdfrwt beam="2">  1       -2 0.38222029E+00 0.21877800E+04</pdfrwt>
<totfact> 0.57100893E-01</totfact>
</mgrwt>
</event>
<event>
11    1  0.2499679E-011  0.1181695E+04  0.7818608E-02  0.9129031E-01
         -2   -1    0    0    0  501 -0.00000000000E+00  0.00000000000E+00  0.71206514229E+03  0.71206514229E+03  0.00000000000E+00 0.  1.
          2   -1    0    0  501    0  0.00000000000E+00 -0.00000000000E+00 -0.49026518373E+03  0.49026518373E+03  0.00000000000E+00 0. -1.
    9900016    2    1    2    0    0  0.24788794853E+02 -0.18786675734E+02 -0.84603593143E+02  0.71246318601E+03  0.70673799948E+03 0.  0.
         24    2    3    3    0    0 -0.14705123888E+03 -0.14709713023E+03  0.23641462951E+03  0.32639937108E+03  0.85924617054E+02 0.  0.
        -15    1    4    4    0    0 -0.12205790895E+02 -0.23172968641E+02  0.30372773543E+02  0.40105774892E+02  0.00000000000E+00 0. -1.
        -15    1    4    4    0    0  0.76792001975E+01 -0.10833413365E+02  0.21172657860E+02  0.24992286843E+02  0.00000000000E+00 0.  1.
         15    1    4    4    0    0 -0.79743610642E+01 -0.86015486457E+01  0.25283579667E+02  0.27871786349E+02  0.00000000000E+00 0.  1.
         15    1    3    3    0    0  0.17184003373E+03  0.12831045450E+03 -0.32101822265E+03  0.38606381493E+03  0.00000000000E+00 0. -1.
        -16    1    1    2    0    0 -0.85181666367E+02  0.15567133486E+03  0.24845657175E+03  0.30531974851E+03  0.00000000000E+00 0.  1.
         16    1    4    4    0    0 -0.13455028712E+03 -0.10448919958E+03  0.15958561844E+03  0.23342952299E+03  0.00000000000E+00 0. -1.
    9900018    1    1    2    0    0  0.60392871514E+02 -0.13688465913E+03  0.57946979948E+02  0.18454739151E+03  0.91187600000E+02 0.  0.
<mgrwt>
<rscale>  0 0.11816950E+04</rscale>
<asrwt>0</asrwt>
<pdfrwt beam="1">  1        2 0.75425413E-01 0.11816950E+04</pdfrwt>
<pdfrwt beam="2">  1       -2 0.10954848E+00 0.11816950E+04</pdfrwt>
<totfact> 0.41303164E+01</totfact>
</mgrwt>
</event>
<event>
11    1  0.2611691E-011  0.1277745E+04  0.7818608E-02  0.9047402E-01
          2   -1    0    0  501    0  0.00000000000E+00  0.00000000000E+00  0.16096437566E+04  0.16096437566E+04  0.00000000000E+00 0. -1.
         -2   -1    0    0    0  501 -0.00000000000E+00 -0.00000000000E+00 -0.25357052616E+03  0.25357052616E+03  0.00000000000E+00 0.  1.
    9900016    2    1    2    0    0  0.36925884023E+02  0.13506789922E+03  0.75032961792E+03  0.10431485920E+04  0.71102573174E+03 0.  0.
        -24    2    3    3    0    0 -0.25219097470E+03  0.87375956181E+02  0.68981374218E+03  0.74394088716E+03  0.79813528050E+02 0.  0.
        -15    1    4    4    0    0 -0.19147089729E+02  0.48590142533E+00  0.45830751433E+02  0.49671973206E+02  0.00000000000E+00 0.  1.
        -15    1    3    3    0    0  0.28911685872E+03  0.47691943035E+02  0.60515875740E+02  0.29920770485E+03  0.00000000000E+00 0.  1.
         15    1    4    4    0    0 -0.23024845552E+02 -0.75263562529E+01  0.44949978263E+02  0.51061630380E+02  0.00000000000E+00 0. -1.
         15    1    4    4    0    0 -0.19840582653E+02  0.42283016274E+01  0.27677328399E+02  0.34315619796E+02  0.00000000000E+00 0. -1.
        -16    1    4    4    0    0 -0.19017845676E+03  0.90188109381E+02  0.57135568408E+03  0.60889166378E+03  0.00000000000E+00 0.  1.
         16    1    1    2    0    0  0.69751296052E+00 -0.83668487548E+02  0.68077205192E+03  0.68589466320E+03  0.00000000000E+00 0. -1.
    9900018    1    1    2    0    0 -0.37623396983E+02 -0.51399411669E+02 -0.75028439402E+02  0.13417102755E+03  0.91187600000E+02 0.  0.
<mgrwt>
<rscale>  0 0.12777452E+04</rscale>
<asrwt>0</asrwt>
<pdfrwt beam="1">  1        2 0.24763749E+00 0.12777452E+04</pdfrwt>
<pdfrwt beam="2">  1       -2 0.39010851E-01 0.12777452E+04</pdfrwt>
<totfact> 0.67134217E+01</totfact>
</mgrwt>
</event>
<event>
11    1  0.2499679E-011  0.1308869E+04  0.7818608E-02  0.9022562E-01
         -1   -1    0    0    0  501 -0.00000000000E+00  0.00000000000E+00  0.90725237703E+03  0.90725237703E+03  0.00000000000E+00 0.  1.
          1   -1    0    0  501    0  0.00000000000E+00 -0.00000000000E+00 -0.47206741555E+03  0.47206741555E+03  0.00000000000E+00 0. -1.
    9900016    2    1    2    0    0  0.88627555850E+02 -0.11806972357E+03  0.18039306366E+03  0.75019936710E+03  0.71306530536E+03 0.  0.
         24    2    3    3    0    0  0.25589578114E+02 -0.66651137297E+02  0.45352620323E+03  0.46520924520E+03  0.75076122679E+02 0.  0.
        -15    1    4    4    0    0  0.29108763061E+01 -0.17008314958E+02  0.59408796241E+02  0.61864052966E+02  0.00000000000E+00 0. -1.
        -15    1    4    4    0    0  0.31070540298E+02 -0.21598759277E+02  0.15724919947E+03  0.16173804627E+03  0.00000000000E+00 0.  1.
         15    1    3    3    0    0  0.63037977736E+02 -0.51418586271E+02 -0.27313313957E+03  0.28499012190E+03  0.00000000000E+00 0. -1.
         15    1    4    4    0    0 -0.70803664552E-01 -0.35083614395E+02  0.20355396176E+03  0.20655527193E+03  0.00000000000E+00 0.  1.
        -16    1    1    2    0    0 -0.22905809617E+03  0.16621240784E+02  0.34428953912E+03  0.41385886944E+03  0.00000000000E+00 0.  1.
         16    1    4    4    0    0 -0.83210348250E+01  0.70395513325E+01  0.33314245750E+02  0.35051874036E+02  0.00000000000E+00 0. -1.
    9900018    1    1    2    0    0  0.14043054032E+03  0.10144848278E+03 -0.89497641306E+02  0.21526155604E+03  0.91187600000E+02 0.  0.
<mgrwt>
<rscale>  0 0.13088686E+04</rscale>
<asrwt>0</asrwt>
<pdfrwt beam="1">  1        1 0.72625757E-01 0.13088686E+04</pdfrwt>
<pdfrwt beam="2">  1       -1 0.13957729E+00 0.13088686E+04</pdfrwt>
<totfact> 0.19903189E+01</totfact>
</mgrwt>
</event>
<event>
11    1  0.2499679E-011  0.2463020E+04  0.7818608E-02  0.8416279E-01
         -1   -1    0    0    0  501 -0.00000000000E+00  0.00000000000E+00  0.98765507252E+03  0.98765507252E+03  0.00000000000E+00 0.  1.
          1   -1    0    0  501    0  0.00000000000E+00 -0.00000000000E+00 -0.15355738685E+04  0.15355738685E+04  0.00000000000E+00 0. -1.
    9900016    2    1    2    0    0 -0.43216654118E+03 -0.26715470275E+03 -0.36369304713E+03  0.94638002277E+03  0.71079037730E+03 0.  0.
        -24    2    3    3    0    0 -0.54909747930E+03 -0.33115112769E+02 -0.39661019535E+03  0.68269287364E+03  0.78519170817E+02 0.  0.
        -15    1    3    3    0    0  0.11693093813E+03 -0.23403958999E+03  0.32917148220E+02  0.26368714914E+03  0.00000000000E+00 0.  1.
        -15    1    4    4    0    0 -0.10047919310E+02 -0.13373456092E+01 -0.33876205590E+01  0.10687616610E+02  0.00000000000E+00 0.  1.
         15    1    4    4    0    0 -0.36919449650E+02 -0.18370981064E+02 -0.25532413782E+02  0.48501988220E+02  0.00000000000E+00 0. -1.
         15    1    4    4    0    0 -0.20850959533E+02  0.16109199758E+01 -0.24456864535E+02  0.32179120552E+02  0.00000000000E+00 0. -1.
        -16    1    4    4    0    0 -0.48127915081E+03 -0.15017706072E+02 -0.34323329648E+03  0.59132414826E+03  0.00000000000E+00 0.  1.
         16    1    1    2    0    0 -0.25626816808E+03 -0.36047581298E+02 -0.64155501997E+03  0.69178439252E+03  0.00000000000E+00 0. -1.
    9900018    1    1    2    0    0  0.68843470925E+03  0.30320228405E+03  0.45732927117E+03  0.88506452568E+03  0.91187600000E+02 0.  0.
<mgrwt>
<rscale>  0 0.24630204E+04</rscale>
<asrwt>0</asrwt>
<pdfrwt beam="1">  1        1 0.23624213E+00 0.24630204E+04</pdfrwt>
<pdfrwt beam="2">  1       -1 0.15194694E+00 0.24630204E+04</pdfrwt>
<totfact> 0.18560962E+00</totfact>
</mgrwt>
</event>
