<event>
12    1  0.1074214E-008  0.3074332E+04  0.7818608E-02  0.8222818E-01
          1   -1    0    0  501    0  0.00000000000E+00  0.00000000000E+00  0.25256493632E+04  0.25256493632E+04  0.00000000000E+00 0. -1.
         -1   -1    0    0    0  501 -0.00000000000E+00 -0.00000000000E+00 -0.93555314653E+03  0.93555314653E+03  0.00000000000E+00 0.  1.
    9900016    2    1    2    0    0  0.11772707980E+03  0.61836661419E+03  0.71591568729E+03  0.23839706253E+04  0.21850729361E+04 0.  0.
         23    2    3    3    0    0 -0.29315711890E+03  0.78432369841E+02 -0.25594681064E+02  0.32175100915E+03  0.10380699008E+03 0.  0.
        -24    2    3    3    0    0  0.61528148687E+03 -0.32859016408E+02 -0.37025888757E+03  0.72310206290E+03  0.78319387781E+02 0.  0.
        -15    1    3    3    0    0 -0.15005927372E+03  0.34540539847E+03  0.27713680503E+03  0.46757617948E+03  0.00000000000E+00 0.  1.
        -15    1    4    4    0    0 -0.19057161997E+03  0.82708966270E+02 -0.55085744559E+02  0.21492499783E+03  0.00000000000E+00 0.  1.
         15    1    5    5    0    0  0.28320350530E+03 -0.54118406291E+02 -0.17543846017E+03  0.33750804527E+03  0.00000000000E+00 0. -1.
         15    1    4    4    0    0 -0.10258549893E+03 -0.42765964294E+01  0.29491063495E+02  0.10682601132E+03  0.00000000000E+00 0. -1.
        -16    1    5    5    0    0  0.33207798158E+03  0.21259389883E+02 -0.19482042739E+03  0.38559401764E+03  0.00000000000E+00 0.  1.
         16    1    1    2    0    0 -0.11772707980E+03 -0.61836661419E+03  0.87418052940E+03  0.10772318844E+04  0.00000000000E+00 0. -1.
    9900018    1    3    3    0    0 -0.54338014457E+02  0.22738786229E+03  0.83463245088E+03  0.87154137377E+03  0.91187600000E+02 0.  0.
<mgrwt>
<rscale>  0 0.30743319E+04</rscale>
<asrwt>0</asrwt>
<pdfrwt beam="1">  1        1 0.38856144E+00 0.30743319E+04</pdfrwt>
<pdfrwt beam="2">  1       -1 0.14393125E+00 0.30743319E+04</pdfrwt>
<totfact> 0.42829850E-01</totfact>
</mgrwt>
</event>
<event>
12    1  0.1074214E-008  0.2821311E+04  0.7818608E-02  0.8296683E-01
          2   -1    0    0  501    0  0.00000000000E+00  0.00000000000E+00  0.82369986151E+03  0.82369986151E+03  0.00000000000E+00 0. -1.
         -2   -1    0    0    0  501 -0.00000000000E+00 -0.00000000000E+00 -0.24158661362E+04  0.24158661362E+04  0.00000000000E+00 0.  1.
    9900016    2    1    2    0    0  0.14956067571E+03 -0.45570392490E+03 -0.15756726027E+04  0.27596633992E+04  0.22142636390E+04 0.  0.
         23    2    3    3    0    0 -0.18179672464E+03 -0.66731582495E+02 -0.27204324454E+03  0.35691317009E+03  0.12600131305E+03 0.  0.
        -24    2    3    3    0    0 -0.19289500412E+02 -0.61749397495E+03 -0.12348539424E+04  0.13832203922E+04  0.82240502247E+02 0.  0.
        -15    1    4    4    0    0 -0.10810023420E+03 -0.54618464484E+01 -0.58927646102E+02  0.12323944123E+03  0.00000000000E+00 0. -1.
        -15    1    3    3    0    0  0.52106036141E+03 -0.17584782277E+03  0.60036513195E+02  0.55320045184E+03  0.00000000000E+00 0.  1.
         15    1    5    5    0    0  0.13615009261E+01 -0.55480391884E+03 -0.10618767709E+04  0.11980782607E+04  0.00000000000E+00 0. -1.
         15    1    4    4    0    0 -0.73696490440E+02 -0.61269736046E+02 -0.21311559844E+03  0.23367372885E+03  0.00000000000E+00 0.  1.
        -16    1    5    5    0    0 -0.20651001338E+02 -0.62690056116E+02 -0.17297717149E+03  0.18514213148E+03  0.00000000000E+00 0.  1.
         16    1    1    2    0    0 -0.14956067571E+03  0.45570392490E+03 -0.16493672015E+02  0.47990259856E+03  0.00000000000E+00 0. -1.
    9900018    1    3    3    0    0 -0.17041346065E+03  0.40436945532E+03 -0.12881192889E+03  0.46632938507E+03  0.91187600000E+02 0.  0.
<mgrwt>
<rscale>  0 0.28213108E+04</rscale>
<asrwt>0</asrwt>
<pdfrwt beam="1">  1        2 0.12672306E+00 0.28213108E+04</pdfrwt>
<pdfrwt beam="2">  1       -2 0.37167171E+00 0.28213108E+04</pdfrwt>
<totfact> 0.32584388E-01</totfact>
</mgrwt>
</event>
<event>
12    1  0.1074214E-008  0.3036727E+04  0.7818608E-02  0.8233320E-01
         -1   -1    0    0    0  501 -0.00000000000E+00  0.00000000000E+00  0.16119617492E+04  0.16119617492E+04  0.00000000000E+00 0.  1.
          1   -1    0    0  501    0  0.00000000000E+00 -0.00000000000E+00 -0.14301996024E+04  0.14301996024E+04  0.00000000000E+00 0. -1.
    9900016    2    1    2    0    0 -0.45331585793E+03  0.38542846879E+03  0.54356247568E+03  0.23457779445E+04  0.22029897023E+04 0.  0.
         23    2    3    3    0    0  0.33722818991E+00  0.68625710534E+02  0.56154665452E+02  0.13777564608E+03  0.10544752407E+03 0.  0.
        -24    2    3    3    0    0 -0.79846547612E+03  0.54928070818E+03  0.39688217741E+03  0.10503511513E+04  0.80409361209E+02 0.  0.
        -15    1    4    4    0    0 -0.44123211348E+02  0.59286906938E+02  0.55358047817E+02  0.92338012606E+02  0.00000000000E+00 0.  1.
        -15    1    3    3    0    0  0.13403262267E+03 -0.32114167788E+03 -0.44696940995E+03  0.56646127374E+03  0.00000000000E+00 0.  1.
         15    1    5    5    0    0 -0.37705190194E+03  0.21504465888E+03  0.15973640191E+03  0.46252357796E+03  0.00000000000E+00 0. -1.
         15    1    4    4    0    0  0.44460439538E+02  0.93388035964E+01  0.79661763527E+00  0.45437633479E+02  0.00000000000E+00 0. -1.
        -16    1    5    5    0    0 -0.42141357418E+03  0.33423604929E+03  0.23714577550E+03  0.58782757335E+03  0.00000000000E+00 0.  1.
         16    1    1    2    0    0  0.45331585793E+03 -0.38542846879E+03 -0.36180032890E+03  0.69638340704E+03  0.00000000000E+00 0. -1.
    9900018    1    3    3    0    0  0.21077976733E+03  0.88663727956E+02  0.53749504277E+03  0.59118987336E+03  0.91187600000E+02 0.  0.
<mgrwt>
<rscale>  0 0.30367266E+04</rscale>
<asrwt>0</asrwt>
<pdfrwt beam="1">  1        1 0.22003071E+00 0.30367266E+04</pdfrwt>
<pdfrwt beam="2">  1       -1 0.24799411E+00 0.30367266E+04</pdfrwt>
<totfact> 0.44606750E-01</totfact>
</mgrwt>
</event>
<event>
12    1  0.1074214E-008  0.2613269E+04  0.7818608E-02  0.8363708E-01
         -2   -1    0    0    0  501 -0.00000000000E+00  0.00000000000E+00  0.10454256498E+04  0.10454256498E+04  0.00000000000E+00 0.  1.
          2   -1    0    0  501    0  0.00000000000E+00 -0.00000000000E+00 -0.16331088454E+04  0.16331088454E+04  0.00000000000E+00 0. -1.
    9900016    2    1    2    0    0 -0.23594251132E+03  0.38501330569E+01 -0.24657561607E+03  0.22637597695E+04  0.22378840604E+04 0.  0.
         23    2    3    3    0    0 -0.44321201773E+01 -0.70850895751E+02 -0.69785840615E+02  0.15599444017E+03  0.12010290877E+03 0.  0.
        -24    2    3    3    0    0  0.87557622259E+03 -0.10247454718E+03 -0.15574529197E+03  0.89876720301E+03  0.79944573624E+02 0.  0.
        -15    1    4    4    0    0 -0.22140879253E+01 -0.12958152621E+02  0.34376492363E+02  0.36804335775E+02  0.00000000000E+00 0.  1.
        -15    1    3    3    0    0 -0.49353700959E+03 -0.13565231744E+03  0.27641332214E+02  0.51258596773E+03  0.00000000000E+00 0.  1.
         15    1    4    4    0    0 -0.22180322520E+01 -0.57892743130E+02 -0.10416233298E+03  0.11919010439E+03  0.00000000000E+00 0. -1.
         15    1    5    5    0    0  0.47064598599E+03 -0.82845879502E+02 -0.11342850619E+03  0.49115894566E+03  0.00000000000E+00 0. -1.
        -16    1    5    5    0    0  0.40493023659E+03 -0.19628667681E+02 -0.42316785785E+02  0.40760825735E+03  0.00000000000E+00 0.  1.
         16    1    1    2    0    0  0.23594251132E+03 -0.38501330569E+01 -0.34110757962E+03  0.41477472566E+03  0.00000000000E+00 0. -1.
    9900018    1    3    3    0    0 -0.61354960414E+03  0.31282789344E+03 -0.48685815701E+02  0.69641215864E+03  0.91187600000E+02 0.  0.
<mgrwt>
<rscale>  0 0.26132691E+04</rscale>
<asrwt>0</asrwt>
<pdfrwt beam="1">  1        2 0.25124751E+00 0.26132691E+04</pdfrwt>
<pdfrwt beam="2">  1       -2 0.16083472E+00 0.26132691E+04</pdfrwt>
<totfact> 0.23453381E+00</totfact>
</mgrwt>
</event>
<event>
12    1  0.1074214E-008  0.2734175E+04  0.7818608E-02  0.8324001E-01
         -1   -1    0    0    0  501 -0.00000000000E+00  0.00000000000E+00  0.13979055749E+04  0.13979055749E+04  0.00000000000E+00 0.  1.
          1   -1    0    0  501    0  0.00000000000E+00 -0.00000000000E+00 -0.13369491580E+04  0.13369491580E+04  0.00000000000E+00 0. -1.
    9900016    2    1    2    0    0  0.46014800801E+03 -0.13779189766E+03  0.74331875311E+02  0.22543324137E+04  0.22013102024E+04 0.  0.
         23    2    3    3    0    0 -0.91108335442E+02 -0.14942703197E+03 -0.98296316807E+02  0.22754108609E+03  0.10716162230E+03 0.  0.
        -24    2    3    3    0    0 -0.13286881323E+02 -0.45182199349E+03  0.62481300739E+03  0.77537131381E+03  0.80558829840E+02 0.  0.
        -15    1    4    4    0    0 -0.19438892277E+02 -0.20209840901E+02  0.23080988269E+02  0.36318593333E+02  0.00000000000E+00 0.  1.
        -15    1    3    3    0    0 -0.20322003609E+03  0.31009005416E+03 -0.77892198734E+02  0.37884220908E+03  0.00000000000E+00 0.  1.
         15    1    4    4    0    0 -0.71669443165E+02 -0.12921719106E+03 -0.12137730508E+03  0.19122249276E+03  0.00000000000E+00 0. -1.
         15    1    5    5    0    0 -0.76184087417E+01 -0.17041015851E+03  0.30398223748E+03  0.34857260790E+03  0.00000000000E+00 0. -1.
        -16    1    5    5    0    0 -0.56684725813E+01 -0.28141183498E+03  0.32083076991E+03  0.42679870591E+03  0.00000000000E+00 0.  1.
         16    1    1    2    0    0 -0.46014800801E+03  0.13779189766E+03 -0.13375458430E+02  0.48052231918E+03  0.00000000000E+00 0. -1.
    9900018    1    3    3    0    0  0.76776326087E+03  0.15336707363E+03 -0.37429261654E+03  0.87257780467E+03  0.91187600000E+02 0.  0.
<mgrwt>
<rscale>  0 0.27341753E+04</rscale>
<asrwt>0</asrwt>
<pdfrwt beam="1">  1        1 0.20568449E+00 0.27341753E+04</pdfrwt>
<pdfrwt beam="2">  1       -1 0.21506240E+00 0.27341753E+04</pdfrwt>
<totfact> 0.88050556E-01</totfact>
</mgrwt>
</event>
<event>
11    1  0.1074214E-008  0.2841527E+04  0.7818608E-02  0.8290491E-01
          1   -1    0    0  501    0  0.00000000000E+00  0.00000000000E+00  0.16021766726E+04  0.16021766726E+04  0.00000000000E+00 0.  1.
         -1   -1    0    0    0  501 -0.00000000000E+00 -0.00000000000E+00 -0.12598917315E+04  0.12598917315E+04  0.00000000000E+00 0. -1.
    9900016    2    1    2    0    0 -0.81990025881E+02  0.55847199401E+03  0.19882495962E+03  0.22796646792E+04  0.21997105156E+04 0.  0.
        -24    2    3    3    0    0  0.72081025624E+03  0.39301668291E+03  0.34645347767E+03  0.89477973448E+03  0.81063077311E+02 0.  0.
        -15    1    3    3    0    0 -0.24467387479E+03 -0.34381957798E+02 -0.44026226852E+03  0.50485472079E+03  0.00000000000E+00 0.  1.
        -15    1    3    3    0    0 -0.14869876331E+02  0.14891240718E+03  0.13065570241E+03  0.19866285714E+03  0.00000000000E+00 0.  1.
         15    1    4    4    0    0  0.17234567395E+03  0.56948150051E+02  0.85177766626E+02  0.20050280560E+03  0.00000000000E+00 0. -1.
         15    1    3    3    0    0  0.32570000520E+02  0.47684765721E+02 -0.33130556899E+02  0.66575337897E+02  0.00000000000E+00 0. -1.
        -16    1    4    4    0    0  0.54846458229E+03  0.33606853286E+03  0.26127571104E+03  0.69427692888E+03  0.00000000000E+00 0.  1.
         16    1    1    2    0    0  0.81990025881E+02 -0.55847199401E+03  0.14345998148E+03  0.58240372485E+03  0.00000000000E+00 0. -1.
    9900018    1    3    3    0    0 -0.57582653152E+03  0.32400959966E+01  0.19510860496E+03  0.61479202885E+03  0.91187600000E+02 0.  0.
<mgrwt>
<rscale>  0 0.28415272E+04</rscale>
<asrwt>0</asrwt>
<pdfrwt beam="1">  1        1 0.24648872E+00 0.28415272E+04</pdfrwt>
<pdfrwt beam="2">  1       -1 0.19382950E+00 0.28415272E+04</pdfrwt>
<totfact> 0.79691826E-01</totfact>
</mgrwt>
</event>
<event>
11    1  0.1074214E-008  0.2710488E+04  0.7818608E-02  0.8331610E-01
          2   -1    0    0  501    0  0.00000000000E+00  0.00000000000E+00  0.34840505477E+04  0.34840505477E+04  0.00000000000E+00 0. -1.
         -2   -1    0    0    0  501 -0.00000000000E+00 -0.00000000000E+00 -0.52716993968E+03  0.52716993968E+03  0.00000000000E+00 0.  1.
    9900016    2    1    2    0    0  0.18419353324E+03  0.37222735552E+03  0.22023481653E+04  0.31499425595E+04  0.22134408113E+04 0.  0.
        -24    2    3    3    0    0 -0.62872499631E+03  0.70619971665E+03  0.52311989456E+03  0.10834385685E+04  0.78559193565E+02 0.  0.
        -15    1    3    3    0    0  0.65082620607E+03  0.81649490517E+00  0.12784638295E+04  0.14345888542E+04  0.00000000000E+00 0.  1.
        -15    1    3    3    0    0  0.31718633490E+02 -0.23210310600E+02 -0.73358122345E+01  0.39982550816E+02  0.00000000000E+00 0.  1.
         15    1    4    4    0    0 -0.55142071238E+03  0.61578485471E+03  0.48573027648E+03  0.95874380875E+03  0.00000000000E+00 0. -1.
         15    1    3    3    0    0  0.62908594895E+02 -0.30893046275E+03  0.30321205025E+03  0.43741635719E+03  0.00000000000E+00 0. -1.
        -16    1    4    4    0    0 -0.77304283933E+02  0.90414861934E+02  0.37389618076E+02  0.12469475977E+03  0.00000000000E+00 0.  1.
         16    1    1    2    0    0 -0.18419353324E+03 -0.37222735552E+03  0.75453244272E+03  0.86127792785E+03  0.00000000000E+00 0. -1.
    9900018    1    3    3    0    0  0.67465095096E+02 -0.26480826825E+01  0.10488820322E+03  0.15451622881E+03  0.91187600000E+02 0.  0.
<mgrwt>
<rscale>  0 0.27104883E+04</rscale>
<asrwt>0</asrwt>
<pdfrwt beam="1">  1        2 0.53600776E+00 0.27104883E+04</pdfrwt>
<pdfrwt beam="2">  1       -2 0.81103070E-01 0.27104883E+04</pdfrwt>
<totfact> 0.98007967E-01</totfact>
</mgrwt>
</event>
<event>
11    1  0.1074214E-008  0.3468931E+04  0.7818608E-02  0.8121193E-01
          2   -1    0    0  501    0  0.00000000000E+00  0.00000000000E+00  0.30211614677E+04  0.30211614677E+04  0.00000000000E+00 0. -1.
         -2   -1    0    0    0  501 -0.00000000000E+00 -0.00000000000E+00 -0.99576616190E+03  0.99576616190E+03  0.00000000000E+00 0.  1.
    9900016    2    1    2    0    0  0.21364829620E+02 -0.79143400461E+03  0.21884295772E+04  0.32085932847E+04  0.22088509711E+04 0.  0.
         24    2    3    3    0    0  0.39113017767E+03 -0.42835812672E+02 -0.10942428077E+03  0.41605848839E+03  0.79456087334E+02 0.  0.
        -15    1    3    3    0    0 -0.13125123599E+03 -0.35029499471E+03  0.59319492495E+03  0.70129429575E+03  0.00000000000E+00 0.  1.
        -15    1    4    4    0    0  0.36460968012E+02  0.19434256670E+02 -0.11355292372E+02  0.42848981150E+02  0.00000000000E+00 0.  1.
         15    1    3    3    0    0 -0.39907761163E+03  0.23039275209E+03  0.33639957460E+03  0.57053346449E+03  0.00000000000E+00 0. -1.
         15    1    3    3    0    0  0.60831127916E+02 -0.32913788016E+03  0.66761763487E+03  0.74682359140E+03  0.00000000000E+00 0. -1.
        -16    1    1    2    0    0 -0.21364829620E+02  0.79143400461E+03 -0.16303427135E+03  0.80833434495E+03  0.00000000000E+00 0.  1.
         16    1    4    4    0    0  0.35466920965E+03 -0.62270069342E+02 -0.98068988397E+02  0.37320950724E+03  0.00000000000E+00 0. -1.
    9900018    1    3    3    0    0  0.99732371659E+02 -0.29955806916E+03  0.70064172355E+03  0.77388344467E+03  0.91187600000E+02 0.  0.
<mgrwt>
<rscale>  0 0.34689309E+04</rscale>
<asrwt>0</asrwt>
<pdfrwt beam="1">  1        2 0.46479407E+00 0.34689309E+04</pdfrwt>
<pdfrwt beam="2">  1       -2 0.15319480E+00 0.34689309E+04</pdfrwt>
<totfact> 0.39375681E-01</totfact>
</mgrwt>
</event>
<event>
11    1  0.1074214E-008  0.2605400E+04  0.7818608E-02  0.8366369E-01
         -1   -1    0    0    0  501 -0.00000000000E+00  0.00000000000E+00  0.12412051961E+04  0.12412051961E+04  0.00000000000E+00 0.  1.
          1   -1    0    0  501    0  0.00000000000E+00 -0.00000000000E+00 -0.13672419053E+04  0.13672419053E+04  0.00000000000E+00 0. -1.
    9900016    2    1    2    0    0  0.13765056812E+03 -0.16089878976E+02 -0.45341553768E+03  0.22529425861E+04  0.22024890654E+04 0.  0.
         24    2    3    3    0    0 -0.22958517249E+03  0.29489690102E+03 -0.64629565590E+03  0.75072077432E+03  0.78804013201E+02 0.  0.
        -15    1    4    4    0    0 -0.10091963085E+03  0.98091718525E+02 -0.17992399142E+03  0.22842810646E+03  0.00000000000E+00 0.  1.
        -15    1    3    3    0    0  0.22597159906E+03 -0.98626286239E+02  0.86017418203E+02  0.26113081809E+03  0.00000000000E+00 0.  1.
         15    1    3    3    0    0 -0.46127396671E+02 -0.26046644776E+03  0.59388978560E+03  0.65013505102E+03  0.00000000000E+00 0. -1.
         15    1    3    3    0    0  0.12096526048E+03 -0.12116202577E+02 -0.43113814791E+02  0.12898913766E+03  0.00000000000E+00 0. -1.
        -16    1    1    2    0    0 -0.13765056812E+03  0.16089878976E+02  0.32737882846E+03  0.35550451535E+03  0.00000000000E+00 0.  1.
         16    1    4    4    0    0 -0.12866554164E+03  0.19680518249E+03 -0.46637166449E+03  0.52229266786E+03  0.00000000000E+00 0. -1.
    9900018    1    3    3    0    0  0.66426277730E+02  0.60222156578E+02 -0.44391327079E+03  0.46196680497E+03  0.91187600000E+02 0.  0.
<mgrwt>
<rscale>  0 0.26054004E+04</rscale>
<asrwt>0</asrwt>
<pdfrwt beam="1">  1        1 0.21034491E+00 0.26054004E+04</pdfrwt>
<pdfrwt beam="2">  1       -1 0.19095465E+00 0.26054004E+04</pdfrwt>
<totfact> 0.12411361E+00</totfact>
</mgrwt>
</event>
<event>
12    1  0.1074214E-008  0.2690427E+04  0.7818608E-02  0.8338118E-01
         -2   -1    0    0    0  501 -0.00000000000E+00  0.00000000000E+00  0.12300829866E+04  0.12300829866E+04  0.00000000000E+00 0.  1.
          2   -1    0    0  501    0  0.00000000000E+00 -0.00000000000E+00 -0.14711194699E+04  0.14711194699E+04  0.00000000000E+00 0. -1.
    9900016    2    1    2    0    0 -0.41957452184E+03  0.60220840478E+00 -0.36651919943E+03  0.22632651847E+04  0.21936248154E+04 0.  0.
         23    2    3    3    0    0 -0.39535686283E+03 -0.17568587132E+03 -0.26716700565E+03  0.52242512983E+03  0.11990509998E+03 0.  0.
         24    2    3    3    0    0 -0.40032401981E+03  0.63007057712E+03  0.42926959046E+03  0.86468649971E+03  0.78499098705E+02 0.  0.
        -15    1    5    5    0    0 -0.33319378459E+02  0.53418802242E+02  0.63582527338E+02  0.89478976283E+02  0.00000000000E+00 0.  1.
        -15    1    4    4    0    0 -0.54394083637E+02 -0.63478052316E+02 -0.18116980919E+02  0.85535983411E+02  0.00000000000E+00 0.  1.
         15    1    4    4    0    0 -0.34096277919E+03 -0.11220781900E+03 -0.24905002473E+03  0.43688914641E+03  0.00000000000E+00 0. -1.
         15    1    3    3    0    0  0.13996536603E+03 -0.41837665267E+03 -0.36582705566E+03  0.57311321904E+03  0.00000000000E+00 0. -1.
        -16    1    1    2    0    0  0.41957452184E+03 -0.60220840478E+00  0.12548271606E+03  0.43793727184E+03  0.00000000000E+00 0.  1.
         16    1    5    5    0    0 -0.36700464136E+03  0.57665177488E+03  0.36568706312E+03  0.77520752343E+03  0.00000000000E+00 0. -1.
    9900018    1    3    3    0    0  0.23614099477E+03 -0.35405844734E+02 -0.16279472858E+03  0.30304033609E+03  0.91187600000E+02 0.  0.
<mgrwt>
<rscale>  0 0.26904268E+04</rscale>
<asrwt>0</asrwt>
<pdfrwt beam="1">  1        2 0.22632607E+00 0.26904268E+04</pdfrwt>
<pdfrwt beam="2">  1       -2 0.18924354E+00 0.26904268E+04</pdfrwt>
<totfact> 0.18151189E+00</totfact>
</mgrwt>
</event>
<event>
12    1  0.1074214E-008  0.2589525E+04  0.7818608E-02  0.8371768E-01
         -2   -1    0    0    0  501 -0.00000000000E+00  0.00000000000E+00  0.60455951212E+03  0.60455951212E+03  0.00000000000E+00 0.  1.
          2   -1    0    0  501    0  0.00000000000E+00 -0.00000000000E+00 -0.27729454343E+04  0.27729454343E+04  0.00000000000E+00 0. -1.
    9900016    2    1    2    0    0  0.59041570741E+02  0.59985824445E+02 -0.14162422377E+04  0.26206665698E+04  0.22034216546E+04 0.  0.
         23    2    3    3    0    0  0.19284517295E+03 -0.16746083823E+03 -0.21476239194E+02  0.28339295752E+03  0.12090469987E+03 0.  0.
        -24    2    3    3    0    0 -0.79540581576E+03  0.53568816468E+03 -0.38905617695E+03  0.10379590575E+04  0.79762615124E+02 0.  0.
        -15    1    4    4    0    0  0.13062756930E+03 -0.97455992428E+02  0.44366654854E+02  0.16890717091E+03  0.00000000000E+00 0.  1.
        -15    1    3    3    0    0  0.53661761333E+03 -0.73737235781E+02 -0.65504967738E+03  0.84999160155E+03  0.00000000000E+00 0.  1.
         15    1    4    4    0    0  0.62217603657E+02 -0.70004845804E+02 -0.65842894048E+02  0.11448578662E+03  0.00000000000E+00 0. -1.
         15    1    5    5    0    0 -0.37100435398E+03  0.24418122204E+03 -0.13768098595E+03  0.46499973522E+03  0.00000000000E+00 0. -1.
        -16    1    5    5    0    0 -0.42440146179E+03  0.29150694265E+03 -0.25137519100E+03  0.57295932232E+03  0.00000000000E+00 0.  1.
         16    1    1    2    0    0 -0.59041570741E+02 -0.59985824445E+02 -0.75214368442E+03  0.75683837655E+03  0.00000000000E+00 0. -1.
    9900018    1    3    3    0    0  0.12498460022E+03 -0.23450426622E+03 -0.35066014419E+03  0.44932295322E+03  0.91187600000E+02 0.  0.
<mgrwt>
<rscale>  0 0.25895255E+04</rscale>
<asrwt>0</asrwt>
<pdfrwt beam="1">  1        2 0.42660699E+00 0.25895255E+04</pdfrwt>
<pdfrwt beam="2">  1       -2 0.93009156E-01 0.25895255E+04</pdfrwt>
<totfact> 0.20811997E+00</totfact>
</mgrwt>
</event>
<event>
11    1  0.1074214E-008  0.2609527E+04  0.7818608E-02  0.8364972E-01
          2   -1    0    0  501    0  0.00000000000E+00  0.00000000000E+00  0.21826017406E+04  0.21826017406E+04  0.00000000000E+00 0. -1.
         -2   -1    0    0    0  501 -0.00000000000E+00 -0.00000000000E+00 -0.77999002159E+03  0.77999002159E+03  0.00000000000E+00 0.  1.
    9900016    2    1    2    0    0  0.18139780122E+03 -0.24942995480E+03  0.94615959454E+03  0.24117115515E+04  0.21968191015E+04 0.  0.
        -24    2    3    3    0    0 -0.76814862471E+03 -0.31345104692E+03  0.56578966421E+03  0.10072094230E+04  0.77775376102E+02 0.  0.
        -15    1    3    3    0    0 -0.45159601669E+02 -0.86096558262E+02 -0.58378905690E+02  0.11340239679E+03  0.00000000000E+00 0.  1.
        -15    1    3    3    0    0  0.43549920776E+03  0.53395140527E+02  0.53333434276E+03  0.69062009974E+03  0.00000000000E+00 0.  1.
         15    1    4    4    0    0 -0.17726340726E+03 -0.98641152669E+02  0.16623214040E+03  0.26226993166E+03  0.00000000000E+00 0. -1.
         15    1    3    3    0    0  0.61980278495E+02  0.54821996828E+02  0.73983459050E+01  0.83076722255E+02  0.00000000000E+00 0. -1.
        -16    1    4    4    0    0 -0.59088521745E+03 -0.21480989425E+03  0.39955752381E+03  0.74493949130E+03  0.00000000000E+00 0.  1.
         16    1    1    2    0    0 -0.18139780122E+03  0.24942995480E+03  0.45645212449E+03  0.55088021074E+03  0.00000000000E+00 0. -1.
    9900018    1    3    3    0    0  0.49722654133E+03  0.41900513029E+02 -0.10198385265E+03  0.51740290973E+03  0.91187600000E+02 0.  0.
<mgrwt>
<rscale>  0 0.26095268E+04</rscale>
<asrwt>0</asrwt>
<pdfrwt beam="1">  1        2 0.33578488E+00 0.26095268E+04</pdfrwt>
<pdfrwt beam="2">  1       -2 0.11999847E+00 0.26095268E+04</pdfrwt>
<totfact> 0.24786780E+00</totfact>
</mgrwt>
</event>
<event>
12    1  0.1074214E-008  0.2703777E+04  0.7818608E-02  0.8333781E-01
         -2   -1    0    0    0  501 -0.00000000000E+00  0.00000000000E+00  0.62358104516E+03  0.62358104516E+03  0.00000000000E+00 0.  1.
          2   -1    0    0  501    0  0.00000000000E+00 -0.00000000000E+00 -0.29308172481E+04  0.29308172481E+04  0.00000000000E+00 0. -1.
    9900016    2    1    2    0    0 -0.11208987387E+03 -0.37077727924E+03 -0.22433300795E+04  0.31618120948E+04  0.21941936893E+04 0.  0.
         23    2    3    3    0    0  0.14976691645E+03  0.46921090116E+02 -0.42645309956E+03  0.46619999689E+03  0.10415600325E+03 0.  0.
         24    2    3    3    0    0 -0.10131937080E+04 -0.28811749706E+03 -0.70345973715E+03  0.12693914580E+04  0.83221931110E+02 0.  0.
        -15    1    4    4    0    0  0.50003173194E+02  0.38709418409E+02 -0.63186640387E+02  0.89394003862E+02  0.00000000000E+00 0. -1.
        -15    1    5    5    0    0 -0.23237956209E+03 -0.10122206697E+03 -0.18196235308E+03  0.31201997637E+03  0.00000000000E+00 0.  1.
         15    1    4    4    0    0  0.99763743257E+02  0.82116717060E+01 -0.36326645917E+03  0.37680599303E+03  0.00000000000E+00 0.  1.
         15    1    3    3    0    0  0.47590282652E+03 -0.24004876992E+03 -0.46511347273E+03  0.70741604077E+03  0.00000000000E+00 0. -1.
        -16    1    1    2    0    0  0.11208987387E+03  0.37077727924E+03 -0.63906123407E+02  0.39258619847E+03  0.00000000000E+00 0.  1.
         16    1    5    5    0    0 -0.78081414593E+03 -0.18689543009E+03 -0.52149738408E+03  0.95737148165E+03  0.00000000000E+00 0. -1.
    9900018    1    3    3    0    0  0.27543409118E+03  0.11046789763E+03 -0.64830377005E+03  0.71880459907E+03  0.91187600000E+02 0.  0.
<mgrwt>
<rscale>  0 0.27037767E+04</rscale>
<asrwt>0</asrwt>
<pdfrwt beam="1">  1        2 0.45089496E+00 0.27037767E+04</pdfrwt>
<pdfrwt beam="2">  1       -2 0.95935546E-01 0.27037767E+04</pdfrwt>
<totfact> 0.15356440E+00</totfact>
</mgrwt>
</event>
