<event>
12    1  0.1863416E-014  0.1015882E+04  0.7818608E-02  0.9291296E-01
         -2   -1    0    0    0  501 -0.00000000000E+00  0.00000000000E+00  0.23195528557E+03  0.23195528557E+03  0.00000000000E+00 0.  1.
          2   -1    0    0  501    0  0.00000000000E+00 -0.00000000000E+00 -0.11122999690E+04  0.11122999690E+04  0.00000000000E+00 0. -1.
    9900016    2    1    2    0    0  0.13464577303E+03  0.11895134410E+03 -0.53170060280E+03  0.86663577200E+03  0.66035832988E+03 0.  0.
         23    2    3    3    0    0  0.19269489419E+02 -0.19930082970E+03 -0.35904817259E+02  0.22273743958E+03  0.90723079467E+02 0.  0.
         23    2    3    3    0    0  0.89851216330E+00  0.61211107192E+02 -0.11669924437E+03  0.17178663208E+03  0.11020129925E+03 0.  0.
        -15    1    4    4    0    0 -0.31767028239E+02 -0.11491385519E+03 -0.34470767365E+02  0.12410709891E+03  0.00000000000E+00 0.  1.
        -15    1    5    5    0    0 -0.16555827044E+02 -0.17486835745E+02 -0.79388474140E+02  0.82960319790E+02  0.00000000000E+00 0. -1.
         15    1    4    4    0    0  0.51036517658E+02 -0.84386974507E+02 -0.14340498946E+01  0.98630340668E+02  0.00000000000E+00 0. -1.
         15    1    5    5    0    0  0.17454339207E+02  0.78697942937E+02 -0.37310770234E+02  0.88826312290E+02  0.00000000000E+00 0.  1.
        -16    1    1    2    0    0 -0.19090340696E+03 -0.97398881914E+02 -0.25968368456E+03  0.33669907784E+03  0.00000000000E+00 0.  1.
         16    1    3    3    0    0  0.11447777145E+03  0.25704106660E+03 -0.37909654117E+03  0.47211170034E+03  0.00000000000E+00 0. -1.
    9900018    1    1    2    0    0  0.56257633933E+02 -0.21552462181E+02 -0.88960396049E+02  0.14092040470E+03  0.91187600000E+02 0.  0.
<mgrwt>
<rscale>  0 0.10158816E+04</rscale>
<asrwt>0</asrwt>
<pdfrwt beam="1">  1        2 0.17112308E+00 0.10158816E+04</pdfrwt>
<pdfrwt beam="2">  1       -2 0.35685428E-01 0.10158816E+04</pdfrwt>
<totfact> 0.15744449E+02</totfact>
</mgrwt>
</event>
<event>
12    1  0.1863416E-014  0.1063826E+04  0.7818608E-02  0.9241185E-01
         -2   -1    0    0    0  501 -0.00000000000E+00  0.00000000000E+00  0.11138184672E+03  0.11138184672E+03  0.00000000000E+00 0. -1.
          2   -1    0    0  501    0  0.00000000000E+00 -0.00000000000E+00 -0.25401924703E+04  0.25401924703E+04  0.00000000000E+00 0.  1.
    9900016    2    1    2    0    0  0.12781514677E+03  0.14609235265E+03 -0.14125118065E+04  0.16169038512E+04  0.76256722539E+03 0.  0.
         23    2    3    3    0    0  0.49187574801E+02  0.61142135728E+02 -0.53617458652E+03  0.55276088736E+03  0.10910377211E+03 0.  0.
         23    2    3    3    0    0  0.10360199310E+02 -0.15941787703E+03 -0.52272866568E+03  0.55382195987E+03  0.89174615564E+02 0.  0.
        -15    1    5    5    0    0 -0.23307907577E+02 -0.12798224367E+03 -0.44340876632E+03  0.46209744351E+03  0.00000000000E+00 0. -1.
        -15    1    4    4    0    0 -0.31343908630E+01  0.72815846921E+02 -0.21187368834E+03  0.22405899174E+03  0.00000000000E+00 0.  1.
         15    1    4    4    0    0  0.52321965663E+02 -0.11673711193E+02 -0.32430089817E+03  0.32870189561E+03  0.00000000000E+00 0. -1.
         15    1    5    5    0    0  0.33668106887E+02 -0.31435633363E+02 -0.79319899356E+02  0.91724516352E+02  0.00000000000E+00 0.  1.
        -16    1    1    2    0    0 -0.12781514677E+03 -0.14609235265E+03 -0.10162988171E+04  0.10346704659E+04  0.00000000000E+00 0.  1.
         16    1    3    3    0    0  0.18248791680E+02  0.25905116204E+03 -0.21989347960E+03  0.34028468276E+03  0.00000000000E+00 0. -1.
    9900018    1    3    3    0    0  0.50018580980E+02 -0.14683068084E+02 -0.13371507468E+03  0.17003632119E+03  0.91187600000E+02 0.  0.
<mgrwt>
<rscale>  0 0.10638258E+04</rscale>
<asrwt>0</asrwt>
<pdfrwt beam="1">  1        2 0.39079880E+00 0.10638258E+04</pdfrwt>
<pdfrwt beam="2">  1       -2 0.17135671E-01 0.10638258E+04</pdfrwt>
<totfact> 0.92789898E+01</totfact>
</mgrwt>
</event>
<event>
12    1  0.1863416E-014  0.1051031E+04  0.7818608E-02  0.9254280E-01
         -2   -1    0    0    0  501 -0.00000000000E+00  0.00000000000E+00  0.43562849432E+03  0.43562849432E+03  0.00000000000E+00 0.  1.
          2   -1    0    0  501    0  0.00000000000E+00 -0.00000000000E+00 -0.63394959358E+03  0.63394959358E+03  0.00000000000E+00 0. -1.
    9900016    2    1    2    0    0  0.46448002341E+02 -0.12968447883E+03  0.23616108874E+02  0.67777878431E+03  0.66321254428E+03 0.  0.
         25    2    3    3    0    0 -0.16633267965E+03 -0.16907849730E+03  0.24860473158E+03  0.36561314292E+03  0.12495822961E+03 0.  0.
         23    2    4    4    0    0 -0.14067535758E+03 -0.13827111809E+03  0.18853202450E+03  0.28787311185E+03  0.91750454686E+02 0.  0.
        -15    1    5    5    0    0 -0.10394665945E+03 -0.97156778890E+02  0.18394595814E+03  0.23255206559E+03  0.00000000000E+00 0.  1.
        -15    1    4    4    0    0 -0.13142683544E+02 -0.32707028177E+02  0.51665597235E+02  0.62544494247E+02  0.00000000000E+00 0. -1.
         15    1    4    4    0    0 -0.12514638523E+02  0.18996489685E+01  0.84071098417E+01  0.15195536827E+02  0.00000000000E+00 0.  1.
         15    1    5    5    0    0 -0.36728698129E+02 -0.41114339204E+02  0.45860663604E+01  0.55321046259E+02  0.00000000000E+00 0. -1.
        -16    1    3    3    0    0  0.21278068199E+03  0.39394018469E+02 -0.22498862270E+03  0.31216564139E+03  0.00000000000E+00 0.  1.
         16    1    1    2    0    0 -0.12320347449E+02  0.17622250455E+03 -0.22222483315E+03  0.28388384692E+03  0.00000000000E+00 0. -1.
    9900018    1    1    2    0    0 -0.34127654891E+02 -0.46538025718E+02  0.28762501939E+00  0.10791545667E+03  0.91187600000E+02 0.  0.
<mgrwt>
<rscale>  0 0.10510309E+04</rscale>
<asrwt>0</asrwt>
<pdfrwt beam="1">  1        2 0.97530706E-01 0.10510309E+04</pdfrwt>
<pdfrwt beam="2">  1       -2 0.67019769E-01 0.10510309E+04</pdfrwt>
<totfact> 0.94415259E+01</totfact>
</mgrwt>
</event>
<event>
12    1  0.1863416E-014  0.1053297E+04  0.7818608E-02  0.9251947E-01
          1   -1    0    0  501    0  0.00000000000E+00  0.00000000000E+00  0.60638524651E+03  0.60638524651E+03  0.00000000000E+00 0. -1.
         -1   -1    0    0    0  501 -0.00000000000E+00 -0.00000000000E+00 -0.45739668527E+03  0.45739668527E+03  0.00000000000E+00 0.  1.
    9900016    2    1    2    0    0 -0.66369211188E+02 -0.83723011629E+02  0.21713787130E+03  0.69790123415E+03  0.65460130049E+03 0.  0.
         23    2    3    3    0    0  0.35494412114E+02 -0.12625216532E+03  0.62480435996E+01  0.16046690475E+03  0.92255769108E+02 0.  0.
         23    2    3    3    0    0  0.92384674254E+02  0.49889520067E+02 -0.10450781204E+03  0.16694512949E+03  0.76973380027E+02 0.  0.
        -15    1    4    4    0    0  0.19422741304E+02 -0.12214971205E+03 -0.23979592776E+02  0.12598736406E+03  0.00000000000E+00 0.  1.
        -15    1    5    5    0    0  0.29852311731E+02  0.24543374097E+02 -0.89975414782E+02  0.97924016425E+02  0.00000000000E+00 0. -1.
         15    1    4    4    0    0  0.16071670809E+02 -0.41024532676E+01  0.30227636376E+02  0.34479540692E+02  0.00000000000E+00 0. -1.
         15    1    5    5    0    0  0.62532362523E+02  0.25346145970E+02 -0.14532397257E+02  0.69021113062E+02  0.00000000000E+00 0.  1.
        -16    1    1    2    0    0  0.13796608013E+03  0.78325576799E+02 -0.15432241759E+03  0.22132542515E+03  0.00000000000E+00 0.  1.
         16    1    3    3    0    0 -0.19424829756E+03 -0.73603663798E+01  0.31539763974E+03  0.37048919991E+03  0.00000000000E+00 0. -1.
    9900018    1    1    2    0    0 -0.71596868945E+02  0.53974348302E+01  0.86173107533E+02  0.14455527248E+03  0.91187600000E+02 0.  0.
<mgrwt>
<rscale>  0 0.10532969E+04</rscale>
<asrwt>0</asrwt>
<pdfrwt beam="1">  1        1 0.93290038E-01 0.10532969E+04</pdfrwt>
<pdfrwt beam="2">  1       -1 0.70368721E-01 0.10532969E+04</pdfrwt>
<totfact> 0.68827833E+01</totfact>
</mgrwt>
</event>
<event>
12    1  0.1863416E-014  0.1575876E+04  0.7818608E-02  0.8835507E-01
          1   -1    0    0  501    0  0.00000000000E+00  0.00000000000E+00  0.22989596328E+04  0.22989596328E+04  0.00000000000E+00 0. -1.
         -1   -1    0    0    0  501 -0.00000000000E+00 -0.00000000000E+00 -0.27005545671E+03  0.27005545671E+03  0.00000000000E+00 0.  1.
    9900016    2    1    2    0    0  0.39343260532E+01 -0.95626211317E+02  0.20237968075E+04  0.21294564708E+04  0.65549331952E+03 0.  0.
         23    2    3    3    0    0  0.43013559770E+02  0.10896990999E+03  0.48868074000E+03  0.51610777076E+03  0.11761699616E+03 0.  0.
         23    2    3    3    0    0  0.76880181912E+02  0.79241145411E+02  0.21975309932E+03  0.26272294950E+03  0.92424033881E+02 0.  0.
        -15    1    5    5    0    0  0.33580724819E+02  0.14738827631E+01  0.13742935289E+03  0.14148026168E+03  0.00000000000E+00 0.  1.
        -15    1    4    4    0    0 -0.22887375811E+02  0.63408595285E+02  0.10975283345E+03  0.12880281976E+03  0.00000000000E+00 0.  1.
         15    1    4    4    0    0  0.65900935581E+02  0.45561314704E+02  0.37892790655E+03  0.38730495100E+03  0.00000000000E+00 0. -1.
         15    1    5    5    0    0  0.43299457094E+02  0.77767262648E+02  0.82323746429E+02  0.12124268782E+03  0.00000000000E+00 0. -1.
        -16    1    1    2    0    0  0.44604862586E+02  0.79520877576E+02 -0.19417515590E+03  0.21451609475E+03  0.00000000000E+00 0.  1.
         16    1    3    3    0    0 -0.11595941563E+03 -0.28383726672E+03  0.13153629682E+04  0.13506257506E+04  0.00000000000E+00 0. -1.
    9900018    1    1    2    0    0 -0.48539188640E+02  0.16105333742E+02  0.19928252452E+03  0.22504252394E+03  0.91187600000E+02 0.  0.
<mgrwt>
<rscale>  0 0.15758764E+04</rscale>
<asrwt>0</asrwt>
<pdfrwt beam="1">  1        1 0.35368608E+00 0.15758764E+04</pdfrwt>
<pdfrwt beam="2">  1       -1 0.41546995E-01 0.15758764E+04</pdfrwt>
<totfact> 0.10194368E+01</totfact>
</mgrwt>
</event>
<event>
12    1  0.1863417E-014  0.1216378E+04  0.7818608E-02  0.9098641E-01
          1   -1    0    0  501    0  0.00000000000E+00  0.00000000000E+00  0.84273405444E+03  0.84273405444E+03  0.00000000000E+00 0. -1.
         -1   -1    0    0    0  501 -0.00000000000E+00 -0.00000000000E+00 -0.43892096734E+03  0.43892096734E+03  0.00000000000E+00 0.  1.
    9900016    2    1    2    0    0 -0.18860361527E+03 -0.31876236397E+03  0.32698503943E+03  0.90339146645E+03  0.75631749765E+03 0.  0.
         25    2    3    3    0    0  0.22196834849E+03 -0.16743564336E+03  0.28759996129E+03  0.41909047128E+03  0.12497376917E+03 0.  0.
         23    2    4    4    0    0  0.18901260215E+03 -0.14442648222E+03  0.26444858527E+03  0.36645474601E+03  0.88154716745E+02 0.  0.
        -15    1    5    5    0    0  0.13624290086E+01 -0.37756410765E+02  0.36734196047E+02  0.52695388089E+02  0.00000000000E+00 0.  1.
        -15    1    4    4    0    0  0.15671899105E+02 -0.23431905854E+02  0.21128207680E+02  0.35228735335E+02  0.00000000000E+00 0. -1.
         15    1    5    5    0    0  0.18765017314E+03 -0.10667007146E+03  0.22771438922E+03  0.31375935792E+03  0.00000000000E+00 0. -1.
         15    1    4    4    0    0  0.17283847241E+02  0.42274471670E+00  0.20231683482E+01  0.17406989938E+02  0.00000000000E+00 0.  1.
        -16    1    1    2    0    0  0.18860361527E+03  0.31876236397E+03  0.76828047665E+02  0.37826355532E+03  0.00000000000E+00 0.  1.
         16    1    3    3    0    0 -0.33013796556E+03 -0.10525707253E+03 -0.60485919856E+01  0.34656415435E+03  0.00000000000E+00 0. -1.
    9900018    1    3    3    0    0 -0.80433998206E+02 -0.46069648084E+02  0.45433670126E+02  0.13773684081E+03  0.91187600000E+02 0.  0.
<mgrwt>
<rscale>  0 0.12163776E+04</rscale>
<asrwt>0</asrwt>
<pdfrwt beam="1">  1        1 0.12965139E+00 0.12163776E+04</pdfrwt>
<pdfrwt beam="2">  1       -1 0.67526303E-01 0.12163776E+04</pdfrwt>
<totfact> 0.44611400E+01</totfact>
</mgrwt>
</event>
<event>
12    1  0.1863416E-014  0.9842852E+03  0.7818608E-02  0.9325950E-01
          1   -1    0    0  501    0  0.00000000000E+00  0.00000000000E+00  0.70587548407E+03  0.70587548407E+03  0.00000000000E+00 0. -1.
         -1   -1    0    0    0  501 -0.00000000000E+00 -0.00000000000E+00 -0.34312613920E+03  0.34312613920E+03  0.00000000000E+00 0.  1.
    9900016    2    1    2    0    0  0.77026097129E+02  0.31143320232E+02  0.39438985779E+03  0.78143832567E+03  0.66947708763E+03 0.  0.
         25    2    3    3    0    0  0.22725203189E+03 -0.43573486330E+02  0.51265053369E+03  0.57616772348E+03  0.12496616011E+03 0.  0.
         23    2    4    4    0    0  0.14206992184E+03 -0.28484383465E+02  0.32271488627E+03  0.36524605828E+03  0.90909639087E+02 0.  0.
        -15    1    5    5    0    0  0.34820445079E+02 -0.44765109840E+01  0.18865694161E+03  0.19189565957E+03  0.00000000000E+00 0. -1.
        -15    1    4    4    0    0  0.63894319140E+02  0.22009051815E+01  0.14120873428E+03  0.15500720835E+03  0.00000000000E+00 0.  1.
         15    1    4    4    0    0  0.21287790917E+02 -0.17290008047E+02  0.48726913142E+02  0.55914456849E+02  0.00000000000E+00 0. -1.
         15    1    5    5    0    0  0.10724947676E+03 -0.24007872481E+02  0.13405794466E+03  0.17335039871E+03  0.00000000000E+00 0.  1.
        -16    1    1    2    0    0 -0.11219695227E+03  0.22187964905E+01 -0.94462376827E+02  0.14668408159E+03  0.00000000000E+00 0.  1.
         16    1    3    3    0    0 -0.15022593476E+03  0.74716806562E+02 -0.11826067590E+03  0.20527060219E+03  0.00000000000E+00 0. -1.
    9900018    1    1    2    0    0  0.35170855145E+02 -0.33362116722E+02  0.62821863908E+02  0.12087921601E+03  0.91187600000E+02 0.  0.
<mgrwt>
<rscale>  0 0.98428518E+03</rscale>
<asrwt>0</asrwt>
<pdfrwt beam="1">  1        1 0.10859623E+00 0.98428518E+03</pdfrwt>
<pdfrwt beam="2">  1       -1 0.52788637E-01 0.98428518E+03</pdfrwt>
<totfact> 0.97624028E+01</totfact>
</mgrwt>
</event>
<event>
11    1  0.1863416E-014  0.9786001E+03  0.7818608E-02  0.9332332E-01
         -1   -1    0    0    0  501 -0.00000000000E+00  0.00000000000E+00  0.16197091659E+03  0.16197091659E+03  0.00000000000E+00 0.  1.
          1   -1    0    0  501    0  0.00000000000E+00 -0.00000000000E+00 -0.14781328595E+04  0.14781328595E+04  0.00000000000E+00 0. -1.
    9900016    2    1    2    0    0  0.97227598357E+02 -0.87358986444E+01 -0.77782350196E+03  0.10929860568E+04  0.76162956760E+03 0.  0.
         23    2    3    3    0    0 -0.11650505752E+02  0.67058999076E+02 -0.23525396385E+03  0.26507269800E+03  0.10142220703E+03 0.  0.
        -15    1    4    4    0    0 -0.38486259527E+02  0.52774203656E+02 -0.65080644992E+02  0.92205201027E+02  0.00000000000E+00 0.  1.
        -15    1    3    3    0    0  0.38285895833E+02  0.79561408356E+02 -0.20430043373E+03  0.22256346228E+03  0.00000000000E+00 0. -1.
         15    1    3    3    0    0  0.13644423347E+03  0.10247773322E+03 -0.12075510529E+03  0.20904666969E+03  0.00000000000E+00 0.  1.
         15    1    4    4    0    0  0.26835753775E+02  0.14284795420E+02 -0.17017331885E+03  0.17286749697E+03  0.00000000000E+00 0. -1.
        -16    1    3    3    0    0 -0.66088991117E+02 -0.21085922333E+03 -0.10698420118E+03  0.24550964566E+03  0.00000000000E+00 0.  1.
         16    1    1    2    0    0 -0.97227598357E+02  0.87358986444E+01 -0.53833844094E+03  0.54711771932E+03  0.00000000000E+00 0. -1.
    9900018    1    3    3    0    0  0.23696592827E+00 -0.46974815971E+02 -0.11052979792E+03  0.15079358113E+03  0.91187600000E+02 0.  0.
<mgrwt>
<rscale>  0 0.97860009E+03</rscale>
<asrwt>0</asrwt>
<pdfrwt beam="1">  1        1 0.22740506E+00 0.97860009E+03</pdfrwt>
<pdfrwt beam="2">  1       -1 0.24918602E-01 0.97860009E+03</pdfrwt>
<totfact> 0.95788466E+01</totfact>
</mgrwt>
</event>
<event>
12    1  0.1863416E-014  0.8195838E+03  0.7818608E-02  0.9532095E-01
         -1   -1    0    0    0  501 -0.00000000000E+00  0.00000000000E+00  0.12434414534E+03  0.12434414534E+03  0.00000000000E+00 0.  1.
          1   -1    0    0  501    0  0.00000000000E+00 -0.00000000000E+00 -0.13505211208E+04  0.13505211208E+04  0.00000000000E+00 0. -1.
    9900016    2    1    2    0    0  0.43531562172E+02  0.45614715664E+01 -0.10293728303E+04  0.12252545583E+04  0.66311726332E+03 0.  0.
         25    2    3    3    0    0  0.30671334200E+02 -0.17876919949E+03 -0.46207608147E+02  0.22505989000E+03  0.12497061097E+03 0.  0.
         23    2    4    4    0    0  0.23319664637E+02 -0.13876990693E+03 -0.37404178381E+02  0.17200576441E+03  0.91575196444E+02 0.  0.
        -15    1    5    5    0    0 -0.17956328411E+02 -0.10877953863E+03 -0.26701339051E+01  0.11028393976E+03  0.00000000000E+00 0.  1.
        -15    1    4    4    0    0  0.17757398224E+02 -0.27513563048E+02 -0.14524923508E+02  0.35823103525E+02  0.00000000000E+00 0.  1.
         15    1    4    4    0    0 -0.10405728661E+02 -0.12485729516E+02  0.57214937416E+01  0.17231022058E+02  0.00000000000E+00 0. -1.
         15    1    5    5    0    0  0.41275993048E+02 -0.29990368300E+02 -0.34734044476E+02  0.61721824654E+02  0.00000000000E+00 0. -1.
        -16    1    1    2    0    0 -0.69619773852E+01  0.33968443601E+02 -0.11807300809E+02  0.36629723480E+02  0.00000000000E+00 0.  1.
         16    1    3    3    0    0  0.12860227972E+02  0.18333067106E+03 -0.98316522219E+03  0.10001946683E+04  0.00000000000E+00 0. -1.
    9900018    1    1    2    0    0 -0.36569584787E+02 -0.38529915168E+02 -0.18499684431E+03  0.21298098434E+03  0.91187600000E+02 0.  0.
<mgrwt>
<rscale>  0 0.81958378E+03</rscale>
<asrwt>0</asrwt>
<pdfrwt beam="1">  1        1 0.20777248E+00 0.81958378E+03</pdfrwt>
<pdfrwt beam="2">  1       -1 0.19129869E-01 0.81958378E+03</pdfrwt>
<totfact> 0.18561987E+02</totfact>
</mgrwt>
</event>
<event>
12    1  0.1863416E-014  0.9796462E+03  0.7818608E-02  0.9331155E-01
          2   -1    0    0  501    0  0.00000000000E+00  0.00000000000E+00  0.75324556675E+03  0.75324556675E+03  0.00000000000E+00 0.  1.
         -2   -1    0    0    0  501 -0.00000000000E+00 -0.00000000000E+00 -0.31852383151E+03  0.31852383151E+03  0.00000000000E+00 0. -1.
    9900016    2    1    2    0    0  0.11299988665E+02  0.30386998131E+02  0.56531704110E+03  0.93721014249E+03  0.74681218177E+03 0.  0.
         25    2    3    3    0    0  0.12429971830E+03 -0.26265125443E+03  0.30842409346E+03  0.44181282817E+03  0.12504819986E+03 0.  0.
         23    2    4    4    0    0  0.10434100288E+03 -0.20231380846E+03  0.22356508884E+03  0.33402338861E+03  0.98855213376E+02 0.  0.
        -15    1    5    5    0    0  0.10283108827E+03 -0.14614667367E+03  0.21089858135E+03  0.27642592960E+03  0.00000000000E+00 0.  1.
        -15    1    4    4    0    0  0.87328701425E+01 -0.83466144311E+01  0.24653844451E+02  0.27454344640E+02  0.00000000000E+00 0. -1.
         15    1    4    4    0    0  0.11225845284E+02 -0.51990831538E+02  0.60205160162E+02  0.80335094925E+02  0.00000000000E+00 0.  1.
         15    1    5    5    0    0  0.15099146063E+01 -0.56167134782E+02  0.12666507499E+02  0.57597459006E+02  0.00000000000E+00 0. -1.
        -16    1    3    3    0    0 -0.14273148949E+03  0.29392601622E+03  0.18460914557E+03  0.37529364201E+03  0.00000000000E+00 0.  1.
         16    1    1    2    0    0 -0.11299988665E+02 -0.30386998131E+02 -0.13059530586E+03  0.13455925577E+03  0.00000000000E+00 0. -1.
    9900018    1    3    3    0    0  0.29731759855E+02 -0.88776366057E+00  0.72283802068E+02  0.12010367231E+03  0.91187600000E+02 0.  0.
<mgrwt>
<rscale>  0 0.97964619E+03</rscale>
<asrwt>0</asrwt>
<pdfrwt beam="1">  1        2 0.11588393E+00 0.97964619E+03</pdfrwt>
<pdfrwt beam="2">  1       -2 0.49003667E-01 0.97964619E+03</pdfrwt>
<totfact> 0.14693975E+02</totfact>
</mgrwt>
</event>
<event>
11    1  0.1863416E-014  0.9099719E+03  0.7818608E-02  0.9413201E-01
          1   -1    0    0  501    0  0.00000000000E+00  0.00000000000E+00  0.44277163671E+03  0.44277163671E+03  0.00000000000E+00 0. -1.
         -1   -1    0    0    0  501 -0.00000000000E+00 -0.00000000000E+00 -0.46753717311E+03  0.46753717311E+03  0.00000000000E+00 0.  1.
    9900016    2    1    2    0    0 -0.11570860032E+03  0.73048546869E+02 -0.50550133288E+02  0.77106292720E+03  0.75713813227E+03 0.  0.
         23    2    3    3    0    0  0.12200710607E+03 -0.11822096050E+03  0.18348121735E+02  0.19181579685E+03  0.87147673041E+02 0.  0.
        -15    1    4    4    0    0  0.96019831116E+02 -0.10193042437E+03 -0.21346736070E+02  0.14165204736E+03  0.00000000000E+00 0. -1.
        -15    1    3    3    0    0  0.47573791772E+02 -0.29841869015E+02  0.19872751305E+02  0.59571209945E+02  0.00000000000E+00 0. -1.
         15    1    4    4    0    0  0.25987274954E+02 -0.16290536133E+02  0.39694857805E+02  0.50163749493E+02  0.00000000000E+00 0.  1.
         15    1    3    3    0    0  0.20387788044E+02 -0.66112004010E+01 -0.12590368792E+02  0.24857338119E+02  0.00000000000E+00 0.  1.
        -16    1    1    2    0    0  0.11570860032E+03 -0.73048546869E+02  0.25784596889E+02  0.13924588261E+03  0.00000000000E+00 0.  1.
         16    1    3    3    0    0 -0.32733415901E+03  0.21885147094E+03 -0.48758625911E+02  0.39676318073E+03  0.00000000000E+00 0. -1.
    9900018    1    3    3    0    0  0.21656872802E+02  0.88711058513E+01 -0.27422011625E+02  0.98055401554E+02  0.91187600000E+02 0.  0.
<mgrwt>
<rscale>  0 0.90997187E+03</rscale>
<asrwt>0</asrwt>
<pdfrwt beam="1">  1        1 0.68118714E-01 0.90997187E+03</pdfrwt>
<pdfrwt beam="2">  1       -1 0.71928795E-01 0.90997187E+03</pdfrwt>
<totfact> 0.10290769E+02</totfact>
</mgrwt>
</event>
<event>
12    1  0.1863416E-014  0.9324228E+03  0.7818608E-02  0.9385935E-01
          2   -1    0    0  501    0  0.00000000000E+00  0.00000000000E+00  0.88849095739E+03  0.88849095739E+03  0.00000000000E+00 0. -1.
         -2   -1    0    0    0  501 -0.00000000000E+00 -0.00000000000E+00 -0.24463172054E+03  0.24463172054E+03  0.00000000000E+00 0.  1.
    9900016    2    1    2    0    0  0.16989827600E+03 -0.25380887748E+02  0.50126741911E+03  0.84788284287E+03  0.66191138087E+03 0.  0.
         25    2    3    3    0    0 -0.11273342457E+02  0.76337591147E+02 -0.12197879996E+03  0.19091583162E+03  0.12496203843E+03 0.  0.
         23    2    4    4    0    0 -0.38716693228E+01  0.75653878651E+02 -0.90373406311E+02  0.15121081823E+03  0.94651253575E+02 0.  0.
        -15    1    5    5    0    0 -0.40331139553E+02  0.63608406689E+02 -0.83059444451E+02  0.11212270748E+03  0.00000000000E+00 0.  1.
        -15    1    4    4    0    0 -0.64160886351E+00  0.10498410761E+02 -0.22048822091E+02  0.24429057412E+02  0.00000000000E+00 0. -1.
         15    1    5    5    0    0  0.36459470230E+02  0.12045471962E+02 -0.73139618600E+01  0.39088110755E+02  0.00000000000E+00 0. -1.
         15    1    4    4    0    0 -0.67600642705E+01 -0.98146982647E+01 -0.95565715611E+01  0.15275955976E+02  0.00000000000E+00 0.  1.
        -16    1    3    3    0    0  0.18117161846E+03 -0.10171847890E+03  0.62324621907E+03  0.65696701125E+03  0.00000000000E+00 0.  1.
         16    1    1    2    0    0 -0.14134611909E+03 -0.54060662545E+00  0.50713024222E+02  0.15016933263E+03  0.00000000000E+00 0. -1.
    9900018    1    1    2    0    0 -0.28552156913E+02  0.25921494374E+02  0.91878793517E+02  0.13507050243E+03  0.91187600000E+02 0.  0.
<mgrwt>
<rscale>  0 0.93242280E+03</rscale>
<asrwt>0</asrwt>
<pdfrwt beam="1">  1        2 0.13669092E+00 0.93242280E+03</pdfrwt>
<pdfrwt beam="2">  1       -2 0.37635650E-01 0.93242280E+03</pdfrwt>
<totfact> 0.19895274E+02</totfact>
</mgrwt>
</event>
<event>
12    1  0.1863416E-014  0.8440899E+03  0.7818608E-02  0.9498304E-01
         -1   -1    0    0    0  501 -0.00000000000E+00  0.00000000000E+00  0.63307715728E+03  0.63307715728E+03  0.00000000000E+00 0.  1.
          1   -1    0    0  501    0  0.00000000000E+00 -0.00000000000E+00 -0.28135894821E+03  0.28135894821E+03  0.00000000000E+00 0. -1.
    9900016    2    1    2    0    0  0.39961632881E+02  0.44860321900E+02  0.35623221298E+03  0.75757204884E+03  0.66588635595E+03 0.  0.
         23    2    3    3    0    0  0.23381958386E+03  0.36362933272E+02  0.21398103539E+03  0.33812477609E+03  0.11201169577E+03 0.  0.
         23    2    3    3    0    0 -0.18849617901E+03 -0.92756622811E+02  0.19881305759E+03  0.30334227845E+03  0.91407359922E+02 0.  0.
        -15    1    5    5    0    0 -0.35355428964E+02 -0.48273581650E+02  0.97544208411E+02  0.11443433767E+03  0.00000000000E+00 0.  1.
        -15    1    4    4    0    0  0.20574245952E+03  0.66201927931E+02  0.20098815542E+03  0.29514215817E+03  0.00000000000E+00 0.  1.
         15    1    4    4    0    0  0.28077124342E+02 -0.29838994659E+02  0.12992879968E+02  0.42982617922E+02  0.00000000000E+00 0. -1.
         15    1    5    5    0    0 -0.15314075005E+03 -0.44483041162E+02  0.10126884918E+03  0.18890794078E+03  0.00000000000E+00 0. -1.
        -16    1    3    3    0    0 -0.53617719675E+01  0.10125401144E+03 -0.56561880003E+02  0.11610499430E+03  0.00000000000E+00 0.  1.
         16    1    1    2    0    0 -0.16756385443E+02 -0.27638124922E+02 -0.42968103953E+02  0.53767093651E+02  0.00000000000E+00 0. -1.
    9900018    1    1    2    0    0 -0.23205247437E+02 -0.17222196978E+02  0.38454100046E+02  0.10309696301E+03  0.91187600000E+02 0.  0.
<mgrwt>
<rscale>  0 0.84408986E+03</rscale>
<asrwt>0</asrwt>
<pdfrwt beam="1">  1        1 0.43285992E-01 0.84408986E+03</pdfrwt>
<pdfrwt beam="2">  1       -1 0.97396486E-01 0.84408986E+03</pdfrwt>
<totfact> 0.97554878E+01</totfact>
</mgrwt>
</event>
