<event>
11    1  0.8054772E-012  0.1548423E+04  0.7818608E-02  0.9287124E-01
         -1   -1    0    0    0  501 -0.00000000000E+00  0.00000000000E+00  0.10816662472E+04  0.10816662472E+04  0.00000000000E+00 0.  1.
          1   -1    0    0  501    0  0.00000000000E+00 -0.00000000000E+00 -0.10361599430E+04  0.10361599430E+04  0.00000000000E+00 0. -1.
    9900016    2    1    2    0    0 -0.44343373466E+03 -0.68555721375E+02 -0.23553351419E+03  0.87040357969E+03  0.70766728854E+03 0.  0.
         23    2    3    3    0    0 -0.39919386770E+03 -0.63597270753E+02 -0.22526108210E+03  0.47146826810E+03  0.90218711224E+02 0.  0.
        -15    1    1    2    0    0  0.58290790965E+02 -0.10266171423E+02 -0.50864109777E+01  0.59406078508E+02  0.00000000000E+00 0.  1.
        -15    1    4    4    0    0 -0.32897172843E+03 -0.23099071632E+02 -0.15587375039E+03  0.36476374721E+03  0.00000000000E+00 0.  1.
         15    1    1    2    0    0  0.16239915287E+03 -0.79577430053E+02 -0.40568528379E+03  0.44416956414E+03  0.00000000000E+00 0. -1.
         15    1    4    4    0    0 -0.70222139272E+02 -0.40498199121E+02 -0.69387331716E+02  0.10670452089E+03  0.00000000000E+00 0. -1.
        -16    1    1    2    0    0  0.22274379083E+03  0.15839932285E+03  0.69181151320E+03  0.74384696788E+03  0.00000000000E+00 0.  1.
         16    1    3    3    0    0 -0.18884258288E+01  0.18033904523E+03 -0.43486032895E+02  0.18551757988E+03  0.00000000000E+00 0. -1.
    9900018    1    3    3    0    0 -0.42351441130E+02 -0.18529749586E+03  0.33213600808E+02  0.21341773171E+03  0.91187600000E+02 0.  0.
<mgrwt>
<rscale>  0 0.10197695E+04</rscale>
<asrwt>0</asrwt>
<pdfrwt beam="1">  1        1 0.15940922E+00 0.15484235E+04</pdfrwt>
<pdfrwt beam="2">  1       -1 0.16641019E+00 0.15484235E+04</pdfrwt>
<totfact> 0.35329176E+00</totfact>
</mgrwt>
</event>
<event>
12    1  0.8054772E-012  0.2222175E+04  0.7818608E-02  0.9123380E-01
          1   -1    0    0  501    0  0.00000000000E+00  0.00000000000E+00  0.11631957776E+04  0.11631957776E+04  0.00000000000E+00 0. -1.
         -1   -1    0    0    0  501 -0.00000000000E+00 -0.00000000000E+00 -0.14867071251E+04  0.14867071251E+04  0.00000000000E+00 0.  1.
         23    2    1    2    0    0  0.65399225714E+02 -0.13135845175E+03  0.29219619410E+03  0.34400666869E+03  0.10691057332E+03 0.  0.
    9900016    2    1    2    0    0  0.50563516781E+03 -0.36208786521E+03 -0.10704030009E+04  0.14248074149E+04  0.70536447328E+03 0.  0.
         23    2    4    4    0    0  0.80375530172E+02  0.82037658078E+02  0.20778703910E+02  0.14714044167E+03  0.89599954492E+02 0.  0.
        -15    1    5    5    0    0  0.15676290306E+02 -0.18048007682E+02 -0.67200857402E+01  0.24832160829E+02  0.00000000000E+00 0. -1.
        -15    1    3    3    0    0 -0.23288683595E+02 -0.47677157635E+02  0.50288216335E+02  0.73105258675E+02  0.00000000000E+00 0.  1.
         15    1    3    3    0    0  0.88687909309E+02 -0.83681294118E+02  0.24190797777E+03  0.27090141002E+03  0.00000000000E+00 0. -1.
         15    1    5    5    0    0  0.64699239866E+02  0.10008566576E+03  0.27498789650E+02  0.12230828084E+03  0.00000000000E+00 0.  1.
        -16    1    4    4    0    0 -0.48540361931E+01 -0.11496736267E+03 -0.17384386777E+03  0.20847720860E+03  0.00000000000E+00 0.  1.
         16    1    1    2    0    0 -0.57103439352E+03  0.49344631696E+03  0.45469545938E+03  0.88108881907E+03  0.00000000000E+00 0. -1.
    9900018    1    4    4    0    0  0.43011367383E+03 -0.32915816061E+03 -0.91733783706E+03  0.10691897646E+04  0.91187600000E+02 0.  0.
<mgrwt>
<rscale>  0 0.11880517E+04</rscale>
<asrwt>0</asrwt>
<pdfrwt beam="1">  1        1 0.17895320E+00 0.22221750E+04</pdfrwt>
<pdfrwt beam="2">  1       -1 0.22872417E+00 0.22221750E+04</pdfrwt>
<totfact> 0.98412600E-01</totfact>
</mgrwt>
</event>
<event>
12    1  0.8054772E-012  0.1569885E+04  0.7818608E-02  0.9258947E-01
         -1   -1    0    0    0  501 -0.00000000000E+00  0.00000000000E+00  0.16155066830E+03  0.16155066830E+03  0.00000000000E+00 0.  1.
          1   -1    0    0  501    0  0.00000000000E+00 -0.00000000000E+00 -0.55102853675E+04  0.55102853675E+04  0.00000000000E+00 0. -1.
         23    2    1    2    0    0 -0.48222644576E+02 -0.29776716933E+03 -0.71256574500E+03  0.77708355178E+03  0.71541560778E+02 0.  0.
    9900016    2    1    2    0    0  0.24022395385E+03 -0.17998205435E+03 -0.12679360328E+04  0.14873925329E+04  0.71733790911E+03 0.  0.
         23    2    4    4    0    0  0.28115189924E+03 -0.11479790201E+03 -0.57254348204E+03  0.65491579733E+03  0.94253456211E+02 0.  0.
        -15    1    5    5    0    0  0.17430517243E+03 -0.76943322172E+02 -0.25916376620E+03  0.32166508309E+03  0.00000000000E+00 0.  1.
        -15    1    3    3    0    0  0.17366863256E+02 -0.10399225542E+03 -0.24490705782E+03  0.26663732690E+03  0.00000000000E+00 0. -1.
         15    1    3    3    0    0 -0.65589507831E+02 -0.19377491391E+03 -0.46765868717E+03  0.51044622487E+03  0.00000000000E+00 0.  1.
         15    1    5    5    0    0  0.10684672681E+03 -0.37854579841E+02 -0.31337971584E+03  0.33325071424E+03  0.00000000000E+00 0. -1.
        -16    1    4    4    0    0  0.70525032257E+02  0.12186065601E+03 -0.57103760002E+02  0.15193629936E+03  0.00000000000E+00 0.  1.
         16    1    1    2    0    0 -0.19200130928E+03  0.47774922368E+03 -0.33682329214E+04  0.34073599511E+04  0.00000000000E+00 0. -1.
    9900018    1    4    4    0    0 -0.11145297765E+03 -0.18704480835E+03 -0.63828879074E+03  0.68054043622E+03  0.91187600000E+02 0.  0.
<mgrwt>
<rscale>  0 0.10465172E+04</rscale>
<asrwt>0</asrwt>
<pdfrwt beam="1">  1        1 0.84773615E+00 0.15698851E+04</pdfrwt>
<pdfrwt beam="2">  1       -1 0.24853951E-01 0.15698851E+04</pdfrwt>
<totfact> 0.20907657E-02</totfact>
</mgrwt>
</event>
<event>
12    1  0.8054772E-012  0.1397723E+04  0.7818608E-02  0.9474642E-01
          2   -1    0    0  501    0  0.00000000000E+00  0.00000000000E+00  0.71077860404E+03  0.71077860404E+03  0.00000000000E+00 0. -1.
         -2   -1    0    0    0  501 -0.00000000000E+00 -0.00000000000E+00 -0.90680811926E+03  0.90680811926E+03  0.00000000000E+00 0.  1.
         23    2    1    2    0    0 -0.12488041394E+03  0.13915974442E+03 -0.71689785276E+02  0.21434402008E+03  0.76442013164E+02 0.  0.
    9900016    2    1    2    0    0 -0.16588898504E+03 -0.14638697751E+03  0.37341537402E+03  0.82673665831E+03  0.70363780321E+03 0.  0.
         23    2    4    4    0    0  0.11883216470E+03  0.17119051347E+03  0.97414991681E+02  0.24757358836E+03  0.91518991369E+02 0.  0.
        -15    1    5    5    0    0  0.79665431158E+02  0.13113689353E+03  0.24122659997E+02  0.15532343188E+03  0.00000000000E+00 0.  1.
        -15    1    3    3    0    0 -0.90986653336E+02  0.49804383564E+02 -0.19802778552E+02  0.10559923175E+03  0.00000000000E+00 0. -1.
         15    1    5    5    0    0  0.39166733542E+02  0.40053619934E+02  0.73292331684E+02  0.92250156476E+02  0.00000000000E+00 0. -1.
         15    1    3    3    0    0 -0.33893760605E+02  0.89355360860E+02 -0.51887006724E+02  0.10874478833E+03  0.00000000000E+00 0.  1.
        -16    1    1    2    0    0  0.29076939898E+03  0.72272330875E+01 -0.49775510397E+03  0.57650604490E+03  0.00000000000E+00 0.  1.
         16    1    4    4    0    0 -0.23469138115E+03 -0.31511582835E+03  0.16248197446E+03  0.42518045779E+03  0.00000000000E+00 0. -1.
    9900018    1    4    4    0    0 -0.50029768588E+02 -0.24616626323E+01  0.11351840788E+03  0.15398261217E+03  0.91187600000E+02 0.  0.
<mgrwt>
<rscale>  0 0.86179426E+03</rscale>
<asrwt>0</asrwt>
<pdfrwt beam="1">  1        2 0.10935055E+00 0.13977230E+04</pdfrwt>
<pdfrwt beam="2">  1       -2 0.13950894E+00 0.13977230E+04</pdfrwt>
<totfact> 0.14100923E+01</totfact>
</mgrwt>
</event>
<event>
12    1  0.8054772E-012  0.1327808E+04  0.7818608E-02  0.9660463E-01
          1   -1    0    0  501    0  0.00000000000E+00  0.00000000000E+00  0.22890160781E+04  0.22890160781E+04  0.00000000000E+00 0. -1.
         -1   -1    0    0    0  501 -0.00000000000E+00 -0.00000000000E+00 -0.23317401292E+03  0.23317401292E+03  0.00000000000E+00 0.  1.
         23    2    1    2    0    0  0.35909598192E+02  0.56676467476E+02  0.26663352202E+03  0.29410979980E+03  0.10442900969E+03 0.  0.
    9900016    2    1    2    0    0 -0.36233672350E+03  0.57171903738E+02  0.60229536695E+03  0.99184446921E+03  0.69745194406E+03 0.  0.
         23    2    4    4    0    0 -0.32621784810E+03  0.12182503746E+03  0.39436930542E+03  0.53428624014E+03  0.93140824418E+02 0.  0.
        -15    1    3    3    0    0  0.24807345677E+02  0.87635673875E+02  0.18921289768E+03  0.20999270555E+03  0.00000000000E+00 0. -1.
        -15    1    5    5    0    0 -0.13219889549E+03  0.35679551967E+02  0.92488756588E+02  0.16523845949E+03  0.00000000000E+00 0.  1.
         15    1    3    3    0    0  0.11102252515E+02 -0.30959206399E+02  0.77420624343E+02  0.84117094252E+02  0.00000000000E+00 0.  1.
         15    1    5    5    0    0 -0.19401895260E+03  0.86145485491E+02  0.30188054883E+03  0.36904778065E+03  0.00000000000E+00 0. -1.
        -16    1    4    4    0    0  0.41980277589E+02 -0.72998382529E+02  0.29643633004E+03  0.30816489957E+03  0.00000000000E+00 0.  1.
         16    1    1    2    0    0  0.32642712531E+03 -0.11384837121E+03  0.11869131762E+04  0.12362358220E+04  0.00000000000E+00 0. -1.
    9900018    1    4    4    0    0 -0.78099152991E+02  0.83452488086E+01 -0.88510268506E+02  0.14939332950E+03  0.91187600000E+02 0.  0.
<mgrwt>
<rscale>  0 0.73420402E+03</rscale>
<asrwt>0</asrwt>
<pdfrwt beam="1">  1        1 0.35215631E+00 0.13278082E+04</pdfrwt>
<pdfrwt beam="2">  1       -1 0.35872927E-01 0.13278082E+04</pdfrwt>
<totfact> 0.13810756E+01</totfact>
</mgrwt>
</event>
<event>
12    1  0.8054772E-012  0.1955052E+04  0.7818608E-02  0.8627928E-01
          1   -1    0    0  501    0  0.00000000000E+00  0.00000000000E+00  0.98796453559E+03  0.98796453559E+03  0.00000000000E+00 0. -1.
         -1   -1    0    0    0  501 -0.00000000000E+00 -0.00000000000E+00 -0.96719800393E+03  0.96719800393E+03  0.00000000000E+00 0.  1.
         23    2    1    2    0    0 -0.26971545768E+03  0.20935599354E+03  0.75348274772E+02  0.36488023764E+03  0.10432576461E+03 0.  0.
    9900016    2    1    2    0    0  0.33061513331E+03  0.13746913110E+03 -0.56121367186E+03  0.97329579571E+03  0.71002802205E+03 0.  0.
         23    2    4    4    0    0  0.18112405326E+02  0.12325873808E+03 -0.55732242815E+02  0.16510240843E+03  0.92908270030E+02 0.  0.
        -15    1    3    3    0    0 -0.12232005080E+03  0.15741753062E+03  0.26282593575E+02  0.20108020414E+03  0.00000000000E+00 0.  1.
        -15    1    5    5    0    0  0.35699244932E+02  0.77831389937E+01 -0.21757194486E+01  0.36602555873E+02  0.00000000000E+00 0. -1.
         15    1    3    3    0    0 -0.14739540688E+03  0.51938462925E+02  0.49065681197E+02  0.16380003349E+03  0.00000000000E+00 0. -1.
         15    1    5    5    0    0 -0.17586839606E+02  0.11547559909E+03 -0.53556523366E+02  0.12849985256E+03  0.00000000000E+00 0.  1.
        -16    1    4    4    0    0  0.17410213029E+03 -0.25445458900E+03 -0.19144486744E+03  0.36291848521E+03  0.00000000000E+00 0.  1.
         16    1    1    2    0    0 -0.60899675625E+02 -0.34682512464E+03  0.50663192875E+03  0.61698650617E+03  0.00000000000E+00 0. -1.
    9900018    1    4    4    0    0  0.13840059769E+03  0.26866498202E+03 -0.31403656160E+03  0.44527490208E+03  0.91187600000E+02 0.  0.
<mgrwt>
<rscale>  0 0.19550523E+04</rscale>
<asrwt>0</asrwt>
<pdfrwt beam="1">  1        1 0.15199455E+00 0.19550523E+04</pdfrwt>
<pdfrwt beam="2">  1       -1 0.14879969E+00 0.19550523E+04</pdfrwt>
<totfact> 0.51346966E+00</totfact>
</mgrwt>
</event>
<event>
11    1  0.8054772E-012  0.1130759E+04  0.7818608E-02  0.9681926E-01
         -1   -1    0    0    0  501 -0.00000000000E+00  0.00000000000E+00  0.51955096507E+03  0.51955096507E+03  0.00000000000E+00 0.  1.
          1   -1    0    0  501    0  0.00000000000E+00 -0.00000000000E+00 -0.10991313787E+04  0.10991313787E+04  0.00000000000E+00 0. -1.
    9900016    2    1    2    0    0  0.15827574873E+03  0.14809250016E+03 -0.51570213028E+03  0.90702027613E+03  0.71397093281E+03 0.  0.
         23    2    3    3    0    0  0.13923699613E+03 -0.19409271666E+03  0.13566167792E+02  0.25594173717E+03  0.90902190083E+02 0.  0.
        -15    1    1    2    0    0  0.11315578022E+03  0.34378040665E+02  0.95449161009E+02  0.15197573035E+03  0.00000000000E+00 0.  1.
        -15    1    4    4    0    0  0.68753047986E+02 -0.31358105450E+02 -0.12820542130E+02  0.76646452529E+02  0.00000000000E+00 0.  1.
         15    1    4    4    0    0  0.70483948148E+02 -0.16273461121E+03  0.26386709922E+02  0.17929528464E+03  0.00000000000E+00 0. -1.
         15    1    1    2    0    0  0.66799547559E+02 -0.10551013094E+00  0.82125188630E+02  0.10586187838E+03  0.00000000000E+00 0. -1.
        -16    1    1    2    0    0 -0.33823107651E+03 -0.18236503070E+03 -0.24145263299E+03  0.45382445892E+03  0.00000000000E+00 0.  1.
         16    1    3    3    0    0  0.18822452625E+02  0.97793162041E+02 -0.24913771813E+03  0.26830465867E+03  0.00000000000E+00 0. -1.
    9900018    1    3    3    0    0  0.21629997050E+00  0.24439205478E+03 -0.28013057994E+03  0.38277388030E+03  0.91187600000E+02 0.  0.
<mgrwt>
<rscale>  0 0.72103206E+03</rscale>
<asrwt>0</asrwt>
<pdfrwt beam="1">  1        1 0.16909713E+00 0.11307586E+04</pdfrwt>
<pdfrwt beam="2">  1       -1 0.79930918E-01 0.11307586E+04</pdfrwt>
<totfact> 0.19688069E+01</totfact>
</mgrwt>
</event>
