<event>
12    1  0.2625937E-016  0.3798098E+04  0.7818608E-02  0.8644818E-01
         -2   -1    0    0    0  501 -0.00000000000E+00  0.00000000000E+00  0.15612666481E+04  0.15612666481E+04  0.00000000000E+00 0.  1.
          2   -1    0    0  501    0  0.00000000000E+00 -0.00000000000E+00 -0.28073634065E+04  0.28073634065E+04  0.00000000000E+00 0. -1.
         23    2    1    2    0    0  0.20296015147E+03 -0.96494440608E+02  0.18533006484E+03  0.30974747452E+03  0.10531982190E+03 0.  0.
    9900016    2    1    2    0    0 -0.93099121238E+02  0.22828399548E+03 -0.22692698910E+04  0.32036522374E+04  0.22478925221E+04 0.  0.
         24    2    4    4    0    0 -0.31946984083E+03 -0.82494263810E+03 -0.16622699550E+04  0.18845723671E+04  0.76682905329E+02 0.  0.
        -15    1    3    3    0    0  0.13106131003E+03 -0.94780286203E+02  0.17290541763E+03  0.23676286256E+03  0.00000000000E+00 0. -1.
        -15    1    5    5    0    0 -0.21400517714E+03 -0.52294403225E+03 -0.11346479431E+04  0.12675545872E+04  0.00000000000E+00 0.  1.
         15    1    4    4    0    0  0.24439855200E+03  0.10018977894E+04 -0.44008114981E+03  0.11212498611E+04  0.00000000000E+00 0. -1.
         15    1    3    3    0    0  0.71898841435E+02 -0.17141544050E+01  0.12424647212E+02  0.72984611962E+02  0.00000000000E+00 0.  1.
        -16    1    1    2    0    0 -0.10986103023E+03 -0.13178955487E+03  0.83784306780E+03  0.85523034265E+03  0.00000000000E+00 0.  1.
         16    1    5    5    0    0 -0.10546466369E+03 -0.30199860584E+03 -0.52762201194E+03  0.61701777989E+03  0.00000000000E+00 0. -1.
    9900018    1    4    4    0    0 -0.18027832399E+02  0.51328844183E+02 -0.16691878613E+03  0.19783000921E+03  0.91187600000E+02 0.  0.
<mgrwt>
<rscale>  0 0.19202991E+04</rscale>
<asrwt>0</asrwt>
<pdfrwt beam="1">  1        2 0.43190206E+00 0.37980976E+04</pdfrwt>
<pdfrwt beam="2">  1       -2 0.24019487E+00 0.37980976E+04</pdfrwt>
<totfact> 0.13365647E-01</totfact>
</mgrwt>
</event>
<event>
11    1  0.2625937E-016  0.2836151E+04  0.7818608E-02  0.8639975E-01
         -1   -1    0    0    0  501 -0.00000000000E+00  0.00000000000E+00  0.15042076097E+04  0.15042076097E+04  0.00000000000E+00 0.  1.
          1   -1    0    0  501    0  0.00000000000E+00 -0.00000000000E+00 -0.22497603138E+04  0.22497603138E+04  0.00000000000E+00 0. -1.
    9900016    2    1    2    0    0  0.74762467884E+02  0.35013527558E+03 -0.44104820592E+03  0.22239469396E+04  0.21501703031E+04 0.  0.
        -24    2    3    3    0    0  0.42916418661E+02 -0.60722183650E+03  0.56548014169E+03  0.83447001448E+03  0.77538614261E+02 0.  0.
        -15    1    1    2    0    0 -0.16933076249E+03 -0.30479817237E+03  0.38187617965E+03  0.51711144794E+03  0.00000000000E+00 0.  1.
        -15    1    3    3    0    0  0.31846049223E+02  0.95735711208E+03 -0.10065283476E+04  0.13894769251E+04  0.00000000000E+00 0.  1.
         15    1    4    4    0    0 -0.21707577685E+02 -0.17102533754E+03  0.14733558159E+03  0.22677887602E+03  0.00000000000E+00 0. -1.
         15    1    1    2    0    0  0.72235917378E+02  0.17649726532E+03 -0.18442596398E+02  0.19159708188E+03  0.00000000000E+00 0. -1.
        -16    1    4    4    0    0  0.64623996347E+02 -0.43619649897E+03  0.41814456010E+03  0.60769113846E+03  0.00000000000E+00 0.  1.
         16    1    1    2    0    0  0.48851926112E+02 -0.29172201202E+03 -0.63241630573E+03  0.69816805050E+03  0.00000000000E+00 0. -1.
    9900018    1    1    2    0    0 -0.26519548882E+02  0.69887643498E+02 -0.35521775664E+02  0.12314440355E+03  0.91187600000E+02 0.  0.
<mgrwt>
<rscale>  0 0.19301863E+04</rscale>
<asrwt>0</asrwt>
<pdfrwt beam="1">  1        1 0.34611697E+00 0.28361513E+04</pdfrwt>
<pdfrwt beam="2">  1       -1 0.23141655E+00 0.28361513E+04</pdfrwt>
<totfact> 0.15653002E-01</totfact>
</mgrwt>
</event>
<event>
12    1  0.2625937E-016  0.2597689E+04  0.7818608E-02  0.9092440E-01
         -1   -1    0    0    0  501 -0.00000000000E+00  0.00000000000E+00  0.17604682381E+04  0.17604682381E+04  0.00000000000E+00 0.  1.
          1   -1    0    0  501    0  0.00000000000E+00 -0.00000000000E+00 -0.11758314994E+04  0.11758314994E+04  0.00000000000E+00 0. -1.
         23    2    1    2    0    0  0.39323811146E+02 -0.12923238287E+02  0.29622433861E+03  0.32264913413E+03  0.12099682955E+03 0.  0.
    9900016    2    1    2    0    0  0.16674408774E+03  0.26441237499E+03  0.24653211085E+03  0.22858324778E+04  0.22508963859E+04 0.  0.
         24    2    4    4    0    0 -0.33581755592E+03  0.41071522629E+03  0.10763726693E+04  0.12026893197E+04  0.80143923325E+02 0.  0.
        -15    1    5    5    0    0 -0.22570767337E+03  0.26665260938E+03  0.62063097884E+03  0.71220108102E+03  0.00000000000E+00 0.  1.
        -15    1    3    3    0    0  0.40299324072E+02 -0.61105815276E+02  0.12584027221E+03  0.14558066592E+03  0.00000000000E+00 0.  1.
         15    1    3    3    0    0 -0.97551292641E+00  0.48182576988E+02  0.17038406640E+03  0.17706846821E+03  0.00000000000E+00 0. -1.
         15    1    4    4    0    0  0.45122807592E+03 -0.19512276732E+03 -0.83342710783E+03  0.96761584056E+03  0.00000000000E+00 0. -1.
        -16    1    1    2    0    0 -0.20606789889E+03 -0.25148913671E+03  0.41880289228E+02  0.32781812558E+03  0.00000000000E+00 0.  1.
         16    1    5    5    0    0 -0.11010988255E+03  0.14406261691E+03  0.45574169046E+03  0.49048823864E+03  0.00000000000E+00 0. -1.
    9900018    1    4    4    0    0  0.51333567746E+02  0.48819916030E+02  0.35865493787E+01  0.11552731759E+03  0.91187600000E+02 0.  0.
<mgrwt>
<rscale>  0 0.12236073E+04</rscale>
<asrwt>0</asrwt>
<pdfrwt beam="1">  1        1 0.18089715E+00 0.25976889E+04</pdfrwt>
<pdfrwt beam="2">  1       -1 0.27084127E+00 0.25976889E+04</pdfrwt>
<totfact> 0.49588240E-01</totfact>
</mgrwt>
</event>
<event>
12    1  0.2625937E-016  0.2772020E+04  0.7818608E-02  0.8852219E-01
         -1   -1    0    0    0  501 -0.00000000000E+00  0.00000000000E+00  0.11596332526E+04  0.11596332526E+04  0.00000000000E+00 0.  1.
          1   -1    0    0  501    0  0.00000000000E+00 -0.00000000000E+00 -0.20116099398E+04  0.20116099398E+04  0.00000000000E+00 0. -1.
         23    2    1    2    0    0  0.21139773942E+03  0.15229987979E+03 -0.15924343837E+03  0.31397592736E+03  0.73062662687E+02 0.  0.
    9900016    2    1    2    0    0 -0.28174662980E+03  0.32775135432E+03 -0.62637098172E+03  0.23675713346E+04  0.22419302629E+04 0.  0.
        -24    2    4    4    0    0  0.16922549562E+03  0.11665638290E+04 -0.32502515601E+03  0.12253954674E+04  0.80276174484E+02 0.  0.
        -15    1    3    3    0    0  0.14558018312E+03  0.13265595949E+03 -0.90340835047E+02  0.21668562431E+03  0.00000000000E+00 0.  1.
        -15    1    4    4    0    0 -0.43501400955E+03 -0.89051831941E+03 -0.24023066359E+03  0.10197896045E+04  0.00000000000E+00 0.  1.
         15    1    5    5    0    0  0.10754153433E+03  0.86740989203E+03 -0.27187519549E+03  0.91535852228E+03  0.00000000000E+00 0. -1.
         15    1    3    3    0    0  0.65817556295E+02  0.19643920300E+02 -0.68902603325E+02  0.97290303044E+02  0.00000000000E+00 0. -1.
        -16    1    5    5    0    0  0.61683961289E+02  0.29915393692E+03 -0.53149960526E+02  0.31003694516E+03  0.00000000000E+00 0.  1.
         16    1    1    2    0    0  0.70348890377E+02 -0.48005123411E+03 -0.66362267102E+02  0.48969593039E+03  0.00000000000E+00 0. -1.
    9900018    1    4    4    0    0 -0.15958115861E+02  0.51705844774E+02 -0.61115162122E+02  0.12238626263E+03  0.91187600000E+02 0.  0.
<mgrwt>
<rscale>  0 0.15494509E+04</rscale>
<asrwt>0</asrwt>
<pdfrwt beam="1">  1        1 0.30947845E+00 0.27720204E+04</pdfrwt>
<pdfrwt beam="2">  1       -1 0.17840512E+00 0.27720204E+04</pdfrwt>
<totfact> 0.53765763E-01</totfact>
</mgrwt>
</event>
<event>
12    1  0.2625937E-016  0.3953871E+04  0.7818608E-02  0.8779119E-01
          1   -1    0    0  501    0  0.00000000000E+00  0.00000000000E+00  0.16738540761E+04  0.16738540761E+04  0.00000000000E+00 0. -1.
         -1   -1    0    0    0  501 -0.00000000000E+00 -0.00000000000E+00 -0.24888791135E+04  0.24888791135E+04  0.00000000000E+00 0.  1.
         23    2    1    2    0    0  0.44487824970E+02 -0.32850660459E+02 -0.51863137119E+02  0.13588458599E+03  0.11276747428E+03 0.  0.
    9900016    2    1    2    0    0 -0.68691016323E+03 -0.17458879495E+03  0.65621072679E+03  0.24551119073E+04  0.22571298456E+04 0.  0.
         24    2    4    4    0    0  0.37822215908E+03 -0.15294808358E+03 -0.60802044101E+03  0.73657926666E+03  0.80093954149E+02 0.  0.
        -15    1    3    3    0    0  0.60914783554E+02 -0.14583122060E+02  0.15207841861E+02  0.64455851236E+02  0.00000000000E+00 0.  1.
        -15    1    5    5    0    0  0.17547243252E+03 -0.77386935502E+02 -0.21632440128E+03  0.28909437723E+03  0.00000000000E+00 0.  1.
         15    1    4    4    0    0 -0.10570322648E+04  0.28612607670E+02  0.11791069802E+04  0.15838021218E+04  0.00000000000E+00 0. -1.
         15    1    3    3    0    0 -0.16426958584E+02 -0.18267538399E+02 -0.67070978980E+02  0.71428734756E+02  0.00000000000E+00 0. -1.
        -16    1    1    2    0    0  0.64242233826E+03  0.20743945541E+03 -0.14193726271E+04  0.15717366964E+04  0.00000000000E+00 0.  1.
         16    1    5    5    0    0  0.20274972657E+03 -0.75561148078E+02 -0.39169603973E+03  0.44748488942E+03  0.00000000000E+00 0. -1.
    9900018    1    4    4    0    0 -0.81000575130E+01 -0.50253319042E+02  0.85124187572E+02  0.13473051885E+03  0.91187600000E+02 0.  0.
<mgrwt>
<rscale>  0 0.16692157E+04</rscale>
<asrwt>0</asrwt>
<pdfrwt beam="1">  1        1 0.25751601E+00 0.39538707E+04</pdfrwt>
<pdfrwt beam="2">  1       -1 0.38290448E+00 0.39538707E+04</pdfrwt>
<totfact> 0.36298322E-02</totfact>
</mgrwt>
</event>
<event>
11    1  0.2625937E-016  0.3091870E+04  0.7818608E-02  0.8866195E-01
          1   -1    0    0  501    0  0.00000000000E+00  0.00000000000E+00  0.37795765550E+04  0.37795765550E+04  0.00000000000E+00 0. -1.
         -1   -1    0    0    0  501 -0.00000000000E+00 -0.00000000000E+00 -0.75041372377E+03  0.75041372377E+03  0.00000000000E+00 0.  1.
    9900016    2    1    2    0    0  0.32967293473E+03 -0.61125001959E+03  0.23078184537E+04  0.32319679855E+04  0.21534345157E+04 0.  0.
         24    2    3    3    0    0  0.10539550999E+04  0.23084379057E+03  0.74150868791E+03  0.13118031691E+04  0.82959097840E+02 0.  0.
        -15    1    4    4    0    0  0.73384159611E+03  0.15679984644E+03  0.46879260650E+03  0.88480290909E+03  0.00000000000E+00 0.  1.
        -15    1    1    2    0    0 -0.25757176756E+02  0.79924711702E+02  0.16413331695E+02  0.85561610272E+02  0.00000000000E+00 0.  1.
         15    1    3    3    0    0 -0.72428216513E+03 -0.84209381016E+03  0.15663097658E+04  0.19201648164E+04  0.00000000000E+00 0. -1.
         15    1    1    2    0    0  0.89777877530E+02 -0.21102720174E+02 -0.39008664384E+02  0.10013524849E+03  0.00000000000E+00 0. -1.
        -16    1    1    2    0    0 -0.41007824708E+03  0.58250961723E+03  0.56752805904E+03  0.91080718085E+03  0.00000000000E+00 0.  1.
         16    1    4    4    0    0  0.32011350376E+03  0.74043944131E+02  0.27271608141E+03  0.42700025996E+03  0.00000000000E+00 0. -1.
    9900018    1    1    2    0    0  0.16384611577E+02 -0.30081589160E+02  0.17641165111E+03  0.20151825362E+03  0.91187600000E+02 0.  0.
<mgrwt>
<rscale>  0 0.15277674E+04</rscale>
<asrwt>0</asrwt>
<pdfrwt beam="1">  1        1 0.58147330E+00 0.30918696E+04</pdfrwt>
<pdfrwt beam="2">  1       -1 0.11544827E+00 0.30918696E+04</pdfrwt>
<totfact> 0.84363387E-02</totfact>
</mgrwt>
</event>
