<event>
11    1  0.6763646E-012  0.5697096E+04  0.7818608E-02  0.7974132E-01
          2   -1    0    0  501    0  0.00000000000E+00  0.00000000000E+00  0.43340966861E+04  0.43340966861E+04  0.00000000000E+00 0.  1.
         -2   -1    0    0    0  501 -0.00000000000E+00 -0.00000000000E+00 -0.44740026141E+04  0.44740026141E+04  0.00000000000E+00 0. -1.
    9900016    2    1    2    0    0 -0.84639153972E+03 -0.11098682803E+04 -0.70027792782E+03  0.26938033959E+04  0.21949946062E+04 0.  0.
         24    2    3    3    0    0  0.57753332576E+03 -0.27023281032E+03  0.16079051162E+03  0.66468970611E+03  0.96893253869E+02 0.  0.
        -15    1    1    2    0    0 -0.69330598682E+03  0.23964572220E+03 -0.36174851751E+03  0.81790296090E+03  0.00000000000E+00 0.  1.
        -15    1    4    4    0    0  0.20528031840E+03 -0.47280590147E+02  0.63303529247E+02  0.21996090594E+03  0.00000000000E+00 0.  1.
         15    1    1    2    0    0  0.18198846407E+03 -0.46758967278E+03 -0.18585869219E+04  0.19251247360E+04  0.00000000000E+00 0. -1.
         15    1    3    3    0    0 -0.10721613732E+04 -0.74636431036E+03 -0.98270675788E+03  0.16347177940E+04  0.00000000000E+00 0. -1.
        -16    1    1    2    0    0  0.13577090625E+04  0.13378122309E+04  0.27807074392E+04  0.33712682074E+04  0.00000000000E+00 0.  1.
         16    1    4    4    0    0  0.37225300736E+03 -0.22295222017E+03  0.97486982368E+02  0.44472880017E+03  0.00000000000E+00 0. -1.
    9900018    1    3    3    0    0 -0.35176349231E+03 -0.93271159660E+02  0.12163831844E+03  0.39439589583E+03  0.91187600000E+02 0.  0.
<mgrwt>
<rscale>  0 0.41542529E+04</rscale>
<asrwt>0</asrwt>
<pdfrwt beam="1">  1        2 0.66678411E+00 0.56970963E+04</pdfrwt>
<pdfrwt beam="2">  1       -2 0.68830809E+00 0.56970963E+04</pdfrwt>
<totfact> 0.27942817E-05</totfact>
</mgrwt>
</event>
<event>
10    1  0.6763646E-012  0.6514137E+04  0.7818608E-02  0.7629730E-01
          2   -1    0    0  501    0  0.00000000000E+00  0.00000000000E+00  0.36155042665E+04  0.36155042665E+04  0.00000000000E+00 0. -1.
         -2   -1    0    0    0  501 -0.00000000000E+00 -0.00000000000E+00 -0.29341672847E+04  0.29341672847E+04  0.00000000000E+00 0.  1.
    9900016    2    1    2    0    0 -0.12347746585E+02 -0.15322479339E+04 -0.20209657322E+03  0.26909278433E+04  0.22027967303E+04 0.  0.
        -15    1    3    3    0    0 -0.12792040525E+03  0.10797574485E+03  0.60218515170E+02  0.17790070580E+03  0.00000000000E+00 0.  1.
        -15    1    1    2    0    0  0.58570654043E+02  0.87645892508E+03  0.19841297282E+03  0.90054343407E+03  0.00000000000E+00 0.  1.
         15    1    1    2    0    0  0.73929598842E+02 -0.10706018983E+04  0.59089388841E+03  0.12250753437E+04  0.00000000000E+00 0. -1.
         15    1    3    3    0    0  0.68524937198E+03 -0.15662689299E+04 -0.12390815507E+02  0.17096545250E+04  0.00000000000E+00 0. -1.
        -16    1    1    2    0    0 -0.12015250630E+03  0.17263909072E+04  0.94126693712E+02  0.17331249302E+04  0.00000000000E+00 0.  1.
         16    1    3    3    0    0 -0.26266582720E+03  0.20054447579E+03 -0.42083584076E+02  0.33314028816E+03  0.00000000000E+00 0. -1.
    9900018    1    3    3    0    0 -0.30701088612E+03 -0.27449922464E+03 -0.20784068881E+03  0.47023232433E+03  0.91187600000E+02 0.  0.
<mgrwt>
<rscale>  0 0.65141367E+04</rscale>
<asrwt>0</asrwt>
<pdfrwt beam="1">  1        2 0.55623142E+00 0.65141367E+04</pdfrwt>
<pdfrwt beam="2">  1       -2 0.45141035E+00 0.65141367E+04</pdfrwt>
<totfact> 0.14833781E-03</totfact>
</mgrwt>
</event>
<event>
11    1  0.6763646E-012  0.3474596E+04  0.7818608E-02  0.8399297E-01
          2   -1    0    0  501    0  0.00000000000E+00  0.00000000000E+00  0.38964291398E+04  0.38964291398E+04  0.00000000000E+00 0. -1.
         -2   -1    0    0    0  501 -0.00000000000E+00 -0.00000000000E+00 -0.12583885910E+04  0.12583885910E+04  0.00000000000E+00 0.  1.
    9900016    2    1    2    0    0 -0.16437084911E+03 -0.43457299882E+03  0.21506784303E+04  0.31482703982E+04  0.22517365126E+04 0.  0.
        -24    2    3    3    0    0 -0.69740080322E+03  0.46227977081E+03  0.12269057372E+03  0.84842411675E+03  0.68556824434E+02 0.  0.
        -15    1    3    3    0    0  0.22548391501E+03 -0.46355291773E+03  0.72360501395E+03  0.88844162423E+03  0.00000000000E+00 0.  1.
        -15    1    1    2    0    0 -0.15226530126E+03  0.22888654686E+03 -0.32988190570E+02  0.27687902415E+03  0.00000000000E+00 0.  1.
         15    1    1    2    0    0 -0.59568937938E+03 -0.90028994058E+02  0.47909100123E+03  0.76972673329E+03  0.00000000000E+00 0. -1.
         15    1    4    4    0    0 -0.30923787724E+03  0.16537961749E+03  0.43872074642E+02  0.35341652697E+03  0.00000000000E+00 0. -1.
        -16    1    4    4    0    0 -0.38816292597E+03  0.29690015332E+03  0.78818499083E+02  0.49500758978E+03  0.00000000000E+00 0.  1.
         16    1    1    2    0    0  0.91232552975E+03  0.29571544602E+03  0.41259307837E+02  0.95994157516E+03  0.00000000000E+00 0. -1.
    9900018    1    3    3    0    0  0.30754603910E+03 -0.43329985190E+03  0.13043828427E+04  0.14114046572E+04  0.91187600000E+02 0.  0.
<mgrwt>
<rscale>  0 0.25103800E+04</rscale>
<asrwt>0</asrwt>
<pdfrwt beam="1">  1        2 0.59945063E+00 0.34745956E+04</pdfrwt>
<pdfrwt beam="2">  1       -2 0.19359825E+00 0.34745956E+04</pdfrwt>
<totfact> 0.48418743E-02</totfact>
</mgrwt>
</event>
<event>
11    1  0.6763646E-012  0.3656734E+04  0.7818608E-02  0.8194118E-01
          2   -1    0    0  501    0  0.00000000000E+00  0.00000000000E+00  0.39703275828E+04  0.39703275828E+04  0.00000000000E+00 0. -1.
         -2   -1    0    0    0  501 -0.00000000000E+00 -0.00000000000E+00 -0.21306545035E+04  0.21306545035E+04  0.00000000000E+00 0.  1.
    9900016    2    1    2    0    0  0.20974263662E+03 -0.16096791212E+03  0.63544869715E+03  0.23089853372E+04  0.22040225948E+04 0.  0.
        -24    2    3    3    0    0  0.73150574269E+03 -0.51988907857E+03 -0.23743172294E+03  0.93409482541E+03  0.10379794889E+03 0.  0.
        -15    1    1    2    0    0  0.48831154820E+03  0.13615938053E+04  0.73095830230E+03  0.16207053706E+04  0.00000000000E+00 0.  1.
        -15    1    3    3    0    0 -0.54848828292E+03 -0.12775361668E+03  0.51746050556E+03  0.76480439191E+03  0.00000000000E+00 0.  1.
         15    1    1    2    0    0 -0.60721618053E+03  0.21102067188E+03  0.39513731183E+03  0.75456922085E+03  0.00000000000E+00 0. -1.
         15    1    4    4    0    0  0.23447962415E+03 -0.11423826501E+03 -0.89029267091E+02  0.27560349369E+03  0.00000000000E+00 0. -1.
        -16    1    4    4    0    0  0.49702611854E+03 -0.40565081355E+03 -0.14840245585E+03  0.65849133172E+03  0.00000000000E+00 0.  1.
         16    1    1    2    0    0 -0.90838004301E+02 -0.14116465651E+04  0.78128767986E+02  0.14167221577E+04  0.00000000000E+00 0. -1.
    9900018    1    3    3    0    0  0.26725176848E+02  0.48667478313E+03  0.35541991453E+03  0.61008611987E+03  0.91187600000E+02 0.  0.
<mgrwt>
<rscale>  0 0.31800055E+04</rscale>
<asrwt>0</asrwt>
<pdfrwt beam="1">  1        2 0.61081963E+00 0.36567340E+04</pdfrwt>
<pdfrwt beam="2">  1       -2 0.32779300E+00 0.36567340E+04</pdfrwt>
<totfact> 0.58878974E-03</totfact>
</mgrwt>
</event>
<event>
10    1  0.6763646E-012  0.5112973E+04  0.7818608E-02  0.7811312E-01
         -2   -1    0    0    0  501 -0.00000000000E+00  0.00000000000E+00  0.26689534547E+04  0.26689534547E+04  0.00000000000E+00 0.  1.
          2   -1    0    0  501    0  0.00000000000E+00 -0.00000000000E+00 -0.24487591175E+04  0.24487591175E+04  0.00000000000E+00 0. -1.
    9900016    2    1    2    0    0 -0.78174052724E+01  0.30300289927E+03 -0.63154608063E+03  0.23045843379E+04  0.21955378953E+04 0.  0.
        -15    1    3    3    0    0 -0.36574599280E+03 -0.14152357403E+03 -0.16000547976E+03  0.42355732411E+03  0.00000000000E+00 0.  1.
        -15    1    1    2    0    0  0.52678511612E+03 -0.11830011317E+04  0.10334061607E+04  0.16567807728E+04  0.00000000000E+00 0.  1.
         15    1    3    3    0    0  0.51356343292E+03 -0.32259116515E+03 -0.11412874351E+03  0.61712059564E+03  0.00000000000E+00 0. -1.
         15    1    1    2    0    0 -0.32250416494E+03  0.49532577068E+03  0.15228635358E+03  0.61036684788E+03  0.00000000000E+00 0. -1.
        -16    1    3    3    0    0  0.20935457853E+03 -0.12516537598E+03 -0.67264103508E+02  0.25302207516E+03  0.00000000000E+00 0.  1.
         16    1    1    2    0    0 -0.19646354591E+03  0.38467246172E+03 -0.33395209648E+03  0.54598061359E+03  0.00000000000E+00 0. -1.
    9900018    1    3    3    0    0 -0.36498942393E+03  0.89228301443E+03 -0.29014775386E+03  0.10108843430E+04  0.91187600000E+02 0.  0.
<mgrwt>
<rscale>  0 0.51129733E+04</rscale>
<asrwt>0</asrwt>
<pdfrwt beam="1">  1        2 0.37673217E+00 0.51129733E+04</pdfrwt>
<pdfrwt beam="2">  1       -2 0.41060822E+00 0.51129733E+04</pdfrwt>
<totfact> 0.17023284E-02</totfact>
</mgrwt>
</event>
