<event>
12    1  0.4373339E-010  0.2741395E+04  0.7818608E-02  0.8951047E-01
          2   -1    0    0  501    0  0.00000000000E+00  0.00000000000E+00  0.19541804465E+04  0.19541804465E+04  0.00000000000E+00 0. -1.
         -2   -1    0    0    0  501 -0.00000000000E+00 -0.00000000000E+00 -0.13747135037E+04  0.13747135037E+04  0.00000000000E+00 0.  1.
         24    2    1    2    0    0 -0.16549172744E+03 -0.42108407718E+02  0.55632919762E+03  0.58740180247E+03  0.79862829742E+02 0.  0.
    9900016    2    1    2    0    0  0.44197073199E+03  0.26248725780E+03  0.15580439156E+03  0.18983382567E+04  0.18207623238E+04 0.  0.
         23    2    4    4    0    0  0.66987314617E+03 -0.30370692975E+03  0.74428714470E+03  0.10505014097E+04  0.92854331047E+02 0.  0.
        -15    1    5    5    0    0  0.48778391332E+02 -0.31392127327E+02  0.96918589703E+02  0.11295136187E+03  0.00000000000E+00 0.  1.
        -15    1    3    3    0    0 -0.41235549170E+02  0.10366373009E+02  0.23653518485E+03  0.24032629044E+03  0.00000000000E+00 0.  1.
         15    1    1    2    0    0 -0.14995262969E+03 -0.23739144847E+03  0.28312503433E+03  0.39874838686E+03  0.00000000000E+00 0. -1.
         15    1    5    5    0    0  0.62109475483E+03 -0.27231480242E+03  0.64736855499E+03  0.93755004778E+03  0.00000000000E+00 0. -1.
        -16    1    4    4    0    0 -0.22790241417E+03  0.56619418755E+03 -0.58848275314E+03  0.84783684701E+03  0.00000000000E+00 0.  1.
         16    1    3    3    0    0 -0.12425617827E+03 -0.52474780727E+02  0.31979401277E+03  0.34707551204E+03  0.00000000000E+00 0. -1.
    9900018    1    1    2    0    0 -0.12652637486E+03  0.17012598385E+02 -0.41579168070E+03  0.44440550421E+03  0.91187600000E+02 0.  0.
<mgrwt>
<rscale>  0 0.14038359E+04</rscale>
<asrwt>0</asrwt>
<pdfrwt beam="1">  1        2 0.30064315E+00 0.27413945E+04</pdfrwt>
<pdfrwt beam="2">  1       -2 0.21149438E+00 0.27413945E+04</pdfrwt>
<totfact> 0.68138526E-01</totfact>
</mgrwt>
</event>
<event>
12    1  0.4373338E-010  0.3734435E+04  0.7818608E-02  0.8436605E-01
          2   -1    0    0  501    0  0.00000000000E+00  0.00000000000E+00  0.27607217785E+04  0.27607217785E+04  0.00000000000E+00 0. -1.
         -2   -1    0    0    0  501 -0.00000000000E+00 -0.00000000000E+00 -0.17879597009E+04  0.17879597009E+04  0.00000000000E+00 0.  1.
         24    2    1    2    0    0 -0.52196061038E+02 -0.63847780755E+03  0.42889788917E+03  0.77485146797E+03  0.77865644358E+02 0.  0.
    9900016    2    1    2    0    0 -0.62011856256E+03 -0.45038016166E+03  0.10779022892E+03  0.19999266317E+04  0.18440982829E+04 0.  0.
         23    2    4    4    0    0 -0.14091958905E+03  0.33639719443E+03  0.77574992792E+03  0.86202486804E+03  0.90980874070E+02 0.  0.
        -15    1    3    3    0    0  0.10508986869E+02 -0.52091606449E+02  0.18066407502E+02  0.56128151114E+02  0.00000000000E+00 0.  1.
        -15    1    5    5    0    0 -0.55245676275E+02  0.62511628131E+02  0.11915883062E+03  0.14546001276E+03  0.00000000000E+00 0.  1.
         15    1    1    2    0    0  0.81991139302E+03  0.11433677700E+04  0.59954173567E+03  0.15293772728E+04  0.00000000000E+00 0. -1.
         15    1    5    5    0    0 -0.85673912776E+02  0.27388556630E+03  0.65659109730E+03  0.71656485527E+03  0.00000000000E+00 0. -1.
        -16    1    4    4    0    0 -0.47919897351E+03 -0.78677735609E+03 -0.66795969901E+03  0.11379017637E+04  0.00000000000E+00 0.  1.
         16    1    3    3    0    0 -0.62705047906E+02 -0.58638620110E+03  0.41083148166E+03  0.71872331686E+03  0.00000000000E+00 0. -1.
    9900018    1    1    2    0    0 -0.14759676942E+03 -0.54509800764E+02 -0.16346777614E+03  0.24452610690E+03  0.91187600000E+02 0.  0.
<mgrwt>
<rscale>  0 0.24077584E+04</rscale>
<asrwt>0</asrwt>
<pdfrwt beam="1">  1        2 0.42472643E+00 0.37344350E+04</pdfrwt>
<pdfrwt beam="2">  1       -2 0.27507072E+00 0.37344350E+04</pdfrwt>
<totfact> 0.86658573E-02</totfact>
</mgrwt>
</event>
<event>
12    1  0.4373338E-010  0.3887499E+04  0.7818608E-02  0.8427764E-01
         -2   -1    0    0    0  501 -0.00000000000E+00  0.00000000000E+00  0.14630829296E+04  0.14630829296E+04  0.00000000000E+00 0. -1.
          2   -1    0    0  501    0  0.00000000000E+00 -0.00000000000E+00 -0.34622378181E+04  0.34622378181E+04  0.00000000000E+00 0.  1.
         24    2    1    2    0    0 -0.57119876610E+03 -0.14806827975E+03 -0.42478316922E+03  0.73112287811E+03  0.76861408887E+02 0.  0.
    9900016    2    1    2    0    0 -0.24431332833E+03 -0.25204239683E+03 -0.17053178691E+04  0.25407613619E+04  0.18504445118E+04 0.  0.
         23    2    4    4    0    0  0.27101414151E+02 -0.31884678403E+03  0.33995425016E+03  0.47647775003E+03  0.95207120223E+02 0.  0.
        -15    1    3    3    0    0 -0.10385199630E+03 -0.60490976034E+01 -0.10176501471E+03  0.14552644755E+03  0.00000000000E+00 0.  1.
        -15    1    5    5    0    0 -0.17232525105E+02 -0.13426971680E+03  0.89778224642E+02  0.16243597629E+03  0.00000000000E+00 0.  1.
         15    1    1    2    0    0  0.11533064056E+04  0.21302425504E+03  0.31745884071E+03  0.12150206228E+04  0.00000000000E+00 0. -1.
         15    1    5    5    0    0  0.44333939256E+02 -0.18457706723E+03  0.25017602551E+03  0.31404177375E+03  0.00000000000E+00 0. -1.
        -16    1    4    4    0    0 -0.27141474248E+03  0.66804387199E+02 -0.20452721192E+04  0.20642836119E+04  0.00000000000E+00 0.  1.
         16    1    3    3    0    0 -0.46734676980E+03 -0.14201918215E+03 -0.32301815452E+03  0.58559643056E+03  0.00000000000E+00 0. -1.
    9900018    1    1    2    0    0 -0.33779431115E+03  0.18708642154E+03 -0.18651269090E+03  0.43841588478E+03  0.91187600000E+02 0.  0.
<mgrwt>
<rscale>  0 0.24316074E+04</rscale>
<asrwt>0</asrwt>
<pdfrwt beam="1">  1        2 0.53265197E+00 0.38874991E+04</pdfrwt>
<pdfrwt beam="2">  1       -2 0.22508968E+00 0.38874991E+04</pdfrwt>
<totfact> 0.61711693E-02</totfact>
</mgrwt>
</event>
<event>
12    1  0.4373338E-010  0.5088380E+04  0.7818608E-02  0.8621734E-01
         -3   -1    0    0    0  501 -0.00000000000E+00  0.00000000000E+00  0.48643970117E+04  0.48643970117E+04  0.00000000000E+00 0.  1.
          3   -1    0    0  501    0  0.00000000000E+00 -0.00000000000E+00 -0.14722264310E+04  0.14722264310E+04  0.00000000000E+00 0. -1.
         24    2    1    2    0    0 -0.19701825554E+02  0.78743116067E+02 -0.11094248440E+03  0.15896940778E+03  0.79839824066E+02 0.  0.
    9900016    2    1    2    0    0  0.69745159349E+03 -0.56096353531E+03  0.32128274345E+04  0.38064302437E+04  0.18345387058E+04 0.  0.
         23    2    4    4    0    0 -0.28020536199E+03  0.15083679984E+03 -0.42776356105E+02  0.33347345143E+03  0.90044106396E+02 0.  0.
        -15    1    3    3    0    0  0.17372981317E+02  0.13977901004E+02 -0.70806882006E+02  0.74234875468E+02  0.00000000000E+00 0.  1.
        -15    1    5    5    0    0 -0.11227271465E+03  0.11146480385E+03 -0.18423195891E+02  0.15927642355E+03  0.00000000000E+00 0. -1.
         15    1    5    5    0    0 -0.16793264734E+03  0.39371995987E+02 -0.24353160214E+02  0.17419702789E+03  0.00000000000E+00 0.  1.
         15    1    1    2    0    0 -0.90565603298E+03  0.58867765469E+03 -0.73832236361E+03  0.13083860836E+04  0.00000000000E+00 0. -1.
        -16    1    4    4    0    0  0.97765695547E+03 -0.71180033515E+03  0.32556037906E+04  0.34729567923E+04  0.00000000000E+00 0.  1.
         16    1    3    3    0    0 -0.37074806871E+02  0.64765215063E+02 -0.40135602396E+02  0.84734532313E+02  0.00000000000E+00 0. -1.
    9900018    1    1    2    0    0  0.22790626505E+03 -0.10645723544E+03  0.10286079942E+04  0.10628377076E+04  0.91187600000E+02 0.  0.
<mgrwt>
<rscale>  0 0.19679907E+04</rscale>
<asrwt>0</asrwt>
<pdfrwt beam="1">  1        3 0.22649638E+00 0.50883797E+04</pdfrwt>
<pdfrwt beam="2">  1       -3 0.74836876E+00 0.50883797E+04</pdfrwt>
<totfact> 0.20168938E-05</totfact>
</mgrwt>
</event>
