<event>
12    1  0.1319912E-014  0.1287190E+04  0.7818608E-02  0.9683312E-01
         -2   -1    0    0    0  501 -0.00000000000E+00  0.00000000000E+00  0.55546327085E+03  0.55546327085E+03  0.00000000000E+00 0.  1.
          2   -1    0    0  501    0  0.00000000000E+00 -0.00000000000E+00 -0.91071930857E+03  0.91071930857E+03  0.00000000000E+00 0. -1.
         23    2    1    2    0    0 -0.19701412241E+02  0.30043651276E+02  0.14406866062E+02  0.12696295635E+03  0.12091843478E+03 0.  0.
    9900016    2    1    2    0    0 -0.88137673463E+02 -0.13528517425E+03 -0.45407525955E+03  0.81284869927E+03  0.65457492980E+03 0.  0.
         23    2    4    4    0    0 -0.20119151529E+03  0.19843406421E+03 -0.31958688852E+03  0.43570572478E+03  0.88597943732E+02 0.  0.
        -15    1    3    3    0    0  0.29177577133E+02  0.47139241717E+02 -0.26046387417E+02  0.61252374766E+02  0.00000000000E+00 0. -1.
        -15    1    5    5    0    0 -0.40263846795E+02  0.91877985680E+02 -0.13877791562E+03  0.17123682862E+03  0.00000000000E+00 0. -1.
         15    1    5    5    0    0 -0.16092766849E+03  0.10655607853E+03 -0.18080897290E+03  0.26446889616E+03  0.00000000000E+00 0.  1.
         15    1    3    3    0    0 -0.48878989374E+02 -0.17095590441E+02  0.40453253478E+02  0.65710581581E+02  0.00000000000E+00 0.  1.
        -16    1    1    2    0    0  0.18854394124E+03  0.16222953559E+03  0.22243907212E+03  0.33368605125E+03  0.00000000000E+00 0.  1.
         16    1    4    4    0    0  0.11305384182E+03 -0.33371923845E+03 -0.13448837103E+03  0.37714297449E+03  0.00000000000E+00 0. -1.
    9900018    1    1    2    0    0 -0.80704855532E+02 -0.56988012621E+02 -0.13802671635E+03  0.19268487255E+03  0.91187600000E+02 0.  0.
<mgrwt>
<rscale>  0 0.72019110E+03</rscale>
<asrwt>0</asrwt>
<pdfrwt beam="1">  1        2 0.14011066E+00 0.12871902E+04</pdfrwt>
<pdfrwt beam="2">  1       -2 0.85455890E-01 0.12871902E+04</pdfrwt>
<totfact> 0.33589375E+01</totfact>
</mgrwt>
</event>
<event>
11    1  0.1319912E-014  0.1874698E+04  0.7818608E-02  0.8667554E-01
          2   -1    0    0  501    0  0.00000000000E+00  0.00000000000E+00  0.82384622579E+03  0.82384622579E+03  0.00000000000E+00 0. -1.
         -2   -1    0    0    0  501 -0.00000000000E+00 -0.00000000000E+00 -0.10664888397E+04  0.10664888397E+04  0.00000000000E+00 0.  1.
    9900016    2    1    2    0    0  0.41242823631E+03  0.20069789151E+03  0.15345183127E+03  0.81645818643E+03  0.65778401615E+03 0.  0.
         23    2    3    3    0    0  0.41386152936E+03  0.41133544140E+03  0.11952447354E+03  0.60310098042E+03  0.94691509499E+02 0.  0.
        -15    1    4    4    0    0  0.32196904191E+03  0.35608323520E+03  0.70536950470E+02  0.48521623604E+03  0.00000000000E+00 0.  1.
        -15    1    1    2    0    0 -0.32295984636E+03 -0.23644315550E+03 -0.18270701712E+03  0.43998895696E+03  0.00000000000E+00 0. -1.
         15    1    4    4    0    0  0.91892487450E+02  0.55252206198E+02  0.48987523070E+02  0.11788474437E+03  0.00000000000E+00 0. -1.
         15    1    1    2    0    0 -0.50076566938E+02 -0.14288404232E+03 -0.56610513290E+02  0.16164239023E+03  0.00000000000E+00 0.  1.
        -16    1    1    2    0    0 -0.12139434527E+03  0.11227583390E+03 -0.25341750871E+03  0.30259359488E+03  0.00000000000E+00 0.  1.
         16    1    3    3    0    0 -0.14332930509E+01 -0.21063754989E+03  0.33927357733E+02  0.21335720601E+03  0.00000000000E+00 0. -1.
    9900018    1    1    2    0    0  0.82002522260E+02  0.66353472405E+02  0.96640593891E+02  0.16965193703E+03  0.91187600000E+02 0.  0.
<mgrwt>
<rscale>  0 0.18746976E+04</rscale>
<asrwt>0</asrwt>
<pdfrwt beam="1">  1        2 0.12674557E+00 0.18746976E+04</pdfrwt>
<pdfrwt beam="2">  1       -2 0.16407521E+00 0.18746976E+04</pdfrwt>
<totfact> 0.73040569E+00</totfact>
</mgrwt>
</event>
<event>
12    1  0.1319912E-014  0.1610185E+04  0.7818608E-02  0.9493625E-01
         -2   -1    0    0    0  501 -0.00000000000E+00  0.00000000000E+00  0.15043107880E+04  0.15043107880E+04  0.00000000000E+00 0.  1.
          2   -1    0    0  501    0  0.00000000000E+00 -0.00000000000E+00 -0.51042919497E+03  0.51042919497E+03  0.00000000000E+00 0. -1.
         23    2    1    2    0    0  0.90368387934E+02 -0.56801062800E+02  0.21053048671E+01  0.12362510210E+03  0.62337206295E+02 0.  0.
    9900016    2    1    2    0    0 -0.39814591087E+03  0.33853549549E+02  0.77488196247E+02  0.78405996311E+03  0.67013384934E+03 0.  0.
         23    2    4    4    0    0 -0.31634302728E+03 -0.89482028917E+02  0.33953913922E+03  0.48310469501E+03  0.10011680615E+03 0.  0.
        -15    1    3    3    0    0  0.22690704140E+01 -0.30980970339E+02 -0.53362057616E+01  0.31518951372E+02  0.00000000000E+00 0.  1.
        -15    1    5    5    0    0 -0.17085110101E+03  0.36452077488E+01  0.17190276587E+03  0.24239213513E+03  0.00000000000E+00 0.  1.
         15    1    3    3    0    0  0.88099317520E+02 -0.25820092461E+02  0.74415106287E+01  0.92106150731E+02  0.00000000000E+00 0. -1.
         15    1    5    5    0    0 -0.14549192627E+03 -0.93127236666E+02  0.16763637334E+03  0.24071255989E+03  0.00000000000E+00 0. -1.
        -16    1    1    2    0    0  0.36377480635E+03 -0.21612880927E+02  0.92147495751E+03  0.99091640600E+03  0.00000000000E+00 0.  1.
         16    1    4    4    0    0 -0.81802883592E+02  0.12333557847E+03 -0.26205094297E+03  0.30095526809E+03  0.00000000000E+00 0. -1.
    9900018    1    1    2    0    0 -0.55997283408E+02  0.44560394178E+02 -0.71868656097E+01  0.11613851174E+03  0.91187600000E+02 0.  0.
<mgrwt>
<rscale>  0 0.84755468E+03</rscale>
<asrwt>0</asrwt>
<pdfrwt beam="1">  1        2 0.78527569E-01 0.16101849E+04</pdfrwt>
<pdfrwt beam="2">  1       -2 0.23143243E+00 0.16101849E+04</pdfrwt>
<totfact> 0.48060074E+00</totfact>
</mgrwt>
</event>
<event>
12    1  0.1319912E-014  0.1258504E+04  0.7818608E-02  0.9063135E-01
          1   -1    0    0  501    0  0.00000000000E+00  0.00000000000E+00  0.60286551326E+03  0.60286551326E+03  0.00000000000E+00 0. -1.
         -1   -1    0    0    0  501 -0.00000000000E+00 -0.00000000000E+00 -0.65679286897E+03  0.65679286897E+03  0.00000000000E+00 0.  1.
         23    2    1    2    0    0 -0.66224472601E+02  0.17409979678E+03 -0.11858957015E+03  0.24411279920E+03  0.10407282343E+03 0.  0.
    9900016    2    1    2    0    0  0.12374937543E+02 -0.84771335845E+02 -0.14094197321E+03  0.78499747886E+03  0.76747448397E+03 0.  0.
         23    2    4    4    0    0 -0.38127567324E+02 -0.30999756419E+03  0.13895525948E+03  0.35345504780E+03  0.89831539476E+02 0.  0.
        -15    1    3    3    0    0 -0.23139551053E+02  0.16476312079E+03 -0.76363387203E+02  0.18306745123E+03  0.00000000000E+00 0.  1.
        -15    1    5    5    0    0 -0.60788266507E+02 -0.22897720811E+03  0.12600703545E+03  0.26833476883E+03  0.00000000000E+00 0.  1.
         15    1    5    5    0    0  0.22660699183E+02 -0.81020356076E+02  0.12948224026E+02  0.85120278968E+02  0.00000000000E+00 0. -1.
         15    1    3    3    0    0 -0.43084921548E+02  0.93366759962E+01 -0.42226182944E+02  0.61045347976E+02  0.00000000000E+00 0. -1.
        -16    1    4    4    0    0  0.57401072052E+02  0.22962699566E+03 -0.19476294017E+03  0.30652250011E+03  0.00000000000E+00 0.  1.
         16    1    1    2    0    0  0.53849535058E+02 -0.89328460937E+02  0.20560418764E+03  0.23054810417E+03  0.00000000000E+00 0. -1.
    9900018    1    4    4    0    0 -0.68985671847E+01 -0.44007673108E+01 -0.85134292510E+02  0.12501993096E+03  0.91187600000E+02 0.  0.
<mgrwt>
<rscale>  0 0.12585035E+04</rscale>
<asrwt>0</asrwt>
<pdfrwt beam="1">  1        1 0.92748540E-01 0.12585035E+04</pdfrwt>
<pdfrwt beam="2">  1       -1 0.10104506E+00 0.12585035E+04</pdfrwt>
<totfact> 0.31211657E+01</totfact>
</mgrwt>
</event>
<event>
12    1  0.1319912E-014  0.2869473E+04  0.7818608E-02  0.8940080E-01
         -2   -1    0    0    0  501 -0.00000000000E+00  0.00000000000E+00  0.12121804029E+04  0.12121804029E+04  0.00000000000E+00 0.  1.
          2   -1    0    0  501    0  0.00000000000E+00 -0.00000000000E+00 -0.19222873103E+04  0.19222873103E+04  0.00000000000E+00 0. -1.
         23    2    1    2    0    0 -0.53084829277E+02 -0.11489738740E+03  0.22000875378E+02  0.17307372282E+03  0.11597873203E+03 0.  0.
    9900016    2    1    2    0    0 -0.43751040390E+02 -0.31409147239E+03  0.93349642059E+03  0.12387082995E+04  0.74994338277E+03 0.  0.
         23    2    4    4    0    0 -0.31756622997E+03 -0.69055180072E+02  0.31001959132E+03  0.45729665446E+03  0.85971826000E+02 0.  0.
        -15    1    3    3    0    0 -0.50638610477E+02 -0.45410299421E+02  0.62700229093E+02  0.92507745043E+02  0.00000000000E+00 0.  1.
        -15    1    5    5    0    0 -0.16266222852E+03 -0.30939291483E+02  0.21587732479E+03  0.27206480791E+03  0.00000000000E+00 0.  1.
         15    1    5    5    0    0 -0.15490400146E+03 -0.38115888590E+02  0.94142266527E+02  0.18523184655E+03  0.00000000000E+00 0. -1.
         15    1    3    3    0    0 -0.24462187998E+01 -0.69487087975E+02 -0.40699353716E+02  0.80565977773E+02  0.00000000000E+00 0. -1.
        -16    1    4    4    0    0  0.29487962951E+03 -0.20094505191E+03  0.54556489124E+03  0.65190026871E+03  0.00000000000E+00 0.  1.
         16    1    1    2    0    0  0.96835869667E+02  0.42898885979E+03 -0.16656042033E+04  0.17226856909E+04  0.00000000000E+00 0. -1.
    9900018    1    4    4    0    0 -0.21064439931E+02 -0.44091240414E+02  0.77911938031E+02  0.12951137630E+03  0.91187600000E+02 0.  0.
<mgrwt>
<rscale>  0 0.14191390E+04</rscale>
<asrwt>0</asrwt>
<pdfrwt beam="1">  1        2 0.29573651E+00 0.28694725E+04</pdfrwt>
<pdfrwt beam="2">  1       -2 0.18648929E+00 0.28694725E+04</pdfrwt>
<totfact> 0.10384724E+00</totfact>
</mgrwt>
</event>
<event>
12    1  0.1319912E-014  0.1189077E+04  0.7818608E-02  0.9818223E-01
          1   -1    0    0  501    0  0.00000000000E+00  0.00000000000E+00  0.22425511851E+04  0.22425511851E+04  0.00000000000E+00 0. -1.
         -1   -1    0    0    0  501 -0.00000000000E+00 -0.00000000000E+00 -0.22535558188E+03  0.22535558188E+03  0.00000000000E+00 0.  1.
         23    2    1    2    0    0 -0.57217235673E+02 -0.31622032963E+02 -0.24525953939E+02  0.10516864191E+03  0.78645761473E+02 0.  0.
    9900016    2    1    2    0    0 -0.15062642582E+03 -0.19936752800E+03  0.11607584866E+04  0.13625774763E+04  0.66844699351E+03 0.  0.
         23    2    4    4    0    0  0.27596829094E+02  0.78797459644E+02 -0.29634297996E+02  0.12719321594E+03  0.91264987486E+02 0.  0.
        -15    1    5    5    0    0 -0.12005844458E+02  0.71431055921E+02  0.69657234451E+01  0.72767144744E+02  0.00000000000E+00 0. -1.
        -15    1    3    3    0    0 -0.19367627520E+02 -0.24913271463E+02  0.26553303158E+02  0.41241411219E+02  0.00000000000E+00 0. -1.
         15    1    3    3    0    0 -0.37849608152E+02 -0.67087614997E+01 -0.51079257097E+02  0.63927230690E+02  0.00000000000E+00 0.  1.
         15    1    5    5    0    0  0.39602673552E+02  0.73664037231E+01 -0.36600021441E+02  0.54426071195E+02  0.00000000000E+00 0.  1.
        -16    1    1    2    0    0  0.22127826295E+03  0.28844506402E+03  0.70893574780E+03  0.79671482923E+03  0.00000000000E+00 0.  1.
         16    1    4    4    0    0 -0.17822325492E+03 -0.27816498764E+03  0.11903927846E+04  0.12353842603E+04  0.00000000000E+00 0. -1.
    9900018    1    1    2    0    0 -0.13434601451E+02 -0.57455503055E+02  0.17202732269E+03  0.20344581955E+03  0.91187600000E+02 0.  0.
<mgrwt>
<rscale>  0 0.64393702E+03</rscale>
<asrwt>0</asrwt>
<pdfrwt beam="1">  1        1 0.34500786E+00 0.11890772E+04</pdfrwt>
<pdfrwt beam="2">  1       -1 0.34670091E-01 0.11890772E+04</pdfrwt>
<totfact> 0.15987071E+01</totfact>
</mgrwt>
</event>
<event>
11    1  0.1319912E-014  0.2240902E+04  0.7818608E-02  0.9039914E-01
          2   -1    0    0  501    0  0.00000000000E+00  0.00000000000E+00  0.20939804928E+04  0.20939804928E+04  0.00000000000E+00 0. -1.
         -2   -1    0    0    0  501 -0.00000000000E+00 -0.00000000000E+00 -0.73790398314E+03  0.73790398314E+03  0.00000000000E+00 0.  1.
    9900016    2    1    2    0    0 -0.42519104300E+03 -0.46073355511E+03  0.10580663968E+04  0.13946039400E+04  0.65753541166E+03 0.  0.
         23    2    3    3    0    0  0.13119186657E+03 -0.12212538083E+03  0.72953758676E+02  0.21364486046E+03  0.90531546974E+02 0.  0.
        -15    1    1    2    0    0  0.91049200633E+02 -0.17792383139E+03  0.11063080907E+03  0.22844260248E+03  0.00000000000E+00 0.  1.
        -15    1    4    4    0    0  0.48454027125E+02 -0.63569842201E+02 -0.12706933811E+02  0.80934441055E+02  0.00000000000E+00 0.  1.
         15    1    4    4    0    0  0.82737839450E+02 -0.58555538626E+02  0.85660692486E+02  0.13271041940E+03  0.00000000000E+00 0. -1.
         15    1    1    2    0    0  0.17996563923E+02 -0.34449267920E+02  0.50881428035E+02  0.64027713470E+02  0.00000000000E+00 0. -1.
        -16    1    1    2    0    0  0.38582688711E+03  0.73926716237E+03 -0.13307790315E+03  0.84444541119E+03  0.00000000000E+00 0.  1.
         16    1    3    3    0    0 -0.55638290958E+03 -0.33860817428E+03  0.98511263817E+03  0.11809590796E+04  0.00000000000E+00 0. -1.
    9900018    1    1    2    0    0 -0.69681608660E+02 -0.66160507956E+02  0.26957577883E+03  0.30036480873E+03  0.91187600000E+02 0.  0.
<mgrwt>
<rscale>  0 0.12870296E+04</rscale>
<asrwt>0</asrwt>
<pdfrwt beam="1">  1        2 0.32215084E+00 0.22409017E+04</pdfrwt>
<pdfrwt beam="2">  1       -2 0.11352369E+00 0.22409017E+04</pdfrwt>
<totfact> 0.32584321E+00</totfact>
</mgrwt>
</event>
<event>
12    1  0.1319912E-014  0.2089936E+04  0.7818608E-02  0.9233589E-01
         -1   -1    0    0    0  501 -0.00000000000E+00  0.00000000000E+00  0.86990540313E+03  0.86990540313E+03  0.00000000000E+00 0.  1.
          1   -1    0    0  501    0  0.00000000000E+00 -0.00000000000E+00 -0.14545078032E+04  0.14545078032E+04  0.00000000000E+00 0. -1.
         23    2    1    2    0    0  0.73862869925E+02 -0.47821328044E+02 -0.10950747236E+03  0.18115715144E+03  0.11438279611E+03 0.  0.
    9900016    2    1    2    0    0 -0.15755009350E+03  0.66282946540E+03  0.17766987152E+03  0.97141554619E+03  0.66926575287E+03 0.  0.
         23    2    4    4    0    0  0.10048108451E+03 -0.64933202923E+02 -0.61869678760E+02  0.16296159797E+03  0.91737975114E+02 0.  0.
        -15    1    5    5    0    0  0.10059268386E+03 -0.37790472002E+02 -0.14587829688E+02  0.10844266963E+03  0.00000000000E+00 0. -1.
        -15    1    3    3    0    0 -0.59650547136E+01 -0.41271588477E+02  0.43741410365E+01  0.41929214194E+02  0.00000000000E+00 0. -1.
         15    1    3    3    0    0  0.79827924639E+02 -0.65497395673E+01 -0.11388161340E+03  0.13922793725E+03  0.00000000000E+00 0.  1.
         15    1    5    5    0    0 -0.11159935410E+00 -0.27142730922E+02 -0.47281849072E+02  0.54518928346E+02  0.00000000000E+00 0.  1.
        -16    1    4    4    0    0 -0.25803117801E+03  0.72776266833E+03  0.23953955028E+03  0.80845394821E+03  0.00000000000E+00 0.  1.
         16    1    1    2    0    0  0.97178474263E+02 -0.73067728267E+03 -0.70004439533E+03  0.10165604275E+04  0.00000000000E+00 0. -1.
    9900018    1    1    2    0    0 -0.13491250687E+02  0.11566914531E+03  0.47279596102E+02  0.15528008122E+03  0.91187600000E+02 0.  0.
<mgrwt>
<rscale>  0 0.10713355E+04</rscale>
<asrwt>0</asrwt>
<pdfrwt beam="1">  1        1 0.22377043E+00 0.20899357E+04</pdfrwt>
<pdfrwt beam="2">  1       -1 0.13383160E+00 0.20899357E+04</pdfrwt>
<totfact> 0.30361901E+00</totfact>
</mgrwt>
</event>
<event>
12    1  0.1319912E-014  0.1651334E+04  0.7818608E-02  0.9186309E-01
         -2   -1    0    0    0  501 -0.00000000000E+00  0.00000000000E+00  0.58888926863E+03  0.58888926863E+03  0.00000000000E+00 0.  1.
          2   -1    0    0  501    0  0.00000000000E+00 -0.00000000000E+00 -0.17688141336E+04  0.17688141336E+04  0.00000000000E+00 0. -1.
         23    2    1    2    0    0  0.21672003138E+03  0.24901444068E+03 -0.40200576460E+03  0.53230938264E+03  0.11299947085E+03 0.  0.
    9900016    2    1    2    0    0  0.54215523657E+02 -0.57379978367E+03 -0.62633144311E+03  0.10783005874E+04  0.66200873522E+03 0.  0.
         23    2    4    4    0    0  0.10156297786E+03 -0.17613519069E+03 -0.63986761870E+03  0.67759853107E+03  0.91490742573E+02 0.  0.
        -15    1    3    3    0    0  0.14331958007E+03  0.87525219227E+02 -0.23372963913E+03  0.28780324918E+03  0.00000000000E+00 0.  1.
        -15    1    5    5    0    0  0.86659814033E+02 -0.61568195506E+02 -0.34063406169E+03  0.35683627906E+03  0.00000000000E+00 0. -1.
         15    1    3    3    0    0  0.73400451315E+02  0.16148922145E+03 -0.16827612547E+03  0.24450613346E+03  0.00000000000E+00 0. -1.
         15    1    5    5    0    0  0.14903163828E+02 -0.11456699518E+03 -0.29923355700E+03  0.32076225201E+03  0.00000000000E+00 0.  1.
        -16    1    4    4    0    0 -0.47347454204E+02 -0.39766459299E+03  0.13536175591E+02  0.40070205638E+03  0.00000000000E+00 0.  1.
         16    1    1    2    0    0 -0.30211369083E+03  0.46645529001E+03 -0.80310459058E+02  0.56151846773E+03  0.00000000000E+00 0. -1.
    9900018    1    1    2    0    0  0.31178135793E+02 -0.14166994702E+03 -0.71277198204E+02  0.18557496441E+03  0.91187600000E+02 0.  0.
<mgrwt>
<rscale>  0 0.11195861E+04</rscale>
<asrwt>0</asrwt>
<pdfrwt beam="1">  1        2 0.27212525E+00 0.16513344E+04</pdfrwt>
<pdfrwt beam="2">  1       -2 0.90598349E-01 0.16513344E+04</pdfrwt>
<totfact> 0.88476271E+00</totfact>
</mgrwt>
</event>
<event>
12    1  0.1319912E-014  0.1115437E+04  0.7818608E-02  0.9632507E-01
          1   -1    0    0  501    0  0.00000000000E+00  0.00000000000E+00  0.16339385267E+04  0.16339385267E+04  0.00000000000E+00 0. -1.
         -1   -1    0    0    0  501 -0.00000000000E+00 -0.00000000000E+00 -0.27749799324E+03  0.27749799324E+03  0.00000000000E+00 0.  1.
         23    2    1    2    0    0  0.44750317570E+02 -0.18697207247E+03  0.26163938690E+03  0.34849422127E+03  0.12661716581E+03 0.  0.
    9900016    2    1    2    0    0  0.26796910148E+02 -0.11497381351E+03  0.67973014831E+03  0.94846496767E+03  0.65085764049E+03 0.  0.
         23    2    4    4    0    0  0.18948980853E+03  0.20621932776E+03  0.37416330427E+03  0.47623079974E+03  0.91459267842E+02 0.  0.
        -15    1    5    5    0    0  0.25045270827E+02  0.99450879311E+01  0.57195263806E+01  0.27547837425E+02  0.00000000000E+00 0.  1.
        -15    1    3    3    0    0  0.40544500022E+02 -0.28661996158E+02  0.14077803683E+03  0.14927766799E+03  0.00000000000E+00 0.  1.
         15    1    3    3    0    0  0.42058175475E+01 -0.15831007631E+03  0.12086135007E+03  0.19921655328E+03  0.00000000000E+00 0. -1.
         15    1    5    5    0    0  0.16444453770E+03  0.19627423983E+03  0.36844377789E+03  0.44868296231E+03  0.00000000000E+00 0. -1.
        -16    1    1    2    0    0 -0.18534505594E+02  0.31742500094E+03  0.20334678267E+03  0.37742823575E+03  0.00000000000E+00 0.  1.
         16    1    4    4    0    0 -0.16269289838E+03 -0.32119314127E+03  0.30556684404E+03  0.47223416793E+03  0.00000000000E+00 0. -1.
    9900018    1    1    2    0    0 -0.53012722123E+02 -0.15479114959E+02  0.21172421554E+03  0.23704909522E+03  0.91187600000E+02 0.  0.
<mgrwt>
<rscale>  0 0.75181515E+03</rscale>
<asrwt>0</asrwt>
<pdfrwt beam="1">  1        1 0.25137515E+00 0.11154367E+04</pdfrwt>
<pdfrwt beam="2">  1       -1 0.42692000E-01 0.11154367E+04</pdfrwt>
<totfact> 0.28458310E+01</totfact>
</mgrwt>
</event>
<event>
12    1  0.1319912E-014  0.1884202E+04  0.7818608E-02  0.8662760E-01
          2   -1    0    0  501    0  0.00000000000E+00  0.00000000000E+00  0.97082878820E+03  0.97082878820E+03  0.00000000000E+00 0.  1.
         -2   -1    0    0    0  501 -0.00000000000E+00 -0.00000000000E+00 -0.91422294318E+03  0.91422294318E+03  0.00000000000E+00 0. -1.
         23    2    1    2    0    0 -0.71976498708E+02  0.32577139060E+03  0.51325335047E+03  0.61578541391E+03  0.66746227706E+02 0.  0.
    9900016    2    1    2    0    0  0.10331759322E+03 -0.67075748393E+01 -0.39771252394E+03  0.78186121098E+03  0.66514072564E+03 0.  0.
         23    2    4    4    0    0 -0.20999223125E+03 -0.82673176372E+02 -0.38930828192E+03  0.45936400167E+03  0.92318775902E+02 0.  0.
        -15    1    5    5    0    0 -0.12305843469E+03 -0.42323797069E+02 -0.13460216248E+03  0.18722292673E+03  0.00000000000E+00 0.  1.
        -15    1    3    3    0    0 -0.82873083128E+02  0.24307238813E+03  0.38501471452E+03  0.46280499584E+03  0.00000000000E+00 0.  1.
         15    1    5    5    0    0 -0.86933796562E+02 -0.40349379303E+02 -0.25470611944E+03  0.27214107495E+03  0.00000000000E+00 0. -1.
         15    1    3    3    0    0  0.10896584420E+02  0.82699002469E+02  0.12823863595E+03  0.15298041807E+03  0.00000000000E+00 0. -1.
        -16    1    1    2    0    0 -0.24203020845E+02 -0.33096561650E+03  0.59653640544E+02  0.33716847769E+03  0.00000000000E+00 0.  1.
         16    1    4    4    0    0  0.31330982447E+03  0.75965601532E+02 -0.84042420215E+01  0.32249720930E+03  0.00000000000E+00 0. -1.
    9900018    1    1    2    0    0 -0.71380736648E+01  0.11901800735E+02 -0.11858862206E+03  0.15023662880E+03  0.91187600000E+02 0.  0.
<mgrwt>
<rscale>  0 0.18842016E+04</rscale>
<asrwt>0</asrwt>
<pdfrwt beam="1">  1        2 0.14935828E+00 0.18842016E+04</pdfrwt>
<pdfrwt beam="2">  1       -2 0.14064968E+00 0.18842016E+04</pdfrwt>
<totfact> 0.87540258E+00</totfact>
</mgrwt>
</event>
<event>
12    1  0.1319912E-014  0.1886388E+04  0.7818608E-02  0.8661662E-01
          2   -1    0    0  501    0  0.00000000000E+00  0.00000000000E+00  0.18972129339E+04  0.18972129339E+04  0.00000000000E+00 0. -1.
         -2   -1    0    0    0  501 -0.00000000000E+00 -0.00000000000E+00 -0.46890600918E+03  0.46890600918E+03  0.00000000000E+00 0.  1.
         23    2    1    2    0    0  0.18335352567E+03 -0.28268197928E+03 -0.11509561439E+03  0.36415445303E+03  0.76379633570E+02 0.  0.
    9900016    2    1    2    0    0 -0.26166184607E+02  0.10638744034E+03  0.12478212792E+04  0.14141085551E+04  0.65623326966E+03 0.  0.
         23    2    4    4    0    0  0.20485433175E+03  0.23455445153E+03  0.34513373990E+03  0.47355443370E+03  0.90307337978E+02 0.  0.
        -15    1    3    3    0    0  0.15032535392E+03 -0.18292093312E+03 -0.54893852191E+02  0.24304549948E+03  0.00000000000E+00 0. -1.
        -15    1    5    5    0    0  0.53237555656E+02  0.96136371914E+02  0.17632138500E+03  0.20776349570E+03  0.00000000000E+00 0. -1.
         15    1    5    5    0    0  0.15161677610E+03  0.13841807962E+03  0.16881235490E+03  0.26579093801E+03  0.00000000000E+00 0.  1.
         15    1    3    3    0    0  0.33028171747E+02 -0.99761046158E+02 -0.60201762198E+02  0.12110895356E+03  0.00000000000E+00 0.  1.
        -16    1    4    4    0    0 -0.23102051636E+03 -0.12816701119E+03  0.90268753929E+03  0.94055412142E+03  0.00000000000E+00 0.  1.
         16    1    1    2    0    0 -0.17542421634E+03  0.14237495401E+03 -0.47423831962E+02  0.23085342329E+03  0.00000000000E+00 0. -1.
    9900018    1    1    2    0    0  0.18236875280E+02  0.33919584935E+02  0.34300509189E+03  0.35700251164E+03  0.91187600000E+02 0.  0.
<mgrwt>
<rscale>  0 0.18863876E+04</rscale>
<asrwt>0</asrwt>
<pdfrwt beam="1">  1        2 0.29187891E+00 0.18863876E+04</pdfrwt>
<pdfrwt beam="2">  1       -2 0.72139387E-01 0.18863876E+04</pdfrwt>
<totfact> 0.12431816E+01</totfact>
</mgrwt>
</event>
<event>
12    1  0.1319912E-014  0.1951651E+04  0.7818608E-02  0.8629565E-01
          2   -1    0    0  501    0  0.00000000000E+00  0.00000000000E+00  0.82832658143E+03  0.82832658143E+03  0.00000000000E+00 0. -1.
         -2   -1    0    0    0  501 -0.00000000000E+00 -0.00000000000E+00 -0.11495899154E+04  0.11495899154E+04  0.00000000000E+00 0.  1.
         23    2    1    2    0    0  0.23365041567E+02 -0.15811522472E+03 -0.13894465961E+03  0.23735779114E+03  0.10717627127E+03 0.  0.
    9900016    2    1    2    0    0 -0.98960654016E+02  0.88382111933E+02  0.45428393817E+03  0.81453486576E+03  0.66293932022E+03 0.  0.
         23    2    4    4    0    0  0.59079171494E+02  0.26822692467E+03  0.49317022221E+03  0.57197995197E+03  0.92239719037E+02 0.  0.
        -15    1    3    3    0    0  0.63055080822E+02 -0.11897086644E+03 -0.11339784947E+03  0.17603716239E+03  0.00000000000E+00 0.  1.
        -15    1    5    5    0    0  0.43880658481E+02  0.81673009296E+02  0.99046627514E+02  0.13566955096E+03  0.00000000000E+00 0.  1.
         15    1    5    5    0    0  0.15198513013E+02  0.18655391537E+03  0.39412359469E+03  0.43631040101E+03  0.00000000000E+00 0. -1.
         15    1    3    3    0    0 -0.39690039255E+02 -0.39144358279E+02 -0.25546810143E+02  0.61320628745E+02  0.00000000000E+00 0. -1.
        -16    1    1    2    0    0  0.10101319416E+03  0.24899515194E+02 -0.75833089304E+03  0.76543412166E+03  0.00000000000E+00 0.  1.
         16    1    4    4    0    0 -0.15803982551E+03 -0.17984481273E+03 -0.38886284037E+02  0.24255491378E+03  0.00000000000E+00 0. -1.
    9900018    1    1    2    0    0 -0.25417581713E+02  0.44833597594E+02  0.12172828053E+03  0.16058971825E+03  0.91187600000E+02 0.  0.
<mgrwt>
<rscale>  0 0.19516515E+04</rscale>
<asrwt>0</asrwt>
<pdfrwt beam="1">  1        2 0.12743486E+00 0.19516515E+04</pdfrwt>
<pdfrwt beam="2">  1       -2 0.17685999E+00 0.19516515E+04</pdfrwt>
<totfact> 0.58434465E+00</totfact>
</mgrwt>
</event>
<event>
12    1  0.1319912E-014  0.1141822E+04  0.7818608E-02  0.9596263E-01
         -2   -1    0    0    0  501 -0.00000000000E+00  0.00000000000E+00  0.26425863942E+03  0.26425863942E+03  0.00000000000E+00 0.  1.
          2   -1    0    0  501    0  0.00000000000E+00 -0.00000000000E+00 -0.18232552393E+04  0.18232552393E+04  0.00000000000E+00 0. -1.
         23    2    1    2    0    0  0.48390901445E+02  0.21201747932E+03 -0.21922265498E+03  0.32718658303E+03  0.10816374983E+03 0.  0.
    9900016    2    1    2    0    0 -0.25156831853E+03 -0.15584475495E+03 -0.71393602659E+03  0.10245720354E+04  0.67265815926E+03 0.  0.
         23    2    4    4    0    0 -0.20553989025E+03 -0.17324768368E+03  0.22974735785E+02  0.28602010779E+03  0.94964504886E+02 0.  0.
        -15    1    3    3    0    0  0.42678147652E+02  0.15985256609E+03 -0.91418005007E+02  0.18902782549E+03  0.00000000000E+00 0.  1.
        -15    1    5    5    0    0 -0.70213534139E+02 -0.94072071704E+02 -0.28870085543E+02  0.12088414656E+03  0.00000000000E+00 0. -1.
         15    1    5    5    0    0 -0.13532635612E+03 -0.79175611978E+02  0.51844821328E+02  0.16513596123E+03  0.00000000000E+00 0.  1.
         15    1    3    3    0    0  0.57127537939E+01  0.52164913234E+02 -0.12780464998E+03  0.13815875754E+03  0.00000000000E+00 0. -1.
        -16    1    1    2    0    0  0.24485783823E+03 -0.61785243590E+02 -0.56365998513E+03  0.61764500816E+03  0.00000000000E+00 0.  1.
         16    1    4    4    0    0 -0.46028428272E+02  0.17402928730E+02 -0.73691076237E+03  0.73855192765E+03  0.00000000000E+00 0. -1.
    9900018    1    1    2    0    0 -0.41680421152E+02  0.56125192204E+01 -0.62177933152E+02  0.11811025207E+03  0.91187600000E+02 0.  0.
<mgrwt>
<rscale>  0 0.77544045E+03</rscale>
<asrwt>0</asrwt>
<pdfrwt beam="1">  1        2 0.28050079E+00 0.11418222E+04</pdfrwt>
<pdfrwt beam="2">  1       -2 0.40655177E-01 0.11418222E+04</pdfrwt>
<totfact> 0.47528621E+01</totfact>
</mgrwt>
</event>
<event>
12    1  0.1381787E-014  0.9427380E+03  0.7818608E-02  0.9921453E-01
          2   -1    0    0  501    0  0.00000000000E+00  0.00000000000E+00  0.91926967146E+03  0.91926967146E+03  0.00000000000E+00 0.  1.
         -2   -1    0    0    0  501 -0.00000000000E+00 -0.00000000000E+00 -0.33619325148E+03  0.33619325148E+03  0.00000000000E+00 0. -1.
         23    2    1    2    0    0  0.10397848189E+03  0.51124394928E+01  0.17418204884E+03  0.22786890092E+03  0.10366864586E+03 0.  0.
    9900016    2    1    2    0    0  0.18061099555E+02  0.79981391949E+02  0.24034593251E+03  0.80277588274E+03  0.76155086780E+03 0.  0.
         23    2    4    4    0    0  0.12755630375E+03 -0.23184488378E+03  0.28835515040E+03  0.40093084961E+03  0.87029837674E+02 0.  0.
        -15    1    5    5    0    0  0.53443309166E+02 -0.15504866327E+03  0.12678493603E+03  0.20729374154E+03  0.00000000000E+00 0.  1.
        -15    1    3    3    0    0  0.59385913905E+02 -0.15275047005E+02  0.16751547439E+03  0.17838567204E+03  0.00000000000E+00 0.  1.
         15    1    5    5    0    0  0.74112994586E+02 -0.76796220506E+02  0.16157021437E+03  0.19363710807E+03  0.00000000000E+00 0. -1.
         15    1    3    3    0    0  0.44592567981E+02  0.20387486498E+02  0.66665744538E+01  0.49483228874E+02  0.00000000000E+00 0. -1.
        -16    1    4    4    0    0 -0.67958178394E+02  0.28155019790E+03 -0.62118322536E+02  0.29622206863E+03  0.00000000000E+00 0.  1.
         16    1    1    2    0    0 -0.12203958144E+03 -0.85093831441E+02  0.16854843863E+03  0.22481813928E+03  0.00000000000E+00 0. -1.
    9900018    1    4    4    0    0 -0.41537025804E+02  0.30276077831E+02  0.14109104642E+02  0.10562296450E+03  0.91187600000E+02 0.  0.
<mgrwt>
<rscale>  0 0.59232747E+03</rscale>
<asrwt>0</asrwt>
<pdfrwt beam="1">  1        2 0.14142610E+00 0.94273796E+03</pdfrwt>
<pdfrwt beam="2">  1       -2 0.51722039E-01 0.94273796E+03</pdfrwt>
<totfact> 0.10055090E+02</totfact>
</mgrwt>
</event>
<event>
12    1  0.1319912E-014  0.1326222E+04  0.7818608E-02  0.9780371E-01
          1   -1    0    0  501    0  0.00000000000E+00  0.00000000000E+00  0.12935259012E+04  0.12935259012E+04  0.00000000000E+00 0. -1.
         -1   -1    0    0    0  501 -0.00000000000E+00 -0.00000000000E+00 -0.42704811055E+03  0.42704811055E+03  0.00000000000E+00 0.  1.
         23    2    1    2    0    0  0.91278163564E+01 -0.39120395434E+02 -0.59995011213E+02  0.10279288232E+03  0.73165927278E+02 0.  0.
    9900016    2    1    2    0    0 -0.70099641568E+02 -0.19750712519E+03  0.10767682954E+04  0.13309033115E+04  0.75362499849E+03 0.  0.
         23    2    4    4    0    0  0.12708050586E+03 -0.68437848559E+01 -0.31597928478E+02  0.16243733936E+03  0.95870578252E+02 0.  0.
        -15    1    5    5    0    0  0.95003342773E+02 -0.35675839291E+01 -0.65655177877E+02  0.11553772187E+03  0.00000000000E+00 0. -1.
        -15    1    3    3    0    0 -0.32241907750E+02 -0.17107278652E+02 -0.28862807551E+02  0.46532367852E+02  0.00000000000E+00 0.  1.
         15    1    5    5    0    0  0.32077163086E+02 -0.32762009269E+01  0.34057249399E+02  0.46899617491E+02  0.00000000000E+00 0. -1.
         15    1    3    3    0    0  0.41369724106E+02 -0.22013116783E+02 -0.31132203662E+02  0.56260514466E+02  0.00000000000E+00 0.  1.
        -16    1    1    2    0    0  0.60971825212E+02  0.23662752062E+03 -0.15029549360E+03  0.28687781786E+03  0.00000000000E+00 0.  1.
         16    1    4    4    0    0 -0.20559038952E+03 -0.16501936340E+03  0.92598250903E+03  0.96277848209E+03  0.00000000000E+00 0. -1.
    9900018    1    4    4    0    0  0.84102420906E+01 -0.25643976933E+02  0.18238371489E+03  0.20568749008E+03  0.91187600000E+02 0.  0.
<mgrwt>
<rscale>  0 0.66426692E+03</rscale>
<asrwt>0</asrwt>
<pdfrwt beam="1">  1        1 0.19900398E+00 0.13262217E+04</pdfrwt>
<pdfrwt beam="2">  1       -1 0.65699710E-01 0.13262217E+04</pdfrwt>
<totfact> 0.21008709E+01</totfact>
</mgrwt>
</event>
