<event>
13    1  0.5943610E-013  0.6229554E+04  0.7818608E-02  0.7662574E-01
         -2   -1    0    0    0  501 -0.00000000000E+00  0.00000000000E+00  0.33151290896E+04  0.33151290896E+04  0.00000000000E+00 0.  1.
          2   -1    0    0  501    0  0.00000000000E+00 -0.00000000000E+00 -0.29265333397E+04  0.29265333397E+04  0.00000000000E+00 0. -1.
    9900016    2    1    2    0    0 -0.19571550223E+04 -0.76658444878E+02 -0.10582707984E+04  0.30603001138E+04  0.20998017538E+04 0.  0.
         24    2    3    3    0    0 -0.61229329895E+03 -0.22753052005E+03  0.62100944547E+03  0.90359021780E+03  0.64415284343E+02 0.  0.
    9900016    2    1    2    0    0  0.19571550223E+04  0.76658444878E+02  0.14468665483E+04  0.31813623155E+04  0.20472691752E+04 0.  0.
         23    2    5    5    0    0 -0.17197577094E+03 -0.40758793287E+03  0.23881798066E+03  0.51415619808E+03  0.10779136942E+03 0.  0.
        -15    1    4    4    0    0 -0.26786694159E+03 -0.89053033182E+02  0.22682175290E+03  0.36212048920E+03  0.00000000000E+00 0.  1.
        -15    1    6    6    0    0 -0.14093330369E+03 -0.24223184993E+03  0.10532754442E+03  0.29938663434E+03  0.00000000000E+00 0. -1.
         15    1    6    6    0    0 -0.31042467248E+02 -0.16535608294E+03  0.13349043624E+03  0.21476956373E+03  0.00000000000E+00 0.  1.
         15    1    3    3    0    0 -0.13448617233E+04  0.15087207517E+03 -0.16792802439E+04  0.21567098960E+04  0.00000000000E+00 0. -1.
        -16    1    5    5    0    0  0.75033853695E+03  0.32377029926E+01 -0.29444198820E+02  0.75092300777E+03  0.00000000000E+00 0.  1.
         16    1    4    4    0    0 -0.34442635737E+03 -0.13847748687E+03  0.39418769257E+03  0.54146972860E+03  0.00000000000E+00 0. -1.
    9900018    1    5    5    0    0  0.13787922563E+04  0.48100867475E+03  0.12374927664E+04  0.19162831097E+04  0.91187600000E+02 0.  0.
<mgrwt>
<rscale>  0 0.62295540E+04</rscale>
<asrwt>0</asrwt>
<pdfrwt beam="1">  1        2 0.45023590E+00 0.62295540E+04</pdfrwt>
<pdfrwt beam="2">  1       -2 0.51001986E+00 0.62295540E+04</pdfrwt>
<totfact> 0.18576314E-03</totfact>
</mgrwt>
</event>
<event>
13    1  0.5943610E-013  0.4663555E+04  0.7818608E-02  0.7882613E-01
         -2   -1    0    0    0  501 -0.00000000000E+00  0.00000000000E+00  0.30341820329E+04  0.30341820329E+04  0.00000000000E+00 0.  1.
          2   -1    0    0  501    0  0.00000000000E+00 -0.00000000000E+00 -0.17919774877E+04  0.17919774877E+04  0.00000000000E+00 0. -1.
    9900016    2    1    2    0    0 -0.78560717603E+03  0.54492103811E+03  0.13879816134E+04  0.25830683260E+04  0.19574553493E+04 0.  0.
        -24    2    3    3    0    0  0.45978641143E+03  0.12012513265E+03 -0.20182520334E+03  0.51934778684E+03  0.56170449192E+02 0.  0.
    9900016    2    1    2    0    0  0.78560717603E+03 -0.54492103811E+03 -0.14577706822E+03  0.22430911947E+04  0.20238798337E+04 0.  0.
         23    2    5    5    0    0  0.22707149249E+02  0.14955505493E+03 -0.26817514882E+03  0.33248693618E+03  0.12548833892E+03 0.  0.
        -15    1    3    3    0    0 -0.12453935875E+04  0.42479590546E+03  0.15898068168E+04  0.20637205391E+04  0.00000000000E+00 0.  1.
        -15    1    6    6    0    0  0.16161857317E+02  0.62618097161E+02 -0.22707011319E+03  0.23609969933E+03  0.00000000000E+00 0.  1.
         15    1    4    4    0    0  0.67229195045E+02  0.34588766778E+02 -0.19107043252E+02  0.77982219483E+02  0.00000000000E+00 0. -1.
         15    1    6    6    0    0  0.65452919322E+01  0.86936957770E+02 -0.41105035634E+02  0.96387236848E+02  0.00000000000E+00 0. -1.
        -16    1    4    4    0    0  0.39255721639E+03  0.85536365870E+02 -0.18271816009E+03  0.44136556736E+03  0.00000000000E+00 0.  1.
         16    1    5    5    0    0 -0.17766555912E+03 -0.31742186126E+03  0.66466447085E+03  0.75769423101E+03  0.00000000000E+00 0. -1.
    9900018    1    5    5    0    0  0.94056558590E+03 -0.37705423178E+03 -0.54226639025E+03  0.11529100275E+04  0.91187600000E+02 0.  0.
<mgrwt>
<rscale>  0 0.46635548E+04</rscale>
<asrwt>0</asrwt>
<pdfrwt beam="1">  1        2 0.27568884E+00 0.46635548E+04</pdfrwt>
<pdfrwt beam="2">  1       -2 0.46679724E+00 0.46635548E+04</pdfrwt>
<totfact> 0.17587329E-02</totfact>
</mgrwt>
</event>
<event>
12    1  0.5943610E-013  0.5102066E+04  0.7818608E-02  0.7812953E-01
          1   -1    0    0  501    0  0.00000000000E+00  0.00000000000E+00  0.27719001165E+04  0.27719001165E+04  0.00000000000E+00 0. -1.
         -1   -1    0    0    0  501 -0.00000000000E+00 -0.00000000000E+00 -0.23477651911E+04  0.23477651911E+04  0.00000000000E+00 0.  1.
    9900016    2    1    2    0    0 -0.12812857378E+04 -0.37709073750E+03 -0.44752153012E+03  0.25421984511E+04  0.21162719293E+04 0.  0.
    9900016    2    1    2    0    0  0.12812857378E+04  0.37709073750E+03  0.87165645551E+03  0.25774668566E+04  0.20247616784E+04 0.  0.
         23    2    4    4    0    0 -0.27658981011E+03 -0.11913752691E+03  0.64917885247E+03  0.71863594532E+03  0.65641191653E+02 0.  0.
        -15    1    3    3    0    0 -0.14558745840E+04 -0.44669488838E+03 -0.10830943866E+04  0.18687430476E+04  0.00000000000E+00 0.  1.
        -15    1    5    5    0    0 -0.61256213615E+02  0.16452601259E+01  0.13456385438E+03  0.14785960061E+03  0.00000000000E+00 0.  1.
         15    1    5    5    0    0 -0.21533359649E+03 -0.12078278704E+03  0.51461499809E+03  0.57077634471E+03  0.00000000000E+00 0. -1.
         15    1    3    3    0    0 -0.12234780674E+02 -0.10870065337E+02  0.83730720896E+02  0.85315190912E+02  0.00000000000E+00 0. -1.
        -16    1    3    3    0    0  0.18682362695E+03  0.80474216225E+02  0.55184213554E+03  0.58814021256E+03  0.00000000000E+00 0.  1.
         16    1    4    4    0    0  0.25811905921E+02  0.26058106680E+03 -0.86214149109E+02  0.27568392476E+03  0.00000000000E+00 0. -1.
    9900018    1    4    4    0    0  0.15320636419E+04  0.23564719760E+03  0.30869175215E+03  0.15831469865E+04  0.91187600000E+02 0.  0.
<mgrwt>
<rscale>  0 0.51020665E+04</rscale>
<asrwt>0</asrwt>
<pdfrwt beam="1">  1        1 0.42644617E+00 0.51020665E+04</pdfrwt>
<pdfrwt beam="2">  1       -1 0.36119465E+00 0.51020665E+04</pdfrwt>
<totfact> 0.81815314E-03</totfact>
</mgrwt>
</event>
<event>
12    1  0.5943610E-013  0.2761305E+04  0.7818608E-02  0.8860412E-01
          2   -1    0    0  501    0  0.00000000000E+00  0.00000000000E+00  0.39888536170E+04  0.39888536170E+04  0.00000000000E+00 0.  1.
         -2   -1    0    0    0  501 -0.00000000000E+00 -0.00000000000E+00 -0.61132426939E+03  0.61132426939E+03  0.00000000000E+00 0. -1.
         24    2    1    2    0    0  0.14808076842E+03  0.20937471432E+03  0.72249528617E+03  0.76951088826E+03  0.66195797716E+02 0.  0.
    9900016    2    1    2    0    0 -0.63500912087E+03 -0.42851919790E+03  0.22639937545E+04  0.31688240812E+04  0.20806040109E+04 0.  0.
         23    2    4    4    0    0  0.34673141312E+03 -0.22658300668E+02 -0.15701659897E+03  0.38802894248E+03  0.71945649008E+02 0.  0.
        -15    1    5    5    0    0  0.24022685061E+03 -0.48297048659E+02 -0.11532964135E+03  0.27081815086E+03  0.00000000000E+00 0. -1.
        -15    1    3    3    0    0  0.38180947766E+02  0.88561531581E+02  0.34442619467E+03  0.35767350087E+03  0.00000000000E+00 0.  1.
         15    1    1    2    0    0  0.48692835245E+03  0.21914448358E+03  0.39104030695E+03  0.66184291698E+03  0.00000000000E+00 0. -1.
         15    1    5    5    0    0  0.10650456252E+03  0.25638747992E+02 -0.41686957618E+02  0.11721079162E+03  0.00000000000E+00 0.  1.
        -16    1    4    4    0    0 -0.63580935805E+03 -0.66906574373E+03  0.16815100439E+04  0.19181706225E+04  0.00000000000E+00 0.  1.
         16    1    3    3    0    0  0.10989982066E+03  0.12081318274E+03  0.37806909150E+03  0.41183738739E+03  0.00000000000E+00 0. -1.
    9900018    1    4    4    0    0 -0.34593117595E+03  0.26320484649E+03  0.73950030961E+03  0.86262451624E+03  0.91187600000E+02 0.  0.
<mgrwt>
<rscale>  0 0.15366938E+04</rscale>
<asrwt>0</asrwt>
<pdfrwt beam="1">  1        2 0.61366977E+00 0.27613047E+04</pdfrwt>
<pdfrwt beam="2">  1       -2 0.94049890E-01 0.27613047E+04</pdfrwt>
<totfact> 0.28851064E-01</totfact>
</mgrwt>
</event>
<event>
12    1  0.5943610E-013  0.4396318E+04  0.7818608E-02  0.7929044E-01
          2   -1    0    0  501    0  0.00000000000E+00  0.00000000000E+00  0.22223563259E+04  0.22223563259E+04  0.00000000000E+00 0.  1.
         -2   -1    0    0    0  501 -0.00000000000E+00 -0.00000000000E+00 -0.21742248658E+04  0.21742248658E+04  0.00000000000E+00 0. -1.
    9900016    2    1    2    0    0  0.10470924390E+03 -0.81530427026E+03 -0.44291752034E+03  0.21571920729E+04  0.19446379177E+04 0.  0.
         24    2    3    3    0    0 -0.17693403457E+03  0.14556465546E+03 -0.98868708280E+03  0.10168165014E+04  0.62601345117E+02 0.  0.
    9900016    2    1    2    0    0 -0.10470924390E+03  0.81530427026E+03  0.49104898052E+03  0.22393891188E+04  0.20243639607E+04 0.  0.
        -15    1    4    4    0    0 -0.85902182578E+02  0.61290665013E+02 -0.32713407416E+03  0.34373308404E+03  0.00000000000E+00 0.  1.
        -15    1    5    5    0    0 -0.40884476174E+02 -0.27573796828E+03  0.28110748645E+02  0.28016634654E+03  0.00000000000E+00 0.  1.
         15    1    5    5    0    0 -0.20279248360E+02 -0.17007307027E+03 -0.11130652738E+03  0.20426757007E+03  0.00000000000E+00 0. -1.
         15    1    3    3    0    0  0.28164327847E+03 -0.96086892572E+03  0.54576956246E+03  0.11403755715E+04  0.00000000000E+00 0. -1.
        -16    1    5    5    0    0  0.34681570902E+03  0.55900796755E+03 -0.14408999510E+03  0.67344856559E+03  0.00000000000E+00 0.  1.
         16    1    4    4    0    0 -0.91031851995E+02  0.84273990445E+02 -0.66155300864E+03  0.67308341741E+03  0.00000000000E+00 0. -1.
    9900018    1    5    5    0    0 -0.39036122838E+03  0.70210734126E+03  0.71833475435E+03  0.10815066366E+04  0.91187600000E+02 0.  0.
<mgrwt>
<rscale>  0 0.43963177E+04</rscale>
<asrwt>0</asrwt>
<pdfrwt beam="1">  1        2 0.34190097E+00 0.43963177E+04</pdfrwt>
<pdfrwt beam="2">  1       -2 0.33449613E+00 0.43963177E+04</pdfrwt>
<totfact> 0.74593241E-02</totfact>
</mgrwt>
</event>
<event>
11    1  0.5943610E-013  0.5909267E+04  0.7818608E-02  0.7701754E-01
         -2   -1    0    0    0  501 -0.00000000000E+00  0.00000000000E+00  0.21280960893E+04  0.21280960893E+04  0.00000000000E+00 0.  1.
          2   -1    0    0  501    0  0.00000000000E+00 -0.00000000000E+00 -0.41021919146E+04  0.41021919146E+04  0.00000000000E+00 0. -1.
    9900016    2    1    2    0    0  0.23926458995E+03 -0.23730949632E+03 -0.32840465306E+04  0.38057001600E+04  0.18933644001E+04 0.  0.
    9900016    2    1    2    0    0 -0.23926458995E+03  0.23730949632E+03  0.13099507053E+04  0.24245878438E+04  0.20122355779E+04 0.  0.
        -15    1    3    3    0    0  0.56092065459E+02  0.38081529999E+03  0.69147215466E+02  0.39108560433E+03  0.00000000000E+00 0.  1.
        -15    1    4    4    0    0  0.18944531184E+03  0.23774015162E+03  0.57828494996E+02  0.30944149803E+03  0.00000000000E+00 0.  1.
         15    1    4    4    0    0  0.23353017199E+03  0.51508648255E+03  0.30533964059E+03  0.64271511718E+03  0.00000000000E+00 0. -1.
         15    1    3    3    0    0  0.40042744413E+02 -0.14366556943E+03 -0.76556566400E+03  0.77995769316E+03  0.00000000000E+00 0. -1.
        -16    1    3    3    0    0  0.14312978008E+03 -0.47445922687E+03 -0.25876280821E+04  0.26346568625E+04  0.00000000000E+00 0.  1.
         16    1    4    4    0    0 -0.75951499265E+03 -0.51372051611E+03  0.97252017740E+03  0.13366253358E+04  0.00000000000E+00 0. -1.
    9900018    1    4    4    0    0  0.97274918867E+02 -0.17966217456E+01 -0.25737607673E+02  0.13580589285E+03  0.91187600000E+02 0.  0.
<mgrwt>
<rscale>  0 0.59092668E+04</rscale>
<asrwt>0</asrwt>
<pdfrwt beam="1">  1        2 0.63110644E+00 0.59092668E+04</pdfrwt>
<pdfrwt beam="2">  1       -2 0.32739940E+00 0.59092668E+04</pdfrwt>
<totfact> 0.40894327E-03</totfact>
</mgrwt>
</event>
