<event>
10    1  0.1581283E-013  0.2461759E+04  0.7818608E-02  0.8416737E-01
          1   -1    0    0  501    0  0.00000000000E+00  0.00000000000E+00  0.94107267592E+03  0.94107267592E+03  0.00000000000E+00 0. -1.
         -1   -1    0    0    0  501 -0.00000000000E+00 -0.00000000000E+00 -0.16099332485E+04  0.16099332485E+04  0.00000000000E+00 0.  1.
    9900016    2    1    2    0    0 -0.43560498775E+03  0.52502187756E+03  0.53909400082E+03  0.11637229941E+04  0.77345277043E+03 0.  0.
        -15    1    3    3    0    0 -0.12457166149E+03  0.53782442120E+01 -0.52537764566E+02  0.13530425367E+03  0.00000000000E+00 0.  1.
        -15    1    3    3    0    0  0.13603297150E+02  0.39282388590E+02  0.92958951277E+02  0.10183085176E+03  0.00000000000E+00 0.  1.
         15    1    3    3    0    0 -0.37600278239E+02  0.86115564201E+02  0.58470473316E+02  0.11067279508E+03  0.00000000000E+00 0. -1.
         15    1    3    3    0    0 -0.13076536760E+01  0.29423411121E+02  0.92418446927E+02  0.96998022725E+02  0.00000000000E+00 0. -1.
        -16    1    1    2    0    0  0.43560498775E+03 -0.52502187756E+03 -0.12079545734E+04  0.13872829303E+04  0.00000000000E+00 0.  1.
         16    1    3    3    0    0 -0.19466303458E+03  0.13997797402E+03 -0.49265239259E+02  0.24477457801E+03  0.00000000000E+00 0. -1.
    9900018    1    3    3    0    0 -0.91065656922E+02  0.22484429542E+03  0.39704913312E+03  0.47414249288E+03  0.91187600000E+02 0.  0.
<mgrwt>
<rscale>  0 0.24617589E+04</rscale>
<asrwt>0</asrwt>
<pdfrwt beam="1">  1        1 0.14478041E+00 0.24617589E+04</pdfrwt>
<pdfrwt beam="2">  1       -1 0.24768204E+00 0.24617589E+04</pdfrwt>
<totfact> 0.10843067E+00</totfact>
</mgrwt>
</event>
<event>
10    1  0.1581283E-013  0.8731162E+03  0.7818608E-02  0.9459826E-01
         -2   -1    0    0    0  501 -0.00000000000E+00  0.00000000000E+00  0.12717174293E+04  0.12717174293E+04  0.00000000000E+00 0.  1.
          2   -1    0    0  501    0  0.00000000000E+00 -0.00000000000E+00 -0.14986268763E+03  0.14986268763E+03  0.00000000000E+00 0. -1.
    9900016    2    1    2    0    0  0.16727747853E+02  0.48732964181E+02  0.87341422844E+03  0.11678530826E+04  0.77354617750E+03 0.  0.
        -15    1    3    3    0    0  0.41075149042E+02  0.11710447485E+02  0.44217570874E+02  0.61477605867E+02  0.00000000000E+00 0.  1.
        -15    1    3    3    0    0  0.31516852258E+02 -0.12803841188E+03  0.24287335267E+03  0.27635957072E+03  0.00000000000E+00 0. -1.
         15    1    3    3    0    0 -0.70076264664E+01 -0.71898689679E+02  0.40568137165E+02  0.82851084238E+02  0.00000000000E+00 0.  1.
         15    1    3    3    0    0 -0.39715501720E+02  0.58235435119E+02  0.82674655584E+02  0.10864522841E+03  0.00000000000E+00 0. -1.
        -16    1    1    2    0    0 -0.16727747853E+02 -0.48732964181E+02  0.24844051319E+03  0.25372703431E+03  0.00000000000E+00 0.  1.
         16    1    3    3    0    0  0.78648994944E+02 -0.99557382718E+02  0.86920998157E+02  0.15379400762E+03  0.00000000000E+00 0. -1.
    9900018    1    3    3    0    0 -0.87790120204E+02  0.27828156586E+03  0.37615951399E+03  0.48472558573E+03  0.91187600000E+02 0.  0.
<mgrwt>
<rscale>  0 0.87311624E+03</rscale>
<asrwt>0</asrwt>
<pdfrwt beam="1">  1        2 0.23055799E-01 0.87311624E+03</pdfrwt>
<pdfrwt beam="2">  1       -2 0.19564883E+00 0.87311624E+03</pdfrwt>
<totfact> 0.34481156E+01</totfact>
</mgrwt>
</event>
<event>
10    1  0.1581283E-013  0.1916468E+04  0.7818608E-02  0.8646703E-01
          2   -1    0    0  501    0  0.00000000000E+00  0.00000000000E+00  0.71703243382E+03  0.71703243382E+03  0.00000000000E+00 0. -1.
         -2   -1    0    0    0  501 -0.00000000000E+00 -0.00000000000E+00 -0.12805724981E+04  0.12805724981E+04  0.00000000000E+00 0.  1.
    9900016    2    1    2    0    0 -0.15660030879E+02  0.42474907553E+03  0.35594248094E+03  0.98463644047E+03  0.81373021108E+03 0.  0.
        -15    1    3    3    0    0 -0.24296792395E+02  0.93726955889E+02  0.58598325969E+02  0.11317614672E+03  0.00000000000E+00 0. -1.
        -15    1    3    3    0    0 -0.11601343091E+02  0.84038139243E+01 -0.98699813409E+01  0.17396315175E+02  0.00000000000E+00 0.  1.
         15    1    3    3    0    0 -0.66356793293E+02  0.40551284083E+01 -0.53651806269E+02  0.85429411788E+02  0.00000000000E+00 0.  1.
         15    1    3    3    0    0  0.86122208323E+02  0.32787846886E+03 -0.14301395750E+02  0.33930201153E+03  0.00000000000E+00 0. -1.
        -16    1    1    2    0    0  0.15660030879E+02 -0.42474907553E+03 -0.91948254524E+03  0.10129684915E+04  0.00000000000E+00 0.  1.
         16    1    3    3    0    0 -0.81882491271E+02 -0.23166098132E+02  0.15377865501E+03  0.17575347853E+03  0.00000000000E+00 0. -1.
    9900018    1    3    3    0    0  0.82355180848E+02  0.13850806582E+02  0.22138868332E+03  0.25357907672E+03  0.91187600000E+02 0.  0.
<mgrwt>
<rscale>  0 0.19164676E+04</rscale>
<asrwt>0</asrwt>
<pdfrwt beam="1">  1        2 0.11031268E+00 0.19164676E+04</pdfrwt>
<pdfrwt beam="2">  1       -2 0.19701115E+00 0.19164676E+04</pdfrwt>
<totfact> 0.51693991E+00</totfact>
</mgrwt>
</event>
<event>
10    1  0.1581283E-013  0.1515398E+04  0.7818608E-02  0.8874278E-01
          1   -1    0    0  501    0  0.00000000000E+00  0.00000000000E+00  0.88562374164E+03  0.88562374164E+03  0.00000000000E+00 0. -1.
         -1   -1    0    0    0  501 -0.00000000000E+00 -0.00000000000E+00 -0.64825212377E+03  0.64825212377E+03  0.00000000000E+00 0.  1.
    9900016    2    1    2    0    0 -0.29117291060E+03 -0.10186937750E+03  0.44165228187E+03  0.79546866484E+03  0.58528166273E+03 0.  0.
        -15    1    3    3    0    0 -0.69415656426E+02  0.24262936951E+02  0.20170532523E+03  0.21469108434E+03  0.00000000000E+00 0. -1.
        -15    1    3    3    0    0 -0.88156660159E+01 -0.23365826506E+02 -0.13765450977E+02  0.28516056113E+02  0.00000000000E+00 0. -1.
         15    1    3    3    0    0  0.42026768267E+02  0.26781241322E+02  0.94749156926E+02  0.10705553174E+03  0.00000000000E+00 0.  1.
         15    1    3    3    0    0  0.59734469422E+02  0.76981615545E+01  0.66343062380E+02  0.89603964502E+02  0.00000000000E+00 0.  1.
        -16    1    1    2    0    0 -0.13185830082E+03  0.10370545598E+03 -0.25232101823E+03  0.30299724311E+03  0.00000000000E+00 0.  1.
         16    1    3    3    0    0 -0.31470282585E+03 -0.13724589082E+03  0.92620188303E+02  0.35560202815E+03  0.00000000000E+00 0. -1.
    9900018    1    1    2    0    0  0.42303121142E+03 -0.18360784817E+01  0.48040354232E+02  0.43540995745E+03  0.91187600000E+02 0.  0.
<mgrwt>
<rscale>  0 0.15153976E+04</rscale>
<asrwt>0</asrwt>
<pdfrwt beam="1">  1        1 0.13624981E+00 0.15153976E+04</pdfrwt>
<pdfrwt beam="2">  1       -1 0.99731096E-01 0.15153976E+04</pdfrwt>
<totfact> 0.17332261E+01</totfact>
</mgrwt>
</event>
<event>
10    1  0.1581283E-013  0.2304541E+04  0.7818608E-02  0.8476133E-01
          2   -1    0    0  501    0  0.00000000000E+00  0.00000000000E+00  0.34049185204E+04  0.34049185204E+04  0.00000000000E+00 0. -1.
         -2   -1    0    0    0  501 -0.00000000000E+00 -0.00000000000E+00 -0.38994399663E+03  0.38994399663E+03  0.00000000000E+00 0.  1.
    9900016    2    1    2    0    0 -0.53138766541E-01 -0.58354289872E+03  0.30569201626E+04  0.32098140112E+04  0.78588980718E+03 0.  0.
        -15    1    3    3    0    0  0.74587948094E+02 -0.68188235041E+02  0.42598674963E+03  0.43781012809E+03  0.00000000000E+00 0. -1.
        -15    1    3    3    0    0  0.59247666393E+02 -0.24609140537E+03  0.10840733164E+04  0.11132323302E+04  0.00000000000E+00 0.  1.
         15    1    3    3    0    0 -0.27930209122E+02  0.18988916603E+02  0.10492166262E+03  0.11022354931E+03  0.00000000000E+00 0. -1.
         15    1    3    3    0    0  0.74197389055E+02 -0.67340968429E+02  0.26780338220E+03  0.28593480041E+03  0.00000000000E+00 0.  1.
        -16    1    3    3    0    0 -0.12635504995E+03 -0.60693790887E+02  0.10185881419E+03  0.17327594446E+03  0.00000000000E+00 0.  1.
         16    1    1    2    0    0  0.53138766541E-01  0.58354289872E+03 -0.41945638817E+02  0.58504850576E+03  0.00000000000E+00 0. -1.
    9900018    1    3    3    0    0 -0.53800883236E+02 -0.16021741560E+03  0.10722762375E+04  0.10893372587E+04  0.91187600000E+02 0.  0.
<mgrwt>
<rscale>  0 0.23045412E+04</rscale>
<asrwt>0</asrwt>
<pdfrwt beam="1">  1        2 0.52383360E+00 0.23045412E+04</pdfrwt>
<pdfrwt beam="2">  1       -2 0.59991386E-01 0.23045412E+04</pdfrwt>
<totfact> 0.22261601E+00</totfact>
</mgrwt>
</event>
<event>
11    1  0.1581283E-013  0.9641207E+03  0.7818608E-02  0.9348796E-01
          1   -1    0    0  501    0  0.00000000000E+00  0.00000000000E+00  0.10645991086E+04  0.10645991086E+04  0.00000000000E+00 0. -1.
         -1   -1    0    0    0  501 -0.00000000000E+00 -0.00000000000E+00 -0.21828137526E+03  0.21828137526E+03  0.00000000000E+00 0.  1.
    9900016    2    1    2    0    0  0.13176381756E+03  0.14021803775E+03  0.85885095393E+03  0.10900596257E+04  0.64310358794E+03 0.  0.
         24    2    3    3    0    0  0.83320319154E+02 -0.87216817252E+02 -0.36987318951E+02  0.14395983598E+03  0.69334867241E+02 0.  0.
        -15    1    4    4    0    0  0.45239404406E+02 -0.35552423097E+02 -0.92416051741E+01  0.58275087004E+02  0.00000000000E+00 0.  1.
        -15    1    4    4    0    0  0.18527440093E+02 -0.15479645175E+02  0.10940819595E+02  0.26506357436E+02  0.00000000000E+00 0.  1.
         15    1    4    4    0    0  0.15990054034E+02 -0.12273302954E+02 -0.13461028121E+02  0.24238710186E+02  0.00000000000E+00 0. -1.
         15    1    3    3    0    0 -0.32842540387E+02  0.11096616003E+03  0.20975638130E+03  0.23956180962E+03  0.00000000000E+00 0. -1.
        -16    1    1    2    0    0 -0.13176381756E+03 -0.14021803775E+03 -0.12533220552E+02  0.19282085817E+03  0.00000000000E+00 0.  1.
         16    1    4    4    0    0  0.35634206212E+01 -0.23911446027E+02 -0.25225505251E+02  0.34939681349E+02  0.00000000000E+00 0. -1.
    9900018    1    3    3    0    0  0.81286038791E+02  0.11646869498E+03  0.68608189158E+03  0.70653798013E+03  0.91187600000E+02 0.  0.
<mgrwt>
<rscale>  0 0.96412065E+03</rscale>
<asrwt>0</asrwt>
<pdfrwt beam="1">  1        1 0.16378448E+00 0.96412065E+03</pdfrwt>
<pdfrwt beam="2">  1       -1 0.33581751E-01 0.96412065E+03</pdfrwt>
<totfact> 0.11308024E+02</totfact>
</mgrwt>
</event>
<event>
10    1  0.1581283E-013  0.1524814E+04  0.7818608E-02  0.8868118E-01
          1   -1    0    0  501    0  0.00000000000E+00  0.00000000000E+00  0.11701869505E+04  0.11701869505E+04  0.00000000000E+00 0. -1.
         -1   -1    0    0    0  501 -0.00000000000E+00 -0.00000000000E+00 -0.49672787177E+03  0.49672787177E+03  0.00000000000E+00 0.  1.
    9900016    2    1    2    0    0 -0.42220510753E+03 -0.30720351739E+03  0.21862934843E+03  0.97445454364E+03  0.79317823452E+03 0.  0.
        -15    1    3    3    0    0  0.82540073331E+00  0.11303398780E+02 -0.34491278551E+01  0.11846712342E+02  0.00000000000E+00 0.  1.
        -15    1    3    3    0    0 -0.14106722496E+02  0.16925068063E+02  0.10249677597E+03  0.10483819263E+03  0.00000000000E+00 0.  1.
         15    1    3    3    0    0 -0.15739461636E+03 -0.20052772856E+03  0.10704058338E+03  0.27648168415E+03  0.00000000000E+00 0. -1.
         15    1    3    3    0    0 -0.28351972470E+02  0.39776184603E+02 -0.50498020751E+00  0.48849096301E+02  0.00000000000E+00 0. -1.
        -16    1    1    2    0    0  0.42220510753E+03  0.30720351739E+03  0.45482973030E+03  0.69246027863E+03  0.00000000000E+00 0.  1.
         16    1    3    3    0    0  0.53396504155E+02 -0.91153762623E+02 -0.15379018355E+03  0.18657871168E+03  0.00000000000E+00 0. -1.
    9900018    1    3    3    0    0 -0.27657370109E+03 -0.83526677653E+02  0.16683628069E+03  0.34586014654E+03  0.91187600000E+02 0.  0.
<mgrwt>
<rscale>  0 0.15248141E+04</rscale>
<asrwt>0</asrwt>
<pdfrwt beam="1">  1        1 0.18002876E+00 0.15248141E+04</pdfrwt>
<pdfrwt beam="2">  1       -1 0.76419673E-01 0.15248141E+04</pdfrwt>
<totfact> 0.18651434E+01</totfact>
</mgrwt>
</event>
<event>
10    1  0.1581283E-013  0.9184711E+03  0.7818608E-02  0.9402782E-01
          1   -1    0    0  501    0  0.00000000000E+00  0.00000000000E+00  0.42485311446E+03  0.42485311446E+03  0.00000000000E+00 0. -1.
         -1   -1    0    0    0  501 -0.00000000000E+00 -0.00000000000E+00 -0.49640053452E+03  0.49640053452E+03  0.00000000000E+00 0.  1.
    9900016    2    1    2    0    0  0.18686955949E+03  0.10007047021E+01 -0.96399406142E+02  0.67468926167E+03  0.64108620375E+03 0.  0.
        -15    1    3    3    0    0  0.24627889924E+03 -0.14099497430E+03 -0.31237134893E+02  0.28549717614E+03  0.00000000000E+00 0.  1.
        -15    1    3    3    0    0 -0.30149692272E+02  0.15148731406E+02 -0.71542117203E+02  0.79099700007E+02  0.00000000000E+00 0.  1.
         15    1    3    3    0    0 -0.77626920326E+02  0.16669547330E+02 -0.10363604722E+03  0.13055360145E+03  0.00000000000E+00 0. -1.
         15    1    3    3    0    0  0.53712347852E+01  0.72103741559E+02  0.96424881208E+02  0.12052202050E+03  0.00000000000E+00 0. -1.
        -16    1    1    2    0    0 -0.10887608501E+03  0.34435203940E+02 -0.15189730397E+02  0.11519771294E+03  0.00000000000E+00 0.  1.
         16    1    3    3    0    0  0.42996038063E+02  0.38073658706E+02  0.13591011969E+02  0.59016763574E+02  0.00000000000E+00 0. -1.
    9900018    1    1    2    0    0 -0.77993474482E+02 -0.35435908642E+02  0.40041716474E+02  0.13136667437E+03  0.91187600000E+02 0.  0.
<mgrwt>
<rscale>  0 0.91847115E+03</rscale>
<asrwt>0</asrwt>
<pdfrwt beam="1">  1        1 0.65362018E-01 0.91847115E+03</pdfrwt>
<pdfrwt beam="2">  1       -1 0.76369313E-01 0.91847115E+03</pdfrwt>
<totfact> 0.95977923E+01</totfact>
</mgrwt>
</event>
<event>
10    1  0.1581283E-013  0.2121594E+04  0.7818608E-02  0.8551790E-01
          2   -1    0    0  501    0  0.00000000000E+00  0.00000000000E+00  0.37184967147E+04  0.37184967147E+04  0.00000000000E+00 0. -1.
         -2   -1    0    0    0  501 -0.00000000000E+00 -0.00000000000E+00 -0.30261960534E+03  0.30261960534E+03  0.00000000000E+00 0.  1.
    9900016    2    1    2    0    0  0.26027301000E+03 -0.51248714022E+02  0.84316496036E+03  0.10943610918E+04  0.64523683904E+03 0.  0.
        -15    1    3    3    0    0  0.32084105694E+02 -0.41327028680E+01  0.18471464605E+02  0.37251363409E+02  0.00000000000E+00 0. -1.
        -15    1    3    3    0    0 -0.16011469476E+03 -0.10821908600E+03  0.25303051862E+03  0.31839052970E+03  0.00000000000E+00 0.  1.
         15    1    3    3    0    0  0.71083011314E+02  0.20426288593E+02  0.25859156379E+03  0.26896026589E+03  0.00000000000E+00 0. -1.
         15    1    3    3    0    0  0.12045455594E+03  0.24623005596E+02  0.33352921621E+02  0.12738920611E+03  0.00000000000E+00 0.  1.
        -16    1    3    3    0    0  0.19676603180E+03  0.16053780655E+02  0.27971849172E+03  0.34236972669E+03  0.00000000000E+00 0.  1.
         16    1    1    2    0    0 -0.27023735650E+03  0.65828682191E+03  0.18279344643E+04  0.19615591183E+04  0.00000000000E+00 0. -1.
    9900018    1    1    2    0    0  0.99643465058E+01 -0.60703810789E+03  0.74477768468E+03  0.96519610993E+03  0.91187600000E+02 0.  0.
<mgrwt>
<rscale>  0 0.21215937E+04</rscale>
<asrwt>0</asrwt>
<pdfrwt beam="1">  1        2 0.57207638E+00 0.21215937E+04</pdfrwt>
<pdfrwt beam="2">  1       -2 0.46556865E-01 0.21215937E+04</pdfrwt>
<totfact> 0.22891205E+00</totfact>
</mgrwt>
</event>
<event>
10    1  0.1581283E-013  0.1356882E+04  0.7818608E-02  0.8985635E-01
          1   -1    0    0  501    0  0.00000000000E+00  0.00000000000E+00  0.52126629812E+03  0.52126629812E+03  0.00000000000E+00 0. -1.
         -1   -1    0    0    0  501 -0.00000000000E+00 -0.00000000000E+00 -0.88300747848E+03  0.88300747848E+03  0.00000000000E+00 0.  1.
    9900016    2    1    2    0    0  0.41944416053E+03  0.57925907659E+02 -0.42060594917E+03  0.97677655371E+03  0.77323622317E+03 0.  0.
        -15    1    3    3    0    0 -0.37501280276E+02 -0.92054290320E+01  0.32227167234E+02  0.50295887048E+02  0.00000000000E+00 0. -1.
        -15    1    3    3    0    0 -0.26388358425E+02  0.47578559108E+02 -0.13236045944E+02  0.55993371566E+02  0.00000000000E+00 0.  1.
         15    1    3    3    0    0  0.91206316122E+02  0.26898746486E+02  0.57569918284E+02  0.11115948072E+03  0.00000000000E+00 0. -1.
         15    1    3    3    0    0  0.44878841085E+01  0.30573222217E+02 -0.18422494014E+02  0.35975704388E+02  0.00000000000E+00 0.  1.
        -16    1    1    2    0    0 -0.41944416053E+03 -0.57925907659E+02  0.58864768810E+02  0.42749722290E+03  0.00000000000E+00 0.  1.
         16    1    3    3    0    0 -0.21011384973E+02  0.18999972621E+02 -0.23263343193E+03  0.23435185280E+03  0.00000000000E+00 0. -1.
    9900018    1    3    3    0    0  0.40865098397E+03 -0.56919163740E+02 -0.24611106279E+03  0.48900025718E+03  0.91187600000E+02 0.  0.
<mgrwt>
<rscale>  0 0.13568818E+04</rscale>
<asrwt>0</asrwt>
<pdfrwt beam="1">  1        1 0.80194816E-01 0.13568818E+04</pdfrwt>
<pdfrwt beam="2">  1       -1 0.13584730E+00 0.13568818E+04</pdfrwt>
<totfact> 0.18553606E+01</totfact>
</mgrwt>
</event>
<event>
10    1  0.1581283E-013  0.1937450E+04  0.7818608E-02  0.8636436E-01
          2   -1    0    0  501    0  0.00000000000E+00  0.00000000000E+00  0.15176858078E+04  0.15176858078E+04  0.00000000000E+00 0. -1.
         -2   -1    0    0    0  501 -0.00000000000E+00 -0.00000000000E+00 -0.61832834674E+03  0.61832834674E+03  0.00000000000E+00 0.  1.
    9900016    2    1    2    0    0  0.97866756100E+02 -0.22273755183E+03 -0.16654865188E+03  0.60476508594E+03  0.52802692809E+03 0.  0.
        -15    1    3    3    0    0 -0.34794695661E+02 -0.85086466522E+02 -0.13037585926E+03  0.15952505230E+03  0.00000000000E+00 0.  1.
        -15    1    3    3    0    0  0.11417798747E+03  0.25929270718E+01  0.44218734534E+02  0.12246890453E+03  0.00000000000E+00 0. -1.
         15    1    3    3    0    0  0.95327403054E+02  0.33589528563E+02 -0.60463878935E+02  0.11777712366E+03  0.00000000000E+00 0.  1.
         15    1    3    3    0    0  0.10921941672E+02 -0.14800136327E+02 -0.14238951269E+02  0.23261138803E+02  0.00000000000E+00 0. -1.
        -16    1    1    2    0    0  0.30324817475E+03  0.39680513009E+03  0.16546403961E+03  0.52611036405E+03  0.00000000000E+00 0.  1.
         16    1    3    3    0    0 -0.87765880431E+02 -0.15903340461E+03 -0.56886969518E+01  0.18173286666E+03  0.00000000000E+00 0. -1.
    9900018    1    1    2    0    0 -0.40111493085E+03 -0.17406757827E+03  0.90044207331E+03  0.10051387045E+04  0.91187600000E+02 0.  0.
<mgrwt>
<rscale>  0 0.19374500E+04</rscale>
<asrwt>0</asrwt>
<pdfrwt beam="1">  1        2 0.23349012E+00 0.19374500E+04</pdfrwt>
<pdfrwt beam="2">  1       -2 0.95127438E-01 0.19374500E+04</pdfrwt>
<totfact> 0.10762904E+01</totfact>
</mgrwt>
</event>
