<event>
13    1  0.2492469E-008  0.5812005E+04  0.7818608E-02  0.7714158E-01
         -1   -1    0    0    0  501 -0.00000000000E+00  0.00000000000E+00  0.23518913920E+04  0.23518913920E+04  0.00000000000E+00 0.  1.
          1   -1    0    0  501    0  0.00000000000E+00 -0.00000000000E+00 -0.35906634060E+04  0.35906634060E+04  0.00000000000E+00 0. -1.
    9900016    2    1    2    0    0  0.77368115989E+03  0.19126430436E+04  0.28479296470E+03  0.27819012249E+04  0.18442021156E+04 0.  0.
        -24    2    3    3    0    0 -0.49591946659E+02 -0.33816456098E+03  0.16025917665E+03  0.38202161441E+03  0.58676048746E+02 0.  0.
    9900016    2    1    2    0    0 -0.77368115989E+03 -0.19126430436E+04 -0.15235649787E+04  0.31606535730E+04  0.18470773711E+04 0.  0.
         24    2    5    5    0    0 -0.10456705755E+04 -0.78286266524E+03 -0.96132475541E+03  0.16231552153E+04  0.64704424374E+02 0.  0.
        -15    1    3    3    0    0  0.82327310655E+03  0.22508076046E+04  0.12453378805E+03  0.23998796105E+04  0.00000000000E+00 0.  1.
        -15    1    6    6    0    0 -0.51089670168E+03 -0.38919192382E+03 -0.51225161775E+03  0.82151537615E+03  0.00000000000E+00 0.  1.
         15    1    4    4    0    0 -0.33868366998E+02 -0.30476709010E+03  0.15820925012E+03  0.34505102857E+03  0.00000000000E+00 0. -1.
         15    1    5    5    0    0  0.40991277654E+03 -0.27015677864E+03  0.11125971927E+02  0.49105697904E+03  0.00000000000E+00 0. -1.
        -16    1    4    4    0    0 -0.15723579661E+02 -0.33397470879E+02  0.20499265300E+01  0.36970585839E+02  0.00000000000E+00 0.  1.
         16    1    6    6    0    0 -0.53477387384E+03 -0.39367074141E+03 -0.44907313766E+03  0.80163983918E+03  0.00000000000E+00 0. -1.
    9900018    1    5    5    0    0 -0.13792336091E+03 -0.85962359970E+03 -0.57336619526E+03  0.10464413786E+04  0.91187600000E+02 0.  0.
<mgrwt>
<rscale>  0 0.58120049E+04</rscale>
<asrwt>0</asrwt>
<pdfrwt beam="1">  1        1 0.55240975E+00 0.58120049E+04</pdfrwt>
<pdfrwt beam="2">  1       -1 0.36182945E+00 0.58120049E+04</pdfrwt>
<totfact> 0.18564477E-03</totfact>
</mgrwt>
</event>
<event>
11    1  0.2492469E-008  0.4097137E+04  0.7818608E-02  0.7985233E-01
         -2   -1    0    0    0  501 -0.00000000000E+00  0.00000000000E+00  0.15865117685E+04  0.15865117685E+04  0.00000000000E+00 0.  1.
          2   -1    0    0  501    0  0.00000000000E+00 -0.00000000000E+00 -0.26451954845E+04  0.26451954845E+04  0.00000000000E+00 0. -1.
    9900016    2    1    2    0    0  0.26353521704E+03  0.76008493250E+03 -0.15403606060E+03  0.20198075770E+04  0.18462707344E+04 0.  0.
    9900016    2    1    2    0    0 -0.26353521704E+03 -0.76008493250E+03 -0.90464765543E+03  0.22118996761E+04  0.18511976883E+04 0.  0.
        -15    1    3    3    0    0  0.22972492720E+03  0.10605651669E+04  0.57577521811E+03  0.12284498839E+04  0.00000000000E+00 0.  1.
        -15    1    4    4    0    0 -0.11947390660E+03 -0.42157280212E+03  0.97546190655E+02  0.44890188366E+03  0.00000000000E+00 0.  1.
         15    1    4    4    0    0  0.10322829210E+03  0.41951500712E+02  0.25036254807E+03  0.27403907419E+03  0.00000000000E+00 0. -1.
         15    1    3    3    0    0 -0.69840418516E+01 -0.10754848641E+02 -0.41676742224E+02  0.43604981966E+02  0.00000000000E+00 0. -1.
        -16    1    3    3    0    0  0.40794331692E+02 -0.28972538577E+03 -0.68813453648E+03  0.74775271110E+03  0.00000000000E+00 0.  1.
         16    1    4    4    0    0  0.30357411693E+02 -0.18060163411E+03  0.43028089969E+01  0.18318579872E+03  0.00000000000E+00 0. -1.
    9900018    1    4    4    0    0 -0.27764701423E+03 -0.19986199698E+03 -0.12568592032E+04  0.13057729195E+04  0.91187600000E+02 0.  0.
<mgrwt>
<rscale>  0 0.40971374E+04</rscale>
<asrwt>0</asrwt>
<pdfrwt beam="1">  1        2 0.40695315E+00 0.40971374E+04</pdfrwt>
<pdfrwt beam="2">  1       -2 0.24407874E+00 0.40971374E+04</pdfrwt>
<totfact> 0.15657120E-01</totfact>
</mgrwt>
</event>
<event>
12    1  0.2492469E-008  0.5853892E+04  0.7818608E-02  0.7708786E-01
          1   -1    0    0  501    0  0.00000000000E+00  0.00000000000E+00  0.20017979765E+04  0.20017979765E+04  0.00000000000E+00 0. -1.
         -1   -1    0    0    0  501 -0.00000000000E+00 -0.00000000000E+00 -0.42796593807E+04  0.42796593807E+04  0.00000000000E+00 0.  1.
    9900016    2    1    2    0    0  0.50810679538E+03  0.10694227869E+04  0.94889083773E+03  0.23813886589E+04  0.18354237958E+04 0.  0.
         24    2    3    3    0    0  0.41816824989E+03 -0.28261139103E+03 -0.25061997363E+03  0.57171699070E+03  0.96519752983E+02 0.  0.
    9900016    2    1    2    0    0 -0.50810679538E+03 -0.10694227869E+04 -0.32267522420E+04  0.39000686983E+04  0.18430323403E+04 0.  0.
        -15    1    5    5    0    0  0.39388318882E+03 -0.44606568221E+03 -0.21424367022E+04  0.22235452732E+04  0.00000000000E+00 0.  1.
        -15    1    4    4    0    0  0.33256865373E+03 -0.17624188308E+03 -0.19898850010E+03  0.42574585608E+03  0.00000000000E+00 0.  1.
         15    1    5    5    0    0 -0.26244789279E+03 -0.55806828879E+02 -0.11882386943E+03  0.29344916174E+03  0.00000000000E+00 0. -1.
         15    1    3    3    0    0  0.89938545494E+02  0.13520341779E+04  0.11995108114E+04  0.18096716682E+04  0.00000000000E+00 0. -1.
        -16    1    5    5    0    0 -0.46234810095E+03 -0.27545173203E+03 -0.26833026358E+03  0.60136557391E+03  0.00000000000E+00 0.  1.
         16    1    4    4    0    0  0.85599596155E+02 -0.10636950794E+03 -0.51631473534E+02  0.14597113462E+03  0.00000000000E+00 0. -1.
    9900018    1    5    5    0    0 -0.17719399046E+03 -0.29209854377E+03 -0.69716140681E+03  0.78170868938E+03  0.91187600000E+02 0.  0.
<mgrwt>
<rscale>  0 0.58538922E+04</rscale>
<asrwt>0</asrwt>
<pdfrwt beam="1">  1        1 0.30796892E+00 0.58538922E+04</pdfrwt>
<pdfrwt beam="2">  1       -1 0.65840913E+00 0.58538922E+04</pdfrwt>
<totfact> 0.56246817E-04</totfact>
</mgrwt>
</event>
<event>
13    1  0.2492469E-008  0.4327073E+04  0.7818608E-02  0.7941631E-01
          1   -1    0    0  501    0  0.00000000000E+00  0.00000000000E+00  0.39272745435E+04  0.39272745435E+04  0.00000000000E+00 0. -1.
         -1   -1    0    0    0  501 -0.00000000000E+00 -0.00000000000E+00 -0.11918928936E+04  0.11918928936E+04  0.00000000000E+00 0.  1.
    9900016    2    1    2    0    0 -0.43844537256E+03  0.90163901009E+03  0.19880877180E+04  0.28897997285E+04  0.18420810100E+04 0.  0.
         24    2    3    3    0    0  0.71546971229E+03  0.42950250425E+03  0.66102530735E+03  0.10689407156E+04  0.96490860698E+02 0.  0.
    9900016    2    1    2    0    0  0.43844537256E+03 -0.90163901009E+03  0.74729393193E+03  0.22293677086E+04  0.18456556857E+04 0.  0.
        -24    2    5    5    0    0  0.32674828581E+03 -0.93751960160E+03  0.10161574719E+04  0.14236606225E+04  0.92336963661E+02 0.  0.
        -15    1    5    5    0    0 -0.46515493354E+02  0.37020182572E+03 -0.18130915973E+03  0.41483260997E+03  0.00000000000E+00 0.  1.
        -15    1    4    4    0    0  0.30124729458E+03  0.21830371990E+03  0.33938347982E+03  0.50357481370E+03  0.00000000000E+00 0.  1.
         15    1    3    3    0    0 -0.11539150848E+04  0.47213650584E+03  0.13270624106E+04  0.18208590129E+04  0.00000000000E+00 0. -1.
         15    1    6    6    0    0  0.19908209032E+03 -0.60901941496E+03  0.71494833733E+03  0.96004658822E+03  0.00000000000E+00 0. -1.
        -16    1    6    6    0    0  0.12766619549E+03 -0.32850018664E+03  0.30120913455E+03  0.46361403433E+03  0.00000000000E+00 0.  1.
         16    1    4    4    0    0  0.41422241771E+03  0.21119878435E+03  0.32164182753E+03  0.56536590193E+03  0.00000000000E+00 0. -1.
    9900018    1    5    5    0    0  0.15821258010E+03 -0.33432123421E+03 -0.87554380220E+02  0.39087447606E+03  0.91187600000E+02 0.  0.
<mgrwt>
<rscale>  0 0.43270732E+04</rscale>
<asrwt>0</asrwt>
<pdfrwt beam="1">  1        1 0.60419608E+00 0.43270732E+04</pdfrwt>
<pdfrwt beam="2">  1       -1 0.18336814E+00 0.43270732E+04</pdfrwt>
<totfact> 0.16608768E-02</totfact>
</mgrwt>
</event>
<event>
13    1  0.2492469E-008  0.4520373E+04  0.7818608E-02  0.7907080E-01
          1   -1    0    0  501    0  0.00000000000E+00  0.00000000000E+00  0.22704273397E+04  0.22704273397E+04  0.00000000000E+00 0. -1.
         -1   -1    0    0    0  501 -0.00000000000E+00 -0.00000000000E+00 -0.22499914201E+04  0.22499914201E+04  0.00000000000E+00 0.  1.
    9900016    2    1    2    0    0  0.75169794162E+03  0.15062298167E+03 -0.10617148174E+04  0.22389819046E+04  0.18160574158E+04 0.  0.
         24    2    3    3    0    0 -0.11010048667E+03  0.64646474230E+01 -0.13195406990E+04  0.13279647030E+04  0.10069104921E+03 0.  0.
    9900016    2    1    2    0    0 -0.75169794162E+03 -0.15062298167E+03  0.10821507370E+04  0.22814368552E+04  0.18563854203E+04 0.  0.
        -24    2    5    5    0    0 -0.41400729506E+03 -0.17150874544E+03  0.67776207490E+02  0.46347046533E+03  0.96922483499E+02 0.  0.
        -15    1    4    4    0    0 -0.28045265428E+02  0.42829208194E+02 -0.28697254715E+03  0.29150320891E+03  0.00000000000E+00 0.  1.
        -15    1    5    5    0    0 -0.83410270047E+03  0.34871907217E+03  0.55485871667E+03  0.10607546850E+04  0.00000000000E+00 0.  1.
         15    1    6    6    0    0 -0.40526158040E+03 -0.15379889632E+03  0.79219202928E+02  0.44064354207E+03  0.00000000000E+00 0. -1.
         15    1    3    3    0    0  0.86179842829E+03  0.14415833425E+03  0.25782588159E+03  0.91101720156E+03  0.00000000000E+00 0. -1.
        -16    1    6    6    0    0 -0.87457146600E+01 -0.17709849127E+02 -0.11442995438E+02  0.22826923262E+02  0.00000000000E+00 0.  1.
         16    1    4    4    0    0 -0.82055221238E+02 -0.36364560771E+02 -0.10325681518E+04  0.10364614941E+04  0.00000000000E+00 0. -1.
    9900018    1    5    5    0    0  0.49641205391E+03 -0.32783330840E+03  0.45951581283E+03  0.75721170487E+03  0.91187600000E+02 0.  0.
<mgrwt>
<rscale>  0 0.45203726E+04</rscale>
<asrwt>0</asrwt>
<pdfrwt beam="1">  1        1 0.34929652E+00 0.45203726E+04</pdfrwt>
<pdfrwt beam="2">  1       -1 0.34615252E+00 0.45203726E+04</pdfrwt>
<totfact> 0.24103008E-02</totfact>
</mgrwt>
</event>
<event>
13    1  0.2492469E-008  0.5585899E+04  0.7818608E-02  0.7743979E-01
         -2   -1    0    0    0  501 -0.00000000000E+00  0.00000000000E+00  0.27780311874E+04  0.27780311874E+04  0.00000000000E+00 0. -1.
          2   -1    0    0  501    0  0.00000000000E+00 -0.00000000000E+00 -0.28079478151E+04  0.28079478151E+04  0.00000000000E+00 0.  1.
    9900016    2    1    2    0    0  0.37652727547E+03 -0.20613444900E+04  0.14437661691E+03  0.27934206615E+04  0.18415864054E+04 0.  0.
        -24    2    3    3    0    0  0.32788334040E+03  0.28722878121E+03  0.18287274667E+02  0.44096212516E+03  0.64072722304E+02 0.  0.
    9900016    2    1    2    0    0 -0.37652727547E+03  0.20613444900E+04 -0.17429324452E+03  0.27925583410E+04  0.18376860605E+04 0.  0.
         24    2    5    5    0    0 -0.91444640468E+02  0.62900550466E+03 -0.74577889410E+03  0.98216548451E+03  0.66729550544E+02 0.  0.
        -15    1    3    3    0    0  0.48643935069E+02 -0.23485732713E+04  0.12608934225E+03  0.23524585363E+04  0.00000000000E+00 0.  1.
        -15    1    6    6    0    0 -0.12070038545E+02  0.27323559449E+03 -0.34828106435E+03  0.44283526928E+03  0.00000000000E+00 0.  1.
         15    1    4    4    0    0  0.25502239459E+03  0.23308359046E+03  0.39493036710E+02  0.34774140080E+03  0.00000000000E+00 0. -1.
         15    1    5    5    0    0  0.17194419026E+02  0.50561422631E+03  0.65520245205E+03  0.82778719914E+03  0.00000000000E+00 0. -1.
        -16    1    4    4    0    0  0.72860945810E+02  0.54145190752E+02 -0.21205762043E+02  0.93220724357E+02  0.00000000000E+00 0.  1.
         16    1    6    6    0    0 -0.79374601923E+02  0.35576991016E+03 -0.39749782974E+03  0.53933021523E+03  0.00000000000E+00 0. -1.
    9900018    1    5    5    0    0 -0.30227705403E+03  0.92672475908E+03 -0.83716802472E+02  0.98260565736E+03  0.91187600000E+02 0.  0.
<mgrwt>
<rscale>  0 0.55858989E+04</rscale>
<asrwt>0</asrwt>
<pdfrwt beam="1">  1        2 0.43199197E+00 0.55858989E+04</pdfrwt>
<pdfrwt beam="2">  1       -2 0.42738941E+00 0.55858989E+04</pdfrwt>
<totfact> 0.78057658E-03</totfact>
</mgrwt>
</event>
<event>
11    1  0.2492469E-008  0.5267759E+04  0.7818608E-02  0.7788480E-01
          2   -1    0    0  501    0  0.00000000000E+00  0.00000000000E+00  0.35120958298E+04  0.35120958298E+04  0.00000000000E+00 0. -1.
         -2   -1    0    0    0  501 -0.00000000000E+00 -0.00000000000E+00 -0.19752656350E+04  0.19752656350E+04  0.00000000000E+00 0.  1.
    9900016    2    1    2    0    0 -0.35083864803E+03  0.45756034562E+03  0.26339560038E+04  0.32649343422E+04  0.18410928283E+04 0.  0.
    9900016    2    1    2    0    0  0.35083864803E+03 -0.45756034562E+03 -0.10971258090E+04  0.22224271226E+04  0.18447352243E+04 0.  0.
        -15    1    3    3    0    0  0.23726713511E+03 -0.46932214048E+01 -0.10849893278E+03  0.26094010452E+03  0.00000000000E+00 0.  1.
        -15    1    4    4    0    0 -0.33604476007E+03  0.28389046165E+03 -0.10400790279E+04  0.11292848442E+04  0.00000000000E+00 0.  1.
         15    1    4    4    0    0  0.34168229118E+03 -0.38796336104E+03 -0.38450829964E+02  0.51840218358E+03  0.00000000000E+00 0. -1.
         15    1    3    3    0    0 -0.63313078034E+03  0.40951157753E+03  0.28086631440E+04  0.29081167400E+04  0.00000000000E+00 0. -1.
        -16    1    4    4    0    0  0.11017382682E+03 -0.26423516100E+03  0.66860759346E+02  0.29398784595E+03  0.00000000000E+00 0.  1.
         16    1    3    3    0    0  0.45024997195E+02  0.52741989495E+02 -0.66208207430E+02  0.95877497670E+02  0.00000000000E+00 0. -1.
    9900018    1    4    4    0    0  0.23502729011E+03 -0.89252285233E+02 -0.85456710438E+02  0.28075224891E+03  0.91187600000E+02 0.  0.
<mgrwt>
<rscale>  0 0.52677594E+04</rscale>
<asrwt>0</asrwt>
<pdfrwt beam="1">  1        2 0.54032243E+00 0.52677594E+04</pdfrwt>
<pdfrwt beam="2">  1       -2 0.30388702E+00 0.52677594E+04</pdfrwt>
<totfact> 0.17061166E-02</totfact>
</mgrwt>
</event>
<event>
12    1  0.2492469E-008  0.4249996E+04  0.7818608E-02  0.7955930E-01
          1   -1    0    0  501    0  0.00000000000E+00  0.00000000000E+00  0.25650627289E+04  0.25650627289E+04  0.00000000000E+00 0. -1.
         -1   -1    0    0    0  501 -0.00000000000E+00 -0.00000000000E+00 -0.17604309782E+04  0.17604309782E+04  0.00000000000E+00 0.  1.
    9900016    2    1    2    0    0  0.61140794138E+03 -0.16993831115E+03 -0.46354488390E+03  0.20019467104E+04  0.18412544831E+04 0.  0.
    9900016    2    1    2    0    0 -0.61140794138E+03  0.16993831115E+03  0.12681766346E+04  0.23235469967E+04  0.18406248854E+04 0.  0.
         24    2    4    4    0    0  0.92651805331E+02 -0.25083635562E+03 -0.34385320083E+03  0.44581841816E+03  0.94951587256E+02 0.  0.
        -15    1    5    5    0    0  0.80771371296E+02 -0.11583244078E+03 -0.12602172446E+03  0.18926870791E+03  0.00000000000E+00 0.  1.
        -15    1    3    3    0    0  0.78275819136E+03 -0.56416772225E+03  0.38598578843E+03  0.10392211670E+04  0.00000000000E+00 0.  1.
         15    1    3    3    0    0 -0.92291339479E+02  0.17772163399E+03 -0.24935850617E+03  0.31981609580E+03  0.00000000000E+00 0. -1.
         15    1    4    4    0    0 -0.51135824264E+03  0.54695926000E+02  0.10916015791E+04  0.12066784593E+04  0.00000000000E+00 0. -1.
        -16    1    3    3    0    0 -0.79058910506E+02  0.21650777712E+03 -0.60017216616E+03  0.64290944768E+03  0.00000000000E+00 0.  1.
         16    1    5    5    0    0  0.11880434035E+02 -0.13500391484E+03 -0.21783147636E+03  0.25654971025E+03  0.00000000000E+00 0. -1.
    9900018    1    4    4    0    0 -0.19270150407E+03  0.36607874077E+03  0.52042825638E+03  0.67105011925E+03  0.91187600000E+02 0.  0.
<mgrwt>
<rscale>  0 0.42499957E+04</rscale>
<asrwt>0</asrwt>
<pdfrwt beam="1">  1        1 0.39462503E+00 0.42499957E+04</pdfrwt>
<pdfrwt beam="2">  1       -1 0.27083554E+00 0.42499957E+04</pdfrwt>
<totfact> 0.47764297E-02</totfact>
</mgrwt>
</event>
<event>
12    1  0.2492469E-008  0.5123593E+04  0.7818608E-02  0.7809720E-01
         -2   -1    0    0    0  501 -0.00000000000E+00  0.00000000000E+00  0.42560734284E+04  0.42560734284E+04  0.00000000000E+00 0.  1.
          2   -1    0    0  501    0  0.00000000000E+00 -0.00000000000E+00 -0.15419847596E+04  0.15419847596E+04  0.00000000000E+00 0. -1.
    9900016    2    1    2    0    0 -0.10187532736E+04 -0.24654816394E+03 -0.26486635838E+03  0.21406504516E+04  0.18475892234E+04 0.  0.
         24    2    3    3    0    0  0.46105673914E+03 -0.37286338587E+03  0.10655342894E+03  0.60972071203E+03  0.93836518651E+02 0.  0.
    9900016    2    1    2    0    0  0.10187532736E+04  0.24654816394E+03  0.29789550272E+04  0.36574077363E+04  0.18449428354E+04 0.  0.
        -15    1    4    4    0    0  0.21360034221E+03 -0.11510145266E+03  0.53777627392E+02  0.24852662595E+03  0.00000000000E+00 0.  1.
        -15    1    5    5    0    0  0.51761735324E+03 -0.21249117667E+03  0.25584959193E+04  0.26189657488E+04  0.00000000000E+00 0.  1.
         15    1    3    3    0    0 -0.14798100128E+04  0.12631522192E+03 -0.37141978732E+03  0.15309297396E+04  0.00000000000E+00 0. -1.
         15    1    5    5    0    0  0.99822653940E+01 -0.65085733032E+01 -0.71616526425E+01  0.13903108192E+02  0.00000000000E+00 0. -1.
        -16    1    5    5    0    0 -0.87342009288E+02  0.29609290919E+03  0.65953300723E+02  0.31567305133E+03  0.00000000000E+00 0.  1.
         16    1    4    4    0    0  0.24745639693E+03 -0.25776193320E+03  0.52775801550E+02  0.36119408608E+03  0.00000000000E+00 0. -1.
    9900018    1    5    5    0    0  0.57849566427E+03  0.16945500472E+03  0.36166745987E+03  0.70886582801E+03  0.91187600000E+02 0.  0.
<mgrwt>
<rscale>  0 0.51235926E+04</rscale>
<asrwt>0</asrwt>
<pdfrwt beam="1">  1        2 0.23722843E+00 0.51235926E+04</pdfrwt>
<pdfrwt beam="2">  1       -2 0.65478053E+00 0.51235926E+04</pdfrwt>
<totfact> 0.28390283E-03</totfact>
</mgrwt>
</event>
<event>
13    1  0.2492469E-008  0.4850072E+04  0.7818608E-02  0.7852061E-01
          1   -1    0    0  501    0  0.00000000000E+00  0.00000000000E+00  0.38561914030E+04  0.38561914030E+04  0.00000000000E+00 0. -1.
         -1   -1    0    0    0  501 -0.00000000000E+00 -0.00000000000E+00 -0.15250278347E+04  0.15250278347E+04  0.00000000000E+00 0.  1.
    9900016    2    1    2    0    0  0.51802108661E+03  0.13787638993E+04  0.56516809831E+03  0.24294837755E+04  0.18476040431E+04 0.  0.
        -24    2    3    3    0    0  0.20153849062E+03  0.39875322156E+03  0.11567759112E+04  0.12418045401E+04  0.65773186808E+02 0.  0.
    9900016    2    1    2    0    0 -0.51802108661E+03 -0.13787638993E+04  0.17659954700E+04  0.29517354623E+04  0.18505854487E+04 0.  0.
         24    2    5    5    0    0 -0.48439087662E+03  0.28685613689E+03  0.10796287352E+03  0.58180643803E+03  0.99608155540E+02 0.  0.
        -15    1    6    6    0    0 -0.15548552772E+03  0.14656784384E+03  0.29235932253E+02  0.21566785090E+03  0.00000000000E+00 0.  1.
        -15    1    3    3    0    0  0.31648259600E+03  0.98001067777E+03 -0.59160781287E+03  0.11876792355E+04  0.00000000000E+00 0.  1.
         15    1    5    5    0    0 -0.20512579084E+02 -0.19245850178E+03  0.33918582423E+03  0.39052280877E+03  0.00000000000E+00 0. -1.
         15    1    4    4    0    0  0.15514617532E+03  0.31638721170E+03  0.83188339943E+03  0.90343853896E+03  0.00000000000E+00 0. -1.
        -16    1    4    4    0    0  0.46392315295E+02  0.82366009862E+02  0.32489251176E+03  0.33836600109E+03  0.00000000000E+00 0.  1.
         16    1    6    6    0    0 -0.32890534890E+03  0.14028829305E+03  0.78726941268E+02  0.36613858713E+03  0.00000000000E+00 0. -1.
    9900018    1    5    5    0    0 -0.13117630911E+02 -0.14731615344E+04  0.13188467722E+04  0.19794062155E+04  0.91187600000E+02 0.  0.
<mgrwt>
<rscale>  0 0.48500718E+04</rscale>
<asrwt>0</asrwt>
<pdfrwt beam="1">  1        1 0.59326021E+00 0.48500718E+04</pdfrwt>
<pdfrwt beam="2">  1       -1 0.23461967E+00 0.48500718E+04</pdfrwt>
<totfact> 0.81901394E-03</totfact>
</mgrwt>
</event>
<event>
11    1  0.2492469E-008  0.4310170E+04  0.7818608E-02  0.7944740E-01
          2   -1    0    0  501    0  0.00000000000E+00  0.00000000000E+00  0.24868273049E+04  0.24868273049E+04  0.00000000000E+00 0. -1.
         -2   -1    0    0    0  501 -0.00000000000E+00 -0.00000000000E+00 -0.18675967181E+04  0.18675967181E+04  0.00000000000E+00 0.  1.
    9900016    2    1    2    0    0  0.48659239627E+03 -0.48710212795E+03 -0.57506684631E+03  0.20496314339E+04  0.18428907981E+04 0.  0.
    9900016    2    1    2    0    0 -0.48659239627E+03  0.48710212795E+03  0.11942974330E+04  0.23047925891E+04  0.18470738689E+04 0.  0.
        -15    1    3    3    0    0  0.55304275822E+03 -0.12173979135E+03 -0.88054084185E+03  0.10469140573E+04  0.00000000000E+00 0.  1.
        -15    1    4    4    0    0  0.31277942974E+03 -0.16598339791E+03 -0.98712963206E+02  0.36759449010E+03  0.00000000000E+00 0.  1.
         15    1    4    4    0    0 -0.48065302868E+03  0.26802732142E+03  0.53594947099E+03  0.76818475282E+03  0.00000000000E+00 0. -1.
         15    1    3    3    0    0 -0.17701941684E+03 -0.37246237782E+03  0.57713557252E+03  0.70933036443E+03  0.00000000000E+00 0. -1.
        -16    1    4    4    0    0 -0.53280371252E+03  0.35127082100E+03  0.64910331205E+03  0.91027803196E+03  0.00000000000E+00 0.  1.
         16    1    3    3    0    0  0.11056905489E+03  0.71000412294E+01 -0.27166157698E+03  0.29338701214E+03  0.00000000000E+00 0. -1.
    9900018    1    4    4    0    0  0.21408491519E+03  0.33787383437E+02  0.10795761320E+03  0.25873531424E+03  0.91187600000E+02 0.  0.
<mgrwt>
<rscale>  0 0.43101696E+04</rscale>
<asrwt>0</asrwt>
<pdfrwt beam="1">  1        2 0.38258882E+00 0.43101696E+04</pdfrwt>
<pdfrwt beam="2">  1       -2 0.28732257E+00 0.43101696E+04</pdfrwt>
<totfact> 0.10356916E-01</totfact>
</mgrwt>
</event>
<event>
12    1  0.2492469E-008  0.4266171E+04  0.7818608E-02  0.7952903E-01
         -2   -1    0    0    0  501 -0.00000000000E+00  0.00000000000E+00  0.15495812921E+04  0.15495812921E+04  0.00000000000E+00 0.  1.
          2   -1    0    0  501    0  0.00000000000E+00 -0.00000000000E+00 -0.29363122231E+04  0.29363122231E+04  0.00000000000E+00 0. -1.
    9900016    2    1    2    0    0 -0.92702096043E+03 -0.69567033415E+02 -0.13900677426E+03  0.20706155910E+04  0.18449711675E+04 0.  0.
    9900016    2    1    2    0    0  0.92702096043E+03  0.69567033415E+02 -0.12477241567E+04  0.24152779242E+04  0.18473073503E+04 0.  0.
         24    2    4    4    0    0 -0.18900658713E+03  0.17937276399E+03 -0.50688299638E+03  0.57331128343E+03  0.62107787399E+02 0.  0.
        -15    1    5    5    0    0 -0.10546270840E+03  0.65701912973E+02 -0.27705050967E+03  0.30363812202E+03  0.00000000000E+00 0.  1.
        -15    1    3    3    0    0 -0.78244736498E+03  0.35950395748E+02 -0.94628522369E+03  0.12284022283E+04  0.00000000000E+00 0.  1.
         15    1    4    4    0    0  0.64680594882E+03  0.52171853197E+03 -0.12857825260E+03  0.84088080551E+03  0.00000000000E+00 0. -1.
         15    1    3    3    0    0 -0.26930436365E+01  0.37925497169E+02  0.14333395043E+03  0.14829098815E+03  0.00000000000E+00 0. -1.
        -16    1    3    3    0    0 -0.14188055181E+03 -0.14344292633E+03  0.66394449900E+03  0.69392237452E+03  0.00000000000E+00 0.  1.
         16    1    5    5    0    0 -0.83543878727E+02  0.11367085101E+03 -0.22983248671E+03  0.26967316142E+03  0.00000000000E+00 0. -1.
    9900018    1    4    4    0    0  0.46922159874E+03 -0.63152426255E+03 -0.61226290776E+03  0.10010858352E+04  0.91187600000E+02 0.  0.
<mgrwt>
<rscale>  0 0.42661713E+04</rscale>
<asrwt>0</asrwt>
<pdfrwt beam="1">  1        2 0.45174033E+00 0.42661713E+04</pdfrwt>
<pdfrwt beam="2">  1       -2 0.23839713E+00 0.42661713E+04</pdfrwt>
<totfact> 0.11160060E-01</totfact>
</mgrwt>
</event>
<event>
13    1  0.2492469E-008  0.4406389E+04  0.7818608E-02  0.7927233E-01
          2   -1    0    0  501    0  0.00000000000E+00  0.00000000000E+00  0.36946061803E+04  0.36946061803E+04  0.00000000000E+00 0. -1.
         -2   -1    0    0    0  501 -0.00000000000E+00 -0.00000000000E+00 -0.13138250014E+04  0.13138250014E+04  0.00000000000E+00 0.  1.
    9900016    2    1    2    0    0  0.26232780865E+03  0.97871297809E+03  0.19653202664E+04  0.28794936327E+04  0.18445337780E+04 0.  0.
         24    2    3    3    0    0 -0.60642158638E+03 -0.13512806668E+03  0.30058044105E+03  0.69621030918E+03  0.91397255031E+02 0.  0.
    9900016    2    1    2    0    0 -0.26232780865E+03 -0.97871297809E+03  0.41546091247E+03  0.21289375491E+04  0.18256703824E+04 0.  0.
        -24    2    5    5    0    0 -0.26740500686E+03  0.32605770629E+03  0.57288581852E+03  0.71760965218E+03  0.94585338793E+02 0.  0.
        -15    1    4    4    0    0 -0.32651573701E+03 -0.31892568319E+02  0.13277977441E+03  0.35392108007E+03  0.00000000000E+00 0.  1.
        -15    1    5    5    0    0 -0.26286543893E+02 -0.90728209628E+03  0.12221500706E+03  0.91585385983E+03  0.00000000000E+00 0.  1.
         15    1    3    3    0    0  0.86874939504E+03  0.11138410448E+04  0.16647398254E+04  0.21832833235E+04  0.00000000000E+00 0. -1.
         15    1    6    6    0    0 -0.65162892106E+02  0.13882708613E+03  0.24782695968E+03  0.29144015559E+03  0.00000000000E+00 0. -1.
        -16    1    6    6    0    0 -0.20224211476E+03  0.18723062016E+03  0.32505885885E+03  0.42616949659E+03  0.00000000000E+00 0.  1.
         16    1    4    4    0    0 -0.27990584938E+03 -0.10323549836E+03  0.16780066664E+03  0.34228922911E+03  0.00000000000E+00 0. -1.
    9900018    1    5    5    0    0  0.31363742105E+02 -0.39748858811E+03 -0.27963991311E+03  0.49547403705E+03  0.91187600000E+02 0.  0.
<mgrwt>
<rscale>  0 0.44063890E+04</rscale>
<asrwt>0</asrwt>
<pdfrwt beam="1">  1        2 0.56840094E+00 0.44063890E+04</pdfrwt>
<pdfrwt beam="2">  1       -2 0.20212693E+00 0.44063890E+04</pdfrwt>
<totfact> 0.57771893E-02</totfact>
</mgrwt>
</event>
