<event>
10    1  0.2690354E-015  0.2070449E+04  0.7818608E-02  0.8574374E-01
         -1   -1    0    0    0  501 -0.00000000000E+00  0.00000000000E+00  0.82943295478E+03  0.82943295478E+03  0.00000000000E+00 0.  1.
          1   -1    0    0  501    0  0.00000000000E+00 -0.00000000000E+00 -0.12920754239E+04  0.12920754239E+04  0.00000000000E+00 0. -1.
    9900016    2    1    2    0    0 -0.57791700019E+03  0.31168656119E+03 -0.47505102730E+03  0.10444091967E+04  0.65877197881E+03 0.  0.
        -15    1    3    3    0    0 -0.13760144185E+03 -0.76410840093E+02 -0.19009440774E+03  0.24679679321E+03  0.00000000000E+00 0.  1.
        -15    1    3    3    0    0 -0.46523059399E+01 -0.18976056988E+02  0.19073669110E+02  0.27304569997E+02  0.00000000000E+00 0.  1.
         15    1    3    3    0    0 -0.65357682009E+01 -0.12754261888E+02 -0.16201925723E+01  0.14422637978E+02  0.00000000000E+00 0. -1.
         15    1    3    3    0    0 -0.43663113792E+02 -0.18719461352E+02  0.53925280149E+02  0.71866693110E+02  0.00000000000E+00 0. -1.
        -16    1    3    3    0    0 -0.38546437040E+03  0.43854718151E+03 -0.35633537625E+03  0.68401850241E+03  0.00000000000E+00 0.  1.
         16    1    1    2    0    0  0.71239693819E+03 -0.43083632728E+03  0.13177640304E+03  0.84290827428E+03  0.00000000000E+00 0. -1.
    9900018    1    1    2    0    0 -0.13447993801E+03  0.11914976609E+03 -0.11936784489E+03  0.23419090775E+03  0.91187600000E+02 0.  0.
<mgrwt>
<rscale>  0 0.20704492E+04</rscale>
<asrwt>0</asrwt>
<pdfrwt beam="1">  1        1 0.19878083E+00 0.20704492E+04</pdfrwt>
<pdfrwt beam="2">  1       -1 0.12760507E+00 0.20704492E+04</pdfrwt>
<totfact> 0.44913623E+00</totfact>
</mgrwt>
</event>
<event>
10    1  0.2690354E-015  0.8573914E+03  0.7818608E-02  0.9480470E-01
         -3   -1    0    0    0  501 -0.00000000000E+00  0.00000000000E+00  0.24994978923E+04  0.24994978923E+04  0.00000000000E+00 0.  1.
          3   -1    0    0  501    0  0.00000000000E+00 -0.00000000000E+00 -0.73526769271E+02  0.73526769271E+02  0.00000000000E+00 0. -1.
    9900016    2    1    2    0    0  0.79014162033E+02  0.34323813425E+02  0.18211533300E+04  0.19393328433E+04  0.66105299613E+03 0.  0.
        -15    1    3    3    0    0  0.15767686477E+03 -0.17255552004E+02  0.80527365213E+03  0.82074685657E+03  0.00000000000E+00 0.  1.
        -15    1    3    3    0    0 -0.13925899480E+03  0.50163397421E+02  0.36608148353E+03  0.39487350716E+03  0.00000000000E+00 0. -1.
         15    1    3    3    0    0  0.55660794671E+02 -0.15362211402E+01  0.54598113776E+02  0.77983575622E+02  0.00000000000E+00 0. -1.
         15    1    3    3    0    0 -0.11284952848E+03  0.13134858903E+02  0.17053159174E+03  0.20491111335E+03  0.00000000000E+00 0.  1.
        -16    1    1    2    0    0 -0.62809355415E+02  0.16607362761E+01  0.41215146991E+03  0.41691318919E+03  0.00000000000E+00 0.  1.
         16    1    3    3    0    0  0.11778502587E+03 -0.10182669755E+02  0.42466848885E+03  0.44081779059E+03  0.00000000000E+00 0. -1.
    9900018    1    1    2    0    0 -0.16204806619E+02 -0.35984549701E+02  0.19266632311E+03  0.21677862908E+03  0.91187600000E+02 0.  0.
<mgrwt>
<rscale>  0 0.85739140E+03</rscale>
<asrwt>0</asrwt>
<pdfrwt beam="1">  1        3 0.11311813E-01 0.85739140E+03</pdfrwt>
<pdfrwt beam="2">  1       -3 0.38453807E+00 0.85739140E+03</pdfrwt>
<totfact> 0.21933762E+00</totfact>
</mgrwt>
</event>
<event>
10    1  0.2690354E-015  0.8881535E+03  0.7818608E-02  0.9440512E-01
         -1   -1    0    0    0  501 -0.00000000000E+00  0.00000000000E+00  0.23008348585E+03  0.23008348585E+03  0.00000000000E+00 0.  1.
          1   -1    0    0  501    0  0.00000000000E+00 -0.00000000000E+00 -0.85709829620E+03  0.85709829620E+03  0.00000000000E+00 0. -1.
    9900016    2    1    2    0    0 -0.31266330351E+02 -0.29962266730E+02 -0.68584102975E+03  0.10141349140E+04  0.74579915855E+03 0.  0.
        -15    1    3    3    0    0 -0.46480492994E+02  0.48484601633E+02 -0.60731789227E+02  0.90551328246E+02  0.00000000000E+00 0. -1.
        -15    1    3    3    0    0  0.95679457969E+02 -0.14830573421E+02  0.27733046713E+02  0.10071557211E+03  0.00000000000E+00 0.  1.
         15    1    3    3    0    0 -0.50305540649E+02 -0.45621818061E+02 -0.22584123026E+03  0.23583099667E+03  0.00000000000E+00 0.  1.
         15    1    3    3    0    0 -0.14453113294E+01 -0.88359746790E+02  0.21281445856E+02  0.90897930203E+02  0.00000000000E+00 0. -1.
        -16    1    1    2    0    0  0.31266330351E+02  0.29962266730E+02  0.58826219399E+02  0.73046868037E+02  0.00000000000E+00 0.  1.
         16    1    3    3    0    0 -0.36612501614E+02  0.78818727591E+02 -0.35381408651E+03  0.36433127083E+03  0.00000000000E+00 0. -1.
    9900018    1    3    3    0    0  0.78980582669E+01 -0.84534576824E+01 -0.94468416321E+02  0.13180781596E+03  0.91187600000E+02 0.  0.
<mgrwt>
<rscale>  0 0.88815351E+03</rscale>
<asrwt>0</asrwt>
<pdfrwt beam="1">  1        1 0.13186128E+00 0.88815351E+03</pdfrwt>
<pdfrwt beam="2">  1       -1 0.35397459E-01 0.88815351E+03</pdfrwt>
<totfact> 0.15124406E+02</totfact>
</mgrwt>
</event>
<event>
10    1  0.2690354E-015  0.1290091E+04  0.7818608E-02  0.9037460E-01
          2   -1    0    0  501    0  0.00000000000E+00  0.00000000000E+00  0.15657952293E+04  0.15657952293E+04  0.00000000000E+00 0.  1.
         -2   -1    0    0    0  501 -0.00000000000E+00 -0.00000000000E+00 -0.26573301193E+03  0.26573301193E+03  0.00000000000E+00 0. -1.
    9900016    2    1    2    0    0  0.11876285449E+03  0.47791979655E+02  0.33456091271E+03  0.75733451433E+03  0.66725997435E+03 0.  0.
        -15    1    3    3    0    0 -0.56300948671E+02 -0.51297387411E+02  0.96847432083E+02  0.12320975561E+03  0.00000000000E+00 0.  1.
        -15    1    3    3    0    0 -0.18913444710E+02  0.22486247299E+00 -0.24774644183E+02  0.31169728076E+02  0.00000000000E+00 0. -1.
         15    1    3    3    0    0 -0.81758310288E+02 -0.53187311945E+02 -0.70844777255E+02  0.12054996440E+03  0.00000000000E+00 0.  1.
         15    1    3    3    0    0  0.84006814344E+02 -0.25048910647E+02  0.87328151740E+02  0.12373681290E+03  0.00000000000E+00 0. -1.
        -16    1    1    2    0    0 -0.15169024405E+03 -0.89179879177E+02  0.95175678504E+03  0.96788633571E+03  0.00000000000E+00 0.  1.
         16    1    3    3    0    0  0.19172874381E+03  0.17710072718E+03  0.24600475033E+03  0.35866825334E+03  0.00000000000E+00 0. -1.
    9900018    1    1    2    0    0  0.32927389560E+02  0.41387899522E+02  0.13744519638E+02  0.10630739120E+03  0.91187600000E+02 0.  0.
<mgrwt>
<rscale>  0 0.12900907E+04</rscale>
<asrwt>0</asrwt>
<pdfrwt beam="1">  1        2 0.24089157E+00 0.12900907E+04</pdfrwt>
<pdfrwt beam="2">  1       -2 0.40882003E-01 0.12900907E+04</pdfrwt>
<totfact> 0.64753823E+01</totfact>
</mgrwt>
</event>
<event>
10    1  0.2690354E-015  0.1075259E+04  0.7818608E-02  0.9229647E-01
          2   -1    0    0  501    0  0.00000000000E+00  0.00000000000E+00  0.57759949577E+03  0.57759949577E+03  0.00000000000E+00 0. -1.
         -2   -1    0    0    0  501 -0.00000000000E+00 -0.00000000000E+00 -0.50042543432E+03  0.50042543432E+03  0.00000000000E+00 0.  1.
    9900016    2    1    2    0    0 -0.27217689679E+03  0.59613199606E+02  0.98167454772E+02  0.79860639227E+03  0.74195776422E+03 0.  0.
        -15    1    3    3    0    0  0.21507231745E+02 -0.38287224439E+01 -0.42368512444E+02  0.47668763143E+02  0.00000000000E+00 0.  1.
        -15    1    3    3    0    0  0.71183947077E+02 -0.73998920727E+02 -0.32141659087E+02  0.10759219692E+03  0.00000000000E+00 0.  1.
         15    1    3    3    0    0 -0.52126475399E+01  0.42312005289E+02  0.36790990138E+02  0.56312116291E+02  0.00000000000E+00 0. -1.
         15    1    3    3    0    0  0.21400200191E+02  0.24683245561E+01 -0.72587579292E+02  0.75716694737E+02  0.00000000000E+00 0. -1.
        -16    1    1    2    0    0  0.27217689679E+03 -0.59613199606E+02 -0.20993393326E+02  0.27941853782E+03  0.00000000000E+00 0.  1.
         16    1    3    3    0    0 -0.35362693313E+03  0.85837031968E+02  0.20060146420E+03  0.41552491060E+03  0.00000000000E+00 0. -1.
    9900018    1    3    3    0    0 -0.27428695135E+02  0.68234809641E+01  0.78727512573E+01  0.95791710578E+02  0.91187600000E+02 0.  0.
<mgrwt>
<rscale>  0 0.10752590E+04</rscale>
<asrwt>0</asrwt>
<pdfrwt beam="1">  1        2 0.88861461E-01 0.10752590E+04</pdfrwt>
<pdfrwt beam="2">  1       -2 0.76988528E-01 0.10752590E+04</pdfrwt>
<totfact> 0.77830429E+01</totfact>
</mgrwt>
</event>
<event>
10    1  0.2690354E-015  0.9047174E+03  0.7818608E-02  0.9419704E-01
          2   -1    0    0  501    0  0.00000000000E+00  0.00000000000E+00  0.30651253165E+03  0.30651253165E+03  0.00000000000E+00 0. -1.
         -2   -1    0    0    0  501 -0.00000000000E+00 -0.00000000000E+00 -0.66760208706E+03  0.66760208706E+03  0.00000000000E+00 0.  1.
    9900016    2    1    2    0    0  0.60895644260E+02 -0.47731275400E+02 -0.18865530967E+03  0.69294916945E+03  0.66226971200E+03 0.  0.
        -15    1    3    3    0    0  0.87652682058E+02  0.42589476391E+02  0.18011014401E+02  0.99102234137E+02  0.00000000000E+00 0. -1.
        -15    1    3    3    0    0 -0.16674064976E+03  0.45950410826E+02 -0.21335321266E+03  0.27465155723E+03  0.00000000000E+00 0.  1.
         15    1    3    3    0    0 -0.36858932737E+02 -0.54452872972E+02 -0.29887022582E+02  0.72228321427E+02  0.00000000000E+00 0. -1.
         15    1    3    3    0    0  0.11505085527E+03  0.16493485500E+02 -0.19777381608E+02  0.11789774886E+03  0.00000000000E+00 0.  1.
        -16    1    1    2    0    0 -0.84460561142E+02  0.13785656545E+02 -0.15844487382E+03  0.18007889592E+03  0.00000000000E+00 0.  1.
         16    1    3    3    0    0  0.61791689427E+02 -0.98311775145E+02  0.56351292787E+02  0.12906930779E+03  0.00000000000E+00 0. -1.
    9900018    1    1    2    0    0  0.23564916882E+02  0.33945618855E+02 -0.13989371929E+02  0.10108655335E+03  0.91187600000E+02 0.  0.
<mgrwt>
<rscale>  0 0.90471743E+03</rscale>
<asrwt>0</asrwt>
<pdfrwt beam="1">  1        2 0.47155774E-01 0.90471743E+03</pdfrwt>
<pdfrwt beam="2">  1       -2 0.10270801E+00 0.90471743E+03</pdfrwt>
<totfact> 0.83332287E+01</totfact>
</mgrwt>
</event>
<event>
10    1  0.2690354E-015  0.1275119E+04  0.7818608E-02  0.9049532E-01
         -1   -1    0    0    0  501 -0.00000000000E+00  0.00000000000E+00  0.17290216996E+03  0.17290216996E+03  0.00000000000E+00 0.  1.
          1   -1    0    0  501    0  0.00000000000E+00 -0.00000000000E+00 -0.23509378884E+04  0.23509378884E+04  0.00000000000E+00 0. -1.
    9900016    2    1    2    0    0  0.40070690866E+03  0.14854635921E+02 -0.12565731275E+04  0.15189122036E+04  0.75321415980E+03 0.  0.
        -15    1    3    3    0    0 -0.26400435150E+02  0.70265641280E+02 -0.50063108942E+02  0.90225041965E+02  0.00000000000E+00 0.  1.
        -15    1    3    3    0    0  0.22243625454E+02 -0.60716287786E+01 -0.46183521129E+02  0.51619387571E+02  0.00000000000E+00 0.  1.
         15    1    3    3    0    0 -0.49426452024E+02  0.30692815201E+02 -0.20115064760E+03  0.20939581203E+03  0.00000000000E+00 0. -1.
         15    1    3    3    0    0 -0.22798044009E+02  0.66242507790E+02 -0.10387412817E+02  0.70821740969E+02  0.00000000000E+00 0. -1.
        -16    1    1    2    0    0 -0.40070690866E+03 -0.14854635921E+02 -0.92146259085E+03  0.10049278547E+04  0.00000000000E+00 0.  1.
         16    1    3    3    0    0  0.39759014145E+03 -0.15492022502E+03 -0.77870529736E+03  0.88795277850E+03  0.00000000000E+00 0. -1.
    9900018    1    3    3    0    0  0.79498072932E+02  0.86455254472E+01 -0.17008313969E+03  0.20889744257E+03  0.91187600000E+02 0.  0.
<mgrwt>
<rscale>  0 0.12751192E+04</rscale>
<asrwt>0</asrwt>
<pdfrwt beam="1">  1        1 0.36168276E+00 0.12751192E+04</pdfrwt>
<pdfrwt beam="2">  1       -1 0.26600334E-01 0.12751192E+04</pdfrwt>
<totfact> 0.21352897E+01</totfact>
</mgrwt>
</event>
<event>
10    1  0.2690354E-015  0.1153248E+04  0.7818608E-02  0.9154792E-01
          1   -1    0    0  501    0  0.00000000000E+00  0.00000000000E+00  0.43430297132E+03  0.43430297132E+03  0.00000000000E+00 0. -1.
         -1   -1    0    0    0  501 -0.00000000000E+00 -0.00000000000E+00 -0.76558348361E+03  0.76558348361E+03  0.00000000000E+00 0.  1.
    9900016    2    1    2    0    0  0.32408348532E+03 -0.35113374162E+02 -0.18156154841E+03  0.84116814951E+03  0.75388076338E+03 0.  0.
        -15    1    3    3    0    0 -0.61700770572E+02  0.43571572328E+02  0.58635349159E+02  0.95622022439E+02  0.00000000000E+00 0.  1.
        -15    1    3    3    0    0 -0.15838061578E+02  0.31791197729E+02 -0.13768680933E+02  0.38093319916E+02  0.00000000000E+00 0.  1.
         15    1    3    3    0    0  0.15190368123E+02  0.55651168108E+02 -0.14970799855E+03  0.16043779051E+03  0.00000000000E+00 0. -1.
         15    1    3    3    0    0 -0.11053107379E+01  0.31850612090E+02  0.49184649575E+01  0.32247085138E+02  0.00000000000E+00 0. -1.
        -16    1    1    2    0    0 -0.32408348532E+03  0.35113374162E+02 -0.14971896388E+03  0.35871830542E+03  0.00000000000E+00 0.  1.
         16    1    3    3    0    0  0.32736024517E+03 -0.22068940540E+03 -0.45207073693E+02  0.39738170980E+03  0.00000000000E+00 0. -1.
    9900018    1    3    3    0    0  0.60177014912E+02  0.22711480978E+02 -0.36431609356E+02  0.11738622170E+03  0.91187600000E+02 0.  0.
<mgrwt>
<rscale>  0 0.11532479E+04</rscale>
<asrwt>0</asrwt>
<pdfrwt beam="1">  1        1 0.66815843E-01 0.11532479E+04</pdfrwt>
<pdfrwt beam="2">  1       -1 0.11778207E+00 0.11532479E+04</pdfrwt>
<totfact> 0.34578581E+01</totfact>
</mgrwt>
</event>
<event>
10    1  0.2690354E-015  0.1131780E+04  0.7818608E-02  0.9174758E-01
          2   -1    0    0  501    0  0.00000000000E+00  0.00000000000E+00  0.93397783257E+03  0.93397783257E+03  0.00000000000E+00 0. -1.
         -2   -1    0    0    0  501 -0.00000000000E+00 -0.00000000000E+00 -0.34286862323E+03  0.34286862323E+03  0.00000000000E+00 0.  1.
    9900016    2    1    2    0    0 -0.20567538628E+03 -0.12141984533E+03  0.18468346292E+03  0.71718790517E+03  0.65054236333E+03 0.  0.
        -15    1    3    3    0    0 -0.18532538008E+03  0.87263853949E+02  0.16514832607E+02  0.20550721740E+03  0.00000000000E+00 0.  1.
        -15    1    3    3    0    0 -0.98251872993E+02  0.69230483910E+02  0.98607317851E+02  0.15546605283E+03  0.00000000000E+00 0.  1.
         15    1    3    3    0    0 -0.16297761992E+02 -0.45838484208E+02  0.71653253252E+00  0.48654877446E+02  0.00000000000E+00 0. -1.
         15    1    3    3    0    0 -0.10122152877E+02  0.14112561144E+02  0.33658722307E+02  0.37875215488E+02  0.00000000000E+00 0. -1.
        -16    1    1    2    0    0  0.20600085408E+03  0.18200121855E+03  0.30190368853E+03  0.40829723558E+03  0.00000000000E+00 0.  1.
         16    1    3    3    0    0  0.10432178165E+03 -0.24618826012E+03  0.35186057619E+02  0.26968454201E+03  0.00000000000E+00 0. -1.
    9900018    1    1    2    0    0 -0.32546779376E+00 -0.60581373225E+02  0.10452205789E+03  0.15136131504E+03  0.91187600000E+02 0.  0.
<mgrwt>
<rscale>  0 0.11317804E+04</rscale>
<asrwt>0</asrwt>
<pdfrwt beam="1">  1        2 0.14368890E+00 0.11317804E+04</pdfrwt>
<pdfrwt beam="2">  1       -2 0.52749019E-01 0.11317804E+04</pdfrwt>
<totfact> 0.93469673E+01</totfact>
</mgrwt>
</event>
<event>
10    1  0.2690354E-015  0.1816998E+04  0.7818608E-02  0.8697312E-01
         -2   -1    0    0    0  501 -0.00000000000E+00  0.00000000000E+00  0.90947790267E+03  0.90947790267E+03  0.00000000000E+00 0.  1.
          2   -1    0    0  501    0  0.00000000000E+00 -0.00000000000E+00 -0.90752077534E+03  0.90752077534E+03  0.00000000000E+00 0. -1.
    9900016    2    1    2    0    0  0.85709372592E+02  0.17080681185E+03  0.73184605321E+03  0.10625061945E+04  0.74619012611E+03 0.  0.
        -15    1    3    3    0    0  0.23893914001E+02  0.41571951682E+01 -0.86168839938E+02  0.89516872009E+02  0.00000000000E+00 0. -1.
        -15    1    3    3    0    0 -0.18681329343E+01 -0.37822759010E+02  0.10574067474E+03  0.11231714613E+03  0.00000000000E+00 0.  1.
         15    1    3    3    0    0  0.54254242910E+02  0.32213120106E+02  0.17401669893E+03  0.18510272685E+03  0.00000000000E+00 0. -1.
         15    1    3    3    0    0  0.12858262347E+02  0.68803880627E+01 -0.38658709942E+02  0.41317919900E+02  0.00000000000E+00 0.  1.
        -16    1    3    3    0    0 -0.62204579286E+01  0.14303397377E+03  0.47292750877E+03  0.49412330475E+03  0.00000000000E+00 0.  1.
         16    1    1    2    0    0 -0.85709372592E+02 -0.17080681185E+03 -0.72988892587E+03  0.75449248348E+03  0.00000000000E+00 0. -1.
    9900018    1    3    3    0    0  0.27915441970E+01  0.22344893751E+02  0.10398872065E+03  0.14012822489E+03  0.91187600000E+02 0.  0.
<mgrwt>
<rscale>  0 0.18169976E+04</rscale>
<asrwt>0</asrwt>
<pdfrwt beam="1">  1        2 0.13961858E+00 0.18169976E+04</pdfrwt>
<pdfrwt beam="2">  1       -2 0.13991968E+00 0.18169976E+04</pdfrwt>
<totfact> 0.98261636E+00</totfact>
</mgrwt>
</event>
<event>
10    1  0.2690354E-015  0.9795188E+03  0.7818608E-02  0.9331298E-01
         -2   -1    0    0    0  501 -0.00000000000E+00  0.00000000000E+00  0.51802325003E+03  0.51802325003E+03  0.00000000000E+00 0.  1.
          2   -1    0    0  501    0  0.00000000000E+00 -0.00000000000E+00 -0.46303767387E+03  0.46303767387E+03  0.00000000000E+00 0. -1.
    9900016    2    1    2    0    0 -0.15432919555E+00  0.84368934795E+02  0.17838689394E+03  0.69070072740E+03  0.66191198049E+03 0.  0.
        -15    1    3    3    0    0  0.45439523339E+02  0.56381311225E+02 -0.12749548989E+03  0.14662435841E+03  0.00000000000E+00 0.  1.
        -15    1    3    3    0    0  0.68942313707E+01  0.79611870213E+02  0.52396512468E+02  0.95556134412E+02  0.00000000000E+00 0.  1.
         15    1    3    3    0    0 -0.86946787777E+02  0.94594796574E+02  0.63862704967E+02  0.14347949167E+03  0.00000000000E+00 0. -1.
         15    1    3    3    0    0 -0.13698356571E+01 -0.45914693912E+02 -0.34132268125E+02  0.57228028920E+02  0.00000000000E+00 0. -1.
        -16    1    3    3    0    0  0.35828539529E+02 -0.10030434930E+03  0.22375543452E+03  0.24781271398E+03  0.00000000000E+00 0.  1.
         16    1    1    2    0    0 -0.42300013372E+02 -0.55510878509E+02 -0.16390984272E+03  0.17814933428E+03  0.00000000000E+00 0. -1.
    9900018    1    1    2    0    0  0.42454342568E+02 -0.28858056287E+02  0.40508524933E+02  0.11221086223E+03  0.91187600000E+02 0.  0.
<mgrwt>
<rscale>  0 0.97951882E+03</rscale>
<asrwt>0</asrwt>
<pdfrwt beam="1">  1        2 0.71236565E-01 0.97951882E+03</pdfrwt>
<pdfrwt beam="2">  1       -2 0.79695884E-01 0.97951882E+03</pdfrwt>
<totfact> 0.93853966E+01</totfact>
</mgrwt>
</event>
<event>
10    1  0.2690354E-015  0.1127256E+04  0.7818608E-02  0.9179026E-01
         -1   -1    0    0    0  501 -0.00000000000E+00  0.00000000000E+00  0.46942930699E+03  0.46942930699E+03  0.00000000000E+00 0.  1.
          1   -1    0    0  501    0  0.00000000000E+00 -0.00000000000E+00 -0.67672901191E+03  0.67672901191E+03  0.00000000000E+00 0. -1.
    9900016    2    1    2    0    0  0.20345472687E+03 -0.22192642226E+02 -0.33143145269E+03  0.77074055185E+03  0.66506229120E+03 0.  0.
        -15    1    3    3    0    0  0.43494647823E+02 -0.13343636690E+02  0.23819839121E+02  0.51353887536E+02  0.00000000000E+00 0.  1.
        -15    1    3    3    0    0  0.13012344854E+03 -0.60835391556E+02 -0.16601403876E+02  0.14459828262E+03  0.00000000000E+00 0.  1.
         15    1    3    3    0    0  0.13565264827E+03 -0.69073651097E+02 -0.22353754508E+03  0.27044748902E+03  0.00000000000E+00 0. -1.
         15    1    3    3    0    0  0.52310863453E+02  0.94942452656E+01  0.31280483008E+02  0.61684971797E+02  0.00000000000E+00 0. -1.
        -16    1    1    2    0    0 -0.19183460886E+03  0.28602198403E+02  0.18251799680E+03  0.26632953660E+03  0.00000000000E+00 0.  1.
         16    1    3    3    0    0 -0.15812688121E+03  0.11156579185E+03 -0.14639282587E+03  0.24265592088E+03  0.00000000000E+00 0. -1.
    9900018    1    1    2    0    0 -0.11620118011E+02 -0.64095561779E+01 -0.58386249029E+02  0.10908823045E+03  0.91187600000E+02 0.  0.
<mgrwt>
<rscale>  0 0.11272558E+04</rscale>
<asrwt>0</asrwt>
<pdfrwt beam="1">  1        1 0.10411216E+00 0.11272558E+04</pdfrwt>
<pdfrwt beam="2">  1       -1 0.72219893E-01 0.11272558E+04</pdfrwt>
<totfact> 0.55197727E+01</totfact>
</mgrwt>
</event>
<event>
10    1  0.2690354E-015  0.8867443E+03  0.7818608E-02  0.9442305E-01
         -1   -1    0    0    0  501 -0.00000000000E+00  0.00000000000E+00  0.22340372490E+03  0.22340372490E+03  0.00000000000E+00 0.  1.
          1   -1    0    0  501    0  0.00000000000E+00 -0.00000000000E+00 -0.87992648041E+03  0.87992648041E+03  0.00000000000E+00 0. -1.
    9900016    2    1    2    0    0 -0.32941270207E+02  0.63152099223E+02 -0.46275769972E+03  0.89688841748E+03  0.76497766623E+03 0.  0.
        -15    1    3    3    0    0 -0.66269985630E+02  0.15031487614E+03 -0.22021726659E+02  0.16574447028E+03  0.00000000000E+00 0.  1.
        -15    1    3    3    0    0  0.10766419797E+03 -0.12234113146E+02 -0.15852804328E+02  0.10951056778E+03  0.00000000000E+00 0.  1.
         15    1    3    3    0    0  0.30724089037E+02  0.20787344931E+02  0.32083361523E+02  0.49045136793E+02  0.00000000000E+00 0. -1.
         15    1    3    3    0    0  0.28341509234E+02  0.25961956099E+02 -0.75896498979E+02  0.85073749579E+02  0.00000000000E+00 0. -1.
        -16    1    3    3    0    0 -0.96242851362E+02 -0.88626102935E+02 -0.35794259797E+03  0.38110389135E+03  0.00000000000E+00 0.  1.
         16    1    1    2    0    0  0.32941270207E+02 -0.63152099223E+02 -0.19376505579E+03  0.20644178783E+03  0.00000000000E+00 0. -1.
    9900018    1    3    3    0    0 -0.37158229460E+02 -0.33051861862E+02 -0.23127433309E+02  0.10641060170E+03  0.91187600000E+02 0.  0.
<mgrwt>
<rscale>  0 0.88674428E+03</rscale>
<asrwt>0</asrwt>
<pdfrwt beam="1">  1        1 0.13537331E+00 0.88674428E+03</pdfrwt>
<pdfrwt beam="2">  1       -1 0.34369803E-01 0.88674428E+03</pdfrwt>
<totfact> 0.15260015E+02</totfact>
</mgrwt>
</event>
<event>
10    1  0.2690354E-015  0.1050737E+04  0.7818608E-02  0.9254583E-01
         -2   -1    0    0    0  501 -0.00000000000E+00  0.00000000000E+00  0.16605995375E+03  0.16605995375E+03  0.00000000000E+00 0.  1.
          2   -1    0    0  501    0  0.00000000000E+00 -0.00000000000E+00 -0.16621230932E+04  0.16621230932E+04  0.00000000000E+00 0. -1.
    9900016    2    1    2    0    0 -0.11261853169E+03  0.69477019808E+02 -0.75027389789E+03  0.10707455361E+04  0.75237961916E+03 0.  0.
        -15    1    3    3    0    0 -0.24716095422E+01 -0.13791436610E+02  0.16114544145E+02  0.21353948359E+02  0.00000000000E+00 0.  1.
        -15    1    3    3    0    0 -0.12996632121E+02  0.12184260313E+03 -0.95395827601E+02  0.15528971733E+03  0.00000000000E+00 0.  1.
         15    1    3    3    0    0  0.34326342008E+02  0.15900380010E+03 -0.25953140257E+03  0.30629569883E+03  0.00000000000E+00 0. -1.
         15    1    3    3    0    0  0.13256292602E+02  0.96578082779E+01  0.14529182453E+02  0.21911177445E+02  0.00000000000E+00 0. -1.
        -16    1    3    3    0    0 -0.11781565395E+03 -0.23340840473E+03 -0.36822474619E+03  0.45160765651E+03  0.00000000000E+00 0.  1.
         16    1    1    2    0    0  0.11261853169E+03 -0.69477019808E+02 -0.74578924153E+03  0.75743751079E+03  0.00000000000E+00 0. -1.
    9900018    1    3    3    0    0 -0.26917270687E+02  0.26172649639E+02 -0.57765648126E+02  0.11428733765E+03  0.91187600000E+02 0.  0.
<mgrwt>
<rscale>  0 0.10507370E+04</rscale>
<asrwt>0</asrwt>
<pdfrwt beam="1">  1        2 0.25571125E+00 0.10507370E+04</pdfrwt>
<pdfrwt beam="2">  1       -2 0.25547685E-01 0.10507370E+04</pdfrwt>
<totfact> 0.14135839E+02</totfact>
</mgrwt>
</event>
<event>
11    1  0.2690355E-015  0.1205666E+04  0.7818608E-02  0.9107912E-01
          1   -1    0    0  501    0  0.00000000000E+00  0.00000000000E+00  0.79366021908E+02  0.79366021908E+02  0.00000000000E+00 0. -1.
         -1   -1    0    0    0  501 -0.00000000000E+00 -0.00000000000E+00 -0.45788791076E+04  0.45788791076E+04  0.00000000000E+00 0.  1.
    9900016    2    1    2    0    0 -0.13373404210E+03  0.31815864819E+03 -0.36437269551E+04  0.37354885957E+04  0.74700683100E+03 0.  0.
         23    2    3    3    0    0  0.86986673182E+02  0.18212117096E+03 -0.35277055290E+03  0.42544536601E+03  0.12578511136E+03 0.  0.
        -15    1    4    4    0    0  0.30628120649E+02  0.48613886125E+02 -0.47572565986E+02  0.74595849303E+02  0.00000000000E+00 0.  1.
        -15    1    4    4    0    0  0.50068036648E+02  0.40515856335E+02 -0.12235570914E+03  0.13827242121E+03  0.00000000000E+00 0.  1.
         15    1    4    4    0    0  0.55447955739E+01  0.14542967995E+02 -0.23089006574E+01  0.15734474834E+02  0.00000000000E+00 0. -1.
         15    1    4    4    0    0  0.74572031071E+00  0.78448460504E+02 -0.18053337712E+03  0.19684262066E+03  0.00000000000E+00 0. -1.
        -16    1    3    3    0    0 -0.20389380240E+03  0.90515168323E+02 -0.27684663113E+04  0.27774397195E+04  0.00000000000E+00 0.  1.
         16    1    1    2    0    0  0.13373404210E+03 -0.31815864819E+03 -0.85578613056E+03  0.92275653382E+03  0.00000000000E+00 0. -1.
    9900018    1    3    3    0    0 -0.16826912880E+02  0.45522308909E+02 -0.52249009086E+03  0.53260351017E+03  0.91187600000E+02 0.  0.
<mgrwt>
<rscale>  0 0.12056657E+04</rscale>
<asrwt>0</asrwt>
<pdfrwt beam="1">  1        1 0.12210157E-01 0.12056657E+04</pdfrwt>
<pdfrwt beam="2">  1       -1 0.70444297E+00 0.12056657E+04</pdfrwt>
<totfact> 0.98168576E-02</totfact>
</mgrwt>
</event>
<event>
10    1  0.2690354E-015  0.1220057E+04  0.7818608E-02  0.9095480E-01
         -1   -1    0    0    0  501 -0.00000000000E+00  0.00000000000E+00  0.35342288218E+03  0.35342288218E+03  0.00000000000E+00 0.  1.
          1   -1    0    0  501    0  0.00000000000E+00 -0.00000000000E+00 -0.10529449150E+04  0.10529449150E+04  0.00000000000E+00 0. -1.
    9900016    2    1    2    0    0  0.29327639240E+03 -0.67382831284E+02 -0.28826671035E+03  0.78829301627E+03  0.66914624330E+03 0.  0.
        -15    1    3    3    0    0 -0.12399948405E+02  0.61392555231E+02 -0.45478408885E+02  0.77402133259E+02  0.00000000000E+00 0. -1.
        -15    1    3    3    0    0 -0.78094355177E+02  0.21754427110E+02 -0.18546084383E+03  0.20240481220E+03  0.00000000000E+00 0. -1.
         15    1    3    3    0    0 -0.10757750558E+02  0.15314280222E+02 -0.11742161157E+02  0.22093771168E+02  0.00000000000E+00 0.  1.
         15    1    3    3    0    0  0.76175054960E+01 -0.25236233037E+02 -0.69196502737E+02  0.74047618726E+02  0.00000000000E+00 0.  1.
        -16    1    3    3    0    0  0.38691094104E+03 -0.14060786081E+03  0.23611206260E+02  0.41234468091E+03  0.00000000000E+00 0.  1.
         16    1    1    2    0    0 -0.34651978529E+03  0.72409607018E+02 -0.33807089036E+03  0.48950080663E+03  0.00000000000E+00 0. -1.
    9900018    1    1    2    0    0  0.53243392892E+02 -0.50267757334E+01 -0.73184432100E+02  0.12857397426E+03  0.91187600000E+02 0.  0.
<mgrwt>
<rscale>  0 0.12200571E+04</rscale>
<asrwt>0</asrwt>
<pdfrwt beam="1">  1        1 0.16199152E+00 0.12200571E+04</pdfrwt>
<pdfrwt beam="2">  1       -1 0.54372752E-01 0.12200571E+04</pdfrwt>
<totfact> 0.46476469E+01</totfact>
</mgrwt>
</event>
<event>
10    1  0.2690354E-015  0.1108466E+04  0.7818608E-02  0.9196980E-01
          1   -1    0    0  501    0  0.00000000000E+00  0.00000000000E+00  0.81067499356E+03  0.81067499356E+03  0.00000000000E+00 0. -1.
         -1   -1    0    0    0  501 -0.00000000000E+00 -0.00000000000E+00 -0.37891148413E+03  0.37891148413E+03  0.00000000000E+00 0.  1.
    9900016    2    1    2    0    0  0.84942020420E+02  0.21222064839E+03  0.13041089055E+03  0.81134561349E+03  0.76747765682E+03 0.  0.
        -15    1    3    3    0    0 -0.19848310806E+02 -0.98701528808E+02 -0.13549957357E+03  0.16880782467E+03  0.00000000000E+00 0.  1.
        -15    1    3    3    0    0 -0.10595247597E+02  0.47230702962E+02  0.10406725384E+03  0.11477365506E+03  0.00000000000E+00 0.  1.
         15    1    3    3    0    0  0.18646094775E+01 -0.10489010269E+02 -0.11859958490E+02  0.15942230719E+02  0.00000000000E+00 0. -1.
         15    1    3    3    0    0 -0.76012786491E+02  0.79652568979E+02 -0.17824719346E+02  0.11153562693E+03  0.00000000000E+00 0. -1.
        -16    1    3    3    0    0  0.11017408467E+03  0.16694033876E+03  0.19060108818E+03  0.27629002960E+03  0.00000000000E+00 0.  1.
         16    1    1    2    0    0 -0.84942020420E+02 -0.21222064839E+03  0.30135261889E+03  0.37824086420E+03  0.00000000000E+00 0. -1.
    9900018    1    3    3    0    0  0.79359671163E+02  0.27587576765E+02  0.92679993486E+00  0.12399624652E+03  0.91187600000E+02 0.  0.
<mgrwt>
<rscale>  0 0.11084657E+04</rscale>
<asrwt>0</asrwt>
<pdfrwt beam="1">  1        1 0.12471923E+00 0.11084657E+04</pdfrwt>
<pdfrwt beam="2">  1       -1 0.58294075E-01 0.11084657E+04</pdfrwt>
<totfact> 0.64268028E+01</totfact>
</mgrwt>
</event>
<event>
10    1  0.2690354E-015  0.9076522E+03  0.7818608E-02  0.9416066E-01
         -1   -1    0    0    0  501 -0.00000000000E+00  0.00000000000E+00  0.93339969956E+03  0.93339969956E+03  0.00000000000E+00 0.  1.
          1   -1    0    0  501    0  0.00000000000E+00 -0.00000000000E+00 -0.22065375361E+03  0.22065375361E+03  0.00000000000E+00 0. -1.
    9900016    2    1    2    0    0  0.79801790013E+02 -0.47735329291E+02  0.72609241324E+03  0.10601113671E+04  0.76679784212E+03 0.  0.
        -15    1    3    3    0    0  0.22505172707E+02  0.80370471726E+02 -0.40945889707E+02  0.92964839632E+02  0.00000000000E+00 0.  1.
        -15    1    3    3    0    0 -0.50432770915E+02 -0.15288080416E+03  0.80153118073E+02  0.17983472134E+03  0.00000000000E+00 0.  1.
         15    1    3    3    0    0 -0.36055677088E+02 -0.72131909610E+01 -0.97174415173E+01  0.38032494577E+02  0.00000000000E+00 0. -1.
         15    1    3    3    0    0 -0.70280262607E+01  0.76199063034E+01  0.26076950214E+02  0.28061779303E+02  0.00000000000E+00 0. -1.
        -16    1    3    3    0    0  0.72885404660E+02  0.40084642825E+02  0.52693151132E+03  0.53345653846E+03  0.00000000000E+00 0.  1.
         16    1    1    2    0    0 -0.79801790013E+02  0.47735329291E+02 -0.13346467292E+02  0.93942086101E+02  0.00000000000E+00 0. -1.
    9900018    1    3    3    0    0  0.77927686910E+02 -0.15716355025E+02  0.14359416486E+03  0.18776099376E+03  0.91187600000E+02 0.  0.
<mgrwt>
<rscale>  0 0.90765224E+03</rscale>
<asrwt>0</asrwt>
<pdfrwt beam="1">  1        1 0.33946732E-01 0.90765224E+03</pdfrwt>
<pdfrwt beam="2">  1       -1 0.14359995E+00 0.90765224E+03</pdfrwt>
<totfact> 0.51731139E+01</totfact>
</mgrwt>
</event>
