<event>
11    1  0.1183298E-010  0.2483740E+04  0.7818608E-02  0.8408801E-01
         -1   -1    0    0    0  501 -0.00000000000E+00  0.00000000000E+00  0.12405035481E+04  0.12405035481E+04  0.00000000000E+00 0.  1.
          1   -1    0    0  501    0  0.00000000000E+00 -0.00000000000E+00 -0.12432384025E+04  0.12432384025E+04  0.00000000000E+00 0. -1.
    9900016    2    1    2    0    0 -0.83311034818E-01 -0.13393682308E+03 -0.31709560196E+03  0.21420377523E+04  0.21141989102E+04 0.  0.
         24    2    3    3    0    0  0.98185483827E+01 -0.20678708693E+03 -0.32807669550E+03  0.39737812477E+03  0.86126376340E+02 0.  0.
        -15    1    3    3    0    0  0.10991092475E+03  0.42831909195E+03  0.11458424555E+03  0.45680105651E+03  0.00000000000E+00 0.  1.
        -15    1    4    4    0    0  0.72087054498E+01 -0.16852493191E+03 -0.31416064787E+03  0.35658032865E+03  0.00000000000E+00 0.  1.
         15    1    3    3    0    0 -0.39959555711E+03  0.18435420534E+03 -0.24635309115E+03  0.50433414301E+03  0.00000000000E+00 0. -1.
         15    1    3    3    0    0  0.16040919321E+03 -0.17130723223E+03  0.27744525046E+03  0.36339117227E+03  0.00000000000E+00 0. -1.
        -16    1    1    2    0    0  0.83311034818E-01  0.13393682308E+03  0.31436074756E+03  0.34170419828E+03  0.00000000000E+00 0.  1.
         16    1    4    4    0    0  0.26098429329E+01 -0.38262155014E+02 -0.13916047633E+02  0.40797796119E+02  0.00000000000E+00 0. -1.
    9900018    1    3    3    0    0  0.11937357973E+03 -0.36851580121E+03 -0.13469531132E+03  0.42013325572E+03  0.91187600000E+02 0.  0.
<mgrwt>
<rscale>  0 0.24837404E+04</rscale>
<asrwt>0</asrwt>
<pdfrwt beam="1">  1        1 0.19126745E+00 0.24837404E+04</pdfrwt>
<pdfrwt beam="2">  1       -1 0.19084670E+00 0.24837404E+04</pdfrwt>
<totfact> 0.15411291E+00</totfact>
</mgrwt>
</event>
<event>
11    1  0.1183298E-010  0.3771436E+04  0.7818608E-02  0.8052313E-01
         -1   -1    0    0    0  501 -0.00000000000E+00  0.00000000000E+00  0.18729099624E+04  0.18729099624E+04  0.00000000000E+00 0.  1.
          1   -1    0    0  501    0  0.00000000000E+00 -0.00000000000E+00 -0.18986137089E+04  0.18986137089E+04  0.00000000000E+00 0. -1.
    9900016    2    1    2    0    0 -0.18222042234E+02  0.59692549799E+03 -0.11657396085E+04  0.24845373234E+04  0.21112377374E+04 0.  0.
         24    2    3    3    0    0  0.14348810076E+03  0.25677123171E+03  0.12953200716E+03  0.33121900259E+03  0.80044901826E+02 0.  0.
        -15    1    4    4    0    0  0.67485549509E+02  0.18563033453E+03  0.10725634884E+03  0.22475952673E+03  0.00000000000E+00 0.  1.
        -15    1    3    3    0    0 -0.10061773568E+03 -0.38650847459E+03 -0.40771372937E+02  0.40146610630E+03  0.00000000000E+00 0.  1.
         15    1    3    3    0    0 -0.94858561468E+02  0.45706397159E+03 -0.11191199894E+04  0.12125737798E+04  0.00000000000E+00 0. -1.
         15    1    3    3    0    0  0.17592328951E+03  0.47800301427E+02  0.67599987594E+02  0.19443155847E+03  0.00000000000E+00 0. -1.
        -16    1    1    2    0    0  0.18222042234E+02 -0.59692549799E+03  0.11400358620E+04  0.12869863479E+04  0.00000000000E+00 0.  1.
         16    1    4    4    0    0  0.76002551247E+02  0.71140897180E+02  0.22275658323E+02  0.10645947586E+03  0.00000000000E+00 0. -1.
    9900018    1    3    3    0    0 -0.14215713535E+03  0.22179846785E+03 -0.20298024090E+03  0.34484687625E+03  0.91187600000E+02 0.  0.
<mgrwt>
<rscale>  0 0.37714361E+04</rscale>
<asrwt>0</asrwt>
<pdfrwt beam="1">  1        1 0.29209442E+00 0.37714361E+04</pdfrwt>
<pdfrwt beam="2">  1       -1 0.28813999E+00 0.37714361E+04</pdfrwt>
<totfact> 0.10977471E-01</totfact>
</mgrwt>
</event>
<event>
11    1  0.1183298E-010  0.3049527E+04  0.7818608E-02  0.8229728E-01
         -1   -1    0    0    0  501 -0.00000000000E+00  0.00000000000E+00  0.15715160265E+04  0.15715160265E+04  0.00000000000E+00 0.  1.
          1   -1    0    0  501    0  0.00000000000E+00 -0.00000000000E+00 -0.14794020236E+04  0.14794020236E+04  0.00000000000E+00 0. -1.
    9900016    2    1    2    0    0 -0.75880525090E+02 -0.37393797584E+03  0.77827427130E+03  0.22658044420E+04  0.20934592100E+04 0.  0.
        -24    2    3    3    0    0 -0.15858461272E+03 -0.10622698536E+04  0.54729853589E+03  0.12082956869E+04  0.82924413285E+02 0.  0.
        -15    1    3    3    0    0 -0.15587620523E+03  0.19809057639E+03  0.82811349182E+02  0.26532053702E+03  0.00000000000E+00 0.  1.
        -15    1    3    3    0    0  0.15219266505E+03  0.17566688467E+03  0.14436507694E+03  0.27361055737E+03  0.00000000000E+00 0.  1.
         15    1    3    3    0    0 -0.67341739690E+02  0.15297937259E+03 -0.15665711852E+03  0.22908306600E+03  0.00000000000E+00 0. -1.
         15    1    4    4    0    0 -0.34598574733E+02 -0.27361704512E+03  0.10121846333E+03  0.29378312762E+03  0.00000000000E+00 0. -1.
        -16    1    4    4    0    0 -0.12398603799E+03 -0.78865280850E+03  0.44608007256E+03  0.91451255930E+03  0.00000000000E+00 0.  1.
         16    1    1    2    0    0  0.75880525090E+02  0.37393797584E+03 -0.68616026840E+03  0.78511360821E+03  0.00000000000E+00 0. -1.
    9900018    1    3    3    0    0  0.15372936750E+03  0.16159504413E+03  0.16045642781E+03  0.28949459466E+03  0.91187600000E+02 0.  0.
<mgrwt>
<rscale>  0 0.30495272E+04</rscale>
<asrwt>0</asrwt>
<pdfrwt beam="1">  1        1 0.22760031E+00 0.30495272E+04</pdfrwt>
<pdfrwt beam="2">  1       -1 0.24177170E+00 0.30495272E+04</pdfrwt>
<totfact> 0.45223748E-01</totfact>
</mgrwt>
</event>
