<event>
11    1  0.9426223E-016  0.3751110E+04  0.7818608E-02  0.8208751E-01
          2   -1    0    0  501    0  0.00000000000E+00  0.00000000000E+00  0.27797242072E+04  0.27797242072E+04  0.00000000000E+00 0. -1.
         -2   -1    0    0    0  501 -0.00000000000E+00 -0.00000000000E+00 -0.33744263076E+04  0.33744263076E+04  0.00000000000E+00 0.  1.
    9900016    2    1    2    0    0 -0.30628891199E+03 -0.45261837887E+03 -0.24017957422E+03  0.21553895830E+04  0.20710726043E+04 0.  0.
        -24    2    3    3    0    0  0.23659857907E+03 -0.53160154929E+03  0.74500932213E+03  0.94727891860E+03  0.60986594667E+02 0.  0.
        -15    1    3    3    0    0 -0.50093518804E+03  0.54409193279E+02 -0.98314714936E+03  0.11047509856E+04  0.00000000000E+00 0.  1.
        -15    1    1    2    0    0  0.15428607690E+04 -0.28072603118E+03 -0.13354954425E+04  0.20597996344E+04  0.00000000000E+00 0.  1.
         15    1    1    2    0    0 -0.21771161456E+03 -0.68751724317E+02 -0.10147141937E+03  0.24984314211E+03  0.00000000000E+00 0. -1.
         15    1    4    4    0    0  0.63127370990E+02 -0.13626842738E+03  0.23734495044E+03  0.28086789558E+03  0.00000000000E+00 0. -1.
        -16    1    4    4    0    0  0.17347120808E+03 -0.39533312191E+03  0.50766437170E+03  0.66641102302E+03  0.00000000000E+00 0.  1.
         16    1    1    2    0    0 -0.10188602424E+04  0.80209613437E+03  0.10824443357E+04  0.16891181552E+04  0.00000000000E+00 0. -1.
    9900018    1    3    3    0    0 -0.41952303020E+02  0.24573977138E+02 -0.20417469844E+01  0.10335967882E+03  0.91187600000E+02 0.  0.
<mgrwt>
<rscale>  0 0.31255850E+04</rscale>
<asrwt>0</asrwt>
<pdfrwt beam="1">  1        2 0.42764988E+00 0.37511105E+04</pdfrwt>
<pdfrwt beam="2">  1       -2 0.51914251E+00 0.37511105E+04</pdfrwt>
<totfact> 0.22607003E-03</totfact>
</mgrwt>
</event>
<event>
11    1  0.9426223E-016  0.4497391E+04  0.7818608E-02  0.8073943E-01
         -1   -1    0    0    0  501 -0.00000000000E+00  0.00000000000E+00  0.43734224615E+04  0.43734224615E+04  0.00000000000E+00 0.  1.
          1   -1    0    0  501    0  0.00000000000E+00 -0.00000000000E+00 -0.24277677790E+04  0.24277677790E+04  0.00000000000E+00 0. -1.
    9900016    2    1    2    0    0  0.73104039811E+03  0.99650541069E+03  0.45331393440E+03  0.23763617902E+04  0.19784232958E+04 0.  0.
         24    2    3    3    0    0  0.88605514567E+03  0.12676040134E+04  0.92962890672E+03  0.18068005755E+04  0.91677475869E+02 0.  0.
        -15    1    1    2    0    0  0.13867202416E+03 -0.71330668098E+02  0.64080674205E+03  0.65950835866E+03  0.00000000000E+00 0.  1.
        -15    1    4    4    0    0  0.74872550462E+03  0.10172471019E+04  0.77847315813E+03  0.14837122381E+04  0.00000000000E+00 0.  1.
         15    1    3    3    0    0 -0.15501474755E+03 -0.27109860271E+03 -0.47631497233E+03  0.56956121463E+03  0.00000000000E+00 0. -1.
         15    1    1    2    0    0 -0.10396202218E+04  0.10770274153E+04  0.19686934343E+03  0.15098197897E+04  0.00000000000E+00 0. -1.
        -16    1    1    2    0    0  0.16309851582E+03 -0.20469791703E+04  0.64876406224E+03  0.21535133290E+04  0.00000000000E+00 0.  1.
         16    1    4    4    0    0  0.13732964104E+03  0.25035691149E+03  0.15115574859E+03  0.32308833741E+03  0.00000000000E+00 0. -1.
    9900018    1    1    2    0    0  0.68092837516E+01  0.44777012453E+02  0.59006003708E+01  0.10198697303E+03  0.91187600000E+02 0.  0.
<mgrwt>
<rscale>  0 0.36731285E+04</rscale>
<asrwt>0</asrwt>
<pdfrwt beam="1">  1        1 0.37350274E+00 0.44973915E+04</pdfrwt>
<pdfrwt beam="2">  1       -1 0.67283422E+00 0.44973915E+04</pdfrwt>
<totfact> 0.26767548E-04</totfact>
</mgrwt>
</event>
<event>
11    1  0.9426223E-016  0.6103307E+04  0.7818608E-02  0.7677723E-01
          2   -1    0    0  501    0  0.00000000000E+00  0.00000000000E+00  0.22092109447E+04  0.22092109447E+04  0.00000000000E+00 0. -1.
         -2   -1    0    0    0  501 -0.00000000000E+00 -0.00000000000E+00 -0.42153459233E+04  0.42153459233E+04  0.00000000000E+00 0.  1.
    9900016    2    1    2    0    0 -0.66887195357E+03 -0.14344089940E+04 -0.68031260318E+03  0.26975281453E+04  0.20757923799E+04 0.  0.
         24    2    3    3    0    0  0.65834728987E+03 -0.10866074285E+03 -0.12169536492E+03  0.68513145012E+03  0.96783423054E+02 0.  0.
        -15    1    1    2    0    0 -0.42577649127E+03  0.19903341259E+03  0.15259827134E+03  0.49415195260E+03  0.00000000000E+00 0.  1.
        -15    1    4    4    0    0  0.57393239728E+03 -0.68511467687E+02 -0.12590272542E+03  0.59156040615E+03  0.00000000000E+00 0.  1.
         15    1    1    2    0    0  0.98004717728E+03 -0.50812020660E+03 -0.77759019203E+03  0.13503055657E+04  0.00000000000E+00 0. -1.
         15    1    3    3    0    0 -0.13046180084E+04 -0.11759561680E+04 -0.51357343860E+03  0.18299340790E+04  0.00000000000E+00 0. -1.
        -16    1    1    2    0    0  0.11460126757E+03  0.17434957880E+04 -0.70083045480E+03  0.18825712044E+04  0.00000000000E+00 0.  1.
         16    1    4    4    0    0  0.84414892588E+02 -0.40149275158E+02  0.42073605027E+01  0.93571043966E+02  0.00000000000E+00 0. -1.
    9900018    1    3    3    0    0 -0.22601235054E+02 -0.14979208316E+03 -0.45043799667E+02  0.18246261613E+03  0.91187600000E+02 0.  0.
<mgrwt>
<rscale>  0 0.61033068E+04</rscale>
<asrwt>0</asrwt>
<pdfrwt beam="1">  1        2 0.33987861E+00 0.61033068E+04</pdfrwt>
<pdfrwt beam="2">  1       -2 0.64851475E+00 0.61033068E+04</pdfrwt>
<totfact> 0.11837654E-03</totfact>
</mgrwt>
</event>
<event>
10    1  0.9426223E-016  0.3510567E+04  0.7818608E-02  0.8227824E-01
         -2   -1    0    0    0  501 -0.00000000000E+00  0.00000000000E+00  0.27080003387E+04  0.27080003387E+04  0.00000000000E+00 0.  1.
          2   -1    0    0  501    0  0.00000000000E+00 -0.00000000000E+00 -0.35555282429E+04  0.35555282429E+04  0.00000000000E+00 0. -1.
    9900016    2    1    2    0    0 -0.71456230226E+03 -0.85775403486E+03 -0.13233304609E+04  0.27035342679E+04  0.20764278848E+04 0.  0.
        -15    1    1    2    0    0 -0.22575841173E+03 -0.30630730471E+03 -0.51460086444E+03  0.64000396488E+03  0.00000000000E+00 0.  1.
        -15    1    3    3    0    0 -0.47347999272E+03  0.46758387862E+02 -0.12700331072E+03  0.49244237356E+03  0.00000000000E+00 0.  1.
         15    1    3    3    0    0  0.47317026114E+03 -0.86049271820E+03 -0.93297445770E+03  0.13545401998E+04  0.00000000000E+00 0. -1.
         15    1    1    2    0    0  0.19907297841E+02  0.47157149793E+03  0.15636976377E+04  0.16333787927E+04  0.00000000000E+00 0. -1.
        -16    1    1    2    0    0  0.92041341615E+03  0.69248984164E+03 -0.57329421660E+03  0.12866115561E+04  0.00000000000E+00 0.  1.
         16    1    3    3    0    0 -0.63868395786E+03  0.62921443609E+02 -0.14518709943E+03  0.65799361693E+03  0.00000000000E+00 0. -1.
    9900018    1    3    3    0    0 -0.75568612825E+02 -0.10694114814E+03 -0.11816559310E+03  0.19855807764E+03  0.91187600000E+02 0.  0.
<mgrwt>
<rscale>  0 0.30563358E+04</rscale>
<asrwt>0</asrwt>
<pdfrwt beam="1">  1        2 0.54700434E+00 0.35105667E+04</pdfrwt>
<pdfrwt beam="2">  1       -2 0.41661544E+00 0.35105667E+04</pdfrwt>
<totfact> 0.32644434E-03</totfact>
</mgrwt>
</event>
<event>
11    1  0.9426223E-016  0.2828825E+04  0.7818608E-02  0.8632187E-01
         -2   -1    0    0    0  501 -0.00000000000E+00  0.00000000000E+00  0.85360520543E+03  0.85360520543E+03  0.00000000000E+00 0.  1.
          2   -1    0    0  501    0  0.00000000000E+00 -0.00000000000E+00 -0.39451779230E+04  0.39451779230E+04  0.00000000000E+00 0. -1.
    9900016    2    1    2    0    0  0.83671474138E+02  0.12841010484E+03 -0.15680245336E+04  0.25222301482E+04  0.19696329384E+04 0.  0.
        -24    2    3    3    0    0 -0.38392534423E+03 -0.43979727299E+03 -0.16769335672E+04  0.17783433380E+04  0.97869953581E+02 0.  0.
        -15    1    1    2    0    0 -0.41237063999E+03  0.19003364832E+03  0.11320583372E+03  0.46795073780E+03  0.00000000000E+00 0.  1.
        -15    1    3    3    0    0  0.46759681837E+03  0.56820737782E+03  0.10890903360E+03  0.74388681018E+03  0.00000000000E+00 0.  1.
         15    1    4    4    0    0 -0.10639656093E+03 -0.15100180044E+03 -0.41207816489E+03  0.45158629950E+03  0.00000000000E+00 0. -1.
         15    1    1    2    0    0  0.50052657984E+02  0.55398854887E+02 -0.14922965799E+03  0.16686459336E+03  0.00000000000E+00 0. -1.
        -16    1    4    4    0    0 -0.27752878330E+03 -0.28879547255E+03 -0.12648554023E+04  0.13267570385E+04  0.00000000000E+00 0.  1.
         16    1    1    2    0    0  0.25676982372E+03 -0.42224291682E+03 -0.14463745355E+04  0.15284695352E+04  0.00000000000E+00 0. -1.
    9900018    1    1    2    0    0  0.21876684149E+02  0.48400308770E+02 -0.41149824313E+02  0.11326811393E+03  0.91187600000E+02 0.  0.
<mgrwt>
<rscale>  0 0.19462170E+04</rscale>
<asrwt>0</asrwt>
<pdfrwt beam="1">  1        2 0.60695046E+00 0.28288246E+04</pdfrwt>
<pdfrwt beam="2">  1       -2 0.13132388E+00 0.28288246E+04</pdfrwt>
<totfact> 0.13612829E-01</totfact>
</mgrwt>
</event>
<event>
11    1  0.9426223E-016  0.3300901E+04  0.7818608E-02  0.8396270E-01
         -2   -1    0    0    0  501 -0.00000000000E+00  0.00000000000E+00  0.24980007543E+04  0.24980007543E+04  0.00000000000E+00 0.  1.
          2   -1    0    0  501    0  0.00000000000E+00 -0.00000000000E+00 -0.19987992770E+04  0.19987992770E+04  0.00000000000E+00 0. -1.
    9900016    2    1    2    0    0 -0.64254963733E+02 -0.23374926640E+03 -0.31483851635E+03  0.21187821904E+04  0.20811889052E+04 0.  0.
         24    2    3    3    0    0  0.67066307509E+02 -0.10813721139E+04  0.14383002239E+03  0.10941456999E+04  0.51031351825E+02 0.  0.
        -15    1    1    2    0    0 -0.57481306706E+02  0.13668261725E+03  0.43994572526E+02  0.15466661208E+03  0.00000000000E+00 0.  1.
        -15    1    4    4    0    0  0.52092749426E+02 -0.60911776662E+03  0.10218297089E+03  0.61982212585E+03  0.00000000000E+00 0.  1.
         15    1    1    2    0    0 -0.45081172978E+03 -0.85959008422E+03  0.37412101110E+03  0.10402369247E+04  0.00000000000E+00 0. -1.
         15    1    3    3    0    0 -0.10120961803E+03  0.79012557667E+03 -0.44340099409E+03  0.91167223016E+03  0.00000000000E+00 0. -1.
        -16    1    1    2    0    0  0.57254800022E+03  0.95665673337E+03  0.39592440997E+03  0.11831143041E+04  0.00000000000E+00 0.  1.
         16    1    4    4    0    0  0.14973558083E+02 -0.47225434727E+03  0.41647051500E+02  0.47432357401E+03  0.00000000000E+00 0. -1.
    9900018    1    3    3    0    0 -0.30111653208E+02  0.57497270827E+02 -0.15267544660E+02  0.11296426039E+03  0.91187600000E+02 0.  0.
<mgrwt>
<rscale>  0 0.25189358E+04</rscale>
<asrwt>0</asrwt>
<pdfrwt beam="1">  1        2 0.30750758E+00 0.33009007E+04</pdfrwt>
<pdfrwt beam="2">  1       -2 0.38430781E+00 0.33009007E+04</pdfrwt>
<totfact> 0.50542491E-02</totfact>
</mgrwt>
</event>
<event>
11    1  0.9426223E-016  0.3484130E+04  0.7818608E-02  0.8216831E-01
          4   -1    0    0  501    0  0.00000000000E+00  0.00000000000E+00  0.25534921697E+04  0.25534921697E+04  0.00000000000E+00 0. -1.
         -4   -1    0    0    0  501 -0.00000000000E+00 -0.00000000000E+00 -0.41641598175E+04  0.41641598175E+04  0.00000000000E+00 0.  1.
    9900016    2    1    2    0    0 -0.84184986271E+03 -0.51802380910E+03 -0.29982722283E+03  0.22313305227E+04  0.19778472337E+04 0.  0.
        -24    2    3    3    0    0 -0.13204494452E+04 -0.87145467329E+03 -0.45210517293E+02  0.15841824695E+04  0.67602668847E+02 0.  0.
        -15    1    1    2    0    0  0.95443862664E+03  0.70291521371E+03 -0.19042016486E+04  0.22429950531E+04  0.00000000000E+00 0.  1.
        -15    1    3    3    0    0  0.47859958246E+03  0.35343086419E+03 -0.25461670554E+03  0.64714805325E+03  0.00000000000E+00 0.  1.
         15    1    1    2    0    0  0.32029166700E+03 -0.76800805792E+03 -0.39825412179E+03  0.92251258772E+03  0.00000000000E+00 0. -1.
         15    1    4    4    0    0 -0.87888809435E+03 -0.54193908634E+03 -0.34535222974E+02  0.10331190335E+04  0.00000000000E+00 0. -1.
        -16    1    4    4    0    0 -0.44156135083E+03 -0.32951558695E+03 -0.10675294319E+02  0.55106343600E+03  0.00000000000E+00 0.  1.
         16    1    1    2    0    0 -0.43015288772E+03  0.59101525824E+03  0.98820788368E+03  0.12291807693E+04  0.00000000000E+00 0. -1.
    9900018    1    1    2    0    0 -0.27275432099E+01 -0.78986049379E+01  0.34074618477E+01  0.91633054309E+02  0.91187600000E+02 0.  0.
<mgrwt>
<rscale>  0 0.30960184E+04</rscale>
<asrwt>0</asrwt>
<pdfrwt beam="1">  1        4 0.39284495E+00 0.34841295E+04</pdfrwt>
<pdfrwt beam="2">  1       -4 0.64063997E+00 0.34841295E+04</pdfrwt>
<totfact> 0.77695710E-07</totfact>
</mgrwt>
</event>
