<event>
13    1  0.1650042E-008  0.3879729E+04  0.7818608E-02  0.8029258E-01
         -2   -1    0    0    0  501 -0.00000000000E+00  0.00000000000E+00  0.14120078895E+04  0.14120078895E+04  0.00000000000E+00 0.  1.
          2   -1    0    0  501    0  0.00000000000E+00 -0.00000000000E+00 -0.26650525505E+04  0.26650525505E+04  0.00000000000E+00 0. -1.
    9900016    2    1    2    0    0  0.17727930265E+03  0.30416770801E+03 -0.28580594610E+03  0.19639548940E+04  0.19108866636E+04 0.  0.
         23    2    3    3    0    0 -0.42295483387E+03 -0.16311475913E+03 -0.88308593563E+03  0.99680583172E+03  0.91015824388E+02 0.  0.
    9900016    2    1    2    0    0 -0.17727930265E+03 -0.30416770801E+03 -0.96723871488E+03  0.21131055460E+04  0.18454588512E+04 0.  0.
         24    2    5    5    0    0  0.47950642263E+03  0.25861622258E+03 -0.71025098118E+03  0.89853170599E+03  0.78064143384E+02 0.  0.
        -15    1    6    6    0    0  0.36982790867E+03  0.22736494308E+03 -0.52823960136E+03  0.68374306272E+03  0.00000000000E+00 0.  1.
        -15    1    4    4    0    0 -0.35269064874E+03 -0.12628355149E+03 -0.64556044853E+03  0.74638228931E+03  0.00000000000E+00 0.  1.
         15    1    4    4    0    0 -0.70264185127E+02 -0.36831207639E+02 -0.23752548711E+03  0.25042354241E+03  0.00000000000E+00 0. -1.
         15    1    5    5    0    0 -0.23403604104E+03 -0.14936141663E+03  0.29175436212E+03  0.40274347803E+03  0.00000000000E+00 0. -1.
        -16    1    3    3    0    0  0.60023413653E+03  0.46728246714E+03  0.59727998953E+03  0.96714906227E+03  0.00000000000E+00 0.  1.
         16    1    6    6    0    0  0.10967851396E+03  0.31251279498E+02 -0.18201137982E+03  0.21478864327E+03  0.00000000000E+00 0. -1.
    9900018    1    5    5    0    0 -0.42274968425E+03 -0.41342251396E+03 -0.54874209582E+03  0.81183036202E+03  0.91187600000E+02 0.  0.
<mgrwt>
<rscale>  0 0.38797295E+04</rscale>
<asrwt>0</asrwt>
<pdfrwt beam="1">  1        2 0.41000808E+00 0.38797295E+04</pdfrwt>
<pdfrwt beam="2">  1       -2 0.21723198E+00 0.38797295E+04</pdfrwt>
<totfact> 0.22835028E-01</totfact>
</mgrwt>
</event>
<event>
13    1  0.1650042E-008  0.4804783E+04  0.7818608E-02  0.7859348E-01
         -2   -1    0    0    0  501 -0.00000000000E+00  0.00000000000E+00  0.20845260700E+04  0.20845260700E+04  0.00000000000E+00 0.  1.
          2   -1    0    0  501    0  0.00000000000E+00 -0.00000000000E+00 -0.27687278241E+04  0.27687278241E+04  0.00000000000E+00 0. -1.
    9900016    2    1    2    0    0  0.73493465038E+03 -0.91706901775E+03 -0.13995585701E+04  0.25499977300E+04  0.17783643351E+04 0.  0.
         23    2    3    3    0    0  0.38444316997E+02 -0.80075096665E+02  0.41582303946E+03  0.43309716632E+03  0.82306553285E+02 0.  0.
    9900016    2    1    2    0    0 -0.73493465038E+03  0.91706901775E+03  0.71535681603E+03  0.23032561641E+04  0.18471895029E+04 0.  0.
        -24    2    5    5    0    0 -0.10425649020E+04 -0.94012737777E+02  0.36479567321E+03  0.11115601896E+04  0.81915823493E+02 0.  0.
        -15    1    5    5    0    0  0.30529182018E+03  0.38586579538E+03  0.25002246059E+03  0.55191189361E+03  0.00000000000E+00 0.  1.
        -15    1    4    4    0    0  0.24117483475E+02  0.11949003414E+02  0.71399362478E+02  0.76304001560E+02  0.00000000000E+00 0. -1.
         15    1    6    6    0    0 -0.32930464704E+03  0.75813352151E+01  0.12302031516E+03  0.35161488186E+03  0.00000000000E+00 0. -1.
         15    1    4    4    0    0  0.14326833522E+02 -0.92024100079E+02  0.34442367698E+03  0.35679316476E+03  0.00000000000E+00 0.  1.
        -16    1    6    6    0    0 -0.71326025501E+03 -0.10159407299E+03  0.24177535804E+03  0.75994530777E+03  0.00000000000E+00 0.  1.
         16    1    3    3    0    0  0.69649033339E+03 -0.83699392108E+03 -0.18153816095E+04  0.21169005637E+04  0.00000000000E+00 0. -1.
    9900018    1    5    5    0    0  0.23384314853E+01  0.62521596014E+03  0.10053868224E+03  0.63978408084E+03  0.91187600000E+02 0.  0.
<mgrwt>
<rscale>  0 0.48047832E+04</rscale>
<asrwt>0</asrwt>
<pdfrwt beam="1">  1        2 0.42595813E+00 0.48047832E+04</pdfrwt>
<pdfrwt beam="2">  1       -2 0.32069632E+00 0.48047832E+04</pdfrwt>
<totfact> 0.42330703E-02</totfact>
</mgrwt>
</event>
<event>
13    1  0.1650042E-008  0.4942488E+04  0.7818608E-02  0.7837441E-01
          2   -1    0    0  501    0  0.00000000000E+00  0.00000000000E+00  0.40227843830E+04  0.40227843830E+04  0.00000000000E+00 0. -1.
         -2   -1    0    0    0  501 -0.00000000000E+00 -0.00000000000E+00 -0.15181144515E+04  0.15181144515E+04  0.00000000000E+00 0.  1.
    9900016    2    1    2    0    0 -0.43163345574E+03  0.12981449809E+04  0.23743223768E+04  0.32450581880E+04  0.17382485619E+04 0.  0.
         23    2    3    3    0    0  0.60616139940E+03  0.16058285429E+03  0.43636226712E+03  0.76982988741E+03  0.94908019515E+02 0.  0.
    9900016    2    1    2    0    0  0.43163345574E+03 -0.12981449809E+04  0.13034755478E+03  0.22958406465E+04  0.18391318489E+04 0.  0.
        -24    2    5    5    0    0 -0.23526530861E+03 -0.10771512958E+04 -0.29351800849E+03  0.11437970871E+04  0.80711062891E+02 0.  0.
        -15    1    4    4    0    0  0.50273815420E+02 -0.11049903126E+02  0.24419673065E+02  0.56972601385E+02  0.00000000000E+00 0.  1.
        -15    1    5    5    0    0  0.52358221365E+03 -0.29159948685E+03  0.63423018135E+03  0.87259183936E+03  0.00000000000E+00 0.  1.
         15    1    6    6    0    0 -0.51843202036E+02 -0.35425600680E+03 -0.65992362212E+02  0.36406047275E+03  0.00000000000E+00 0. -1.
         15    1    4    4    0    0  0.55588758398E+03  0.17163275741E+03  0.41194259405E+03  0.71285728602E+03  0.00000000000E+00 0. -1.
        -16    1    6    6    0    0 -0.18342210657E+03 -0.72289528896E+03 -0.22752564628E+03  0.77973661431E+03  0.00000000000E+00 0.  1.
         16    1    3    3    0    0 -0.10377948551E+04  0.11375621266E+04  0.19379601097E+04  0.24752283006E+04  0.00000000000E+00 0. -1.
    9900018    1    5    5    0    0  0.14331655069E+03  0.70605801696E+02 -0.21036461807E+03  0.27945172010E+03  0.91187600000E+02 0.  0.
<mgrwt>
<rscale>  0 0.49424881E+04</rscale>
<asrwt>0</asrwt>
<pdfrwt beam="1">  1        2 0.61888990E+00 0.49424881E+04</pdfrwt>
<pdfrwt beam="2">  1       -2 0.23355607E+00 0.49424881E+04</pdfrwt>
<totfact> 0.19383548E-02</totfact>
</mgrwt>
</event>
<event>
13    1  0.1650042E-008  0.6095684E+04  0.7818608E-02  0.7678650E-01
         -2   -1    0    0    0  501 -0.00000000000E+00  0.00000000000E+00  0.28969457068E+04  0.28969457068E+04  0.00000000000E+00 0.  1.
          2   -1    0    0  501    0  0.00000000000E+00 -0.00000000000E+00 -0.32065984287E+04  0.32065984287E+04  0.00000000000E+00 0. -1.
    9900016    2    1    2    0    0 -0.18268961671E+04  0.14346829517E+04  0.70271351451E+03  0.29725245639E+04  0.17164589195E+04 0.  0.
         23    2    3    3    0    0  0.21141757707E+03 -0.15114101806E+03 -0.55365236431E+02  0.28101123953E+03  0.91438548250E+02 0.  0.
    9900016    2    1    2    0    0  0.18268961671E+04 -0.14346829517E+04 -0.10123662364E+04  0.31310195716E+04  0.18391664915E+04 0.  0.
         24    2    5    5    0    0 -0.24924677868E+03 -0.52191142057E+03 -0.61309824985E+01  0.58392427648E+03  0.80090474555E+02 0.  0.
        -15    1    6    6    0    0 -0.15475960255E+03 -0.37814612340E+03 -0.32499277931E+02  0.40987952900E+03  0.00000000000E+00 0.  1.
        -15    1    4    4    0    0  0.19548399620E+03 -0.10013226118E+03 -0.59075615444E+02  0.22744315958E+03  0.00000000000E+00 0. -1.
         15    1    4    4    0    0  0.15933580865E+02 -0.51008756876E+02  0.37103790131E+01  0.53568079951E+02  0.00000000000E+00 0.  1.
         15    1    5    5    0    0  0.51109707934E+03 -0.67869303089E+02 -0.44158832655E+03  0.67884218855E+03  0.00000000000E+00 0. -1.
        -16    1    3    3    0    0 -0.20383137442E+04  0.15858239698E+04  0.75807875094E+03  0.26915133244E+04  0.00000000000E+00 0.  1.
         16    1    6    6    0    0 -0.94487176129E+02 -0.14376529717E+03  0.26368295432E+02  0.17404474748E+03  0.00000000000E+00 0. -1.
    9900018    1    5    5    0    0  0.15650458665E+04 -0.84490222806E+03 -0.56464692734E+03  0.18682531065E+04  0.91187600000E+02 0.  0.
<mgrwt>
<rscale>  0 0.60956842E+04</rscale>
<asrwt>0</asrwt>
<pdfrwt beam="1">  1        2 0.49332283E+00 0.60956842E+04</pdfrwt>
<pdfrwt beam="2">  1       -2 0.44568396E+00 0.60956842E+04</pdfrwt>
<totfact> 0.31912249E-03</totfact>
</mgrwt>
</event>
<event>
13    1  0.1650042E-008  0.6340680E+04  0.7818608E-02  0.7649539E-01
         -2   -1    0    0    0  501 -0.00000000000E+00  0.00000000000E+00  0.24182761560E+04  0.24182761560E+04  0.00000000000E+00 0. -1.
          2   -1    0    0  501    0  0.00000000000E+00 -0.00000000000E+00 -0.41562889614E+04  0.41562889614E+04  0.00000000000E+00 0.  1.
    9900016    2    1    2    0    0  0.23499952580E+04 -0.87968868616E+03 -0.11387580518E+03  0.30621523404E+04  0.17514220963E+04 0.  0.
         23    2    3    3    0    0 -0.14724484935E+03 -0.51785574355E+02 -0.37704560822E+03  0.41812320634E+03  0.91108910845E+02 0.  0.
    9900016    2    1    2    0    0 -0.23499952580E+04  0.87968868616E+03 -0.16241370002E+04  0.35124127770E+04  0.18446930972E+04 0.  0.
         24    2    5    5    0    0  0.14803763158E+03  0.15025581153E+03  0.20996224032E+03  0.30753533112E+03  0.77471854645E+02 0.  0.
        -15    1    4    4    0    0 -0.27824160061E+02 -0.31503789183E+02 -0.33190456109E+02  0.53556316086E+02  0.00000000000E+00 0. -1.
        -15    1    6    6    0    0  0.15461707863E+03  0.15292121532E+03  0.20513254917E+03  0.29894932987E+03  0.00000000000E+00 0.  1.
         15    1    5    5    0    0 -0.20536364193E+04  0.71245139646E+03 -0.14934637016E+04  0.26373174558E+04  0.00000000000E+00 0. -1.
         15    1    4    4    0    0 -0.11942068929E+03 -0.20281785172E+02 -0.34385515211E+03  0.36456689026E+03  0.00000000000E+00 0.  1.
        -16    1    3    3    0    0  0.24972401074E+04 -0.82790311180E+03  0.26316980304E+03  0.26440291341E+04  0.00000000000E+00 0.  1.
         16    1    6    6    0    0 -0.65794470510E+01 -0.26654037878E+01  0.48296911482E+01  0.85860012483E+01  0.00000000000E+00 0. -1.
    9900018    1    5    5    0    0 -0.44439647033E+03  0.16981478162E+02 -0.34063553898E+03  0.56755999000E+03  0.91187600000E+02 0.  0.
<mgrwt>
<rscale>  0 0.63406796E+04</rscale>
<asrwt>0</asrwt>
<pdfrwt beam="1">  1        2 0.63942906E+00 0.63406796E+04</pdfrwt>
<pdfrwt beam="2">  1       -2 0.37204249E+00 0.63406796E+04</pdfrwt>
<totfact> 0.18605356E-03</totfact>
</mgrwt>
</event>
<event>
13    1  0.1650042E-008  0.4899711E+04  0.7818608E-02  0.7844167E-01
          2   -1    0    0  501    0  0.00000000000E+00  0.00000000000E+00  0.27592192979E+04  0.27592192979E+04  0.00000000000E+00 0. -1.
         -2   -1    0    0    0  501 -0.00000000000E+00 -0.00000000000E+00 -0.21751773129E+04  0.21751773129E+04  0.00000000000E+00 0.  1.
    9900016    2    1    2    0    0 -0.12041396039E+04  0.98766552850E+03 -0.27257866815E+03  0.23762909471E+04  0.17739853870E+04 0.  0.
         23    2    3    3    0    0  0.32926341913E+03  0.11396810840E+03  0.35244291189E+03  0.50403989864E+03  0.91853602971E+02 0.  0.
    9900016    2    1    2    0    0  0.12041396039E+04 -0.98766552850E+03  0.85662065317E+03  0.25581056637E+04  0.18397473363E+04 0.  0.
         24    2    5    5    0    0 -0.43813855216E+03 -0.31065104322E+03  0.16380177458E+03  0.56728984208E+03  0.80729684966E+02 0.  0.
        -15    1    6    6    0    0 -0.30359002995E+03 -0.16844949732E+03  0.97945798707E+02  0.36074300952E+03  0.00000000000E+00 0.  1.
        -15    1    4    4    0    0  0.76186898068E+02  0.16139275770E+02  0.13697195760E+03  0.15756343747E+03  0.00000000000E+00 0. -1.
         15    1    4    4    0    0  0.25307652106E+03  0.97828832627E+02  0.21547095429E+03  0.34647646117E+03  0.00000000000E+00 0.  1.
         15    1    5    5    0    0  0.13685247979E+03 -0.26123256824E+03  0.48449402429E+02  0.29886184187E+03  0.00000000000E+00 0. -1.
        -16    1    3    3    0    0 -0.15334030231E+04  0.87369742010E+03 -0.62502158004E+03  0.18722510485E+04  0.00000000000E+00 0.  1.
         16    1    6    6    0    0 -0.13454852221E+03 -0.14220154590E+03  0.65855975868E+02  0.20654683256E+03  0.00000000000E+00 0. -1.
    9900018    1    5    5    0    0  0.15054256763E+04 -0.41578191704E+03  0.64436947617E+03  0.16919539798E+04  0.91187600000E+02 0.  0.
<mgrwt>
<rscale>  0 0.48997107E+04</rscale>
<asrwt>0</asrwt>
<pdfrwt beam="1">  1        2 0.42449528E+00 0.48997107E+04</pdfrwt>
<pdfrwt beam="2">  1       -2 0.33464266E+00 0.48997107E+04</pdfrwt>
<totfact> 0.34875095E-02</totfact>
</mgrwt>
</event>
