<event>
12    1  0.4761351E-011  0.3712375E+04  0.7818608E-02  0.8485835E-01
         -2   -1    0    0    0  501 -0.00000000000E+00  0.00000000000E+00  0.21432002612E+04  0.21432002612E+04  0.00000000000E+00 0.  1.
          2   -1    0    0  501    0  0.00000000000E+00 -0.00000000000E+00 -0.25463514238E+04  0.25463514238E+04  0.00000000000E+00 0. -1.
        -24    2    1    2    0    0 -0.28596078487E+03  0.43681427254E+03 -0.79720814523E+03  0.95632138407E+03  0.80184060947E+02 0.  0.
    9900016    2    1    2    0    0 -0.32850113532E+03  0.55139782806E+03  0.94418948603E+03  0.21643109946E+04  0.18386940298E+04 0.  0.
         24    2    4    4    0    0 -0.96035074114E+03  0.61359514335E+03  0.10114829401E+04  0.15258512548E+04  0.79697977732E+02 0.  0.
        -15    1    5    5    0    0 -0.23983243955E+03  0.19440863763E+03  0.28260970143E+03  0.41854815827E+03  0.00000000000E+00 0.  1.
        -15    1    1    2    0    0  0.60354920094E+03 -0.10442202486E+04 -0.69228292596E+03  0.13906556782E+04  0.00000000000E+00 0.  1.
         15    1    4    4    0    0  0.63184960582E+03 -0.62197315282E+02 -0.67293454072E+02  0.63845973982E+03  0.00000000000E+00 0. -1.
         15    1    3    3    0    0 -0.20352914172E+03  0.33431620274E+03 -0.65148023635E+03  0.76001179813E+03  0.00000000000E+00 0. -1.
        -16    1    3    3    0    0 -0.82431643148E+02  0.10249806980E+03 -0.14572790889E+03  0.19630958594E+03  0.00000000000E+00 0.  1.
         16    1    5    5    0    0 -0.72051830159E+03  0.41918650571E+03  0.72887323867E+03  0.11073030965E+04  0.00000000000E+00 0. -1.
    9900018    1    1    2    0    0  0.10912719242E+02  0.56008148023E+02  0.14215042260E+03  0.17826362816E+03  0.91187600000E+02 0.  0.
<mgrwt>
<rscale>  0 0.22800342E+04</rscale>
<asrwt>0</asrwt>
<pdfrwt beam="1">  1        2 0.39174637E+00 0.37123749E+04</pdfrwt>
<pdfrwt beam="2">  1       -2 0.32972312E+00 0.37123749E+04</pdfrwt>
<totfact> 0.53284384E-02</totfact>
</mgrwt>
</event>
<event>
12    1  0.4761351E-011  0.3991827E+04  0.7818608E-02  0.8597621E-01
         -2   -1    0    0    0  501 -0.00000000000E+00  0.00000000000E+00  0.10457282428E+04  0.10457282428E+04  0.00000000000E+00 0.  1.
          2   -1    0    0  501    0  0.00000000000E+00 -0.00000000000E+00 -0.47600228275E+04  0.47600228275E+04  0.00000000000E+00 0. -1.
         24    2    1    2    0    0 -0.24315814690E+03 -0.45551030380E+02 -0.85889619775E+03  0.89779976714E+03  0.84504216445E+02 0.  0.
    9900016    2    1    2    0    0  0.11362086526E+04  0.99517823457E+02 -0.25259977180E+04  0.33300684353E+04  0.18460274681E+04 0.  0.
        -24    2    4    4    0    0  0.19227195827E+03 -0.71749516737E+03 -0.16313885846E+04  0.17942129044E+04  0.77481684353E+02 0.  0.
        -15    1    3    3    0    0 -0.17572547661E+02  0.19104253364E+02 -0.10873220861E+03  0.11178756691E+03  0.00000000000E+00 0.  1.
        -15    1    4    4    0    0  0.94393669431E+03  0.81701299082E+03 -0.89460913341E+03  0.15358555308E+04  0.00000000000E+00 0.  1.
         15    1    5    5    0    0  0.15301960533E+03 -0.62231693580E+03 -0.14568264420E+04  0.15915516486E+04  0.00000000000E+00 0. -1.
         15    1    1    2    0    0 -0.11829612814E+04  0.16200744100E+02 -0.93402202050E+02  0.11867534827E+04  0.00000000000E+00 0. -1.
        -16    1    5    5    0    0  0.39252352946E+02 -0.95178231562E+02 -0.17456214258E+03  0.20266125579E+03  0.00000000000E+00 0.  1.
         16    1    3    3    0    0 -0.22558559924E+03 -0.64655283744E+02 -0.75016398914E+03  0.78601220023E+03  0.00000000000E+00 0. -1.
    9900018    1    1    2    0    0  0.28991077568E+03 -0.70167537176E+02 -0.23599846693E+03  0.39112938513E+03  0.91187600000E+02 0.  0.
<mgrwt>
<rscale>  0 0.20193638E+04</rscale>
<asrwt>0</asrwt>
<pdfrwt beam="1">  1        2 0.73231121E+00 0.39918274E+04</pdfrwt>
<pdfrwt beam="2">  1       -2 0.16088127E+00 0.39918274E+04</pdfrwt>
<totfact> 0.12624246E-02</totfact>
</mgrwt>
</event>
<event>
12    1  0.4761351E-011  0.3674540E+04  0.7818608E-02  0.8410641E-01
         -2   -1    0    0    0  501 -0.00000000000E+00  0.00000000000E+00  0.23595526880E+04  0.23595526880E+04  0.00000000000E+00 0. -1.
          2   -1    0    0  501    0  0.00000000000E+00 -0.00000000000E+00 -0.21042429639E+04  0.21042429639E+04  0.00000000000E+00 0.  1.
        -24    2    1    2    0    0  0.57402430482E+03  0.49290064062E+03 -0.11999441520E+03  0.77013927681E+03  0.79125861510E+02 0.  0.
    9900016    2    1    2    0    0 -0.15165900900E+03  0.68236088575E+03  0.42517381741E+03  0.20572171980E+04  0.18875256267E+04 0.  0.
         24    2    4    4    0    0 -0.67755582193E+02  0.45965411206E+03  0.11773956639E+04  0.12682458434E+04  0.79462243426E+02 0.  0.
        -15    1    1    2    0    0 -0.38601867030E+03 -0.13626443681E+04 -0.97452208156E+02  0.14196150960E+04  0.00000000000E+00 0.  1.
        -15    1    5    5    0    0 -0.85050773223E+02  0.34374707196E+03  0.89360808759E+03  0.96121334661E+03  0.00000000000E+00 0.  1.
         15    1    4    4    0    0 -0.83903426806E+02  0.22270677369E+03 -0.75222184652E+03  0.78897135465E+03  0.00000000000E+00 0. -1.
         15    1    3    3    0    0  0.26731088318E+03  0.18775705580E+03 -0.28346153900E+02  0.32788919578E+03  0.00000000000E+00 0. -1.
        -16    1    3    3    0    0  0.30671342164E+03  0.30514358482E+03 -0.91648261304E+02  0.44225008102E+03  0.00000000000E+00 0.  1.
         16    1    5    5    0    0  0.17295191030E+02  0.11590704010E+03  0.28378757634E+03  0.30703249675E+03  0.00000000000E+00 0. -1.
    9900018    1    1    2    0    0 -0.36346625516E+02  0.18738284178E+03  0.47582530130E+02  0.21682408111E+03  0.91187600000E+02 0.  0.
<mgrwt>
<rscale>  0 0.24786229E+04</rscale>
<asrwt>0</asrwt>
<pdfrwt beam="1">  1        2 0.32372969E+00 0.36745400E+04</pdfrwt>
<pdfrwt beam="2">  1       -2 0.36300811E+00 0.36745400E+04</pdfrwt>
<totfact> 0.59283947E-02</totfact>
</mgrwt>
</event>
<event>
12    1  0.4761351E-011  0.4245570E+04  0.7818608E-02  0.8378982E-01
          2   -1    0    0  501    0  0.00000000000E+00  0.00000000000E+00  0.34790851891E+04  0.34790851891E+04  0.00000000000E+00 0. -1.
         -2   -1    0    0    0  501 -0.00000000000E+00 -0.00000000000E+00 -0.16719794101E+04  0.16719794101E+04  0.00000000000E+00 0.  1.
         24    2    1    2    0    0 -0.38736258619E+03  0.40871234228E+03  0.11228548043E+03  0.57970994231E+03  0.79749835012E+02 0.  0.
    9900016    2    1    2    0    0 -0.73828924820E+03  0.36330466896E+03  0.17258497821E+04  0.26544599833E+04  0.18413416401E+04 0.  0.
        -24    2    4    4    0    0 -0.78487382758E+03  0.31517649026E+03  0.21047202749E+04  0.22697142297E+04  0.79950632922E+02 0.  0.
        -15    1    3    3    0    0 -0.27694976605E+02  0.51106528660E+02  0.31534093785E+02  0.66130840549E+02  0.00000000000E+00 0.  1.
        -15    1    4    4    0    0  0.46584579381E+02  0.48128178706E+02 -0.37887049274E+03  0.38474575357E+03  0.00000000000E+00 0.  1.
         15    1    5    5    0    0 -0.35613952079E+03  0.15627493216E+03  0.10693242563E+04  0.11378539352E+04  0.00000000000E+00 0. -1.
         15    1    1    2    0    0  0.11148638875E+04 -0.88615255444E+03 -0.43344641811E+03  0.14886448989E+04  0.00000000000E+00 0. -1.
        -16    1    5    5    0    0 -0.42873430679E+03  0.15890155810E+03  0.10353960186E+04  0.11318602945E+04  0.00000000000E+00 0.  1.
         16    1    3    3    0    0 -0.35966760959E+03  0.35760581362E+03  0.80751386641E+02  0.51357910176E+03  0.00000000000E+00 0. -1.
    9900018    1    1    2    0    0  0.10787946846E+02  0.11413554320E+03  0.40241693452E+03  0.42824977478E+03  0.91187600000E+02 0.  0.
<mgrwt>
<rscale>  0 0.25684961E+04</rscale>
<asrwt>0</asrwt>
<pdfrwt beam="1">  1        2 0.53524387E+00 0.42455703E+04</pdfrwt>
<pdfrwt beam="2">  1       -2 0.25722760E+00 0.42455703E+04</pdfrwt>
<totfact> 0.36906104E-02</totfact>
</mgrwt>
</event>
<event>
11    1  0.4761351E-011  0.3396715E+04  0.7818608E-02  0.8602583E-01
          2   -1    0    0  501    0  0.00000000000E+00  0.00000000000E+00  0.28274180304E+04  0.28274180304E+04  0.00000000000E+00 0. -1.
         -2   -1    0    0    0  501 -0.00000000000E+00 -0.00000000000E+00 -0.13429654196E+04  0.13429654196E+04  0.00000000000E+00 0.  1.
    9900016    2    1    2    0    0 -0.41247291987E+03  0.83413615021E+03  0.10105060571E+04  0.22780143649E+04  0.18172258881E+04 0.  0.
        -24    2    3    3    0    0 -0.89950729374E+03  0.53251879202E+03  0.12719797369E+04  0.16482969701E+04  0.79125312115E+02 0.  0.
        -15    1    1    2    0    0 -0.92020110090E+01  0.45174687605E+02 -0.20100840297E+02  0.50293868289E+02  0.00000000000E+00 0.  1.
        -15    1    3    3    0    0  0.48703437387E+03  0.30161735818E+03 -0.26147367979E+03  0.62971739480E+03  0.00000000000E+00 0.  1.
         15    1    4    4    0    0 -0.71125713002E+03  0.38383610935E+03  0.96701324934E+03  0.12602902397E+04  0.00000000000E+00 0. -1.
         15    1    1    2    0    0  0.36077384283E+03 -0.73617263961E+02 -0.72248118900E+02  0.37522934041E+03  0.00000000000E+00 0. -1.
        -16    1    4    4    0    0 -0.18825016371E+03  0.14868268267E+03  0.30496648759E+03  0.38800673038E+03  0.00000000000E+00 0.  1.
         16    1    1    2    0    0  0.41720908348E+03 -0.58625214655E+03 -0.44423269932E+02  0.72092192753E+03  0.00000000000E+00 0. -1.
    9900018    1    1    2    0    0 -0.35630799543E+03 -0.21944142730E+03  0.61071878273E+03  0.74592394894E+03  0.91187600000E+02 0.  0.
<mgrwt>
<rscale>  0 0.20086585E+04</rscale>
<asrwt>0</asrwt>
<pdfrwt beam="1">  1        2 0.43498739E+00 0.33967153E+04</pdfrwt>
<pdfrwt beam="2">  1       -2 0.20661007E+00 0.33967153E+04</pdfrwt>
<totfact> 0.21821511E-01</totfact>
</mgrwt>
</event>
<event>
12    1  0.4761351E-011  0.3063483E+04  0.7818608E-02  0.8530895E-01
         -2   -1    0    0    0  501 -0.00000000000E+00  0.00000000000E+00  0.17881269179E+04  0.17881269179E+04  0.00000000000E+00 0.  1.
          2   -1    0    0  501    0  0.00000000000E+00 -0.00000000000E+00 -0.22911864514E+04  0.22911864514E+04  0.00000000000E+00 0. -1.
         24    2    1    2    0    0  0.59819809621E+03 -0.48091773408E+03  0.42160287117E+03  0.87932491481E+03  0.79627228816E+02 0.  0.
    9900016    2    1    2    0    0 -0.60999544497E+01  0.59459255065E+03 -0.68550874934E+03  0.20551611575E+04  0.18439597683E+04 0.  0.
        -24    2    4    4    0    0 -0.83240172815E+03  0.55252428788E+03 -0.70870740868E+03  0.12274640282E+04  0.78905156917E+02 0.  0.
        -15    1    4    4    0    0  0.82630177370E+03  0.42068262766E+02  0.23198659337E+02  0.82769712924E+03  0.00000000000E+00 0.  1.
        -15    1    3    3    0    0  0.49766850641E+03 -0.38090599331E+03  0.37359613849E+03  0.72961455077E+03  0.00000000000E+00 0.  1.
         15    1    1    2    0    0 -0.74851981130E+03 -0.28541631809E+03 -0.27761870363E+01  0.80109430765E+03  0.00000000000E+00 0. -1.
         15    1    5    5    0    0 -0.22079404532E+03  0.14961175132E+03 -0.23287967640E+03  0.35407150444E+03  0.00000000000E+00 0. -1.
        -16    1    5    5    0    0 -0.61160768283E+03  0.40291253656E+03 -0.47582773228E+03  0.87339252380E+03  0.00000000000E+00 0.  1.
         16    1    3    3    0    0  0.10052958980E+03 -0.10001174077E+03  0.48006732685E+02  0.14971036404E+03  0.00000000000E+00 0. -1.
    9900018    1    1    2    0    0  0.15642166954E+03  0.17174150152E+03 -0.23637746828E+03  0.34373298932E+03  0.91187600000E+02 0.  0.
<mgrwt>
<rscale>  0 0.21702936E+04</rscale>
<asrwt>0</asrwt>
<pdfrwt beam="1">  1        2 0.35249022E+00 0.30634826E+04</pdfrwt>
<pdfrwt beam="2">  1       -2 0.27509645E+00 0.30634826E+04</pdfrwt>
<totfact> 0.17065279E-01</totfact>
</mgrwt>
</event>
<event>
12    1  0.4761351E-011  0.2939886E+04  0.7818608E-02  0.8610003E-01
          2   -1    0    0  501    0  0.00000000000E+00  0.00000000000E+00  0.20620834294E+04  0.20620834294E+04  0.00000000000E+00 0. -1.
         -2   -1    0    0    0  501 -0.00000000000E+00 -0.00000000000E+00 -0.19796195857E+04  0.19796195857E+04  0.00000000000E+00 0.  1.
        -24    2    1    2    0    0 -0.19721026746E+03  0.58307872215E+03  0.80291202573E+03  0.10148276897E+04  0.79591663170E+02 0.  0.
    9900016    2    1    2    0    0 -0.17789768058E+03 -0.51494691144E+03 -0.59198061268E+03  0.20071895644E+04  0.18388993978E+04 0.  0.
         24    2    4    4    0    0  0.12429766703E+03 -0.11260084520E+04 -0.50822646710E+02  0.11368044895E+04  0.79978509063E+02 0.  0.
        -15    1    5    5    0    0  0.56668641380E+02 -0.66965142312E+03 -0.65506760756E+02  0.67522996017E+03  0.00000000000E+00 0.  1.
        -15    1    1    2    0    0  0.33958666657E+03 -0.27634104039E+03  0.30181072068E+03  0.53176422015E+03  0.00000000000E+00 0.  1.
         15    1    4    4    0    0 -0.30219534761E+03  0.61106154054E+03 -0.54115796597E+03  0.87038507488E+03  0.00000000000E+00 0. -1.
         15    1    3    3    0    0 -0.32012364032E+02  0.21157543411E+03  0.26867893070E+03  0.34347827234E+03  0.00000000000E+00 0. -1.
        -16    1    3    3    0    0 -0.16519790343E+03  0.37150328804E+03  0.53423309503E+03  0.67134941733E+03  0.00000000000E+00 0.  1.
         16    1    5    5    0    0  0.67629025652E+02 -0.45635702886E+03  0.14684114046E+02  0.46157452931E+03  0.00000000000E+00 0. -1.
    9900018    1    1    2    0    0  0.35521281465E+02  0.20820922967E+03 -0.43027829004E+03  0.48792154085E+03  0.91187600000E+02 0.  0.
<mgrwt>
<rscale>  0 0.19927818E+04</rscale>
<asrwt>0</asrwt>
<pdfrwt beam="1">  1        2 0.31724361E+00 0.29398858E+04</pdfrwt>
<pdfrwt beam="2">  1       -2 0.30455686E+00 0.29398858E+04</pdfrwt>
<totfact> 0.15280998E-01</totfact>
</mgrwt>
</event>
