<event>
13    1  0.1354280E-008  0.4138500E+04  0.7818608E-02  0.7977175E-01
         -1   -1    0    0    0  501 -0.00000000000E+00  0.00000000000E+00  0.14102204729E+04  0.14102204729E+04  0.00000000000E+00 0.  1.
          1   -1    0    0  501    0  0.00000000000E+00 -0.00000000000E+00 -0.30362591631E+04  0.30362591631E+04  0.00000000000E+00 0. -1.
    9900016    2    1    2    0    0 -0.50701895499E+03 -0.30566953864E+01 -0.54448689737E+02  0.19085381749E+04  0.18391508207E+04 0.  0.
        -24    2    3    3    0    0 -0.68352886929E+03 -0.17066571082E+03 -0.83301950279E+03  0.10928047363E+04  0.62946006413E+02 0.  0.
    9900016    2    1    2    0    0  0.50701895499E+03  0.30566953864E+01 -0.15715900005E+04  0.25379414611E+04  0.19272192834E+04 0.  0.
         24    2    5    5    0    0 -0.32290351988E+03  0.48217388699E+03  0.61004503883E+02  0.58894043628E+03  0.79818215637E+02 0.  0.
        -15    1    6    6    0    0 -0.14234498815E+03  0.28378638064E+03  0.36297926587E+02  0.31955335230E+03  0.00000000000E+00 0.  1.
        -15    1    3    3    0    0  0.17650991430E+03  0.16760901543E+03  0.77857081306E+03  0.81573343860E+03  0.00000000000E+00 0.  1.
         15    1    4    4    0    0 -0.46864723269E+03 -0.14499213379E+03 -0.56212570383E+03  0.74608193550E+03  0.00000000000E+00 0. -1.
         15    1    5    5    0    0  0.74435915314E+03 -0.52872099172E+03 -0.12854689349E+04  0.15767202727E+04  0.00000000000E+00 0. -1.
        -16    1    4    4    0    0 -0.21488163660E+03 -0.25673577032E+02 -0.27089379896E+03  0.34672280084E+03  0.00000000000E+00 0.  1.
         16    1    6    6    0    0 -0.18055853174E+03  0.19838750634E+03  0.24706577296E+02  0.26938708398E+03  0.00000000000E+00 0. -1.
    9900018    1    5    5    0    0  0.85563321729E+02  0.49603800116E+02 -0.34712556949E+03  0.37228075212E+03  0.91187600000E+02 0.  0.
<mgrwt>
<rscale>  0 0.41384996E+04</rscale>
<asrwt>0</asrwt>
<pdfrwt beam="1">  1        1 0.46711679E+00 0.41384996E+04</pdfrwt>
<pdfrwt beam="2">  1       -1 0.21695700E+00 0.41384996E+04</pdfrwt>
<totfact> 0.50170831E-02</totfact>
</mgrwt>
</event>
<event>
13    1  0.1354280E-008  0.5629804E+04  0.7818608E-02  0.7738076E-01
          2   -1    0    0  501    0  0.00000000000E+00  0.00000000000E+00  0.36292822345E+04  0.36292822345E+04  0.00000000000E+00 0.  1.
         -2   -1    0    0    0  501 -0.00000000000E+00 -0.00000000000E+00 -0.21832618563E+04  0.21832618563E+04  0.00000000000E+00 0. -1.
    9900016    2    1    2    0    0 -0.23605195528E+02 -0.22958385145E+03  0.84547460470E+03  0.20481881252E+04  0.18512107765E+04 0.  0.
        -24    2    3    3    0    0 -0.83330624579E+03 -0.50772845466E+02  0.88438533621E+03  0.12180657175E+04  0.67597989721E+02 0.  0.
    9900016    2    1    2    0    0  0.10821816256E+04 -0.64182652874E+03  0.11953646035E+03  0.23084626843E+04  0.19317485953E+04 0.  0.
         24    2    5    5    0    0  0.66828213352E+03  0.64985041162E+03 -0.73846321555E+02  0.93837545781E+03  0.78667993044E+02 0.  0.
        -15    1    3    3    0    0  0.80970105026E+03 -0.17881100599E+03 -0.38910731511E+02  0.83012240765E+03  0.00000000000E+00 0.  1.
        -15    1    6    6    0    0  0.24532041749E+03  0.20532958724E+03 -0.54200358301E+02  0.32446883590E+03  0.00000000000E+00 0.  1.
         15    1    5    5    0    0  0.41389949207E+03 -0.12916769404E+04  0.19338278190E+03  0.13700872265E+04  0.00000000000E+00 0. -1.
         15    1    4    4    0    0 -0.59445005676E+03 -0.44443641958E+02  0.67300974490E+03  0.89904851038E+03  0.00000000000E+00 0. -1.
        -16    1    4    4    0    0 -0.23885618903E+03 -0.63292035076E+01  0.21137559131E+03  0.31901720715E+03  0.00000000000E+00 0.  1.
         16    1    6    6    0    0  0.42296171604E+03  0.44452082438E+03 -0.19645963254E+02  0.61390662190E+03  0.00000000000E+00 0. -1.
    9900018    1    1    2    0    0 -0.10585764301E+04  0.87141038019E+03  0.48100931311E+03  0.14558932814E+04  0.91187600000E+02 0.  0.
<mgrwt>
<rscale>  0 0.56298041E+04</rscale>
<asrwt>0</asrwt>
<pdfrwt beam="1">  1        2 0.55835111E+00 0.56298041E+04</pdfrwt>
<pdfrwt beam="2">  1       -2 0.33588644E+00 0.56298041E+04</pdfrwt>
<totfact> 0.86666048E-03</totfact>
</mgrwt>
</event>
<event>
13    1  0.1354280E-008  0.5540631E+04  0.7818608E-02  0.7750123E-01
         -1   -1    0    0    0  501 -0.00000000000E+00  0.00000000000E+00  0.20999031238E+04  0.20999031238E+04  0.00000000000E+00 0.  1.
          1   -1    0    0  501    0  0.00000000000E+00 -0.00000000000E+00 -0.36547633851E+04  0.36547633851E+04  0.00000000000E+00 0. -1.
    9900016    2    1    2    0    0  0.26788408219E+03 -0.69496572435E+03  0.52904884469E+03  0.20436693655E+04  0.18281008057E+04 0.  0.
         24    2    3    3    0    0  0.38951192151E+03 -0.11570130502E+04  0.83132398510E+03  0.14782922142E+04  0.62044878597E+02 0.  0.
    9900016    2    1    2    0    0 -0.11516543217E+04  0.66750745443E+03 -0.14050226320E+04  0.25925134306E+04  0.17248662015E+04 0.  0.
        -24    2    5    5    0    0 -0.10796391609E+04  0.87265502604E+03 -0.17188222955E+04  0.22107518056E+04  0.76980195327E+02 0.  0.
        -15    1    4    4    0    0  0.19052779842E+03 -0.64374813439E+03  0.43454851635E+03  0.79971552165E+03  0.00000000000E+00 0.  1.
        -15    1    5    5    0    0 -0.72015160838E+02 -0.20514757162E+03  0.31379966348E+03  0.38176162501E+03  0.00000000000E+00 0.  1.
         15    1    6    6    0    0 -0.34650034947E+03  0.26621377907E+03 -0.48761942768E+03  0.65475566023E+03  0.00000000000E+00 0. -1.
         15    1    3    3    0    0 -0.12162783931E+03  0.46204732589E+03 -0.30227514042E+03  0.56537715126E+03  0.00000000000E+00 0. -1.
        -16    1    6    6    0    0 -0.73313881140E+03  0.60644124697E+03 -0.12312028678E+04  0.15559961454E+04  0.00000000000E+00 0.  1.
         16    1    4    4    0    0  0.19898412309E+03 -0.51326491584E+03  0.39677546875E+03  0.67857669255E+03  0.00000000000E+00 0. -1.
    9900018    1    1    2    0    0  0.88377023951E+03  0.27458269920E+02 -0.67888647400E+03  0.11184837128E+04  0.91187600000E+02 0.  0.
<mgrwt>
<rscale>  0 0.55406314E+04</rscale>
<asrwt>0</asrwt>
<pdfrwt beam="1">  1        1 0.56227128E+00 0.55406314E+04</pdfrwt>
<pdfrwt beam="2">  1       -1 0.32306202E+00 0.55406314E+04</pdfrwt>
<totfact> 0.30331790E-03</totfact>
</mgrwt>
</event>
