<event>
11    1  0.8021068E-016  0.1226135E+04  0.7818608E-02  0.9090283E-01
          2   -1    0    0  501    0  0.00000000000E+00  0.00000000000E+00  0.12397961967E+04  0.12397961967E+04  0.00000000000E+00 0.  1.
         -2   -1    0    0    0  501 -0.00000000000E+00 -0.00000000000E+00 -0.30315614468E+03  0.30315614468E+03  0.00000000000E+00 0. -1.
    9900016    2    1    2    0    0 -0.15734713991E+03 -0.21638036874E+03  0.63109798720E+03  0.10211022076E+04  0.75682657364E+03 0.  0.
         23    2    3    3    0    0 -0.33887520649E+03 -0.16425788031E+03  0.60545941529E+03  0.72142957057E+03  0.10982925347E+03 0.  0.
        -15    1    4    4    0    0 -0.12445863686E+03 -0.86109501651E+02  0.33466687878E+03  0.36729649919E+03  0.00000000000E+00 0. -1.
        -15    1    1    2    0    0  0.61181749732E+02  0.11750796821E+03  0.14176550466E+03  0.19403295443E+03  0.00000000000E+00 0.  1.
         15    1    1    2    0    0 -0.72451683031E+01  0.11997068516E+03 -0.14072290437E+02  0.12101027692E+03  0.00000000000E+00 0. -1.
         15    1    4    4    0    0 -0.21441656963E+03 -0.78148378663E+02  0.27079253651E+03  0.35413307138E+03  0.00000000000E+00 0.  1.
        -16    1    1    2    0    0  0.10341055848E+03 -0.21098284636E+02  0.17784885061E+03  0.20680690241E+03  0.00000000000E+00 0.  1.
         16    1    3    3    0    0  0.16856798839E+03 -0.49784345646E+02 -0.47462684140E+02  0.18206140219E+03  0.00000000000E+00 0. -1.
    9900018    1    3    3    0    0  0.12960078189E+02 -0.23381427789E+01  0.73101256052E+02  0.11761123487E+03  0.91187600000E+02 0.  0.
<mgrwt>
<rscale>  0 0.12261351E+04</rscale>
<asrwt>0</asrwt>
<pdfrwt beam="1">  1        2 0.19073787E+00 0.12261351E+04</pdfrwt>
<pdfrwt beam="2">  1       -2 0.46639408E-01 0.12261351E+04</pdfrwt>
<totfact> 0.76967838E+01</totfact>
</mgrwt>
</event>
<event>
10    1  0.8021068E-016  0.4047056E+04  0.7818608E-02  0.7995121E-01
          2   -1    0    0  501    0  0.00000000000E+00  0.00000000000E+00  0.31951365250E+04  0.31951365250E+04  0.00000000000E+00 0.  1.
         -2   -1    0    0    0  501 -0.00000000000E+00 -0.00000000000E+00 -0.12815307234E+04  0.12815307234E+04  0.00000000000E+00 0. -1.
    9900016    2    1    2    0    0  0.10277689870E+03 -0.73883413226E+02  0.27125957290E+03  0.81390483802E+03  0.75686027760E+03 0.  0.
        -15    1    3    3    0    0  0.86220525337E+02 -0.18600444959E+03  0.19171554609E+03  0.28068930309E+03  0.00000000000E+00 0. -1.
        -15    1    1    2    0    0 -0.73642093315E+02 -0.24814515426E+03  0.36477697579E+03  0.44728225714E+03  0.00000000000E+00 0.  1.
         15    1    3    3    0    0  0.12915000905E+03 -0.93698629870E+02  0.41772787891E+02  0.16493672691E+03  0.00000000000E+00 0.  1.
         15    1    1    2    0    0  0.70324395816E+03  0.61998781553E+03 -0.64413571334E+03  0.11374742957E+04  0.00000000000E+00 0. -1.
        -16    1    1    2    0    0 -0.73237876355E+03 -0.29795924804E+03  0.19217049663E+04  0.20780058576E+04  0.00000000000E+00 0.  1.
         16    1    3    3    0    0 -0.15095666312E+03  0.18685398624E+03 -0.36711271418E+02  0.24300214766E+03  0.00000000000E+00 0. -1.
    9900018    1    3    3    0    0  0.38363027441E+02  0.18965679986E+02  0.74482510343E+02  0.12527666037E+03  0.91187600000E+02 0.  0.
<mgrwt>
<rscale>  0 0.40470560E+04</rscale>
<asrwt>0</asrwt>
<pdfrwt beam="1">  1        2 0.49155946E+00 0.40470560E+04</pdfrwt>
<pdfrwt beam="2">  1       -2 0.19715857E+00 0.40470560E+04</pdfrwt>
<totfact> 0.14241507E-01</totfact>
</mgrwt>
</event>
<event>
11    1  0.8021070E-016  0.4116287E+04  0.7818608E-02  0.7981490E-01
          2   -1    0    0  501    0  0.00000000000E+00  0.00000000000E+00  0.25748019222E+04  0.25748019222E+04  0.00000000000E+00 0.  1.
         -2   -1    0    0    0  501 -0.00000000000E+00 -0.00000000000E+00 -0.16451574470E+04  0.16451574470E+04  0.00000000000E+00 0. -1.
    9900016    2    1    2    0    0 -0.48653912981E+03 -0.51931788314E+03  0.51297947925E+03  0.10972488164E+04  0.65908696716E+03 0.  0.
         23    2    3    3    0    0 -0.15070005328E+03 -0.26448225666E+03  0.58576931294E+03  0.66943175062E+03  0.11113869989E+03 0.  0.
        -15    1    1    2    0    0 -0.79919675276E+02  0.61263926082E+03  0.10861868032E+03  0.62730537707E+03  0.00000000000E+00 0.  1.
        -15    1    4    4    0    0 -0.15376967661E+02 -0.96440450646E+02  0.11042551740E+03  0.14741440414E+03  0.00000000000E+00 0.  1.
         15    1    4    4    0    0 -0.13532308562E+03 -0.16804180602E+03  0.47534379554E+03  0.52201734648E+03  0.00000000000E+00 0. -1.
         15    1    1    2    0    0  0.68461075459E+02 -0.11099298866E+04  0.10853062096E+03  0.11173227679E+04  0.00000000000E+00 0. -1.
        -16    1    1    2    0    0  0.60922176412E+03  0.10490542405E+04  0.14905084939E+03  0.12222447026E+04  0.00000000000E+00 0.  1.
         16    1    3    3    0    0 -0.33583907653E+03 -0.25483562648E+03 -0.72789833686E+02  0.42781706574E+03  0.00000000000E+00 0. -1.
    9900018    1    1    2    0    0 -0.11122403449E+03 -0.32445731609E+02  0.50464845308E+02  0.15583770517E+03  0.91187600000E+02 0.  0.
<mgrwt>
<rscale>  0 0.41162869E+04</rscale>
<asrwt>0</asrwt>
<pdfrwt beam="1">  1        2 0.39612337E+00 0.41162869E+04</pdfrwt>
<pdfrwt beam="2">  1       -2 0.25310115E+00 0.41162869E+04</pdfrwt>
<totfact> 0.15133018E-01</totfact>
</mgrwt>
</event>
<event>
11    1  0.8021068E-016  0.1539355E+04  0.7818608E-02  0.9085271E-01
         -2   -1    0    0    0  501 -0.00000000000E+00  0.00000000000E+00  0.64781614729E+03  0.64781614729E+03  0.00000000000E+00 0. -1.
          2   -1    0    0  501    0  0.00000000000E+00 -0.00000000000E+00 -0.21966407650E+04  0.21966407650E+04  0.00000000000E+00 0.  1.
    9900016    2    1    2    0    0  0.11429320065E+03 -0.29798665130E+03 -0.15165948424E+04  0.16832655376E+04  0.65685917380E+03 0.  0.
         23    2    3    3    0    0 -0.11805337047E+03  0.98605287296E+02 -0.94164122637E+02  0.18841462623E+03  0.54530619131E+02 0.  0.
        -15    1    1    2    0    0  0.78241627471E+02  0.21165873968E+03 -0.25356269546E+03  0.33943366787E+03  0.00000000000E+00 0.  1.
        -15    1    4    4    0    0 -0.53389703004E+02  0.11743574986E+02 -0.36484043774E+02  0.65722579000E+02  0.00000000000E+00 0.  1.
         15    1    1    2    0    0 -0.25490976817E+03  0.16760278167E+03  0.90779887689E+02  0.31829337150E+03  0.00000000000E+00 0. -1.
         15    1    4    4    0    0 -0.64663667468E+02  0.86861712310E+02 -0.57680078863E+02  0.12269204723E+03  0.00000000000E+00 0. -1.
        -16    1    3    3    0    0  0.23234657112E+03 -0.39659193859E+03 -0.14224307198E+04  0.14948509114E+04  0.00000000000E+00 0.  1.
         16    1    1    2    0    0  0.19781807213E+02  0.64894263575E+01  0.29268234845E+03  0.29342186293E+03  0.00000000000E+00 0. -1.
    9900018    1    1    2    0    0  0.42593132833E+02 -0.87764296411E+02 -0.16212931600E+03  0.21004247235E+03  0.91187600000E+02 0.  0.
<mgrwt>
<rscale>  0 0.12320333E+04</rscale>
<asrwt>0</asrwt>
<pdfrwt beam="1">  1        2 0.33794475E+00 0.15393550E+04</pdfrwt>
<pdfrwt beam="2">  1       -2 0.99664019E-01 0.15393550E+04</pdfrwt>
<totfact> 0.41028494E+00</totfact>
</mgrwt>
</event>
<event>
10    1  0.8021068E-016  0.1933178E+04  0.7818608E-02  0.8638516E-01
         -2   -1    0    0    0  501 -0.00000000000E+00  0.00000000000E+00  0.73656937242E+03  0.73656937242E+03  0.00000000000E+00 0.  1.
          2   -1    0    0  501    0  0.00000000000E+00 -0.00000000000E+00 -0.12684396895E+04  0.12684396895E+04  0.00000000000E+00 0. -1.
    9900016    2    1    2    0    0  0.78548602068E+02  0.42596443020E+03 -0.62274927709E+02  0.88245276825E+03  0.76630877778E+03 0.  0.
        -15    1    3    3    0    0 -0.17254473425E+02  0.20182822068E+03 -0.38613782324E+02  0.20621195820E+03  0.00000000000E+00 0. -1.
        -15    1    1    2    0    0 -0.37629294830E+03 -0.43587111120E+02 -0.20468065672E+03  0.43056984384E+03  0.00000000000E+00 0.  1.
         15    1    3    3    0    0 -0.57414342376E+01  0.16831540840E+03 -0.20411152504E+03  0.26462153244E+03  0.00000000000E+00 0.  1.
         15    1    1    2    0    0 -0.51058103939E+02 -0.14105227668E+03 -0.21887627929E+03  0.26534788556E+03  0.00000000000E+00 0. -1.
        -16    1    3    3    0    0  0.69254197260E+02 -0.68619970403E+02  0.22718387861E+03  0.24721925265E+03  0.00000000000E+00 0.  1.
         16    1    1    2    0    0  0.34880245017E+03 -0.24132504240E+03 -0.46038453366E+02  0.42663856427E+03  0.00000000000E+00 0. -1.
    9900018    1    3    3    0    0  0.32290312470E+02  0.12444077151E+03 -0.46733498957E+02  0.16440002498E+03  0.91187600000E+02 0.  0.
<mgrwt>
<rscale>  0 0.19331775E+04</rscale>
<asrwt>0</asrwt>
<pdfrwt beam="1">  1        2 0.19514457E+00 0.19331775E+04</pdfrwt>
<pdfrwt beam="2">  1       -2 0.11331837E+00 0.19331775E+04</pdfrwt>
<totfact> 0.98507569E+00</totfact>
</mgrwt>
</event>
<event>
11    1  0.8021068E-016  0.2762626E+04  0.7818608E-02  0.8482414E-01
          2   -1    0    0  501    0  0.00000000000E+00  0.00000000000E+00  0.29043716063E+04  0.29043716063E+04  0.00000000000E+00 0.  1.
         -2   -1    0    0    0  501 -0.00000000000E+00 -0.00000000000E+00 -0.14816983767E+04  0.14816983767E+04  0.00000000000E+00 0. -1.
    9900016    2    1    2    0    0 -0.56937033407E+03 -0.17521166331E+03  0.25665542414E+03  0.92128418352E+03  0.65422537078E+03 0.  0.
         23    2    3    3    0    0 -0.11271419064E+03 -0.34150524110E+03  0.23276394961E+03  0.43470511501E+03  0.73886144241E+02 0.  0.
        -15    1    4    4    0    0 -0.51562125268E+02 -0.14562545209E+03  0.14377390958E+03  0.21103640002E+03  0.00000000000E+00 0.  1.
        -15    1    1    2    0    0 -0.18285794658E+03 -0.21427057931E+02  0.85482576129E+02  0.20298625141E+03  0.00000000000E+00 0.  1.
         15    1    4    4    0    0 -0.61152065371E+02 -0.19587978901E+03  0.88990040035E+02  0.22366871499E+03  0.00000000000E+00 0. -1.
         15    1    1    2    0    0  0.20858006803E+02 -0.10985641706E+04 -0.33156403245E+02  0.10992623165E+04  0.00000000000E+00 0. -1.
        -16    1    1    2    0    0  0.92735022160E+03  0.13319365484E+04  0.10544065469E+04  0.19354086309E+04  0.00000000000E+00 0.  1.
         16    1    3    3    0    0 -0.45665614343E+03  0.16629357779E+03  0.23891474529E+02  0.48657906850E+03  0.00000000000E+00 0. -1.
    9900018    1    1    2    0    0 -0.19597994774E+03 -0.36733656510E+02  0.59285085731E+02  0.22712860063E+03  0.91187600000E+02 0.  0.
<mgrwt>
<rscale>  0 0.22886393E+04</rscale>
<asrwt>0</asrwt>
<pdfrwt beam="1">  1        2 0.44682640E+00 0.27626262E+04</pdfrwt>
<pdfrwt beam="2">  1       -2 0.22795360E+00 0.27626262E+04</pdfrwt>
<totfact> 0.14746015E-01</totfact>
</mgrwt>
</event>
