<event>
11    1  0.8267213E-014  0.8643735E+03  0.7818608E-02  0.9471246E-01
          1   -1    0    0  501    0  0.00000000000E+00  0.00000000000E+00  0.33837259102E+03  0.33837259102E+03  0.00000000000E+00 0. -1.
         -1   -1    0    0    0  501 -0.00000000000E+00 -0.00000000000E+00 -0.55201099163E+03  0.55201099163E+03  0.00000000000E+00 0.  1.
    9900016    2    1    2    0    0 -0.51657637365E+02 -0.42669526181E+02 -0.80989168938E+02  0.67765767347E+03  0.66945610533E+03 0.  0.
         24    2    3    3    0    0  0.16113802081E+03  0.21041274778E+03 -0.18294392838E+03  0.33164119625E+03  0.79236455895E+02 0.  0.
        -15    1    4    4    0    0  0.51091711911E+02  0.67525607192E+02 -0.80899327430E+02  0.11711008424E+03  0.00000000000E+00 0.  1.
        -15    1    4    4    0    0  0.13535934149E+02  0.13336405185E+02 -0.88793636164E+01  0.20974372810E+02  0.00000000000E+00 0. -1.
         15    1    4    4    0    0  0.25130079213E+02  0.56493867400E+01 -0.21805239186E+02  0.33747665219E+02  0.00000000000E+00 0.  1.
         15    1    3    3    0    0 -0.21279565818E+03 -0.25308227396E+03  0.10195475944E+03  0.34601647722E+03  0.00000000000E+00 0. -1.
        -16    1    1    2    0    0  0.55542595051E+02  0.39183459205E+02 -0.87614106753E+02  0.11088983291E+03  0.00000000000E+00 0.  1.
         16    1    4    4    0    0  0.71380295540E+02  0.12390134866E+03 -0.71359998146E+02  0.15980907398E+03  0.00000000000E+00 0. -1.
    9900018    1    1    2    0    0 -0.38849576860E+01  0.34860669760E+01 -0.45035124924E+02  0.10183607627E+03  0.91187600000E+02 0.  0.
<mgrwt>
<rscale>  0 0.86437351E+03</rscale>
<asrwt>0</asrwt>
<pdfrwt beam="1">  1        1 0.52057322E-01 0.86437351E+03</pdfrwt>
<pdfrwt beam="2">  1       -1 0.84924767E-01 0.86437351E+03</pdfrwt>
<totfact> 0.10375268E+02</totfact>
</mgrwt>
</event>
<event>
11    1  0.8267214E-014  0.1190661E+04  0.7818608E-02  0.9121070E-01
          1   -1    0    0  501    0  0.00000000000E+00  0.00000000000E+00  0.65783727414E+03  0.65783727414E+03  0.00000000000E+00 0. -1.
         -1   -1    0    0    0  501 -0.00000000000E+00 -0.00000000000E+00 -0.53876335714E+03  0.53876335714E+03  0.00000000000E+00 0.  1.
    9900016    2    1    2    0    0 -0.99640311999E+02  0.27629780537E+03 -0.37186363885E+02  0.72055567769E+03  0.65692388445E+03 0.  0.
        -24    2    3    3    0    0  0.35680156302E+02  0.71749661048E+02  0.29022539305E+03  0.31147129634E+03  0.79765294831E+02 0.  0.
        -15    1    3    3    0    0 -0.13532046830E+03  0.20454814433E+03 -0.32741175693E+03  0.40908438135E+03  0.00000000000E+00 0.  1.
        -15    1    4    4    0    0  0.15894832926E+02  0.31330735823E+02  0.14415133617E+03  0.14837071288E+03  0.00000000000E+00 0. -1.
         15    1    4    4    0    0 -0.11733567754E+02  0.88529702000E+01  0.20099212701E+02  0.24900402503E+02  0.00000000000E+00 0. -1.
         15    1    4    4    0    0  0.29373904234E+01  0.13546852551E+02  0.79737626256E+02  0.80933519122E+02  0.00000000000E+00 0.  1.
        -16    1    4    4    0    0  0.28581500706E+02  0.18019102474E+02  0.46237217919E+02  0.57266661833E+02  0.00000000000E+00 0.  1.
         16    1    1    2    0    0  0.15301325851E+03 -0.26826910387E+03  0.19265907725E+03  0.36400396896E+03  0.00000000000E+00 0. -1.
    9900018    1    1    2    0    0 -0.53372946515E+02 -0.80287015081E+01 -0.36398796355E+02  0.11204098463E+03  0.91187600000E+02 0.  0.
<mgrwt>
<rscale>  0 0.11906614E+04</rscale>
<asrwt>0</asrwt>
<pdfrwt beam="1">  1        1 0.10120574E+00 0.11906614E+04</pdfrwt>
<pdfrwt beam="2">  1       -1 0.82886670E-01 0.11906614E+04</pdfrwt>
<totfact> 0.42859980E+01</totfact>
</mgrwt>
</event>
<event>
11    1  0.8267213E-014  0.9573212E+03  0.7818608E-02  0.9356634E-01
          2   -1    0    0  501    0  0.00000000000E+00  0.00000000000E+00  0.29088354891E+04  0.29088354891E+04  0.00000000000E+00 0. -1.
         -2   -1    0    0    0  501 -0.00000000000E+00 -0.00000000000E+00 -0.78765531176E+02  0.78765531176E+02  0.00000000000E+00 0.  1.
    9900016    2    1    2    0    0 -0.17717721558E+02 -0.15852816337E+03  0.19073719599E+04  0.20293535020E+04  0.67436099096E+03 0.  0.
        -24    2    3    3    0    0  0.72925349228E+01  0.20399179453E+03  0.13239423922E+04  0.13420134890E+04  0.80690233036E+02 0.  0.
        -15    1    3    3    0    0 -0.25010256481E+02 -0.36251995790E+03  0.58342956778E+03  0.68734001292E+03  0.00000000000E+00 0.  1.
        -15    1    4    4    0    0  0.96741149091E+01  0.54737233254E+01  0.61712331408E+02  0.62705358576E+02  0.00000000000E+00 0.  1.
         15    1    4    4    0    0  0.94615034037E+01  0.22900693603E+02  0.14197405147E+03  0.14412006490E+03  0.00000000000E+00 0. -1.
         15    1    4    4    0    0 -0.11716688116E+02  0.90511904925E+02  0.42146340687E+03  0.43123205938E+03  0.00000000000E+00 0. -1.
        -16    1    4    4    0    0 -0.12639527415E+00  0.85105472676E+02  0.69879260242E+03  0.70395600619E+03  0.00000000000E+00 0.  1.
         16    1    1    2    0    0  0.46938530247E+01  0.16578093837E+03  0.61578776133E+03  0.63773028687E+03  0.00000000000E+00 0. -1.
    9900018    1    1    2    0    0  0.13023868533E+02 -0.72527750020E+01  0.30691023668E+03  0.32051723147E+03  0.91187600000E+02 0.  0.
<mgrwt>
<rscale>  0 0.95732121E+03</rscale>
<asrwt>0</asrwt>
<pdfrwt beam="1">  1        2 0.44751307E+00 0.95732121E+03</pdfrwt>
<pdfrwt beam="2">  1       -2 0.12117776E-01 0.95732121E+03</pdfrwt>
<totfact> 0.10212333E+02</totfact>
</mgrwt>
</event>
