<event>
11    1  0.4213936E-012  0.3378439E+04  0.7818608E-02  0.8313859E-01
         -2   -1    0    0    0  501 -0.00000000000E+00  0.00000000000E+00  0.21235702316E+04  0.21235702316E+04  0.00000000000E+00 0.  1.
          2   -1    0    0  501    0  0.00000000000E+00 -0.00000000000E+00 -0.28888093018E+04  0.28888093018E+04  0.00000000000E+00 0. -1.
    9900016    2    1    2    0    0  0.98889284887E+02  0.26141680969E+03  0.10609593729E+03  0.20439862111E+04  0.20220053027E+04 0.  0.
        -24    2    3    3    0    0  0.54615102634E+03 -0.13471592307E+03  0.77137548773E+03  0.95757454408E+03  0.74158889522E+02 0.  0.
        -15    1    1    2    0    0  0.48993175577E+03  0.23414538588E+03  0.57520407516E+03  0.79102270203E+03  0.00000000000E+00 0.  1.
        -15    1    3    3    0    0 -0.32846574816E+03  0.40955982887E+03 -0.74872465574E+03  0.91444934866E+03  0.00000000000E+00 0.  1.
         15    1    1    2    0    0  0.45957616407E+03 -0.32801453362E+03 -0.46468533345E+03  0.73125661978E+03  0.00000000000E+00 0. -1.
         15    1    4    4    0    0  0.47917432573E+03 -0.10784186918E+03  0.70702072951E+03  0.86088106910E+03  0.00000000000E+00 0. -1.
        -16    1    4    4    0    0  0.66976700605E+02 -0.26874053886E+02  0.64354758222E+02  0.96693474971E+02  0.00000000000E+00 0.  1.
         16    1    1    2    0    0 -0.10483972047E+04 -0.16754766195E+03 -0.98185374914E+03  0.14461140006E+04  0.00000000000E+00 0. -1.
    9900018    1    3    3    0    0 -0.11879599329E+03 -0.13427096116E+02  0.83445105303E+02  0.17196231833E+03  0.91187600000E+02 0.  0.
<mgrwt>
<rscale>  0 0.27661372E+04</rscale>
<asrwt>0</asrwt>
<pdfrwt beam="1">  1        2 0.44443220E+00 0.33784387E+04</pdfrwt>
<pdfrwt beam="2">  1       -2 0.32670311E+00 0.33784387E+04</pdfrwt>
<totfact> 0.35102699E-02</totfact>
</mgrwt>
</event>
<event>
11    1  0.4213936E-012  0.6720720E+04  0.7818608E-02  0.7606944E-01
         -2   -1    0    0    0  501 -0.00000000000E+00  0.00000000000E+00  0.48880725764E+04  0.48880725764E+04  0.00000000000E+00 0.  1.
          2   -1    0    0  501    0  0.00000000000E+00 -0.00000000000E+00 -0.23101167685E+04  0.23101167685E+04  0.00000000000E+00 0. -1.
    9900016    2    1    2    0    0  0.53056360120E+03  0.53065769886E+03  0.66778241731E+03  0.22782952544E+04  0.20448962274E+04 0.  0.
         24    2    3    3    0    0  0.81903938704E+03 -0.28787681058E+03  0.14748865586E+03  0.88424022560E+03  0.80182899524E+02 0.  0.
        -15    1    1    2    0    0  0.71531682482E+03 -0.75489883323E+03  0.78230742600E+03  0.13013667112E+04  0.00000000000E+00 0.  1.
        -15    1    4    4    0    0  0.50744491078E+03 -0.15843035652E+03  0.55365397718E+02  0.53447716753E+03  0.00000000000E+00 0.  1.
         15    1    3    3    0    0 -0.37356208841E+03  0.93058538653E+03  0.18571410164E+03  0.10198173969E+04  0.00000000000E+00 0. -1.
         15    1    1    2    0    0 -0.99774765881E+03  0.25984311690E+03 -0.10233975825E+04  0.14527083148E+04  0.00000000000E+00 0. -1.
        -16    1    1    2    0    0 -0.24813276721E+03 -0.35601982522E+02  0.21512635470E+04  0.21658190645E+04  0.00000000000E+00 0.  1.
         16    1    4    4    0    0  0.31159447626E+03 -0.12944645406E+03  0.92123258139E+02  0.34976305807E+03  0.00000000000E+00 0. -1.
    9900018    1    3    3    0    0  0.85086302581E+02 -0.11205087709E+03  0.33457965981E+03  0.37423763186E+03  0.91187600000E+02 0.  0.
<mgrwt>
<rscale>  0 0.67207197E+04</rscale>
<asrwt>0</asrwt>
<pdfrwt beam="1">  1        2 0.35540258E+00 0.67207197E+04</pdfrwt>
<pdfrwt beam="2">  1       -2 0.75201117E+00 0.67207197E+04</pdfrwt>
<totfact> 0.40673759E-04</totfact>
</mgrwt>
</event>
<event>
11    1  0.4213936E-012  0.4034389E+04  0.7818608E-02  0.8051449E-01
          2   -1    0    0  501    0  0.00000000000E+00  0.00000000000E+00  0.29691975562E+04  0.29691975562E+04  0.00000000000E+00 0. -1.
         -2   -1    0    0    0  501 -0.00000000000E+00 -0.00000000000E+00 -0.43192318396E+04  0.43192318396E+04  0.00000000000E+00 0.  1.
    9900016    2    1    2    0    0 -0.46156795360E+03 -0.47161896027E+03 -0.70854288535E+03  0.22604458522E+04  0.20425750931E+04 0.  0.
         24    2    3    3    0    0 -0.36237432528E+03  0.42946726992E+03  0.26904752643E+03  0.62829313837E+03  0.81292119503E+02 0.  0.
        -15    1    1    2    0    0  0.83263356491E+03  0.17059549563E+04  0.13526334047E+03  0.19031177414E+04  0.00000000000E+00 0.  1.
        -15    1    4    4    0    0 -0.24218118349E+03  0.27119540726E+03  0.21473858822E+03  0.42226926934E+03  0.00000000000E+00 0.  1.
         15    1    3    3    0    0  0.26282511415E+03 -0.74223390676E+03 -0.93774812268E+03  0.12244834644E+04  0.00000000000E+00 0. -1.
         15    1    1    2    0    0  0.77778147143E+03  0.11266495180E+03 -0.10728369429E+04  0.13298934223E+04  0.00000000000E+00 0. -1.
        -16    1    1    2    0    0 -0.11488470827E+04 -0.13470009478E+04  0.29608220437E+03  0.17949723799E+04  0.00000000000E+00 0.  1.
         16    1    4    4    0    0 -0.12019314179E+03  0.15827186266E+03  0.54308938213E+02  0.20602386904E+03  0.00000000000E+00 0. -1.
    9900018    1    3    3    0    0 -0.36201874247E+03 -0.15885232344E+03 -0.39842289101E+02  0.40766924946E+03  0.91187600000E+02 0.  0.
<mgrwt>
<rscale>  0 0.37754274E+04</rscale>
<asrwt>0</asrwt>
<pdfrwt beam="1">  1        2 0.45679962E+00 0.40343888E+04</pdfrwt>
<pdfrwt beam="2">  1       -2 0.66449721E+00 0.40343888E+04</pdfrwt>
<totfact> 0.39549146E-04</totfact>
</mgrwt>
</event>
<event>
11    1  0.4213936E-012  0.4473752E+04  0.7818608E-02  0.7915248E-01
          2   -1    0    0  501    0  0.00000000000E+00  0.00000000000E+00  0.33345556234E+04  0.33345556234E+04  0.00000000000E+00 0. -1.
         -2   -1    0    0    0  501 -0.00000000000E+00 -0.00000000000E+00 -0.15005342528E+04  0.15005342528E+04  0.00000000000E+00 0.  1.
    9900016    2    1    2    0    0  0.36718785765E+03  0.54513522565E+03  0.12031071911E+04  0.24470465655E+04  0.20269609377E+04 0.  0.
        -24    2    3    3    0    0  0.42144974142E+03 -0.54107396415E+03  0.47770912729E+03  0.83945135692E+03  0.78049030275E+02 0.  0.
        -15    1    1    2    0    0  0.11354505144E+03 -0.26156974032E+03 -0.58782259751E+03  0.65333499363E+03  0.00000000000E+00 0.  1.
        -15    1    3    3    0    0 -0.44941844810E+03  0.73686653300E+03  0.26865733123E+03  0.90395021466E+03  0.00000000000E+00 0.  1.
         15    1    4    4    0    0  0.82527559286E+02 -0.16176510417E+03  0.12502123336E+03  0.22047461478E+03  0.00000000000E+00 0. -1.
         15    1    1    2    0    0 -0.79896655703E+03 -0.12515044564E+03  0.55204506189E+03  0.97916492158E+03  0.00000000000E+00 0. -1.
        -16    1    4    4    0    0  0.33892218213E+03 -0.37930885998E+03  0.35268789392E+03  0.61897674215E+03  0.00000000000E+00 0.  1.
         16    1    1    2    0    0  0.31823364794E+03 -0.15841503968E+03  0.66669171516E+03  0.75554339554E+03  0.00000000000E+00 0. -1.
    9900018    1    3    3    0    0  0.39515656434E+03  0.34934265680E+03  0.45674073260E+03  0.70364499387E+03  0.91187600000E+02 0.  0.
<mgrwt>
<rscale>  0 0.44737523E+04</rscale>
<asrwt>0</asrwt>
<pdfrwt beam="1">  1        2 0.51300855E+00 0.44737523E+04</pdfrwt>
<pdfrwt beam="2">  1       -2 0.23085142E+00 0.44737523E+04</pdfrwt>
<totfact> 0.67627941E-02</totfact>
</mgrwt>
</event>
<event>
11    1  0.4213936E-012  0.6954707E+04  0.7818608E-02  0.7582125E-01
          1   -1    0    0  501    0  0.00000000000E+00  0.00000000000E+00  0.25122285044E+04  0.25122285044E+04  0.00000000000E+00 0. -1.
         -1   -1    0    0    0  501 -0.00000000000E+00 -0.00000000000E+00 -0.48132507817E+04  0.48132507817E+04  0.00000000000E+00 0.  1.
    9900016    2    1    2    0    0  0.72644466943E+03 -0.84165485830E+03 -0.15199785659E+04  0.27515102080E+04  0.20060829558E+04 0.  0.
         24    2    3    3    0    0 -0.30739533222E+03  0.33076237473E+03 -0.79288088706E+03  0.91584254638E+03  0.78815162760E+02 0.  0.
        -15    1    4    4    0    0 -0.13360397536E+03  0.18540238981E+03 -0.34342940233E+03  0.41251402735E+03  0.00000000000E+00 0.  1.
        -15    1    1    2    0    0 -0.60145373350E+03 -0.65858464163E+03 -0.15793672578E+04  0.18138029824E+04  0.00000000000E+00 0.  1.
         15    1    3    3    0    0  0.19424969376E+03 -0.66174999851E+03 -0.20685606727E+03  0.72002460834E+03  0.00000000000E+00 0. -1.
         15    1    1    2    0    0  0.59931710827E+03  0.17417298030E+04  0.35046509939E+03  0.18750011970E+04  0.00000000000E+00 0. -1.
        -16    1    1    2    0    0 -0.72430804419E+03 -0.24149030305E+03  0.44785844699E+03  0.88516489870E+03  0.00000000000E+00 0.  1.
         16    1    4    4    0    0 -0.17379135686E+03  0.14535998492E+03 -0.44945148474E+03  0.50332851903E+03  0.00000000000E+00 0. -1.
    9900018    1    3    3    0    0  0.83959030789E+03 -0.51066723453E+03 -0.52024161156E+03  0.11156430533E+04  0.91187600000E+02 0.  0.
<mgrwt>
<rscale>  0 0.69547066E+04</rscale>
<asrwt>0</asrwt>
<pdfrwt beam="1">  1        1 0.38649670E+00 0.69547066E+04</pdfrwt>
<pdfrwt beam="2">  1       -1 0.74050012E+00 0.69547066E+04</pdfrwt>
<totfact> 0.11798373E-04</totfact>
</mgrwt>
</event>
<event>
11    1  0.4213936E-012  0.5175184E+04  0.7818608E-02  0.7802037E-01
          2   -1    0    0  501    0  0.00000000000E+00  0.00000000000E+00  0.22975866968E+04  0.22975866968E+04  0.00000000000E+00 0.  1.
         -2   -1    0    0    0  501 -0.00000000000E+00 -0.00000000000E+00 -0.29142023695E+04  0.29142023695E+04  0.00000000000E+00 0. -1.
    9900016    2    1    2    0    0  0.33006718050E+03 -0.62952846790E+03  0.57845793194E+02  0.21707261913E+04  0.20502330663E+04 0.  0.
        -24    2    3    3    0    0  0.26750579591E+03 -0.25465618874E+03  0.94850790462E+03  0.10210644924E+04  0.80599796674E+02 0.  0.
        -15    1    1    2    0    0 -0.10745719714E+04 -0.63492831009E+03 -0.12738667471E+03  0.12546179680E+04  0.00000000000E+00 0.  1.
        -15    1    3    3    0    0 -0.17351627005E+03 -0.36111865316E+03 -0.77208505612E+03  0.86984476288E+03  0.00000000000E+00 0.  1.
         15    1    4    4    0    0  0.39510407868E+02 -0.44515151200E+02  0.24729132235E+03  0.25435343348E+03  0.00000000000E+00 0. -1.
         15    1    1    2    0    0  0.38211746775E+03  0.64341782494E+03  0.17382536724E+03  0.76825485024E+03  0.00000000000E+00 0. -1.
        -16    1    4    4    0    0  0.22799538804E+03 -0.21014103754E+03  0.70121658227E+03  0.76671105893E+03  0.00000000000E+00 0.  1.
         16    1    1    2    0    0  0.36238732314E+03  0.62103895304E+03 -0.72090015844E+03  0.10181900567E+04  0.00000000000E+00 0. -1.
    9900018    1    3    3    0    0  0.23607765464E+03 -0.13753626007E+02 -0.11857705531E+03  0.27981693603E+03  0.91187600000E+02 0.  0.
<mgrwt>
<rscale>  0 0.51751841E+04</rscale>
<asrwt>0</asrwt>
<pdfrwt beam="1">  1        2 0.35347488E+00 0.51751841E+04</pdfrwt>
<pdfrwt beam="2">  1       -2 0.44833882E+00 0.51751841E+04</pdfrwt>
<totfact> 0.11660211E-02</totfact>
</mgrwt>
</event>
<event>
11    1  0.4213936E-012  0.3784970E+04  0.7818608E-02  0.8049388E-01
          2   -1    0    0  501    0  0.00000000000E+00  0.00000000000E+00  0.32823955119E+04  0.32823955119E+04  0.00000000000E+00 0. -1.
         -2   -1    0    0    0  501 -0.00000000000E+00 -0.00000000000E+00 -0.10911238301E+04  0.10911238301E+04  0.00000000000E+00 0.  1.
    9900016    2    1    2    0    0  0.68372447080E+03 -0.60388602227E+03  0.73419207599E+03  0.23429815085E+04  0.20293759792E+04 0.  0.
        -24    2    3    3    0    0  0.93049836183E+03 -0.91620260514E+03  0.75696768923E+03  0.15114584945E+04  0.79071378432E+02 0.  0.
        -15    1    3    3    0    0 -0.13902620136E+03  0.28053256416E+03 -0.35248808459E+03  0.47146012981E+03  0.00000000000E+00 0.  1.
        -15    1    1    2    0    0  0.93250578846E+02  0.33743487884E+03 -0.75329023224E+01  0.35016383670E+03  0.00000000000E+00 0.  1.
         15    1    1    2    0    0 -0.25494808456E+03  0.11792500417E+03  0.48673806281E+03  0.56197755669E+03  0.00000000000E+00 0. -1.
         15    1    4    4    0    0  0.73061282017E+03 -0.68836878727E+03  0.55210916725E+03  0.11456313599E+04  0.00000000000E+00 0. -1.
        -16    1    4    4    0    0  0.19988554166E+03 -0.22783381787E+03  0.20485852198E+03  0.36582713452E+03  0.00000000000E+00 0.  1.
         16    1    1    2    0    0 -0.52202696508E+03  0.14852613925E+03  0.97787444535E+03  0.11183964401E+04  0.00000000000E+00 0. -1.
    9900018    1    3    3    0    0 -0.10774768966E+03  0.31784018715E+02  0.32971247136E+03  0.36006288428E+03  0.91187600000E+02 0.  0.
<mgrwt>
<rscale>  0 0.37849703E+04</rscale>
<asrwt>0</asrwt>
<pdfrwt beam="1">  1        2 0.50498392E+00 0.37849703E+04</pdfrwt>
<pdfrwt beam="2">  1       -2 0.16786521E+00 0.37849703E+04</pdfrwt>
<totfact> 0.20255653E-01</totfact>
</mgrwt>
</event>
<event>
11    1  0.4213936E-012  0.4045318E+04  0.7818608E-02  0.8130676E-01
         -2   -1    0    0    0  501 -0.00000000000E+00  0.00000000000E+00  0.41456290525E+04  0.41456290525E+04  0.00000000000E+00 0.  1.
          2   -1    0    0  501    0  0.00000000000E+00 -0.00000000000E+00 -0.22724546866E+04  0.22724546866E+04  0.00000000000E+00 0. -1.
    9900016    2    1    2    0    0 -0.63474360238E+03  0.33934064890E+03  0.10731792528E+04  0.24139043834E+04  0.20389137173E+04 0.  0.
        -24    2    3    3    0    0 -0.25179308869E+03 -0.51842371709E+02 -0.37472374722E+03  0.46139567350E+03  0.79879219978E+02 0.  0.
        -15    1    3    3    0    0 -0.50729559880E+03 -0.30803489913E+03  0.63225998545E+03  0.86717184736E+03  0.00000000000E+00 0.  1.
        -15    1    1    2    0    0 -0.12308494901E+04  0.54175576001E+03  0.67037632006E+03  0.15026290897E+04  0.00000000000E+00 0.  1.
         15    1    4    4    0    0 -0.14420064334E+03 -0.26261608298E+02 -0.27888051946E+03  0.31505212544E+03  0.00000000000E+00 0. -1.
         15    1    1    2    0    0  0.60095805444E+03  0.38010972858E+03  0.69966112372E+02  0.71451329298E+03  0.00000000000E+00 0. -1.
        -16    1    4    4    0    0 -0.10759244535E+03 -0.25580763411E+02 -0.95843227752E+02  0.14634354806E+03  0.00000000000E+00 0.  1.
         16    1    1    2    0    0  0.12646350380E+04 -0.12612061375E+04  0.59652680696E+02  0.17870369730E+04  0.00000000000E+00 0. -1.
    9900018    1    3    3    0    0  0.12434508511E+03  0.69921791974E+03  0.81564301458E+03  0.10853368625E+04  0.91187600000E+02 0.  0.
<mgrwt>
<rscale>  0 0.34296125E+04</rscale>
<asrwt>0</asrwt>
<pdfrwt beam="1">  1        2 0.34960841E+00 0.40453183E+04</pdfrwt>
<pdfrwt beam="2">  1       -2 0.63778909E+00 0.40453183E+04</pdfrwt>
<totfact> 0.12841782E-03</totfact>
</mgrwt>
</event>
<event>
11    1  0.4213936E-012  0.3781749E+04  0.7818608E-02  0.8525397E-01
          2   -1    0    0  501    0  0.00000000000E+00  0.00000000000E+00  0.35820816146E+04  0.35820816146E+04  0.00000000000E+00 0. -1.
         -2   -1    0    0    0  501 -0.00000000000E+00 -0.00000000000E+00 -0.13586546810E+04  0.13586546810E+04  0.00000000000E+00 0.  1.
    9900016    2    1    2    0    0  0.55269302786E+03  0.10251495647E+04  0.73423316685E+03  0.24483947979E+04  0.20246326901E+04 0.  0.
        -24    2    3    3    0    0 -0.54180785747E+03 -0.20595524724E+03  0.40570175447E+03  0.71214366130E+03  0.81125596870E+02 0.  0.
        -15    1    1    2    0    0  0.19952680073E+03  0.80071592404E+02 -0.19353212706E+02  0.21586326913E+03  0.00000000000E+00 0.  1.
        -15    1    3    3    0    0  0.37393234718E+03  0.35401620969E+03  0.30242712672E+03  0.59717254121E+03  0.00000000000E+00 0.  1.
         15    1    1    2    0    0 -0.64902706399E+03 -0.95916068118E+03  0.16721897635E+04  0.20340707822E+04  0.00000000000E+00 0. -1.
         15    1    4    4    0    0 -0.35564051630E+03 -0.17004597515E+03  0.24987482628E+03  0.46672608595E+03  0.00000000000E+00 0. -1.
        -16    1    4    4    0    0 -0.18616734117E+03 -0.35909272087E+02  0.15582692820E+03  0.24541757535E+03  0.00000000000E+00 0.  1.
         16    1    1    2    0    0 -0.10319276459E+03 -0.14606047591E+03 -0.16364278404E+03  0.24240744637E+03  0.00000000000E+00 0. -1.
    9900018    1    3    3    0    0  0.72056853814E+03  0.87708860223E+03  0.26104285659E+02  0.11390785954E+04  0.91187600000E+02 0.  0.
<mgrwt>
<rscale>  0 0.21833342E+04</rscale>
<asrwt>0</asrwt>
<pdfrwt beam="1">  1        2 0.55108948E+00 0.37817491E+04</pdfrwt>
<pdfrwt beam="2">  1       -2 0.20902380E+00 0.37817491E+04</pdfrwt>
<totfact> 0.64846245E-02</totfact>
</mgrwt>
</event>
<event>
11    1  0.4213936E-012  0.4628245E+04  0.7818608E-02  0.7888562E-01
         -2   -1    0    0    0  501 -0.00000000000E+00  0.00000000000E+00  0.32339979187E+04  0.32339979187E+04  0.00000000000E+00 0. -1.
          2   -1    0    0  501    0  0.00000000000E+00 -0.00000000000E+00 -0.16558955207E+04  0.16558955207E+04  0.00000000000E+00 0.  1.
    9900016    2    1    2    0    0 -0.44851960619E+03  0.44055311333E+03  0.78763639757E+03  0.22594492003E+04  0.20222469462E+04 0.  0.
        -24    2    3    3    0    0  0.17513291123E+03  0.85220483992E+03  0.95414923884E+03  0.12936945756E+04  0.79500057660E+02 0.  0.
        -15    1    1    2    0    0  0.10320746223E+04  0.53580379144E+03 -0.51719997745E+02  0.11640183362E+04  0.00000000000E+00 0.  1.
        -15    1    3    3    0    0 -0.12668868038E+03 -0.26384636342E+03 -0.30365565679E+03  0.42174836470E+03  0.00000000000E+00 0.  1.
         15    1    4    4    0    0  0.12584950645E+03  0.73864135345E+03  0.80230181267E+03  0.10977783683E+04  0.00000000000E+00 0. -1.
         15    1    1    2    0    0 -0.56496084100E+03 -0.72577510252E+03  0.51574244579E+03  0.10544764206E+04  0.00000000000E+00 0. -1.
        -16    1    4    4    0    0  0.49283404773E+02  0.11356348647E+03  0.15184742617E+03  0.19591620729E+03  0.00000000000E+00 0.  1.
         16    1    1    2    0    0 -0.18594175090E+02 -0.25058180225E+03  0.32644355245E+03  0.41194948222E+03  0.00000000000E+00 0. -1.
    9900018    1    3    3    0    0 -0.49696383704E+03 -0.14780536317E+03  0.13714281552E+03  0.54400626003E+03  0.91187600000E+02 0.  0.
<mgrwt>
<rscale>  0 0.46282449E+04</rscale>
<asrwt>0</asrwt>
<pdfrwt beam="1">  1        2 0.25475316E+00 0.46282449E+04</pdfrwt>
<pdfrwt beam="2">  1       -2 0.49753814E+00 0.46282449E+04</pdfrwt>
<totfact> 0.13358463E-02</totfact>
</mgrwt>
</event>
<event>
11    1  0.4213936E-012  0.6609430E+04  0.7818608E-02  0.7619114E-01
          2   -1    0    0  501    0  0.00000000000E+00  0.00000000000E+00  0.47227052225E+04  0.47227052225E+04  0.00000000000E+00 0.  1.
         -2   -1    0    0    0  501 -0.00000000000E+00 -0.00000000000E+00 -0.23124754498E+04  0.23124754498E+04  0.00000000000E+00 0. -1.
    9900016    2    1    2    0    0  0.55905004057E+03  0.35750541002E+03  0.14267643217E+04  0.25864307985E+04  0.20527105932E+04 0.  0.
         24    2    3    3    0    0  0.37540763142E+03 -0.64123536060E+03 -0.52649398634E+02  0.74936310993E+03  0.81605354857E+02 0.  0.
        -15    1    1    2    0    0 -0.86837253223E+03  0.24998503966E+03  0.16690981291E+04  0.18980126289E+04  0.00000000000E+00 0.  1.
        -15    1    4    4    0    0  0.31661774646E+03 -0.50435163873E+03 -0.69054628720E+02  0.59948804376E+03  0.00000000000E+00 0.  1.
         15    1    3    3    0    0  0.20831190830E+03  0.93433259575E+03  0.14068682630E+04  0.17016608240E+04  0.00000000000E+00 0. -1.
         15    1    1    2    0    0  0.64148262019E+03 -0.97488810406E+03 -0.13095763924E+04  0.17541086326E+04  0.00000000000E+00 0. -1.
        -16    1    1    2    0    0 -0.33216012854E+03  0.36739765438E+03  0.62394371427E+03  0.79662861235E+03  0.00000000000E+00 0.  1.
         16    1    4    4    0    0  0.58789884956E+02 -0.13688372186E+03  0.16405230086E+02  0.14987506617E+03  0.00000000000E+00 0. -1.
    9900018    1    3    3    0    0 -0.24669499149E+02  0.64408174862E+02  0.72545457421E+02  0.13540686454E+03  0.91187600000E+02 0.  0.
<mgrwt>
<rscale>  0 0.66094296E+04</rscale>
<asrwt>0</asrwt>
<pdfrwt beam="1">  1        2 0.72657003E+00 0.66094296E+04</pdfrwt>
<pdfrwt beam="2">  1       -2 0.35576545E+00 0.66094296E+04</pdfrwt>
<totfact> 0.65534894E-04</totfact>
</mgrwt>
</event>
<event>
11    1  0.4213936E-012  0.5402498E+04  0.7818608E-02  0.7769250E-01
          2   -1    0    0  501    0  0.00000000000E+00  0.00000000000E+00  0.42938123165E+04  0.42938123165E+04  0.00000000000E+00 0.  1.
         -2   -1    0    0    0  501 -0.00000000000E+00 -0.00000000000E+00 -0.16993631284E+04  0.16993631284E+04  0.00000000000E+00 0. -1.
    9900016    2    1    2    0    0 -0.27056329718E+03 -0.46450718241E+03  0.41204724640E+03  0.21321229620E+04  0.20216809767E+04 0.  0.
         24    2    3    3    0    0  0.64671502870E+03  0.10655102676E+03  0.69255258337E+02  0.66384395088E+03  0.79366558844E+02 0.  0.
        -15    1    1    2    0    0 -0.16695968584E+03  0.47884527373E+03  0.21324770754E+04  0.21919458957E+04  0.00000000000E+00 0.  1.
        -15    1    4    4    0    0  0.15397325677E+03  0.49569563087E+02 -0.74270368050E+01  0.16192611359E+03  0.00000000000E+00 0.  1.
         15    1    3    3    0    0 -0.57965519442E+03 -0.76081323866E+03  0.21241886847E+02  0.95670692811E+03  0.00000000000E+00 0. -1.
         15    1    1    2    0    0 -0.44598696624E+03 -0.16610153622E+03 -0.43945495485E+03  0.64777677616E+03  0.00000000000E+00 0. -1.
        -16    1    1    2    0    0  0.88350994926E+03  0.15176344490E+03  0.48937982114E+03  0.10213298111E+04  0.00000000000E+00 0.  1.
         16    1    4    4    0    0  0.49274177192E+03  0.56981463675E+02  0.76682295142E+02  0.50191783729E+03  0.00000000000E+00 0. -1.
    9900018    1    3    3    0    0 -0.33762313146E+03  0.18975502949E+03  0.32155010122E+03  0.51157208300E+03  0.91187600000E+02 0.  0.
<mgrwt>
<rscale>  0 0.54024981E+04</rscale>
<asrwt>0</asrwt>
<pdfrwt beam="1">  1        2 0.66058651E+00 0.54024981E+04</pdfrwt>
<pdfrwt beam="2">  1       -2 0.26144048E+00 0.54024981E+04</pdfrwt>
<totfact> 0.73491068E-03</totfact>
</mgrwt>
</event>
<event>
11    1  0.5718504E-012  0.4915712E+04  0.7818608E-02  0.7841643E-01
         -2   -1    0    0    0  501 -0.00000000000E+00  0.00000000000E+00  0.19274467909E+04  0.19274467909E+04  0.00000000000E+00 0. -1.
          2   -1    0    0  501    0  0.00000000000E+00 -0.00000000000E+00 -0.31342267023E+04  0.31342267023E+04  0.00000000000E+00 0.  1.
    9900016    2    1    2    0    0  0.59342500858E+03  0.77035916973E+03 -0.66510869962E+03  0.23377066186E+04  0.20191325269E+04 0.  0.
        -24    2    3    3    0    0  0.12043212370E+03  0.13968707877E+04 -0.29442859382E+03  0.14348692632E+04  0.80060675016E+02 0.  0.
        -15    1    1    2    0    0 -0.25306080031E+03  0.99877521963E+02 -0.10865002891E+04  0.11200438233E+04  0.00000000000E+00 0.  1.
        -15    1    3    3    0    0  0.41465910443E+03 -0.49567844640E+03 -0.24318009682E+03  0.69048957603E+03  0.00000000000E+00 0.  1.
         15    1    4    4    0    0  0.53589025509E+02  0.32726555403E+03 -0.46446577076E+02  0.33486088310E+03  0.00000000000E+00 0. -1.
         15    1    1    2    0    0 -0.70407475087E+03 -0.60193602455E+03  0.41191781885E+02  0.92722435007E+03  0.00000000000E+00 0. -1.
        -16    1    4    4    0    0  0.66843098194E+02  0.10696052337E+04 -0.24798201674E+03  0.11000083801E+04  0.00000000000E+00 0.  1.
         16    1    1    2    0    0  0.36371054260E+03 -0.26830066714E+03  0.50363729546E+03  0.67669870117E+03  0.00000000000E+00 0. -1.
    9900018    1    3    3    0    0  0.58333780446E+02 -0.13083317156E+03 -0.12750000898E+03  0.21234777937E+03  0.91187600000E+02 0.  0.
<mgrwt>
<rscale>  0 0.49157116E+04</rscale>
<asrwt>0</asrwt>
<pdfrwt beam="1">  1        2 0.48218872E+00 0.49157116E+04</pdfrwt>
<pdfrwt beam="2">  1       -2 0.29653028E+00 0.49157116E+04</pdfrwt>
<totfact> 0.34967420E-02</totfact>
</mgrwt>
</event>
<event>
11    1  0.4213936E-012  0.4016279E+04  0.7818608E-02  0.8001271E-01
          2   -1    0    0  501    0  0.00000000000E+00  0.00000000000E+00  0.12704014551E+04  0.12704014551E+04  0.00000000000E+00 0.  1.
         -2   -1    0    0    0  501 -0.00000000000E+00 -0.00000000000E+00 -0.31742912192E+04  0.31742912192E+04  0.00000000000E+00 0. -1.
    9900016    2    1    2    0    0  0.21479972295E+03  0.15595945375E+03 -0.54388196023E+02  0.20425188108E+04  0.20244660394E+04 0.  0.
        -24    2    3    3    0    0  0.82143259406E+02  0.88824468379E+03 -0.12303013865E+03  0.90404279986E+03  0.80192491096E+02 0.  0.
        -15    1    1    2    0    0  0.18176003719E+03  0.24572131172E+03  0.74780724752E+02  0.31465509840E+03  0.00000000000E+00 0.  1.
        -15    1    3    3    0    0  0.48862530569E+03 -0.38540564058E+03 -0.32303910235E+02  0.62316590067E+03  0.00000000000E+00 0.  1.
         15    1    4    4    0    0  0.76228829545E+01  0.46416886505E+03 -0.83233286980E+02  0.47163399336E+03  0.00000000000E+00 0. -1.
         15    1    1    2    0    0 -0.22654074355E+03  0.12293040988E+03 -0.60562973579E+03  0.65819447812E+03  0.00000000000E+00 0. -1.
        -16    1    4    4    0    0  0.74520376452E+02  0.42407581873E+03 -0.39796851670E+02  0.43240880651E+03  0.00000000000E+00 0.  1.
         16    1    1    2    0    0 -0.17001901659E+03 -0.52461117535E+03 -0.13186525570E+04  0.14293242870E+04  0.00000000000E+00 0. -1.
    9900018    1    3    3    0    0 -0.35596884214E+03 -0.34687958946E+03  0.10094585286E+03  0.51531011029E+03  0.91187600000E+02 0.  0.
<mgrwt>
<rscale>  0 0.40162790E+04</rscale>
<asrwt>0</asrwt>
<pdfrwt beam="1">  1        2 0.19544638E+00 0.40162790E+04</pdfrwt>
<pdfrwt beam="2">  1       -2 0.48835249E+00 0.40162790E+04</pdfrwt>
<totfact> 0.26490591E-02</totfact>
</mgrwt>
</event>
<event>
11    1  0.4213936E-012  0.5618403E+04  0.7818608E-02  0.7739604E-01
         -2   -1    0    0    0  501 -0.00000000000E+00  0.00000000000E+00  0.17602442739E+04  0.17602442739E+04  0.00000000000E+00 0.  1.
          2   -1    0    0  501    0  0.00000000000E+00 -0.00000000000E+00 -0.44832494461E+04  0.44832494461E+04  0.00000000000E+00 0. -1.
    9900016    2    1    2    0    0  0.49735598013E+03 -0.55946111204E+03 -0.10154920558E+04  0.23886359340E+04  0.20282992390E+04 0.  0.
         24    2    3    3    0    0 -0.25468438033E+03 -0.36506778729E+03 -0.13510518956E+04  0.14247297762E+04  0.79844145479E+02 0.  0.
        -15    1    1    2    0    0 -0.19345939519E+03 -0.50839604039E+03  0.83366938356E+02  0.55031183694E+03  0.00000000000E+00 0.  1.
        -15    1    4    4    0    0 -0.64518723851E+02 -0.15447563019E+03 -0.54965328078E+03  0.57458168707E+03  0.00000000000E+00 0.  1.
         15    1    3    3    0    0  0.63427287088E+03 -0.31821678118E+03  0.27369777401E+03  0.76057508903E+03  0.00000000000E+00 0. -1.
         15    1    1    2    0    0  0.47548628765E+03  0.10700422547E+04 -0.21486299189E+04  0.24469753094E+04  0.00000000000E+00 0. -1.
        -16    1    1    2    0    0 -0.77938287258E+03 -0.21851022884E+01  0.35774986417E+03  0.85757063969E+03  0.00000000000E+00 0.  1.
         16    1    4    4    0    0 -0.19016565648E+03 -0.21059215710E+03 -0.80139861482E+03  0.85014808908E+03  0.00000000000E+00 0. -1.
    9900018    1    3    3    0    0  0.11776748958E+03  0.12382345642E+03  0.61862065765E+02  0.20333106880E+03  0.91187600000E+02 0.  0.
<mgrwt>
<rscale>  0 0.56184034E+04</rscale>
<asrwt>0</asrwt>
<pdfrwt beam="1">  1        2 0.68973068E+00 0.56184034E+04</pdfrwt>
<pdfrwt beam="2">  1       -2 0.27080681E+00 0.56184034E+04</pdfrwt>
<totfact> 0.42000385E-03</totfact>
</mgrwt>
</event>
<event>
11    1  0.4213936E-012  0.3987389E+04  0.7818608E-02  0.8007095E-01
          2   -1    0    0  501    0  0.00000000000E+00  0.00000000000E+00  0.98372031735E+03  0.98372031735E+03  0.00000000000E+00 0.  1.
         -2   -1    0    0    0  501 -0.00000000000E+00 -0.00000000000E+00 -0.40405966867E+04  0.40405966867E+04  0.00000000000E+00 0. -1.
    9900016    2    1    2    0    0  0.23453369464E+03  0.87437296290E+03 -0.18049344267E+04  0.28526429945E+04  0.20150061134E+04 0.  0.
         24    2    3    3    0    0 -0.45443499961E+03  0.62577609059E+03 -0.17761443262E+04  0.19388308389E+04  0.79179984680E+02 0.  0.
        -15    1    1    2    0    0 -0.19068098007E+03 -0.12323017208E+03 -0.54848435449E+03  0.59361603633E+03  0.00000000000E+00 0.  1.
        -15    1    4    4    0    0 -0.44483742113E+03  0.58968860292E+03 -0.17130050465E+04  0.18654756147E+04  0.00000000000E+00 0.  1.
         15    1    1    2    0    0 -0.59550356672E+02 -0.96216647650E+03 -0.87787726550E+03  0.13038324535E+04  0.00000000000E+00 0. -1.
         15    1    3    3    0    0  0.52071352766E+03 -0.32060967265E+02 -0.16596808498E+03  0.54746313916E+03  0.00000000000E+00 0. -1.
        -16    1    1    2    0    0  0.15697642097E+02  0.21102368568E+03  0.17441967728E+03  0.27422551980E+03  0.00000000000E+00 0.  1.
         16    1    4    4    0    0 -0.95975784712E+01  0.36087487674E+02 -0.63139279687E+02  0.73355224207E+02  0.00000000000E+00 0. -1.
    9900018    1    3    3    0    0  0.16825516659E+03  0.28065783957E+03  0.13717798450E+03  0.36634901640E+03  0.91187600000E+02 0.  0.
<mgrwt>
<rscale>  0 0.39873886E+04</rscale>
<asrwt>0</asrwt>
<pdfrwt beam="1">  1        2 0.15134159E+00 0.39873886E+04</pdfrwt>
<pdfrwt beam="2">  1       -2 0.62163024E+00 0.39873886E+04</pdfrwt>
<totfact> 0.85651500E-03</totfact>
</mgrwt>
</event>
<event>
11    1  0.4213936E-012  0.3582375E+04  0.7818608E-02  0.8294484E-01
         -2   -1    0    0    0  501 -0.00000000000E+00  0.00000000000E+00  0.20611926092E+04  0.20611926092E+04  0.00000000000E+00 0.  1.
          2   -1    0    0  501    0  0.00000000000E+00 -0.00000000000E+00 -0.30190538119E+04  0.30190538119E+04  0.00000000000E+00 0. -1.
    9900016    2    1    2    0    0  0.32040803409E+03  0.80836187797E+03 -0.83056599010E+03  0.23454627359E+04  0.20137639751E+04 0.  0.
         24    2    3    3    0    0 -0.46716267339E+03  0.70130352270E+03  0.31071357467E+03  0.90173942681E+03  0.80768025866E+02 0.  0.
        -15    1    1    2    0    0 -0.94573769384E+03  0.21743214216E+03 -0.40294999521E+03  0.10507450788E+04  0.00000000000E+00 0.  1.
        -15    1    4    4    0    0 -0.22483981900E+03  0.40099352569E+03  0.14811713657E+03  0.48299838302E+03  0.00000000000E+00 0.  1.
         15    1    1    2    0    0 -0.70432115306E+01  0.15445953046E+03  0.30802823184E+03  0.34465743135E+03  0.00000000000E+00 0. -1.
         15    1    3    3    0    0  0.38039038181E+03 -0.12439013564E+03 -0.61060709629E+03  0.73007586897E+03  0.00000000000E+00 0. -1.
        -16    1    1    2    0    0  0.63237287128E+03 -0.11802535506E+04 -0.32373449246E+02  0.13393811751E+04  0.00000000000E+00 0.  1.
         16    1    4    4    0    0 -0.24232285439E+03  0.30030999701E+03  0.16259643811E+03  0.41874104379E+03  0.00000000000E+00 0. -1.
    9900018    1    3    3    0    0  0.40718032568E+03  0.23144849091E+03 -0.53067246849E+03  0.71364744011E+03  0.91187600000E+02 0.  0.
<mgrwt>
<rscale>  0 0.28284686E+04</rscale>
<asrwt>0</asrwt>
<pdfrwt beam="1">  1        2 0.46446982E+00 0.35823749E+04</pdfrwt>
<pdfrwt beam="2">  1       -2 0.31710655E+00 0.35823749E+04</pdfrwt>
<totfact> 0.32961969E-02</totfact>
</mgrwt>
</event>
<event>
11    1  0.4213936E-012  0.5525090E+04  0.7818608E-02  0.7752246E-01
          2   -1    0    0  501    0  0.00000000000E+00  0.00000000000E+00  0.36646178891E+04  0.36646178891E+04  0.00000000000E+00 0. -1.
         -2   -1    0    0    0  501 -0.00000000000E+00 -0.00000000000E+00 -0.20825238354E+04  0.20825238354E+04  0.00000000000E+00 0.  1.
    9900016    2    1    2    0    0  0.35767966238E+03  0.10226429227E+04  0.98117720760E+03  0.24987224294E+04  0.20266158437E+04 0.  0.
         24    2    3    3    0    0  0.65866192126E+03  0.13045194263E+04  0.12176444803E+04  0.19038216167E+04  0.79197271047E+02 0.  0.
        -15    1    1    2    0    0 -0.40276427427E+03  0.41588570407E+03  0.12550100582E+03  0.59239385711E+03  0.00000000000E+00 0.  1.
        -15    1    4    4    0    0  0.19489630358E+03  0.40576492571E+03  0.42182162760E+03  0.61689807067E+03  0.00000000000E+00 0.  1.
         15    1    3    3    0    0 -0.13840736448E+03 -0.14504687330E+03 -0.29471669349E+03  0.35644511978E+03  0.00000000000E+00 0. -1.
         15    1    1    2    0    0  0.93074808902E+03 -0.30601191890E+03 -0.29723072541E+03  0.10238561441E+04  0.00000000000E+00 0. -1.
        -16    1    1    2    0    0 -0.88566347714E+03 -0.11325167078E+04  0.77264656567E+03  0.16321692938E+04  0.00000000000E+00 0.  1.
         16    1    4    4    0    0  0.46376561768E+03  0.89875450063E+03  0.79582285268E+03  0.12869235461E+04  0.00000000000E+00 0. -1.
    9900018    1    3    3    0    0 -0.16257489440E+03 -0.13682963038E+03  0.58249420805E+02  0.23845569286E+03  0.91187600000E+02 0.  0.
<mgrwt>
<rscale>  0 0.55250897E+04</rscale>
<asrwt>0</asrwt>
<pdfrwt beam="1">  1        2 0.56378737E+00 0.55250897E+04</pdfrwt>
<pdfrwt beam="2">  1       -2 0.32038828E+00 0.55250897E+04</pdfrwt>
<totfact> 0.10277375E-02</totfact>
</mgrwt>
</event>
<event>
11    1  0.4213936E-012  0.3087543E+04  0.7818608E-02  0.8325772E-01
         -2   -1    0    0    0  501 -0.00000000000E+00  0.00000000000E+00  0.21314765622E+04  0.21314765622E+04  0.00000000000E+00 0.  1.
          2   -1    0    0  501    0  0.00000000000E+00 -0.00000000000E+00 -0.28987569681E+04  0.28987569681E+04  0.00000000000E+00 0. -1.
    9900016    2    1    2    0    0 -0.11229735059E+02 -0.15647680456E+03 -0.19643771209E+03  0.20265416575E+04  0.20108884150E+04 0.  0.
        -24    2    3    3    0    0  0.84897017882E+02 -0.11220743873E+03  0.83172138121E+03  0.84722646862E+03  0.78957078287E+02 0.  0.
        -15    1    1    2    0    0  0.30109049632E+03 -0.11838373112E+04 -0.23626107855E+02  0.12217546642E+04  0.00000000000E+00 0.  1.
        -15    1    3    3    0    0  0.19262857780E+02 -0.23922595353E+03 -0.83246547152E+03  0.86637109589E+03  0.00000000000E+00 0.  1.
         15    1    4    4    0    0  0.59353255029E+02 -0.11682619812E+03  0.60527757578E+03  0.61929969578E+03  0.00000000000E+00 0. -1.
         15    1    1    2    0    0  0.36565968780E+03  0.50190412527E+03 -0.29854394914E+03  0.68901614481E+03  0.00000000000E+00 0. -1.
        -16    1    4    4    0    0  0.25543762853E+02  0.46187593868E+01  0.22644380543E+03  0.22792677284E+03  0.00000000000E+00 0.  1.
         16    1    1    2    0    0 -0.65552044906E+03  0.83840999051E+03 -0.24867263677E+03  0.10929210638E+04  0.00000000000E+00 0. -1.
    9900018    1    3    3    0    0 -0.11538961072E+03  0.19495658771E+03 -0.19569362178E+03  0.31294409301E+03  0.91187600000E+02 0.  0.
<mgrwt>
<rscale>  0 0.27286404E+04</rscale>
<asrwt>0</asrwt>
<pdfrwt beam="1">  1        2 0.44596261E+00 0.30875434E+04</pdfrwt>
<pdfrwt beam="2">  1       -2 0.32791947E+00 0.30875434E+04</pdfrwt>
<totfact> 0.34648360E-02</totfact>
</mgrwt>
</event>
<event>
11    1  0.4213936E-012  0.3417741E+04  0.7818608E-02  0.8223406E-01
         -2   -1    0    0    0  501 -0.00000000000E+00  0.00000000000E+00  0.30253318009E+04  0.30253318009E+04  0.00000000000E+00 0.  1.
          2   -1    0    0  501    0  0.00000000000E+00 -0.00000000000E+00 -0.31396737769E+04  0.31396737769E+04  0.00000000000E+00 0. -1.
    9900016    2    1    2    0    0 -0.29676243460E+02 -0.78573211022E+03  0.55929812791E+01  0.21686652987E+04  0.20210943244E+04 0.  0.
         24    2    3    3    0    0  0.54701528491E+03 -0.37982147646E+03  0.66536836802E+03  0.94465673701E+03  0.78557047534E+02 0.  0.
        -15    1    1    2    0    0 -0.52856634333E+03  0.10915939654E+03 -0.67733866520E+03  0.86607495087E+03  0.00000000000E+00 0.  1.
        -15    1    4    4    0    0  0.34858388651E+03 -0.26337202228E+03  0.38826049217E+03  0.58448418100E+03  0.00000000000E+00 0.  1.
         15    1    3    3    0    0 -0.43417807190E+03 -0.38329859174E+03 -0.81058865016E+03  0.99623409313E+03  0.00000000000E+00 0. -1.
         15    1    1    2    0    0  0.14333162289E+04  0.69492377809E+03 -0.57988484509E+03  0.16951639752E+04  0.00000000000E+00 0. -1.
        -16    1    1    2    0    0 -0.87507364206E+03 -0.18351064412E+02  0.11372885530E+04  0.14351013530E+04  0.00000000000E+00 0.  1.
         16    1    4    4    0    0  0.19843139840E+03 -0.11644945418E+03  0.27710787585E+03  0.36017255601E+03  0.00000000000E+00 0. -1.
    9900018    1    3    3    0    0 -0.14251345647E+03 -0.22612042009E+02  0.15081326342E+03  0.22777446858E+03  0.91187600000E+02 0.  0.
<mgrwt>
<rscale>  0 0.30722093E+04</rscale>
<asrwt>0</asrwt>
<pdfrwt beam="1">  1        2 0.48302673E+00 0.34177413E+04</pdfrwt>
<pdfrwt beam="2">  1       -2 0.46543566E+00 0.34177413E+04</pdfrwt>
<totfact> 0.29901435E-03</totfact>
</mgrwt>
</event>
<event>
11    1  0.4213936E-012  0.5617104E+04  0.7818608E-02  0.7739778E-01
         -2   -1    0    0    0  501 -0.00000000000E+00  0.00000000000E+00  0.17966930541E+04  0.17966930541E+04  0.00000000000E+00 0.  1.
          2   -1    0    0  501    0  0.00000000000E+00 -0.00000000000E+00 -0.43902682152E+04  0.43902682152E+04  0.00000000000E+00 0. -1.
    9900016    2    1    2    0    0  0.16786437922E+04 -0.22277491186E+03 -0.23007269612E+04  0.35064561379E+04  0.20333264506E+04 0.  0.
        -24    2    3    3    0    0  0.94577524876E+02  0.23358283832E+03  0.15783206951E+03  0.30903260291E+03  0.84168503162E+02 0.  0.
        -15    1    3    3    0    0  0.17039183294E+04 -0.49588059259E+03 -0.18271405061E+04  0.25470920015E+04  0.00000000000E+00 0.  1.
        -15    1    1    2    0    0  0.12278169537E+03 -0.56445477303E+03  0.13824680642E+03  0.59396693090E+03  0.00000000000E+00 0.  1.
         15    1    1    2    0    0 -0.72260170819E+03  0.81950933461E+02  0.67852648750E+00  0.72723424326E+03  0.00000000000E+00 0. -1.
         15    1    4    4    0    0  0.64739134478E+02  0.10050536989E+03  0.11550316852E+03  0.16623317012E+03  0.00000000000E+00 0. -1.
        -16    1    4    4    0    0  0.29838390399E+02  0.13307746843E+03  0.42328900987E+02  0.14279943279E+03  0.00000000000E+00 0.  1.
         16    1    1    2    0    0 -0.10788237794E+04  0.70527875142E+03 -0.43177353285E+03  0.13593039572E+04  0.00000000000E+00 0. -1.
    9900018    1    3    3    0    0 -0.11985206200E+03  0.39522842416E+02 -0.63141852460E+03  0.65033153348E+03  0.91187600000E+02 0.  0.
<mgrwt>
<rscale>  0 0.56171040E+04</rscale>
<asrwt>0</asrwt>
<pdfrwt beam="1">  1        2 0.67542587E+00 0.56171040E+04</pdfrwt>
<pdfrwt beam="2">  1       -2 0.27641432E+00 0.56171040E+04</pdfrwt>
<totfact> 0.47674016E-03</totfact>
</mgrwt>
</event>
<event>
11    1  0.4213936E-012  0.3209441E+04  0.7818608E-02  0.8409467E-01
         -2   -1    0    0    0  501 -0.00000000000E+00  0.00000000000E+00  0.23769876424E+04  0.23769876424E+04  0.00000000000E+00 0.  1.
          2   -1    0    0  501    0  0.00000000000E+00 -0.00000000000E+00 -0.20315721655E+04  0.20315721655E+04  0.00000000000E+00 0. -1.
    9900016    2    1    2    0    0 -0.67843673499E+03  0.24270847384E+03 -0.30494746292E+03  0.21648537668E+04  0.20185180380E+04 0.  0.
        -24    2    3    3    0    0  0.20834588795E+03 -0.11289209197E+03 -0.79601740337E+03  0.83424392243E+03  0.78527588742E+02 0.  0.
        -15    1    3    3    0    0 -0.79546761485E+03 -0.51525938270E+02  0.22839955193E+03  0.82921047021E+03  0.00000000000E+00 0.  1.
        -15    1    1    2    0    0 -0.49286076836E+02 -0.77616858831E+02  0.18314054373E+03  0.20492426138E+03  0.00000000000E+00 0. -1.
         15    1    1    2    0    0  0.39072534389E+03 -0.79903786718E+03 -0.34564280667E+03  0.95425193600E+03  0.00000000000E+00 0.  1.
         15    1    4    4    0    0  0.12307354527E+03 -0.28370843169E+02 -0.34051528456E+03  0.36318405982E+03  0.00000000000E+00 0. -1.
        -16    1    4    4    0    0  0.85272342672E+02 -0.84521248798E+02 -0.45550211881E+03  0.47105986262E+03  0.00000000000E+00 0.  1.
         16    1    1    2    0    0  0.33699746794E+03  0.63394625217E+03  0.81286520277E+03  0.10845298437E+04  0.00000000000E+00 0. -1.
    9900018    1    3    3    0    0 -0.91315008086E+02  0.40712650408E+03  0.26267038852E+03  0.50139937418E+03  0.91187600000E+02 0.  0.
<mgrwt>
<rscale>  0 0.24818866E+04</rscale>
<asrwt>0</asrwt>
<pdfrwt beam="1">  1        2 0.31254956E+00 0.32094413E+04</pdfrwt>
<pdfrwt beam="2">  1       -2 0.36569041E+00 0.32094413E+04</pdfrwt>
<totfact> 0.64308782E-02</totfact>
</mgrwt>
</event>
<event>
11    1  0.4213936E-012  0.4304928E+04  0.7818608E-02  0.7945708E-01
          1   -1    0    0  501    0  0.00000000000E+00  0.00000000000E+00  0.19076561687E+04  0.19076561687E+04  0.00000000000E+00 0. -1.
         -1   -1    0    0    0  501 -0.00000000000E+00 -0.00000000000E+00 -0.24286875991E+04  0.24286875991E+04  0.00000000000E+00 0.  1.
    9900016    2    1    2    0    0  0.50530601688E+03  0.12990117689E+04 -0.83314356670E+03  0.25967173041E+04  0.20263382759E+04 0.  0.
        -24    2    3    3    0    0  0.64815513739E+03  0.68332717365E+03  0.23933920445E+03  0.97475121620E+03  0.76259886707E+02 0.  0.
        -15    1    1    2    0    0 -0.44658918011E+02  0.15191118452E+03  0.43072985251E+02  0.16409359829E+03  0.00000000000E+00 0.  1.
        -15    1    3    3    0    0 -0.47018533123E+03 -0.84375155222E+01 -0.62510053291E+03  0.78223788812E+03  0.00000000000E+00 0.  1.
         15    1    4    4    0    0  0.49417698166E+02  0.85860379302E+02  0.24938474067E+02  0.10215694355E+03  0.00000000000E+00 0. -1.
         15    1    1    2    0    0 -0.18903211763E+03 -0.36130418111E+03  0.18980922768E+03  0.44977927442E+03  0.00000000000E+00 0. -1.
        -16    1    4    4    0    0  0.59873743923E+03  0.59746679434E+03  0.21440073038E+03  0.87259427265E+03  0.00000000000E+00 0.  1.
         16    1    1    2    0    0 -0.27161498123E+03 -0.10896187723E+04  0.79229923378E+02  0.11257535911E+04  0.00000000000E+00 0. -1.
    9900018    1    3    3    0    0  0.32733621072E+03  0.62412211079E+03 -0.44738223824E+03  0.83972819978E+03  0.91187600000E+02 0.  0.
<mgrwt>
<rscale>  0 0.43049278E+04</rscale>
<asrwt>0</asrwt>
<pdfrwt beam="1">  1        1 0.29348557E+00 0.43049278E+04</pdfrwt>
<pdfrwt beam="2">  1       -1 0.37364424E+00 0.43049278E+04</pdfrwt>
<totfact> 0.28374069E-02</totfact>
</mgrwt>
</event>
<event>
11    1  0.4213936E-012  0.8407896E+04  0.7818608E-02  0.7447440E-01
          2   -1    0    0  501    0  0.00000000000E+00  0.00000000000E+00  0.51876066339E+04  0.51876066339E+04  0.00000000000E+00 0.  1.
         -2   -1    0    0    0  501 -0.00000000000E+00 -0.00000000000E+00 -0.34068074152E+04  0.34068074152E+04  0.00000000000E+00 0. -1.
    9900016    2    1    2    0    0  0.99607308975E+03  0.46807630843E+03  0.13453529987E+04  0.26707855071E+04  0.20277730403E+04 0.  0.
         24    2    3    3    0    0 -0.44043705734E+03 -0.14650294044E+02 -0.18362991676E+03  0.48369608921E+03  0.77733697941E+02 0.  0.
        -15    1    4    4    0    0 -0.21660443310E+03 -0.40684507561E+02 -0.69435005219E+02  0.23107126508E+03  0.00000000000E+00 0.  1.
        -15    1    1    2    0    0  0.13066283179E+02  0.14655454447E+04  0.35851271875E+03  0.15088159423E+04  0.00000000000E+00 0.  1.
         15    1    1    2    0    0 -0.49509840525E+03 -0.26105224638E+04 -0.11720327428E+04  0.29040679597E+04  0.00000000000E+00 0. -1.
         15    1    3    3    0    0  0.81290902697E+03  0.13766432428E+03  0.99310987242E+03  0.12907516303E+04  0.00000000000E+00 0. -1.
        -16    1    1    2    0    0 -0.51404096768E+03  0.67690071064E+03  0.12489662440E+04  0.15107446400E+04  0.00000000000E+00 0.  1.
         16    1    4    4    0    0 -0.22383262424E+03  0.26034213517E+02 -0.11419491155E+03  0.25262482413E+03  0.00000000000E+00 0. -1.
    9900018    1    3    3    0    0  0.62360112012E+03  0.34506227820E+03  0.53587304301E+03  0.89633778759E+03  0.91187600000E+02 0.  0.
<mgrwt>
<rscale>  0 0.84078955E+04</rscale>
<asrwt>0</asrwt>
<pdfrwt beam="1">  1        2 0.79809333E+00 0.84078955E+04</pdfrwt>
<pdfrwt beam="2">  1       -2 0.52412422E+00 0.84078955E+04</pdfrwt>
<totfact> 0.12640037E-05</totfact>
</mgrwt>
</event>
<event>
11    1  0.4213936E-012  0.4196670E+04  0.7818608E-02  0.7966006E-01
         -2   -1    0    0    0  501 -0.00000000000E+00  0.00000000000E+00  0.25004403771E+04  0.25004403771E+04  0.00000000000E+00 0. -1.
          2   -1    0    0  501    0  0.00000000000E+00 -0.00000000000E+00 -0.17608938403E+04  0.17608938403E+04  0.00000000000E+00 0.  1.
    9900016    2    1    2    0    0 -0.23980271026E+03 -0.47918913870E+03 -0.23878691352E+03  0.21153699810E+04  0.20323984344E+04 0.  0.
         24    2    3    3    0    0 -0.64652685035E+03  0.18773841995E+03  0.58407342823E+03  0.89469797692E+03  0.78102610634E+02 0.  0.
        -15    1    4    4    0    0 -0.58325708986E+03  0.16079735686E+03  0.49220202044E+03  0.77994067196E+03  0.00000000000E+00 0.  1.
        -15    1    1    2    0    0  0.54313043591E+03  0.19269800350E+03  0.26973956035E+03  0.63630387503E+03  0.00000000000E+00 0.  1.
         15    1    1    2    0    0 -0.44482448240E+03  0.25323317853E+03  0.10337297028E+04  0.11535133121E+04  0.00000000000E+00 0. -1.
         15    1    3    3    0    0  0.23960735164E+03 -0.10104298252E+03 -0.44097324042E+03  0.51193629100E+03  0.00000000000E+00 0. -1.
        -16    1    1    2    0    0  0.14149675676E+03  0.33257956675E+02 -0.32513581285E+03  0.35614704920E+03  0.00000000000E+00 0.  1.
         16    1    4    4    0    0 -0.63269760489E+02  0.26941063089E+02  0.91871407789E+02  0.11475730496E+03  0.00000000000E+00 0. -1.
    9900018    1    3    3    0    0  0.16711678845E+03 -0.56588457614E+03 -0.38188710133E+03  0.70873571311E+03  0.91187600000E+02 0.  0.
<mgrwt>
<rscale>  0 0.41966701E+04</rscale>
<asrwt>0</asrwt>
<pdfrwt beam="1">  1        2 0.27090675E+00 0.41966701E+04</pdfrwt>
<pdfrwt beam="2">  1       -2 0.38468313E+00 0.41966701E+04</pdfrwt>
<totfact> 0.65754998E-02</totfact>
</mgrwt>
</event>
<event>
11    1  0.4213936E-012  0.3823801E+04  0.7818608E-02  0.8252667E-01
         -2   -1    0    0    0  501 -0.00000000000E+00  0.00000000000E+00  0.53496153698E+04  0.53496153698E+04  0.00000000000E+00 0.  1.
          2   -1    0    0  501    0  0.00000000000E+00 -0.00000000000E+00 -0.23461405126E+04  0.23461405126E+04  0.00000000000E+00 0. -1.
    9900016    2    1    2    0    0 -0.13032048449E+04 -0.11499393084E+04  0.20689526245E+04  0.33687235446E+04  0.20117231609E+04 0.  0.
         24    2    3    3    0    0  0.21213494382E+03 -0.98055235970E+03  0.63535556916E+03  0.11901819568E+04  0.79826227418E+02 0.  0.
        -15    1    1    2    0    0  0.72336253816E+03  0.40911783127E+03 -0.39835057152E+03  0.92158230197E+03  0.00000000000E+00 0.  1.
        -15    1    4    4    0    0  0.15648084390E+03 -0.77785027461E+03  0.46531138799E+03  0.91981084578E+03  0.00000000000E+00 0.  1.
         15    1    1    2    0    0 -0.14680522063E+03  0.34163365959E+03 -0.92673170966E+03  0.99854744097E+03  0.00000000000E+00 0. -1.
         15    1    3    3    0    0 -0.62154024379E+03  0.20901902776E+03  0.69454344119E+03  0.95519203321E+03  0.00000000000E+00 0. -1.
        -16    1    1    2    0    0  0.72664752734E+03  0.39918781756E+03  0.22596045138E+04  0.24069025949E+04  0.00000000000E+00 0.  1.
         16    1    4    4    0    0  0.55654099915E+02 -0.20270208509E+03  0.17004418118E+03  0.27037111105E+03  0.00000000000E+00 0. -1.
    9900018    1    3    3    0    0 -0.89379954490E+03 -0.37840597648E+03  0.73905361419E+03  0.12233495545E+04  0.91187600000E+02 0.  0.
<mgrwt>
<rscale>  0 0.29689013E+04</rscale>
<asrwt>0</asrwt>
<pdfrwt beam="1">  1        2 0.36094470E+00 0.38238005E+04</pdfrwt>
<pdfrwt beam="2">  1       -2 0.82301775E+00 0.38238005E+04</pdfrwt>
<totfact> 0.17141081E-04</totfact>
</mgrwt>
</event>
<event>
11    1  0.4213936E-012  0.3393855E+04  0.7818608E-02  0.8368634E-01
          2   -1    0    0  501    0  0.00000000000E+00  0.00000000000E+00  0.39245637464E+04  0.39245637464E+04  0.00000000000E+00 0.  1.
         -2   -1    0    0    0  501 -0.00000000000E+00 -0.00000000000E+00 -0.14079543961E+04  0.14079543961E+04  0.00000000000E+00 0. -1.
    9900016    2    1    2    0    0  0.63414005005E+03  0.51501619918E+03  0.70363671128E+03  0.22895961415E+04  0.20198441973E+04 0.  0.
         24    2    3    3    0    0  0.73676835173E+03 -0.20821253465E+03 -0.25493010278E+03  0.81020777768E+03  0.72575629525E+02 0.  0.
        -15    1    1    2    0    0 -0.58697255407E+03 -0.25440118510E+03  0.14826006252E+03  0.65668697897E+03  0.00000000000E+00 0.  1.
        -15    1    4    4    0    0  0.48149198518E+03 -0.12067430266E+03 -0.19789949893E+03  0.53437910774E+03  0.00000000000E+00 0.  1.
         15    1    1    2    0    0 -0.17706868828E+02  0.51342993210E+03 -0.38477243532E+02  0.51517407413E+03  0.00000000000E+00 0. -1.
         15    1    3    3    0    0 -0.39074437499E+03  0.55562627844E+03  0.31464725279E+03  0.74860177770E+03  0.00000000000E+00 0. -1.
        -16    1    1    2    0    0 -0.29460627157E+02 -0.77404494619E+03  0.17031898201E+04  0.18710609478E+04  0.00000000000E+00 0.  1.
         16    1    4    4    0    0  0.25527636656E+03 -0.87538231998E+02 -0.57030603846E+02  0.27582866994E+03  0.00000000000E+00 0. -1.
    9900018    1    3    3    0    0  0.28811607331E+03  0.16760245539E+03  0.64391956126E+03  0.73078658617E+03  0.91187600000E+02 0.  0.
<mgrwt>
<rscale>  0 0.25987259E+04</rscale>
<asrwt>0</asrwt>
<pdfrwt beam="1">  1        2 0.60377903E+00 0.33938553E+04</pdfrwt>
<pdfrwt beam="2">  1       -2 0.21660837E+00 0.33938553E+04</pdfrwt>
<totfact> 0.32499693E-02</totfact>
</mgrwt>
</event>
<event>
11    1  0.4213936E-012  0.4695731E+04  0.7818608E-02  0.7877238E-01
         -2   -1    0    0    0  501 -0.00000000000E+00  0.00000000000E+00  0.19108195283E+04  0.19108195283E+04  0.00000000000E+00 0.  1.
          2   -1    0    0  501    0  0.00000000000E+00 -0.00000000000E+00 -0.28848733652E+04  0.28848733652E+04  0.00000000000E+00 0. -1.
    9900016    2    1    2    0    0  0.70285465802E+02 -0.14468750652E+02 -0.70970908106E+03  0.21428128940E+04  0.20205966267E+04 0.  0.
         24    2    3    3    0    0  0.58991842350E+03 -0.43407845227E+03 -0.10694291657E+04  0.12986041818E+04  0.79159532161E+02 0.  0.
        -15    1    1    2    0    0  0.61456995257E+03 -0.21036173573E+03 -0.39911519579E+03  0.76239177984E+03  0.00000000000E+00 0.  1.
        -15    1    4    4    0    0  0.41030783225E+03 -0.31241842077E+03 -0.81239551640E+03  0.96225997626E+03  0.00000000000E+00 0.  1.
         15    1    3    3    0    0 -0.37274555442E+03  0.18684893744E+03  0.49987354500E+02  0.41994107846E+03  0.00000000000E+00 0. -1.
         15    1    1    2    0    0 -0.10753366030E+04 -0.16086559100E+03  0.53442909000E+03  0.12115448817E+04  0.00000000000E+00 0. -1.
        -16    1    1    2    0    0  0.39048118461E+03  0.38569607738E+03 -0.39965864997E+03  0.67894333795E+03  0.00000000000E+00 0.  1.
         16    1    4    4    0    0  0.17961059125E+03 -0.12166003151E+03 -0.25703364926E+03  0.33634420555E+03  0.00000000000E+00 0. -1.
    9900018    1    3    3    0    0 -0.14688740327E+03  0.23276076418E+03  0.30973273010E+03  0.42426763378E+03  0.91187600000E+02 0.  0.
<mgrwt>
<rscale>  0 0.46957310E+04</rscale>
<asrwt>0</asrwt>
<pdfrwt beam="1">  1        2 0.44382667E+00 0.46957310E+04</pdfrwt>
<pdfrwt beam="2">  1       -2 0.29397223E+00 0.46957310E+04</pdfrwt>
<totfact> 0.52952095E-02</totfact>
</mgrwt>
</event>
<event>
11    1  0.4213936E-012  0.6566212E+04  0.7818608E-02  0.7623905E-01
         -2   -1    0    0    0  501 -0.00000000000E+00  0.00000000000E+00  0.51231041413E+04  0.51231041413E+04  0.00000000000E+00 0. -1.
          2   -1    0    0  501    0  0.00000000000E+00 -0.00000000000E+00 -0.21039558834E+04  0.21039558834E+04  0.00000000000E+00 0.  1.
    9900016    2    1    2    0    0  0.12873734715E+04 -0.11630410428E+03  0.27919992841E+04  0.36737746544E+04  0.20076112942E+04 0.  0.
         24    2    3    3    0    0  0.31472798283E+03  0.73391288902E+03  0.10430078052E+04  0.13155355707E+04  0.71321274255E+02 0.  0.
        -15    1    1    2    0    0 -0.25960177872E+03  0.30756377582E+03 -0.29806575863E+03  0.50083106551E+03  0.00000000000E+00 0.  1.
        -15    1    4    4    0    0  0.25528477009E+03  0.56001317272E+03  0.75773342987E+03  0.97618902790E+03  0.00000000000E+00 0.  1.
         15    1    1    2    0    0 -0.89677485966E+03 -0.64894577373E+03  0.15603349936E+04  0.19131076965E+04  0.00000000000E+00 0. -1.
         15    1    3    3    0    0  0.51425976936E+03 -0.91482435592E+03  0.14825162050E+04  0.18163757900E+04  0.00000000000E+00 0. -1.
        -16    1    1    2    0    0 -0.13099683315E+03  0.45768610219E+03 -0.10351202613E+04  0.11393466083E+04  0.00000000000E+00 0.  1.
         16    1    4    4    0    0  0.59443212743E+02  0.17389971630E+03  0.28527437536E+03  0.33934654280E+03  0.00000000000E+00 0. -1.
    9900018    1    3    3    0    0  0.45838571934E+03  0.64607362617E+02  0.26647527390E+03  0.54186329364E+03  0.91187600000E+02 0.  0.
<mgrwt>
<rscale>  0 0.65662120E+04</rscale>
<asrwt>0</asrwt>
<pdfrwt beam="1">  1        2 0.32368552E+00 0.65662120E+04</pdfrwt>
<pdfrwt beam="2">  1       -2 0.78816986E+00 0.65662120E+04</pdfrwt>
<totfact> 0.34980752E-04</totfact>
</mgrwt>
</event>
<event>
11    1  0.4213936E-012  0.4809791E+04  0.7818608E-02  0.7858538E-01
          2   -1    0    0  501    0  0.00000000000E+00  0.00000000000E+00  0.15735986040E+04  0.15735986040E+04  0.00000000000E+00 0.  1.
         -2   -1    0    0    0  501 -0.00000000000E+00 -0.00000000000E+00 -0.36753472893E+04  0.36753472893E+04  0.00000000000E+00 0. -1.
    9900016    2    1    2    0    0  0.37546420902E+03 -0.33662051429E+03  0.14278175171E+03  0.21145163611E+04  0.20485375442E+04 0.  0.
        -24    2    3    3    0    0  0.10583738638E+03 -0.80260412596E+03  0.16151746408E+03  0.82918969584E+03  0.78055910171E+02 0.  0.
        -15    1    3    3    0    0 -0.19253783557E+03 -0.19414691348E+03  0.30723722975E+03  0.41128889784E+03  0.00000000000E+00 0.  1.
        -15    1    1    2    0    0 -0.93361637248E+03 -0.37607697979E+02 -0.21492509146E+03  0.95877352115E+03  0.00000000000E+00 0.  1.
         15    1    1    2    0    0  0.40857756869E+03  0.22252605735E+03 -0.78153008434E+03  0.90952886076E+03  0.00000000000E+00 0. -1.
         15    1    4    4    0    0  0.39553500312E+02 -0.53268056820E+03  0.12767557477E+03  0.54919406362E+03  0.00000000000E+00 0. -1.
        -16    1    4    4    0    0  0.66283886070E+02 -0.26992355776E+03  0.33841889307E+02  0.27999563222E+03  0.00000000000E+00 0.  1.
         16    1    1    2    0    0  0.14957459477E+03  0.15170215492E+03 -0.12480752612E+04  0.12661271503E+04  0.00000000000E+00 0. -1.
    9900018    1    3    3    0    0  0.46216465821E+03  0.66013052515E+03 -0.32597294213E+03  0.87403776745E+03  0.91187600000E+02 0.  0.
<mgrwt>
<rscale>  0 0.48097906E+04</rscale>
<asrwt>0</asrwt>
<pdfrwt beam="1">  1        2 0.24209209E+00 0.48097906E+04</pdfrwt>
<pdfrwt beam="2">  1       -2 0.56543804E+00 0.48097906E+04</pdfrwt>
<totfact> 0.61589967E-03</totfact>
</mgrwt>
</event>
<event>
11    1  0.4213936E-012  0.2718069E+04  0.7818608E-02  0.8981950E-01
          2   -1    0    0  501    0  0.00000000000E+00  0.00000000000E+00  0.13205981859E+04  0.13205981859E+04  0.00000000000E+00 0. -1.
         -2   -1    0    0    0  501 -0.00000000000E+00 -0.00000000000E+00 -0.16720228872E+04  0.16720228872E+04  0.00000000000E+00 0.  1.
    9900016    2    1    2    0    0 -0.35820981897E+03  0.60249407804E+02  0.18412795352E+03  0.20036964741E+04  0.19618746625E+04 0.  0.
         24    2    3    3    0    0  0.88677110255E+02  0.82488071967E+03  0.43764676881E+03  0.94139728321E+03  0.80014492608E+02 0.  0.
        -15    1    1    2    0    0  0.79835241635E+02 -0.26450185152E+02  0.16446516106E+02  0.85695775821E+02  0.00000000000E+00 0.  1.
        -15    1    4    4    0    0  0.15559413894E+02  0.12763045740E+03  0.36435248047E+02  0.13363815442E+03  0.00000000000E+00 0.  1.
         15    1    3    3    0    0 -0.44250878389E+03 -0.71413822930E+03 -0.35929700978E+03  0.91372959654E+03  0.00000000000E+00 0. -1.
         15    1    1    2    0    0 -0.46888210026E+02 -0.46986883013E+01  0.13477057330E+03  0.14277145842E+03  0.00000000000E+00 0. -1.
        -16    1    1    2    0    0  0.32526278736E+03 -0.29100534351E+02 -0.68676974424E+03  0.76045736471E+03  0.00000000000E+00 0.  1.
         16    1    4    4    0    0  0.73117696361E+02  0.69725026227E+03  0.40121152076E+03  0.80775912880E+03  0.00000000000E+00 0. -1.
    9900018    1    3    3    0    0 -0.43781453348E+01 -0.50493082570E+02  0.10577819449E+03  0.14856959435E+03  0.91187600000E+02 0.  0.
<mgrwt>
<rscale>  0 0.13617914E+04</rscale>
<asrwt>0</asrwt>
<pdfrwt beam="1">  1        2 0.20316895E+00 0.27180687E+04</pdfrwt>
<pdfrwt beam="2">  1       -2 0.25723429E+00 0.27180687E+04</pdfrwt>
<totfact> 0.81005967E-01</totfact>
</mgrwt>
</event>
<event>
11    1  0.4213936E-012  0.3267239E+04  0.7818608E-02  0.8488414E-01
          2   -1    0    0  501    0  0.00000000000E+00  0.00000000000E+00  0.25505763705E+04  0.25505763705E+04  0.00000000000E+00 0. -1.
         -2   -1    0    0    0  501 -0.00000000000E+00 -0.00000000000E+00 -0.16384520934E+04  0.16384520934E+04  0.00000000000E+00 0.  1.
    9900016    2    1    2    0    0 -0.54838630246E+03  0.80147473051E+02 -0.21511616291E+03  0.21048853592E+04  0.20191870289E+04 0.  0.
        -24    2    3    3    0    0 -0.18322101093E+03  0.39307863772E+03  0.81461643181E+03  0.92612440560E+03  0.77625571853E+02 0.  0.
        -15    1    1    2    0    0  0.53909260151E+02  0.30010283949E+03  0.22277572240E+03  0.37762010684E+03  0.00000000000E+00 0.  1.
        -15    1    3    3    0    0 -0.22539117659E+03 -0.85555274032E+02 -0.72266347506E+03  0.76181584756E+03  0.00000000000E+00 0.  1.
         15    1    1    2    0    0 -0.44818739859E+03 -0.92874406880E+02  0.22931752691E+03  0.51194152777E+03  0.00000000000E+00 0. -1.
         15    1    4    4    0    0 -0.13800543333E+03  0.35521383825E+03  0.68941829008E+03  0.78773088629E+03  0.00000000000E+00 0. -1.
        -16    1    4    4    0    0 -0.45215577605E+02  0.37864799467E+02  0.12519814173E+03  0.13839351931E+03  0.00000000000E+00 0.  1.
         16    1    1    2    0    0  0.94266444091E+03 -0.28737590567E+03  0.67514719070E+03  0.11945814700E+04  0.00000000000E+00 0. -1.
    9900018    1    3    3    0    0 -0.13977411495E+03 -0.22737589063E+03 -0.30706911965E+03  0.41694510608E+03  0.91187600000E+02 0.  0.
<mgrwt>
<rscale>  0 0.22735743E+04</rscale>
<asrwt>0</asrwt>
<pdfrwt beam="1">  1        2 0.39239636E+00 0.32672393E+04</pdfrwt>
<pdfrwt beam="2">  1       -2 0.25206955E+00 0.32672393E+04</pdfrwt>
<totfact> 0.16536099E-01</totfact>
</mgrwt>
</event>
<event>
11    1  0.4719727E-012  0.5091054E+04  0.7818608E-02  0.7866693E-01
          2   -1    0    0  501    0  0.00000000000E+00  0.00000000000E+00  0.38690942168E+04  0.38690942168E+04  0.00000000000E+00 0. -1.
         -2   -1    0    0    0  501 -0.00000000000E+00 -0.00000000000E+00 -0.52304088102E+04  0.52304088102E+04  0.00000000000E+00 0.  1.
    9900016    2    1    2    0    0 -0.17383743105E+04 -0.10287306001E+04 -0.43783162166E+03  0.28812827356E+04  0.20074515641E+04 0.  0.
        -24    2    3    3    0    0 -0.14921304792E+03 -0.23457654717E+03  0.56581759123E+03  0.63489060015E+03  0.75138787992E+02 0.  0.
        -15    1    1    2    0    0  0.79992532164E+03  0.24599534454E+04  0.75261844852E+03  0.26940092804E+04  0.00000000000E+00 0.  1.
        -15    1    3    3    0    0 -0.13658631530E+04 -0.33143883809E+03 -0.99934916900E+03  0.17245673711E+04  0.00000000000E+00 0.  1.
         15    1    4    4    0    0 -0.29077227298E+02 -0.50776062248E+02  0.19850681792E+03  0.20695084055E+03  0.00000000000E+00 0. -1.
         15    1    1    2    0    0 -0.48246518894E+03  0.29374544699E+03 -0.10679062020E+04  0.12080905191E+04  0.00000000000E+00 0. -1.
        -16    1    4    4    0    0 -0.12013582062E+03 -0.18380048492E+03  0.36731077331E+03  0.42793975960E+03  0.00000000000E+00 0.  1.
         16    1    1    2    0    0  0.14209141778E+04 -0.17249682922E+04 -0.60819521830E+03  0.23161204920E+04  0.00000000000E+00 0. -1.
    9900018    1    3    3    0    0 -0.22329810966E+03 -0.46271521488E+03 -0.43000438836E+01  0.52182476430E+03  0.91187600000E+02 0.  0.
<mgrwt>
<rscale>  0 0.47596474E+04</rscale>
<asrwt>0</asrwt>
<pdfrwt beam="1">  1        2 0.59524527E+00 0.50910537E+04</pdfrwt>
<pdfrwt beam="2">  1       -2 0.80467828E+00 0.50910537E+04</pdfrwt>
<totfact> 0.20599214E-05</totfact>
</mgrwt>
</event>
<event>
11    1  0.4213936E-012  0.3223823E+04  0.7818608E-02  0.8323543E-01
         -1   -1    0    0    0  501 -0.00000000000E+00  0.00000000000E+00  0.21574291379E+04  0.21574291379E+04  0.00000000000E+00 0.  1.
          1   -1    0    0  501    0  0.00000000000E+00 -0.00000000000E+00 -0.28415155066E+04  0.28415155066E+04  0.00000000000E+00 0. -1.
    9900016    2    1    2    0    0  0.55948315087E+03  0.45039737666E+03 -0.31548308723E+03  0.21626957682E+04  0.20154017501E+04 0.  0.
         24    2    3    3    0    0 -0.18422910217E+03  0.89085337907E+03 -0.67438723100E+03  0.11354088713E+04  0.82432170335E+02 0.  0.
        -15    1    1    2    0    0  0.43514944899E+03  0.26813509185E+02  0.21714451926E+03  0.48705826086E+03  0.00000000000E+00 0.  1.
        -15    1    4    4    0    0 -0.89795252062E+02  0.60670531284E+03 -0.43230694874E+03  0.75036246032E+03  0.00000000000E+00 0.  1.
         15    1    3    3    0    0  0.39689231554E+02 -0.10284333533E+03  0.19542551776E+03  0.22437272498E+03  0.00000000000E+00 0. -1.
         15    1    1    2    0    0 -0.94481777629E+02 -0.99454286577E+03 -0.81105947880E+03  0.12868021590E+04  0.00000000000E+00 0. -1.
        -16    1    1    2    0    0 -0.90015082223E+03  0.51733197993E+03  0.22531167807E+03  0.10623884565E+04  0.00000000000E+00 0.  1.
         16    1    4    4    0    0 -0.94433850105E+02  0.28414806623E+03 -0.24208028226E+03  0.38504641103E+03  0.00000000000E+00 0. -1.
    9900018    1    3    3    0    0  0.70402302149E+03 -0.33761266708E+03  0.16347862601E+03  0.80291417182E+03  0.91187600000E+02 0.  0.
<mgrwt>
<rscale>  0 0.27356072E+04</rscale>
<asrwt>0</asrwt>
<pdfrwt beam="1">  1        1 0.43715623E+00 0.32238234E+04</pdfrwt>
<pdfrwt beam="2">  1       -1 0.33191218E+00 0.32238234E+04</pdfrwt>
<totfact> 0.12653122E-02</totfact>
</mgrwt>
</event>
<event>
11    1  0.4213936E-012  0.4521023E+04  0.7818608E-02  0.7906967E-01
          2   -1    0    0  501    0  0.00000000000E+00  0.00000000000E+00  0.42006609784E+04  0.42006609784E+04  0.00000000000E+00 0. -1.
         -2   -1    0    0    0  501 -0.00000000000E+00 -0.00000000000E+00 -0.12164543780E+04  0.12164543780E+04  0.00000000000E+00 0.  1.
    9900016    2    1    2    0    0 -0.25848125760E+03  0.55160968535E+03  0.14197537262E+04  0.25469767021E+04  0.20249207077E+04 0.  0.
        -24    2    3    3    0    0  0.21664211907E+03 -0.56343203631E+03  0.25478547827E+03  0.65989719528E+03  0.78480577881E+02 0.  0.
        -15    1    1    2    0    0  0.39544636020E+03 -0.11543353654E+04  0.19086059590E+03  0.12350286339E+04  0.00000000000E+00 0.  1.
        -15    1    3    3    0    0  0.84899606844E+02 -0.76160132803E+00 -0.83536273881E+02  0.11910848976E+03  0.00000000000E+00 0.  1.
         15    1    1    2    0    0  0.15460901693E+03  0.35514030728E+03  0.28391484277E+03  0.48024600354E+03  0.00000000000E+00 0. -1.
         15    1    4    4    0    0  0.71847710139E+02 -0.22121701914E+03  0.13771799652E+03  0.27030595549E+03  0.00000000000E+00 0. -1.
        -16    1    4    4    0    0  0.14479440893E+03 -0.34221501717E+03  0.11706748175E+03  0.38959123978E+03  0.00000000000E+00 0.  1.
         16    1    1    2    0    0 -0.29157411953E+03  0.24758537272E+03  0.10896774355E+04  0.11548640168E+04  0.00000000000E+00 0. -1.
    9900018    1    3    3    0    0 -0.56002298352E+03  0.11158033230E+04  0.12485045218E+04  0.17679710170E+04  0.91187600000E+02 0.  0.
<mgrwt>
<rscale>  0 0.45210231E+04</rscale>
<asrwt>0</asrwt>
<pdfrwt beam="1">  1        2 0.64625553E+00 0.45210231E+04</pdfrwt>
<pdfrwt beam="2">  1       -2 0.18714683E+00 0.45210231E+04</pdfrwt>
<totfact> 0.28298430E-02</totfact>
</mgrwt>
</event>
<event>
11    1  0.4213936E-012  0.2824709E+04  0.7818608E-02  0.8605426E-01
          2   -1    0    0  501    0  0.00000000000E+00  0.00000000000E+00  0.35437209821E+04  0.35437209821E+04  0.00000000000E+00 0. -1.
         -2   -1    0    0    0  501 -0.00000000000E+00 -0.00000000000E+00 -0.90048098883E+03  0.90048098883E+03  0.00000000000E+00 0.  1.
    9900016    2    1    2    0    0 -0.32891945704E+03  0.23814999713E+02  0.21014530080E+04  0.29401375314E+04  0.20296671637E+04 0.  0.
         24    2    3    3    0    0 -0.82796639471E+03 -0.43620747098E+03  0.15131362902E+04  0.17809513271E+04  0.80005550918E+02 0.  0.
        -15    1    1    2    0    0  0.15803936650E+01  0.10171853767E+03 -0.10250831069E+03  0.14441991660E+03  0.00000000000E+00 0.  1.
        -15    1    4    4    0    0 -0.40769066112E+03 -0.25991889158E+03  0.78297101961E+03  0.92022449594E+03  0.00000000000E+00 0.  1.
         15    1    1    2    0    0  0.13570635754E+03  0.16993338687E+03  0.89905823059E+03  0.92498609365E+03  0.00000000000E+00 0. -1.
         15    1    3    3    0    0  0.59435795988E+03  0.45268049430E+03  0.67027490513E+03  0.10037178203E+04  0.00000000000E+00 0. -1.
        -16    1    1    2    0    0  0.19163270583E+03 -0.29546692425E+03 -0.25476293465E+03  0.43465842928E+03  0.00000000000E+00 0.  1.
         16    1    4    4    0    0 -0.42027573358E+03 -0.17628857940E+03  0.73016527059E+03  0.86072683114E+03  0.00000000000E+00 0. -1.
    9900018    1    3    3    0    0 -0.95311022207E+02  0.73419763849E+01 -0.81958187297E+02  0.15546838402E+03  0.91187600000E+02 0.  0.
<mgrwt>
<rscale>  0 0.20025562E+04</rscale>
<asrwt>0</asrwt>
<pdfrwt beam="1">  1        2 0.54518784E+00 0.28247095E+04</pdfrwt>
<pdfrwt beam="2">  1       -2 0.13853554E+00 0.28247095E+04</pdfrwt>
<totfact> 0.23770163E-01</totfact>
</mgrwt>
</event>
<event>
11    1  0.4213936E-012  0.3678337E+04  0.7818608E-02  0.8613332E-01
          2   -1    0    0  501    0  0.00000000000E+00  0.00000000000E+00  0.25776864846E+04  0.25776864846E+04  0.00000000000E+00 0. -1.
         -2   -1    0    0    0  501 -0.00000000000E+00 -0.00000000000E+00 -0.21584733279E+04  0.21584733279E+04  0.00000000000E+00 0.  1.
    9900016    2    1    2    0    0  0.11809292334E+04  0.33465326860E+03  0.20166368264E+03  0.23869547710E+04  0.20372280612E+04 0.  0.
         24    2    3    3    0    0 -0.50352423774E+02 -0.46030756594E+03  0.59360600903E+03  0.75711875966E+03  0.80263942345E+02 0.  0.
        -15    1    1    2    0    0 -0.10544749075E+04 -0.25574890448E+03  0.10193119733E+04  0.14887315848E+04  0.00000000000E+00 0.  1.
        -15    1    4    4    0    0 -0.50615567713E+02 -0.28599223867E+03  0.42377546077E+03  0.51375007292E+03  0.00000000000E+00 0.  1.
         15    1    3    3    0    0  0.98211910611E+03  0.55735661579E+03 -0.41256916344E+02  0.11300028623E+04  0.00000000000E+00 0. -1.
         15    1    1    2    0    0 -0.62851189547E+02  0.89680187907E+02 -0.47361912772E+03  0.48611509570E+03  0.00000000000E+00 0. -1.
        -16    1    1    2    0    0 -0.63603136432E+02 -0.16858455202E+03 -0.32814337154E+03  0.37435836097E+03  0.00000000000E+00 0.  1.
         16    1    4    4    0    0  0.26314393979E+00 -0.17431532727E+03  0.16983054825E+03  0.24336868674E+03  0.00000000000E+00 0. -1.
    9900018    1    3    3    0    0  0.24916255111E+03  0.23760421875E+03 -0.35068541004E+03  0.49983314901E+03  0.91187600000E+02 0.  0.
<mgrwt>
<rscale>  0 0.19857068E+04</rscale>
<asrwt>0</asrwt>
<pdfrwt beam="1">  1        2 0.39656715E+00 0.36783370E+04</pdfrwt>
<pdfrwt beam="2">  1       -2 0.33207282E+00 0.36783370E+04</pdfrwt>
<totfact> 0.49414461E-02</totfact>
</mgrwt>
</event>
<event>
11    1  0.4213936E-012  0.4824996E+04  0.7818608E-02  0.7856085E-01
          2   -1    0    0  501    0  0.00000000000E+00  0.00000000000E+00  0.24473902621E+04  0.24473902621E+04  0.00000000000E+00 0. -1.
         -2   -1    0    0    0  501 -0.00000000000E+00 -0.00000000000E+00 -0.23781028317E+04  0.23781028317E+04  0.00000000000E+00 0.  1.
    9900016    2    1    2    0    0  0.69157156372E+02  0.16697334150E+03  0.50044895418E+03  0.20856379172E+04  0.20166242974E+04 0.  0.
         24    2    3    3    0    0  0.73084510614E+03  0.50805716550E+03 -0.38880842317E+01  0.89302165655E+03  0.72221252394E+02 0.  0.
        -15    1    1    2    0    0 -0.56283405508E+02 -0.41743877089E+03 -0.81926022191E+03  0.92120044528E+03  0.00000000000E+00 0.  1.
        -15    1    4    4    0    0  0.11117086200E+03  0.93146378904E+02  0.22669662459E+02  0.14679619224E+03  0.00000000000E+00 0.  1.
         15    1    1    2    0    0  0.22259801277E+03  0.76009616937E+03  0.79739519164E+03  0.11238928568E+04  0.00000000000E+00 0. -1.
         15    1    3    3    0    0 -0.82046364136E+03 -0.18961079244E+03  0.37171208261E+03  0.92047960964E+03  0.00000000000E+00 0. -1.
        -16    1    1    2    0    0 -0.23547176363E+03 -0.50963073998E+03 -0.40929649353E+03  0.69476187447E+03  0.00000000000E+00 0.  1.
         16    1    4    4    0    0  0.61967424414E+03  0.41491078659E+03 -0.26557746691E+02  0.74622546431E+03  0.00000000000E+00 0. -1.
    9900018    1    3    3    0    0  0.15877569159E+03 -0.15147303156E+03  0.13262495580E+03  0.27213665102E+03  0.91187600000E+02 0.  0.
<mgrwt>
<rscale>  0 0.48249956E+04</rscale>
<asrwt>0</asrwt>
<pdfrwt beam="1">  1        2 0.37652158E+00 0.48249956E+04</pdfrwt>
<pdfrwt beam="2">  1       -2 0.36586197E+00 0.48249956E+04</pdfrwt>
<totfact> 0.34015081E-02</totfact>
</mgrwt>
</event>
<event>
11    1  0.4213936E-012  0.4169113E+04  0.7818608E-02  0.7971274E-01
          2   -1    0    0  501    0  0.00000000000E+00  0.00000000000E+00  0.24082359674E+04  0.24082359674E+04  0.00000000000E+00 0. -1.
         -2   -1    0    0    0  501 -0.00000000000E+00 -0.00000000000E+00 -0.18043812379E+04  0.18043812379E+04  0.00000000000E+00 0.  1.
    9900016    2    1    2    0    0 -0.24704768080E+03  0.43086031153E+03  0.26972750323E+03  0.21020216996E+04  0.20246157994E+04 0.  0.
        -24    2    3    3    0    0 -0.19796753432E+03 -0.45681076666E+03 -0.54484589496E+03  0.74232041813E+03  0.79469067811E+02 0.  0.
        -15    1    3    3    0    0 -0.23801337455E+03  0.62195054121E+03  0.77032305674E+03  0.10182683605E+04  0.00000000000E+00 0.  1.
        -15    1    1    2    0    0  0.45654840785E+03 -0.68650642128E+02  0.29130893585E+03  0.54590315578E+03  0.00000000000E+00 0.  1.
         15    1    4    4    0    0 -0.19474985231E+02 -0.69518990892E+02 -0.12209845274E+03  0.14184568131E+03  0.00000000000E+00 0. -1.
         15    1    1    2    0    0 -0.83274333943E+03 -0.33198719963E+02  0.16456975492E+03  0.84949798623E+03  0.00000000000E+00 0. -1.
        -16    1    4    4    0    0 -0.17849254909E+03 -0.38729177577E+03 -0.42274744222E+03  0.60047473682E+03  0.00000000000E+00 0.  1.
         16    1    1    2    0    0  0.62324261237E+03 -0.32901094944E+03 -0.12175146452E+03  0.71519436368E+03  0.00000000000E+00 0. -1.
    9900018    1    3    3    0    0  0.18893322808E+03  0.26572053698E+03  0.44250341451E+02  0.34143292102E+03  0.91187600000E+02 0.  0.
<mgrwt>
<rscale>  0 0.41691130E+04</rscale>
<asrwt>0</asrwt>
<pdfrwt beam="1">  1        2 0.37049784E+00 0.41691130E+04</pdfrwt>
<pdfrwt beam="2">  1       -2 0.27759711E+00 0.41691130E+04</pdfrwt>
<totfact> 0.13330464E-01</totfact>
</mgrwt>
</event>
<event>
11    1  0.4213936E-012  0.3375049E+04  0.7818608E-02  0.8144057E-01
          2   -1    0    0  501    0  0.00000000000E+00  0.00000000000E+00  0.24363326962E+04  0.24363326962E+04  0.00000000000E+00 0. -1.
         -2   -1    0    0    0  501 -0.00000000000E+00 -0.00000000000E+00 -0.11688627678E+04  0.11688627678E+04  0.00000000000E+00 0.  1.
    9900016    2    1    2    0    0 -0.23224895478E+03 -0.93590294706E+01  0.52086186005E+03  0.20993198161E+04  0.20203513171E+04 0.  0.
         24    2    3    3    0    0  0.33531268958E+03 -0.50633093449E+03  0.48944566966E+03  0.78392199986E+03  0.78555861063E+02 0.  0.
        -15    1    4    4    0    0  0.14018670345E+03 -0.26959020077E+03  0.21434753866E+03  0.37185488501E+03  0.00000000000E+00 0.  1.
        -15    1    1    2    0    0 -0.87421108985E+02 -0.20182414196E+03 -0.12009665270E+03  0.25059656934E+03  0.00000000000E+00 0.  1.
         15    1    1    2    0    0  0.53160097178E+03 -0.80837405526E+02  0.60577301813E+03  0.80999705482E+03  0.00000000000E+00 0. -1.
         15    1    3    3    0    0 -0.30078588721E+03  0.80137062830E+03 -0.13842367687E+03  0.86708024321E+03  0.00000000000E+00 0. -1.
        -16    1    1    2    0    0 -0.21193090801E+03  0.29202057696E+03  0.26093170287E+03  0.44528202378E+03  0.00000000000E+00 0.  1.
         16    1    4    4    0    0  0.19512598613E+03 -0.23674073372E+03  0.27509813100E+03  0.41206711485E+03  0.00000000000E+00 0. -1.
    9900018    1    3    3    0    0 -0.26677575716E+03 -0.30439872329E+03  0.16983986727E+03  0.44831757299E+03  0.91187600000E+02 0.  0.
<mgrwt>
<rscale>  0 0.33750488E+04</rscale>
<asrwt>0</asrwt>
<pdfrwt beam="1">  1        2 0.37482041E+00 0.33750488E+04</pdfrwt>
<pdfrwt beam="2">  1       -2 0.17982504E+00 0.33750488E+04</pdfrwt>
<totfact> 0.57185388E-01</totfact>
</mgrwt>
</event>
<event>
11    1  0.4213936E-012  0.3781344E+04  0.7818608E-02  0.8050170E-01
         -2   -1    0    0    0  501 -0.00000000000E+00  0.00000000000E+00  0.17675700314E+04  0.17675700314E+04  0.00000000000E+00 0. -1.
          2   -1    0    0  501    0  0.00000000000E+00 -0.00000000000E+00 -0.20223469104E+04  0.20223469104E+04  0.00000000000E+00 0.  1.
    9900016    2    1    2    0    0 -0.10448106574E+03 -0.74372228223E+03 -0.36298086432E+03  0.21734288711E+04  0.20069874997E+04 0.  0.
        -24    2    3    3    0    0 -0.17487444069E+03  0.17035365147E+03 -0.88661582837E+03  0.92311213896E+03  0.80292947422E+02 0.  0.
        -15    1    3    3    0    0  0.29374718600E+03 -0.19500730904E+03  0.29047584974E+03  0.45682762520E+03  0.00000000000E+00 0.  1.
        -15    1    1    2    0    0 -0.39869217521E+03  0.99893304843E+02 -0.44518709367E+03  0.60590896288E+03  0.00000000000E+00 0.  1.
         15    1    4    4    0    0 -0.12442821313E+03  0.77015952945E+02 -0.42592888814E+03  0.45036569028E+03  0.00000000000E+00 0. -1.
         15    1    1    2    0    0  0.12931327075E+03  0.24387045546E+03  0.29882502688E+03  0.40680599520E+03  0.00000000000E+00 0. -1.
        -16    1    4    4    0    0 -0.50446227564E+02  0.93337698523E+02 -0.46068694023E+03  0.47274644868E+03  0.00000000000E+00 0.  1.
         16    1    1    2    0    0  0.37385997020E+03  0.39995852193E+03  0.25456605218E+03  0.60377311260E+03  0.00000000000E+00 0. -1.
    9900018    1    3    3    0    0 -0.22335381105E+03 -0.71906862466E+03  0.23315911431E+03  0.79348910696E+03  0.91187600000E+02 0.  0.
<mgrwt>
<rscale>  0 0.37813436E+04</rscale>
<asrwt>0</asrwt>
<pdfrwt beam="1">  1        2 0.31113030E+00 0.37813436E+04</pdfrwt>
<pdfrwt beam="2">  1       -2 0.27193385E+00 0.37813436E+04</pdfrwt>
<totfact> 0.24592895E-01</totfact>
</mgrwt>
</event>
<event>
11    1  0.4213936E-012  0.4202801E+04  0.7818608E-02  0.7964840E-01
         -2   -1    0    0    0  501 -0.00000000000E+00  0.00000000000E+00  0.22844595302E+04  0.22844595302E+04  0.00000000000E+00 0.  1.
          2   -1    0    0  501    0  0.00000000000E+00 -0.00000000000E+00 -0.19330101011E+04  0.19330101011E+04  0.00000000000E+00 0. -1.
    9900016    2    1    2    0    0  0.18072473617E+03  0.31522375937E+02  0.43305229523E+03  0.20756351991E+04  0.20216508351E+04 0.  0.
         24    2    3    3    0    0  0.72583598238E+03 -0.56927632338E+03  0.23715437533E+03  0.95573065830E+03  0.79154834321E+02 0.  0.
        -15    1    1    2    0    0 -0.69064594025E+01  0.58437767130E+02  0.29039276370E+03  0.29629483461E+03  0.00000000000E+00 0.  1.
        -15    1    4    4    0    0  0.33467406284E+03 -0.22299963732E+03  0.78455568295E+02  0.40974485083E+03  0.00000000000E+00 0.  1.
         15    1    1    2    0    0 -0.16409392116E+03 -0.21164735545E+03 -0.10873497640E+04  0.11198441531E+04  0.00000000000E+00 0. -1.
         15    1    3    3    0    0 -0.33235746449E+03  0.29516941793E+03  0.47130014938E+03  0.64785052310E+03  0.00000000000E+00 0. -1.
        -16    1    1    2    0    0 -0.97243556060E+01  0.12168721238E+03  0.71535413417E+03  0.72569544440E+03  0.00000000000E+00 0.  1.
         16    1    4    4    0    0  0.39116191954E+03 -0.34627668605E+03  0.15869880703E+03  0.54598580747E+03  0.00000000000E+00 0. -1.
    9900018    1    3    3    0    0 -0.21275378172E+03  0.30562928139E+03 -0.27540222948E+03  0.47205401775E+03  0.91187600000E+02 0.  0.
<mgrwt>
<rscale>  0 0.42028007E+04</rscale>
<asrwt>0</asrwt>
<pdfrwt beam="1">  1        2 0.29738617E+00 0.42028007E+04</pdfrwt>
<pdfrwt beam="2">  1       -2 0.35145531E+00 0.42028007E+04</pdfrwt>
<totfact> 0.86044531E-02</totfact>
</mgrwt>
</event>
<event>
11    1  0.4213936E-012  0.3289958E+04  0.7818608E-02  0.8165455E-01
         -2   -1    0    0    0  501 -0.00000000000E+00  0.00000000000E+00  0.92791444557E+03  0.92791444557E+03  0.00000000000E+00 0.  1.
          2   -1    0    0  501    0  0.00000000000E+00 -0.00000000000E+00 -0.29161703136E+04  0.29161703136E+04  0.00000000000E+00 0. -1.
    9900016    2    1    2    0    0  0.22492974475E+03 -0.32632909060E+03 -0.13285916915E+04  0.24472837599E+04  0.20166699911E+04 0.  0.
         24    2    3    3    0    0 -0.15869467656E+03  0.63495528520E+03 -0.70236052748E+03  0.96318643902E+03  0.77881905275E+02 0.  0.
        -15    1    1    2    0    0  0.90071017341E+01  0.25185067608E+03 -0.12547806838E+03  0.28152200015E+03  0.00000000000E+00 0.  1.
        -15    1    4    4    0    0 -0.10812648905E+03  0.53154288206E+03 -0.55310282715E+03  0.77469472085E+03  0.00000000000E+00 0.  1.
         15    1    3    3    0    0  0.55526516273E+03 -0.36886944868E+03 -0.11211346465E+03  0.67598335784E+03  0.00000000000E+00 0. -1.
         15    1    1    2    0    0  0.22722630190E+03 -0.25607829788E+03 -0.41055662197E+03  0.53456957149E+03  0.00000000000E+00 0. -1.
        -16    1    1    2    0    0 -0.46116314839E+03  0.33055671240E+03 -0.12362948618E+03  0.58070942768E+03  0.00000000000E+00 0.  1.
         16    1    4    4    0    0 -0.50568187509E+02  0.10341240314E+03 -0.14925770033E+03  0.18849171817E+03  0.00000000000E+00 0. -1.
    9900018    1    3    3    0    0 -0.17164074142E+03 -0.59241492712E+03 -0.51411769938E+03  0.80811396300E+03  0.91187600000E+02 0.  0.
<mgrwt>
<rscale>  0 0.32899584E+04</rscale>
<asrwt>0</asrwt>
<pdfrwt beam="1">  1        2 0.44864158E+00 0.32899584E+04</pdfrwt>
<pdfrwt beam="2">  1       -2 0.14275607E+00 0.32899584E+04</pdfrwt>
<totfact> 0.55989010E-01</totfact>
</mgrwt>
</event>
<event>
11    1  0.4213936E-012  0.4520232E+04  0.7818608E-02  0.7907104E-01
          2   -1    0    0  501    0  0.00000000000E+00  0.00000000000E+00  0.24991547318E+04  0.24991547318E+04  0.00000000000E+00 0. -1.
         -2   -1    0    0    0  501 -0.00000000000E+00 -0.00000000000E+00 -0.20439412109E+04  0.20439412109E+04  0.00000000000E+00 0.  1.
    9900016    2    1    2    0    0  0.62759399091E+03  0.31716440755E+03  0.46181131409E+03  0.21822002916E+04  0.20135195415E+04 0.  0.
         24    2    3    3    0    0 -0.29901764308E+03  0.15262850209E+03  0.73492664222E+03  0.81203320974E+03  0.81078688659E+02 0.  0.
        -15    1    4    4    0    0 -0.21264632523E+03  0.99119562791E+02  0.59092907165E+03  0.63579895807E+03  0.00000000000E+00 0.  1.
        -15    1    1    2    0    0 -0.28331940107E+03 -0.61136422586E+03 -0.58742957813E+03  0.89392930870E+03  0.00000000000E+00 0.  1.
         15    1    1    2    0    0  0.21026967225E+03 -0.30461224325E+03  0.53366034097E+03  0.64945770711E+03  0.00000000000E+00 0. -1.
         15    1    3    3    0    0  0.66276264566E+03 -0.30768914615E+03  0.51900553450E+02  0.73254392537E+03  0.00000000000E+00 0. -1.
        -16    1    1    2    0    0 -0.55454426209E+03  0.59881206155E+03  0.47171443919E+02  0.81750863530E+03  0.00000000000E+00 0.  1.
         16    1    4    4    0    0 -0.86371317849E+02  0.53508939296E+02  0.14399757056E+03  0.17623425166E+03  0.00000000000E+00 0. -1.
    9900018    1    3    3    0    0  0.26384898833E+03  0.47222505162E+03 -0.32501588158E+03  0.63762315649E+03  0.91187600000E+02 0.  0.
<mgrwt>
<rscale>  0 0.45202324E+04</rscale>
<asrwt>0</asrwt>
<pdfrwt beam="1">  1        2 0.38448534E+00 0.45202324E+04</pdfrwt>
<pdfrwt beam="2">  1       -2 0.31445249E+00 0.45202324E+04</pdfrwt>
<totfact> 0.68301339E-02</totfact>
</mgrwt>
</event>
<event>
11    1  0.4213936E-012  0.4506670E+04  0.7818608E-02  0.7909470E-01
          2   -1    0    0  501    0  0.00000000000E+00  0.00000000000E+00  0.33638983911E+04  0.33638983911E+04  0.00000000000E+00 0.  1.
         -2   -1    0    0    0  501 -0.00000000000E+00 -0.00000000000E+00 -0.15094152153E+04  0.15094152153E+04  0.00000000000E+00 0. -1.
    9900016    2    1    2    0    0  0.48123920205E+03 -0.25623436911E+03  0.11314551471E+04  0.23797380867E+04  0.20213152624E+04 0.  0.
         24    2    3    3    0    0 -0.45009179328E+03 -0.70446262234E+03  0.81022832084E+03  0.11666424630E+04  0.75726454609E+02 0.  0.
        -15    1    4    4    0    0 -0.16657629450E+03 -0.19593259756E+03  0.24890063691E+03  0.35789491716E+03  0.00000000000E+00 0.  1.
        -15    1    1    2    0    0  0.22949255431E+03 -0.31613420702E+03  0.94833837302E+03  0.10256477656E+04  0.00000000000E+00 0.  1.
         15    1    3    3    0    0  0.60635776888E+03  0.30330610600E+03 -0.63771691730E+02  0.68097809545E+03  0.00000000000E+00 0. -1.
         15    1    1    2    0    0 -0.63864357538E+03  0.29445416364E+03 -0.64844374034E+03  0.95658149430E+03  0.00000000000E+00 0. -1.
        -16    1    1    2    0    0 -0.72088180992E+02  0.27791441248E+03  0.42313339609E+03  0.51134625978E+03  0.00000000000E+00 0.  1.
         16    1    4    4    0    0 -0.28351549878E+03 -0.50853002478E+03  0.56132768393E+03  0.80874754583E+03  0.00000000000E+00 0. -1.
    9900018    1    3    3    0    0  0.32497322645E+03  0.14492214723E+03  0.38499851798E+03  0.53211752829E+03  0.91187600000E+02 0.  0.
<mgrwt>
<rscale>  0 0.45066704E+04</rscale>
<asrwt>0</asrwt>
<pdfrwt beam="1">  1        2 0.51752283E+00 0.45066704E+04</pdfrwt>
<pdfrwt beam="2">  1       -2 0.23221773E+00 0.45066704E+04</pdfrwt>
<totfact> 0.63179044E-02</totfact>
</mgrwt>
</event>
<event>
11    1  0.4213936E-012  0.2589175E+04  0.7818608E-02  0.8571035E-01
          2   -1    0    0  501    0  0.00000000000E+00  0.00000000000E+00  0.13590348117E+04  0.13590348117E+04  0.00000000000E+00 0. -1.
         -2   -1    0    0    0  501 -0.00000000000E+00 -0.00000000000E+00 -0.24725339307E+04  0.24725339307E+04  0.00000000000E+00 0.  1.
    9900016    2    1    2    0    0 -0.52127219856E+02  0.34620039016E+02 -0.55368303015E+03  0.21054252432E+04  0.20303533591E+04 0.  0.
         24    2    3    3    0    0 -0.45920406149E+03 -0.37174548575E+03 -0.29216838904E+03  0.66378472070E+03  0.78642937472E+02 0.  0.
        -15    1    1    2    0    0  0.11126689951E+03  0.31340922046E+03 -0.71356600552E+02  0.34014324459E+03  0.00000000000E+00 0.  1.
        -15    1    4    4    0    0 -0.37323055224E+03 -0.29704426541E+03 -0.26875869901E+03  0.54751034605E+03  0.00000000000E+00 0.  1.
         15    1    1    2    0    0  0.44523448180E+03 -0.58620647605E+03 -0.32571010234E+03  0.80495891020E+03  0.00000000000E+00 0. -1.
         15    1    3    3    0    0  0.27146366220E+03 -0.20727234699E+03  0.39910711448E+03  0.52530070869E+03  0.00000000000E+00 0. -1.
        -16    1    1    2    0    0 -0.50437416146E+03  0.23817721657E+03 -0.16274938592E+03  0.58104134436E+03  0.00000000000E+00 0.  1.
         16    1    4    4    0    0 -0.85973509255E+02 -0.74701220334E+02 -0.23409690036E+02  0.11627437465E+03  0.00000000000E+00 0. -1.
    9900018    1    3    3    0    0  0.13561317943E+03  0.61363787176E+03 -0.66062175559E+03  0.91633981385E+03  0.91187600000E+02 0.  0.
<mgrwt>
<rscale>  0 0.20779152E+04</rscale>
<asrwt>0</asrwt>
<pdfrwt beam="1">  1        2 0.20908228E+00 0.25891750E+04</pdfrwt>
<pdfrwt beam="2">  1       -2 0.38038983E+00 0.25891750E+04</pdfrwt>
<totfact> 0.13060917E-01</totfact>
</mgrwt>
</event>
<event>
11    1  0.4213936E-012  0.4049742E+04  0.7818608E-02  0.7994587E-01
          1   -1    0    0  501    0  0.00000000000E+00  0.00000000000E+00  0.24542122154E+04  0.24542122154E+04  0.00000000000E+00 0. -1.
         -1   -1    0    0    0  501 -0.00000000000E+00 -0.00000000000E+00 -0.16706387164E+04  0.16706387164E+04  0.00000000000E+00 0.  1.
    9900016    2    1    2    0    0  0.33425356485E+03 -0.10632295663E+04  0.35178949982E+03  0.23361386706E+04  0.20227717320E+04 0.  0.
         24    2    3    3    0    0 -0.82994902876E+03 -0.41057335356E+03  0.17299806118E+03  0.94523476010E+03  0.78450962661E+02 0.  0.
        -15    1    1    2    0    0  0.74185255086E+02 -0.13088805640E+03 -0.39253497881E+02  0.15548624529E+03  0.00000000000E+00 0.  1.
        -15    1    4    4    0    0 -0.39245847874E+03 -0.23495516328E+03  0.99597473115E+02  0.46813165129E+03  0.00000000000E+00 0.  1.
         15    1    1    2    0    0 -0.42047908379E+03  0.25934065204E+03 -0.14353465518E+03  0.51445352651E+03  0.00000000000E+00 0. -1.
         15    1    3    3    0    0  0.93277994940E+03 -0.57058160032E+03  0.39334247021E+02  0.10941613133E+04  0.00000000000E+00 0. -1.
        -16    1    1    2    0    0  0.12040263849E+02  0.93477697065E+03  0.61457215219E+03  0.11187724894E+04  0.00000000000E+00 0.  1.
         16    1    4    4    0    0 -0.43749055001E+03 -0.17561819029E+03  0.73400588069E+02  0.47710310881E+03  0.00000000000E+00 0. -1.
    9900018    1    3    3    0    0  0.23142264421E+03 -0.82074612416E+02  0.13945719162E+03  0.29674259712E+03  0.91187600000E+02 0.  0.
<mgrwt>
<rscale>  0 0.40497417E+04</rscale>
<asrwt>0</asrwt>
<pdfrwt beam="1">  1        1 0.37757111E+00 0.40497417E+04</pdfrwt>
<pdfrwt beam="2">  1       -1 0.25702134E+00 0.40497417E+04</pdfrwt>
<totfact> 0.71278240E-02</totfact>
</mgrwt>
</event>
<event>
11    1  0.4556725E-012  0.3036548E+04  0.7818608E-02  0.8374903E-01
          2   -1    0    0  501    0  0.00000000000E+00  0.00000000000E+00  0.21533973870E+04  0.21533973870E+04  0.00000000000E+00 0. -1.
         -2   -1    0    0    0  501 -0.00000000000E+00 -0.00000000000E+00 -0.28967181196E+04  0.28967181196E+04  0.00000000000E+00 0.  1.
    9900016    2    1    2    0    0  0.38456696629E+03 -0.42013679356E+03 -0.18113800729E+03  0.20953456941E+04  0.20082967717E+04 0.  0.
        -24    2    3    3    0    0 -0.69756352699E+03  0.10691378956E+03 -0.37519026665E+02  0.71137552223E+03  0.81375817525E+02 0.  0.
        -15    1    1    2    0    0  0.30894096607E+03 -0.66711247020E+03 -0.76285202451E+03  0.10594464497E+04  0.00000000000E+00 0.  1.
        -15    1    3    3    0    0  0.65494609193E+03 -0.24841744569E+03 -0.39920923448E+03  0.80624662700E+03  0.00000000000E+00 0.  1.
         15    1    4    4    0    0 -0.13434748716E+03 -0.10520664243E+02  0.94963468061E+00  0.13476213670E+03  0.00000000000E+00 0. -1.
         15    1    1    2    0    0 -0.74008026605E+03  0.34437266684E+03 -0.42740772436E+03  0.92140582628E+03  0.00000000000E+00 0. -1.
        -16    1    4    4    0    0 -0.56321603983E+03  0.11743445381E+03 -0.38468661345E+02  0.57661338553E+03  0.00000000000E+00 0.  1.
         16    1    1    2    0    0  0.46572333693E+02  0.74287659693E+03  0.62807702352E+03  0.97391753655E+03  0.00000000000E+00 0. -1.
    9900018    1    3    3    0    0  0.42718440135E+03 -0.27863313744E+03  0.25559025386E+03  0.57772354487E+03  0.91187600000E+02 0.  0.
<mgrwt>
<rscale>  0 0.25803619E+04</rscale>
<asrwt>0</asrwt>
<pdfrwt beam="1">  1        2 0.33129191E+00 0.30365478E+04</pdfrwt>
<pdfrwt beam="2">  1       -2 0.44564894E+00 0.30365478E+04</pdfrwt>
<totfact> 0.16423583E-02</totfact>
</mgrwt>
</event>
<event>
11    1  0.4213936E-012  0.4448118E+04  0.7818608E-02  0.7919783E-01
         -1   -1    0    0    0  501 -0.00000000000E+00  0.00000000000E+00  0.18058577955E+04  0.18058577955E+04  0.00000000000E+00 0.  1.
          1   -1    0    0  501    0  0.00000000000E+00 -0.00000000000E+00 -0.27391073364E+04  0.27391073364E+04  0.00000000000E+00 0. -1.
    9900016    2    1    2    0    0 -0.11077289913E+04  0.22809369271E+03 -0.40542132808E+03  0.23546733266E+04  0.20250999410E+04 0.  0.
         24    2    3    3    0    0  0.20224334652E+03  0.21203650955E+03  0.60429110343E+03  0.67657675672E+03  0.82015348846E+02 0.  0.
        -15    1    1    2    0    0  0.25546687741E+03 -0.44599659413E+03 -0.34858101262E+03  0.62103543361E+03  0.00000000000E+00 0.  1.
        -15    1    4    4    0    0  0.47737000412E+02  0.10316868729E+03  0.19420281941E+03  0.22502740791E+03  0.00000000000E+00 0.  1.
         15    1    1    2    0    0  0.34337285285E+03  0.67715168795E+03 -0.38808725752E+03  0.85267288219E+03  0.00000000000E+00 0. -1.
         15    1    3    3    0    0 -0.70096833286E+03  0.13115613486E+03 -0.50964093843E+03  0.87652291556E+03  0.00000000000E+00 0. -1.
        -16    1    1    2    0    0  0.50888926102E+03 -0.45924878653E+03  0.20884005727E+03  0.71658348951E+03  0.00000000000E+00 0.  1.
         16    1    4    4    0    0  0.15450634611E+03  0.10886782226E+03  0.41008828402E+03  0.45154934880E+03  0.00000000000E+00 0. -1.
    9900018    1    3    3    0    0 -0.60900400495E+03 -0.11509895170E+03 -0.50007149308E+03  0.80157365433E+03  0.91187600000E+02 0.  0.
<mgrwt>
<rscale>  0 0.44481180E+04</rscale>
<asrwt>0</asrwt>
<pdfrwt beam="1">  1        1 0.42140113E+00 0.44481180E+04</pdfrwt>
<pdfrwt beam="2">  1       -1 0.27782428E+00 0.44481180E+04</pdfrwt>
<totfact> 0.31944085E-02</totfact>
</mgrwt>
</event>
<event>
11    1  0.4213936E-012  0.4232574E+04  0.7818608E-02  0.7959205E-01
          2   -1    0    0  501    0  0.00000000000E+00  0.00000000000E+00  0.28469505258E+04  0.28469505258E+04  0.00000000000E+00 0.  1.
         -2   -1    0    0    0  501 -0.00000000000E+00 -0.00000000000E+00 -0.15731468125E+04  0.15731468125E+04  0.00000000000E+00 0. -1.
    9900016    2    1    2    0    0 -0.35466653044E+03 -0.39112364210E+03  0.47728532030E+03  0.21459598121E+04  0.20244940570E+04 0.  0.
         24    2    3    3    0    0  0.10808320022E+03 -0.27920579650E+03 -0.53013473036E+03  0.61407930260E+03  0.80079351701E+02 0.  0.
        -15    1    4    4    0    0  0.76034910091E+02 -0.22848221649E+03 -0.47520083355E+03  0.53273000949E+03  0.00000000000E+00 0.  1.
        -15    1    1    2    0    0  0.40565349961E+03 -0.12995818962E+03  0.67337771522E+03  0.79679447799E+03  0.00000000000E+00 0.  1.
         15    1    3    3    0    0 -0.44039012913E+03 -0.54851851205E+03  0.67760356193E+03  0.97671009570E+03  0.00000000000E+00 0. -1.
         15    1    1    2    0    0 -0.21345416290E+03  0.81872427699E+02 -0.58515859279E+03  0.62823272184E+03  0.00000000000E+00 0. -1.
        -16    1    1    2    0    0  0.16246719373E+03  0.43920940402E+03  0.70829927058E+03  0.84911032636E+03  0.00000000000E+00 0.  1.
         16    1    4    4    0    0  0.32048290134E+02 -0.50723580014E+02 -0.54933896813E+02  0.81349293107E+02  0.00000000000E+00 0. -1.
    9900018    1    3    3    0    0 -0.22359601543E+02  0.43660066645E+03  0.32981648873E+03  0.55517041380E+03  0.91187600000E+02 0.  0.
<mgrwt>
<rscale>  0 0.42325742E+04</rscale>
<asrwt>0</asrwt>
<pdfrwt beam="1">  1        2 0.43799239E+00 0.42325742E+04</pdfrwt>
<pdfrwt beam="2">  1       -2 0.24202259E+00 0.42325742E+04</pdfrwt>
<totfact> 0.12061754E-01</totfact>
</mgrwt>
</event>
<event>
11    1  0.4213936E-012  0.4381942E+04  0.7818608E-02  0.7931638E-01
          2   -1    0    0  501    0  0.00000000000E+00  0.00000000000E+00  0.24227629129E+04  0.24227629129E+04  0.00000000000E+00 0.  1.
         -2   -1    0    0    0  501 -0.00000000000E+00 -0.00000000000E+00 -0.19813552148E+04  0.19813552148E+04  0.00000000000E+00 0. -1.
    9900016    2    1    2    0    0  0.66447219953E+03  0.87540809811E+03  0.28082739490E+02  0.22916079724E+04  0.20106754628E+04 0.  0.
        -24    2    3    3    0    0  0.44177203596E+03 -0.27857570351E+03  0.38244731862E+03  0.65227945885E+03  0.80222107790E+02 0.  0.
        -15    1    3    3    0    0 -0.13305591244E+03  0.78104518999E+03  0.25847387687E+03  0.83339319032E+03  0.00000000000E+00 0.  1.
        -15    1    1    2    0    0  0.37177042444E+03  0.15384716573E+03  0.12449387676E+03  0.42116614803E+03  0.00000000000E+00 0.  1.
         15    1    4    4    0    0  0.20958182300E+03 -0.17929584671E+03  0.19471206221E+03  0.33761565181E+03  0.00000000000E+00 0. -1.
         15    1    1    2    0    0 -0.63886898732E+02 -0.35442335334E+03  0.35529104835E+03  0.50589443391E+03  0.00000000000E+00 0. -1.
        -16    1    4    4    0    0  0.23219021297E+03 -0.99279856803E+02  0.18773525640E+03  0.31466380704E+03  0.00000000000E+00 0.  1.
         16    1    1    2    0    0 -0.97235572524E+03 -0.67483191051E+03 -0.66459966557E+02  0.11854495734E+04  0.00000000000E+00 0. -1.
    9900018    1    3    3    0    0  0.35575607600E+03  0.37293861163E+03 -0.61283845600E+03  0.80593532321E+03  0.91187600000E+02 0.  0.
<mgrwt>
<rscale>  0 0.43819420E+04</rscale>
<asrwt>0</asrwt>
<pdfrwt beam="1">  1        2 0.37273276E+00 0.43819420E+04</pdfrwt>
<pdfrwt beam="2">  1       -2 0.30482388E+00 0.43819420E+04</pdfrwt>
<totfact> 0.87619637E-02</totfact>
</mgrwt>
</event>
<event>
11    1  0.4213936E-012  0.7601935E+04  0.7818608E-02  0.7518354E-01
         -2   -1    0    0    0  501 -0.00000000000E+00  0.00000000000E+00  0.45952251059E+04  0.45952251059E+04  0.00000000000E+00 0.  1.
          2   -1    0    0  501    0  0.00000000000E+00 -0.00000000000E+00 -0.31439930100E+04  0.31439930100E+04  0.00000000000E+00 0. -1.
    9900016    2    1    2    0    0  0.94346383807E+03 -0.23412949002E+03 -0.12959246887E+03  0.22822691808E+04  0.20608293898E+04 0.  0.
         24    2    3    3    0    0 -0.21886943723E+03 -0.78343079553E+03 -0.42513429748E+03  0.92133623650E+03  0.80334599368E+02 0.  0.
        -15    1    1    2    0    0 -0.52587823201E+02  0.55909980955E+03  0.13003220547E+04  0.14164023164E+04  0.00000000000E+00 0.  1.
        -15    1    4    4    0    0 -0.16875087337E+02 -0.10376873691E+03 -0.28639819920E+02  0.10896310668E+03  0.00000000000E+00 0.  1.
         15    1    3    3    0    0  0.86550092447E+03  0.43787440698E+03  0.94408157187E+02  0.97454540515E+03  0.00000000000E+00 0. -1.
         15    1    1    2    0    0 -0.74383597323E+03 -0.65076970705E+03 -0.17332960039E+04  0.19952714612E+04  0.00000000000E+00 0. -1.
        -16    1    1    2    0    0 -0.14704004163E+03  0.32579938752E+03  0.20137985141E+04  0.20452751575E+04  0.00000000000E+00 0.  1.
         16    1    4    4    0    0 -0.20199434990E+03 -0.67966205862E+03 -0.39649447757E+03  0.81237312983E+03  0.00000000000E+00 0. -1.
    9900018    1    3    3    0    0  0.29683235083E+03  0.11142689853E+03  0.20113367143E+03  0.38638753912E+03  0.91187600000E+02 0.  0.
<mgrwt>
<rscale>  0 0.76019354E+04</rscale>
<asrwt>0</asrwt>
<pdfrwt beam="1">  1        2 0.48369123E+00 0.76019354E+04</pdfrwt>
<pdfrwt beam="2">  1       -2 0.70695771E+00 0.76019354E+04</pdfrwt>
<totfact> 0.18561668E-04</totfact>
</mgrwt>
</event>
<event>
11    1  0.4213936E-012  0.2766632E+04  0.7818608E-02  0.8554046E-01
          2   -1    0    0  501    0  0.00000000000E+00  0.00000000000E+00  0.32727499155E+04  0.32727499155E+04  0.00000000000E+00 0.  1.
         -2   -1    0    0    0  501 -0.00000000000E+00 -0.00000000000E+00 -0.14473477072E+04  0.14473477072E+04  0.00000000000E+00 0. -1.
    9900016    2    1    2    0    0  0.56384929205E+03  0.21567135023E+03  0.54360607541E+03  0.21898152516E+04  0.20335543060E+04 0.  0.
        -24    2    3    3    0    0  0.78498414591E+03 -0.11016439497E+02  0.35294331782E+03  0.86448727530E+03  0.80298146168E+02 0.  0.
        -15    1    3    3    0    0 -0.62241799617E+03 -0.27214673633E+02  0.45759260247E+03  0.77300439213E+03  0.00000000000E+00 0.  1.
        -15    1    1    2    0    0 -0.38891177620E+03 -0.41417228288E+03  0.17227246865E+04  0.18139932180E+04  0.00000000000E+00 0.  1.
         15    1    1    2    0    0  0.11813962312E+03 -0.66891447606E+02 -0.17372266493E+02  0.13686939744E+03  0.00000000000E+00 0. -1.
         15    1    4    4    0    0  0.47449213919E+03 -0.23948995458E+02  0.17444468307E+03  0.50610996037E+03  0.00000000000E+00 0. -1.
        -16    1    4    4    0    0  0.31049200673E+03  0.12932555961E+02  0.17849863476E+03  0.35837731493E+03  0.00000000000E+00 0.  1.
         16    1    1    2    0    0 -0.29307713897E+03  0.26539238026E+03 -0.42355628702E+03  0.57941975559E+03  0.00000000000E+00 0. -1.
    9900018    1    3    3    0    0  0.40128314230E+03  0.25390246336E+03 -0.26692984488E+03  0.55232358422E+03  0.91187600000E+02 0.  0.
<mgrwt>
<rscale>  0 0.21164166E+04</rscale>
<asrwt>0</asrwt>
<pdfrwt beam="1">  1        2 0.50349999E+00 0.27666316E+04</pdfrwt>
<pdfrwt beam="2">  1       -2 0.22266888E+00 0.27666316E+04</pdfrwt>
<totfact> 0.92241802E-02</totfact>
</mgrwt>
</event>
<event>
11    1  0.4213936E-012  0.3452093E+04  0.7818608E-02  0.8318728E-01
         -2   -1    0    0    0  501 -0.00000000000E+00  0.00000000000E+00  0.19715249954E+04  0.19715249954E+04  0.00000000000E+00 0.  1.
          2   -1    0    0  501    0  0.00000000000E+00 -0.00000000000E+00 -0.30315401492E+04  0.30315401492E+04  0.00000000000E+00 0. -1.
    9900016    2    1    2    0    0 -0.11376834381E+04 -0.37307372879E+02 -0.37288139771E+03  0.23496770013E+04  0.20214415718E+04 0.  0.
         24    2    3    3    0    0 -0.94190675574E+03  0.82963107514E+03 -0.18422465956E+03  0.12711633710E+04  0.80259163571E+02 0.  0.
        -15    1    4    4    0    0 -0.45798293639E+03  0.45581387726E+03 -0.10258378167E+03  0.65424620213E+03  0.00000000000E+00 0.  1.
        -15    1    1    2    0    0  0.25809713710E+03  0.32734918401E+02  0.23257523894E+03  0.34896554103E+03  0.00000000000E+00 0.  1.
         15    1    1    2    0    0  0.91962841642E+02 -0.80357632791E+03 -0.85071114972E+03  0.11738405085E+04  0.00000000000E+00 0. -1.
         15    1    3    3    0    0 -0.27939999432E+03 -0.28905429782E+03  0.10938597975E+03  0.41663177565E+03  0.00000000000E+00 0. -1.
        -16    1    1    2    0    0  0.78762345934E+03  0.80814878239E+03 -0.68997845316E+02  0.11305820938E+04  0.00000000000E+00 0.  1.
         16    1    4    4    0    0 -0.48392381935E+03  0.37381719788E+03 -0.81640877892E+02  0.61691716892E+03  0.00000000000E+00 0. -1.
    9900018    1    3    3    0    0  0.83623311979E+02 -0.57788415020E+03 -0.29804271789E+03  0.66188185460E+03  0.91187600000E+02 0.  0.
<mgrwt>
<rscale>  0 0.27507350E+04</rscale>
<asrwt>0</asrwt>
<pdfrwt beam="1">  1        2 0.46639079E+00 0.34520930E+04</pdfrwt>
<pdfrwt beam="2">  1       -2 0.30331154E+00 0.34520930E+04</pdfrwt>
<totfact> 0.39765683E-02</totfact>
</mgrwt>
</event>
<event>
11    1  0.4213936E-012  0.3830977E+04  0.7818608E-02  0.8039540E-01
         -2   -1    0    0    0  501 -0.00000000000E+00  0.00000000000E+00  0.15157727951E+04  0.15157727951E+04  0.00000000000E+00 0. -1.
          2   -1    0    0  501    0  0.00000000000E+00 -0.00000000000E+00 -0.24206103823E+04  0.24206103823E+04  0.00000000000E+00 0.  1.
    9900016    2    1    2    0    0  0.48626964806E+03  0.23858722070E+01 -0.91224079359E+03  0.22648834923E+04  0.20152047304E+04 0.  0.
         24    2    3    3    0    0  0.75257720797E+03  0.68794874571E+03 -0.73027438203E+03  0.12567450344E+04  0.80383317436E+02 0.  0.
        -15    1    4    4    0    0  0.50927321168E+03  0.44492178804E+03 -0.44068670858E+03  0.80716750227E+03  0.00000000000E+00 0.  1.
        -15    1    1    2    0    0  0.36360707907E+02 -0.19495281494E+03 -0.34255105143E+03  0.39581551759E+03  0.00000000000E+00 0.  1.
         15    1    3    3    0    0 -0.23625686112E+03 -0.55210064494E+03  0.16620399021E+03  0.62310207264E+03  0.00000000000E+00 0. -1.
         15    1    1    2    0    0 -0.42540288645E+03 -0.69360742089E+02  0.70351789282E+03  0.82505512171E+03  0.00000000000E+00 0. -1.
        -16    1    1    2    0    0 -0.97227469516E+02  0.26192768482E+03 -0.35356363495E+03  0.45062904574E+03  0.00000000000E+00 0.  1.
         16    1    4    4    0    0  0.24330399629E+03  0.24302695767E+03 -0.28958767345E+03  0.44957753211E+03  0.00000000000E+00 0. -1.
    9900018    1    3    3    0    0 -0.30050698794E+02 -0.13346222857E+03 -0.34817040177E+03  0.38503638531E+03  0.91187600000E+02 0.  0.
<mgrwt>
<rscale>  0 0.38309766E+04</rscale>
<asrwt>0</asrwt>
<pdfrwt beam="1">  1        2 0.37240160E+00 0.38309766E+04</pdfrwt>
<pdfrwt beam="2">  1       -2 0.23319581E+00 0.38309766E+04</pdfrwt>
<totfact> 0.25264863E-01</totfact>
</mgrwt>
</event>
<event>
11    1  0.4213936E-012  0.3895192E+04  0.7818608E-02  0.8026030E-01
         -2   -1    0    0    0  501 -0.00000000000E+00  0.00000000000E+00  0.12248557012E+04  0.12248557012E+04  0.00000000000E+00 0.  1.
          2   -1    0    0  501    0  0.00000000000E+00 -0.00000000000E+00 -0.30967979900E+04  0.30967979900E+04  0.00000000000E+00 0. -1.
    9900016    2    1    2    0    0  0.69072731696E+03  0.31612228486E+03 -0.10303674771E+04  0.23966960111E+04  0.20261927614E+04 0.  0.
        -24    2    3    3    0    0  0.17704364181E+03 -0.72104033584E+03 -0.19291586141E+03  0.77120872126E+03  0.79389830325E+02 0.  0.
        -15    1    1    2    0    0 -0.40838454141E+03  0.39336676777E+03  0.41148256127E+02  0.56851431524E+03  0.00000000000E+00 0.  1.
        -15    1    3    3    0    0  0.16028960460E+03  0.93815244964E+03 -0.36266142950E+03  0.10185018844E+04  0.00000000000E+00 0.  1.
         15    1    1    2    0    0 -0.45929562547E+03 -0.43081821624E+03 -0.79630496940E+03  0.10152134807E+04  0.00000000000E+00 0. -1.
         15    1    4    4    0    0  0.10511032114E+03 -0.42431059696E+03 -0.73045138685E+02  0.44319663197E+03  0.00000000000E+00 0. -1.
        -16    1    4    4    0    0  0.71933320664E+02 -0.29672973887E+03 -0.11987072272E+03  0.32801208929E+03  0.00000000000E+00 0.  1.
         16    1    1    2    0    0  0.17695284992E+03 -0.27867083639E+03 -0.86418098474E+02  0.34122988423E+03  0.00000000000E+00 0. -1.
    9900018    1    3    3    0    0  0.35339407055E+03  0.99010171055E+02 -0.47479018622E+03  0.60698540542E+03  0.91187600000E+02 0.  0.
<mgrwt>
<rscale>  0 0.38951923E+04</rscale>
<asrwt>0</asrwt>
<pdfrwt beam="1">  1        2 0.47643046E+00 0.38951923E+04</pdfrwt>
<pdfrwt beam="2">  1       -2 0.18843934E+00 0.38951923E+04</pdfrwt>
<totfact> 0.19086056E-01</totfact>
</mgrwt>
</event>
<event>
11    1  0.4213936E-012  0.4499001E+04  0.7818608E-02  0.7910812E-01
         -2   -1    0    0    0  501 -0.00000000000E+00  0.00000000000E+00  0.13231222321E+04  0.13231222321E+04  0.00000000000E+00 0.  1.
          2   -1    0    0  501    0  0.00000000000E+00 -0.00000000000E+00 -0.38244781201E+04  0.38244781201E+04  0.00000000000E+00 0. -1.
    9900016    2    1    2    0    0  0.25177060554E+03  0.56017907337E+03 -0.10729858867E+04  0.23694269140E+04  0.20213105045E+04 0.  0.
         24    2    3    3    0    0 -0.16913701904E+03  0.96087882163E+03 -0.13661677473E+04  0.16807366672E+04  0.81030794671E+02 0.  0.
        -15    1    1    2    0    0  0.17853998912E+03  0.21156602099E+03 -0.39212260294E+03  0.47999671321E+03  0.00000000000E+00 0.  1.
        -15    1    4    4    0    0 -0.20759492144E+02  0.17371602872E+03 -0.29842693168E+03  0.34592896482E+03  0.00000000000E+00 0.  1.
         15    1    3    3    0    0  0.21866739946E+03 -0.14702385543E+03  0.38535935170E+02  0.26630145316E+03  0.00000000000E+00 0. -1.
         15    1    1    2    0    0 -0.65696841107E+03 -0.13107993646E+04 -0.72281134009E+03  0.16347044689E+04  0.00000000000E+00 0. -1.
        -16    1    1    2    0    0  0.22665781640E+03  0.53905427025E+03 -0.31343605830E+03  0.66347225613E+03  0.00000000000E+00 0.  1.
         16    1    4    4    0    0 -0.14837752690E+03  0.78716279292E+03 -0.10677408156E+04  0.13348077024E+04  0.00000000000E+00 0. -1.
    9900018    1    3    3    0    0  0.20224022512E+03 -0.25367589283E+03  0.25464592540E+03  0.42238879362E+03  0.91187600000E+02 0.  0.
<mgrwt>
<rscale>  0 0.44990008E+04</rscale>
<asrwt>0</asrwt>
<pdfrwt beam="1">  1        2 0.58838124E+00 0.44990008E+04</pdfrwt>
<pdfrwt beam="2">  1       -2 0.20355727E+00 0.44990008E+04</pdfrwt>
<totfact> 0.44789056E-02</totfact>
</mgrwt>
</event>
<event>
11    1  0.4213936E-012  0.5583618E+04  0.7818608E-02  0.7744287E-01
         -2   -1    0    0    0  501 -0.00000000000E+00  0.00000000000E+00  0.27154732104E+04  0.27154732104E+04  0.00000000000E+00 0. -1.
          2   -1    0    0  501    0  0.00000000000E+00 -0.00000000000E+00 -0.28702907173E+04  0.28702907173E+04  0.00000000000E+00 0.  1.
    9900016    2    1    2    0    0  0.51720633505E+03  0.66483641272E+03 -0.22344929178E+03  0.22138056942E+04  0.20350666369E+04 0.  0.
        -24    2    3    3    0    0 -0.45419554251E+03 -0.41622841951E+02  0.13877246976E+03  0.48350849236E+03  0.80601563351E+02 0.  0.
        -15    1    3    3    0    0  0.95743449040E+03  0.39772855128E+03 -0.70970958165E+03  0.12564061820E+04  0.00000000000E+00 0.  1.
        -15    1    1    2    0    0  0.93536753512E+03 -0.17868212237E+03 -0.59542029110E+03  0.11231050929E+04  0.00000000000E+00 0.  1.
         15    1    4    4    0    0 -0.17610517222E+03 -0.34881707232E+01  0.15123395926E+02  0.17678777142E+03  0.00000000000E+00 0. -1.
         15    1    1    2    0    0 -0.72419244475E+03 -0.94678555981E+03  0.54465027482E+02  0.11932409784E+04  0.00000000000E+00 0. -1.
        -16    1    4    4    0    0 -0.27809037028E+03 -0.38134671228E+02  0.12364907384E+03  0.30672072094E+03  0.00000000000E+00 0.  1.
         16    1    1    2    0    0 -0.72838142542E+03  0.46063126945E+03  0.60958704850E+03  0.10556121622E+04  0.00000000000E+00 0. -1.
    9900018    1    3    3    0    0  0.13967387154E+02  0.30873070339E+03  0.34748782011E+03  0.47389101979E+03  0.91187600000E+02 0.  0.
<mgrwt>
<rscale>  0 0.55836180E+04</rscale>
<asrwt>0</asrwt>
<pdfrwt beam="1">  1        2 0.44158319E+00 0.55836180E+04</pdfrwt>
<pdfrwt beam="2">  1       -2 0.41776511E+00 0.55836180E+04</pdfrwt>
<totfact> 0.82762713E-03</totfact>
</mgrwt>
</event>
<event>
11    1  0.4213936E-012  0.3352165E+04  0.7818608E-02  0.8468057E-01
          2   -1    0    0  501    0  0.00000000000E+00  0.00000000000E+00  0.29568203181E+04  0.29568203181E+04  0.00000000000E+00 0. -1.
         -2   -1    0    0    0  501 -0.00000000000E+00 -0.00000000000E+00 -0.15191161632E+04  0.15191161632E+04  0.00000000000E+00 0.  1.
    9900016    2    1    2    0    0  0.51670056591E+03 -0.49678112474E+03  0.50135696241E+03  0.22093881349E+04  0.20288583406E+04 0.  0.
        -24    2    3    3    0    0 -0.50183385004E+03 -0.12383039894E+03  0.51443205617E+03  0.73255630364E+03  0.69478175223E+02 0.  0.
        -15    1    1    2    0    0  0.11128857774E+00 -0.28434155192E+03 -0.38926493068E+03  0.48205530470E+03  0.00000000000E+00 0.  1.
        -15    1    3    3    0    0  0.90145116426E+03 -0.54797607005E+03 -0.31188632972E+03  0.11000750236E+04  0.00000000000E+00 0.  1.
         15    1    4    4    0    0 -0.33907268698E+03 -0.11474894869E+03  0.33756054801E+03  0.49202106851E+03  0.00000000000E+00 0. -1.
         15    1    1    2    0    0  0.62957117109E+02 -0.95118276328E+02  0.27928800590E+03  0.30168340247E+03  0.00000000000E+00 0. -1.
        -16    1    4    4    0    0 -0.16276116306E+03 -0.90814502486E+01  0.17687150816E+03  0.24053523513E+03  0.00000000000E+00 0.  1.
         16    1    1    2    0    0 -0.57976897160E+03  0.87624095299E+03  0.10463241172E+04  0.14828096393E+04  0.00000000000E+00 0. -1.
    9900018    1    3    3    0    0  0.11708325169E+03  0.17502534425E+03  0.29881123596E+03  0.37675680762E+03  0.91187600000E+02 0.  0.
<mgrwt>
<rscale>  0 0.23251834E+04</rscale>
<asrwt>0</asrwt>
<pdfrwt beam="1">  1        2 0.45489543E+00 0.33521646E+04</pdfrwt>
<pdfrwt beam="2">  1       -2 0.23371018E+00 0.33521646E+04</pdfrwt>
<totfact> 0.12125082E-01</totfact>
</mgrwt>
</event>
<event>
11    1  0.4213936E-012  0.2599074E+04  0.7818608E-02  0.8516168E-01
          2   -1    0    0  501    0  0.00000000000E+00  0.00000000000E+00  0.16531107894E+04  0.16531107894E+04  0.00000000000E+00 0. -1.
         -2   -1    0    0    0  501 -0.00000000000E+00 -0.00000000000E+00 -0.35946839824E+04  0.35946839824E+04  0.00000000000E+00 0.  1.
    9900016    2    1    2    0    0 -0.44167279126E+03  0.28967326314E+03 -0.18395060551E+04  0.27903871718E+04  0.20306384681E+04 0.  0.
         24    2    3    3    0    0 -0.90359131932E+02 -0.54437534912E+03 -0.17511060275E+04  0.18379588520E+04  0.84918365662E+02 0.  0.
        -15    1    4    4    0    0  0.14653220294E+02 -0.39752825626E+02 -0.11335311501E+03  0.12101211796E+03  0.00000000000E+00 0.  1.
        -15    1    1    2    0    0  0.17251145452E+03 -0.52592939222E+03  0.20004378227E+03  0.58854009410E+03  0.00000000000E+00 0.  1.
         15    1    1    2    0    0  0.66962601122E+03  0.40426201836E+03  0.51988350508E+03  0.93920478770E+03  0.00000000000E+00 0. -1.
         15    1    3    3    0    0 -0.28027607602E+03  0.75889671867E+03 -0.93992733705E+02  0.81444063159E+03  0.00000000000E+00 0. -1.
        -16    1    1    2    0    0 -0.40046467448E+03 -0.16800588928E+03 -0.82199442522E+03  0.92966271811E+03  0.00000000000E+00 0.  1.
         16    1    4    4    0    0 -0.10501235223E+03 -0.50462252349E+03 -0.16377529124E+04  0.17169467341E+04  0.00000000000E+00 0. -1.
    9900018    1    3    3    0    0 -0.71037583312E+02  0.75151893591E+02  0.55927060682E+01  0.13798768825E+03  0.91187600000E+02 0.  0.
<mgrwt>
<rscale>  0 0.22054377E+04</rscale>
<asrwt>0</asrwt>
<pdfrwt beam="1">  1        2 0.25432474E+00 0.25990741E+04</pdfrwt>
<pdfrwt beam="2">  1       -2 0.55302831E+00 0.25990741E+04</pdfrwt>
<totfact> 0.71162725E-03</totfact>
</mgrwt>
</event>
<event>
11    1  0.4213936E-012  0.3142131E+04  0.7818608E-02  0.8232588E-01
          2   -1    0    0  501    0  0.00000000000E+00  0.00000000000E+00  0.29441534850E+04  0.29441534850E+04  0.00000000000E+00 0. -1.
         -2   -1    0    0    0  501 -0.00000000000E+00 -0.00000000000E+00 -0.34556300054E+04  0.34556300054E+04  0.00000000000E+00 0.  1.
    9900016    2    1    2    0    0 -0.65517151314E+03  0.29145195759E+03 -0.34507737332E+03  0.21727531099E+04  0.20217773685E+04 0.  0.
         24    2    3    3    0    0  0.28550228544E+03 -0.33497482326E+03  0.52045122113E+03  0.68631446018E+03  0.80239500655E+02 0.  0.
        -15    1    1    2    0    0 -0.36021683550E+03 -0.87506643965E+03  0.18885551421E+03  0.96496831431E+03  0.00000000000E+00 0.  1.
        -15    1    4    4    0    0  0.10144254524E+03 -0.73091078169E+02  0.17836434959E+03  0.21782271896E+03  0.00000000000E+00 0.  1.
         15    1    1    2    0    0  0.14948061318E+04  0.98049855548E+03  0.79323695531E+03  0.19557729051E+04  0.00000000000E+00 0. -1.
         15    1    3    3    0    0 -0.63569149273E+03  0.19637119491E+03 -0.56437762279E+03  0.87246055568E+03  0.00000000000E+00 0. -1.
        -16    1    1    2    0    0 -0.47941778320E+03 -0.39688407342E+03 -0.11484916167E+04  0.13062891610E+04  0.00000000000E+00 0.  1.
         16    1    4    4    0    0  0.18405974020E+03 -0.26188374509E+03  0.34208687154E+03  0.46849174122E+03  0.00000000000E+00 0. -1.
    9900018    1    3    3    0    0 -0.30498230585E+03  0.43005558594E+03 -0.30115097166E+03  0.61397809408E+03  0.91187600000E+02 0.  0.
<mgrwt>
<rscale>  0 0.30393317E+04</rscale>
<asrwt>0</asrwt>
<pdfrwt beam="1">  1        2 0.45294669E+00 0.31421309E+04</pdfrwt>
<pdfrwt beam="2">  1       -2 0.53163538E+00 0.31421309E+04</pdfrwt>
<totfact> 0.15729384E-03</totfact>
</mgrwt>
</event>
<event>
11    1  0.4213936E-012  0.4155568E+04  0.7818608E-02  0.7973878E-01
          2   -1    0    0  501    0  0.00000000000E+00  0.00000000000E+00  0.29804889281E+04  0.29804889281E+04  0.00000000000E+00 0. -1.
         -2   -1    0    0    0  501 -0.00000000000E+00 -0.00000000000E+00 -0.14484825037E+04  0.14484825037E+04  0.00000000000E+00 0.  1.
    9900016    2    1    2    0    0  0.55908664061E+02 -0.70996793920E+03  0.52499644863E+03  0.22001988285E+04  0.20144660236E+04 0.  0.
         24    2    3    3    0    0 -0.55849425934E+03  0.30548085776E+03  0.42325498733E+03  0.76825213326E+03  0.76368604749E+02 0.  0.
        -15    1    4    4    0    0 -0.30728595897E+03  0.12723859164E+03  0.20400760404E+03  0.39017101672E+03  0.00000000000E+00 0.  1.
        -15    1    1    2    0    0 -0.69718929495E+02 -0.26784526628E+03 -0.68475825663E+02  0.28511533543E+03  0.00000000000E+00 0.  1.
         15    1    3    3    0    0  0.36287008417E+02 -0.22800309535E+03 -0.29417345507E+03  0.37395210942E+03  0.00000000000E+00 0. -1.
         15    1    1    2    0    0  0.30306178742E+03  0.83314445280E+03  0.72148310195E+02  0.88948384184E+03  0.00000000000E+00 0. -1.
        -16    1    1    2    0    0 -0.28925152199E+03  0.14466875268E+03  0.10033374912E+04  0.10541734261E+04  0.00000000000E+00 0.  1.
         16    1    4    4    0    0 -0.25120830037E+03  0.17824226612E+03  0.21924738330E+03  0.37808111655E+03  0.00000000000E+00 0. -1.
    9900018    1    3    3    0    0  0.57811591498E+03 -0.78744570161E+03  0.39591491636E+03  0.10579945858E+04  0.91187600000E+02 0.  0.
<mgrwt>
<rscale>  0 0.41555679E+04</rscale>
<asrwt>0</asrwt>
<pdfrwt beam="1">  1        2 0.45853676E+00 0.41555679E+04</pdfrwt>
<pdfrwt beam="2">  1       -2 0.22284346E+00 0.41555679E+04</pdfrwt>
<totfact> 0.13222429E-01</totfact>
</mgrwt>
</event>
<event>
11    1  0.4213936E-012  0.4045849E+04  0.7818608E-02  0.8277961E-01
         -2   -1    0    0    0  501 -0.00000000000E+00  0.00000000000E+00  0.25460149130E+04  0.25460149130E+04  0.00000000000E+00 0. -1.
          2   -1    0    0  501    0  0.00000000000E+00 -0.00000000000E+00 -0.26046004061E+04  0.26046004061E+04  0.00000000000E+00 0.  1.
    9900016    2    1    2    0    0 -0.13398167156E+04  0.94821930512E+03  0.41971648178E+03  0.26392240983E+04  0.20236386125E+04 0.  0.
         24    2    3    3    0    0 -0.56674676202E+03  0.78594179404E+03  0.85621201742E+03  0.12955336578E+04  0.80012772600E+02 0.  0.
        -15    1    4    4    0    0 -0.46713372816E+03  0.59646336275E+03  0.64864947638E+03  0.99736082052E+03  0.00000000000E+00 0.  1.
        -15    1    1    2    0    0  0.67437497340E+03 -0.97493511205E+03 -0.78777855127E+03  0.14233324008E+04  0.00000000000E+00 0.  1.
         15    1    1    2    0    0  0.64036534134E+03 -0.23673087101E+02  0.54788714753E+03  0.84309460434E+03  0.00000000000E+00 0. -1.
         15    1    3    3    0    0 -0.24656632996E+03 -0.19567855917E+03  0.25074448304E+03  0.40243987049E+03  0.00000000000E+00 0. -1.
        -16    1    1    2    0    0  0.25076400839E+02  0.50388894036E+02 -0.23841057110E+03  0.24496421562E+03  0.00000000000E+00 0.  1.
         16    1    4    4    0    0 -0.99613033861E+02  0.18947843129E+03  0.20756254103E+03  0.29817283726E+03  0.00000000000E+00 0. -1.
    9900018    1    3    3    0    0 -0.52650362360E+03  0.35795607025E+03 -0.68724001868E+03  0.94125057001E+03  0.91187600000E+02 0.  0.
<mgrwt>
<rscale>  0 0.28829737E+04</rscale>
<asrwt>0</asrwt>
<pdfrwt beam="1">  1        2 0.40070776E+00 0.40458492E+04</pdfrwt>
<pdfrwt beam="2">  1       -2 0.39169460E+00 0.40458492E+04</pdfrwt>
<totfact> 0.19249967E-02</totfact>
</mgrwt>
</event>
<event>
11    1  0.4213936E-012  0.4610716E+04  0.7818608E-02  0.7891535E-01
          2   -1    0    0  501    0  0.00000000000E+00  0.00000000000E+00  0.33498922088E+04  0.33498922088E+04  0.00000000000E+00 0. -1.
         -2   -1    0    0    0  501 -0.00000000000E+00 -0.00000000000E+00 -0.15865211155E+04  0.15865211155E+04  0.00000000000E+00 0.  1.
    9900016    2    1    2    0    0 -0.38803137717E+03 -0.34729713689E+03  0.25934887068E+03  0.21022641205E+04  0.20201655736E+04 0.  0.
        -24    2    3    3    0    0  0.33628793189E+03 -0.18213358314E+02  0.41750401556E+03  0.54231749415E+03  0.79858386563E+02 0.  0.
        -15    1    1    2    0    0 -0.12795222518E+03 -0.25543472880E+03 -0.25970930240E+03  0.38609272767E+03  0.00000000000E+00 0.  1.
        -15    1    3    3    0    0  0.22890712006E+03 -0.10854349913E+03 -0.46582705938E+03  0.53025937999E+03  0.00000000000E+00 0.  1.
         15    1    1    2    0    0  0.84436324901E+03  0.61603072403E+03  0.53116008733E+03  0.11724223589E+04  0.00000000000E+00 0. -1.
         15    1    4    4    0    0  0.10308680483E+03  0.11289522075E+02  0.79764091392E+02  0.13083062682E+03  0.00000000000E+00 0. -1.
        -16    1    4    4    0    0  0.23320112706E+03 -0.29502880389E+02  0.33773992416E+03  0.41148686733E+03  0.00000000000E+00 0.  1.
         16    1    1    2    0    0 -0.32837964666E+03 -0.13298858342E+02  0.12325714377E+04  0.12756341172E+04  0.00000000000E+00 0. -1.
    9900018    1    3    3    0    0 -0.95322642912E+03 -0.22054027945E+03  0.30767191450E+03  0.10296872464E+04  0.91187600000E+02 0.  0.
<mgrwt>
<rscale>  0 0.46107157E+04</rscale>
<asrwt>0</asrwt>
<pdfrwt beam="1">  1        2 0.51536803E+00 0.46107157E+04</pdfrwt>
<pdfrwt beam="2">  1       -2 0.24408017E+00 0.46107157E+04</pdfrwt>
<totfact> 0.54047207E-02</totfact>
</mgrwt>
</event>
<event>
11    1  0.4213936E-012  0.4317435E+04  0.7818608E-02  0.7943402E-01
          2   -1    0    0  501    0  0.00000000000E+00  0.00000000000E+00  0.25921387560E+04  0.25921387560E+04  0.00000000000E+00 0. -1.
         -2   -1    0    0    0  501 -0.00000000000E+00 -0.00000000000E+00 -0.17977664843E+04  0.17977664843E+04  0.00000000000E+00 0.  1.
    9900016    2    1    2    0    0  0.12015152773E+03 -0.48396293574E+03  0.64293865482E+02  0.20841175462E+04  0.20225616758E+04 0.  0.
        -24    2    3    3    0    0  0.67688935590E+03 -0.68359038371E+03 -0.16894734454E+03  0.97999899665E+03  0.79873746451E+02 0.  0.
        -15    1    1    2    0    0  0.43392898129E+03  0.20761021689E+03 -0.92323436907E+02  0.48981627164E+03  0.00000000000E+00 0.  1.
        -15    1    3    3    0    0 -0.30831071203E+03  0.13174342969E+03 -0.33478488020E+03  0.47380665089E+03  0.00000000000E+00 0.  1.
         15    1    4    4    0    0  0.46073284126E+02 -0.62437831954E+02 -0.32990367332E+02  0.84318412616E+02  0.00000000000E+00 0. -1.
         15    1    1    2    0    0 -0.64447591491E+03  0.81020396704E+03  0.33683451565E+03  0.10886859805E+04  0.00000000000E+00 0. -1.
        -16    1    4    4    0    0  0.63081607178E+03 -0.62115255176E+03 -0.13595697721E+03  0.89568058404E+03  0.00000000000E+00 0.  1.
         16    1    1    2    0    0  0.90395405887E+02 -0.53385124819E+03  0.48556732748E+03  0.72728544198E+03  0.00000000000E+00 0. -1.
    9900018    1    3    3    0    0 -0.24842711614E+03  0.67884018286E+02  0.56802609023E+03  0.63031189862E+03  0.91187600000E+02 0.  0.
<mgrwt>
<rscale>  0 0.43174345E+04</rscale>
<asrwt>0</asrwt>
<pdfrwt beam="1">  1        2 0.39879058E+00 0.43174345E+04</pdfrwt>
<pdfrwt beam="2">  1       -2 0.27657946E+00 0.43174345E+04</pdfrwt>
<totfact> 0.10449937E-01</totfact>
</mgrwt>
</event>
<event>
11    1  0.4213936E-012  0.3414549E+04  0.7818608E-02  0.8177151E-01
          1   -1    0    0  501    0  0.00000000000E+00  0.00000000000E+00  0.53757125747E+04  0.53757125747E+04  0.00000000000E+00 0. -1.
         -1   -1    0    0    0  501 -0.00000000000E+00 -0.00000000000E+00 -0.21228482514E+04  0.21228482514E+04  0.00000000000E+00 0.  1.
    9900016    2    1    2    0    0  0.53902251170E+03 -0.83485903425E+02 -0.14920341505E+03  0.21017716379E+04  0.20242695460E+04 0.  0.
         24    2    3    3    0    0  0.57812948581E+03 -0.87332191294E+03 -0.36777918926E+03  0.11127863142E+04  0.78147187832E+02 0.  0.
        -15    1    4    4    0    0  0.44684144769E+03 -0.68660938446E+03 -0.25354300645E+03  0.85754520716E+03  0.00000000000E+00 0.  1.
        -15    1    1    2    0    0  0.32098987772E+03 -0.61201055368E+03  0.43583469408E+03  0.81703323065E+03  0.00000000000E+00 0.  1.
         15    1    3    3    0    0  0.21529107731E+03  0.13003413832E+03  0.54709784272E+02  0.25739519341E+03  0.00000000000E+00 0. -1.
         15    1    1    2    0    0 -0.65690220652E+03  0.19316279252E+04  0.25368460217E+04  0.32555022175E+04  0.00000000000E+00 0. -1.
        -16    1    1    2    0    0 -0.20311018291E+03 -0.12361314681E+04  0.42938702256E+03  0.13242537400E+04  0.00000000000E+00 0.  1.
         16    1    4    4    0    0  0.13128803812E+03 -0.18671252848E+03 -0.11423618281E+03  0.25524110701E+03  0.00000000000E+00 0. -1.
    9900018    1    3    3    0    0 -0.25439805141E+03  0.65980187119E+03  0.16386598994E+03  0.73159013036E+03  0.91187600000E+02 0.  0.
<mgrwt>
<rscale>  0 0.32445446E+04</rscale>
<asrwt>0</asrwt>
<pdfrwt beam="1">  1        1 0.82703270E+00 0.34145493E+04</pdfrwt>
<pdfrwt beam="2">  1       -1 0.32659204E+00 0.34145493E+04</pdfrwt>
<totfact> 0.41576997E-05</totfact>
</mgrwt>
</event>
<event>
11    1  0.4213936E-012  0.2924536E+04  0.7818608E-02  0.8590253E-01
         -2   -1    0    0    0  501 -0.00000000000E+00  0.00000000000E+00  0.21022361833E+04  0.21022361833E+04  0.00000000000E+00 0. -1.
          2   -1    0    0  501    0  0.00000000000E+00 -0.00000000000E+00 -0.18076698879E+04  0.18076698879E+04  0.00000000000E+00 0.  1.
    9900016    2    1    2    0    0  0.91768859266E+02  0.17643022430E+03  0.44142585995E+03  0.20840153916E+04  0.20269963530E+04 0.  0.
         24    2    3    3    0    0  0.38828810548E+03 -0.18881798366E+03 -0.52564521652E+03  0.68486947128E+03  0.79519904614E+02 0.  0.
        -15    1    4    4    0    0  0.17441368850E+03 -0.76450657017E+02 -0.17220838214E+03  0.25675000404E+03  0.00000000000E+00 0.  1.
        -15    1    1    2    0    0  0.10450671335E+03  0.41669551221E+02 -0.10986482973E+03  0.15725229870E+03  0.00000000000E+00 0.  1.
         15    1    1    2    0    0 -0.17360337413E+03  0.56811642127E+02  0.78272209062E+03  0.80375342322E+03  0.00000000000E+00 0. -1.
         15    1    3    3    0    0  0.12754024324E+03  0.53149936962E+03  0.52709722215E+03  0.75933495584E+03  0.00000000000E+00 0. -1.
        -16    1    1    2    0    0 -0.22672198480E+02 -0.27491141765E+03 -0.81971682547E+03  0.86488495773E+03  0.00000000000E+00 0.  1.
         16    1    4    4    0    0  0.21387441699E+03 -0.11236732664E+03 -0.35343683438E+03  0.42811946724E+03  0.00000000000E+00 0. -1.
    9900018    1    3    3    0    0 -0.42405948946E+03 -0.16625116167E+03  0.43997385432E+03  0.63981096445E+03  0.91187600000E+02 0.  0.
<mgrwt>
<rscale>  0 0.20353856E+04</rscale>
<asrwt>0</asrwt>
<pdfrwt beam="1">  1        2 0.27810306E+00 0.29245357E+04</pdfrwt>
<pdfrwt beam="2">  1       -2 0.32342095E+00 0.29245357E+04</pdfrwt>
<totfact> 0.16275294E-01</totfact>
</mgrwt>
</event>
<event>
11    1  0.4213936E-012  0.7053436E+04  0.7818608E-02  0.7571949E-01
         -2   -1    0    0    0  501 -0.00000000000E+00  0.00000000000E+00  0.34612818581E+04  0.34612818581E+04  0.00000000000E+00 0.  1.
          2   -1    0    0  501    0  0.00000000000E+00 -0.00000000000E+00 -0.35933913972E+04  0.35933913972E+04  0.00000000000E+00 0. -1.
    9900016    2    1    2    0    0  0.14471093794E+04  0.82590342524E+03  0.52908439932E+03  0.26790775585E+04  0.20300946379E+04 0.  0.
        -24    2    3    3    0    0  0.64306633567E+03  0.59801501002E+03  0.11662380619E+04  0.14615799486E+04  0.70345326199E+02 0.  0.
        -15    1    1    2    0    0 -0.22730955062E+04 -0.10506118250E+04  0.11355928033E+02  0.25041719877E+04  0.00000000000E+00 0.  1.
        -15    1    3    3    0    0 -0.56031270828E+02 -0.96744362716E+02 -0.47030083393E+02  0.12128810235E+03  0.00000000000E+00 0.  1.
         15    1    4    4    0    0  0.35872528550E+03  0.38076063695E+03  0.69342549301E+03  0.86862040471E+03  0.00000000000E+00 0. -1.
         15    1    1    2    0    0  0.90159831535E+02  0.55893839735E+03  0.27216823769E+03  0.62818506577E+03  0.00000000000E+00 0. -1.
        -16    1    4    4    0    0  0.28434105016E+03  0.21725437306E+03  0.47281256892E+03  0.59295954394E+03  0.00000000000E+00 0.  1.
         16    1    1    2    0    0  0.73582629525E+03 -0.33422999764E+03 -0.94471810414E+03  0.12432386434E+04  0.00000000000E+00 0. -1.
    9900018    1    3    3    0    0  0.86007431458E+03  0.32463277794E+03 -0.59012357921E+03  0.10962095075E+04  0.91187600000E+02 0.  0.
<mgrwt>
<rscale>  0 0.70534362E+04</rscale>
<asrwt>0</asrwt>
<pdfrwt beam="1">  1        2 0.55282944E+00 0.70534362E+04</pdfrwt>
<pdfrwt beam="2">  1       -2 0.53250490E+00 0.70534362E+04</pdfrwt>
<totfact> 0.46816538E-04</totfact>
</mgrwt>
</event>
<event>
11    1  0.4213936E-012  0.6404946E+04  0.7818608E-02  0.7642125E-01
          2   -1    0    0  501    0  0.00000000000E+00  0.00000000000E+00  0.42905217764E+04  0.42905217764E+04  0.00000000000E+00 0. -1.
         -2   -1    0    0    0  501 -0.00000000000E+00 -0.00000000000E+00 -0.23903460923E+04  0.23903460923E+04  0.00000000000E+00 0.  1.
    9900016    2    1    2    0    0 -0.76903402735E+03  0.26592855630E+03  0.64675167959E+03  0.22806780677E+04  0.20300427043E+04 0.  0.
         24    2    3    3    0    0 -0.39445082003E+03 -0.20436977134E+03 -0.11694884338E+03  0.46611953273E+03  0.78942599157E+02 0.  0.
        -15    1    4    4    0    0 -0.11843019071E+03 -0.56017859112E+02  0.17712692985E+01  0.13102231874E+03  0.00000000000E+00 0.  1.
        -15    1    1    2    0    0  0.78077291285E+03  0.23105650074E+03 -0.42771803235E+03  0.91974788022E+03  0.00000000000E+00 0.  1.
         15    1    3    3    0    0 -0.84880130082E+03  0.69621301247E+03  0.62673169561E+03  0.12641079168E+04  0.00000000000E+00 0. -1.
         15    1    1    2    0    0 -0.77699016569E+03 -0.52681514187E+03  0.23074625485E+04  0.24911104601E+04  0.00000000000E+00 0. -1.
        -16    1    1    2    0    0  0.76525128019E+03  0.29830084831E+02 -0.62632051164E+03  0.98933146068E+03  0.00000000000E+00 0.  1.
         16    1    4    4    0    0 -0.27602062931E+03 -0.14835191223E+03 -0.11872011268E+03  0.33509721399E+03  0.00000000000E+00 0. -1.
    9900018    1    3    3    0    0  0.47421809349E+03 -0.22591468483E+03  0.13696882736E+03  0.55045061820E+03  0.91187600000E+02 0.  0.
<mgrwt>
<rscale>  0 0.64049456E+04</rscale>
<asrwt>0</asrwt>
<pdfrwt beam="1">  1        2 0.66008027E+00 0.64049456E+04</pdfrwt>
<pdfrwt beam="2">  1       -2 0.36774555E+00 0.64049456E+04</pdfrwt>
<totfact> 0.15017515E-03</totfact>
</mgrwt>
</event>
