<event>
12    1  0.1217087E-007  0.4580597E+04  0.7818608E-02  0.8450139E-01
         -2   -1    0    0    0  501 -0.00000000000E+00  0.00000000000E+00  0.20854929355E+04  0.20854929355E+04  0.00000000000E+00 0.  1.
          2   -1    0    0  501    0  0.00000000000E+00 -0.00000000000E+00 -0.31161886166E+04  0.31161886166E+04  0.00000000000E+00 0. -1.
         24    2    1    2    0    0 -0.23920060278E+03  0.21770282917E+03  0.28542803330E+03  0.43575514241E+03  0.61659806558E+02 0.  0.
    9900016    2    1    2    0    0  0.22127066543E+02  0.12666351551E+04 -0.29613822930E+03  0.25560320023E+04  0.22001698849E+04 0.  0.
         23    2    4    4    0    0  0.37023240566E+03 -0.29058835546E+03  0.56652637352E+03  0.74211011695E+03  0.90893714051E+02 0.  0.
        -15    1    3    3    0    0 -0.13093867988E+03  0.14865035868E+03  0.14516597037E+03  0.24559117650E+03  0.00000000000E+00 0.  1.
        -15    1    5    5    0    0  0.23990387866E+03 -0.22498222672E+03  0.34325067903E+03  0.47538605573E+03  0.00000000000E+00 0. -1.
         15    1    1    2    0    0  0.26619017807E+02 -0.16708356672E+04 -0.93881062792E+03  0.19167070183E+04  0.00000000000E+00 0. -1.
         15    1    5    5    0    0  0.13032852700E+03 -0.65606128739E+02  0.22327569449E+03  0.26672406121E+03  0.00000000000E+00 0.  1.
        -16    1    4    4    0    0 -0.34810533912E+03  0.15572235106E+04 -0.86266460282E+03  0.18139218853E+04  0.00000000000E+00 0.  1.
         16    1    3    3    0    0 -0.10826192290E+03  0.69052470492E+02  0.14026206293E+03  0.19016396591E+03  0.00000000000E+00 0. -1.
    9900018    1    1    2    0    0  0.19045451843E+03  0.18649768287E+03 -0.81174857244E+02  0.29318738914E+03  0.91187600000E+02 0.  0.
<mgrwt>
<rscale>  0 0.23717942E+04</rscale>
<asrwt>0</asrwt>
<pdfrwt beam="1">  1        2 0.47941363E+00 0.45805974E+04</pdfrwt>
<pdfrwt beam="2">  1       -2 0.32084507E+00 0.45805974E+04</pdfrwt>
<totfact> 0.25659039E-02</totfact>
</mgrwt>
</event>
<event>
12    1  0.1217087E-007  0.5040890E+04  0.7818608E-02  0.7822230E-01
         -2   -1    0    0    0  501 -0.00000000000E+00  0.00000000000E+00  0.24148496531E+04  0.24148496531E+04  0.00000000000E+00 0.  1.
          2   -1    0    0  501    0  0.00000000000E+00 -0.00000000000E+00 -0.26306580069E+04  0.26306580069E+04  0.00000000000E+00 0. -1.
        -24    2    1    2    0    0  0.34870464030E+03  0.57032591003E+03 -0.31962140928E+03  0.74884306477E+03  0.10835829717E+03 0.  0.
    9900016    2    1    2    0    0 -0.16636144196E+03 -0.27253302862E+02 -0.12308037982E+04  0.25230387493E+04  0.21960026569E+04 0.  0.
         23    2    4    4    0    0 -0.35302696759E+03 -0.31505304891E+03  0.53716997152E+03  0.72209345237E+03  0.94767674758E+02 0.  0.
        -15    1    1    2    0    0  0.11575380451E+03 -0.13665585172E+03 -0.13047542636E+03  0.22157978688E+03  0.00000000000E+00 0.  1.
        -15    1    5    5    0    0 -0.11509796634E+03 -0.11747462625E+03  0.25505397655E+03  0.30348041225E+03  0.00000000000E+00 0.  1.
         15    1    5    5    0    0 -0.23792900125E+03 -0.19757842267E+03  0.28211599497E+03  0.41861304012E+03  0.00000000000E+00 0. -1.
         15    1    3    3    0    0  0.20144591758E+03  0.41764650416E+03 -0.24133625587E+03  0.52273535230E+03  0.00000000000E+00 0. -1.
        -16    1    3    3    0    0  0.14725872272E+03  0.15267940587E+03 -0.78285153409E+02  0.22610771247E+03  0.00000000000E+00 0.  1.
         16    1    4    4    0    0  0.18666552564E+03  0.28779974605E+03 -0.17679737697E+04  0.18009452969E+04  0.00000000000E+00 0. -1.
    9900018    1    1    2    0    0 -0.29809700285E+03 -0.40641675545E+03  0.14650922800E+04  0.15520460591E+04  0.91187600000E+02 0.  0.
<mgrwt>
<rscale>  0 0.50408902E+04</rscale>
<asrwt>0</asrwt>
<pdfrwt beam="1">  1        2 0.40471662E+00 0.50408902E+04</pdfrwt>
<pdfrwt beam="2">  1       -2 0.37151533E+00 0.50408902E+04</pdfrwt>
<totfact> 0.24056449E-02</totfact>
</mgrwt>
</event>
<event>
11    1  0.1217087E-007  0.4736616E+04  0.7818608E-02  0.8148658E-01
          1   -1    0    0  501    0  0.00000000000E+00  0.00000000000E+00  0.39882526839E+04  0.39882526839E+04  0.00000000000E+00 0. -1.
         -1   -1    0    0    0  501 -0.00000000000E+00 -0.00000000000E+00 -0.22053805774E+04  0.22053805774E+04  0.00000000000E+00 0.  1.
    9900016    2    1    2    0    0 -0.71826863897E+03 -0.11371117822E+04  0.51548546089E+03  0.26285624085E+04  0.21987910387E+04 0.  0.
         23    2    3    3    0    0  0.19091136723E+03 -0.12875364299E+03  0.11166034094E+04  0.11437266571E+04  0.91010118254E+02 0.  0.
        -15    1    4    4    0    0  0.92125588822E+02 -0.11501356081E+03  0.62961398491E+03  0.64662896106E+03  0.00000000000E+00 0. -1.
        -15    1    1    2    0    0  0.12443214500E+04 -0.22726006863E+03  0.13154116472E+04  0.18249084392E+04  0.00000000000E+00 0.  1.
         15    1    1    2    0    0 -0.58253575001E+02  0.30244718691E+03  0.92866153504E+02  0.32170157341E+03  0.00000000000E+00 0. -1.
         15    1    4    4    0    0  0.98785778403E+02 -0.13740082179E+02  0.48698942445E+03  0.49709769603E+03  0.00000000000E+00 0.  1.
        -16    1    1    2    0    0 -0.22470911872E+03  0.85732620058E+03  0.23597861505E+03  0.91716318559E+03  0.00000000000E+00 0.  1.
         16    1    3    3    0    0 -0.90918000619E+03 -0.10083581392E+04 -0.60111794847E+03  0.14848357514E+04  0.00000000000E+00 0. -1.
    9900018    1    1    2    0    0 -0.24309011733E+03  0.20459846336E+03 -0.37686977022E+03  0.50129765455E+03  0.91187600000E+02 0.  0.
<mgrwt>
<rscale>  0 0.33565319E+04</rscale>
<asrwt>0</asrwt>
<pdfrwt beam="1">  1        1 0.61357734E+00 0.47366165E+04</pdfrwt>
<pdfrwt beam="2">  1       -1 0.33928932E+00 0.47366165E+04</pdfrwt>
<totfact> 0.12712399E-03</totfact>
</mgrwt>
</event>
<event>
11    1  0.1217087E-007  0.3975126E+04  0.7818608E-02  0.8275285E-01
          2   -1    0    0  501    0  0.00000000000E+00  0.00000000000E+00  0.20399372894E+04  0.20399372894E+04  0.00000000000E+00 0.  1.
         -2   -1    0    0    0  501 -0.00000000000E+00 -0.00000000000E+00 -0.31749481366E+04  0.31749481366E+04  0.00000000000E+00 0. -1.
    9900016    2    1    2    0    0 -0.50139228817E+03  0.65597045782E+03 -0.35942721254E+03  0.23786358281E+04  0.22015969234E+04 0.  0.
         23    2    3    3    0    0  0.25037477839E+03  0.73249885128E+03 -0.10815968073E+04  0.13333898087E+04  0.93992720482E+02 0.  0.
        -15    1    4    4    0    0  0.22315551417E+03  0.67501711313E+03 -0.94368665472E+03  0.11815206256E+04  0.00000000000E+00 0. -1.
        -15    1    1    2    0    0 -0.67800195009E+03 -0.52636538339E+03 -0.19656663762E+03  0.88055982431E+03  0.00000000000E+00 0.  1.
         15    1    4    4    0    0  0.27219264220E+02  0.57481738149E+02 -0.13791015262E+03  0.15186918305E+03  0.00000000000E+00 0.  1.
         15    1    1    2    0    0  0.11427492733E+04  0.61766117485E+02 -0.74392791307E+03  0.13649614261E+04  0.00000000000E+00 0. -1.
        -16    1    3    3    0    0 -0.75176706656E+03 -0.76528393453E+02  0.72216959479E+03  0.10452460194E+04  0.00000000000E+00 0.  1.
         16    1    1    2    0    0 -0.22901112190E+03 -0.10249241833E+03 -0.44090061402E+01  0.25093869591E+03  0.00000000000E+00 0. -1.
    9900018    1    1    2    0    0  0.26565608684E+03 -0.88878773585E+02  0.16931992216E+03  0.33978965155E+03  0.91187600000E+02 0.  0.
<mgrwt>
<rscale>  0 0.28919209E+04</rscale>
<asrwt>0</asrwt>
<pdfrwt beam="1">  1        2 0.31383651E+00 0.39751260E+04</pdfrwt>
<pdfrwt beam="2">  1       -2 0.48845356E+00 0.39751260E+04</pdfrwt>
<totfact> 0.94446320E-03</totfact>
</mgrwt>
</event>
<event>
12    1  0.1217087E-007  0.3894647E+04  0.7818608E-02  0.8342853E-01
          2   -1    0    0  501    0  0.00000000000E+00  0.00000000000E+00  0.28003138251E+04  0.28003138251E+04  0.00000000000E+00 0. -1.
         -2   -1    0    0    0  501 -0.00000000000E+00 -0.00000000000E+00 -0.22373307457E+04  0.22373307457E+04  0.00000000000E+00 0.  1.
         24    2    1    2    0    0  0.48098949076E+03 -0.72043680812E+03 -0.49850218461E+03  0.10009343209E+04  0.54635171419E+02 0.  0.
    9900016    2    1    2    0    0 -0.43459723034E+03  0.11841636607E+04 -0.73275107010E+02  0.25381063994E+04  0.22012488559E+04 0.  0.
         23    2    4    4    0    0  0.20081605201E+03 -0.38661497506E+03 -0.61500796143E+03  0.75918255408E+03  0.91242161908E+02 0.  0.
        -15    1    3    3    0    0  0.23309617491E+03 -0.31987626656E+03 -0.20248741550E+03  0.44458498186E+03  0.00000000000E+00 0.  1.
        -15    1    5    5    0    0  0.72182594172E+02 -0.22095908053E+03 -0.27969971005E+03  0.36368278757E+03  0.00000000000E+00 0.  1.
         15    1    5    5    0    0  0.12863345784E+03 -0.16565589453E+03 -0.33530825138E+03  0.39549976651E+03  0.00000000000E+00 0. -1.
         15    1    1    2    0    0  0.94304181254E+02 -0.67682782974E+03  0.95095124336E+03  0.11710241061E+04  0.00000000000E+00 0. -1.
        -16    1    4    4    0    0 -0.63541328235E+03  0.15707786357E+04  0.54173285442E+03  0.17789238453E+04  0.00000000000E+00 0.  1.
         16    1    3    3    0    0  0.24789331585E+03 -0.40056054156E+03 -0.29601476912E+03  0.55634933902E+03  0.00000000000E+00 0. -1.
    9900018    1    1    2    0    0 -0.14069644168E+03  0.21310097720E+03  0.18380912766E+03  0.32757974447E+03  0.91187600000E+02 0.  0.
<mgrwt>
<rscale>  0 0.26759430E+04</rscale>
<asrwt>0</asrwt>
<pdfrwt beam="1">  1        2 0.43081751E+00 0.38946474E+04</pdfrwt>
<pdfrwt beam="2">  1       -2 0.34420473E+00 0.38946474E+04</pdfrwt>
<totfact> 0.29961854E-02</totfact>
</mgrwt>
</event>
