<event>
11    1  0.2908834E-016  0.1050022E+04  0.7818608E-02  0.9561148E-01
          2   -1    0    0  501    0  0.00000000000E+00  0.00000000000E+00  0.62280671968E+03  0.62280671968E+03  0.00000000000E+00 0. -1.
         -2   -1    0    0    0  501 -0.00000000000E+00 -0.00000000000E+00 -0.15685019245E+04  0.15685019245E+04  0.00000000000E+00 0.  1.
    9900016    2    1    2    0    0 -0.25328103286E+03 -0.61077561958E+02 -0.94407922284E+03  0.12390911517E+04  0.75906492024E+03 0.  0.
         23    2    3    3    0    0  0.80711557092E+02 -0.21230225097E+03 -0.64207758086E+02  0.25160040409E+03  0.87140839596E+02 0.  0.
        -15    1    1    2    0    0  0.21337070178E+03 -0.11755441637E+03 -0.36961847274E+03  0.44267811395E+03  0.00000000000E+00 0.  1.
        -15    1    4    4    0    0  0.19401370176E+02 -0.56878542701E+02 -0.59331497147E+02  0.84450034566E+02  0.00000000000E+00 0.  1.
         15    1    4    4    0    0  0.61310186917E+02 -0.15542370827E+03 -0.48762609393E+01  0.16715036953E+03  0.00000000000E+00 0. -1.
         15    1    1    2    0    0  0.54781743632E+02  0.20819505896E+03  0.96316693318E+02  0.23584555841E+03  0.00000000000E+00 0. -1.
        -16    1    1    2    0    0 -0.14871412547E+02 -0.29563080633E+02  0.27168579742E+03  0.27369382011E+03  0.00000000000E+00 0.  1.
         16    1    3    3    0    0 -0.25492123603E+03  0.14685295688E+03 -0.76972797718E+03  0.82403385026E+03  0.00000000000E+00 0. -1.
    9900018    1    3    3    0    0 -0.79071353924E+02  0.43717321354E+01 -0.11014348757E+03  0.16345689738E+03  0.91187600000E+02 0.  0.
<mgrwt>
<rscale>  0 0.79921945E+03</rscale>
<asrwt>0</asrwt>
<pdfrwt beam="1">  1        2 0.95816418E-01 0.10500220E+04</pdfrwt>
<pdfrwt beam="2">  1       -2 0.24130799E+00 0.10500220E+04</pdfrwt>
<totfact> 0.34205890E+00</totfact>
</mgrwt>
</event>
<event>
11    1  0.2908834E-016  0.1669210E+04  0.7818608E-02  0.8779122E-01
          1   -1    0    0  501    0  0.00000000000E+00  0.00000000000E+00  0.81666208629E+03  0.81666208629E+03  0.00000000000E+00 0. -1.
         -1   -1    0    0    0  501 -0.00000000000E+00 -0.00000000000E+00 -0.85294218920E+03  0.85294218920E+03  0.00000000000E+00 0.  1.
    9900016    2    1    2    0    0  0.36936665112E+03 -0.15899739818E+03  0.11398438473E+03  0.86832683500E+03  0.76110916223E+03 0.  0.
         23    2    3    3    0    0  0.53220789756E+03 -0.16588950755E+03  0.59306064023E+01  0.56476739345E+03  0.90346342881E+02 0.  0.
        -15    1    4    4    0    0  0.42487128261E+03 -0.16763243102E+03 -0.57629828067E+01  0.45678162254E+03  0.00000000000E+00 0.  1.
        -15    1    1    2    0    0 -0.10129987350E+03  0.52192688672E+02  0.91562400391E+02  0.14618281119E+03  0.00000000000E+00 0.  1.
         15    1    1    2    0    0 -0.10492487012E+03 -0.31650121543E+02 -0.38324719581E+03  0.39860929701E+03  0.00000000000E+00 0. -1.
         15    1    4    4    0    0  0.10733661496E+03  0.17429234706E+01  0.11693589209E+02  0.10798577092E+03  0.00000000000E+00 0. -1.
        -16    1    1    2    0    0 -0.16314190750E+03  0.13845483105E+03  0.14142030778E+03  0.25648533229E+03  0.00000000000E+00 0.  1.
         16    1    3    3    0    0 -0.16667020006E+03  0.87104559230E+01  0.12774321844E+03  0.21017411231E+03  0.00000000000E+00 0. -1.
    9900018    1    3    3    0    0  0.38289536112E+01 -0.18183465547E+01 -0.19689440113E+02  0.93385329232E+02  0.91187600000E+02 0.  0.
<mgrwt>
<rscale>  0 0.16692100E+04</rscale>
<asrwt>0</asrwt>
<pdfrwt beam="1">  1        1 0.12564032E+00 0.16692100E+04</pdfrwt>
<pdfrwt beam="2">  1       -1 0.13122187E+00 0.16692100E+04</pdfrwt>
<totfact> 0.10106575E+01</totfact>
</mgrwt>
</event>
<event>
11    1  0.2908834E-016  0.2986954E+04  0.7818608E-02  0.8459570E-01
         -2   -1    0    0    0  501 -0.00000000000E+00  0.00000000000E+00  0.12969132058E+04  0.12969132058E+04  0.00000000000E+00 0.  1.
          2   -1    0    0  501    0  0.00000000000E+00 -0.00000000000E+00 -0.40325064342E+04  0.40325064342E+04  0.00000000000E+00 0. -1.
    9900016    2    1    2    0    0 -0.96634207505E+03 -0.22219106719E+03 -0.93073074330E+03  0.15613789868E+04  0.76711064880E+03 0.  0.
         23    2    3    3    0    0 -0.33946413226E+02 -0.97774565113E+01 -0.46380798694E+03  0.47340293134E+03  0.88003005807E+02 0.  0.
        -15    1    1    2    0    0 -0.21424655465E+03 -0.31402836266E+02  0.48733617751E+03  0.53327692076E+03  0.00000000000E+00 0.  1.
        -15    1    4    4    0    0 -0.50115309930E+02 -0.36920776024E+02 -0.33832713610E+03  0.34400572526E+03  0.00000000000E+00 0.  1.
         15    1    1    2    0    0  0.15843909580E+04  0.61245214786E+03 -0.19876944269E+04  0.26146360121E+04  0.00000000000E+00 0. -1.
         15    1    4    4    0    0  0.16168896704E+02  0.27143319512E+02 -0.12548085084E+03  0.12939720608E+03  0.00000000000E+00 0. -1.
        -16    1    3    3    0    0 -0.68759094469E+03 -0.18776551098E+03 -0.27992429148E+03  0.76576419562E+03  0.00000000000E+00 0.  1.
         16    1    1    2    0    0 -0.40380232835E+03 -0.35885824440E+03 -0.30450423579E+03  0.62012772037E+03  0.00000000000E+00 0. -1.
    9900018    1    3    3    0    0 -0.24480471713E+03 -0.24648099706E+02 -0.18699846488E+03  0.32221185982E+03  0.91187600000E+02 0.  0.
<mgrwt>
<rscale>  0 0.23471206E+04</rscale>
<asrwt>0</asrwt>
<pdfrwt beam="1">  1        2 0.62038559E+00 0.29869543E+04</pdfrwt>
<pdfrwt beam="2">  1       -2 0.19952511E+00 0.29869543E+04</pdfrwt>
<totfact> 0.35405305E-02</totfact>
</mgrwt>
</event>
<event>
11    1  0.2908834E-016  0.3841015E+04  0.7818608E-02  0.8037410E-01
         -3   -1    0    0    0  501 -0.00000000000E+00  0.00000000000E+00  0.39229980737E+04  0.39229980737E+04  0.00000000000E+00 0.  1.
          3   -1    0    0  501    0  0.00000000000E+00 -0.00000000000E+00 -0.94018623520E+03  0.94018623520E+03  0.00000000000E+00 0. -1.
    9900016    2    1    2    0    0  0.23014005138E+03  0.17060455270E+03  0.62558986798E+03  0.10248618850E+04  0.75954515583E+03 0.  0.
         23    2    3    3    0    0  0.22590279597E+03 -0.20076195256E+03  0.13831922599E+03  0.34498002644E+03  0.92420644576E+02 0.  0.
        -15    1    1    2    0    0 -0.98195947568E+03  0.95575653741E+03  0.81084730422E+03  0.15922274716E+04  0.00000000000E+00 0.  1.
        -15    1    4    4    0    0  0.19916064077E+03 -0.12750593130E+03  0.11853717701E+03  0.26452558606E+03  0.00000000000E+00 0. -1.
         15    1    1    2    0    0  0.56071980178E+03 -0.17459255147E+03  0.91776094665E+03  0.10895753349E+04  0.00000000000E+00 0. -1.
         15    1    4    4    0    0  0.26742155202E+02 -0.73256021254E+02  0.19782048979E+02  0.80454440378E+02  0.00000000000E+00 0.  1.
        -16    1    3    3    0    0  0.10884374647E+02  0.38194302509E+03  0.39230358791E+03  0.54763222067E+03  0.00000000000E+00 0.  1.
         16    1    1    2    0    0  0.19109962253E+03 -0.95176853865E+03  0.62861371963E+03  0.11565196174E+04  0.00000000000E+00 0. -1.
    9900018    1    3    3    0    0 -0.66471192414E+01 -0.10576519831E+02  0.94967054082E+02  0.13224963788E+03  0.91187600000E+02 0.  0.
<mgrwt>
<rscale>  0 0.38410149E+04</rscale>
<asrwt>0</asrwt>
<pdfrwt beam="1">  1        3 0.14464404E+00 0.38410149E+04</pdfrwt>
<pdfrwt beam="2">  1       -3 0.60353816E+00 0.38410149E+04</pdfrwt>
<totfact> 0.63484065E-04</totfact>
</mgrwt>
</event>
<event>
11    1  0.2908834E-016  0.3601610E+04  0.7818608E-02  0.8090123E-01
         -1   -1    0    0    0  501 -0.00000000000E+00  0.00000000000E+00  0.19906792417E+04  0.19906792417E+04  0.00000000000E+00 0.  1.
          1   -1    0    0  501    0  0.00000000000E+00 -0.00000000000E+00 -0.16290416472E+04  0.16290416472E+04  0.00000000000E+00 0. -1.
    9900016    2    1    2    0    0  0.14537855376E+03  0.87019514901E+01 -0.62120873911E+03  0.91524724504E+03  0.65617571895E+03 0.  0.
         23    2    3    3    0    0  0.21343034823E+03 -0.24180863762E+03 -0.12919878715E+03  0.35895559957E+03  0.90182398993E+02 0.  0.
        -15    1    1    2    0    0 -0.40053797160E+03 -0.83185487715E+02 -0.31132799469E+03  0.51407743808E+03  0.00000000000E+00 0.  1.
        -15    1    4    4    0    0  0.19976270120E+03 -0.20369138883E+03 -0.82170680663E+02  0.29689617619E+03  0.00000000000E+00 0.  1.
         15    1    1    2    0    0  0.77364974095E+03 -0.42320965788E+03  0.68689247071E+03  0.11177931841E+04  0.00000000000E+00 0. -1.
         15    1    4    4    0    0  0.13667647028E+02 -0.38117248786E+02 -0.47028106486E+02  0.62059423378E+02  0.00000000000E+00 0. -1.
        -16    1    3    3    0    0 -0.68051794472E+02  0.25051058911E+03 -0.49200995197E+03  0.55629164547E+03  0.00000000000E+00 0.  1.
         16    1    1    2    0    0 -0.55106993384E+03  0.44789379493E+03  0.64302146456E+03  0.95799975335E+03  0.00000000000E+00 0. -1.
    9900018    1    1    2    0    0  0.32579610739E+02  0.49799399176E+02 -0.35739606955E+02  0.11460326825E+03  0.91187600000E+02 0.  0.
<mgrwt>
<rscale>  0 0.36016104E+04</rscale>
<asrwt>0</asrwt>
<pdfrwt beam="1">  1        1 0.25062179E+00 0.36016104E+04</pdfrwt>
<pdfrwt beam="2">  1       -1 0.30625835E+00 0.36016104E+04</pdfrwt>
<totfact> 0.12964871E-01</totfact>
</mgrwt>
</event>
<event>
11    1  0.2908834E-016  0.2046237E+04  0.7818608E-02  0.8751157E-01
          1   -1    0    0  501    0  0.00000000000E+00  0.00000000000E+00  0.10774842809E+04  0.10774842809E+04  0.00000000000E+00 0. -1.
         -1   -1    0    0    0  501 -0.00000000000E+00 -0.00000000000E+00 -0.24100102307E+04  0.24100102307E+04  0.00000000000E+00 0.  1.
    9900016    2    1    2    0    0 -0.51025613175E+03  0.37508205160E+03 -0.51201332771E+02  0.98621124655E+03  0.75428322328E+03 0.  0.
         23    2    3    3    0    0 -0.12913429983E+03  0.25714024239E+03  0.28411847667E+03  0.41350280202E+03  0.86397261789E+02 0.  0.
        -15    1    1    2    0    0  0.34916097508E+03  0.55308429217E+03 -0.13312495224E+04  0.14832534887E+04  0.00000000000E+00 0.  1.
        -15    1    4    4    0    0 -0.84321666877E+02  0.21852853311E+03  0.25908663904E+03  0.34927174208E+03  0.00000000000E+00 0. -1.
         15    1    1    2    0    0 -0.11114066348E+02 -0.79442210958E+03  0.77398536902E+02  0.79826094993E+03  0.00000000000E+00 0. -1.
         15    1    4    4    0    0 -0.44812632951E+02  0.38611709288E+02  0.25031837628E+02  0.64231059942E+02  0.00000000000E+00 0.  1.
        -16    1    1    2    0    0  0.17220922302E+03 -0.13374423419E+03 -0.27473631487E+02  0.21976882649E+03  0.00000000000E+00 0.  1.
         16    1    3    3    0    0 -0.31278588030E+03  0.10736206929E+03 -0.31453952116E+03  0.45639536721E+03  0.00000000000E+00 0. -1.
    9900018    1    3    3    0    0 -0.68335951619E+02  0.10579739923E+02 -0.20780288272E+02  0.11631307732E+03  0.91187600000E+02 0.  0.
<mgrwt>
<rscale>  0 0.17180126E+04</rscale>
<asrwt>0</asrwt>
<pdfrwt beam="1">  1        1 0.16576681E+00 0.20462370E+04</pdfrwt>
<pdfrwt beam="2">  1       -1 0.37077080E+00 0.20462370E+04</pdfrwt>
<totfact> 0.13420207E-01</totfact>
</mgrwt>
</event>
<event>
11    1  0.2908834E-016  0.1127884E+04  0.7818608E-02  0.9333524E-01
          2   -1    0    0  501    0  0.00000000000E+00  0.00000000000E+00  0.20315527306E+04  0.20315527306E+04  0.00000000000E+00 0. -1.
         -2   -1    0    0    0  501 -0.00000000000E+00 -0.00000000000E+00 -0.38894445649E+03  0.38894445649E+03  0.00000000000E+00 0.  1.
    9900016    2    1    2    0    0 -0.15443861827E+03  0.11253975618E+03  0.52045201957E+03  0.86606751358E+03  0.66534663888E+03 0.  0.
         23    2    3    3    0    0  0.22437946353E+03 -0.94623741169E+02  0.18791159792E+03  0.32108771050E+03  0.92123575448E+02 0.  0.
        -15    1    1    2    0    0  0.13008185202E+03 -0.21452396878E+03  0.44848008886E+03  0.51388346102E+03  0.00000000000E+00 0.  1.
        -15    1    4    4    0    0  0.15107875255E+03 -0.81019932012E+02  0.78158796657E+02  0.18840864192E+03  0.00000000000E+00 0.  1.
         15    1    4    4    0    0  0.73300710982E+02 -0.13603809158E+02  0.10975280126E+03  0.13267906858E+03  0.00000000000E+00 0. -1.
         15    1    1    2    0    0  0.35754937318E+03  0.25504919666E+02  0.29061001720E+03  0.46146098133E+03  0.00000000000E+00 0. -1.
        -16    1    3    3    0    0 -0.37881808180E+03  0.20716349734E+03  0.33254042165E+03  0.54497980308E+03  0.00000000000E+00 0.  1.
         16    1    1    2    0    0 -0.32605304711E+03  0.28915175812E+02  0.32251227260E+03  0.45952240739E+03  0.00000000000E+00 0. -1.
    9900018    1    1    2    0    0 -0.71395598204E+01  0.47564117123E+02  0.60553875877E+02  0.11956282378E+03  0.91187600000E+02 0.  0.
<mgrwt>
<rscale>  0 0.97754283E+03</rscale>
<asrwt>0</asrwt>
<pdfrwt beam="1">  1        2 0.31254657E+00 0.11278836E+04</pdfrwt>
<pdfrwt beam="2">  1       -2 0.59837610E-01 0.11278836E+04</pdfrwt>
<totfact> 0.16570860E+01</totfact>
</mgrwt>
</event>
<event>
11    1  0.2908834E-016  0.1238069E+04  0.7818608E-02  0.9318478E-01
          2   -1    0    0  501    0  0.00000000000E+00  0.00000000000E+00  0.18577009895E+04  0.18577009895E+04  0.00000000000E+00 0.  1.
         -2   -1    0    0    0  501 -0.00000000000E+00 -0.00000000000E+00 -0.41324943110E+03  0.41324943110E+03  0.00000000000E+00 0. -1.
    9900016    2    1    2    0    0  0.55050667900E+03  0.84569792885E+02  0.71599471451E+03  0.11197449212E+04  0.65648351375E+03 0.  0.
         23    2    3    3    0    0  0.38295392547E+03  0.32802155963E+03  0.62961818980E+03  0.81184300179E+03  0.91750433292E+02 0.  0.
        -15    1    1    2    0    0 -0.21888831073E+03 -0.52828390800E+02  0.61859337072E+02  0.23351554345E+03  0.00000000000E+00 0.  1.
        -15    1    4    4    0    0  0.70507555901E+02  0.57055791728E+02  0.17596024304E+03  0.19796132435E+03  0.00000000000E+00 0. -1.
         15    1    4    4    0    0  0.31244636957E+03  0.27096576791E+03  0.45365794676E+03  0.61388167744E+03  0.00000000000E+00 0.  1.
         15    1    1    2    0    0 -0.12942259366E+03 -0.22179633394E+03  0.27471528657E+03  0.37604828171E+03  0.00000000000E+00 0. -1.
        -16    1    1    2    0    0 -0.21276797440E+03  0.18171088799E+03  0.27001757694E+03  0.38884257689E+03  0.00000000000E+00 0.  1.
         16    1    3    3    0    0  0.16755275353E+03 -0.24345176675E+03  0.86376524712E+02  0.30790191940E+03  0.00000000000E+00 0. -1.
    9900018    1    1    2    0    0  0.10572199788E+02  0.83440438654E+01  0.12186464331E+03  0.15279909738E+03  0.91187600000E+02 0.  0.
<mgrwt>
<rscale>  0 0.99099412E+03</rscale>
<asrwt>0</asrwt>
<pdfrwt beam="1">  1        2 0.28580015E+00 0.12380687E+04</pdfrwt>
<pdfrwt beam="2">  1       -2 0.63576836E-01 0.12380687E+04</pdfrwt>
<totfact> 0.17993584E+01</totfact>
</mgrwt>
</event>
<event>
11    1  0.2908834E-016  0.1678417E+04  0.7818608E-02  0.8773770E-01
         -1   -1    0    0    0  501 -0.00000000000E+00  0.00000000000E+00  0.72467431908E+03  0.72467431908E+03  0.00000000000E+00 0.  1.
          1   -1    0    0  501    0  0.00000000000E+00 -0.00000000000E+00 -0.97184486027E+03  0.97184486027E+03  0.00000000000E+00 0. -1.
    9900016    2    1    2    0    0 -0.67140641769E+02 -0.24396174216E+03 -0.10096747095E+03  0.72711320207E+03  0.67414685419E+03 0.  0.
         23    2    3    3    0    0  0.80418057108E+02 -0.44481307648E+02 -0.35121583173E+03  0.37470682380E+03  0.92773879452E+02 0.  0.
        -15    1    1    2    0    0  0.82079199692E+02 -0.23492737701E+03 -0.18766337326E+03  0.31168158296E+03  0.00000000000E+00 0.  1.
        -15    1    4    4    0    0  0.92955760834E+02 -0.11190771625E+02 -0.27723097470E+03  0.29261411479E+03  0.00000000000E+00 0.  1.
         15    1    1    2    0    0  0.10683890924E+03  0.14600963698E+03  0.68770710845E+02  0.19355303483E+03  0.00000000000E+00 0. -1.
         15    1    4    4    0    0 -0.12537703726E+02 -0.33290536022E+02 -0.73984857031E+02  0.82092709014E+02  0.00000000000E+00 0. -1.
        -16    1    3    3    0    0 -0.14755869888E+03 -0.19948043452E+03  0.25024836078E+03  0.35240637826E+03  0.00000000000E+00 0.  1.
         16    1    1    2    0    0 -0.80828557272E+02  0.35237277679E+03 -0.21312764472E+02  0.36215198939E+03  0.00000000000E+00 0. -1.
    9900018    1    1    2    0    0 -0.40948909897E+02 -0.19493294591E+02 -0.59976433516E+01  0.10201937010E+03  0.91187600000E+02 0.  0.
<mgrwt>
<rscale>  0 0.16784171E+04</rscale>
<asrwt>0</asrwt>
<pdfrwt beam="1">  1        1 0.14951459E+00 0.16784171E+04</pdfrwt>
<pdfrwt beam="2">  1       -1 0.11148836E+00 0.16784171E+04</pdfrwt>
<totfact> 0.11224311E+01</totfact>
</mgrwt>
</event>
<event>
11    1  0.2908834E-016  0.3170881E+04  0.7818608E-02  0.8196550E-01
          2   -1    0    0  501    0  0.00000000000E+00  0.00000000000E+00  0.17588101332E+04  0.17588101332E+04  0.00000000000E+00 0.  1.
         -2   -1    0    0    0  501 -0.00000000000E+00 -0.00000000000E+00 -0.14291605442E+04  0.14291605442E+04  0.00000000000E+00 0. -1.
    9900016    2    1    2    0    0 -0.34214915563E+03  0.27626088785E+03  0.19047608977E+03  0.81543530825E+03  0.65974804153E+03 0.  0.
         23    2    3    3    0    0 -0.38839435401E+03  0.23973929393E+02  0.33452927007E+03  0.52126079111E+03  0.91531722934E+02 0.  0.
        -15    1    1    2    0    0  0.33347941818E+03 -0.45306447194E+03  0.99579217049E+03  0.11437123698E+04  0.00000000000E+00 0.  1.
        -15    1    4    4    0    0 -0.37884339467E+03  0.15102081886E+02  0.29727372449E+03  0.48179047089E+03  0.00000000000E+00 0. -1.
         15    1    1    2    0    0  0.25198900232E+03 -0.18943184215E+03 -0.35451869020E+03  0.47441161644E+03  0.00000000000E+00 0. -1.
         15    1    4    4    0    0 -0.95509593337E+01  0.88718475072E+01  0.37255545578E+02  0.39470320225E+02  0.00000000000E+00 0.  1.
        -16    1    3    3    0    0  0.46245198376E+02  0.25228695845E+03 -0.14405318029E+03  0.29417451713E+03  0.00000000000E+00 0.  1.
         16    1    1    2    0    0 -0.17871342012E+03  0.26144197419E+03 -0.51075348173E+03  0.60096548279E+03  0.00000000000E+00 0. -1.
    9900018    1    1    2    0    0 -0.64605844745E+02  0.10479345205E+03  0.86535006506E+01  0.15344590003E+03  0.91187600000E+02 0.  0.
<mgrwt>
<rscale>  0 0.31708813E+04</rscale>
<asrwt>0</asrwt>
<pdfrwt beam="1">  1        2 0.27058617E+00 0.31708813E+04</pdfrwt>
<pdfrwt beam="2">  1       -2 0.21987085E+00 0.31708813E+04</pdfrwt>
<totfact> 0.76029022E-01</totfact>
</mgrwt>
</event>
<event>
11    1  0.2908834E-016  0.1984336E+04  0.7818608E-02  0.8613979E-01
          2   -1    0    0  501    0  0.00000000000E+00  0.00000000000E+00  0.25302655693E+04  0.25302655693E+04  0.00000000000E+00 0. -1.
         -2   -1    0    0    0  501 -0.00000000000E+00 -0.00000000000E+00 -0.38904917212E+03  0.38904917212E+03  0.00000000000E+00 0.  1.
    9900016    2    1    2    0    0  0.52657498488E+03 -0.25667889657E+03  0.11177103576E+04  0.14257082925E+04  0.66347752125E+03 0.  0.
         23    2    3    3    0    0  0.45066178809E+03 -0.44111198746E+03  0.61783702911E+03  0.88751527602E+03  0.91021634256E+02 0.  0.
        -15    1    4    4    0    0  0.38253690507E+03 -0.39861514129E+03  0.57116361283E+03  0.79464230143E+03  0.00000000000E+00 0. -1.
        -15    1    1    2    0    0 -0.41942030822E+03  0.27694890930E+03  0.47891609141E+03  0.69424398875E+03  0.00000000000E+00 0.  1.
         15    1    1    2    0    0  0.34433286862E+02  0.89940964023E+02  0.32006809989E+03  0.33424334970E+03  0.00000000000E+00 0. -1.
         15    1    4    4    0    0  0.68124883025E+02 -0.42496846164E+02  0.46673416278E+02  0.92872974584E+02  0.00000000000E+00 0.  1.
        -16    1    3    3    0    0  0.75913196785E+02  0.18443309089E+03  0.49987332850E+03  0.53819301650E+03  0.00000000000E+00 0.  1.
         16    1    1    2    0    0 -0.21676190128E+03 -0.57373976406E+02  0.22732908476E+02  0.22537586415E+03  0.00000000000E+00 0. -1.
    9900018    1    1    2    0    0  0.75173937758E+02 -0.52837000351E+02  0.20178893983E+03  0.23974324632E+03  0.91187600000E+02 0.  0.
<mgrwt>
<rscale>  0 0.19843364E+04</rscale>
<asrwt>0</asrwt>
<pdfrwt beam="1">  1        2 0.38927162E+00 0.19843364E+04</pdfrwt>
<pdfrwt beam="2">  1       -2 0.59853720E-01 0.19843364E+04</pdfrwt>
<totfact> 0.81011662E+00</totfact>
</mgrwt>
</event>
<event>
11    1  0.2908834E-016  0.1440540E+04  0.7818608E-02  0.9298665E-01
         -1   -1    0    0    0  501 -0.00000000000E+00  0.00000000000E+00  0.10139164567E+04  0.10139164567E+04  0.00000000000E+00 0.  1.
          1   -1    0    0  501    0  0.00000000000E+00 -0.00000000000E+00 -0.79284463690E+03  0.79284463690E+03  0.00000000000E+00 0. -1.
    9900016    2    1    2    0    0 -0.34846615181E+03 -0.11106725167E+03  0.46019245290E+03  0.96090959841E+03  0.76013523090E+03 0.  0.
         23    2    3    3    0    0  0.15572817970E+03  0.12530472121E+03  0.14187746357E+03  0.26097944144E+03  0.89601981413E+02 0.  0.
        -15    1    4    4    0    0  0.70876626698E+02  0.22340686405E+02  0.12932490004E+02  0.75431106175E+02  0.00000000000E+00 0. -1.
        -15    1    1    2    0    0 -0.95183140661E+01 -0.33451903140E+02  0.24888739438E+01  0.34868648094E+02  0.00000000000E+00 0.  1.
         15    1    1    2    0    0  0.10687722101E+03  0.32821139614E+03 -0.34016662463E+03  0.48462232041E+03  0.00000000000E+00 0. -1.
         15    1    4    4    0    0  0.84851553004E+02  0.10296403480E+03  0.12894497357E+03  0.18554833526E+03  0.00000000000E+00 0.  1.
        -16    1    3    3    0    0 -0.47692509223E+03 -0.17402074643E+03  0.23828461812E+03  0.56082111499E+03  0.00000000000E+00 0.  1.
         16    1    1    2    0    0  0.25110724487E+03 -0.18369224134E+03  0.98557117588E+02  0.32636052669E+03  0.00000000000E+00 0. -1.
    9900018    1    3    3    0    0 -0.27269239287E+02 -0.62351226443E+02  0.80030371211E+02  0.13910904198E+03  0.91187600000E+02 0.  0.
<mgrwt>
<rscale>  0 0.10090589E+04</rscale>
<asrwt>0</asrwt>
<pdfrwt beam="1">  1        1 0.12197610E+00 0.14405403E+04</pdfrwt>
<pdfrwt beam="2">  1       -1 0.15598715E+00 0.14405403E+04</pdfrwt>
<totfact> 0.67910543E+00</totfact>
</mgrwt>
</event>
<event>
11    1  0.2908834E-016  0.3700632E+04  0.7818608E-02  0.8067822E-01
          2   -1    0    0  501    0  0.00000000000E+00  0.00000000000E+00  0.17158999846E+04  0.17158999846E+04  0.00000000000E+00 0. -1.
         -2   -1    0    0    0  501 -0.00000000000E+00 -0.00000000000E+00 -0.19952614652E+04  0.19952614652E+04  0.00000000000E+00 0.  1.
    9900016    2    1    2    0    0  0.91138462958E+03  0.36675445433E+03  0.49264970483E+02  0.12447856778E+04  0.76284570752E+03 0.  0.
         23    2    3    3    0    0  0.49642882232E+03 -0.13042662734E+02  0.29861712152E+03  0.58660826665E+03  0.91243556251E+02 0.  0.
        -15    1    1    2    0    0 -0.11812850819E+04 -0.14558496279E+03  0.12940004961E+03  0.11972358995E+04  0.00000000000E+00 0.  1.
        -15    1    4    4    0    0  0.12152706976E+03 -0.21427037883E+02  0.11659149108E+03  0.16976902671E+03  0.00000000000E+00 0.  1.
         15    1    1    2    0    0  0.36476995557E+03 -0.42837785305E+03  0.18072353938E+03  0.59095321570E+03  0.00000000000E+00 0. -1.
         15    1    4    4    0    0  0.37490175256E+03  0.83843751490E+01  0.18202563043E+03  0.41683923994E+03  0.00000000000E+00 0. -1.
        -16    1    1    2    0    0 -0.94869503198E+02  0.20720836150E+03 -0.63875004007E+03  0.67818665676E+03  0.00000000000E+00 0.  1.
         16    1    3    3    0    0  0.30726043000E+03  0.34734489955E+03 -0.20206111451E+03  0.50585190035E+03  0.00000000000E+00 0. -1.
    9900018    1    3    3    0    0  0.10769537726E+03  0.32452217513E+02 -0.47291036526E+02  0.15232551078E+03  0.91187600000E+02 0.  0.
<mgrwt>
<rscale>  0 0.37006319E+04</rscale>
<asrwt>0</asrwt>
<pdfrwt beam="1">  1        2 0.26398461E+00 0.37006319E+04</pdfrwt>
<pdfrwt beam="2">  1       -2 0.30696330E+00 0.37006319E+04</pdfrwt>
<totfact> 0.22374158E-01</totfact>
</mgrwt>
</event>
<event>
11    1  0.2908834E-016  0.1530430E+04  0.7818608E-02  0.9311259E-01
         -1   -1    0    0    0  501 -0.00000000000E+00  0.00000000000E+00  0.53702147428E+03  0.53702147428E+03  0.00000000000E+00 0.  1.
          1   -1    0    0  501    0  0.00000000000E+00 -0.00000000000E+00 -0.18105503138E+04  0.18105503138E+04  0.00000000000E+00 0. -1.
    9900016    2    1    2    0    0  0.14007568154E+03  0.17667242681E+03 -0.13849088357E+03  0.70430583674E+03  0.65271176172E+03 0.  0.
         23    2    3    3    0    0  0.82915740663E+02  0.28262901449E+03  0.18466856654E+03  0.35944921797E+03  0.91362360676E+02 0.  0.
        -15    1    1    2    0    0  0.18775470469E+03  0.73238033815E+02  0.91726566161E+02  0.22142583786E+03  0.00000000000E+00 0.  1.
        -15    1    4    4    0    0  0.18093538545E+02  0.14039686609E+03  0.13455768046E+03  0.19530597921E+03  0.00000000000E+00 0.  1.
         15    1    4    4    0    0  0.64822202118E+02  0.14223214840E+03  0.50110886081E+02  0.16414323876E+03  0.00000000000E+00 0. -1.
         15    1    1    2    0    0 -0.62767481312E+02  0.33705972793E+02  0.56830084675E+01  0.71471294219E+02  0.00000000000E+00 0. -1.
        -16    1    3    3    0    0  0.57159940875E+02 -0.10595658769E+03 -0.32315945011E+03  0.34485661877E+03  0.00000000000E+00 0.  1.
         16    1    1    2    0    0 -0.22769183628E+03 -0.26901834801E+03 -0.11917170659E+04  0.12427405236E+04  0.00000000000E+00 0. -1.
    9900018    1    1    2    0    0 -0.37371068639E+02 -0.14598085402E+02 -0.40730464605E+02  0.10762829558E+03  0.91187600000E+02 0.  0.
<mgrwt>
<rscale>  0 0.99752946E+03</rscale>
<asrwt>0</asrwt>
<pdfrwt beam="1">  1        1 0.27854620E+00 0.15304299E+04</pdfrwt>
<pdfrwt beam="2">  1       -1 0.82618689E-01 0.15304299E+04</pdfrwt>
<totfact> 0.55899424E+00</totfact>
</mgrwt>
</event>
<event>
11    1  0.2908834E-016  0.1558753E+04  0.7818608E-02  0.9151160E-01
         -1   -1    0    0    0  501 -0.00000000000E+00  0.00000000000E+00  0.93754295333E+03  0.93754295333E+03  0.00000000000E+00 0.  1.
          1   -1    0    0  501    0  0.00000000000E+00 -0.00000000000E+00 -0.11541789285E+04  0.11541789285E+04  0.00000000000E+00 0. -1.
    9900016    2    1    2    0    0 -0.18939443742E+03  0.27182076581E+03  0.33101452368E+03  0.89478690295E+03  0.76244095191E+03 0.  0.
         23    2    3    3    0    0  0.14983723334E+03  0.15728516640E+03 -0.13668833596E+03  0.27231902925E+03  0.91017209576E+02 0.  0.
        -15    1    1    2    0    0 -0.56741917693E+02 -0.25095318886E+03 -0.62442609938E+02  0.26475692203E+03  0.00000000000E+00 0.  1.
        -15    1    4    4    0    0  0.40232772465E+02  0.34632048140E+02 -0.84421529667E+02  0.99724868563E+02  0.00000000000E+00 0.  1.
         15    1    4    4    0    0  0.10960446088E+03  0.12265311826E+03 -0.52266806293E+02  0.17259416069E+03  0.00000000000E+00 0. -1.
         15    1    1    2    0    0  0.14549607884E+03 -0.64541756550E+02 -0.68553871286E+03  0.70377416415E+03  0.00000000000E+00 0. -1.
        -16    1    3    3    0    0 -0.28835358137E+03  0.78981184928E+02  0.36427033322E+03  0.47125225848E+03  0.00000000000E+00 0.  1.
         16    1    1    2    0    0  0.10064027627E+03  0.43674179599E+02  0.20033082395E+03  0.22840389270E+03  0.00000000000E+00 0. -1.
    9900018    1    3    3    0    0 -0.50878089396E+02  0.35554414485E+02  0.10343252643E+03  0.15121561522E+03  0.91187600000E+02 0.  0.
<mgrwt>
<rscale>  0 0.11572069E+04</rscale>
<asrwt>0</asrwt>
<pdfrwt beam="1">  1        1 0.17756599E+00 0.15587527E+04</pdfrwt>
<pdfrwt beam="2">  1       -1 0.14423738E+00 0.15587527E+04</pdfrwt>
<totfact> 0.42615838E+00</totfact>
</mgrwt>
</event>
<event>
11    1  0.2908834E-016  0.8281549E+03  0.7818608E-02  0.1003627E+00
          2   -1    0    0  501    0  0.00000000000E+00  0.00000000000E+00  0.35010929768E+03  0.35010929768E+03  0.00000000000E+00 0. -1.
         -2   -1    0    0    0  501 -0.00000000000E+00 -0.00000000000E+00 -0.11779655001E+04  0.11779655001E+04  0.00000000000E+00 0.  1.
    9900016    2    1    2    0    0  0.11207363000E+03  0.45272547674E+02 -0.87936490459E+03  0.11685698950E+04  0.76004135535E+03 0.  0.
         23    2    3    3    0    0  0.48155919165E+02 -0.28526415196E+03 -0.38000201858E+03  0.48602197793E+03  0.90117700645E+02 0.  0.
        -15    1    4    4    0    0  0.60695184063E+02 -0.19668875036E+03 -0.31141896723E+03  0.37329899951E+03  0.00000000000E+00 0.  1.
        -15    1    1    2    0    0 -0.10813967022E+03 -0.30892883905E+02  0.13869909931E+03  0.17856651058E+03  0.00000000000E+00 0.  1.
         15    1    1    2    0    0 -0.39161292719E+02 -0.27290586279E+02 -0.12122420393E+03  0.13028311696E+03  0.00000000000E+00 0. -1.
         15    1    4    4    0    0 -0.12539264898E+02 -0.88575401594E+02 -0.68583051349E+02  0.11272297842E+03  0.00000000000E+00 0. -1.
        -16    1    3    3    0    0  0.27064336803E+02  0.35585894127E+03 -0.43347052801E+03  0.56148442815E+03  0.00000000000E+00 0.  1.
         16    1    1    2    0    0  0.35227332948E+02  0.12910922509E+02  0.34033806812E+02  0.50655275270E+02  0.00000000000E+00 0. -1.
    9900018    1    3    3    0    0  0.36853374028E+02 -0.25322241637E+02 -0.65892358009E+02  0.12106348887E+03  0.91187600000E+02 0.  0.
<mgrwt>
<rscale>  0 0.54088035E+03</rscale>
<asrwt>0</asrwt>
<pdfrwt beam="1">  1        2 0.53862968E-01 0.82815493E+03</pdfrwt>
<pdfrwt beam="2">  1       -2 0.18122546E+00 0.82815493E+03</pdfrwt>
<totfact> 0.16572623E+01</totfact>
</mgrwt>
</event>
<event>
11    1  0.2908834E-016  0.4465297E+04  0.7818608E-02  0.7916741E-01
          2   -1    0    0  501    0  0.00000000000E+00  0.00000000000E+00  0.27011669500E+04  0.27011669500E+04  0.00000000000E+00 0.  1.
         -2   -1    0    0    0  501 -0.00000000000E+00 -0.00000000000E+00 -0.18453945794E+04  0.18453945794E+04  0.00000000000E+00 0. -1.
    9900016    2    1    2    0    0  0.50109253853E+03  0.77594317506E+03  0.75174078050E+03  0.14160435441E+04  0.76608326878E+03 0.  0.
         23    2    3    3    0    0 -0.11761910729E+03  0.13629705517E+03 -0.41822131895E+02  0.20559631788E+03  0.90053392831E+02 0.  0.
        -15    1    1    2    0    0  0.25833985724E+03 -0.44718218589E+03  0.83593967773E+03  0.98260192042E+03  0.00000000000E+00 0.  1.
        -15    1    4    4    0    0 -0.76089560119E+02  0.26583270519E+02 -0.35625801273E+02  0.88122012840E+02  0.00000000000E+00 0.  1.
         15    1    1    2    0    0 -0.68609718148E+03 -0.99812659355E+03 -0.82879204509E+03  0.14676110838E+04  0.00000000000E+00 0. -1.
         15    1    4    4    0    0 -0.41529547174E+02  0.10971378465E+03 -0.61963306222E+01  0.11747430504E+03  0.00000000000E+00 0. -1.
        -16    1    3    3    0    0  0.49565553057E+03  0.44922674645E+03  0.60212180085E+03  0.90001652083E+03  0.00000000000E+00 0.  1.
         16    1    1    2    0    0 -0.73335214285E+02  0.66936560439E+03  0.96883957492E+02  0.68030498103E+03  0.00000000000E+00 0. -1.
    9900018    1    3    3    0    0  0.12305611525E+03  0.19041937344E+03  0.19144111155E+03  0.31043070542E+03  0.91187600000E+02 0.  0.
<mgrwt>
<rscale>  0 0.44652968E+04</rscale>
<asrwt>0</asrwt>
<pdfrwt beam="1">  1        2 0.41556414E+00 0.44652968E+04</pdfrwt>
<pdfrwt beam="2">  1       -2 0.28390686E+00 0.44652968E+04</pdfrwt>
<totfact> 0.80296816E-02</totfact>
</mgrwt>
</event>
<event>
11    1  0.2908834E-016  0.2011830E+04  0.7818608E-02  0.8601109E-01
         -1   -1    0    0    0  501 -0.00000000000E+00  0.00000000000E+00  0.30812985769E+03  0.30812985769E+03  0.00000000000E+00 0.  1.
          1   -1    0    0  501    0  0.00000000000E+00 -0.00000000000E+00 -0.32838927243E+04  0.32838927243E+04  0.00000000000E+00 0. -1.
    9900016    2    1    2    0    0  0.13429745348E+03 -0.23286698298E+03 -0.81077183569E+03  0.10795680465E+04  0.66019191135E+03 0.  0.
         23    2    3    3    0    0 -0.19520524400E+03 -0.30749254124E+02 -0.50953964376E+02  0.22707358819E+03  0.99576624047E+02 0.  0.
        -15    1    4    4    0    0 -0.18371396916E+03 -0.34650033854E+02 -0.73969648956E+02  0.20105461019E+03  0.00000000000E+00 0.  1.
        -15    1    1    2    0    0 -0.48772412975E+02 -0.99844767172E+02 -0.15598517992E+02  0.11220980154E+03  0.00000000000E+00 0.  1.
         15    1    4    4    0    0 -0.11491274838E+02  0.39007797302E+01  0.23015684580E+02  0.26018978008E+02  0.00000000000E+00 0. -1.
         15    1    1    2    0    0 -0.13468387788E+03  0.65185305965E+03 -0.13517651901E+04  0.15067585366E+04  0.00000000000E+00 0. -1.
        -16    1    1    2    0    0 -0.24390306990E+02 -0.23462622398E+03 -0.62709315370E+03  0.66999266823E+03  0.00000000000E+00 0.  1.
         16    1    3    3    0    0  0.32950269747E+03 -0.20211772886E+03 -0.75981787131E+03  0.85249445836E+03  0.00000000000E+00 0. -1.
    9900018    1    1    2    0    0  0.73549144369E+02 -0.84515085526E+02 -0.17053416915E+03  0.22349352912E+03  0.91187600000E+02 0.  0.
<mgrwt>
<rscale>  0 0.20118304E+04</rscale>
<asrwt>0</asrwt>
<pdfrwt beam="1">  1        1 0.50521428E+00 0.20118304E+04</pdfrwt>
<pdfrwt beam="2">  1       -1 0.47404592E-01 0.20118304E+04</pdfrwt>
<totfact> 0.15165590E+00</totfact>
</mgrwt>
</event>
<event>
11    1  0.2908834E-016  0.3045601E+04  0.7818608E-02  0.8230828E-01
          1   -1    0    0  501    0  0.00000000000E+00  0.00000000000E+00  0.98461229882E+03  0.98461229882E+03  0.00000000000E+00 0.  1.
         -1   -1    0    0    0  501 -0.00000000000E+00 -0.00000000000E+00 -0.23551612672E+04  0.23551612672E+04  0.00000000000E+00 0. -1.
    9900016    2    1    2    0    0  0.15068048276E+03 -0.31536112745E+03 -0.98390187747E+02  0.75606300804E+03  0.66316920502E+03 0.  0.
         23    2    3    3    0    0  0.40869295928E+03 -0.22493627000E+03 -0.66915294129E+02  0.48085806292E+03  0.95501620728E+02 0.  0.
        -15    1    1    2    0    0 -0.78749929691E+03 -0.67717172398E+01  0.17155171210E+03  0.80599689126E+03  0.00000000000E+00 0.  1.
        -15    1    4    4    0    0  0.27548968042E+03 -0.11403991537E+03 -0.96406568514E+01  0.29831628949E+03  0.00000000000E+00 0.  1.
         15    1    4    4    0    0  0.13320327887E+03 -0.11089635463E+03 -0.57274637278E+02  0.18254177343E+03  0.00000000000E+00 0. -1.
         15    1    1    2    0    0  0.47439877381E+03  0.13032631828E+01 -0.62680860051E+03  0.78609472506E+03  0.00000000000E+00 0. -1.
        -16    1    3    3    0    0 -0.25801247653E+03 -0.90424857450E+02 -0.31474893618E+02  0.27520494512E+03  0.00000000000E+00 0.  1.
         16    1    1    2    0    0  0.19490291575E+03  0.33999862831E+03 -0.80090938061E+03  0.89165130503E+03  0.00000000000E+00 0. -1.
    9900018    1    1    2    0    0 -0.32482875397E+02 -0.19169046803E+02 -0.15992511602E+02  0.99967636615E+02  0.91187600000E+02 0.  0.
<mgrwt>
<rscale>  0 0.30456006E+04</rscale>
<asrwt>0</asrwt>
<pdfrwt beam="1">  1        1 0.15147882E+00 0.30456006E+04</pdfrwt>
<pdfrwt beam="2">  1       -1 0.36233250E+00 0.30456006E+04</pdfrwt>
<totfact> 0.16956089E-01</totfact>
</mgrwt>
</event>
<event>
11    1  0.2908834E-016  0.1900075E+04  0.7818608E-02  0.8961208E-01
          2   -1    0    0  501    0  0.00000000000E+00  0.00000000000E+00  0.93980047368E+03  0.93980047368E+03  0.00000000000E+00 0. -1.
         -2   -1    0    0    0  501 -0.00000000000E+00 -0.00000000000E+00 -0.17069083557E+04  0.17069083557E+04  0.00000000000E+00 0.  1.
    9900016    2    1    2    0    0  0.19423231823E+03 -0.76693924731E+03 -0.53042686291E+03  0.12128193916E+04  0.75077041577E+03 0.  0.
         23    2    3    3    0    0  0.33021054717E+03 -0.22733512440E+03 -0.42862077178E+03  0.59379679848E+03  0.90325011149E+02 0.  0.
        -15    1    1    2    0    0  0.24060725553E+03  0.12520948869E+01 -0.19543468262E+03  0.30998086123E+03  0.00000000000E+00 0.  1.
        -15    1    4    4    0    0  0.31466111962E+03 -0.19099120289E+03 -0.36161083923E+03  0.51599579343E+03  0.00000000000E+00 0. -1.
         15    1    1    2    0    0  0.41358038225E+02  0.29988348505E+03 -0.28383681645E+03  0.41497461405E+03  0.00000000000E+00 0. -1.
         15    1    4    4    0    0  0.15549427546E+02 -0.36343921512E+02 -0.67009932543E+02  0.77801005053E+02  0.00000000000E+00 0.  1.
        -16    1    3    3    0    0 -0.14309654426E+03 -0.43832361403E+03 -0.23510543933E+02  0.46168924319E+03  0.00000000000E+00 0.  1.
         16    1    1    2    0    0 -0.47619761199E+03  0.46580366737E+03  0.24259047999E+03  0.70893396250E+03  0.00000000000E+00 0. -1.
    9900018    1    3    3    0    0  0.71183153232E+01 -0.10128050887E+03 -0.78295547204E+02  0.15733334992E+03  0.91187600000E+02 0.  0.
<mgrwt>
<rscale>  0 0.13898366E+04</rscale>
<asrwt>0</asrwt>
<pdfrwt beam="1">  1        2 0.14458469E+00 0.19000753E+04</pdfrwt>
<pdfrwt beam="2">  1       -2 0.26260128E+00 0.19000753E+04</pdfrwt>
<totfact> 0.13663106E+00</totfact>
</mgrwt>
</event>
<event>
11    1  0.2908834E-016  0.1386929E+04  0.7818608E-02  0.9564472E-01
          4   -1    0    0  501    0  0.00000000000E+00  0.00000000000E+00  0.51447009373E+03  0.51447009373E+03  0.00000000000E+00 0. -1.
         -4   -1    0    0    0  501 -0.00000000000E+00 -0.00000000000E+00 -0.11590279957E+04  0.11590279957E+04  0.00000000000E+00 0.  1.
    9900016    2    1    2    0    0  0.64736420487E+02 -0.42341450849E+03 -0.43245894922E+03  0.97404552817E+03  0.76044283023E+03 0.  0.
         23    2    3    3    0    0  0.25687448221E+03 -0.24880408114E+02 -0.28833479133E+03  0.39710796364E+03  0.89186594152E+02 0.  0.
        -15    1    1    2    0    0  0.32269741576E+02  0.50091371359E+03 -0.10145351247E+03  0.51210223577E+03  0.00000000000E+00 0.  1.
        -15    1    4    4    0    0  0.32527350441E+02 -0.27477516864E+02 -0.81505856413E+02  0.91957854963E+02  0.00000000000E+00 0. -1.
         15    1    1    2    0    0 -0.42049148949E+02  0.13861588329E+02 -0.27215145359E+02  0.51970556041E+02  0.00000000000E+00 0. -1.
         15    1    4    4    0    0  0.22434713177E+03  0.25971087494E+01 -0.20682893491E+03  0.30515010867E+03  0.00000000000E+00 0.  1.
        -16    1    1    2    0    0 -0.54957013114E+02 -0.91360793433E+02 -0.83430294910E+02  0.13537976945E+03  0.00000000000E+00 0.  1.
         16    1    3    3    0    0 -0.25549167686E+03 -0.35342990829E+03 -0.89341500886E+02  0.44516356634E+03  0.00000000000E+00 0. -1.
    9900018    1    3    3    0    0  0.63353615143E+02 -0.45104192088E+02 -0.54782657006E+02  0.13177399819E+03  0.91187600000E+02 0.  0.
<mgrwt>
<rscale>  0 0.79692943E+03</rscale>
<asrwt>0</asrwt>
<pdfrwt beam="1">  1        4 0.79149246E-01 0.13869292E+04</pdfrwt>
<pdfrwt beam="2">  1       -4 0.17831200E+00 0.13869292E+04</pdfrwt>
<totfact> 0.50730586E-01</totfact>
</mgrwt>
</event>
<event>
11    1  0.2908834E-016  0.1095482E+04  0.7818608E-02  0.9419047E-01
          1   -1    0    0  501    0  0.00000000000E+00  0.00000000000E+00  0.14535407019E+04  0.14535407019E+04  0.00000000000E+00 0. -1.
         -1   -1    0    0    0  501 -0.00000000000E+00 -0.00000000000E+00 -0.61978108189E+03  0.61978108189E+03  0.00000000000E+00 0.  1.
    9900016    2    1    2    0    0 -0.11851282711E+03  0.16294380693E+03  0.68674437080E+02  0.69405523069E+03  0.66060616901E+03 0.  0.
         23    2    3    3    0    0 -0.59448898809E+02  0.24151817626E+03 -0.24750807874E+03  0.36294518486E+03  0.92756439851E+02 0.  0.
        -15    1    4    4    0    0  0.14846689650E+02  0.79072464997E+02 -0.11581792380E+03  0.14102010633E+03  0.00000000000E+00 0.  1.
        -15    1    1    2    0    0 -0.57413961149E+02  0.25834936410E+03 -0.90064490160E+02  0.27955745251E+03  0.00000000000E+00 0.  1.
         15    1    1    2    0    0  0.21390099221E+03 -0.39285533499E+03  0.71632053959E+03  0.84451409943E+03  0.00000000000E+00 0. -1.
         15    1    4    4    0    0 -0.74295588459E+02  0.16244571126E+03 -0.13169015494E+03  0.22192507853E+03  0.00000000000E+00 0. -1.
        -16    1    1    2    0    0  0.36587998416E+02 -0.51294657055E+02  0.11749858964E+03  0.13332569909E+03  0.00000000000E+00 0.  1.
         16    1    3    3    0    0 -0.59063928301E+02 -0.78574369329E+02  0.31618251582E+03  0.33111004584E+03  0.00000000000E+00 0. -1.
    9900018    1    1    2    0    0 -0.74562202364E+02  0.22856821012E+02  0.21330543839E+02  0.12186930205E+03  0.91187600000E+02 0.  0.
<mgrwt>
<rscale>  0 0.90524594E+03</rscale>
<asrwt>0</asrwt>
<pdfrwt beam="1">  1        1 0.22362164E+00 0.10954820E+04</pdfrwt>
<pdfrwt beam="2">  1       -1 0.95350936E-01 0.10954820E+04</pdfrwt>
<totfact> 0.74455105E+00</totfact>
</mgrwt>
</event>
<event>
11    1  0.2908834E-016  0.1026909E+04  0.7818608E-02  0.9327678E-01
          2   -1    0    0  501    0  0.00000000000E+00  0.00000000000E+00  0.13876769512E+04  0.13876769512E+04  0.00000000000E+00 0. -1.
         -2   -1    0    0    0  501 -0.00000000000E+00 -0.00000000000E+00 -0.70607101847E+03  0.70607101847E+03  0.00000000000E+00 0.  1.
    9900016    2    1    2    0    0 -0.79901276416E+02  0.78571700917E+02 -0.39536999005E+02  0.77245212752E+03  0.76325709225E+03 0.  0.
         23    2    3    3    0    0 -0.17846301708E+03  0.28516141199E+03 -0.16829187716E+03  0.38682677436E+03  0.90259171776E+02 0.  0.
        -15    1    1    2    0    0 -0.80975564988E+02 -0.22377983777E+03  0.94090627699E+02  0.25590526399E+03  0.00000000000E+00 0.  1.
        -15    1    4    4    0    0 -0.91427536110E+02  0.13565001105E+03 -0.32223659744E+02  0.16672817430E+03  0.00000000000E+00 0.  1.
         15    1    4    4    0    0 -0.87035480971E+02  0.14951140094E+03 -0.13606821742E+03  0.22009860006E+03  0.00000000000E+00 0. -1.
         15    1    1    2    0    0  0.28302825008E+03  0.39649754268E+03  0.14509364329E+03  0.50829859042E+03  0.00000000000E+00 0. -1.
        -16    1    1    2    0    0 -0.12215140868E+03 -0.25128940583E+03  0.48195866073E+03  0.55709198771E+03  0.00000000000E+00 0.  1.
         16    1    3    3    0    0  0.10656735312E+03 -0.18889983036E+03  0.17764474631E+03  0.28035228295E+03  0.00000000000E+00 0. -1.
    9900018    1    3    3    0    0 -0.80056124569E+01 -0.17689880714E+02 -0.48889868152E+02  0.10527307021E+03  0.91187600000E+02 0.  0.
<mgrwt>
<rscale>  0 0.98274211E+03</rscale>
<asrwt>0</asrwt>
<pdfrwt beam="1">  1        2 0.21348876E+00 0.10269094E+04</pdfrwt>
<pdfrwt beam="2">  1       -2 0.10862631E+00 0.10269094E+04</pdfrwt>
<totfact> 0.98781371E+00</totfact>
</mgrwt>
</event>
<event>
11    1  0.2908834E-016  0.4141904E+04  0.7818608E-02  0.7976516E-01
         -2   -1    0    0    0  501 -0.00000000000E+00  0.00000000000E+00  0.20736020272E+04  0.20736020272E+04  0.00000000000E+00 0. -1.
          2   -1    0    0  501    0  0.00000000000E+00 -0.00000000000E+00 -0.20683051270E+04  0.20683051270E+04  0.00000000000E+00 0.  1.
    9900016    2    1    2    0    0  0.25796474740E+03 -0.37848843147E+02  0.35422384874E+03  0.87568491856E+03  0.75721278102E+03 0.  0.
         23    2    3    3    0    0  0.33930641244E+03 -0.39456648926E+02  0.38904713724E+03  0.52579802027E+03  0.91761726552E+02 0.  0.
        -15    1    4    4    0    0  0.17360052430E+03 -0.66250240404E+02  0.20796388845E+03  0.27888208134E+03  0.00000000000E+00 0. -1.
        -15    1    1    2    0    0  0.48423632080E+03 -0.27544754302E+03 -0.18868355101E+03  0.58818164351E+03  0.00000000000E+00 0.  1.
         15    1    4    4    0    0  0.16570588814E+03  0.26793591477E+02  0.18108324879E+03  0.24691593893E+03  0.00000000000E+00 0.  1.
         15    1    1    2    0    0 -0.27902205437E+03  0.53144821158E+03  0.11357360667E+04  0.12845960150E+04  0.00000000000E+00 0. -1.
        -16    1    1    2    0    0 -0.46317901383E+03 -0.21815182542E+03 -0.12959794643E+04  0.13934445772E+04  0.00000000000E+00 0.  1.
         16    1    3    3    0    0 -0.15179640769E+03  0.11598382216E+02 -0.12992518439E+03  0.20014301236E+03  0.00000000000E+00 0. -1.
    9900018    1    3    3    0    0  0.70454742653E+02 -0.99905764372E+01  0.95101895882E+02  0.14974388593E+03  0.91187600000E+02 0.  0.
<mgrwt>
<rscale>  0 0.41419038E+04</rscale>
<asrwt>0</asrwt>
<pdfrwt beam="1">  1        2 0.31820079E+00 0.41419038E+04</pdfrwt>
<pdfrwt beam="2">  1       -2 0.31901570E+00 0.41419038E+04</pdfrwt>
<totfact> 0.11590310E-01</totfact>
</mgrwt>
</event>
<event>
11    1  0.2908834E-016  0.3352325E+04  0.7818608E-02  0.8149707E-01
          1   -1    0    0  501    0  0.00000000000E+00  0.00000000000E+00  0.14109145649E+04  0.14109145649E+04  0.00000000000E+00 0. -1.
         -1   -1    0    0    0  501 -0.00000000000E+00 -0.00000000000E+00 -0.19912766868E+04  0.19912766868E+04  0.00000000000E+00 0.  1.
    9900016    2    1    2    0    0 -0.12274013421E+03 -0.13694030094E+03 -0.55045833016E+03  0.95160751002E+03  0.75414500815E+03 0.  0.
         23    2    3    3    0    0 -0.34774639554E+03 -0.20648522010E+03 -0.25484116769E+03  0.48647363487E+03  0.90271119133E+02 0.  0.
        -15    1    4    4    0    0 -0.14285546525E+03 -0.13688361122E+03 -0.12807339407E+03  0.23568538614E+03  0.00000000000E+00 0. -1.
        -15    1    1    2    0    0 -0.13500730582E+03  0.22720358043E+03 -0.95653348038E+03  0.99237328596E+03  0.00000000000E+00 0.  1.
         15    1    4    4    0    0 -0.20489093029E+03 -0.69601608873E+02 -0.12676777362E+03  0.25078824873E+03  0.00000000000E+00 0.  1.
         15    1    1    2    0    0 -0.12741728224E+03 -0.46447950759E+03  0.13247037513E+03  0.49952455102E+03  0.00000000000E+00 0. -1.
        -16    1    3    3    0    0  0.24474127558E+03  0.94081221875E+02 -0.22612083090E+03  0.34623719969E+03  0.00000000000E+00 0.  1.
         16    1    1    2    0    0  0.38516472227E+03  0.37421622810E+03  0.79415931353E+03  0.95868590473E+03  0.00000000000E+00 0. -1.
    9900018    1    3    3    0    0 -0.19735014252E+02 -0.24536302719E+02 -0.69496331573E+02  0.11889667546E+03  0.91187600000E+02 0.  0.
<mgrwt>
<rscale>  0 0.33523253E+04</rscale>
<asrwt>0</asrwt>
<pdfrwt beam="1">  1        1 0.21706378E+00 0.33523253E+04</pdfrwt>
<pdfrwt beam="2">  1       -1 0.30635026E+00 0.33523253E+04</pdfrwt>
<totfact> 0.18722447E-01</totfact>
</mgrwt>
</event>
<event>
11    1  0.2908834E-016  0.1736166E+04  0.7818608E-02  0.8741002E-01
         -1   -1    0    0    0  501 -0.00000000000E+00  0.00000000000E+00  0.55841060647E+03  0.55841060647E+03  0.00000000000E+00 0.  1.
          1   -1    0    0  501    0  0.00000000000E+00 -0.00000000000E+00 -0.13494869689E+04  0.13494869689E+04  0.00000000000E+00 0. -1.
    9900016    2    1    2    0    0  0.28043912989E+03  0.36230203307E+03 -0.48987970798E+03  0.10091242210E+04  0.75395006219E+03 0.  0.
         23    2    3    3    0    0  0.32109131225E+02  0.15655626711E+03  0.15383525888E+03  0.23880881848E+03  0.88450572796E+02 0.  0.
        -15    1    4    4    0    0 -0.24320351920E+02  0.11367884229E+02  0.24502762177E+02  0.36346852184E+02  0.00000000000E+00 0.  1.
        -15    1    1    2    0    0 -0.32073158669E+03 -0.41812610538E+03 -0.56257603726E+02  0.52996519572E+03  0.00000000000E+00 0.  1.
         15    1    1    2    0    0 -0.34511819730E+02  0.10186427765E+03 -0.25845235642E+03  0.27993752393E+03  0.00000000000E+00 0. -1.
         15    1    4    4    0    0  0.56429483145E+02  0.14518838288E+03  0.12933249670E+03  0.20246196629E+03  0.00000000000E+00 0. -1.
        -16    1    1    2    0    0  0.74804276524E+02 -0.46040205342E+02  0.13513305702E+02  0.88870634775E+02  0.00000000000E+00 0.  1.
         16    1    3    3    0    0  0.17960502763E+03  0.12391385787E+03 -0.57279315245E+03  0.61294747378E+03  0.00000000000E+00 0. -1.
    9900018    1    3    3    0    0  0.68724971040E+02  0.81831908095E+02 -0.70921814413E+02  0.15736792869E+03  0.91187600000E+02 0.  0.
<mgrwt>
<rscale>  0 0.17361657E+04</rscale>
<asrwt>0</asrwt>
<pdfrwt beam="1">  1        1 0.20761338E+00 0.17361657E+04</pdfrwt>
<pdfrwt beam="2">  1       -1 0.85909325E-01 0.17361657E+04</pdfrwt>
<totfact> 0.10585652E+01</totfact>
</mgrwt>
</event>
