<event>
11    1  0.4465329E-011  0.1688994E+04  0.7818608E-02  0.8977450E-01
          5   -1    0    0  501    0  0.00000000000E+00  0.00000000000E+00  0.15370925770E+04  0.15370925770E+04  0.00000000000E+00 0. -1.
         -5   -1    0    0    0  501 -0.00000000000E+00 -0.00000000000E+00 -0.10056794896E+04  0.10056794896E+04  0.00000000000E+00 0.  1.
    9900016    2    1    2    0    0  0.14286902079E+03  0.78876792954E+02 -0.44140979917E+02  0.73368612184E+03  0.71394243025E+03 0.  0.
         23    2    3    3    0    0  0.12859963497E+03  0.23187000949E+03  0.26699598621E+03  0.38667495291E+03  0.89045466717E+02 0.  0.
        -15    1    4    4    0    0  0.22826911194E+02 -0.20732775039E+01  0.23535306686E+02  0.32852351743E+02  0.00000000000E+00 0.  1.
        -15    1    1    2    0    0  0.44784999532E+02  0.59232362473E+02 -0.19869910725E+03  0.21212143731E+03  0.00000000000E+00 0.  1.
         15    1    1    2    0    0 -0.68387125884E+02  0.51135172712E+03  0.86093817503E+02  0.52303874926E+03  0.00000000000E+00 0. -1.
         15    1    4    4    0    0  0.10577272378E+03  0.23394328699E+03  0.24346067952E+03  0.35382260117E+03  0.00000000000E+00 0. -1.
        -16    1    1    2    0    0  0.12720570493E+03 -0.51182217391E+03  0.45670931976E+03  0.69765796192E+03  0.00000000000E+00 0.  1.
         16    1    3    3    0    0  0.14269385817E+02 -0.15299321653E+03 -0.31113696613E+03  0.34701116894E+03  0.00000000000E+00 0. -1.
    9900018    1    1    2    0    0 -0.24647259937E+03 -0.13763870864E+03  0.23145003731E+03  0.37626779628E+03  0.91187600000E+02 0.  0.
<mgrwt>
<rscale>  0 0.13678163E+04</rscale>
<asrwt>0</asrwt>
<pdfrwt beam="1">  1        5 0.23647578E+00 0.16889941E+04</pdfrwt>
<pdfrwt beam="2">  1       -5 0.15471992E+00 0.16889941E+04</pdfrwt>
<totfact> 0.13622410E-02</totfact>
</mgrwt>
</event>
<event>
11    1  0.4465329E-011  0.3058661E+04  0.7818608E-02  0.8822815E-01
         -1   -1    0    0    0  501 -0.00000000000E+00  0.00000000000E+00  0.18898716086E+04  0.18898716086E+04  0.00000000000E+00 0.  1.
          1   -1    0    0  501    0  0.00000000000E+00 -0.00000000000E+00 -0.14687809799E+04  0.14687809799E+04  0.00000000000E+00 0. -1.
    9900016    2    1    2    0    0  0.32349238269E+03 -0.16907544279E+03  0.24381170390E+03  0.82761900720E+03  0.70162329431E+03 0.  0.
         23    2    3    3    0    0  0.16135043446E+03 -0.34390252882E+03  0.38672827263E+03  0.54962680047E+03  0.90708053186E+02 0.  0.
        -15    1    1    2    0    0  0.10623843459E+03  0.14835413449E+03  0.17118380964E+03  0.25019882272E+03  0.00000000000E+00 0.  1.
        -15    1    4    4    0    0  0.41472826211E+02 -0.13957697706E+03  0.20306370052E+03  0.24987315644E+03  0.00000000000E+00 0.  1.
         15    1    1    2    0    0 -0.51054794628E+01 -0.38735227161E+02  0.10392477016E+02  0.40428793233E+02  0.00000000000E+00 0. -1.
         15    1    4    4    0    0  0.11987760825E+03 -0.20432555176E+03  0.18366457211E+03  0.29975364403E+03  0.00000000000E+00 0. -1.
        -16    1    3    3    0    0  0.16214194823E+03  0.17482708603E+03 -0.14291656873E+03  0.27799220673E+03  0.00000000000E+00 0.  1.
         16    1    1    2    0    0 -0.48672725345E+03 -0.50194111018E+03 -0.92311885866E+03  0.11580141297E+04  0.00000000000E+00 0. -1.
    9900018    1    1    2    0    0  0.62101915637E+02  0.56139764563E+03  0.91882149681E+03  0.10823918356E+04  0.91187600000E+02 0.  0.
<mgrwt>
<rscale>  0 0.15963151E+04</rscale>
<asrwt>0</asrwt>
<pdfrwt beam="1">  1        1 0.22596631E+00 0.30586615E+04</pdfrwt>
<pdfrwt beam="2">  1       -1 0.29074948E+00 0.30586615E+04</pdfrwt>
<totfact> 0.21875193E-01</totfact>
</mgrwt>
</event>
<event>
11    1  0.4465329E-011  0.1292714E+04  0.7818608E-02  0.9060284E-01
         -3   -1    0    0    0  501 -0.00000000000E+00  0.00000000000E+00  0.15628767684E+04  0.15628767684E+04  0.00000000000E+00 0.  1.
          3   -1    0    0  501    0  0.00000000000E+00 -0.00000000000E+00 -0.97689247201E+03  0.97689247201E+03  0.00000000000E+00 0. -1.
    9900016    2    1    2    0    0 -0.10481222383E+03 -0.57850850648E+03  0.59608014506E+02  0.88345522063E+03  0.65672088222E+03 0.  0.
         23    2    3    3    0    0  0.24273364480E+03 -0.32517245353E+03 -0.94424300651E+02  0.42662566747E+03  0.91851863026E+02 0.  0.
        -15    1    4    4    0    0  0.99464198856E+02 -0.89485016458E+02  0.37830055161E+01  0.13384695049E+03  0.00000000000E+00 0.  1.
        -15    1    1    2    0    0  0.31915026226E+00  0.19676074088E+03  0.22343445398E+03  0.29772108799E+03  0.00000000000E+00 0.  1.
         15    1    1    2    0    0  0.96659884436E+02  0.73677715029E+02 -0.44270156001E+03  0.45908192100E+03  0.00000000000E+00 0. -1.
         15    1    4    4    0    0  0.14326944595E+03 -0.23568743707E+03 -0.98207306167E+02  0.29277871698E+03  0.00000000000E+00 0. -1.
        -16    1    1    2    0    0  0.10288624314E+03  0.33080772973E+03  0.64514087839E+03  0.73227459744E+03  0.00000000000E+00 0.  1.
         16    1    3    3    0    0 -0.34754586863E+03 -0.25333605295E+03  0.15403231516E+03  0.45682955316E+03  0.00000000000E+00 0. -1.
    9900018    1    1    2    0    0 -0.95053054007E+02 -0.22737679170E+02  0.10050250950E+03  0.16723641332E+03  0.91187600000E+02 0.  0.
<mgrwt>
<rscale>  0 0.12619635E+04</rscale>
<asrwt>0</asrwt>
<pdfrwt beam="1">  1        3 0.15029115E+00 0.12927142E+04</pdfrwt>
<pdfrwt beam="2">  1       -3 0.24044258E+00 0.12927142E+04</pdfrwt>
<totfact> 0.66244505E-02</totfact>
</mgrwt>
</event>
<event>
11    1  0.4465329E-011  0.1762295E+04  0.7818608E-02  0.9030123E-01
          1   -1    0    0  501    0  0.00000000000E+00  0.00000000000E+00  0.16893321159E+04  0.16893321159E+04  0.00000000000E+00 0. -1.
         -1   -1    0    0    0  501 -0.00000000000E+00 -0.00000000000E+00 -0.84995028598E+03  0.84995028598E+03  0.00000000000E+00 0.  1.
    9900016    2    1    2    0    0  0.13425431866E+03  0.82020150589E+02  0.99883421894E+03  0.12347631638E+04  0.70867393538E+03 0.  0.
         23    2    3    3    0    0  0.29051664114E+03 -0.23358807805E+02  0.10724544135E+03  0.32347112140E+03  0.90478887100E+02 0.  0.
        -15    1    1    2    0    0  0.23439116307E+03 -0.69718922017E+02 -0.67980242941E+02  0.25381343314E+03  0.00000000000E+00 0.  1.
        -15    1    4    4    0    0  0.24694836693E+03  0.10078603599E+02  0.69195450119E+02  0.25665752375E+03  0.00000000000E+00 0.  1.
         15    1    1    2    0    0 -0.55693780487E+02  0.30499891358E+03  0.23896151736E+03  0.39144442932E+03  0.00000000000E+00 0. -1.
         15    1    4    4    0    0  0.43568274214E+02 -0.33437411404E+02  0.38049991233E+02  0.66813597660E+02  0.00000000000E+00 0. -1.
        -16    1    3    3    0    0 -0.15626232248E+03  0.10537895839E+03  0.89158877759E+03  0.91129204244E+03  0.00000000000E+00 0.  1.
         16    1    1    2    0    0 -0.26227389270E+03 -0.84621607485E+02 -0.49746808312E+02  0.28004134727E+03  0.00000000000E+00 0. -1.
    9900018    1    1    2    0    0 -0.50677808544E+02 -0.23267853466E+03 -0.28068685517E+03  0.37922002825E+03  0.91187600000E+02 0.  0.
<mgrwt>
<rscale>  0 0.12992967E+04</rscale>
<asrwt>0</asrwt>
<pdfrwt beam="1">  1        1 0.25989725E+00 0.17622947E+04</pdfrwt>
<pdfrwt beam="2">  1       -1 0.13076158E+00 0.17622947E+04</pdfrwt>
<totfact> 0.22599755E+00</totfact>
</mgrwt>
</event>
<event>
12    1  0.4465329E-011  0.2303632E+04  0.7818608E-02  0.8476491E-01
         -2   -1    0    0    0  501 -0.00000000000E+00  0.00000000000E+00  0.12974933421E+04  0.12974933421E+04  0.00000000000E+00 0.  1.
          2   -1    0    0  501    0  0.00000000000E+00 -0.00000000000E+00 -0.10224945258E+04  0.10224945258E+04  0.00000000000E+00 0. -1.
    9900016    2    1    2    0    0  0.23831425196E+03 -0.55842396567E+03  0.47229320781E+03  0.11040758955E+04  0.79201748768E+03 0.  0.
    9900016    2    3    3    0    0  0.28150155886E+03 -0.47428021694E+03  0.43061744631E+03  0.97614012195E+03  0.68061244537E+03 0.  0.
         23    2    4    4    0    0  0.17732252644E+03  0.26732231819E+02  0.41861729441E+03  0.46427026715E+03  0.90269325787E+02 0.  0.
        -15    1    5    5    0    0  0.11934813294E+03 -0.22754399172E+02  0.21656405950E+03  0.24831780319E+03  0.00000000000E+00 0. -1.
        -15    1    3    3    0    0 -0.62654689886E+02 -0.68587662595E+02  0.44223994089E+02  0.10288653594E+03  0.00000000000E+00 0.  1.
         15    1    3    3    0    0  0.19467382987E+02 -0.15556086132E+02 -0.25482325857E+01  0.25049237621E+02  0.00000000000E+00 0. -1.
         15    1    5    5    0    0  0.57974393498E+02  0.49486630991E+02  0.20205323492E+03  0.21595246395E+03  0.00000000000E+00 0.  1.
        -16    1    1    2    0    0 -0.62183804576E+03  0.35195146234E+03  0.32107714534E+02  0.71525051020E+03  0.00000000000E+00 0.  1.
         16    1    4    4    0    0  0.10417903242E+03 -0.50101244876E+03  0.12000151897E+02  0.51186985480E+03  0.00000000000E+00 0. -1.
    9900018    1    1    2    0    0  0.38352379381E+03  0.20647250333E+03 -0.22940210607E+03  0.50066146218E+03  0.91187600000E+02 0.  0.
<mgrwt>
<rscale>  0 0.23036318E+04</rscale>
<asrwt>0</asrwt>
<pdfrwt beam="1">  1        2 0.15730685E+00 0.23036318E+04</pdfrwt>
<pdfrwt beam="2">  1       -2 0.19961436E+00 0.23036318E+04</pdfrwt>
<totfact> 0.29538560E+00</totfact>
</mgrwt>
</event>
<event>
11    1  0.4465329E-011  0.1159388E+04  0.7818608E-02  0.9422212E-01
         -2   -1    0    0    0  501 -0.00000000000E+00  0.00000000000E+00  0.96478986140E+03  0.96478986140E+03  0.00000000000E+00 0. -1.
          2   -1    0    0  501    0  0.00000000000E+00 -0.00000000000E+00 -0.69720343097E+03  0.69720343097E+03  0.00000000000E+00 0.  1.
    9900016    2    1    2    0    0  0.10957417287E+03  0.16738628534E+02  0.14730837238E+02  0.72009318433E+03  0.71135821884E+03 0.  0.
         23    2    3    3    0    0  0.16626791506E+03  0.34262626713E+02 -0.32343688781E+03  0.37675853536E+03  0.92285569842E+02 0.  0.
        -15    1    4    4    0    0  0.14950216108E+03 -0.22119304980E+01 -0.22188991850E+03  0.26756480474E+03  0.00000000000E+00 0.  1.
        -15    1    1    2    0    0  0.23707111465E+02 -0.60720516753E+02  0.54533200349E+02  0.84987518078E+02  0.00000000000E+00 0.  1.
         15    1    1    2    0    0 -0.10288869077E+03  0.29614826133E+03 -0.16916381505E+03  0.35623906537E+03  0.00000000000E+00 0. -1.
         15    1    4    4    0    0  0.16765753983E+02  0.36474557211E+02 -0.10154696931E+03  0.10919373062E+03  0.00000000000E+00 0. -1.
        -16    1    1    2    0    0 -0.18236804831E+02 -0.15226883392E+03  0.32335776705E+03  0.35788074039E+03  0.00000000000E+00 0.  1.
         16    1    3    3    0    0 -0.56693742195E+02 -0.17523998179E+02  0.33816772505E+03  0.34333464897E+03  0.00000000000E+00 0. -1.
    9900018    1    1    2    0    0 -0.12155788729E+02 -0.99897539188E+02  0.44128440842E+02  0.14279278420E+03  0.91187600000E+02 0.  0.
<mgrwt>
<rscale>  0 0.90270006E+03</rscale>
<asrwt>0</asrwt>
<pdfrwt beam="1">  1        2 0.10726207E+00 0.11593884E+04</pdfrwt>
<pdfrwt beam="2">  1       -2 0.14842921E+00 0.11593884E+04</pdfrwt>
<totfact> 0.12451307E+01</totfact>
</mgrwt>
</event>
<event>
11    1  0.4465329E-011  0.2688161E+04  0.7818608E-02  0.8618439E-01
         -1   -1    0    0    0  501 -0.00000000000E+00  0.00000000000E+00  0.41132971140E+04  0.41132971140E+04  0.00000000000E+00 0.  1.
          1   -1    0    0  501    0  0.00000000000E+00 -0.00000000000E+00 -0.75485452346E+03  0.75485452346E+03  0.00000000000E+00 0. -1.
    9900016    2    1    2    0    0  0.38065674510E+03  0.47492863907E+03  0.14499616389E+03  0.95260620488E+03  0.71831603368E+03 0.  0.
         23    2    3    3    0    0  0.61326907884E+02  0.38517178588E+03  0.37506448242E+03  0.54892406654E+03  0.92336182405E+02 0.  0.
        -15    1    4    4    0    0  0.77500444516E+02  0.37183744295E+03  0.35438501249E+03  0.51947871945E+03  0.00000000000E+00 0. -1.
        -15    1    1    2    0    0  0.36455095672E+03 -0.53189930446E+02  0.39177875066E+03  0.53778913918E+03  0.00000000000E+00 0.  1.
         15    1    4    4    0    0 -0.16173536632E+02  0.13334342922E+02  0.20679469934E+02  0.29445347088E+02  0.00000000000E+00 0.  1.
         15    1    1    2    0    0  0.10982202802E+03 -0.33673006312E+03  0.39897746039E+02  0.35642649086E+03  0.00000000000E+00 0. -1.
        -16    1    1    2    0    0 -0.71291791954E+03 -0.24382122666E+03  0.26492717062E+04  0.27543313751E+04  0.00000000000E+00 0.  1.
         16    1    3    3    0    0  0.31932983722E+03  0.89756853192E+02 -0.23006831853E+03  0.40368213835E+03  0.00000000000E+00 0. -1.
    9900018    1    1    2    0    0 -0.14211181030E+03  0.15881258117E+03  0.13249822373E+03  0.26699842743E+03  0.91187600000E+02 0.  0.
<mgrwt>
<rscale>  0 0.19749154E+04</rscale>
<asrwt>0</asrwt>
<pdfrwt beam="1">  1        1 0.11613147E+00 0.26881606E+04</pdfrwt>
<pdfrwt beam="2">  1       -1 0.63281493E+00 0.26881606E+04</pdfrwt>
<totfact> 0.68334442E-03</totfact>
</mgrwt>
</event>
<event>
11    1  0.4465329E-011  0.1915646E+04  0.7818608E-02  0.9082301E-01
         -2   -1    0    0    0  501 -0.00000000000E+00  0.00000000000E+00  0.50393034853E+03  0.50393034853E+03  0.00000000000E+00 0.  1.
          2   -1    0    0  501    0  0.00000000000E+00 -0.00000000000E+00 -0.29088207674E+04  0.29088207674E+04  0.00000000000E+00 0. -1.
    9900016    2    1    2    0    0  0.24127723053E+03 -0.40086483204E+02 -0.21745429103E+04  0.22994574881E+04  0.70643205113E+03 0.  0.
         23    2    3    3    0    0  0.43613841155E+03  0.13907077956E+03 -0.11477074376E+04  0.12390522389E+04  0.91982023063E+02 0.  0.
        -15    1    1    2    0    0  0.14647201709E+02  0.15266749200E+03 -0.71254839772E+02  0.16911284937E+03  0.00000000000E+00 0. -1.
        -15    1    4    4    0    0  0.63492378327E+02  0.64856288186E+01 -0.94591938141E+02  0.11410950989E+03  0.00000000000E+00 0.  1.
         15    1    1    2    0    0  0.13317519013E+03 -0.48291468898E+02  0.79606735034E+02  0.16249593686E+03  0.00000000000E+00 0.  1.
         15    1    4    4    0    0  0.37264603322E+03  0.13258515074E+03 -0.10531154995E+04  0.11249427290E+04  0.00000000000E+00 0. -1.
        -16    1    1    2    0    0 -0.32964393705E+03  0.90332191000E+02 -0.40493736057E+03  0.52990498766E+03  0.00000000000E+00 0.  1.
         16    1    3    3    0    0 -0.19486118101E+03 -0.17915726277E+03 -0.10268354727E+04  0.10604052492E+04  0.00000000000E+00 0. -1.
    9900018    1    1    2    0    0 -0.59455685323E+02 -0.15462173089E+03  0.16623795674E+03  0.25177985391E+03  0.91187600000E+02 0.  0.
<mgrwt>
<rscale>  0 0.12355448E+04</rscale>
<asrwt>0</asrwt>
<pdfrwt beam="1">  1        2 0.44751089E+00 0.19156460E+04</pdfrwt>
<pdfrwt beam="2">  1       -2 0.77527745E-01 0.19156460E+04</pdfrwt>
<totfact> 0.27304947E+00</totfact>
</mgrwt>
</event>
