<event>
11    1  0.1704103E-010  0.2546859E+04  0.7818608E-02  0.8386480E-01
          1   -1    0    0  501    0  0.00000000000E+00  0.00000000000E+00  0.16262344134E+04  0.16262344134E+04  0.00000000000E+00 0. -1.
         -1   -1    0    0    0  501 -0.00000000000E+00 -0.00000000000E+00 -0.99716385950E+03  0.99716385950E+03  0.00000000000E+00 0.  1.
    9900016    2    1    2    0    0  0.93698659962E+02  0.18892050952E+03  0.59136978675E+03  0.22848397656E+04  0.21968850976E+04 0.  0.
         24    2    3    3    0    0  0.52507317268E+03  0.72938814490E+02  0.12764487199E+04  0.13853609931E+04  0.94243510904E+02 0.  0.
        -15    1    3    3    0    0 -0.89920017383E+01 -0.49142499295E+02 -0.19410560233E+03  0.20043159977E+03  0.00000000000E+00 0.  1.
        -15    1    4    4    0    0  0.43137211320E+03  0.95448404192E+02  0.10638321403E+04  0.11519249631E+04  0.00000000000E+00 0.  1.
         15    1    3    3    0    0  0.24921211376E+01  0.23673482887E+02  0.11119931625E+02  0.26273510216E+02  0.00000000000E+00 0. -1.
         15    1    3    3    0    0 -0.42487463212E+03  0.14145071144E+03 -0.50209326244E+03  0.67277366251E+03  0.00000000000E+00 0. -1.
        -16    1    1    2    0    0 -0.35465107388E+02 -0.21367136557E+03 -0.12045885182E+02  0.21692931949E+03  0.00000000000E+00 0.  1.
         16    1    4    4    0    0  0.93701059479E+02 -0.22509589702E+02  0.21261657963E+03  0.23343603002E+03  0.00000000000E+00 0. -1.
    9900018    1    1    2    0    0 -0.58233552574E+02  0.24750856050E+02  0.49746652350E+02  0.12162918784E+03  0.91187600000E+02 0.  0.
<mgrwt>
<rscale>  0 0.25468586E+04</rscale>
<asrwt>0</asrwt>
<pdfrwt beam="1">  1        1 0.25018991E+00 0.25468586E+04</pdfrwt>
<pdfrwt beam="2">  1       -1 0.15340982E+00 0.25468586E+04</pdfrwt>
<totfact> 0.15548775E+00</totfact>
</mgrwt>
</event>
<event>
11    1  0.1704103E-010  0.4176522E+04  0.7818608E-02  0.7969853E-01
          2   -1    0    0  501    0  0.00000000000E+00  0.00000000000E+00  0.25194017526E+04  0.25194017526E+04  0.00000000000E+00 0. -1.
         -2   -1    0    0    0  501 -0.00000000000E+00 -0.00000000000E+00 -0.17309008693E+04  0.17309008693E+04  0.00000000000E+00 0.  1.
    9900016    2    1    2    0    0 -0.86063341216E+03  0.29014402472E+03  0.15599096497E+04  0.28463642671E+04  0.22008175754E+04 0.  0.
         23    2    3    3    0    0 -0.59138103143E+03  0.31160768997E+03  0.16012744904E+03  0.69628496373E+03  0.11109038663E+03 0.  0.
        -15    1    4    4    0    0 -0.57603207626E+03  0.29755521532E+03  0.17398329160E+03  0.67128402692E+03  0.00000000000E+00 0.  1.
        -15    1    3    3    0    0 -0.39553493737E+03 -0.30410552357E+03  0.15316371834E+03  0.52190725302E+03  0.00000000000E+00 0.  1.
         15    1    4    4    0    0 -0.15348955169E+02  0.14052474650E+02 -0.13855842555E+02  0.25000936812E+02  0.00000000000E+00 0. -1.
         15    1    3    3    0    0  0.42132451624E+03  0.39818519342E+03  0.11645416404E+04  0.13008547300E+04  0.00000000000E+00 0. -1.
        -16    1    1    2    0    0  0.92078483350E+03 -0.23758147732E+03 -0.83635969805E+03  0.12664072064E+04  0.00000000000E+00 0.  1.
         16    1    3    3    0    0 -0.29504195961E+03 -0.11554333509E+03  0.82076841940E+02  0.32731732034E+03  0.00000000000E+00 0. -1.
    9900018    1    1    2    0    0 -0.60151421341E+02 -0.52562547399E+02  0.64950931548E+02  0.13753114840E+03  0.91187600000E+02 0.  0.
<mgrwt>
<rscale>  0 0.41765223E+04</rscale>
<asrwt>0</asrwt>
<pdfrwt beam="1">  1        2 0.38760027E+00 0.41765223E+04</pdfrwt>
<pdfrwt beam="2">  1       -2 0.26629244E+00 0.41765223E+04</pdfrwt>
<totfact> 0.13470603E-01</totfact>
</mgrwt>
</event>
<event>
10    1  0.1704103E-010  0.3811694E+04  0.7818608E-02  0.8043650E-01
         -2   -1    0    0    0  501 -0.00000000000E+00  0.00000000000E+00  0.10335540329E+04  0.10335540329E+04  0.00000000000E+00 0.  1.
          2   -1    0    0  501    0  0.00000000000E+00 -0.00000000000E+00 -0.35143330763E+04  0.35143330763E+04  0.00000000000E+00 0. -1.
    9900016    2    1    2    0    0 -0.27146009789E+03  0.62316574655E+03 -0.13599161451E+04  0.26822485761E+04  0.22097645508E+04 0.  0.
        -15    1    3    3    0    0 -0.35009901982E+03 -0.55088522793E+02 -0.82071964333E+03  0.89397136530E+03  0.00000000000E+00 0.  1.
        -15    1    3    3    0    0 -0.10025659972E+03  0.96086810249E+03 -0.43713288449E+03  0.10603792033E+04  0.00000000000E+00 0.  1.
         15    1    3    3    0    0  0.14553435252E+03 -0.14216930804E+03  0.92195688970E+02  0.22336607839E+03  0.00000000000E+00 0. -1.
         15    1    3    3    0    0 -0.94454965003E+01  0.64402124620E+02 -0.27321468816E+03  0.28086138375E+03  0.00000000000E+00 0. -1.
        -16    1    3    3    0    0  0.42806665634E+02 -0.20484664973E+03  0.78955381885E+02  0.22367054535E+03  0.00000000000E+00 0.  1.
         16    1    1    2    0    0  0.37603705538E+03 -0.70015880503E+03 -0.13620336628E+04  0.15769470245E+04  0.00000000000E+00 0. -1.
    9900018    1    1    2    0    0 -0.10457695749E+03  0.76993058483E+02  0.24117076450E+03  0.28869150860E+03  0.91187600000E+02 0.  0.
<mgrwt>
<rscale>  0 0.38116942E+04</rscale>
<asrwt>0</asrwt>
<pdfrwt beam="1">  1        2 0.54066663E+00 0.38116942E+04</pdfrwt>
<pdfrwt beam="2">  1       -2 0.15900831E+00 0.38116942E+04</pdfrwt>
<totfact> 0.16272376E-01</totfact>
</mgrwt>
</event>
<event>
11    1  0.1704103E-010  0.3525723E+04  0.7818608E-02  0.8107721E-01
         -1   -1    0    0    0  501 -0.00000000000E+00  0.00000000000E+00  0.13873178788E+04  0.13873178788E+04  0.00000000000E+00 0.  1.
          1   -1    0    0  501    0  0.00000000000E+00 -0.00000000000E+00 -0.22400636281E+04  0.22400636281E+04  0.00000000000E+00 0. -1.
    9900016    2    1    2    0    0  0.22821356929E+03 -0.17996764206E+03 -0.48855727883E+03  0.22767347389E+04  0.22046231132E+04 0.  0.
         23    2    3    3    0    0  0.34300101827E+03 -0.38993311170E+03  0.75549565566E+02  0.53587207757E+03  0.10841409747E+03 0.  0.
        -15    1    3    3    0    0 -0.16016715510E+03  0.92072652714E+03 -0.31887575424E+03  0.98745764567E+03  0.00000000000E+00 0.  1.
        -15    1    4    4    0    0  0.19603694036E+03 -0.14179764687E+03  0.41495625859E+02  0.24547696757E+03  0.00000000000E+00 0. -1.
         15    1    3    3    0    0  0.22365068151E+02 -0.46198859564E+03 -0.16135319844E+03  0.48986581165E+03  0.00000000000E+00 0. -1.
         15    1    4    4    0    0  0.14696407792E+03 -0.24813546483E+03  0.34053939708E+02  0.29039511000E+03  0.00000000000E+00 0.  1.
        -16    1    3    3    0    0  0.23014637964E+02 -0.24877246186E+03 -0.83877891725E+02  0.26353920403E+03  0.00000000000E+00 0.  1.
         16    1    1    2    0    0 -0.13983044304E+03  0.70200192289E+03 -0.26918714461E+02  0.71629872939E+03  0.00000000000E+00 0. -1.
    9900018    1    1    2    0    0 -0.88383126246E+02 -0.52203428083E+03 -0.33726975597E+03  0.63434803858E+03  0.91187600000E+02 0.  0.
<mgrwt>
<rscale>  0 0.35257228E+04</rscale>
<asrwt>0</asrwt>
<pdfrwt beam="1">  1        1 0.34462517E+00 0.35257228E+04</pdfrwt>
<pdfrwt beam="2">  1       -1 0.21343352E+00 0.35257228E+04</pdfrwt>
<totfact> 0.20291260E-01</totfact>
</mgrwt>
</event>
<event>
12    1  0.1704103E-010  0.3061524E+04  0.7818608E-02  0.8226377E-01
         -2   -1    0    0    0  501 -0.00000000000E+00  0.00000000000E+00  0.95812818284E+03  0.95812818284E+03  0.00000000000E+00 0.  1.
          2   -1    0    0  501    0  0.00000000000E+00 -0.00000000000E+00 -0.24456361822E+04  0.24456361822E+04  0.00000000000E+00 0. -1.
    9900016    2    1    2    0    0  0.10377071499E+03  0.59208040287E+02 -0.15870134713E+04  0.26976713480E+04  0.21781976472E+04 0.  0.
         23    2    3    3    0    0  0.16500945243E+03 -0.51773858566E+03 -0.47322512372E+03  0.72877002348E+03  0.10900627011E+03 0.  0.
         24    2    3    3    0    0  0.45576696424E+03  0.87044628943E+03 -0.47112781293E+03  0.10934303023E+04  0.90709102710E+02 0.  0.
        -15    1    5    5    0    0  0.13316090686E+03  0.32630656803E+03 -0.19965305447E+03  0.40505449709E+03  0.00000000000E+00 0.  1.
        -15    1    4    4    0    0  0.12809061947E+03 -0.38950888328E+03 -0.29049976946E+03  0.50250820193E+03  0.00000000000E+00 0. -1.
         15    1    3    3    0    0 -0.51700570168E+03 -0.29349966348E+03 -0.64266053468E+03  0.87547102229E+03  0.00000000000E+00 0. -1.
         15    1    4    4    0    0  0.36918832967E+02 -0.12822970238E+03 -0.18272535426E+03  0.22626182155E+03  0.00000000000E+00 0.  1.
        -16    1    1    2    0    0 -0.18186643892E+03 -0.26399802679E+03  0.26564836502E+03  0.41634050198E+03  0.00000000000E+00 0.  1.
         16    1    5    5    0    0  0.32260605738E+03  0.54413972140E+03 -0.27147475846E+03  0.68837580517E+03  0.00000000000E+00 0. -1.
    9900018    1    1    2    0    0  0.78095723928E+02  0.20478998651E+03 -0.16614289308E+03  0.28975251506E+03  0.91187600000E+02 0.  0.
<mgrwt>
<rscale>  0 0.30615244E+04</rscale>
<asrwt>0</asrwt>
<pdfrwt beam="1">  1        2 0.37625172E+00 0.30615244E+04</pdfrwt>
<pdfrwt beam="2">  1       -2 0.14740434E+00 0.30615244E+04</pdfrwt>
<totfact> 0.10000092E+00</totfact>
</mgrwt>
</event>
