<event>
11    1  0.3702359E-014  0.5472655E+04  0.7818608E-02  0.7759463E-01
          2   -1    0    0  501    0  0.00000000000E+00  0.00000000000E+00  0.43343328419E+04  0.43343328419E+04  0.00000000000E+00 0. -1.
         -2   -1    0    0    0  501 -0.00000000000E+00 -0.00000000000E+00 -0.17274833920E+04  0.17274833920E+04  0.00000000000E+00 0.  1.
    9900016    2    1    2    0    0 -0.32743912668E+03  0.97189802259E+02  0.44288218380E+03  0.23174928133E+04  0.22489922347E+04 0.  0.
         24    2    3    3    0    0 -0.10643758498E+04  0.63434959635E+03  0.43727588845E+02  0.12424900500E+04  0.81080591883E+02 0.  0.
        -15    1    4    4    0    0 -0.65130615255E+03  0.41313304441E+03  0.60157532645E+02  0.77362623111E+03  0.00000000000E+00 0.  1.
        -15    1    1    2    0    0  0.86610682276E+03  0.34663248139E+03  0.10478987594E+04  0.14029921296E+04  0.00000000000E+00 0.  1.
         15    1    3    3    0    0  0.71305215983E+03 -0.54303591699E+03  0.39766279093E+03  0.98054428001E+03  0.00000000000E+00 0. -1.
         15    1    1    2    0    0 -0.11828198441E+04 -0.22087912148E+03  0.11423807406E+04  0.16591817642E+04  0.00000000000E+00 0. -1.
        -16    1    1    2    0    0  0.64415214802E+03 -0.22294316217E+03 -0.26312233968E+02  0.68214952688E+03  0.00000000000E+00 0.  1.
         16    1    4    4    0    0 -0.41306969727E+03  0.22121655193E+03 -0.16429943800E+02  0.46886381893E+03  0.00000000000E+00 0. -1.
    9900018    1    3    3    0    0  0.23884563300E+02  0.58761229010E+01  0.14918040296E+01  0.94458483247E+02  0.91187600000E+02 0.  0.
<mgrwt>
<rscale>  0 0.54726549E+04</rscale>
<asrwt>0</asrwt>
<pdfrwt beam="1">  1        2 0.66682043E+00 0.54726549E+04</pdfrwt>
<pdfrwt beam="2">  1       -2 0.26576668E+00 0.54726549E+04</pdfrwt>
<totfact> 0.63152302E-03</totfact>
</mgrwt>
</event>
<event>
11    1  0.3702359E-014  0.3337208E+04  0.7818608E-02  0.8305710E-01
         -2   -1    0    0    0  501 -0.00000000000E+00  0.00000000000E+00  0.35620256130E+04  0.35620256130E+04  0.00000000000E+00 0.  1.
          2   -1    0    0  501    0  0.00000000000E+00 -0.00000000000E+00 -0.17616743623E+04  0.17616743623E+04  0.00000000000E+00 0. -1.
    9900016    2    1    2    0    0  0.19508676987E+03 -0.17446589653E+03  0.42508929226E+03  0.22073386065E+04  0.21501501391E+04 0.  0.
         24    2    3    3    0    0 -0.59660907842E+03  0.24460041429E+03  0.96350930481E+03  0.11622094284E+04  0.81294648365E+02 0.  0.
        -15    1    4    4    0    0 -0.17504143487E+03  0.39181608469E+02  0.23133614491E+03  0.29273044650E+03  0.00000000000E+00 0.  1.
        -15    1    1    2    0    0  0.58254657096E+02  0.44415503086E+03  0.26960748897E+02  0.44876962742E+03  0.00000000000E+00 0.  1.
         15    1    3    3    0    0  0.79169584829E+03 -0.41906631082E+03 -0.53842001255E+03  0.10451291781E+04  0.00000000000E+00 0. -1.
         15    1    1    2    0    0 -0.10392090430E+04 -0.56557826563E+03  0.26394891079E+03  0.12122306864E+04  0.00000000000E+00 0. -1.
        -16    1    1    2    0    0  0.78840548407E+03  0.24175019989E+03  0.10659587973E+04  0.13476997158E+04  0.00000000000E+00 0.  1.
         16    1    4    4    0    0 -0.42156764355E+03  0.20541880582E+03  0.73217315991E+03  0.86947898190E+03  0.00000000000E+00 0. -1.
    9900018    1    1    2    0    0 -0.25378680251E+01  0.54138931414E+02  0.18393501443E+02  0.10766133920E+03  0.91187600000E+02 0.  0.
<mgrwt>
<rscale>  0 0.27921488E+04</rscale>
<asrwt>0</asrwt>
<pdfrwt beam="1">  1        2 0.27102683E+00 0.33372076E+04</pdfrwt>
<pdfrwt beam="2">  1       -2 0.54800394E+00 0.33372076E+04</pdfrwt>
<totfact> 0.62622140E-03</totfact>
</mgrwt>
</event>
<event>
11    1  0.3702359E-014  0.5949812E+04  0.7818608E-02  0.7696656E-01
         -2   -1    0    0    0  501 -0.00000000000E+00  0.00000000000E+00  0.33075837596E+04  0.33075837596E+04  0.00000000000E+00 0. -1.
          2   -1    0    0  501    0  0.00000000000E+00 -0.00000000000E+00 -0.26756887461E+04  0.26756887461E+04  0.00000000000E+00 0.  1.
    9900016    2    1    2    0    0 -0.78021360298E+03  0.47281544574E+03 -0.10046078885E+04  0.26261740341E+04  0.22483917221E+04 0.  0.
         24    2    3    3    0    0 -0.40810993500E+03 -0.71175771366E+03  0.19476198774E+03  0.84662322043E+03  0.75404797565E+02 0.  0.
        -15    1    4    4    0    0 -0.91994613279E+02 -0.21359778296E+03  0.77087083444E+02  0.24500906145E+03  0.00000000000E+00 0.  1.
        -15    1    1    2    0    0  0.77027521244E+03 -0.17849288108E+03  0.14506018890E+04  0.16520984994E+04  0.00000000000E+00 0.  1.
         15    1    3    3    0    0 -0.37414630204E+03  0.11579623785E+04 -0.11402720485E+04  0.16676578396E+04  0.00000000000E+00 0. -1.
         15    1    1    2    0    0  0.34366657822E+03 -0.84438292952E+03  0.44123056640E+03  0.10128048486E+04  0.00000000000E+00 0. -1.
        -16    1    1    2    0    0 -0.33372818768E+03  0.55006036485E+03 -0.25532955339E+03  0.69219512355E+03  0.00000000000E+00 0.  1.
         16    1    4    4    0    0 -0.31611532172E+03 -0.49815993070E+03  0.11767490430E+03  0.60161415898E+03  0.00000000000E+00 0. -1.
    9900018    1    3    3    0    0  0.20426340571E+01  0.26610780861E+02 -0.59097827752E+02  0.11189297409E+03  0.91187600000E+02 0.  0.
<mgrwt>
<rscale>  0 0.59498116E+04</rscale>
<asrwt>0</asrwt>
<pdfrwt beam="1">  1        2 0.41164442E+00 0.59498116E+04</pdfrwt>
<pdfrwt beam="2">  1       -2 0.50885904E+00 0.59498116E+04</pdfrwt>
<totfact> 0.27343252E-03</totfact>
</mgrwt>
</event>
<event>
11    1  0.3702359E-014  0.3748614E+04  0.7818608E-02  0.8457705E-01
          1   -1    0    0  501    0  0.00000000000E+00  0.00000000000E+00  0.29541569491E+04  0.29541569491E+04  0.00000000000E+00 0. -1.
         -1   -1    0    0    0  501 -0.00000000000E+00 -0.00000000000E+00 -0.17029962719E+04  0.17029962719E+04  0.00000000000E+00 0.  1.
    9900016    2    1    2    0    0  0.20397484587E+03  0.74671583093E+03  0.12421122618E+04  0.25952748702E+04  0.21432261922E+04 0.  0.
        -24    2    3    3    0    0  0.65519209498E+03 -0.54195866158E+03  0.77142001972E+03  0.11510345369E+04  0.82436558357E+02 0.  0.
        -15    1    1    2    0    0  0.31417964532E+02  0.31125657521E+03  0.67805382671E+02  0.32010203690E+03  0.00000000000E+00 0.  1.
        -15    1    3    3    0    0 -0.45121724911E+03  0.12886744925E+04  0.47069224212E+03  0.14442403333E+04  0.00000000000E+00 0.  1.
         15    1    1    2    0    0  0.31527239064E+02  0.47787457486E+02 -0.30015165325E+03  0.30556279689E+03  0.00000000000E+00 0. -1.
         15    1    4    4    0    0  0.67323756278E+02 -0.75075206446E+02  0.63410528029E+02  0.11912040063E+03  0.00000000000E+00 0. -1.
        -16    1    4    4    0    0  0.58786833870E+03 -0.46688345514E+03  0.70800949169E+03  0.10319141363E+04  0.00000000000E+00 0.  1.
         16    1    1    2    0    0 -0.29053864949E+03 -0.12249872004E+04  0.17767518676E+03  0.12714459564E+04  0.00000000000E+00 0. -1.
    9900018    1    1    2    0    0  0.23618600023E+02  0.11922733675E+03  0.63719499173E+02  0.16476756072E+03  0.91187600000E+02 0.  0.
<mgrwt>
<rscale>  0 0.23519750E+04</rscale>
<asrwt>0</asrwt>
<pdfrwt beam="1">  1        1 0.45448568E+00 0.37486138E+04</pdfrwt>
<pdfrwt beam="2">  1       -1 0.26199943E+00 0.37486138E+04</pdfrwt>
<totfact> 0.29312300E-02</totfact>
</mgrwt>
</event>
<event>
11    1  0.3702359E-014  0.3364760E+04  0.7818608E-02  0.8315755E-01
          4   -1    0    0  501    0  0.00000000000E+00  0.00000000000E+00  0.25710003676E+04  0.25710003676E+04  0.00000000000E+00 0. -1.
         -4   -1    0    0    0  501 -0.00000000000E+00 -0.00000000000E+00 -0.23276355734E+04  0.23276355734E+04  0.00000000000E+00 0.  1.
    9900016    2    1    2    0    0  0.21158664879E+03 -0.16738452000E+03 -0.44143158337E+02  0.21666664650E+04  0.21493507077E+04 0.  0.
        -24    2    3    3    0    0  0.47700590566E+03 -0.87389174110E+03 -0.65605082555E+03  0.11950539761E+04  0.80807864206E+02 0.  0.
        -15    1    3    3    0    0 -0.26541925687E+03  0.70650722109E+03  0.61190766721E+03  0.97161248889E+03  0.00000000000E+00 0.  1.
        -15    1    1    2    0    0 -0.96502027014E+03  0.41321689747E+02 -0.39782997929E+03  0.10446244762E+04  0.00000000000E+00 0.  1.
         15    1    4    4    0    0  0.22594207473E+03 -0.43808831261E+03 -0.37105363524E+03  0.61697000819E+03  0.00000000000E+00 0. -1.
         15    1    1    2    0    0 -0.27131199319E+03 -0.11119557349E+03  0.37881656225E+03  0.47903720215E+03  0.00000000000E+00 0. -1.
        -16    1    4    4    0    0  0.25106383093E+03 -0.43580342849E+03 -0.28499719030E+03  0.57808396792E+03  0.00000000000E+00 0.  1.
         16    1    1    2    0    0  0.10447793398E+04  0.20193217373E+03  0.31023644116E+03  0.11084164926E+04  0.00000000000E+00 0. -1.
    9900018    1    1    2    0    0 -0.20033725306E+02  0.35326230012E+02 -0.37150715701E+01  0.99891305062E+02  0.91187600000E+02 0.  0.
<mgrwt>
<rscale>  0 0.27601281E+04</rscale>
<asrwt>0</asrwt>
<pdfrwt beam="1">  1        4 0.39553852E+00 0.33647599E+04</pdfrwt>
<pdfrwt beam="2">  1       -4 0.35809778E+00 0.33647599E+04</pdfrwt>
<totfact> 0.14688647E-04</totfact>
</mgrwt>
</event>
<event>
11    1  0.3702359E-014  0.3629825E+04  0.7818608E-02  0.8197754E-01
          1   -1    0    0  501    0  0.00000000000E+00  0.00000000000E+00  0.34497153759E+04  0.34497153759E+04  0.00000000000E+00 0. -1.
         -1   -1    0    0    0  501 -0.00000000000E+00 -0.00000000000E+00 -0.26553536118E+04  0.26553536118E+04  0.00000000000E+00 0.  1.
    9900016    2    1    2    0    0  0.31236324465E+03  0.56291965958E+03  0.44339638852E+03  0.23806618623E+04  0.22486665394E+04 0.  0.
         24    2    3    3    0    0 -0.35836884866E+03  0.13142475830E+03  0.11539806619E+04  0.12184222176E+04  0.84738619436E+02 0.  0.
        -15    1    4    4    0    0 -0.31355390490E+03  0.86038893723E+02  0.91402961207E+03  0.97013858507E+03  0.00000000000E+00 0.  1.
        -15    1    1    2    0    0  0.34096130029E+00 -0.28144508851E+03 -0.47371083424E+03  0.55101125994E+03  0.00000000000E+00 0.  1.
         15    1    3    3    0    0  0.63167147633E+03  0.37278165861E+03 -0.74141386095E+03  0.10429139620E+04  0.00000000000E+00 0. -1.
         15    1    1    2    0    0 -0.49779650525E+03  0.60552104024E+03  0.17258062108E+04  0.18954852065E+04  0.00000000000E+00 0. -1.
        -16    1    1    2    0    0  0.18509229929E+03 -0.88699561130E+03 -0.90113000096E+03  0.12779106590E+04  0.00000000000E+00 0.  1.
         16    1    4    4    0    0 -0.44814943768E+02  0.45385864574E+02  0.23995104980E+03  0.24828363254E+03  0.00000000000E+00 0. -1.
    9900018    1    3    3    0    0  0.39060616988E+02  0.58713242671E+02  0.30829587607E+02  0.11932568261E+03  0.91187600000E+02 0.  0.
<mgrwt>
<rscale>  0 0.31663771E+04</rscale>
<asrwt>0</asrwt>
<pdfrwt beam="1">  1        1 0.53072544E+00 0.36298255E+04</pdfrwt>
<pdfrwt beam="2">  1       -1 0.40851594E+00 0.36298255E+04</pdfrwt>
<totfact> 0.12917927E-03</totfact>
</mgrwt>
</event>
