<event>
11    1  0.8528952E-010  0.2654311E+04  0.7818608E-02  0.8600255E-01
         -2   -1    0    0    0  501 -0.00000000000E+00  0.00000000000E+00  0.89878963737E+03  0.89878963737E+03  0.00000000000E+00 0.  1.
          2   -1    0    0  501    0  0.00000000000E+00 -0.00000000000E+00 -0.34745345671E+04  0.34745345671E+04  0.00000000000E+00 0. -1.
    9900016    2    1    2    0    0 -0.28513172354E+03  0.31745005370E+03 -0.17915784975E+04  0.27396950748E+04  0.20283246668E+04 0.  0.
         24    2    3    3    0    0  0.69864511492E+02  0.26422431110E+03  0.23986998197E+03  0.37264535568E+03  0.81433508573E+02 0.  0.
        -15    1    1    2    0    0  0.53618655671E+02  0.62435812415E+02  0.40610171193E+02  0.91773508772E+02  0.00000000000E+00 0.  1.
        -15    1    4    4    0    0  0.71894598802E+02  0.26979106062E+03  0.23387671061E+03  0.36421747005E+03  0.00000000000E+00 0.  1.
         15    1    3    3    0    0 -0.12819222437E+03 -0.41278952291E+03 -0.16788664142E+04  0.17336149726E+04  0.00000000000E+00 0. -1.
         15    1    1    2    0    0  0.69974951629E+03 -0.17508890106E+03 -0.72195304749E+03  0.10205497105E+04  0.00000000000E+00 0. -1.
        -16    1    1    2    0    0 -0.46823644842E+03 -0.20479696505E+03 -0.10282355592E+03  0.52130591036E+03  0.00000000000E+00 0.  1.
         16    1    4    4    0    0 -0.20300873103E+01 -0.55667495134E+01  0.59932713550E+01  0.84278856284E+01  0.00000000000E+00 0. -1.
    9900018    1    3    3    0    0 -0.22680401067E+03  0.46601526551E+03 -0.35258206526E+03  0.63343474650E+03  0.91187600000E+02 0.  0.
<mgrwt>
<rscale>  0 0.20136722E+04</rscale>
<asrwt>0</asrwt>
<pdfrwt beam="1">  1        2 0.53454380E+00 0.26543113E+04</pdfrwt>
<pdfrwt beam="2">  1       -2 0.13827532E+00 0.26543113E+04</pdfrwt>
<totfact> 0.27030933E-01</totfact>
</mgrwt>
</event>
<event>
11    1  0.8528952E-010  0.4831377E+04  0.7818608E-02  0.7855059E-01
         -2   -1    0    0    0  501 -0.00000000000E+00  0.00000000000E+00  0.24344327209E+04  0.24344327209E+04  0.00000000000E+00 0.  1.
          2   -1    0    0  501    0  0.00000000000E+00 -0.00000000000E+00 -0.23970889081E+04  0.23970889081E+04  0.00000000000E+00 0. -1.
    9900016    2    1    2    0    0  0.61195725840E+03  0.33390046192E+03  0.40530062118E+02  0.21385177234E+04  0.20212951696E+04 0.  0.
        -24    2    3    3    0    0 -0.43468734212E+02 -0.48351488905E+03  0.54365136270E+03  0.73333905694E+03  0.80951772606E+02 0.  0.
        -15    1    3    3    0    0  0.76626890912E+03  0.83448723411E+03 -0.33075355921E+03  0.11802266316E+04  0.00000000000E+00 0.  1.
        -15    1    1    2    0    0 -0.63786717885E+03 -0.76954848348E+03 -0.76976322481E+03  0.12615921800E+04  0.00000000000E+00 0.  1.
         15    1    4    4    0    0 -0.16887040592E+01 -0.21216295241E+03  0.29172581162E+03  0.36072138731E+03  0.00000000000E+00 0. -1.
         15    1    1    2    0    0 -0.53562752499E+03  0.12378090574E+03  0.23588832269E+03  0.59821556226E+03  0.00000000000E+00 0. -1.
        -16    1    4    4    0    0 -0.41780030152E+02 -0.27135193664E+03  0.25192555108E+03  0.37261766963E+03  0.00000000000E+00 0.  1.
         16    1    1    2    0    0  0.56153744544E+03  0.31186711582E+03  0.53068865280E+03  0.83319616344E+03  0.00000000000E+00 0. -1.
    9900018    1    3    3    0    0 -0.11084291651E+03 -0.17071883141E+02 -0.17236774137E+03  0.22495203487E+03  0.91187600000E+02 0.  0.
<mgrwt>
<rscale>  0 0.48313773E+04</rscale>
<asrwt>0</asrwt>
<pdfrwt beam="1">  1        2 0.36878291E+00 0.48313773E+04</pdfrwt>
<pdfrwt beam="2">  1       -2 0.37452811E+00 0.48313773E+04</pdfrwt>
<totfact> 0.31980582E-02</totfact>
</mgrwt>
</event>
<event>
11    1  0.8528952E-010  0.3841231E+04  0.7818608E-02  0.8269683E-01
         -1   -1    0    0    0  501 -0.00000000000E+00  0.00000000000E+00  0.22824625000E+04  0.22824625000E+04  0.00000000000E+00 0.  1.
          1   -1    0    0  501    0  0.00000000000E+00 -0.00000000000E+00 -0.31698570577E+04  0.31698570577E+04  0.00000000000E+00 0. -1.
    9900016    2    1    2    0    0 -0.82488789309E+03 -0.26347742920E+02  0.31546050723E+03  0.22076060115E+04  0.20230854482E+04 0.  0.
         24    2    3    3    0    0 -0.61541676783E+02  0.53245867537E+03 -0.50493789011E+03  0.74069030922E+03  0.79751127483E+02 0.  0.
        -15    1    4    4    0    0 -0.30498224909E+02  0.41230933337E+03 -0.34648106934E+03  0.53942400718E+03  0.00000000000E+00 0.  1.
        -15    1    1    2    0    0  0.32730374763E+02 -0.20993380767E+03  0.48090715869E+03  0.52575201028E+03  0.00000000000E+00 0.  1.
         15    1    3    3    0    0 -0.85844480687E+03 -0.57592375660E+03  0.84079535957E+03  0.13324985916E+04  0.00000000000E+00 0. -1.
         15    1    1    2    0    0  0.25745632062E+03  0.79835250739E+03  0.28322837554E+02  0.83931678538E+03  0.00000000000E+00 0. -1.
        -16    1    1    2    0    0  0.53470119770E+03 -0.56207095680E+03 -0.17120850612E+04  0.18796447505E+04  0.00000000000E+00 0.  1.
         16    1    4    4    0    0 -0.31043451873E+02  0.12014934200E+03 -0.15845682077E+03  0.20126630204E+03  0.00000000000E+00 0. -1.
    9900018    1    3    3    0    0  0.95098590565E+02  0.17117338306E+02 -0.20396962232E+02  0.13441711074E+03  0.91187600000E+02 0.  0.
<mgrwt>
<rscale>  0 0.29107620E+04</rscale>
<asrwt>0</asrwt>
<pdfrwt beam="1">  1        1 0.48767031E+00 0.38412314E+04</pdfrwt>
<pdfrwt beam="2">  1       -1 0.35114808E+00 0.38412314E+04</pdfrwt>
<totfact> 0.51701065E-03</totfact>
</mgrwt>
</event>
