<event>
12    1  0.7299110E-013  0.1139840E+04  0.7818608E-02  0.9167208E-01
          1   -1    0    0  501    0  0.00000000000E+00  0.00000000000E+00  0.14213478348E+04  0.14213478348E+04  0.00000000000E+00 0. -1.
         -1   -1    0    0    0  501 -0.00000000000E+00 -0.00000000000E+00 -0.22852151045E+03  0.22852151045E+03  0.00000000000E+00 0.  1.
    9900016    2    1    2    0    0 -0.79417206828E+02 -0.80806063652E+02  0.81720878165E+03  0.10946877316E+04  0.71949588207E+03 0.  0.
    9900016    2    3    3    0    0 -0.59594813673E+02 -0.99786835260E+02  0.78745347945E+03  0.10370049295E+04  0.66467081120E+03 0.  0.
         23    2    4    4    0    0 -0.15779683013E+03  0.16544963977E+03  0.55527221977E+02  0.25233297890E+03  0.91187921146E+02 0.  0.
        -15    1    5    5    0    0 -0.11809745329E+03  0.10849802777E+03  0.79360905688E+02  0.17893290322E+03  0.00000000000E+00 0. -1.
        -15    1    3    3    0    0  0.11254717386E+02  0.13898833552E+02  0.96455795043E+01  0.20319533496E+02  0.00000000000E+00 0.  1.
         15    1    5    5    0    0 -0.39699376832E+02  0.56951612001E+02 -0.23833683711E+02  0.73400075679E+02  0.00000000000E+00 0.  1.
         15    1    3    3    0    0 -0.31077110541E+02  0.50819380563E+01  0.20109722695E+02  0.37363268605E+02  0.00000000000E+00 0. -1.
        -16    1    1    2    0    0  0.11746248289E+03  0.20897669229E+02 -0.38405936301E+02  0.12533620151E+03  0.00000000000E+00 0.  1.
         16    1    4    4    0    0  0.98202016454E+02 -0.26523647503E+03  0.73192625747E+03  0.78467195063E+03  0.00000000000E+00 0. -1.
    9900018    1    1    2    0    0 -0.38045276057E+02  0.59908394423E+02  0.41402347897E+03  0.42984541208E+03  0.91187600000E+02 0.  0.
<mgrwt>
<rscale>  0 0.11398396E+04</rscale>
<asrwt>0</asrwt>
<pdfrwt beam="1">  1        1 0.21866889E+00 0.11398396E+04</pdfrwt>
<pdfrwt beam="2">  1       -1 0.35157156E-01 0.11398396E+04</pdfrwt>
<totfact> 0.56758124E+01</totfact>
</mgrwt>
</event>
<event>
12    1  0.7299110E-013  0.2007006E+04  0.7818608E-02  0.8603352E-01
          1   -1    0    0  501    0  0.00000000000E+00  0.00000000000E+00  0.12693080719E+04  0.12693080719E+04  0.00000000000E+00 0. -1.
         -1   -1    0    0    0  501 -0.00000000000E+00 -0.00000000000E+00 -0.79336024656E+03  0.79336024656E+03  0.00000000000E+00 0.  1.
    9900016    2    1    2    0    0 -0.18722749831E+02 -0.35524748730E+03 -0.19618020013E+03  0.82275610591E+03  0.71546461848E+03 0.  0.
    9900016    2    3    3    0    0 -0.60668184461E+01 -0.34234903660E+03 -0.17371286310E+03  0.77714666439E+03  0.67567825924E+03 0.  0.
         23    2    4    4    0    0  0.60702727863E+02 -0.44696625023E+03 -0.33814520195E+03  0.57113470415E+03  0.91591608014E+02 0.  0.
        -15    1    5    5    0    0 -0.18958396025E+02 -0.14764994703E+03 -0.13301202940E+03  0.19962997672E+03  0.00000000000E+00 0. -1.
        -15    1    3    3    0    0  0.12342750395E+02 -0.37022631675E+01 -0.93320209365E+01  0.15910275128E+02  0.00000000000E+00 0.  1.
         15    1    3    3    0    0 -0.24998681780E+02 -0.91961875270E+01 -0.13135316089E+02  0.29699166395E+02  0.00000000000E+00 0. -1.
         15    1    5    5    0    0  0.79661123889E+02 -0.29931630320E+03 -0.20513317255E+03  0.37150472743E+03  0.00000000000E+00 0.  1.
        -16    1    1    2    0    0  0.36703908024E+03  0.58224702636E+02 -0.55191045730E+02  0.37570447688E+03  0.00000000000E+00 0.  1.
         16    1    4    4    0    0 -0.66769546309E+02  0.10461721363E+03  0.16443233885E+03  0.20601196024E+03  0.00000000000E+00 0. -1.
    9900018    1    1    2    0    0 -0.34831633041E+03  0.29702278466E+03  0.72731907116E+03  0.86420773562E+03  0.91187600000E+02 0.  0.
<mgrwt>
<rscale>  0 0.20070063E+04</rscale>
<asrwt>0</asrwt>
<pdfrwt beam="1">  1        1 0.19527817E+00 0.20070063E+04</pdfrwt>
<pdfrwt beam="2">  1       -1 0.12205542E+00 0.20070063E+04</pdfrwt>
<totfact> 0.52386254E+00</totfact>
</mgrwt>
</event>
<event>
12    1  0.7299110E-013  0.1530335E+04  0.7818608E-02  0.8864527E-01
          2   -1    0    0  501    0  0.00000000000E+00  0.00000000000E+00  0.30406084699E+04  0.30406084699E+04  0.00000000000E+00 0. -1.
         -2   -1    0    0    0  501 -0.00000000000E+00 -0.00000000000E+00 -0.19255398537E+03  0.19255398537E+03  0.00000000000E+00 0.  1.
    9900016    2    1    2    0    0 -0.36235095812E+03 -0.16441919772E+03  0.95129279933E+03  0.12699152813E+04  0.74121180655E+03 0.  0.
    9900016    2    3    3    0    0 -0.30825806960E+03 -0.17994342983E+03  0.87217202845E+03  0.11454473618E+04  0.65112436295E+03 0.  0.
         23    2    4    4    0    0  0.19390535552E+02 -0.18462003518E+03 -0.66883585459E+01  0.20748624377E+03  0.92440559037E+02 0.  0.
        -15    1    3    3    0    0 -0.53801024586E+02  0.32893101927E+02  0.85257868854E+02  0.10604438034E+03  0.00000000000E+00 0. -1.
        -15    1    5    5    0    0 -0.97243522453E+01 -0.95844667149E+01 -0.25627583191E+02  0.29037872667E+02  0.00000000000E+00 0.  1.
         15    1    5    5    0    0  0.29114887797E+02 -0.17503556847E+03  0.18939224645E+02  0.17844837110E+03  0.00000000000E+00 0. -1.
         15    1    3    3    0    0 -0.29186393130E+00 -0.17368869820E+02 -0.61370979696E+01  0.18423539152E+02  0.00000000000E+00 0.  1.
        -16    1    4    4    0    0 -0.32764860515E+03  0.46766053543E+01  0.87886038699E+03  0.93796111802E+03  0.00000000000E+00 0.  1.
         16    1    1    2    0    0  0.24851144400E+03  0.13379159306E+03  0.16575355553E+04  0.16813929479E+04  0.00000000000E+00 0. -1.
    9900018    1    1    2    0    0  0.11383951412E+03  0.30627604659E+02  0.23922612998E+03  0.28185422615E+03  0.91187600000E+02 0.  0.
<mgrwt>
<rscale>  0 0.15303350E+04</rscale>
<asrwt>0</asrwt>
<pdfrwt beam="1">  1        2 0.46778588E+00 0.15303350E+04</pdfrwt>
<pdfrwt beam="2">  1       -2 0.29623692E-01 0.15303350E+04</pdfrwt>
<totfact> 0.16736247E+01</totfact>
</mgrwt>
</event>
<event>
12    1  0.7299110E-013  0.1253283E+04  0.7818608E-02  0.9067456E-01
         -1   -1    0    0    0  501 -0.00000000000E+00  0.00000000000E+00  0.73073225206E+03  0.73073225206E+03  0.00000000000E+00 0.  1.
          1   -1    0    0  501    0  0.00000000000E+00 -0.00000000000E+00 -0.53737778004E+03  0.53737778004E+03  0.00000000000E+00 0. -1.
    9900016    2    1    2    0    0  0.80994885377E+02 -0.11483538496E+03  0.62205022148E+02  0.73981997137E+03  0.72368279527E+03 0.  0.
    9900016    2    3    3    0    0  0.11021061561E+03 -0.96069981542E+02  0.84942143720E+02  0.68109134471E+03  0.65976846765E+03 0.  0.
         23    2    4    4    0    0  0.36561936694E+03  0.51415494948E+02  0.41549688172E+02  0.38298314082E+03  0.92890446051E+02 0.  0.
        -15    1    3    3    0    0 -0.38041822032E+02 -0.97044647808E+01 -0.94460116581E+01  0.40380490295E+02  0.00000000000E+00 0. -1.
        -15    1    5    5    0    0  0.15632388529E+03 -0.23137177707E+02  0.74307040669E+01  0.15820145849E+03  0.00000000000E+00 0. -1.
         15    1    5    5    0    0  0.20929548165E+03  0.74552672654E+02  0.34118984105E+02  0.22478168234E+03  0.00000000000E+00 0.  1.
         15    1    3    3    0    0  0.88260917948E+01 -0.90609386391E+01 -0.13291109914E+02  0.18348136367E+02  0.00000000000E+00 0.  1.
        -16    1    4    4    0    0 -0.25540875132E+03 -0.14748547649E+03  0.43392455548E+02  0.29810820389E+03  0.00000000000E+00 0.  1.
         16    1    1    2    0    0 -0.10472566689E+03 -0.40743717485E+02 -0.15365426052E+03  0.19036057259E+03  0.00000000000E+00 0. -1.
    9900018    1    1    2    0    0  0.23730781516E+02  0.15557910245E+03  0.28480371040E+03  0.33792948815E+03  0.91187600000E+02 0.  0.
<mgrwt>
<rscale>  0 0.12532825E+04</rscale>
<asrwt>0</asrwt>
<pdfrwt beam="1">  1        1 0.82673504E-01 0.12532825E+04</pdfrwt>
<pdfrwt beam="2">  1       -1 0.11242035E+00 0.12532825E+04</pdfrwt>
<totfact> 0.28652870E+01</totfact>
</mgrwt>
</event>
<event>
12    1  0.7299110E-013  0.1382666E+04  0.7818608E-02  0.8966462E-01
         -2   -1    0    0    0  501 -0.00000000000E+00  0.00000000000E+00  0.14941647449E+04  0.14941647449E+04  0.00000000000E+00 0. -1.
          2   -1    0    0  501    0  0.00000000000E+00 -0.00000000000E+00 -0.31987191343E+03  0.31987191343E+03  0.00000000000E+00 0.  1.
    9900016    2    1    2    0    0 -0.19838806447E+03  0.15259325823E+03  0.52227978016E+03  0.96044714024E+03  0.76618536521E+03 0.  0.
    9900016    2    3    3    0    0 -0.20079185170E+03  0.15783313789E+03  0.50245285694E+03  0.90731975423E+03  0.71101448357E+03 0.  0.
         23    2    4    4    0    0 -0.27551516950E+03  0.32371423561E+03  0.56681667665E+03  0.71433578057E+03  0.91076602387E+02 0.  0.
        -15    1    5    5    0    0 -0.21743999923E+03  0.22932011608E+03  0.35503780700E+03  0.47531012329E+03  0.00000000000E+00 0. -1.
        -15    1    3    3    0    0 -0.10410198724E+02  0.11595368496E+02 -0.85165226442E+01  0.17758264723E+02  0.00000000000E+00 0.  1.
         15    1    3    3    0    0  0.12813985955E+02 -0.16835248163E+02  0.28343445871E+02  0.35369121286E+02  0.00000000000E+00 0. -1.
         15    1    5    5    0    0 -0.58075170273E+02  0.94394119536E+02  0.21177886966E+03  0.23902565728E+03  0.00000000000E+00 0.  1.
        -16    1    1    2    0    0  0.18488776597E+02  0.84793357721E+02 -0.39352019932E+02  0.95290764749E+02  0.00000000000E+00 0.  1.
         16    1    4    4    0    0  0.74723317804E+02 -0.16588109772E+03 -0.64363819716E+02  0.19298397367E+03  0.00000000000E+00 0. -1.
    9900018    1    1    2    0    0  0.17989928787E+03 -0.23738661595E+03  0.69136507123E+03  0.75829875334E+03  0.91187600000E+02 0.  0.
<mgrwt>
<rscale>  0 0.13826660E+04</rscale>
<asrwt>0</asrwt>
<pdfrwt beam="1">  1        2 0.49211064E-01 0.13826660E+04</pdfrwt>
<pdfrwt beam="2">  1       -2 0.22987150E+00 0.13826660E+04</pdfrwt>
<totfact> 0.85320838E+00</totfact>
</mgrwt>
</event>
