<event>
11    1  0.9636581E-018  0.3926681E+04  0.7818608E-02  0.8909438E-01
         -2   -1    0    0    0  501 -0.00000000000E+00  0.00000000000E+00  0.20453741371E+04  0.20453741371E+04  0.00000000000E+00 0.  1.
          2   -1    0    0  501    0  0.00000000000E+00 -0.00000000000E+00 -0.21046125266E+04  0.21046125266E+04  0.00000000000E+00 0. -1.
         24    2    1    2    0    0  0.84033192495E+01 -0.33280016995E+02 -0.20713336511E+03  0.22052100854E+03  0.67432254619E+02 0.  0.
    9900016    2    1    2    0    0 -0.15608607503E+03 -0.23008862102E+03  0.12824063479E+04  0.25268383954E+04  0.21594079279E+04 0.  0.
        -15    1    4    4    0    0  0.43435564187E+03 -0.65189227199E+02  0.20939772189E+03  0.48658181727E+03  0.00000000000E+00 0.  1.
        -15    1    3    3    0    0  0.24340769324E+02  0.96424544905E+01 -0.45155863694E+02  0.52196762407E+02  0.00000000000E+00 0.  1.
         15    1    1    2    0    0  0.13973279582E+03  0.25710966117E+03 -0.12334555406E+04  0.12676920773E+04  0.00000000000E+00 0. -1.
         15    1    4    4    0    0  0.34789272674E+03  0.35067345747E+03 -0.40381673785E+02  0.49561265386E+03  0.00000000000E+00 0. -1.
        -16    1    4    4    0    0 -0.93833444364E+03 -0.51557285128E+03  0.11133902998E+04  0.15446439243E+04  0.00000000000E+00 0.  1.
         16    1    3    3    0    0 -0.15937450074E+02 -0.42922471486E+02 -0.16197750141E+03  0.16832424614E+03  0.00000000000E+00 0. -1.
    9900018    1    1    2    0    0  0.79499599631E+01  0.62589768371E+01  0.98944168195E+02  0.13493518247E+03  0.91187600000E+02 0.  0.
<mgrwt>
<rscale>  0 0.14629985E+04</rscale>
<asrwt>0</asrwt>
<pdfrwt beam="1">  1        2 0.32378654E+00 0.39266815E+04</pdfrwt>
<pdfrwt beam="2">  1       -2 0.31467295E+00 0.39266815E+04</pdfrwt>
<totfact> 0.11871762E-01</totfact>
</mgrwt>
</event>
<event>
11    1  0.9636584E-018  0.4282643E+04  0.7818608E-02  0.8368858E-01
          1   -1    0    0  501    0  0.00000000000E+00  0.00000000000E+00  0.39439803630E+04  0.39439803630E+04  0.00000000000E+00 0. -1.
         -1   -1    0    0    0  501 -0.00000000000E+00 -0.00000000000E+00 -0.19109449756E+04  0.19109449756E+04  0.00000000000E+00 0.  1.
         24    2    1    2    0    0 -0.53037154356E+03 -0.20999055350E+03  0.14132634758E+04  0.15276687539E+04  0.10520533631E+03 0.  0.
    9900016    2    1    2    0    0  0.33516764568E+03  0.15728616276E+04  0.92379018077E+03  0.29173100487E+04  0.22519055424E+04 0.  0.
        -15    1    4    4    0    0 -0.48041101376E+02  0.18729406675E+03  0.66132680521E+03  0.68901390273E+03  0.00000000000E+00 0. -1.
        -15    1    3    3    0    0 -0.14861066596E+03 -0.36295096100E+02  0.49618487047E+03  0.51923201916E+03  0.00000000000E+00 0.  1.
         15    1    4    4    0    0 -0.20201680898E+03  0.22686025019E+03  0.72738121174E+03  0.78826378290E+03  0.00000000000E+00 0.  1.
         15    1    1    2    0    0  0.19520389788E+03 -0.13628710741E+04 -0.30401826911E+03  0.14099465360E+04  0.00000000000E+00 0. -1.
        -16    1    4    4    0    0  0.51684593267E+03  0.10949858077E+04 -0.49147368852E+03  0.13067784906E+04  0.00000000000E+00 0.  1.
         16    1    3    3    0    0 -0.38176087760E+03 -0.17369545740E+03  0.91707860531E+03  0.10084367347E+04  0.00000000000E+00 0. -1.
    9900018    1    4    4    0    0  0.68379623362E+02  0.63721502997E+02  0.26555852334E+02  0.13325387245E+03  0.91187600000E+02 0.  0.
<mgrwt>
<rscale>  0 0.25980671E+04</rscale>
<asrwt>0</asrwt>
<pdfrwt beam="1">  1        1 0.60676621E+00 0.42826431E+04</pdfrwt>
<pdfrwt beam="2">  1       -1 0.29399154E+00 0.42826431E+04</pdfrwt>
<totfact> 0.28501043E-03</totfact>
</mgrwt>
</event>
<event>
11    1  0.9636581E-018  0.3503101E+04  0.7818608E-02  0.8413128E-01
          2   -1    0    0  501    0  0.00000000000E+00  0.00000000000E+00  0.18476476292E+04  0.18476476292E+04  0.00000000000E+00 0. -1.
         -2   -1    0    0    0  501 -0.00000000000E+00 -0.00000000000E+00 -0.26251617758E+04  0.26251617758E+04  0.00000000000E+00 0.  1.
    9900016    2    1    2    0    0  0.33195341665E+03 -0.20856093452E+03 -0.31035137364E+03  0.21966960119E+04  0.21390335807E+04 0.  0.
         23    2    3    3    0    0  0.14123154447E+03 -0.36403123824E+03  0.88628717431E+03  0.97502107056E+03  0.11267671064E+03 0.  0.
        -15    1    4    4    0    0  0.10280960483E+03 -0.17950241933E+03  0.34981832408E+03  0.40640348577E+03  0.00000000000E+00 0. -1.
        -15    1    1    2    0    0 -0.31980129419E+02 -0.17374504127E+03 -0.93096202755E+02  0.19969219066E+03  0.00000000000E+00 0.  1.
         15    1    4    4    0    0  0.38421939634E+02 -0.18452881891E+03  0.53646885024E+03  0.56861758479E+03  0.00000000000E+00 0.  1.
         15    1    1    2    0    0 -0.24970730498E+03  0.11622899920E+04 -0.67576313948E+02  0.11907301634E+04  0.00000000000E+00 0. -1.
        -16    1    3    3    0    0  0.19072187218E+03  0.15547030372E+03 -0.11966385479E+04  0.12216749413E+04  0.00000000000E+00 0.  1.
         16    1    1    2    0    0 -0.87624646786E+02 -0.68524953236E+03 -0.28503872060E+03  0.74732327179E+03  0.00000000000E+00 0. -1.
    9900018    1    1    2    0    0  0.37358664535E+02 -0.94734483889E+02 -0.21451535612E+02  0.13836776730E+03  0.91187600000E+02 0.  0.
<mgrwt>
<rscale>  0 0.24717262E+04</rscale>
<asrwt>0</asrwt>
<pdfrwt beam="1">  1        2 0.28425348E+00 0.35031014E+04</pdfrwt>
<pdfrwt beam="2">  1       -2 0.40387104E+00 0.35031014E+04</pdfrwt>
<totfact> 0.45305002E-02</totfact>
</mgrwt>
</event>
<event>
11    1  0.9636581E-018  0.2886043E+04  0.7818608E-02  0.8999213E-01
         -2   -1    0    0    0  501 -0.00000000000E+00  0.00000000000E+00  0.23098743399E+04  0.23098743399E+04  0.00000000000E+00 0.  1.
          2   -1    0    0  501    0  0.00000000000E+00 -0.00000000000E+00 -0.98770455742E+03  0.98770455742E+03  0.00000000000E+00 0. -1.
         24    2    1    2    0    0  0.17350323123E+02 -0.95459239633E+02  0.77754806401E+02  0.15468050249E+03  0.92014932423E+02 0.  0.
    9900016    2    1    2    0    0 -0.24859625987E+03  0.46910772815E+03  0.11568979047E+04  0.24987345552E+04  0.21502091653E+04 0.  0.
        -15    1    4    4    0    0  0.18591697576E+03 -0.41583929636E+02  0.25225478438E+03  0.31611203919E+03  0.00000000000E+00 0. -1.
        -15    1    3    3    0    0 -0.27024743533E+02 -0.30230292132E+02 -0.43914704796E+01  0.40785933094E+02  0.00000000000E+00 0.  1.
         15    1    4    4    0    0  0.59775481513E+03  0.20113735782E+03  0.90725779709E+03  0.11049360914E+04  0.00000000000E+00 0.  1.
         15    1    1    2    0    0  0.29809204609E+03 -0.39092728560E+03 -0.13160720786E+02  0.49178879119E+03  0.00000000000E+00 0. -1.
        -16    1    4    4    0    0 -0.10322680508E+04  0.30955429996E+03 -0.26146767192E+01  0.10776864246E+04  0.00000000000E+00 0.  1.
         16    1    3    3    0    0  0.44375066656E+02 -0.65228947501E+02  0.82146276881E+02  0.11389456940E+03  0.00000000000E+00 0. -1.
    9900018    1    1    2    0    0 -0.66846109342E+02  0.17278797085E+02  0.10067779209E+03  0.15237504840E+03  0.91187600000E+02 0.  0.
<mgrwt>
<rscale>  0 0.13389791E+04</rscale>
<asrwt>0</asrwt>
<pdfrwt beam="1">  1        2 0.15195455E+00 0.28860426E+04</pdfrwt>
<pdfrwt beam="2">  1       -2 0.35536528E+00 0.28860426E+04</pdfrwt>
<totfact> 0.31748549E-01</totfact>
</mgrwt>
</event>
<event>
11    1  0.9636581E-018  0.4419398E+04  0.7818608E-02  0.8475730E-01
          2   -1    0    0  501    0  0.00000000000E+00  0.00000000000E+00  0.26887805866E+04  0.26887805866E+04  0.00000000000E+00 0.  1.
         -2   -1    0    0    0  501 -0.00000000000E+00 -0.00000000000E+00 -0.25317349100E+04  0.25317349100E+04  0.00000000000E+00 0. -1.
    9900016    2    1    2    0    0 -0.44105037049E+03  0.58432572922E+03  0.11820611107E+04  0.26315976057E+04  0.22342953031E+04 0.  0.
         23    2    3    3    0    0  0.26004211644E+03 -0.14649082758E+03 -0.51799282473E+03  0.60210399761E+03  0.71632343106E+02 0.  0.
        -15    1    4    4    0    0  0.57897808639E+02 -0.15871473377E+02 -0.15847168069E+03  0.16946189392E+03  0.00000000000E+00 0. -1.
        -15    1    1    2    0    0  0.12949585721E+03 -0.79886743632E+02  0.29968549364E+03  0.33609889012E+03  0.00000000000E+00 0.  1.
         15    1    1    2    0    0  0.15225627421E+03 -0.57579154805E+03 -0.17202693248E+04  0.18204517103E+04  0.00000000000E+00 0. -1.
         15    1    4    4    0    0  0.20214430780E+03 -0.13061935421E+03 -0.35952114405E+03  0.43264210369E+03  0.00000000000E+00 0.  1.
        -16    1    3    3    0    0 -0.66937316172E+03  0.70594701544E+03  0.16557415248E+04  0.19203910058E+04  0.00000000000E+00 0.  1.
         16    1    1    2    0    0  0.15929823908E+03  0.71352562452E+02  0.39556839704E+03  0.43236729048E+03  0.00000000000E+00 0. -1.
    9900018    1    3    3    0    0 -0.31719325213E+02  0.24869541368E+02  0.44312410647E+02  0.10910260222E+03  0.91187600000E+02 0.  0.
<mgrwt>
<rscale>  0 0.23055660E+04</rscale>
<asrwt>0</asrwt>
<pdfrwt beam="1">  1        2 0.41365855E+00 0.44193976E+04</pdfrwt>
<pdfrwt beam="2">  1       -2 0.38949768E+00 0.44193976E+04</pdfrwt>
<totfact> 0.17373421E-02</totfact>
</mgrwt>
</event>
<event>
10    1  0.9636581E-018  0.5325471E+04  0.7818608E-02  0.8564737E-01
         -1   -1    0    0    0  501 -0.00000000000E+00  0.00000000000E+00  0.21176585314E+04  0.21176585314E+04  0.00000000000E+00 0.  1.
          1   -1    0    0  501    0  0.00000000000E+00 -0.00000000000E+00 -0.35153903201E+04  0.35153903201E+04  0.00000000000E+00 0. -1.
    9900016    2    1    2    0    0 -0.76045320518E+03 -0.77986253463E+03  0.99480785491E+03  0.26156572810E+04  0.21599874290E+04 0.  0.
        -15    1    1    2    0    0 -0.60350090748E+02 -0.28074981029E+02 -0.20037749571E+02  0.69511505673E+02  0.00000000000E+00 0.  1.
        -15    1    3    3    0    0  0.76469512289E+02 -0.51068111723E+03 -0.52555377697E+03  0.73678325326E+03  0.00000000000E+00 0. -1.
         15    1    1    2    0    0  0.87640762871E+03  0.83199053129E+03 -0.24603664010E+04  0.27411131686E+04  0.00000000000E+00 0. -1.
         15    1    3    3    0    0 -0.45502958584E+02 -0.64274646368E+02 -0.60387617878E+02  0.99239174718E+02  0.00000000000E+00 0.  1.
        -16    1    3    3    0    0 -0.79141975889E+03 -0.20490677104E+03  0.15807492498E+04  0.17796348531E+04  0.00000000000E+00 0.  1.
         16    1    1    2    0    0  0.50641024633E+01  0.52922949066E+02  0.21462656708E+02  0.57333491997E+02  0.00000000000E+00 0. -1.
    9900018    1    1    2    0    0 -0.60668435243E+02 -0.76975964695E+02  0.66401850287E+02  0.14943340420E+03  0.91187600000E+02 0.  0.
<mgrwt>
<rscale>  0 0.20920883E+04</rscale>
<asrwt>0</asrwt>
<pdfrwt beam="1">  1        1 0.54082928E+00 0.53254710E+04</pdfrwt>
<pdfrwt beam="2">  1       -1 0.32579362E+00 0.53254710E+04</pdfrwt>
<totfact> 0.38134838E-03</totfact>
</mgrwt>
</event>
