<event>
11    1  0.2662771E-011  0.1662417E+04  0.7818608E-02  0.8783094E-01
         -1   -1    0    0    0  501 -0.00000000000E+00  0.00000000000E+00  0.20531280763E+03  0.20531280763E+03  0.00000000000E+00 0.  1.
          1   -1    0    0  501    0  0.00000000000E+00 -0.00000000000E+00 -0.33651472621E+04  0.33651472621E+04  0.00000000000E+00 0. -1.
    9900016    2    1    2    0    0  0.52928528546E+02 -0.24138504792E+02 -0.86590490951E+03  0.11191510451E+04  0.70662836970E+03 0.  0.
         23    2    3    3    0    0 -0.33077030375E+02 -0.14756954940E+03 -0.78445572053E+03  0.80360987206E+03  0.86874548370E+02 0.  0.
        -15    1    1    2    0    0  0.13282392643E+03 -0.60324338156E+02 -0.42065463923E+02  0.15182465037E+03  0.00000000000E+00 0.  1.
        -15    1    4    4    0    0 -0.11361107696E+02  0.87650336796E+01 -0.37300870211E+02  0.39965679051E+02  0.00000000000E+00 0.  1.
         15    1    4    4    0    0 -0.21715922679E+02 -0.15633458308E+03 -0.74715485032E+03  0.76364419301E+03  0.00000000000E+00 0. -1.
         15    1    1    2    0    0 -0.80142929437E+02 -0.42227239069E+02 -0.78491001168E+02  0.11986186267E+03  0.00000000000E+00 0. -1.
        -16    1    3    3    0    0  0.87944635790E+01  0.13336611299E+03 -0.12975345725E+03  0.18627888327E+03  0.00000000000E+00 0.  1.
         16    1    1    2    0    0 -0.10560952553E+03  0.12669008202E+03 -0.21733730799E+04  0.21796225116E+04  0.00000000000E+00 0. -1.
    9900018    1    3    3    0    0  0.77211095342E+02 -0.99350683804E+01  0.48304268267E+02  0.12926228976E+03  0.91187600000E+02 0.  0.
<mgrwt>
<rscale>  0 0.16624173E+04</rscale>
<asrwt>0</asrwt>
<pdfrwt beam="1">  1        1 0.51771496E+00 0.16624173E+04</pdfrwt>
<pdfrwt beam="2">  1       -1 0.31586586E-01 0.16624173E+04</pdfrwt>
<totfact> 0.28520861E+00</totfact>
</mgrwt>
</event>
<event>
11    1  0.2662771E-011  0.2207887E+04  0.7818608E-02  0.8515152E-01
         -1   -1    0    0    0  501 -0.00000000000E+00  0.00000000000E+00  0.62443699420E+03  0.62443699420E+03  0.00000000000E+00 0.  1.
          1   -1    0    0  501    0  0.00000000000E+00 -0.00000000000E+00 -0.19516643823E+04  0.19516643823E+04  0.00000000000E+00 0. -1.
    9900016    2    1    2    0    0 -0.38377565199E+03 -0.19006494939E+03 -0.11356966875E+03  0.82591465915E+03  0.69701400165E+03 0.  0.
         23    2    3    3    0    0 -0.12992602432E+03 -0.39147566820E+03  0.65314936921E+01  0.42255571227E+03  0.91524308103E+02 0.  0.
        -15    1    4    4    0    0 -0.32346046593E+02 -0.18412754087E+03 -0.33496767137E+02  0.18992433084E+03  0.00000000000E+00 0.  1.
        -15    1    1    2    0    0 -0.77080033322E+02  0.23191553335E+03  0.14509622130E+03  0.28421657162E+03  0.00000000000E+00 0.  1.
         15    1    1    2    0    0  0.10882687705E+03  0.61199440553E+02 -0.11675664477E+03  0.17094085173E+03  0.00000000000E+00 0. -1.
         15    1    4    4    0    0 -0.97579977723E+02 -0.20734812733E+03  0.40028260829E+02  0.23263138143E+03  0.00000000000E+00 0. -1.
        -16    1    3    3    0    0 -0.19124689294E+03  0.17625966753E+03 -0.12756394200E+03  0.28968155578E+03  0.00000000000E+00 0.  1.
         16    1    1    2    0    0  0.35202880826E+03 -0.10305002452E+03 -0.12419972959E+04  0.12950292940E+04  0.00000000000E+00 0. -1.
    9900018    1    3    3    0    0 -0.62602734728E+02  0.25151051274E+02  0.74627795547E+01  0.11367739110E+03  0.91187600000E+02 0.  0.
<mgrwt>
<rscale>  0 0.22078872E+04</rscale>
<asrwt>0</asrwt>
<pdfrwt beam="1">  1        1 0.30025605E+00 0.22078872E+04</pdfrwt>
<pdfrwt beam="2">  1       -1 0.96067233E-01 0.22078872E+04</pdfrwt>
<totfact> 0.30568481E+00</totfact>
</mgrwt>
</event>
<event>
11    1  0.2662771E-011  0.2077986E+04  0.7818608E-02  0.8571003E-01
          2   -1    0    0  501    0  0.00000000000E+00  0.00000000000E+00  0.29593681809E+04  0.29593681809E+04  0.00000000000E+00 0. -1.
         -2   -1    0    0    0  501 -0.00000000000E+00 -0.00000000000E+00 -0.36477610711E+03  0.36477610711E+03  0.00000000000E+00 0.  1.
    9900016    2    1    2    0    0 -0.86935748720E+01 -0.39030974567E+03  0.10971529064E+04  0.13613161199E+04  0.70499631376E+03 0.  0.
         23    2    3    3    0    0 -0.60336902419E+02  0.30988217100E+02 -0.42633567608E+02  0.11987688595E+03  0.89174185201E+02 0.  0.
        -15    1    4    4    0    0 -0.44437407131E+02 -0.25301711880E+02 -0.32289328642E+02  0.60476942058E+02  0.00000000000E+00 0.  1.
        -15    1    1    2    0    0  0.13847655692E+03 -0.20127191668E+03  0.92080177863E+02  0.26108408687E+03  0.00000000000E+00 0.  1.
         15    1    1    2    0    0 -0.14974597349E+03 -0.74209795700E+02  0.74602293878E+03  0.76451368565E+03  0.00000000000E+00 0. -1.
         15    1    4    4    0    0 -0.15899495288E+02  0.56289928980E+02 -0.10344238966E+02  0.59399943895E+02  0.00000000000E+00 0. -1.
        -16    1    3    3    0    0 -0.38898479783E+02 -0.33014057905E+03  0.71913174393E+03  0.79224766254E+03  0.00000000000E+00 0.  1.
         16    1    1    2    0    0  0.19962991439E+02  0.66579145804E+03  0.65933605074E+03  0.93723039560E+03  0.00000000000E+00 0. -1.
    9900018    1    3    3    0    0  0.90541807329E+02 -0.91157383712E+02  0.42065473006E+03  0.44919157138E+03  0.91187600000E+02 0.  0.
<mgrwt>
<rscale>  0 0.20779863E+04</rscale>
<asrwt>0</asrwt>
<pdfrwt beam="1">  1        2 0.45528740E+00 0.20779863E+04</pdfrwt>
<pdfrwt beam="2">  1       -2 0.56119403E-01 0.20779863E+04</pdfrwt>
<totfact> 0.50892083E+00</totfact>
</mgrwt>
</event>
<event>
11    1  0.2662771E-011  0.1568336E+04  0.7818608E-02  0.8840240E-01
         -1   -1    0    0    0  501 -0.00000000000E+00  0.00000000000E+00  0.85479010938E+03  0.85479010938E+03  0.00000000000E+00 0.  1.
          1   -1    0    0  501    0  0.00000000000E+00 -0.00000000000E+00 -0.71938067782E+03  0.71938067782E+03  0.00000000000E+00 0. -1.
    9900016    2    1    2    0    0  0.80162963373E+02 -0.87831902745E+02 -0.86008767596E+02  0.68447476381E+03  0.66855639280E+03 0.  0.
         23    2    3    3    0    0  0.14001499485E+03  0.56487822437E+02 -0.17924480603E+02  0.17589562688E+03  0.88447225403E+02 0.  0.
        -15    1    4    4    0    0  0.20985436047E+02 -0.89245591842E+01 -0.32059852009E+02  0.39342984045E+02  0.00000000000E+00 0.  1.
        -15    1    1    2    0    0  0.29545812421E+03  0.15592486368E+03  0.22096746579E+03  0.40054299047E+03  0.00000000000E+00 0.  1.
         15    1    1    2    0    0 -0.17321338057E+02 -0.41709547807E+02  0.10556638680E+03  0.11482150126E+03  0.00000000000E+00 0. -1.
         15    1    4    4    0    0  0.11902955881E+03  0.65412381621E+02  0.14135371407E+02  0.13655264283E+03  0.00000000000E+00 0. -1.
        -16    1    3    3    0    0  0.17953027280E+03 -0.46080975185E+02  0.74048854785E+02  0.19959410818E+03  0.00000000000E+00 0.  1.
         16    1    1    2    0    0 -0.35829974953E+03 -0.26383413125E+02 -0.10511565343E+03  0.37433153166E+03  0.00000000000E+00 0. -1.
    9900018    1    3    3    0    0 -0.23938230428E+03 -0.98238749997E+02 -0.14213314178E+03  0.30898502875E+03  0.91187600000E+02 0.  0.
<mgrwt>
<rscale>  0 0.15683360E+04</rscale>
<asrwt>0</asrwt>
<pdfrwt beam="1">  1        1 0.11067395E+00 0.15683360E+04</pdfrwt>
<pdfrwt beam="2">  1       -1 0.13150617E+00 0.15683360E+04</pdfrwt>
<totfact> 0.12383351E+01</totfact>
</mgrwt>
</event>
<event>
11    1  0.2662771E-011  0.1938086E+04  0.7818608E-02  0.9188397E-01
          1   -1    0    0  501    0  0.00000000000E+00  0.00000000000E+00  0.78372452696E+03  0.78372452696E+03  0.00000000000E+00 0. -1.
         -1   -1    0    0    0  501 -0.00000000000E+00 -0.00000000000E+00 -0.14841993449E+04  0.14841993449E+04  0.00000000000E+00 0.  1.
    9900016    2    1    2    0    0 -0.55722754793E+03 -0.18478178735E+03 -0.97670720876E+03  0.13397067622E+04  0.70442202396E+03 0.  0.
         23    2    3    3    0    0 -0.19158753525E+03 -0.16754796037E+03 -0.40290760288E+02  0.27324596593E+03  0.90895048513E+02 0.  0.
        -15    1    1    2    0    0 -0.26717628377E+02 -0.15701070588E+03 -0.47208835380E+02  0.16611702972E+03  0.00000000000E+00 0.  1.
        -15    1    4    4    0    0 -0.24537061462E+02 -0.30540959713E+02  0.26279362290E+02  0.47174383809E+02  0.00000000000E+00 0.  1.
         15    1    4    4    0    0 -0.16705047379E+03 -0.13700700066E+03 -0.66570122578E+02  0.22607158212E+03  0.00000000000E+00 0. -1.
         15    1    1    2    0    0  0.43203945564E+02 -0.10772944586E+02  0.21722597375E+02  0.49542996317E+02  0.00000000000E+00 0. -1.
        -16    1    3    3    0    0 -0.14399723762E+03 -0.17231312768E+03 -0.43143261054E+03  0.48637548853E+03  0.00000000000E+00 0.  1.
         16    1    1    2    0    0  0.54074123074E+03  0.35256543781E+03  0.30171862879E+03  0.71255708370E+03  0.00000000000E+00 0. -1.
    9900018    1    3    3    0    0 -0.22164277506E+03  0.15507930070E+03 -0.50498383793E+03  0.58008530770E+03  0.91187600000E+02 0.  0.
<mgrwt>
<rscale>  0 0.11174000E+04</rscale>
<asrwt>0</asrwt>
<pdfrwt beam="1">  1        1 0.12057301E+00 0.19380860E+04</pdfrwt>
<pdfrwt beam="2">  1       -1 0.22833836E+00 0.19380860E+04</pdfrwt>
<totfact> 0.20507618E+00</totfact>
</mgrwt>
</event>
<event>
11    1  0.2662771E-011  0.2438516E+04  0.7818608E-02  0.8425223E-01
          2   -1    0    0  501    0  0.00000000000E+00  0.00000000000E+00  0.35561888456E+04  0.35561888456E+04  0.00000000000E+00 0. -1.
         -2   -1    0    0    0  501 -0.00000000000E+00 -0.00000000000E+00 -0.41802912795E+03  0.41802912795E+03  0.00000000000E+00 0.  1.
    9900016    2    1    2    0    0  0.81671805237E+02  0.14462986838E+03  0.69529878766E+03  0.10047850687E+04  0.70609103343E+03 0.  0.
         23    2    3    3    0    0 -0.59589178000E+02 -0.16077344522E+03  0.26826184561E+03  0.33133400470E+03  0.91754204475E+02 0.  0.
        -15    1    4    4    0    0 -0.24581038985E+02 -0.10163307282E+03  0.82261456576E+02  0.13304306147E+03  0.00000000000E+00 0.  1.
        -15    1    1    2    0    0  0.65798965714E+03  0.37506057554E+03  0.95019765287E+03  0.12151116837E+04  0.00000000000E+00 0.  1.
         15    1    1    2    0    0 -0.11600921841E+03 -0.10479332766E+03  0.14895070770E+03  0.21593076113E+03  0.00000000000E+00 0. -1.
         15    1    4    4    0    0 -0.35008139014E+02 -0.59140372400E+02  0.18600038904E+03  0.19829094323E+03  0.00000000000E+00 0. -1.
        -16    1    3    3    0    0  0.19822939016E+03  0.30985129428E+03  0.42991564535E+03  0.56580047527E+03  0.00000000000E+00 0.  1.
         16    1    1    2    0    0 -0.62365224397E+03 -0.41489711626E+03  0.13437125694E+04  0.15383904601E+04  0.00000000000E+00 0. -1.
    9900018    1    3    3    0    0 -0.56968406926E+02 -0.44479806868E+01 -0.28787033015E+01  0.10765058869E+03  0.91187600000E+02 0.  0.
<mgrwt>
<rscale>  0 0.24385164E+04</rscale>
<asrwt>0</asrwt>
<pdfrwt beam="1">  1        2 0.54710595E+00 0.24385164E+04</pdfrwt>
<pdfrwt beam="2">  1       -2 0.64312176E-01 0.24385164E+04</pdfrwt>
<totfact> 0.14885881E+00</totfact>
</mgrwt>
</event>
<event>
11    1  0.2662771E-011  0.1887155E+04  0.7818608E-02  0.8661277E-01
          2   -1    0    0  501    0  0.00000000000E+00  0.00000000000E+00  0.15324963812E+04  0.15324963812E+04  0.00000000000E+00 0. -1.
         -2   -1    0    0    0  501 -0.00000000000E+00 -0.00000000000E+00 -0.58097238663E+03  0.58097238663E+03  0.00000000000E+00 0.  1.
    9900016    2    1    2    0    0  0.77177466021E+02 -0.93574472801E+02  0.97927850563E+03  0.12272155010E+04  0.72962932445E+03 0.  0.
         23    2    3    3    0    0 -0.80137536636E+02 -0.28692018192E+03  0.50844068499E+03  0.59621785763E+03  0.90656428511E+02 0.  0.
        -15    1    1    2    0    0 -0.17556459857E+03  0.16722308129E+02  0.34550620909E+02  0.17971173937E+03  0.00000000000E+00 0.  1.
        -15    1    4    4    0    0  0.18951957666E+02 -0.25518712708E+02  0.55256592719E+02  0.63746940605E+02  0.00000000000E+00 0.  1.
         15    1    1    2    0    0  0.42995113372E+01  0.19475777207E+03  0.27502066990E+03  0.33702439741E+03  0.00000000000E+00 0. -1.
         15    1    4    4    0    0 -0.99089494302E+02 -0.26140146921E+03  0.45318409227E+03  0.53247091702E+03  0.00000000000E+00 0. -1.
        -16    1    1    2    0    0  0.94087621217E+02 -0.11790560740E+03 -0.33732580191E+03  0.36951712999E+03  0.00000000000E+00 0.  1.
         16    1    3    3    0    0  0.19835973145E+03  0.23598266270E+03  0.38008301686E+03  0.48938481777E+03  0.00000000000E+00 0. -1.
    9900018    1    3    3    0    0 -0.41044728796E+02 -0.42636953589E+02  0.90754803777E+02  0.14161282560E+03  0.91187600000E+02 0.  0.
<mgrwt>
<rscale>  0 0.18871546E+04</rscale>
<asrwt>0</asrwt>
<pdfrwt beam="1">  1        2 0.23576867E+00 0.18871546E+04</pdfrwt>
<pdfrwt beam="2">  1       -2 0.89380368E-01 0.18871546E+04</pdfrwt>
<totfact> 0.12251139E+01</totfact>
</mgrwt>
</event>
<event>
11    1  0.2662771E-011  0.1881764E+04  0.7818608E-02  0.8663987E-01
          1   -1    0    0  501    0  0.00000000000E+00  0.00000000000E+00  0.35389455041E+03  0.35389455041E+03  0.00000000000E+00 0. -1.
         -1   -1    0    0    0  501 -0.00000000000E+00 -0.00000000000E+00 -0.25014777887E+04  0.25014777887E+04  0.00000000000E+00 0.  1.
    9900016    2    1    2    0    0 -0.35182172022E+03  0.96133183809E+02 -0.56005039893E+03  0.96467083177E+03  0.69563873705E+03 0.  0.
         23    2    3    3    0    0 -0.78012059032E+02 -0.62122013343E+02 -0.92503862383E+02  0.16388024005E+03  0.91404281234E+02 0.  0.
        -15    1    1    2    0    0  0.50818255613E+02  0.10040704102E+03 -0.44135447534E+03  0.45547540207E+03  0.00000000000E+00 0.  1.
        -15    1    4    4    0    0 -0.60720195076E+02 -0.80422470060E+02 -0.45518573458E+02  0.11057421178E+03  0.00000000000E+00 0.  1.
         15    1    4    4    0    0 -0.17291863955E+02  0.18300456717E+02 -0.46985288924E+02  0.53306028275E+02  0.00000000000E+00 0. -1.
         15    1    1    2    0    0  0.34339829405E+03 -0.12121808260E+03 -0.89478007759E+02  0.37499670103E+03  0.00000000000E+00 0. -1.
        -16    1    1    2    0    0 -0.42394829443E+02 -0.75322142236E+02 -0.10567003563E+04  0.10602294043E+04  0.00000000000E+00 0.  1.
         16    1    3    3    0    0  0.17813413016E+02 -0.12148357574E+03  0.54511241522E+02  0.13433931781E+03  0.00000000000E+00 0. -1.
    9900018    1    3    3    0    0 -0.29162307421E+03  0.27973877289E+03 -0.52205777807E+03  0.66645127391E+03  0.91187600000E+02 0.  0.
<mgrwt>
<rscale>  0 0.18817644E+04</rscale>
<asrwt>0</asrwt>
<pdfrwt beam="1">  1        1 0.54445314E-01 0.18817644E+04</pdfrwt>
<pdfrwt beam="2">  1       -1 0.38484275E+00 0.18817644E+04</pdfrwt>
<totfact> 0.60156907E-01</totfact>
</mgrwt>
</event>
<event>
11    1  0.2662771E-011  0.1633512E+04  0.7818608E-02  0.9391037E-01
          1   -1    0    0  501    0  0.00000000000E+00  0.00000000000E+00  0.25819447353E+04  0.25819447353E+04  0.00000000000E+00 0. -1.
         -1   -1    0    0    0  501 -0.00000000000E+00 -0.00000000000E+00 -0.31941077943E+03  0.31941077943E+03  0.00000000000E+00 0.  1.
    9900016    2    1    2    0    0  0.23099546846E+03  0.18086439541E+03  0.21106756225E+04  0.22464867655E+04  0.71111206453E+03 0.  0.
         23    2    3    3    0    0  0.16520579714E+03  0.11438839954E+03  0.19326237621E+03  0.29313146390E+03  0.90543071035E+02 0.  0.
        -15    1    1    2    0    0 -0.35004825290E+02  0.62553120011E+01  0.14489261165E+02  0.38397987069E+02  0.00000000000E+00 0.  1.
        -15    1    4    4    0    0  0.24890502343E+02 -0.14854492793E+02  0.33521748883E+02  0.44315919388E+02  0.00000000000E+00 0.  1.
         15    1    4    4    0    0  0.14031529479E+03  0.12924289233E+03  0.15974062733E+03  0.24881554451E+03  0.00000000000E+00 0. -1.
         15    1    1    2    0    0 -0.10489694730E+03  0.20696835582E+02  0.31221499800E+03  0.33001505046E+03  0.00000000000E+00 0. -1.
        -16    1    1    2    0    0 -0.91093695870E+02 -0.20781654299E+03 -0.17484592580E+03  0.28645571165E+03  0.00000000000E+00 0.  1.
         16    1    3    3    0    0 -0.12386094088E+03  0.31704425728E+02  0.11422808335E+04  0.11494138531E+04  0.00000000000E+00 0. -1.
    9900018    1    3    3    0    0  0.18965061221E+03  0.34771570143E+02  0.77513241283E+03  0.80394144850E+03  0.91187600000E+02 0.  0.
<mgrwt>
<rscale>  0 0.92816976E+03</rscale>
<asrwt>0</asrwt>
<pdfrwt beam="1">  1        1 0.39722225E+00 0.16335119E+04</pdfrwt>
<pdfrwt beam="2">  1       -1 0.49140122E-01 0.16335119E+04</pdfrwt>
<totfact> 0.47136400E+00</totfact>
</mgrwt>
</event>
<event>
12    1  0.2662771E-011  0.1155088E+04  0.7818608E-02  0.9153103E-01
          2   -1    0    0  501    0  0.00000000000E+00  0.00000000000E+00  0.48957160497E+03  0.48957160497E+03  0.00000000000E+00 0. -1.
         -2   -1    0    0    0  501 -0.00000000000E+00 -0.00000000000E+00 -0.68132407290E+03  0.68132407290E+03  0.00000000000E+00 0.  1.
    9900016    2    1    2    0    0  0.23074347960E+03  0.37652472547E+02 -0.10823521119E+03  0.92263091146E+03  0.88593040120E+03 0.  0.
    9900016    2    3    3    0    0  0.17325037633E+03  0.59534661446E+02 -0.23259645465E+03  0.76638863036E+03  0.70688779393E+03 0.  0.
         23    2    4    4    0    0 -0.22219484646E+02 -0.12802851197E+03  0.13098397438E+03  0.20751531824E+03  0.94977894200E+02 0.  0.
        -15    1    5    5    0    0 -0.56498516268E+02 -0.53159870680E+02  0.75300173758E+02  0.10811184190E+03  0.00000000000E+00 0. -1.
        -15    1    3    3    0    0  0.54999825659E+02  0.14771321435E+02  0.64862673858E+02  0.86315347532E+02  0.00000000000E+00 0. -1.
         15    1    3    3    0    0  0.24932776144E+01 -0.36653510334E+02  0.59498569605E+02  0.69926933567E+02  0.00000000000E+00 0.  1.
         15    1    5    5    0    0  0.34279031622E+02 -0.74868641289E+02  0.55683800619E+02  0.99403476341E+02  0.00000000000E+00 0.  1.
        -16    1    4    4    0    0 -0.85192935263E+02  0.46713283807E+02 -0.92025710690E+02  0.13382338559E+03  0.00000000000E+00 0.  1.
         16    1    1    2    0    0 -0.23074347960E+03 -0.37652472547E+02 -0.83517256739E+02  0.24826476641E+03  0.00000000000E+00 0. -1.
    9900018    1    4    4    0    0  0.28066279624E+03  0.14084988961E+03 -0.27155471834E+03  0.42504992653E+03  0.91187600000E+02 0.  0.
<mgrwt>
<rscale>  0 0.11550877E+04</rscale>
<asrwt>0</asrwt>
<pdfrwt beam="1">  1        2 0.75318709E-01 0.11550877E+04</pdfrwt>
<pdfrwt beam="2">  1       -2 0.10481909E+00 0.11550877E+04</pdfrwt>
<totfact> 0.46100971E+01</totfact>
</mgrwt>
</event>
<event>
11    1  0.2662771E-011  0.2422833E+04  0.7818608E-02  0.8431004E-01
          1   -1    0    0  501    0  0.00000000000E+00  0.00000000000E+00  0.10838306611E+04  0.10838306611E+04  0.00000000000E+00 0. -1.
         -1   -1    0    0    0  501 -0.00000000000E+00 -0.00000000000E+00 -0.13540214576E+04  0.13540214576E+04  0.00000000000E+00 0.  1.
    9900016    2    1    2    0    0 -0.69904762259E+02 -0.18994557962E+03  0.42315353966E+03  0.81866388343E+03  0.67095874456E+03 0.  0.
         23    2    3    3    0    0  0.16716013931E+01  0.76898802581E+02 -0.13122667105E+03  0.17710370395E+03  0.90714181191E+02 0.  0.
        -15    1    1    2    0    0  0.88456773359E+02  0.76456086090E+02  0.10366458299E+03  0.15625773459E+03  0.00000000000E+00 0.  1.
        -15    1    4    4    0    0  0.12044054306E+02  0.89184078868E+02 -0.70601926124E+02  0.11438308940E+03  0.00000000000E+00 0. -1.
         15    1    4    4    0    0 -0.10372452912E+02 -0.12285276287E+02 -0.60624744925E+02  0.62720614554E+02  0.00000000000E+00 0.  1.
         15    1    1    2    0    0 -0.42943612916E+03  0.51331267189E+02  0.12618007247E+03  0.45052380482E+03  0.00000000000E+00 0. -1.
        -16    1    1    2    0    0  0.41088411806E+03  0.62158226341E+02 -0.92318899158E+03  0.10124066958E+04  0.00000000000E+00 0.  1.
         16    1    3    3    0    0 -0.77129791360E+02 -0.18285561426E+03  0.35532140136E+03  0.40698707430E+03  0.00000000000E+00 0. -1.
    9900018    1    3    3    0    0  0.55534277073E+01 -0.83988767942E+02  0.19905880935E+03  0.23457310518E+03  0.91187600000E+02 0.  0.
<mgrwt>
<rscale>  0 0.24228330E+04</rscale>
<asrwt>0</asrwt>
<pdfrwt beam="1">  1        1 0.16674318E+00 0.24228330E+04</pdfrwt>
<pdfrwt beam="2">  1       -1 0.20831099E+00 0.24228330E+04</pdfrwt>
<totfact> 0.15395458E+00</totfact>
</mgrwt>
</event>
<event>
11    1  0.2662771E-011  0.3314692E+04  0.7818608E-02  0.8159167E-01
         -2   -1    0    0    0  501 -0.00000000000E+00  0.00000000000E+00  0.86615676751E+03  0.86615676751E+03  0.00000000000E+00 0.  1.
          2   -1    0    0  501    0  0.00000000000E+00 -0.00000000000E+00 -0.31712462532E+04  0.31712462532E+04  0.00000000000E+00 0. -1.
    9900016    2    1    2    0    0  0.18930698830E+03 -0.28395566815E+03 -0.12390679057E+04  0.14702698682E+04  0.71409820964E+03 0.  0.
         23    2    3    3    0    0 -0.42440851578E+02 -0.35802656929E+03 -0.66921798717E+03  0.76553607283E+03  0.90600851263E+02 0.  0.
        -15    1    4    4    0    0 -0.40641313479E+02 -0.14922006355E+03 -0.36639147932E+03  0.39769468169E+03  0.00000000000E+00 0. -1.
        -15    1    1    2    0    0 -0.29271813232E+03  0.46666631204E+03  0.53273242204E+03  0.76633229429E+03  0.00000000000E+00 0.  1.
         15    1    1    2    0    0 -0.13201355585E+03 -0.12301711168E+03  0.32652734447E+01  0.18047562358E+03  0.00000000000E+00 0. -1.
         15    1    4    4    0    0 -0.17995380988E+01 -0.20880650574E+03 -0.30282650785E+03  0.36784139113E+03  0.00000000000E+00 0.  1.
        -16    1    3    3    0    0  0.50223903587E+02  0.94104109316E+02 -0.46143486187E+03  0.47360337376E+03  0.00000000000E+00 0.  1.
         16    1    1    2    0    0  0.23542469987E+03 -0.59693532202E+02 -0.16020192754E+04  0.16203252346E+04  0.00000000000E+00 0. -1.
    9900018    1    3    3    0    0  0.18152393629E+03 -0.20033208180E+02 -0.10841505666E+03  0.23113042158E+03  0.91187600000E+02 0.  0.
<mgrwt>
<rscale>  0 0.33146924E+04</rscale>
<asrwt>0</asrwt>
<pdfrwt beam="1">  1        2 0.48788405E+00 0.33146924E+04</pdfrwt>
<pdfrwt beam="2">  1       -2 0.13325489E+00 0.33146924E+04</pdfrwt>
<totfact> 0.46018449E-01</totfact>
</mgrwt>
</event>
<event>
11    1  0.2662771E-011  0.4014345E+04  0.7818608E-02  0.8001659E-01
          2   -1    0    0  501    0  0.00000000000E+00  0.00000000000E+00  0.16945674082E+04  0.16945674082E+04  0.00000000000E+00 0. -1.
         -2   -1    0    0    0  501 -0.00000000000E+00 -0.00000000000E+00 -0.23774449319E+04  0.23774449319E+04  0.00000000000E+00 0.  1.
    9900016    2    1    2    0    0 -0.82439336762E+02 -0.51019815394E+03 -0.13438615997E+04  0.16301891763E+04  0.76449614196E+03 0.  0.
         23    2    3    3    0    0 -0.74068007802E+02 -0.17618235836E+03 -0.67172010173E+03  0.70478504810E+03  0.94803880571E+02 0.  0.
        -15    1    1    2    0    0 -0.35892497599E+03  0.31257353213E+02 -0.12434156105E+03  0.38113643794E+03  0.00000000000E+00 0.  1.
        -15    1    4    4    0    0 -0.87388002199E+02 -0.93398430941E+02 -0.36274353259E+03  0.38463333224E+03  0.00000000000E+00 0.  1.
         15    1    4    4    0    0  0.13319994397E+02 -0.82783927415E+02 -0.30897656914E+03  0.32015171586E+03  0.00000000000E+00 0. -1.
         15    1    1    2    0    0  0.20690573780E+03  0.84417502239E+03  0.11857417440E+04  0.14701785389E+04  0.00000000000E+00 0. -1.
        -16    1    1    2    0    0  0.23445857496E+03 -0.36523422167E+03 -0.40041610702E+03  0.59050818691E+03  0.00000000000E+00 0.  1.
         16    1    3    3    0    0 -0.61736335259E+02  0.11412387573E+03 -0.26539249782E+02  0.13243853624E+03  0.00000000000E+00 0. -1.
    9900018    1    3    3    0    0  0.53365006299E+02 -0.44813967131E+03 -0.64560224815E+03  0.79296559201E+03  0.91187600000E+02 0.  0.
<mgrwt>
<rscale>  0 0.40143446E+04</rscale>
<asrwt>0</asrwt>
<pdfrwt beam="1">  1        2 0.26070268E+00 0.40143446E+04</pdfrwt>
<pdfrwt beam="2">  1       -2 0.36576076E+00 0.40143446E+04</pdfrwt>
<totfact> 0.96129327E-02</totfact>
</mgrwt>
</event>
<event>
11    1  0.2662771E-011  0.1603121E+04  0.7818608E-02  0.8818633E-01
         -1   -1    0    0    0  501 -0.00000000000E+00  0.00000000000E+00  0.40342298763E+03  0.40342298763E+03  0.00000000000E+00 0.  1.
          1   -1    0    0  501    0  0.00000000000E+00 -0.00000000000E+00 -0.15926191535E+04  0.15926191535E+04  0.00000000000E+00 0. -1.
    9900016    2    1    2    0    0  0.15873871621E+03 -0.40295411900E+03 -0.73306435510E+03  0.11116169462E+04  0.71465997817E+03 0.  0.
         23    2    3    3    0    0  0.63671577339E+02 -0.22358693652E+02  0.76960573692E+02  0.13746469532E+03  0.91758550627E+02 0.  0.
        -15    1    4    4    0    0  0.22491194192E+02 -0.56223143740E+02  0.42514885875E+02  0.73989264283E+02  0.00000000000E+00 0. -1.
        -15    1    1    2    0    0 -0.35694216828E+02  0.19250823345E+03  0.34789457957E+02  0.19885623814E+03  0.00000000000E+00 0.  1.
         15    1    4    4    0    0  0.41180383147E+02  0.33864450088E+02  0.34445687817E+02  0.63475431034E+02  0.00000000000E+00 0.  1.
         15    1    1    2    0    0 -0.15506036793E+03  0.29195693375E+03 -0.49797327943E+03  0.59771226848E+03  0.00000000000E+00 0. -1.
        -16    1    1    2    0    0  0.32015868549E+02 -0.81511048204E+02  0.70520107065E+01  0.87856688268E+02  0.00000000000E+00 0.  1.
         16    1    3    3    0    0  0.67657333573E+02 -0.24276535356E+03 -0.75790946698E+03  0.79871101896E+03  0.00000000000E+00 0. -1.
    9900018    1    3    3    0    0  0.27409805297E+02 -0.13783007179E+03 -0.52115461813E+02  0.17544123195E+03  0.91187600000E+02 0.  0.
<mgrwt>
<rscale>  0 0.16031209E+04</rscale>
<asrwt>0</asrwt>
<pdfrwt beam="1">  1        1 0.24501833E+00 0.16031209E+04</pdfrwt>
<pdfrwt beam="2">  1       -1 0.62065076E-01 0.16031209E+04</pdfrwt>
<totfact> 0.14259875E+01</totfact>
</mgrwt>
</event>
<event>
11    1  0.2662771E-011  0.1966013E+04  0.7818608E-02  0.8766501E-01
         -1   -1    0    0    0  501 -0.00000000000E+00  0.00000000000E+00  0.21704227794E+04  0.21704227794E+04  0.00000000000E+00 0.  1.
          1   -1    0    0  501    0  0.00000000000E+00 -0.00000000000E+00 -0.10906910387E+04  0.10906910387E+04  0.00000000000E+00 0. -1.
    9900016    2    1    2    0    0 -0.20839894266E+03  0.48666446886E+03  0.75302106758E+03  0.11653259055E+04  0.71461270159E+03 0.  0.
         23    2    3    3    0    0  0.77294706251E+02  0.40856313787E+02  0.12329706687E+02  0.12718680656E+03  0.91546447808E+02 0.  0.
        -15    1    4    4    0    0  0.16369167826E+02 -0.23213562384E+01 -0.35047505154E+02  0.38751335044E+02  0.00000000000E+00 0. -1.
        -15    1    1    2    0    0  0.77464931572E+03 -0.29510862572E+03  0.57928467133E+03  0.10113067753E+04  0.00000000000E+00 0.  1.
         15    1    4    4    0    0  0.60925538425E+02  0.43177670025E+02  0.47377211841E+02  0.88435471520E+02  0.00000000000E+00 0.  1.
         15    1    1    2    0    0  0.14757993106E+03  0.17270045090E+03  0.41318662705E+02  0.23089502741E+03  0.00000000000E+00 0. -1.
        -16    1    3    3    0    0 -0.28172388458E+03  0.30229970438E+02  0.18551868429E+03  0.33867296980E+03  0.00000000000E+00 0.  1.
         16    1    1    2    0    0 -0.71383030413E+03 -0.36425629405E+03 -0.29389266095E+03  0.85358610989E+03  0.00000000000E+00 0. -1.
    9900018    1    3    3    0    0 -0.39697643293E+01  0.41557818464E+03  0.55517267660E+03  0.69946612914E+03  0.91187600000E+02 0.  0.
<mgrwt>
<rscale>  0 0.16910227E+04</rscale>
<asrwt>0</asrwt>
<pdfrwt beam="1">  1        1 0.16779862E+00 0.19660129E+04</pdfrwt>
<pdfrwt beam="2">  1       -1 0.33391120E+00 0.19660129E+04</pdfrwt>
<totfact> 0.23240137E-01</totfact>
</mgrwt>
</event>
<event>
11    1  0.3273468E-011  0.3673594E+04  0.7818608E-02  0.8073839E-01
          2   -1    0    0  501    0  0.00000000000E+00  0.00000000000E+00  0.34922923249E+04  0.34922923249E+04  0.00000000000E+00 0. -1.
         -2   -1    0    0    0  501 -0.00000000000E+00 -0.00000000000E+00 -0.96607714180E+03  0.96607714180E+03  0.00000000000E+00 0.  1.
    9900016    2    1    2    0    0  0.39090323454E+03  0.40538840716E+03  0.23091455658E+03  0.93089900095E+03  0.70434815120E+03 0.  0.
         23    2    3    3    0    0  0.33537868491E+01 -0.12372505619E+03 -0.64976677384E+02  0.16572987961E+03  0.89024080878E+02 0.  0.
        -15    1    1    2    0    0  0.55110991395E+01  0.32688890796E+03  0.20573780942E+03  0.38628328541E+03  0.00000000000E+00 0.  1.
        -15    1    4    4    0    0 -0.32680029279E+02 -0.90357854885E+02 -0.17976335521E+02  0.97753132389E+02  0.00000000000E+00 0.  1.
         15    1    4    4    0    0  0.36033816128E+02 -0.33367201309E+02 -0.47000341863E+02  0.67976747224E+02  0.00000000000E+00 0. -1.
         15    1    1    2    0    0  0.42783788976E+03  0.25367424729E+03  0.17395621921E+04  0.18092740268E+04  0.00000000000E+00 0. -1.
        -16    1    1    2    0    0 -0.82425222344E+03 -0.98595156241E+03  0.35000062501E+03  0.13319131536E+04  0.00000000000E+00 0.  1.
         16    1    3    3    0    0  0.24401911075E+03  0.23731050926E+03  0.42670866759E+02  0.34304869492E+03  0.00000000000E+00 0. -1.
    9900018    1    3    3    0    0  0.14353033694E+03  0.29180295409E+03  0.25322036720E+03  0.42212042642E+03  0.91187600000E+02 0.  0.
<mgrwt>
<rscale>  0 0.36735943E+04</rscale>
<asrwt>0</asrwt>
<pdfrwt beam="1">  1        2 0.53727574E+00 0.36735943E+04</pdfrwt>
<pdfrwt beam="2">  1       -2 0.14862725E+00 0.36735943E+04</pdfrwt>
<totfact> 0.20438456E-01</totfact>
</mgrwt>
</event>
<event>
11    1  0.2662771E-011  0.1860587E+04  0.7818608E-02  0.8693581E-01
         -1   -1    0    0    0  501 -0.00000000000E+00  0.00000000000E+00  0.20385787657E+04  0.20385787657E+04  0.00000000000E+00 0.  1.
          1   -1    0    0  501    0  0.00000000000E+00 -0.00000000000E+00 -0.15795017894E+04  0.15795017894E+04  0.00000000000E+00 0. -1.
    9900016    2    1    2    0    0  0.17088005523E+03  0.24068691855E+03 -0.33416375069E+03  0.83101021194E+03  0.70127196866E+03 0.  0.
         23    2    3    3    0    0 -0.22716233063E+02 -0.14888104534E+03 -0.42345016064E+02  0.18209807681E+03  0.93193434779E+02 0.  0.
        -15    1    1    2    0    0  0.14180269760E+03  0.92228392081E+03  0.44250729435E+03  0.10327285903E+04  0.00000000000E+00 0.  1.
        -15    1    4    4    0    0 -0.55114779921E+02 -0.78772708141E+02 -0.48926358938E+01  0.96263785504E+02  0.00000000000E+00 0.  1.
         15    1    4    4    0    0  0.32398546858E+02 -0.70108337195E+02 -0.37452380170E+02  0.85834291301E+02  0.00000000000E+00 0. -1.
         15    1    1    2    0    0 -0.77630252270E+02 -0.12224101285E+04 -0.11400009501E+03  0.12301662490E+04  0.00000000000E+00 0. -1.
        -16    1    1    2    0    0 -0.23505250057E+03  0.59439289191E+02  0.46473352766E+03  0.52417550387E+03  0.00000000000E+00 0.  1.
         16    1    3    3    0    0  0.18002216700E+03  0.87111280132E+02 -0.26441820344E+03  0.33153181152E+03  0.00000000000E+00 0. -1.
    9900018    1    3    3    0    0  0.13574121296E+02  0.30245668375E+03 -0.27400531183E+02  0.31738032361E+03  0.91187600000E+02 0.  0.
<mgrwt>
<rscale>  0 0.18241130E+04</rscale>
<asrwt>0</asrwt>
<pdfrwt beam="1">  1        1 0.24300027E+00 0.18605870E+04</pdfrwt>
<pdfrwt beam="2">  1       -1 0.31362750E+00 0.18605870E+04</pdfrwt>
<totfact> 0.14110187E-01</totfact>
</mgrwt>
</event>
<event>
11    1  0.2662771E-011  0.1997975E+04  0.7818608E-02  0.8607568E-01
         -1   -1    0    0    0  501 -0.00000000000E+00  0.00000000000E+00  0.55741697474E+03  0.55741697474E+03  0.00000000000E+00 0.  1.
          1   -1    0    0  501    0  0.00000000000E+00 -0.00000000000E+00 -0.17903590198E+04  0.17903590198E+04  0.00000000000E+00 0. -1.
    9900016    2    1    2    0    0 -0.41454924708E+02  0.19789817777E+03 -0.30164756377E+03  0.78854346626E+03  0.69994810230E+03 0.  0.
         23    2    3    3    0    0 -0.33783255161E+03  0.15233141261E+03 -0.11947889909E+03  0.40005531983E+03  0.91833324011E+02 0.  0.
        -15    1    1    2    0    0  0.62328088805E+02 -0.19797156318E+03  0.12569684269E+03  0.24264629967E+03  0.00000000000E+00 0.  1.
        -15    1    4    4    0    0 -0.14122009931E+03  0.10315058559E+03 -0.25767985276E+02  0.17676863076E+03  0.00000000000E+00 0. -1.
         15    1    1    2    0    0 -0.70522979530E+02 -0.38649245246E+03 -0.47971040483E+03  0.62005804482E+03  0.00000000000E+00 0. -1.
         15    1    4    4    0    0 -0.19661245231E+03  0.49180827029E+02 -0.93710913819E+02  0.22328668908E+03  0.00000000000E+00 0.  1.
        -16    1    3    3    0    0  0.15035780256E+03  0.52403670389E+02 -0.37667064104E+02  0.16362280153E+03  0.00000000000E+00 0.  1.
         16    1    1    2    0    0  0.49649815433E+02  0.38656583787E+03 -0.57728091920E+03  0.69652818382E+03  0.00000000000E+00 0. -1.
    9900018    1    3    3    0    0  0.14601982434E+03 -0.68369052380E+01 -0.14450160057E+03  0.22486534490E+03  0.91187600000E+02 0.  0.
<mgrwt>
<rscale>  0 0.19979755E+04</rscale>
<asrwt>0</asrwt>
<pdfrwt beam="1">  1        1 0.27543985E+00 0.19979755E+04</pdfrwt>
<pdfrwt beam="2">  1       -1 0.85756459E-01 0.19979755E+04</pdfrwt>
<totfact> 0.51529576E+00</totfact>
</mgrwt>
</event>
<event>
11    1  0.2662771E-011  0.1854463E+04  0.7818608E-02  0.8677861E-01
         -1   -1    0    0    0  501 -0.00000000000E+00  0.00000000000E+00  0.13290914483E+04  0.13290914483E+04  0.00000000000E+00 0.  1.
          1   -1    0    0  501    0  0.00000000000E+00 -0.00000000000E+00 -0.64687633987E+03  0.64687633987E+03  0.00000000000E+00 0. -1.
    9900016    2    1    2    0    0  0.64000705830E+02  0.22515190648E+03 -0.43685323463E+02  0.75017748497E+03  0.71138483266E+03 0.  0.
         23    2    3    3    0    0 -0.14271702033E+03  0.24086759512E+03  0.63515232400E+02  0.30064829094E+03  0.89274093814E+02 0.  0.
        -15    1    4    4    0    0 -0.59979553505E+02  0.17759954992E+03  0.58506881371E+02  0.19637261045E+03  0.00000000000E+00 0. -1.
        -15    1    1    2    0    0 -0.11296895850E+03  0.12149593274E+02  0.50162404413E+03  0.51433090501E+03  0.00000000000E+00 0.  1.
         15    1    1    2    0    0 -0.26001507797E+03  0.82747349858E+01  0.55258669955E+01  0.26020539428E+03  0.00000000000E+00 0. -1.
         15    1    4    4    0    0 -0.82737466820E+02  0.63268045205E+02  0.50083510285E+01  0.10427568048E+03  0.00000000000E+00 0.  1.
        -16    1    1    2    0    0  0.30898333063E+03 -0.24557623474E+03  0.21875052074E+03  0.45125400386E+03  0.00000000000E+00 0.  1.
         16    1    3    3    0    0 -0.52697601584E+02  0.42716600160E+01 -0.16027150522E+03  0.16876682043E+03  0.00000000000E+00 0. -1.
    9900018    1    3    3    0    0  0.25941532774E+03 -0.19987348655E+02  0.53070949361E+02  0.28076237361E+03  0.91187600000E+02 0.  0.
<mgrwt>
<rscale>  0 0.18544625E+04</rscale>
<asrwt>0</asrwt>
<pdfrwt beam="1">  1        1 0.99519437E-01 0.18544625E+04</pdfrwt>
<pdfrwt beam="2">  1       -1 0.20447561E+00 0.18544625E+04</pdfrwt>
<totfact> 0.40388398E+00</totfact>
</mgrwt>
</event>
<event>
11    1  0.2662771E-011  0.2803959E+04  0.7818608E-02  0.8302040E-01
          1   -1    0    0  501    0  0.00000000000E+00  0.00000000000E+00  0.92449874439E+03  0.92449874439E+03  0.00000000000E+00 0. -1.
         -1   -1    0    0    0  501 -0.00000000000E+00 -0.00000000000E+00 -0.21260677281E+04  0.21260677281E+04  0.00000000000E+00 0.  1.
    9900016    2    1    2    0    0  0.14466993128E+02  0.15563976318E+03 -0.31431395774E+03  0.79810698490E+03  0.71676248893E+03 0.  0.
         23    2    3    3    0    0  0.23719394992E+03 -0.73779850570E+02 -0.18823522436E+02  0.26599134749E+03  0.93234305442E+02 0.  0.
        -15    1    4    4    0    0  0.35552361676E+02 -0.27237194242E+02  0.29308847386E+02  0.53524234754E+02  0.00000000000E+00 0. -1.
        -15    1    1    2    0    0  0.82696540511E+03 -0.20704697799E+02 -0.10047504783E+04  0.13014699341E+04  0.00000000000E+00 0.  1.
         15    1    4    4    0    0  0.20164158825E+03 -0.46542656328E+02 -0.48132369822E+02  0.21246711273E+03  0.00000000000E+00 0.  1.
         15    1    1    2    0    0 -0.12600427099E+03  0.10938350068E+03 -0.54766553044E+02  0.17561663321E+03  0.00000000000E+00 0. -1.
        -16    1    3    3    0    0 -0.44152519376E+02  0.57199868770E+02 -0.25459850647E+03  0.26465386725E+03  0.00000000000E+00 0.  1.
         16    1    1    2    0    0 -0.71542812725E+03 -0.24431856606E+03  0.17226200538E+03  0.77537292026E+03  0.00000000000E+00 0. -1.
    9900018    1    3    3    0    0 -0.17857443742E+03  0.17221974498E+03 -0.40891928840E+02  0.26746177016E+03  0.91187600000E+02 0.  0.
<mgrwt>
<rscale>  0 0.28039593E+04</rscale>
<asrwt>0</asrwt>
<pdfrwt beam="1">  1        1 0.14223058E+00 0.28039593E+04</pdfrwt>
<pdfrwt beam="2">  1       -1 0.32708734E+00 0.28039593E+04</pdfrwt>
<totfact> 0.33080067E-01</totfact>
</mgrwt>
</event>
<event>
11    1  0.2662771E-011  0.3137832E+04  0.7818608E-02  0.8205431E-01
          1   -1    0    0  501    0  0.00000000000E+00  0.00000000000E+00  0.36064639862E+04  0.36064639862E+04  0.00000000000E+00 0. -1.
         -1   -1    0    0    0  501 -0.00000000000E+00 -0.00000000000E+00 -0.68252396967E+03  0.68252396967E+03  0.00000000000E+00 0.  1.
    9900016    2    1    2    0    0 -0.40310464842E+03 -0.17929787446E+03  0.16920971840E+04  0.18912735737E+04  0.72047329252E+03 0.  0.
         23    2    3    3    0    0  0.42359641774E+02  0.10929166142E+03  0.48264214728E+03  0.50487359775E+03  0.90636090304E+02 0.  0.
        -15    1    1    2    0    0 -0.19881180917E+03  0.85965119394E+03  0.71766148466E+03  0.11373496900E+04  0.00000000000E+00 0.  1.
        -15    1    4    4    0    0  0.45123608620E+02  0.99504780155E+02  0.48248672713E+03  0.49470272203E+03  0.00000000000E+00 0.  1.
         15    1    4    4    0    0 -0.27639668465E+01  0.97868812630E+01  0.15542015821E+00  0.10170875725E+02  0.00000000000E+00 0. -1.
         15    1    1    2    0    0  0.31850056694E+03  0.88661003304E+02  0.13069749260E+03  0.35550698899E+03  0.00000000000E+00 0. -1.
        -16    1    3    3    0    0 -0.38927073248E+03 -0.79174527925E+02  0.98152887968E+03  0.10588669655E+04  0.00000000000E+00 0.  1.
         16    1    1    2    0    0  0.28341589064E+03 -0.76901432278E+03  0.38348385522E+03  0.90485770314E+03  0.00000000000E+00 0. -1.
    9900018    1    3    3    0    0 -0.56193557714E+02 -0.20941500795E+03  0.22792615705E+03  0.32753301047E+03  0.91187600000E+02 0.  0.
<mgrwt>
<rscale>  0 0.31378324E+04</rscale>
<asrwt>0</asrwt>
<pdfrwt beam="1">  1        1 0.55484060E+00 0.31378324E+04</pdfrwt>
<pdfrwt beam="2">  1       -1 0.10500369E+00 0.31378324E+04</pdfrwt>
<totfact> 0.14699391E-01</totfact>
</mgrwt>
</event>
<event>
11    1  0.2662771E-011  0.2680315E+04  0.7818608E-02  0.8574247E-01
         -2   -1    0    0    0  501 -0.00000000000E+00  0.00000000000E+00  0.28307240820E+04  0.28307240820E+04  0.00000000000E+00 0.  1.
          2   -1    0    0  501    0  0.00000000000E+00 -0.00000000000E+00 -0.12281454648E+04  0.12281454648E+04  0.00000000000E+00 0. -1.
    9900016    2    1    2    0    0 -0.15253037532E+03  0.34753250270E+03  0.67081018096E+02  0.81134542596E+03  0.71395880932E+03 0.  0.
         23    2    3    3    0    0  0.17744278107E+03  0.83579717363E+02  0.18403619964E+03  0.28419981431E+03  0.91807962448E+02 0.  0.
        -15    1    4    4    0    0  0.17820763580E+03  0.65151827063E+02  0.13804102982E+03  0.23464451398E+03  0.00000000000E+00 0.  1.
        -15    1    1    2    0    0 -0.13002622364E+03  0.55703505482E+02 -0.28462158811E+02  0.14429065750E+03  0.00000000000E+00 0.  1.
         15    1    4    4    0    0 -0.76485473848E+00  0.18427890301E+02  0.45995169819E+02  0.49555300326E+02  0.00000000000E+00 0. -1.
         15    1    1    2    0    0  0.12177764533E+04 -0.19097798972E+03 -0.41272185392E+02  0.12333513190E+04  0.00000000000E+00 0. -1.
        -16    1    1    2    0    0 -0.93521985431E+03 -0.21225801846E+03  0.16052319433E+04  0.18698821444E+04  0.00000000000E+00 0.  1.
         16    1    3    3    0    0 -0.23355685686E+03  0.20441210099E+03 -0.19048185022E+03  0.36416541252E+03  0.00000000000E+00 0. -1.
    9900018    1    3    3    0    0 -0.96416299526E+02  0.59540684344E+02  0.73526668681E+02  0.16298019913E+03  0.91187600000E+02 0.  0.
<mgrwt>
<rscale>  0 0.20707314E+04</rscale>
<asrwt>0</asrwt>
<pdfrwt beam="1">  1        2 0.18894546E+00 0.26803149E+04</pdfrwt>
<pdfrwt beam="2">  1       -2 0.43549601E+00 0.26803149E+04</pdfrwt>
<totfact> 0.67267203E-02</totfact>
</mgrwt>
</event>
