<event>
13    1  0.1087751E-012  0.4862262E+04  0.7818608E-02  0.7850113E-01
         -2   -1    0    0    0  501 -0.00000000000E+00  0.00000000000E+00  0.28800545430E+04  0.28800545430E+04  0.00000000000E+00 0.  1.
          2   -1    0    0  501    0  0.00000000000E+00 -0.00000000000E+00 -0.20521824373E+04  0.20521824373E+04  0.00000000000E+00 0. -1.
    9900016    2    1    2    0    0 -0.10285164391E+04 -0.67883730033E+03  0.13621420049E+04  0.26029819347E+04  0.18442933512E+04 0.  0.
        -24    2    3    3    0    0 -0.11352062621E+04 -0.33603812447E+03 -0.70592756627E+01  0.11874939835E+04  0.92071976997E+02 0.  0.
    9900016    2    1    2    0    0  0.98308907410E+03  0.67318908628E+03 -0.54231305360E+03  0.22269055535E+04  0.18014875028E+04 0.  0.
         23    2    5    5    0    0 -0.10635299466E+03 -0.49290765834E+03  0.63137255232E+02  0.52008520107E+03  0.11060463035E+03 0.  0.
        -15    1    6    6    0    0  0.56950146943E+01 -0.52181863945E+02 -0.22903736758E+02  0.57270946165E+02  0.00000000000E+00 0.  1.
        -15    1    3    3    0    0  0.10668982301E+03 -0.34279917586E+03  0.13692012805E+04  0.14154879512E+04  0.00000000000E+00 0.  1.
         15    1    4    4    0    0 -0.23142570580E+03 -0.89616570859E+02 -0.33041205800E+02  0.25036115585E+03  0.00000000000E+00 0. -1.
         15    1    6    6    0    0 -0.11204800935E+03 -0.44072579439E+03  0.86040991990E+02  0.46281425491E+03  0.00000000000E+00 0. -1.
        -16    1    4    4    0    0 -0.90378055629E+03 -0.24642155361E+03  0.25981930138E+02  0.93713282768E+03  0.00000000000E+00 0.  1.
         16    1    5    5    0    0  0.10894420688E+04  0.11660967446E+04 -0.60545030883E+03  0.17068203524E+04  0.00000000000E+00 0. -1.
    9900018    1    1    2    0    0  0.45427364980E+02  0.56482140487E+01  0.80431543945E+01  0.10234949212E+03  0.91187600000E+02 0.  0.
<mgrwt>
<rscale>  0 0.48622618E+04</rscale>
<asrwt>0</asrwt>
<pdfrwt beam="1">  1        2 0.31572037E+00 0.48622618E+04</pdfrwt>
<pdfrwt beam="2">  1       -2 0.44308532E+00 0.48622618E+04</pdfrwt>
<totfact> 0.17771732E-02</totfact>
</mgrwt>
</event>
<event>
13    1  0.1087751E-012  0.5125487E+04  0.7818608E-02  0.7809436E-01
         -3   -1    0    0    0  501 -0.00000000000E+00  0.00000000000E+00  0.24450229219E+04  0.24450229219E+04  0.00000000000E+00 0.  1.
          3   -1    0    0  501    0  0.00000000000E+00 -0.00000000000E+00 -0.26861323224E+04  0.26861323224E+04  0.00000000000E+00 0. -1.
    9900016    2    1    2    0    0 -0.88167153110E+03 -0.15052937981E+04  0.34439489769E+02  0.25386983588E+04  0.18440578004E+04 0.  0.
        -24    2    3    3    0    0  0.37415663944E+03 -0.11678684880E+04 -0.96425909246E+02  0.12317607220E+04  0.63454899488E+02 0.  0.
    9900016    2    1    2    0    0  0.79932449524E+03  0.14372626162E+04 -0.28252454121E+03  0.24518399799E+04  0.17964007610E+04 0.  0.
         23    2    5    5    0    0 -0.23379870785E+03 -0.30003111055E+03  0.62038979652E+02  0.40141147209E+03  0.11225788098E+03 0.  0.
        -15    1    6    6    0    0 -0.12303146722E+02 -0.84367973613E+02  0.30961370869E+02  0.90707931720E+02  0.00000000000E+00 0.  1.
        -15    1    3    3    0    0 -0.12558281705E+04 -0.33742531010E+03  0.13086539902E+03  0.13069376368E+04  0.00000000000E+00 0.  1.
         15    1    6    6    0    0 -0.22149556113E+03 -0.21566313694E+03  0.31077608784E+02  0.31070354037E+03  0.00000000000E+00 0. -1.
         15    1    4    4    0    0  0.10929805943E+03 -0.43362815988E+03 -0.23417012130E+02  0.44780330871E+03  0.00000000000E+00 0. -1.
        -16    1    4    4    0    0  0.26485858002E+03 -0.73424032812E+03 -0.73008897116E+02  0.78395741332E+03  0.00000000000E+00 0.  1.
         16    1    5    5    0    0  0.10331232031E+04  0.17372937268E+04 -0.34456352086E+03  0.20504285079E+04  0.00000000000E+00 0. -1.
    9900018    1    1    2    0    0  0.82347035853E+02  0.68031181866E+02  0.69756509207E+01  0.14061690553E+03  0.91187600000E+02 0.  0.
<mgrwt>
<rscale>  0 0.51254873E+04</rscale>
<asrwt>0</asrwt>
<pdfrwt beam="1">  1        3 0.41325112E+00 0.51254873E+04</pdfrwt>
<pdfrwt beam="2">  1       -3 0.37615737E+00 0.51254873E+04</pdfrwt>
<totfact> 0.25052485E-04</totfact>
</mgrwt>
</event>
<event>
12    1  0.1087751E-012  0.5032831E+04  0.7818608E-02  0.7823463E-01
         -2   -1    0    0    0  501 -0.00000000000E+00  0.00000000000E+00  0.16718252045E+04  0.16718252045E+04  0.00000000000E+00 0.  1.
          2   -1    0    0  501    0  0.00000000000E+00 -0.00000000000E+00 -0.37876852624E+04  0.37876852624E+04  0.00000000000E+00 0. -1.
    9900016    2    1    2    0    0  0.24969701052E+03 -0.90505618262E+02  0.74745997058E+03  0.20124667391E+04  0.18495367270E+04 0.  0.
        -24    2    3    3    0    0  0.97194082237E+03 -0.61503038131E+02  0.83141972352E+03  0.12847810147E+04  0.10465138895E+03 0.  0.
    9900016    2    1    2    0    0 -0.25994259527E+03  0.10579403756E+03 -0.26948026986E+04  0.32545548277E+04  0.18031647209E+04 0.  0.
        -15    1    5    5    0    0 -0.26945031440E+03 -0.65410541947E+02  0.11823065328E+03  0.30143075209E+03  0.00000000000E+00 0. -1.
        -15    1    3    3    0    0 -0.72224381185E+03 -0.29002580131E+02 -0.83959752944E+02  0.72768572442E+03  0.00000000000E+00 0.  1.
         15    1    5    5    0    0 -0.82031500214E+02 -0.11032092975E+03 -0.13673785811E+02  0.13815515549E+03  0.00000000000E+00 0.  1.
         15    1    4    4    0    0  0.53264897783E+03  0.15099156078E+02  0.42826116387E+03  0.68363041373E+03  0.00000000000E+00 0. -1.
        -16    1    4    4    0    0  0.43929184453E+03 -0.76602194209E+02  0.40315855966E+03  0.60115060098E+03  0.00000000000E+00 0.  1.
         16    1    5    5    0    0  0.91539219350E+02  0.28152550926E+03 -0.27993595661E+04  0.28149689201E+04  0.00000000000E+00 0. -1.
    9900018    1    1    2    0    0  0.10245584748E+02 -0.15288419298E+02 -0.16851732990E+03  0.19248890005E+03  0.91187600000E+02 0.  0.
<mgrwt>
<rscale>  0 0.50328313E+04</rscale>
<asrwt>0</asrwt>
<pdfrwt beam="1">  1        2 0.58272080E+00 0.50328313E+04</pdfrwt>
<pdfrwt beam="2">  1       -2 0.25720388E+00 0.50328313E+04</pdfrwt>
<totfact> 0.21076831E-02</totfact>
</mgrwt>
</event>
<event>
13    1  0.1087751E-012  0.5857217E+04  0.7818608E-02  0.7708362E-01
         -2   -1    0    0    0  501 -0.00000000000E+00  0.00000000000E+00  0.19572529098E+04  0.19572529098E+04  0.00000000000E+00 0.  1.
          2   -1    0    0  501    0  0.00000000000E+00 -0.00000000000E+00 -0.43820337215E+04  0.43820337215E+04  0.00000000000E+00 0. -1.
    9900016    2    1    2    0    0 -0.16470541918E+04 -0.14229741122E+04 -0.59487968119E+03  0.29169202143E+04  0.18484855604E+04 0.  0.
        -24    2    3    3    0    0  0.17039928249E+03  0.56546646257E+02 -0.53563617356E+03  0.57264450551E+03  0.93713289273E+02 0.  0.
    9900016    2    1    2    0    0  0.15040154323E+04  0.12712996992E+04 -0.16821262577E+04  0.31510404034E+04  0.17947817502E+04 0.  0.
         23    2    5    5    0    0 -0.35730430675E+03  0.22678881144E+03 -0.42539863765E+01  0.43612428592E+03  0.10529370235E+03 0.  0.
        -15    1    6    6    0    0 -0.24120549699E+03  0.12009828040E+03 -0.45206494290E+02  0.27321660978E+03  0.00000000000E+00 0.  1.
        -15    1    3    3    0    0 -0.18174534743E+04 -0.14795207584E+04 -0.59243507625E+02  0.23442757088E+04  0.00000000000E+00 0.  1.
         15    1    4    4    0    0  0.61381458461E+02 -0.24370650221E+02 -0.19849778662E+03  0.20919604042E+03  0.00000000000E+00 0. -1.
         15    1    6    6    0    0 -0.11609880976E+03  0.10669053105E+03  0.40952507914E+02  0.16290767614E+03  0.00000000000E+00 0. -1.
        -16    1    4    4    0    0  0.10901782403E+03  0.80917296478E+02 -0.33713838695E+03  0.36344846509E+03  0.00000000000E+00 0.  1.
         16    1    5    5    0    0  0.18613197391E+04  0.10445108878E+04 -0.16778722713E+04  0.27149161174E+04  0.00000000000E+00 0. -1.
    9900018    1    1    2    0    0  0.14303875945E+03  0.15167441294E+03 -0.14777487275E+03  0.27132601360E+03  0.91187600000E+02 0.  0.
<mgrwt>
<rscale>  0 0.58572172E+04</rscale>
<asrwt>0</asrwt>
<pdfrwt beam="1">  1        2 0.67415903E+00 0.58572172E+04</pdfrwt>
<pdfrwt beam="2">  1       -2 0.30111583E+00 0.58572172E+04</pdfrwt>
<totfact> 0.33638093E-03</totfact>
</mgrwt>
</event>
