<event>
11    1  0.8391355E-012  0.1543514E+04  0.7818608E-02  0.9308035E-01
          1   -1    0    0  501    0  0.00000000000E+00  0.00000000000E+00  0.12679350252E+04  0.12679350252E+04  0.00000000000E+00 0. -1.
         -1   -1    0    0    0  501 -0.00000000000E+00 -0.00000000000E+00 -0.70287541018E+03  0.70287541018E+03  0.00000000000E+00 0.  1.
         23    2    1    2    0    0  0.23466468200E+03  0.85092589569E+02  0.29904583886E+03  0.40454138169E+03  0.10916525995E+03 0.  0.
    9900016    2    1    2    0    0 -0.49407284084E+03  0.20600583950E+03  0.58376501579E+03  0.10632812421E+04  0.70939342272E+03 0.  0.
        -15    1    4    4    0    0  0.12157642502E+02 -0.20901235836E+02  0.25103127941E+02  0.34854511373E+02  0.00000000000E+00 0.  1.
        -15    1    3    3    0    0  0.18563607307E+03  0.38162159569E+02  0.15326464365E+03  0.24373582634E+03  0.00000000000E+00 0. -1.
         15    1    3    3    0    0  0.49028608931E+02  0.46930430000E+02  0.14578119521E+03  0.16080555535E+03  0.00000000000E+00 0.  1.
         15    1    4    4    0    0 -0.19427411219E+02 -0.11934033547E+03  0.27542692186E+03  0.30079815369E+03  0.00000000000E+00 0. -1.
        -16    1    1    2    0    0  0.25940815884E+03 -0.29109842907E+03 -0.31775123965E+03  0.50298781156E+03  0.00000000000E+00 0.  1.
         16    1    4    4    0    0 -0.96001889456E+02  0.13590663868E+03  0.21117246943E+03  0.26885086770E+03  0.00000000000E+00 0. -1.
    9900018    1    4    4    0    0 -0.39080118267E+03  0.21034077213E+03  0.72062496553E+02  0.45877770935E+03  0.91187600000E+02 0.  0.
<mgrwt>
<rscale>  0 0.10004651E+04</rscale>
<asrwt>0</asrwt>
<pdfrwt beam="1">  1        1 0.19506693E+00 0.15435140E+04</pdfrwt>
<pdfrwt beam="2">  1       -1 0.10813468E+00 0.15435140E+04</pdfrwt>
<totfact> 0.72546437E+00</totfact>
</mgrwt>
</event>
<event>
11    1  0.8391355E-012  0.1227354E+04  0.7818608E-02  0.9606734E-01
          2   -1    0    0  501    0  0.00000000000E+00  0.00000000000E+00  0.15853642686E+04  0.15853642686E+04  0.00000000000E+00 0. -1.
         -2   -1    0    0    0  501 -0.00000000000E+00 -0.00000000000E+00 -0.38211097429E+03  0.38211097429E+03  0.00000000000E+00 0.  1.
    9900016    2    1    2    0    0 -0.90206976951E+02 -0.35352571124E+03  0.69272785452E+03  0.10632014172E+04  0.71931053507E+03 0.  0.
         23    2    3    3    0    0 -0.22260847846E+03 -0.38601948633E+02  0.45323332098E+02  0.25858448951E+03  0.11733323767E+03 0.  0.
        -15    1    4    4    0    0 -0.93094034332E+02  0.40248619242E+02  0.32095770039E+02  0.10637945776E+03  0.00000000000E+00 0. -1.
        -15    1    1    2    0    0 -0.11898155301E+03  0.57180488336E+02 -0.37277261455E+02  0.13717074187E+03  0.00000000000E+00 0.  1.
         15    1    1    2    0    0 -0.55234016751E+02 -0.50129703750E+01 -0.30596228739E+02  0.63340790108E+02  0.00000000000E+00 0. -1.
         15    1    4    4    0    0 -0.12951444413E+03 -0.78850567875E+02  0.13227562059E+02  0.15220503175E+03  0.00000000000E+00 0.  1.
        -16    1    3    3    0    0 -0.85223880496E+01 -0.30170387196E+03  0.34412240270E+03  0.45773145565E+03  0.00000000000E+00 0.  1.
         16    1    1    2    0    0  0.26442254672E+03  0.30135819328E+03  0.57839893003E+03  0.70376229376E+03  0.00000000000E+00 0. -1.
    9900018    1    3    3    0    0  0.14092388956E+03 -0.13219890650E+02  0.30328211972E+03  0.34688547201E+03  0.91187600000E+02 0.  0.
<mgrwt>
<rscale>  0 0.76852082E+03</rscale>
<asrwt>0</asrwt>
<pdfrwt beam="1">  1        2 0.24390219E+00 0.12273538E+04</pdfrwt>
<pdfrwt beam="2">  1       -2 0.58786305E-01 0.12273538E+04</pdfrwt>
<totfact> 0.30171449E+01</totfact>
</mgrwt>
</event>
<event>
12    1  0.8391355E-012  0.1904661E+04  0.7818608E-02  0.9374612E-01
          2   -1    0    0  501    0  0.00000000000E+00  0.00000000000E+00  0.81945926297E+03  0.81945926297E+03  0.00000000000E+00 0. -1.
         -2   -1    0    0    0  501 -0.00000000000E+00 -0.00000000000E+00 -0.12519312086E+04  0.12519312086E+04  0.00000000000E+00 0.  1.
         23    2    1    2    0    0  0.71558054631E+01 -0.12456800007E+02 -0.66392726963E+02  0.13186748769E+03  0.11302505341E+03 0.  0.
    9900016    2    1    2    0    0 -0.70294183440E+03 -0.42259538724E+03 -0.19759999207E+03  0.11018035478E+04  0.70866862306E+03 0.  0.
         23    2    4    4    0    0 -0.79809788130E+02 -0.18683060520E+03  0.10724545600E+03  0.25459000119E+03  0.10972330452E+03 0.  0.
        -15    1    3    3    0    0 -0.27240591975E+02 -0.37799904349E+01 -0.86724112494E+02  0.90980271855E+02  0.00000000000E+00 0. -1.
        -15    1    5    5    0    0  0.51093782994E+01 -0.23924268152E+02  0.60155676107E+02  0.64939831545E+02  0.00000000000E+00 0. -1.
         15    1    3    3    0    0  0.34396397438E+02 -0.86768095718E+01  0.20331385531E+02  0.40887215834E+02  0.00000000000E+00 0.  1.
         15    1    5    5    0    0 -0.84919166430E+02 -0.16290633705E+03  0.47089779889E+02  0.18965016965E+03  0.00000000000E+00 0.  1.
        -16    1    4    4    0    0 -0.11958201163E+02  0.80499794410E+02 -0.88227501971E+02  0.12003044438E+03  0.00000000000E+00 0.  1.
         16    1    1    2    0    0  0.69578602894E+03  0.43505218724E+03 -0.16847922657E+03  0.83771943601E+03  0.00000000000E+00 0. -1.
    9900018    1    4    4    0    0 -0.61117384511E+03 -0.31626457645E+03 -0.21661794610E+03  0.72718310227E+03  0.91187600000E+02 0.  0.
<mgrwt>
<rscale>  0 0.94194824E+03</rscale>
<asrwt>0</asrwt>
<pdfrwt beam="1">  1        2 0.12607066E+00 0.19046615E+04</pdfrwt>
<pdfrwt beam="2">  1       -2 0.19260480E+00 0.19046615E+04</pdfrwt>
<totfact> 0.46294209E+00</totfact>
</mgrwt>
</event>
<event>
11    1  0.8391355E-012  0.1375062E+04  0.7818608E-02  0.8972070E-01
         -1   -1    0    0    0  501 -0.00000000000E+00  0.00000000000E+00  0.26601090750E+03  0.26601090750E+03  0.00000000000E+00 0.  1.
          1   -1    0    0  501    0  0.00000000000E+00 -0.00000000000E+00 -0.17769907744E+04  0.17769907744E+04  0.00000000000E+00 0. -1.
         23    2    1    2    0    0 -0.25324914367E+03  0.19680648401E+03 -0.29950518636E+03  0.44349452700E+03  0.64156978620E+02 0.  0.
    9900016    2    1    2    0    0  0.83819182903E+02 -0.37382715026E+03 -0.92029603212E+03  0.12189446329E+04  0.70150469533E+03 0.  0.
        -15    1    3    3    0    0 -0.51576367710E+02  0.12545277077E+02 -0.60917486217E+02  0.80798798320E+02  0.00000000000E+00 0.  1.
        -15    1    4    4    0    0  0.11040081130E+03 -0.56202666044E+02 -0.74524249013E+02  0.14457158261E+03  0.00000000000E+00 0.  1.
         15    1    3    3    0    0 -0.20167277596E+03  0.18426120693E+03 -0.23858770014E+03  0.36269572868E+03  0.00000000000E+00 0. -1.
         15    1    4    4    0    0  0.97515245975E+02 -0.33318202627E+02 -0.48856680016E+03  0.49931637670E+03  0.00000000000E+00 0. -1.
        -16    1    1    2    0    0  0.16942996077E+03  0.17702066625E+03 -0.29117864846E+03  0.38056252207E+03  0.00000000000E+00 0.  1.
         16    1    4    4    0    0 -0.19112325222E+03 -0.15273546955E+03 -0.31055567084E+03  0.39534927076E+03  0.00000000000E+00 0. -1.
    9900018    1    4    4    0    0  0.67026377842E+02 -0.13157081204E+03 -0.46649312103E+02  0.17970740280E+03  0.91187600000E+02 0.  0.
<mgrwt>
<rscale>  0 0.13750621E+04</rscale>
<asrwt>0</asrwt>
<pdfrwt beam="1">  1        1 0.27338319E+00 0.13750621E+04</pdfrwt>
<pdfrwt beam="2">  1       -1 0.40924755E-01 0.13750621E+04</pdfrwt>
<totfact> 0.24106465E+01</totfact>
</mgrwt>
</event>
