<event>
11    1  0.2935898E-015  0.2830779E+04  0.7818608E-02  0.8293776E-01
          2   -1    0    0  501    0  0.00000000000E+00  0.00000000000E+00  0.16633867280E+04  0.16633867280E+04  0.00000000000E+00 0.  1.
         -2   -1    0    0    0  501 -0.00000000000E+00 -0.00000000000E+00 -0.12043662083E+04  0.12043662083E+04  0.00000000000E+00 0. -1.
    9900016    2    1    2    0    0  0.14547280721E+03  0.52418399279E+03 -0.42201397951E+02  0.20643860736E+04  0.19909740598E+04 0.  0.
        -24    2    3    3    0    0 -0.10116206084E+03 -0.25652566184E+03 -0.86035157392E+03  0.90692936446E+03  0.79226659924E+02 0.  0.
        -15    1    3    3    0    0  0.24663486806E+03  0.78070965463E+03  0.81815017597E+03  0.11574567091E+04  0.00000000000E+00 0.  1.
        -15    1    4    4    0    0 -0.32277683714E+02 -0.10820016580E+03 -0.36271923064E+03  0.37988730569E+03  0.00000000000E+00 0. -1.
         15    1    4    4    0    0 -0.23919804736E+01 -0.17646296066E+02 -0.88630281164E+02  0.90401549072E+02  0.00000000000E+00 0.  1.
         15    1    4    4    0    0 -0.42787492337E+02 -0.48148092499E+02 -0.21597841131E+03  0.22537897521E+03  0.00000000000E+00 0. -1.
        -16    1    4    4    0    0 -0.23704904320E+02 -0.82531107472E+02 -0.19302365081E+03  0.21126153450E+03  0.00000000000E+00 0.  1.
         16    1    1    2    0    0 -0.16156636466E+03 -0.50181190195E+03  0.38341277866E+03  0.65186212804E+03  0.00000000000E+00 0. -1.
    9900018    1    1    2    0    0  0.16093557448E+02 -0.22372090841E+02  0.11780913894E+03  0.15150473475E+03  0.91187600000E+02 0.  0.
<mgrwt>
<rscale>  0 0.28307785E+04</rscale>
<asrwt>0</asrwt>
<pdfrwt beam="1">  1        2 0.25590565E+00 0.28307785E+04</pdfrwt>
<pdfrwt beam="2">  1       -2 0.18528711E+00 0.28307785E+04</pdfrwt>
<totfact> 0.14883067E+00</totfact>
</mgrwt>
</event>
<event>
11    1  0.2935898E-015  0.4310582E+04  0.7818608E-02  0.7944664E-01
         -2   -1    0    0    0  501 -0.00000000000E+00  0.00000000000E+00  0.17642608926E+04  0.17642608926E+04  0.00000000000E+00 0.  1.
          2   -1    0    0  501    0  0.00000000000E+00 -0.00000000000E+00 -0.26329888132E+04  0.26329888132E+04  0.00000000000E+00 0. -1.
    9900016    2    1    2    0    0  0.86356554671E+02 -0.43677188562E+02  0.34281808109E+03  0.20481309260E+04  0.20169161861E+04 0.  0.
        -24    2    3    3    0    0  0.28287113505E+03 -0.31841918856E+03 -0.77051082244E+03  0.88468673121E+03  0.87044966545E+02 0.  0.
        -15    1    3    3    0    0 -0.19651458038E+03  0.27474200000E+03  0.11133289035E+04  0.11634441948E+04  0.00000000000E+00 0.  1.
        -15    1    4    4    0    0  0.32717019443E+02 -0.34842053317E+02 -0.64412555938E+02  0.80208162945E+02  0.00000000000E+00 0.  1.
         15    1    4    4    0    0  0.60694356718E+01 -0.15793598194E+02 -0.36428932309E+02  0.40166440002E+02  0.00000000000E+00 0. -1.
         15    1    4    4    0    0  0.12115347253E+03 -0.93096042785E+02 -0.31907145879E+03  0.35376776690E+03  0.00000000000E+00 0. -1.
        -16    1    4    4    0    0  0.12293120740E+03 -0.17468749427E+03 -0.35059787541E+03  0.41054436136E+03  0.00000000000E+00 0.  1.
         16    1    1    2    0    0 -0.93318571368E+03  0.36484287135E+03 -0.99788434610E+03  0.14141142334E+04  0.00000000000E+00 0. -1.
    9900018    1    1    2    0    0  0.84682915901E+03 -0.32116568278E+03 -0.21366165564E+03  0.93500454642E+03  0.91187600000E+02 0.  0.
<mgrwt>
<rscale>  0 0.43105820E+04</rscale>
<asrwt>0</asrwt>
<pdfrwt beam="1">  1        2 0.40507520E+00 0.43105820E+04</pdfrwt>
<pdfrwt beam="2">  1       -2 0.27142475E+00 0.43105820E+04</pdfrwt>
<totfact> 0.10635463E-01</totfact>
</mgrwt>
</event>
<event>
11    1  0.2935898E-015  0.3658759E+04  0.7818608E-02  0.8077163E-01
          1   -1    0    0  501    0  0.00000000000E+00  0.00000000000E+00  0.17565676190E+04  0.17565676190E+04  0.00000000000E+00 0. -1.
         -1   -1    0    0    0  501 -0.00000000000E+00 -0.00000000000E+00 -0.19052092083E+04  0.19052092083E+04  0.00000000000E+00 0.  1.
    9900016    2    1    2    0    0 -0.25308273972E+03  0.38568004986E+03 -0.46005306365E+03  0.21137343936E+04  0.20108267681E+04 0.  0.
        -24    2    3    3    0    0 -0.15653983308E+03 -0.51499296934E+02  0.77695849623E+03  0.79819499340E+03  0.79333761416E+02 0.  0.
        -15    1    4    4    0    0  0.86555596624E+00 -0.14977658944E+02  0.66031681884E+02  0.67714566136E+02  0.00000000000E+00 0.  1.
        -15    1    3    3    0    0 -0.96542906643E+02  0.43717934679E+03 -0.12370115599E+04  0.13155394002E+04  0.00000000000E+00 0.  1.
         15    1    4    4    0    0 -0.23573884558E+02  0.40603608852E+01  0.72442844872E+02  0.76290106415E+02  0.00000000000E+00 0. -1.
         15    1    4    4    0    0 -0.64142812088E+02 -0.33299838665E+02  0.33915554889E+03  0.34677033602E+03  0.00000000000E+00 0. -1.
        -16    1    4    4    0    0 -0.69688692395E+02 -0.72821602091E+01  0.29932842058E+03  0.30741998483E+03  0.00000000000E+00 0.  1.
         16    1    1    2    0    0 -0.19192624250E+03 -0.77768279095E+03  0.46829286765E+03  0.92786012728E+03  0.00000000000E+00 0. -1.
    9900018    1    1    2    0    0  0.44500898222E+03  0.39200274110E+03 -0.15688139337E+03  0.62018230647E+03  0.91187600000E+02 0.  0.
<mgrwt>
<rscale>  0 0.36587587E+04</rscale>
<asrwt>0</asrwt>
<pdfrwt beam="1">  1        1 0.27024117E+00 0.36587587E+04</pdfrwt>
<pdfrwt beam="2">  1       -1 0.29310911E+00 0.36587587E+04</pdfrwt>
<totfact> 0.12850225E-01</totfact>
</mgrwt>
</event>
<event>
12    1  0.2935898E-015  0.3970255E+04  0.7818608E-02  0.8010574E-01
         -1   -1    0    0    0  501 -0.00000000000E+00  0.00000000000E+00  0.22883731768E+04  0.22883731768E+04  0.00000000000E+00 0.  1.
          1   -1    0    0  501    0  0.00000000000E+00 -0.00000000000E+00 -0.17220667557E+04  0.17220667557E+04  0.00000000000E+00 0. -1.
    9900016    2    1    2    0    0  0.49810891548E+02  0.92021457482E+02 -0.41224975528E+03  0.20517133825E+04  0.20071444566E+04 0.  0.
         24    2    3    3    0    0 -0.10632358267E+03  0.36452829658E+03 -0.11693911114E+04  0.12320177167E+04  0.78781340104E+02 0.  0.
         24    2    4    4    0    0 -0.52403599349E+02  0.23133813855E+03 -0.73366488460E+03  0.77266363509E+03  0.49814240229E+02 0.  0.
        -15    1    5    5    0    0  0.69789913209E+01  0.50936742296E+02 -0.12879299551E+03  0.13867549793E+03  0.00000000000E+00 0.  1.
        -15    1    4    4    0    0 -0.50428500682E+02  0.11961871782E+03 -0.36888983994E+03  0.39106442608E+03  0.00000000000E+00 0.  1.
         15    1    3    3    0    0  0.15613447422E+03 -0.27250683910E+03  0.75714135612E+03  0.81969566580E+03  0.00000000000E+00 0. -1.
         15    1    4    4    0    0 -0.34914826392E+01  0.13571440206E+02 -0.66836386853E+02  0.68289655496E+02  0.00000000000E+00 0. -1.
        -16    1    1    2    0    0  0.51164334124E+03  0.48159317471E+03  0.90758651091E+03  0.11477909955E+04  0.00000000000E+00 0.  1.
         16    1    5    5    0    0 -0.59382590670E+02  0.18040139625E+03 -0.60487188909E+03  0.63398813716E+03  0.00000000000E+00 0. -1.
    9900018    1    1    2    0    0 -0.56145423279E+03 -0.57361463220E+03  0.70969665384E+02  0.81093555452E+03  0.91187600000E+02 0.  0.
<mgrwt>
<rscale>  0 0.39702551E+04</rscale>
<asrwt>0</asrwt>
<pdfrwt beam="1">  1        1 0.26493335E+00 0.39702551E+04</pdfrwt>
<pdfrwt beam="2">  1       -1 0.35205741E+00 0.39702551E+04</pdfrwt>
<totfact> 0.54359907E-02</totfact>
</mgrwt>
</event>
<event>
11    1  0.2935898E-015  0.3162016E+04  0.7818608E-02  0.8198921E-01
          1   -1    0    0  501    0  0.00000000000E+00  0.00000000000E+00  0.17226299939E+04  0.17226299939E+04  0.00000000000E+00 0.  1.
         -1   -1    0    0    0  501 -0.00000000000E+00 -0.00000000000E+00 -0.14510293687E+04  0.14510293687E+04  0.00000000000E+00 0. -1.
    9900016    2    1    2    0    0 -0.23286439557E+03  0.35371783363E+03  0.28830433285E+03  0.20820965220E+04  0.20180843407E+04 0.  0.
         24    2    3    3    0    0  0.18491503201E+03 -0.43416626433E+02 -0.81318640107E+03  0.83890013112E+03  0.80017089414E+02 0.  0.
        -15    1    4    4    0    0  0.81730314585E+02 -0.21109645064E+02 -0.32717540707E+03  0.33788934346E+03  0.00000000000E+00 0.  1.
        -15    1    4    4    0    0  0.21547525989E+02 -0.25948723690E+02 -0.13653831733E+03  0.14064261174E+03  0.00000000000E+00 0.  1.
         15    1    4    4    0    0  0.24098334428E+02  0.12862542219E+02 -0.15363717168E+03  0.15604664442E+03  0.00000000000E+00 0. -1.
         15    1    3    3    0    0 -0.41777942758E+03  0.39713446006E+03  0.11014907339E+04  0.12431963909E+04  0.00000000000E+00 0. -1.
        -16    1    1    2    0    0 -0.33691887760E+03 -0.38574542811E+03 -0.34908223543E+02  0.51335411703E+03  0.00000000000E+00 0.  1.
         16    1    4    4    0    0  0.57538857011E+02 -0.92207998970E+01 -0.19583550500E+03  0.20432153150E+03  0.00000000000E+00 0. -1.
    9900018    1    1    2    0    0  0.56978327317E+03  0.32027594490E+02  0.18204515846E+02  0.57820872355E+03  0.91187600000E+02 0.  0.
<mgrwt>
<rscale>  0 0.31620163E+04</rscale>
<asrwt>0</asrwt>
<pdfrwt beam="1">  1        1 0.26502000E+00 0.31620163E+04</pdfrwt>
<pdfrwt beam="2">  1       -1 0.22323529E+00 0.31620163E+04</pdfrwt>
<totfact> 0.40423420E-01</totfact>
</mgrwt>
</event>
<event>
12    1  0.2935898E-015  0.3283372E+04  0.7818608E-02  0.8167139E-01
         -1   -1    0    0    0  501 -0.00000000000E+00  0.00000000000E+00  0.13534157580E+04  0.13534157580E+04  0.00000000000E+00 0.  1.
          1   -1    0    0  501    0  0.00000000000E+00 -0.00000000000E+00 -0.19913559274E+04  0.19913559274E+04  0.00000000000E+00 0. -1.
    9900016    2    1    2    0    0 -0.24778777460E+03 -0.75681393875E+03  0.14653792642E+03  0.21751600048E+04  0.20188317323E+04 0.  0.
         24    2    3    3    0    0  0.20761961372E+03 -0.13919967041E+03  0.99577740856E+03  0.10305854236E+04  0.89728566817E+02 0.  0.
         24    2    4    4    0    0  0.14483732058E+03 -0.10561660597E+03  0.72226439742E+03  0.74609181143E+03  0.53426719990E+02 0.  0.
        -15    1    4    4    0    0  0.82910290257E+01 -0.17826613431E+02  0.10095569198E+03  0.10285222921E+03  0.00000000000E+00 0.  1.
        -15    1    5    5    0    0  0.65732215025E+02 -0.76509020241E+02  0.34012497740E+03  0.35476661980E+03  0.00000000000E+00 0.  1.
         15    1    3    3    0    0 -0.45540738832E+03 -0.61761426835E+03 -0.84923948214E+03  0.11445745812E+04  0.00000000000E+00 0. -1.
         15    1    4    4    0    0  0.54491264113E+02 -0.15756451006E+02  0.17255731916E+03  0.18164138298E+03  0.00000000000E+00 0. -1.
        -16    1    1    2    0    0  0.21030566704E+03  0.73378139498E+03 -0.72169927175E+03  0.10504824835E+04  0.00000000000E+00 0.  1.
         16    1    5    5    0    0  0.79105105560E+02 -0.29107585730E+02  0.38213942002E+03  0.39132519163E+03  0.00000000000E+00 0. -1.
    9900018    1    1    2    0    0  0.37482107557E+02  0.23032543771E+02 -0.62778824122E+02  0.11912919714E+03  0.91187600000E+02 0.  0.
<mgrwt>
<rscale>  0 0.32833717E+04</rscale>
<asrwt>0</asrwt>
<pdfrwt beam="1">  1        1 0.30636245E+00 0.32833717E+04</pdfrwt>
<pdfrwt beam="2">  1       -1 0.20821781E+00 0.32833717E+04</pdfrwt>
<totfact> 0.33175183E-01</totfact>
</mgrwt>
</event>
<event>
12    1  0.2935898E-015  0.3274714E+04  0.7818608E-02  0.8169359E-01
          2   -1    0    0  501    0  0.00000000000E+00  0.00000000000E+00  0.26688052893E+04  0.26688052893E+04  0.00000000000E+00 0. -1.
         -2   -1    0    0    0  501 -0.00000000000E+00 -0.00000000000E+00 -0.10045460734E+04  0.10045460734E+04  0.00000000000E+00 0.  1.
    9900016    2    1    2    0    0 -0.29533321221E+03  0.50738751379E+03  0.12750804862E+04  0.24609745545E+04  0.20213613522E+04 0.  0.
         24    2    3    3    0    0 -0.49397954556E+03  0.14174456285E+03 -0.44927193838E+03  0.68712382307E+03  0.78654695226E+02 0.  0.
         24    2    4    4    0    0 -0.41993261220E+03  0.12705314450E+03 -0.38602855921E+03  0.58729324819E+03  0.58390157827E+02 0.  0.
        -15    1    4    4    0    0 -0.59101709823E+02  0.18023717695E+02 -0.48201465461E+02  0.78366113698E+02  0.00000000000E+00 0.  1.
        -15    1    5    5    0    0 -0.19639905176E+02  0.19263927694E+02 -0.17407718327E+02  0.32555390381E+02  0.00000000000E+00 0.  1.
         15    1    4    4    0    0 -0.14945223534E+02 -0.33322993465E+01 -0.15041913713E+02  0.21464461176E+02  0.00000000000E+00 0. -1.
         15    1    3    3    0    0  0.19864633335E+03  0.36564295094E+03  0.17243524246E+04  0.17738507315E+04  0.00000000000E+00 0. -1.
        -16    1    1    2    0    0  0.13744683230E+03 -0.66767351555E+03 -0.77765706311E+02  0.68609551824E+03  0.00000000000E+00 0.  1.
         16    1    5    5    0    0 -0.40029270703E+03  0.10778921681E+03 -0.36862084088E+03  0.55473785781E+03  0.00000000000E+00 0. -1.
    9900018    1    1    2    0    0  0.15788637991E+03  0.16028600176E+03  0.46694443605E+03  0.52628128988E+03  0.91187600000E+02 0.  0.
<mgrwt>
<rscale>  0 0.32747140E+04</rscale>
<asrwt>0</asrwt>
<pdfrwt beam="1">  1        2 0.41058543E+00 0.32747140E+04</pdfrwt>
<pdfrwt beam="2">  1       -2 0.15454555E+00 0.32747140E+04</pdfrwt>
<totfact> 0.64157159E-01</totfact>
</mgrwt>
</event>
<event>
11    1  0.2935898E-015  0.3348370E+04  0.7818608E-02  0.8150696E-01
          2   -1    0    0  501    0  0.00000000000E+00  0.00000000000E+00  0.31259033778E+04  0.31259033778E+04  0.00000000000E+00 0. -1.
         -2   -1    0    0    0  501 -0.00000000000E+00 -0.00000000000E+00 -0.89666716482E+03  0.89666716482E+03  0.00000000000E+00 0.  1.
    9900016    2    1    2    0    0 -0.26477794561E+02 -0.25604288311E+03  0.17640808265E+04  0.26994360034E+04  0.20269964338E+04 0.  0.
        -24    2    3    3    0    0 -0.82483959604E+02  0.20467030574E+03 -0.41219346498E+03  0.47422519887E+03  0.79325588746E+02 0.  0.
        -15    1    3    3    0    0  0.56006165043E+02 -0.46071318885E+03  0.21762742915E+04  0.22252108045E+04  0.00000000000E+00 0.  1.
        -15    1    4    4    0    0  0.60972842064E+01  0.24765894457E+02 -0.54378486553E+02  0.60062852103E+02  0.00000000000E+00 0.  1.
         15    1    4    4    0    0 -0.15369355783E+02  0.12366982632E+02 -0.18539825880E+02  0.27071839618E+02  0.00000000000E+00 0. -1.
         15    1    4    4    0    0 -0.38844126542E+02  0.71619864043E+02 -0.18573147359E+03  0.20281629957E+03  0.00000000000E+00 0. -1.
        -16    1    4    4    0    0 -0.34367761485E+02  0.95917564609E+02 -0.15354367896E+03  0.18427420758E+03  0.00000000000E+00 0.  1.
         16    1    1    2    0    0 -0.55533752935E+02  0.23143859516E+03  0.86866520665E+03  0.90068144330E+03  0.00000000000E+00 0. -1.
    9900018    1    1    2    0    0  0.82011547496E+02  0.24604287954E+02 -0.40350982016E+03  0.42245309594E+03  0.91187600000E+02 0.  0.
<mgrwt>
<rscale>  0 0.33483697E+04</rscale>
<asrwt>0</asrwt>
<pdfrwt beam="1">  1        2 0.48090821E+00 0.33483697E+04</pdfrwt>
<pdfrwt beam="2">  1       -2 0.13794880E+00 0.33483697E+04</pdfrwt>
<totfact> 0.44926184E-01</totfact>
</mgrwt>
</event>
<event>
11    1  0.2935898E-015  0.2623151E+04  0.7818608E-02  0.8360380E-01
         -1   -1    0    0    0  501 -0.00000000000E+00  0.00000000000E+00  0.64895654728E+03  0.64895654728E+03  0.00000000000E+00 0.  1.
          1   -1    0    0  501    0  0.00000000000E+00 -0.00000000000E+00 -0.26507627040E+04  0.26507627040E+04  0.00000000000E+00 0. -1.
    9900016    2    1    2    0    0  0.16678234809E+03  0.27726020824E+03 -0.14293520216E+04  0.24840032898E+04  0.20056259789E+04 0.  0.
        -24    2    3    3    0    0 -0.25738544885E+03  0.31905908650E+03 -0.18431845187E+04  0.18899302288E+04  0.80381152860E+02 0.  0.
        -15    1    3    3    0    0  0.42416779694E+03 -0.41798878258E+02  0.41383249707E+03  0.59407306101E+03  0.00000000000E+00 0.  1.
        -15    1    4    4    0    0 -0.28953610297E+02  0.14240314257E+02 -0.18769949472E+03  0.19045261463E+03  0.00000000000E+00 0.  1.
         15    1    4    4    0    0 -0.18619871650E+02  0.42992289449E+02 -0.22812214566E+03  0.23288355440E+03  0.00000000000E+00 0. -1.
         15    1    4    4    0    0 -0.20661198722E+02  0.31352300599E+02 -0.12382513273E+03  0.12939287222E+03  0.00000000000E+00 0. -1.
        -16    1    4    4    0    0 -0.18915076818E+03  0.23047418219E+03 -0.13035377456E+04  0.13372011875E+04  0.00000000000E+00 0.  1.
         16    1    1    2    0    0  0.37081669057E+02 -0.32690717955E+03 -0.44629245773E+03  0.55445496846E+03  0.00000000000E+00 0. -1.
    9900018    1    1    2    0    0 -0.20386401715E+03  0.49646971307E+02 -0.12616167732E+03  0.26126099301E+03  0.91187600000E+02 0.  0.
<mgrwt>
<rscale>  0 0.26231506E+04</rscale>
<asrwt>0</asrwt>
<pdfrwt beam="1">  1        1 0.40780965E+00 0.26231506E+04</pdfrwt>
<pdfrwt beam="2">  1       -1 0.99839468E-01 0.26231506E+04</pdfrwt>
<totfact> 0.89346857E-01</totfact>
</mgrwt>
</event>
<event>
11    1  0.2935898E-015  0.3786031E+04  0.7818608E-02  0.8049159E-01
          2   -1    0    0  501    0  0.00000000000E+00  0.00000000000E+00  0.35857865171E+04  0.35857865171E+04  0.00000000000E+00 0. -1.
         -2   -1    0    0    0  501 -0.00000000000E+00 -0.00000000000E+00 -0.99936435133E+03  0.99936435133E+03  0.00000000000E+00 0.  1.
    9900016    2    1    2    0    0 -0.11920192801E+04 -0.27875073533E+03  0.23304841043E+04  0.33176365395E+04  0.20191444009E+04 0.  0.
         24    2    3    3    0    0 -0.24406463770E+03  0.30928330210E+03 -0.27258336369E+03  0.48561212649E+03  0.79333088313E+02 0.  0.
        -15    1    4    4    0    0 -0.78331524510E+02  0.84275171960E+02 -0.63951138866E+02  0.13163540748E+03  0.00000000000E+00 0.  1.
        -15    1    4    4    0    0 -0.11612129547E+02  0.16030637296E+00 -0.44306758859E+01  0.12429728057E+02  0.00000000000E+00 0. -1.
         15    1    4    4    0    0 -0.22009520121E+01  0.99870873966E+01 -0.43439350934E+01  0.11111069999E+02  0.00000000000E+00 0.  1.
         15    1    3    3    0    0 -0.94795464239E+03 -0.58803403743E+03  0.26030674680E+04  0.28320244130E+04  0.00000000000E+00 0. -1.
        -16    1    1    2    0    0  0.76762217923E+03  0.11646332468E+03  0.19103748410E+03  0.79956415401E+03  0.00000000000E+00 0.  1.
         16    1    4    4    0    0 -0.15192003163E+03  0.21486073637E+03 -0.19985761384E+03  0.33043592095E+03  0.00000000000E+00 0. -1.
    9900018    1    1    2    0    0  0.42439710087E+03  0.16228741065E+03  0.64900577421E+02  0.46795017494E+03  0.91187600000E+02 0.  0.
<mgrwt>
<rscale>  0 0.37860308E+04</rscale>
<asrwt>0</asrwt>
<pdfrwt beam="1">  1        2 0.55165946E+00 0.37860308E+04</pdfrwt>
<pdfrwt beam="2">  1       -2 0.15374836E+00 0.37860308E+04</pdfrwt>
<totfact> 0.15885909E-01</totfact>
</mgrwt>
</event>
<event>
11    1  0.2935898E-015  0.2675629E+04  0.7818608E-02  0.8342956E-01
         -1   -1    0    0    0  501 -0.00000000000E+00  0.00000000000E+00  0.23648531731E+04  0.23648531731E+04  0.00000000000E+00 0. -1.
          1   -1    0    0  501    0  0.00000000000E+00 -0.00000000000E+00 -0.75681126943E+03  0.75681126943E+03  0.00000000000E+00 0.  1.
    9900016    2    1    2    0    0 -0.64248183111E+02  0.17117863639E+03  0.11046368431E+04  0.23147889647E+04  0.20259801187E+04 0.  0.
         24    2    3    3    0    0 -0.12981885559E+03 -0.32388655304E+03 -0.51091349745E+03  0.62381529320E+03  0.79733830038E+02 0.  0.
        -15    1    4    4    0    0 -0.47865428744E+02 -0.10687535967E+03 -0.20891148782E+03  0.23949415758E+03  0.00000000000E+00 0.  1.
        -15    1    4    4    0    0  0.27363523117E+00 -0.40765053249E+02 -0.71996040627E+02  0.82736293781E+02  0.00000000000E+00 0.  1.
         15    1    3    3    0    0  0.65570672477E+02  0.49506518943E+03  0.16155503406E+04  0.16909736715E+04  0.00000000000E+00 0. -1.
         15    1    4    4    0    0 -0.19133477253E+02 -0.55258301348E+02 -0.63870861283E+02  0.86597094298E+02  0.00000000000E+00 0. -1.
        -16    1    1    2    0    0  0.24963712739E+03 -0.14046252261E+03  0.28241169835E+02  0.28782977487E+03  0.00000000000E+00 0.  1.
         16    1    4    4    0    0 -0.63093584821E+02 -0.12098783876E+03 -0.16613510772E+03  0.21498774754E+03  0.00000000000E+00 0. -1.
    9900018    1    1    2    0    0 -0.18538894427E+03 -0.30716113776E+02  0.47516389075E+03  0.51904570297E+03  0.91187600000E+02 0.  0.
<mgrwt>
<rscale>  0 0.26756289E+04</rscale>
<asrwt>0</asrwt>
<pdfrwt beam="1">  1        1 0.11643250E+00 0.26756289E+04</pdfrwt>
<pdfrwt beam="2">  1       -1 0.36382356E+00 0.26756289E+04</pdfrwt>
<totfact> 0.26556314E-01</totfact>
</mgrwt>
</event>
<event>
11    1  0.2935898E-015  0.6148842E+04  0.7818608E-02  0.7672216E-01
         -1   -1    0    0    0  501 -0.00000000000E+00  0.00000000000E+00  0.29274728644E+04  0.29274728644E+04  0.00000000000E+00 0.  1.
          1   -1    0    0  501    0  0.00000000000E+00 -0.00000000000E+00 -0.32287456453E+04  0.32287456453E+04  0.00000000000E+00 0. -1.
    9900016    2    1    2    0    0  0.65348078601E+03  0.16225333797E+04  0.73140902899E+03  0.27707255491E+04  0.20204725178E+04 0.  0.
        -24    2    3    3    0    0 -0.11835672287E+03 -0.31531828334E+03  0.58393396527E+03  0.67961314124E+03  0.86378309164E+02 0.  0.
        -15    1    3    3    0    0  0.77183750888E+03  0.19378516630E+04  0.14747506371E+03  0.20911124079E+04  0.00000000000E+00 0.  1.
        -15    1    4    4    0    0 -0.56379096726E+01 -0.13424392183E+02  0.42124149661E+02  0.44569544709E+02  0.00000000000E+00 0. -1.
         15    1    4    4    0    0 -0.17533423292E+01 -0.34026377066E+02  0.26216117374E+02  0.42990154172E+02  0.00000000000E+00 0.  1.
         15    1    4    4    0    0 -0.93902431534E+02 -0.22969217171E+03  0.45767666733E+03  0.52061895107E+03  0.00000000000E+00 0. -1.
        -16    1    4    4    0    0 -0.17063039335E+02 -0.38175342380E+02  0.57917030910E+02  0.71434491295E+02  0.00000000000E+00 0.  1.
         16    1    1    2    0    0  0.16548762221E+03 -0.21053277303E+04 -0.11800319105E+04  0.24191457821E+04  0.00000000000E+00 0. -1.
    9900018    1    1    2    0    0 -0.81896840823E+03  0.48279435064E+03  0.14735010062E+03  0.96634717842E+03  0.91187600000E+02 0.  0.
<mgrwt>
<rscale>  0 0.61488423E+04</rscale>
<asrwt>0</asrwt>
<pdfrwt beam="1">  1        1 0.49673010E+00 0.61488423E+04</pdfrwt>
<pdfrwt beam="2">  1       -1 0.45038044E+00 0.61488423E+04</pdfrwt>
<totfact> 0.86257763E-04</totfact>
</mgrwt>
</event>
<event>
11    1  0.2935898E-015  0.2866819E+04  0.7818608E-02  0.8282819E-01
         -2   -1    0    0    0  501 -0.00000000000E+00  0.00000000000E+00  0.74804199138E+03  0.74804199138E+03  0.00000000000E+00 0. -1.
          2   -1    0    0  501    0  0.00000000000E+00 -0.00000000000E+00 -0.27467215978E+04  0.27467215978E+04  0.00000000000E+00 0.  1.
    9900016    2    1    2    0    0 -0.30612027665E+03  0.23926434581E+03 -0.17171088157E+04  0.26789286014E+04  0.20192173522E+04 0.  0.
        -24    2    3    3    0    0  0.23879499954E+03 -0.90859178028E+02  0.39283581175E+03  0.47489127632E+03  0.76963025501E+02 0.  0.
        -15    1    4    4    0    0  0.48344928001E+02 -0.35601549694E+02  0.11420756601E+03  0.12902740228E+03  0.00000000000E+00 0. -1.
        -15    1    3    3    0    0 -0.54491527620E+03  0.33012352384E+03 -0.21099446275E+04  0.22040373251E+04  0.00000000000E+00 0.  1.
         15    1    4    4    0    0  0.44324538347E+02 -0.10047239031E+02  0.72627751350E+02  0.85676145910E+02  0.00000000000E+00 0.  1.
         15    1    4    4    0    0  0.20036922838E+02  0.64357806851E+01  0.41938309430E+02  0.46922482327E+02  0.00000000000E+00 0. -1.
        -16    1    4    4    0    0  0.12608861036E+03 -0.51646169988E+02  0.16406218496E+03  0.21326524581E+03  0.00000000000E+00 0.  1.
         16    1    1    2    0    0  0.32780427920E+03  0.70382742814E+02  0.65227440347E+02  0.34156111447E+03  0.00000000000E+00 0. -1.
    9900018    1    1    2    0    0 -0.21684002545E+02 -0.30964708862E+03 -0.34679823100E+03  0.47427387328E+03  0.91187600000E+02 0.  0.
<mgrwt>
<rscale>  0 0.28668192E+04</rscale>
<asrwt>0</asrwt>
<pdfrwt beam="1">  1        2 0.42257255E+00 0.28668192E+04</pdfrwt>
<pdfrwt beam="2">  1       -2 0.11508339E+00 0.28668192E+04</pdfrwt>
<totfact> 0.12678764E+00</totfact>
</mgrwt>
</event>
<event>
11    1  0.2935899E-015  0.4951239E+04  0.7818608E-02  0.7836073E-01
         -2   -1    0    0    0  501 -0.00000000000E+00  0.00000000000E+00  0.30187715839E+04  0.30187715839E+04  0.00000000000E+00 0.  1.
          2   -1    0    0  501    0  0.00000000000E+00 -0.00000000000E+00 -0.20301940583E+04  0.20301940583E+04  0.00000000000E+00 0. -1.
    9900016    2    1    2    0    0 -0.54173728947E+03  0.82817966095E+03 -0.40867770430E+03  0.22903775271E+04  0.20247100802E+04 0.  0.
         24    2    3    3    0    0  0.26710060832E+03 -0.16973959663E+03  0.58260142112E+03  0.66781908623E+03  0.80022811823E+02 0.  0.
        -15    1    4    4    0    0  0.52153209592E+02 -0.11439102242E+02  0.11725214938E+03  0.12883662858E+03  0.00000000000E+00 0.  1.
        -15    1    4    4    0    0  0.61400897551E+02 -0.60961465254E+02  0.17061584181E+03  0.19130116556E+03  0.00000000000E+00 0.  1.
         15    1    4    4    0    0  0.27691085602E+02 -0.16633933710E+02  0.32507826967E+02  0.45828405892E+02  0.00000000000E+00 0. -1.
         15    1    3    3    0    0 -0.80883789779E+03  0.99791925759E+03 -0.99127912542E+03  0.16225584409E+04  0.00000000000E+00 0. -1.
        -16    1    1    2    0    0  0.75504227816E+03 -0.14202745579E+04  0.13849022566E+04  0.21225510411E+04  0.00000000000E+00 0.  1.
         16    1    4    4    0    0  0.12585541558E+03 -0.80705095427E+02  0.26222560296E+03  0.30185288620E+03  0.00000000000E+00 0. -1.
    9900018    1    1    2    0    0 -0.21330498869E+03  0.59209489691E+03  0.12352973333E+02  0.63603707400E+03  0.91187600000E+02 0.  0.
<mgrwt>
<rscale>  0 0.49512391E+04</rscale>
<asrwt>0</asrwt>
<pdfrwt beam="1">  1        2 0.31233755E+00 0.49512391E+04</pdfrwt>
<pdfrwt beam="2">  1       -2 0.46442640E+00 0.49512391E+04</pdfrwt>
<totfact> 0.13146104E-02</totfact>
</mgrwt>
</event>
<event>
11    1  0.2935898E-015  0.3590233E+04  0.7818608E-02  0.8092733E-01
          2   -1    0    0  501    0  0.00000000000E+00  0.00000000000E+00  0.21119380239E+04  0.21119380239E+04  0.00000000000E+00 0. -1.
         -2   -1    0    0    0  501 -0.00000000000E+00 -0.00000000000E+00 -0.15258225832E+04  0.15258225832E+04  0.00000000000E+00 0.  1.
    9900016    2    1    2    0    0 -0.50761442509E+03  0.42065234308E+03  0.47815086322E+03  0.21783367464E+04  0.20203717318E+04 0.  0.
        -24    2    3    3    0    0  0.13679346596E+03 -0.23236899137E+03  0.10568445603E+04  0.10936318149E+04  0.80014507841E+02 0.  0.
        -15    1    3    3    0    0 -0.64440789105E+03  0.65302133445E+03 -0.57869369712E+03  0.10847049315E+04  0.00000000000E+00 0.  1.
        -15    1    4    4    0    0  0.45393615193E+02 -0.94642110314E+02  0.40425530293E+03  0.41766021991E+03  0.00000000000E+00 0.  1.
         15    1    4    4    0    0  0.13358805623E+00 -0.10831170289E+02  0.44336894403E+02  0.45640906005E+02  0.00000000000E+00 0. -1.
         15    1    4    4    0    0  0.21765007623E+02 -0.46583716307E+02  0.11817024301E+03  0.12887189188E+03  0.00000000000E+00 0. -1.
        -16    1    4    4    0    0  0.69501255088E+02 -0.80311994461E+02  0.49008211999E+03  0.50145879716E+03  0.00000000000E+00 0.  1.
         16    1    1    2    0    0  0.71972174570E+00 -0.70919234380E+03  0.38538385555E+03  0.80714002169E+03  0.00000000000E+00 0. -1.
    9900018    1    1    2    0    0  0.50689470334E+03  0.28854000071E+03 -0.27741927808E+03  0.65228383893E+03  0.91187600000E+02 0.  0.
<mgrwt>
<rscale>  0 0.35902327E+04</rscale>
<asrwt>0</asrwt>
<pdfrwt beam="1">  1        2 0.32491354E+00 0.35902327E+04</pdfrwt>
<pdfrwt beam="2">  1       -2 0.23474194E+00 0.35902327E+04</pdfrwt>
<totfact> 0.37694768E-01</totfact>
</mgrwt>
</event>
<event>
12    1  0.2935898E-015  0.3956554E+04  0.7818608E-02  0.8013369E-01
          2   -1    0    0  501    0  0.00000000000E+00  0.00000000000E+00  0.20656399136E+04  0.20656399136E+04  0.00000000000E+00 0. -1.
         -2   -1    0    0    0  501 -0.00000000000E+00 -0.00000000000E+00 -0.18946086961E+04  0.18946086961E+04  0.00000000000E+00 0.  1.
    9900016    2    1    2    0    0  0.24035091444E+02 -0.30203090996E+03  0.73159907129E+03  0.21743402813E+04  0.20250229879E+04 0.  0.
        -24    2    3    3    0    0 -0.61696202022E+03 -0.19522554638E+02  0.11859965398E+04  0.13393760142E+04  0.79479874448E+02 0.  0.
        -24    2    4    4    0    0 -0.46151374956E+03 -0.17004979406E+02  0.87325510004E+03  0.98931316295E+03  0.53683836306E+02 0.  0.
        -15    1    3    3    0    0  0.64099711167E+03 -0.28250835532E+03 -0.45439746851E+03  0.83496426713E+03  0.00000000000E+00 0.  1.
        -15    1    4    4    0    0 -0.13215593729E+03 -0.13084074781E+00  0.28190091673E+03  0.31134118863E+03  0.00000000000E+00 0. -1.
         15    1    4    4    0    0 -0.23292333370E+02 -0.23867344839E+01  0.30840523034E+02  0.38721662623E+02  0.00000000000E+00 0. -1.
         15    1    5    5    0    0 -0.13386663254E+02 -0.97464281312E+01  0.36730781833E+02  0.40290767534E+02  0.00000000000E+00 0.  1.
        -16    1    5    5    0    0 -0.44812708630E+03 -0.72585512750E+01  0.83652431821E+03  0.94902239541E+03  0.00000000000E+00 0.  1.
         16    1    1    2    0    0  0.16419990341E+03  0.87761831100E+03  0.84011008290E+02  0.89679058737E+03  0.00000000000E+00 0. -1.
    9900018    1    1    2    0    0 -0.18823499485E+03 -0.57558740104E+03 -0.64457886203E+03  0.88911774096E+03  0.91187600000E+02 0.  0.
<mgrwt>
<rscale>  0 0.39565537E+04</rscale>
<asrwt>0</asrwt>
<pdfrwt beam="1">  1        2 0.31779075E+00 0.39565537E+04</pdfrwt>
<pdfrwt beam="2">  1       -2 0.29147826E+00 0.39565537E+04</pdfrwt>
<totfact> 0.17424031E-01</totfact>
</mgrwt>
</event>
