<event>
11    1  0.1925069E-012  0.3988154E+04  0.7818608E-02  0.8117293E-01
         -2   -1    0    0    0  501 -0.00000000000E+00  0.00000000000E+00  0.20897497795E+04  0.20897497795E+04  0.00000000000E+00 0.  1.
          2   -1    0    0  501    0  0.00000000000E+00 -0.00000000000E+00 -0.47878889014E+04  0.47878889014E+04  0.00000000000E+00 0. -1.
    9900016    2    1    2    0    0  0.75709012352E+03  0.35092148691E+02 -0.16784377297E+04  0.27365457403E+04  0.20241325210E+04 0.  0.
         24    2    3    3    0    0  0.84471162944E+03  0.49909970469E+03 -0.19553884195E+04  0.21891133473E+04  0.77686060972E+02 0.  0.
        -15    1    1    2    0    0  0.12601062029E+03  0.26466245548E+03  0.31290245975E+03  0.42875732190E+03  0.00000000000E+00 0.  1.
        -15    1    4    4    0    0  0.57314498693E+03  0.30637390860E+03 -0.12385001400E+04  0.13986574794E+04  0.00000000000E+00 0.  1.
         15    1    1    2    0    0 -0.16826052242E+04  0.25298682863E+03 -0.11034094958E+04  0.20279731732E+04  0.00000000000E+00 0. -1.
         15    1    3    3    0    0 -0.87621505919E+02 -0.46400755600E+03  0.27695068982E+03  0.54743239301E+03  0.00000000000E+00 0. -1.
        -16    1    1    2    0    0  0.37504051918E+03  0.42289008160E+03  0.84164245997E+02  0.57146743778E+03  0.00000000000E+00 0.  1.
         16    1    4    4    0    0  0.27156664251E+03  0.19272579610E+03 -0.71688827949E+03  0.79045586789E+03  0.00000000000E+00 0. -1.
    9900018    1    1    2    0    0  0.42446396118E+03 -0.97563151439E+03 -0.31335860220E+03  0.11128950077E+04  0.91187600000E+02 0.  0.
<mgrwt>
<rscale>  0 0.34852571E+04</rscale>
<asrwt>0</asrwt>
<pdfrwt beam="1">  1        2 0.73659829E+00 0.39881536E+04</pdfrwt>
<pdfrwt beam="2">  1       -2 0.32149997E+00 0.39881536E+04</pdfrwt>
<totfact> 0.10538197E-03</totfact>
</mgrwt>
</event>
<event>
11    1  0.1925069E-012  0.5085568E+04  0.7818608E-02  0.8042057E-01
         -1   -1    0    0    0  501 -0.00000000000E+00  0.00000000000E+00  0.33721631932E+04  0.33721631932E+04  0.00000000000E+00 0.  1.
          1   -1    0    0  501    0  0.00000000000E+00 -0.00000000000E+00 -0.35677602303E+04  0.35677602303E+04  0.00000000000E+00 0. -1.
    9900016    2    1    2    0    0 -0.95563914831E+03 -0.10810132185E+04 -0.64569864946E+03  0.25739790962E+04  0.20314049033E+04 0.  0.
         24    2    3    3    0    0 -0.11234950425E+04  0.24338102475E+03 -0.37638899827E+03  0.12120967954E+04  0.77682235060E+02 0.  0.
        -15    1    1    2    0    0  0.73359469447E+03  0.17344568460E+03  0.64629856843E+03  0.99294834750E+03  0.00000000000E+00 0.  1.
        -15    1    4    4    0    0 -0.55259535327E+03  0.15510865246E+03 -0.16901562690E+03  0.59831981470E+03  0.00000000000E+00 0.  1.
         15    1    3    3    0    0  0.16785589423E+03 -0.13243942433E+04 -0.26930965119E+03  0.13618823008E+04  0.00000000000E+00 0. -1.
         15    1    1    2    0    0 -0.77386647456E+03 -0.45128416932E+02  0.77224004537E+02  0.77901825482E+03  0.00000000000E+00 0. -1.
        -16    1    1    2    0    0  0.12565442957E+04  0.13734579477E+04 -0.64313836579E+03  0.19694967019E+04  0.00000000000E+00 0.  1.
         16    1    4    4    0    0 -0.57089968927E+03  0.88272372283E+02 -0.20737337137E+03  0.61377698073E+03  0.00000000000E+00 0. -1.
    9900018    1    1    2    0    0 -0.26063336732E+03 -0.42076199678E+03  0.36971740524E+03  0.62448102312E+03  0.91187600000E+02 0.  0.
<mgrwt>
<rscale>  0 0.38191541E+04</rscale>
<asrwt>0</asrwt>
<pdfrwt beam="1">  1        1 0.54888619E+00 0.50855675E+04</pdfrwt>
<pdfrwt beam="2">  1       -1 0.51879434E+00 0.50855675E+04</pdfrwt>
<totfact> 0.17089081E-04</totfact>
</mgrwt>
</event>
<event>
11    1  0.1925069E-012  0.5832125E+04  0.7818608E-02  0.7711572E-01
         -2   -1    0    0    0  501 -0.00000000000E+00  0.00000000000E+00  0.44483958711E+04  0.44483958711E+04  0.00000000000E+00 0.  1.
          2   -1    0    0  501    0  0.00000000000E+00 -0.00000000000E+00 -0.19115698568E+04  0.19115698568E+04  0.00000000000E+00 0. -1.
    9900016    2    1    2    0    0 -0.21860168086E+03  0.58643107210E+02  0.10237161842E+04  0.22715132764E+04  0.20150811473E+04 0.  0.
        -24    2    3    3    0    0  0.82904544269E+03  0.29060648113E+02  0.40055927684E+02  0.83414515458E+03  0.77671064421E+02 0.  0.
        -15    1    1    2    0    0 -0.23208238287E+02 -0.17174879167E+04  0.30481960525E+03  0.17444822607E+04  0.00000000000E+00 0.  1.
        -15    1    3    3    0    0 -0.10476471235E+04  0.29582459096E+02  0.98366025655E+03  0.14373681218E+04  0.00000000000E+00 0.  1.
         15    1    4    4    0    0  0.11326674433E+03  0.69147082530E+00  0.32217399801E+02  0.11776159965E+03  0.00000000000E+00 0. -1.
         15    1    1    2    0    0 -0.20141193035E+03  0.10426765741E+04  0.43427020125E+03  0.11473150446E+04  0.00000000000E+00 0. -1.
        -16    1    4    4    0    0  0.71577869836E+03  0.28369177288E+02  0.78385278830E+01  0.71638355492E+03  0.00000000000E+00 0.  1.
         16    1    1    2    0    0  0.40491603934E+03  0.60655397547E+03  0.81094811710E+03  0.10906427338E+04  0.00000000000E+00 0. -1.
    9900018    1    1    2    0    0  0.38305810158E+02  0.96142598427E+01 -0.36928093563E+02  0.10601241235E+03  0.91187600000E+02 0.  0.
<mgrwt>
<rscale>  0 0.58321246E+04</rscale>
<asrwt>0</asrwt>
<pdfrwt beam="1">  1        2 0.29408767E+00 0.58321246E+04</pdfrwt>
<pdfrwt beam="2">  1       -2 0.68436859E+00 0.58321246E+04</pdfrwt>
<totfact> 0.13389065E-03</totfact>
</mgrwt>
</event>
<event>
11    1  0.1925069E-012  0.3501650E+04  0.7818608E-02  0.8399094E-01
          1   -1    0    0  501    0  0.00000000000E+00  0.00000000000E+00  0.25057156853E+04  0.25057156853E+04  0.00000000000E+00 0. -1.
         -1   -1    0    0    0  501 -0.00000000000E+00 -0.00000000000E+00 -0.21262855561E+04  0.21262855561E+04  0.00000000000E+00 0.  1.
    9900016    2    1    2    0    0  0.55920790637E+03 -0.85375511888E+03  0.76099135946E+03  0.23914164144E+04  0.20243896197E+04 0.  0.
        -24    2    3    3    0    0 -0.36456794611E+03 -0.28501892964E+03 -0.52798800259E+03  0.70669374455E+03  0.80617244582E+02 0.  0.
        -15    1    1    2    0    0 -0.34037283089E+03 -0.44950328731E+03 -0.14236146954E+02  0.56401200092E+03  0.00000000000E+00 0.  1.
        -15    1    3    3    0    0  0.92377585248E+03 -0.56873618924E+03  0.12889793621E+04  0.16847226699E+04  0.00000000000E+00 0.  1.
         15    1    1    2    0    0 -0.10866407644E+03  0.55723484932E+03  0.14782201452E+03  0.58665995839E+03  0.00000000000E+00 0. -1.
         15    1    4    4    0    0 -0.60251493903E+02 -0.13233888204E+02 -0.71893729343E+02  0.94731655920E+02  0.00000000000E+00 0. -1.
        -16    1    4    4    0    0 -0.30431645221E+03 -0.27178504143E+03 -0.45609427325E+03  0.61196208863E+03  0.00000000000E+00 0.  1.
         16    1    1    2    0    0 -0.72556567436E+02  0.13642932959E+03 -0.44180647148E+03  0.46804954406E+03  0.00000000000E+00 0. -1.
    9900018    1    1    2    0    0 -0.37614431611E+02  0.60959422728E+03 -0.73340626322E+02  0.62186332362E+03  0.91187600000E+02 0.  0.
<mgrwt>
<rscale>  0 0.25109513E+04</rscale>
<asrwt>0</asrwt>
<pdfrwt beam="1">  1        1 0.38549472E+00 0.35016498E+04</pdfrwt>
<pdfrwt beam="2">  1       -1 0.32712086E+00 0.35016498E+04</pdfrwt>
<totfact> 0.23248410E-02</totfact>
</mgrwt>
</event>
<event>
11    1  0.1925069E-012  0.7955233E+04  0.7818608E-02  0.7486217E-01
          2   -1    0    0  501    0  0.00000000000E+00  0.00000000000E+00  0.27291572373E+04  0.27291572373E+04  0.00000000000E+00 0.  1.
         -2   -1    0    0    0  501 -0.00000000000E+00 -0.00000000000E+00 -0.57971868876E+04  0.57971868876E+04  0.00000000000E+00 0. -1.
    9900016    2    1    2    0    0  0.79696483508E+03 -0.64482379155E+03 -0.61929672782E+03  0.23634393021E+04  0.20374901784E+04 0.  0.
        -24    2    3    3    0    0  0.11612852591E+04 -0.67414341919E+03  0.29651297962E+03  0.13773883743E+04  0.78904905471E+02 0.  0.
        -15    1    1    2    0    0  0.13709188106E+04  0.86693991886E+01  0.52791440453E+03  0.14690769763E+04  0.00000000000E+00 0.  1.
        -15    1    3    3    0    0 -0.36432042400E+03  0.29319627648E+02 -0.91580970745E+03  0.98605092777E+03  0.00000000000E+00 0.  1.
         15    1    1    2    0    0 -0.40231519626E+03 -0.93532877795E+03 -0.17419537673E+04  0.20176967977E+04  0.00000000000E+00 0. -1.
         15    1    4    4    0    0  0.99101942074E+03 -0.59586254370E+03  0.27621872169E+03  0.11888937907E+04  0.00000000000E+00 0. -1.
        -16    1    4    4    0    0  0.17026583834E+03 -0.78280875499E+02  0.20294257938E+02  0.18849458369E+03  0.00000000000E+00 0.  1.
         16    1    1    2    0    0 -0.10813702216E+04  0.10055350586E+04 -0.68442782481E+03  0.16275453166E+04  0.00000000000E+00 0. -1.
    9900018    1    1    2    0    0 -0.68419822788E+03  0.56594811170E+03 -0.55026573491E+03  0.10485857321E+04  0.91187600000E+02 0.  0.
<mgrwt>
<rscale>  0 0.79552334E+04</rscale>
<asrwt>0</asrwt>
<pdfrwt beam="1">  1        2 0.41987035E+00 0.79552334E+04</pdfrwt>
<pdfrwt beam="2">  1       -2 0.89187490E+00 0.79552334E+04</pdfrwt>
<totfact> 0.16479181E-05</totfact>
</mgrwt>
</event>
<event>
11    1  0.1925069E-012  0.4616681E+04  0.7818608E-02  0.8104939E-01
         -2   -1    0    0    0  501 -0.00000000000E+00  0.00000000000E+00  0.27632688011E+04  0.27632688011E+04  0.00000000000E+00 0.  1.
          2   -1    0    0  501    0  0.00000000000E+00 -0.00000000000E+00 -0.34972556174E+04  0.34972556174E+04  0.00000000000E+00 0. -1.
    9900016    2    1    2    0    0 -0.72138438983E+03  0.13028655217E+03  0.57688814508E+03  0.22153265070E+04  0.20093535222E+04 0.  0.
        -24    2    3    3    0    0 -0.35877677372E+03  0.54589495795E+03 -0.61583338578E+03  0.90124915757E+03  0.79228823746E+02 0.  0.
        -15    1    1    2    0    0 -0.13101852984E+03  0.14343928332E+04 -0.20152989187E+03  0.14543943593E+04  0.00000000000E+00 0.  1.
        -15    1    3    3    0    0 -0.36260761612E+03 -0.41560840578E+03  0.11927215309E+04  0.13140773495E+04  0.00000000000E+00 0.  1.
         15    1    1    2    0    0 -0.10175857153E+03 -0.35021147198E+02 -0.13460700985E+03  0.17233785055E+03  0.00000000000E+00 0. -1.
         15    1    4    4    0    0 -0.15637798497E+03  0.30994372223E+03 -0.32406210453E+03  0.47490570930E+03  0.00000000000E+00 0. -1.
        -16    1    4    4    0    0 -0.20239878874E+03  0.23595123572E+03 -0.29177128125E+03  0.42634344827E+03  0.00000000000E+00 0.  1.
         16    1    1    2    0    0  0.93486169847E+03 -0.13864013326E+04 -0.27062217443E+03  0.16939041920E+04  0.00000000000E+00 0. -1.
    9900018    1    1    2    0    0  0.19299792737E+02 -0.14325690550E+03 -0.70411588527E+03  0.72456150964E+03  0.91187600000E+02 0.  0.
<mgrwt>
<rscale>  0 0.35375908E+04</rscale>
<asrwt>0</asrwt>
<pdfrwt beam="1">  1        2 0.53803932E+00 0.46166812E+04</pdfrwt>
<pdfrwt beam="2">  1       -2 0.42511828E+00 0.46166812E+04</pdfrwt>
<totfact> 0.29467216E-03</totfact>
</mgrwt>
</event>
<event>
11    1  0.1925069E-012  0.3449264E+04  0.7818608E-02  0.8297602E-01
         -1   -1    0    0    0  501 -0.00000000000E+00  0.00000000000E+00  0.20241307625E+04  0.20241307625E+04  0.00000000000E+00 0.  1.
          1   -1    0    0  501    0  0.00000000000E+00 -0.00000000000E+00 -0.44538708698E+04  0.44538708698E+04  0.00000000000E+00 0. -1.
    9900016    2    1    2    0    0 -0.25674482779E+03  0.69183486760E+03 -0.36841604070E+03  0.21345770039E+04  0.19687902925E+04 0.  0.
         24    2    3    3    0    0 -0.36739860001E+03 -0.42508922382E+03  0.46778156458E+03  0.73493772235E+03  0.75041882113E+02 0.  0.
        -15    1    4    4    0    0 -0.28147424392E+03 -0.35835262917E+03  0.34988273831E+03  0.57451047631E+03  0.00000000000E+00 0.  1.
        -15    1    1    2    0    0  0.59063041975E+03  0.73255789488E+03 -0.12166848174E+04  0.15381181057E+04  0.00000000000E+00 0.  1.
         15    1    1    2    0    0 -0.43742951300E+03 -0.30278356914E+03 -0.13877208222E+04  0.14862003730E+04  0.00000000000E+00 0. -1.
         15    1    3    3    0    0  0.11065377222E+03  0.11169240914E+04 -0.83619760528E+03  0.13996392815E+04  0.00000000000E+00 0. -1.
        -16    1    1    2    0    0  0.15641795415E+03 -0.41742373460E+03  0.38665664305E+03  0.59009533993E+03  0.00000000000E+00 0.  1.
         16    1    4    4    0    0 -0.85924356093E+02 -0.66736594647E+02  0.11789882627E+03  0.16042724604E+03  0.00000000000E+00 0. -1.
    9900018    1    1    2    0    0 -0.52874033104E+02 -0.70418545874E+03  0.15642492998E+03  0.72901080979E+03  0.91187600000E+02 0.  0.
<mgrwt>
<rscale>  0 0.28183241E+04</rscale>
<asrwt>0</asrwt>
<pdfrwt beam="1">  1        1 0.68521090E+00 0.34492636E+04</pdfrwt>
<pdfrwt beam="2">  1       -1 0.31140473E+00 0.34492636E+04</pdfrwt>
<totfact> 0.76523119E-04</totfact>
</mgrwt>
</event>
<event>
11    1  0.1925069E-012  0.3347353E+04  0.7818608E-02  0.8365600E-01
          2   -1    0    0  501    0  0.00000000000E+00  0.00000000000E+00  0.26692409575E+04  0.26692409575E+04  0.00000000000E+00 0.  1.
         -2   -1    0    0    0  501 -0.00000000000E+00 -0.00000000000E+00 -0.20312703472E+04  0.20312703472E+04  0.00000000000E+00 0. -1.
    9900016    2    1    2    0    0  0.14839426397E+03  0.47535179615E+03  0.11342683003E+04  0.23596066732E+04  0.20082825717E+04 0.  0.
        -24    2    3    3    0    0 -0.86752633065E+03  0.78675365029E+02  0.14391337388E+03  0.88642992692E+03  0.79089877480E+02 0.  0.
        -15    1    3    3    0    0  0.10159205946E+04  0.39667643112E+03  0.99035492644E+03  0.14731767463E+04  0.00000000000E+00 0.  1.
        -15    1    1    2    0    0 -0.49514531429E+03  0.20827603207E+03  0.32098224397E+03  0.62576144715E+03  0.00000000000E+00 0.  1.
         15    1    4    4    0    0 -0.12285931716E+03 -0.15619873014E+02  0.13666467232E+02  0.12460001835E+03  0.00000000000E+00 0. -1.
         15    1    1    2    0    0  0.33396501066E+03 -0.59344425423E+02 -0.52322866075E+03  0.62355642936E+03  0.00000000000E+00 0. -1.
        -16    1    4    4    0    0 -0.74466701350E+03  0.94295238043E+02  0.13024690665E+03  0.76182990858E+03  0.00000000000E+00 0.  1.
         16    1    1    2    0    0 -0.20414881923E+02 -0.23622282054E+03 -0.56210594168E+03  0.61006645377E+03  0.00000000000E+00 0. -1.
    9900018    1    1    2    0    0  0.33200921587E+02 -0.38806058227E+03  0.26805466849E+03  0.48152030113E+03  0.91187600000E+02 0.  0.
<mgrwt>
<rscale>  0 0.26076704E+04</rscale>
<asrwt>0</asrwt>
<pdfrwt beam="1">  1        2 0.41065246E+00 0.33473529E+04</pdfrwt>
<pdfrwt beam="2">  1       -2 0.31250313E+00 0.33473529E+04</pdfrwt>
<totfact> 0.58860254E-02</totfact>
</mgrwt>
</event>
<event>
11    1  0.1925069E-012  0.3570637E+04  0.7818608E-02  0.8164193E-01
         -1   -1    0    0    0  501 -0.00000000000E+00  0.00000000000E+00  0.20800112218E+04  0.20800112218E+04  0.00000000000E+00 0.  1.
          1   -1    0    0  501    0  0.00000000000E+00 -0.00000000000E+00 -0.51848232030E+04  0.51848232030E+04  0.00000000000E+00 0. -1.
    9900016    2    1    2    0    0 -0.74631319547E+03  0.59998738943E+03 -0.22899980575E+04  0.31862598285E+04  0.19977968711E+04 0.  0.
        -24    2    3    3    0    0  0.13393064454E+03  0.98226720893E+03 -0.41043308944E+03  0.10758732413E+04  0.79130418439E+02 0.  0.
        -15    1    3    3    0    0 -0.88024384001E+03 -0.38227981950E+03 -0.18795649681E+04  0.21103865872E+04  0.00000000000E+00 0.  1.
        -15    1    1    2    0    0 -0.82186047540E+03  0.30417869909E+03  0.57797232166E+03  0.10497767985E+04  0.00000000000E+00 0.  1.
         15    1    1    2    0    0  0.13558552639E+04  0.30285204956E+03 -0.66620050952E+03  0.15407420223E+04  0.00000000000E+00 0. -1.
         15    1    4    4    0    0  0.11550979226E+03  0.56728793243E+03 -0.24939717527E+03  0.63036264279E+03  0.00000000000E+00 0. -1.
        -16    1    4    4    0    0  0.18420852284E+02  0.41497927650E+03 -0.16103591417E+03  0.44551059850E+03  0.00000000000E+00 0.  1.
         16    1    1    2    0    0  0.28068702505E+03 -0.89739298197E+03 -0.66691441488E+03  0.11527680629E+04  0.00000000000E+00 0. -1.
    9900018    1    1    2    0    0 -0.68368618068E+02 -0.30962515610E+03 -0.59671320917E+02  0.33528771251E+03  0.91187600000E+02 0.  0.
<mgrwt>
<rscale>  0 0.32949055E+04</rscale>
<asrwt>0</asrwt>
<pdfrwt beam="1">  1        1 0.79766510E+00 0.35706370E+04</pdfrwt>
<pdfrwt beam="2">  1       -1 0.32000173E+00 0.35706370E+04</pdfrwt>
<totfact> 0.89129625E-05</totfact>
</mgrwt>
</event>
<event>
11    1  0.1925069E-012  0.3778704E+04  0.7818608E-02  0.8194837E-01
         -2   -1    0    0    0  501 -0.00000000000E+00  0.00000000000E+00  0.29239874459E+04  0.29239874459E+04  0.00000000000E+00 0.  1.
          2   -1    0    0  501    0  0.00000000000E+00 -0.00000000000E+00 -0.29196094998E+04  0.29196094998E+04  0.00000000000E+00 0. -1.
    9900016    2    1    2    0    0 -0.28955017332E+03 -0.70504892772E+03 -0.29664027140E+03  0.21633959874E+04  0.20028363523E+04 0.  0.
         24    2    3    3    0    0 -0.70718685998E+03  0.49768508025E+03 -0.15836361132E+03  0.88272821987E+03  0.79538561323E+02 0.  0.
        -15    1    1    2    0    0  0.32005296408E+02  0.79694446935E+03 -0.28661515782E+02  0.79810169070E+03  0.00000000000E+00 0.  1.
        -15    1    4    4    0    0 -0.39644537082E+03  0.25343993692E+03 -0.12023768479E+03  0.48565196851E+03  0.00000000000E+00 0.  1.
         15    1    1    2    0    0 -0.74526437959E+03 -0.69784630384E+03 -0.64328764529E+03  0.12067424969E+04  0.00000000000E+00 0. -1.
         15    1    3    3    0    0  0.41763668666E+03 -0.12027340080E+04 -0.13827666008E+03  0.12806677675E+04  0.00000000000E+00 0. -1.
        -16    1    1    2    0    0  0.47343539281E+03  0.15329293016E+03  0.81568922907E+03  0.95550442805E+03  0.00000000000E+00 0.  1.
         16    1    4    4    0    0 -0.31074148916E+03  0.24424514333E+03 -0.38125926531E+02  0.39707625136E+03  0.00000000000E+00 0. -1.
    9900018    1    1    2    0    0  0.52937386369E+03  0.45265783205E+03  0.15727814953E+03  0.71985234263E+03  0.91187600000E+02 0.  0.
<mgrwt>
<rscale>  0 0.31773021E+04</rscale>
<asrwt>0</asrwt>
<pdfrwt beam="1">  1        2 0.44917069E+00 0.37787041E+04</pdfrwt>
<pdfrwt beam="2">  1       -2 0.44984422E+00 0.37787041E+04</pdfrwt>
<totfact> 0.51296566E-03</totfact>
</mgrwt>
</event>
<event>
11    1  0.1925069E-012  0.2994451E+04  0.7818608E-02  0.8423897E-01
         -2   -1    0    0    0  501 -0.00000000000E+00  0.00000000000E+00  0.14058323520E+04  0.14058323520E+04  0.00000000000E+00 0.  1.
          2   -1    0    0  501    0  0.00000000000E+00 -0.00000000000E+00 -0.34232539619E+04  0.34232539619E+04  0.00000000000E+00 0. -1.
    9900016    2    1    2    0    0 -0.45379277862E+03 -0.29521725510E+03 -0.98273513960E+03  0.23303668604E+04  0.20424887358E+04 0.  0.
        -24    2    3    3    0    0 -0.93965128786E+03  0.56025088404E+03 -0.31489976919E+03  0.11412965051E+04  0.81057090824E+02 0.  0.
        -15    1    1    2    0    0 -0.41213197490E+03  0.59776086209E+03 -0.10552979049E+04  0.12809467128E+04  0.00000000000E+00 0.  1.
        -15    1    3    3    0    0  0.48585850924E+03 -0.85546813915E+03 -0.66783537041E+03  0.11890703554E+04  0.00000000000E+00 0.  1.
         15    1    4    4    0    0 -0.29725523013E+03  0.13485411811E+03 -0.10085310733E+03  0.34163965558E+03  0.00000000000E+00 0. -1.
         15    1    1    2    0    0  0.33660167969E+03 -0.31364759143E+03  0.23534952604E+03  0.51678322514E+03  0.00000000000E+00 0. -1.
        -16    1    4    4    0    0 -0.64239605773E+03  0.42539676593E+03 -0.21404666186E+03  0.79965684947E+03  0.00000000000E+00 0.  1.
         16    1    1    2    0    0  0.38673989762E+03 -0.62031251560E+02  0.31983996378E+02  0.39298676900E+03  0.00000000000E+00 0. -1.
    9900018    1    1    2    0    0  0.14258317621E+03  0.73135236004E+02 -0.24672208776E+03  0.30800274653E+03  0.91187600000E+02 0.  0.
<mgrwt>
<rscale>  0 0.24421309E+04</rscale>
<asrwt>0</asrwt>
<pdfrwt beam="1">  1        2 0.52665446E+00 0.29944514E+04</pdfrwt>
<pdfrwt beam="2">  1       -2 0.21628190E+00 0.29944514E+04</pdfrwt>
<totfact> 0.78884241E-02</totfact>
</mgrwt>
</event>
<event>
11    1  0.1925069E-012  0.4538625E+04  0.7818608E-02  0.8097248E-01
         -2   -1    0    0    0  501 -0.00000000000E+00  0.00000000000E+00  0.21383609819E+04  0.21383609819E+04  0.00000000000E+00 0.  1.
          2   -1    0    0  501    0  0.00000000000E+00 -0.00000000000E+00 -0.46081127107E+04  0.46081127107E+04  0.00000000000E+00 0. -1.
    9900016    2    1    2    0    0  0.28144173792E+03  0.40607645689E+03  0.25763984855E+03  0.20865379526E+04  0.20107597557E+04 0.  0.
        -24    2    3    3    0    0 -0.51325604431E+03  0.84483560429E+03  0.54836389521E+03  0.11333461430E+04  0.81188379888E+02 0.  0.
        -15    1    1    2    0    0 -0.10413255704E+03 -0.10117869827E+04 -0.90790388487E+03  0.13633950095E+04  0.00000000000E+00 0.  1.
        -15    1    3    3    0    0  0.79469778223E+03 -0.43875914740E+03 -0.29072404666E+03  0.95319180956E+03  0.00000000000E+00 0.  1.
         15    1    1    2    0    0  0.79003640772E+02 -0.48804952037E+03  0.17356971078E+03  0.52398507048E+03  0.00000000000E+00 0. -1.
         15    1    4    4    0    0 -0.39287641090E+03  0.57693602747E+03  0.37702203520E+03  0.79331750835E+03  0.00000000000E+00 0. -1.
        -16    1    4    4    0    0 -0.12037963341E+03  0.26789957682E+03  0.17134186001E+03  0.34002863466E+03  0.00000000000E+00 0.  1.
         16    1    1    2    0    0  0.52278473114E+03  0.95529445124E+03 -0.86046511411E+03  0.13879090663E+04  0.00000000000E+00 0. -1.
    9900018    1    1    2    0    0 -0.77909755279E+03  0.13846559499E+03 -0.11325922891E+04  0.13846465937E+04  0.91187600000E+02 0.  0.
<mgrwt>
<rscale>  0 0.35706495E+04</rscale>
<asrwt>0</asrwt>
<pdfrwt beam="1">  1        2 0.70894041E+00 0.45386250E+04</pdfrwt>
<pdfrwt beam="2">  1       -2 0.32897862E+00 0.45386250E+04</pdfrwt>
<totfact> 0.14303020E-03</totfact>
</mgrwt>
</event>
<event>
11    1  0.1925069E-012  0.3826386E+04  0.7818608E-02  0.8280129E-01
          1   -1    0    0  501    0  0.00000000000E+00  0.00000000000E+00  0.24218852042E+04  0.24218852042E+04  0.00000000000E+00 0. -1.
         -1   -1    0    0    0  501 -0.00000000000E+00 -0.00000000000E+00 -0.26357271681E+04  0.26357271681E+04  0.00000000000E+00 0.  1.
    9900016    2    1    2    0    0  0.24423210811E+02  0.29542495176E+03  0.96214873962E+03  0.22578770182E+04  0.20209913500E+04 0.  0.
         24    2    3    3    0    0 -0.86882755285E+03  0.15254440238E+03  0.10206144210E+04  0.13513837672E+04  0.80331679189E+02 0.  0.
        -15    1    1    2    0    0  0.45554925354E+03 -0.33136438044E+03 -0.10553140035E+04  0.11962504424E+04  0.00000000000E+00 0.  1.
        -15    1    4    4    0    0 -0.67731375389E+02 -0.78278793529E+01  0.92414199313E+02  0.11484423861E+03  0.00000000000E+00 0.  1.
         15    1    3    3    0    0  0.89325076366E+03  0.14288054938E+03 -0.58465681338E+02  0.90649325098E+03  0.00000000000E+00 0. -1.
         15    1    1    2    0    0 -0.28082543688E+03  0.54304725778E+03  0.31825464864E+03  0.68923818202E+03  0.00000000000E+00 0. -1.
        -16    1    1    2    0    0  0.56290420874E+02 -0.25405858891E+03 -0.47494651517E+03  0.54156123417E+03  0.00000000000E+00 0.  1.
         16    1    4    4    0    0 -0.80109617747E+03  0.16037228173E+03  0.92820022165E+03  0.12365395286E+04  0.00000000000E+00 0. -1.
    9900018    1    1    2    0    0 -0.25543744835E+03 -0.25304924019E+03  0.36015166491E+02  0.37268549554E+03  0.91187600000E+02 0.  0.
<mgrwt>
<rscale>  0 0.28757519E+04</rscale>
<asrwt>0</asrwt>
<pdfrwt beam="1">  1        1 0.37259772E+00 0.38263862E+04</pdfrwt>
<pdfrwt beam="2">  1       -1 0.40549649E+00 0.38263862E+04</pdfrwt>
<totfact> 0.76873900E-03</totfact>
</mgrwt>
</event>
<event>
11    1  0.1925069E-012  0.5774433E+04  0.7818608E-02  0.7915863E-01
          1   -1    0    0  501    0  0.00000000000E+00  0.00000000000E+00  0.42504089164E+04  0.42504089164E+04  0.00000000000E+00 0. -1.
         -1   -1    0    0    0  501 -0.00000000000E+00 -0.00000000000E+00 -0.37115325995E+04  0.37115325995E+04  0.00000000000E+00 0.  1.
    9900016    2    1    2    0    0 -0.74695122304E+03  0.11059424837E+04  0.10390112062E+04  0.26379678521E+04  0.20244221880E+04 0.  0.
        -24    2    3    3    0    0 -0.52678113527E+03 -0.54326352287E+03  0.32794475709E+03  0.82855612039E+03  0.79522708475E+02 0.  0.
        -15    1    3    3    0    0 -0.22017008777E+03  0.16492060066E+04  0.71106644909E+03  0.18094117317E+04  0.00000000000E+00 0.  1.
        -15    1    1    2    0    0 -0.33573159242E+03  0.62796908919E+03 -0.52316570125E+02  0.71400133237E+03  0.00000000000E+00 0.  1.
         15    1    1    2    0    0  0.12122467211E+04  0.38187355082E+03  0.74167376540E+03  0.14715466340E+04  0.00000000000E+00 0. -1.
         15    1    4    4    0    0 -0.18492665095E+03 -0.14419596694E+03  0.82508583623E+02  0.24859205434E+03  0.00000000000E+00 0. -1.
        -16    1    4    4    0    0 -0.34185448432E+03 -0.39906755594E+03  0.24543617347E+03  0.57996406604E+03  0.00000000000E+00 0.  1.
         16    1    1    2    0    0 -0.28630119232E+03 -0.20788677219E+04 -0.16322496046E+04  0.26585518896E+04  0.00000000000E+00 0. -1.
    9900018    1    1    2    0    0  0.15673728663E+03 -0.36917401859E+02  0.44275752001E+03  0.47987380789E+03  0.91187600000E+02 0.  0.
<mgrwt>
<rscale>  0 0.44702656E+04</rscale>
<asrwt>0</asrwt>
<pdfrwt beam="1">  1        1 0.65390906E+00 0.57744331E+04</pdfrwt>
<pdfrwt beam="2">  1       -1 0.57100502E+00 0.57744331E+04</pdfrwt>
<totfact> 0.21511834E-05</totfact>
</mgrwt>
</event>
<event>
11    1  0.1925069E-012  0.4186491E+04  0.7818608E-02  0.8176452E-01
          2   -1    0    0  501    0  0.00000000000E+00  0.00000000000E+00  0.17777198138E+04  0.17777198138E+04  0.00000000000E+00 0.  1.
         -2   -1    0    0    0  501 -0.00000000000E+00 -0.00000000000E+00 -0.49335928255E+04  0.49335928255E+04  0.00000000000E+00 0. -1.
    9900016    2    1    2    0    0  0.14775127506E+02  0.91445326006E+02 -0.17566646597E+03  0.20362052575E+04  0.20264976169E+04 0.  0.
        -24    2    3    3    0    0  0.75966452408E+03  0.81372754198E+02 -0.76675235648E+03  0.10852351214E+04  0.78194489838E+02 0.  0.
        -15    1    1    2    0    0 -0.29547035154E+03  0.47436915859E+02  0.67600248887E+03  0.73927826601E+03  0.00000000000E+00 0.  1.
        -15    1    3    3    0    0 -0.74488939657E+03  0.10072571807E+02  0.59108589050E+03  0.95097013611E+03  0.00000000000E+00 0.  1.
         15    1    1    2    0    0 -0.14722498144E+00  0.17631063181E+03 -0.75803424858E+03  0.77826819451E+03  0.00000000000E+00 0. -1.
         15    1    4    4    0    0  0.93466361618E+02  0.11430950778E+02 -0.60972773166E+02  0.11217979523E+03  0.00000000000E+00 0. -1.
        -16    1    4    4    0    0  0.66619816246E+03  0.69941803421E+02 -0.70577958331E+03  0.97305532615E+03  0.00000000000E+00 0.  1.
         16    1    1    2    0    0  0.52445765352E+03  0.82907761990E+02 -0.24403505728E+04  0.24974467853E+04  0.00000000000E+00 0. -1.
    9900018    1    1    2    0    0 -0.24361520450E+03 -0.39810063566E+03 -0.45782421313E+03  0.66011413596E+03  0.91187600000E+02 0.  0.
<mgrwt>
<rscale>  0 0.32472391E+04</rscale>
<asrwt>0</asrwt>
<pdfrwt beam="1">  1        2 0.27349536E+00 0.41864910E+04</pdfrwt>
<pdfrwt beam="2">  1       -2 0.75901427E+00 0.41864910E+04</pdfrwt>
<totfact> 0.85630560E-04</totfact>
</mgrwt>
</event>
<event>
11    1  0.1925069E-012  0.3665611E+04  0.7818608E-02  0.8241860E-01
          2   -1    0    0  501    0  0.00000000000E+00  0.00000000000E+00  0.40934139063E+04  0.40934139063E+04  0.00000000000E+00 0. -1.
         -2   -1    0    0    0  501 -0.00000000000E+00 -0.00000000000E+00 -0.17459121062E+04  0.17459121062E+04  0.00000000000E+00 0.  1.
    9900016    2    1    2    0    0  0.77882284073E+03 -0.18396782944E+02  0.15039124516E+04  0.26386605801E+04  0.20233322851E+04 0.  0.
         24    2    3    3    0    0  0.13999672676E+04  0.28449482121E+03  0.74846452082E+03  0.16148123008E+04  0.81080047640E+02 0.  0.
        -15    1    4    4    0    0  0.12120334684E+04  0.26332972719E+03  0.62423196782E+03  0.13885363602E+04  0.00000000000E+00 0.  1.
        -15    1    1    2    0    0 -0.66899566904E+03 -0.12183842026E+03  0.37523406429E+03  0.77665977676E+03  0.00000000000E+00 0.  1.
         15    1    1    2    0    0  0.91677864544E+03 -0.23379248060E+03  0.11407434763E+03  0.95297164990E+03  0.00000000000E+00 0. -1.
         15    1    3    3    0    0 -0.62114442690E+03 -0.30289160415E+03  0.75544793083E+03  0.10238482794E+04  0.00000000000E+00 0. -1.
        -16    1    1    2    0    0 -0.11237151992E+04  0.43407560326E+03  0.14151388358E+03  0.12129235992E+04  0.00000000000E+00 0.  1.
         16    1    4    4    0    0  0.18793379921E+03  0.21165094015E+02  0.12423255300E+03  0.22627594064E+03  0.00000000000E+00 0. -1.
    9900018    1    1    2    0    0  0.97109382084E+02 -0.60047919452E+02  0.21276705291E+03  0.25811040645E+03  0.91187600000E+02 0.  0.
<mgrwt>
<rscale>  0 0.30065599E+04</rscale>
<asrwt>0</asrwt>
<pdfrwt beam="1">  1        2 0.62975598E+00 0.36656114E+04</pdfrwt>
<pdfrwt beam="2">  1       -2 0.26860186E+00 0.36656114E+04</pdfrwt>
<totfact> 0.10891680E-02</totfact>
</mgrwt>
</event>
<event>
11    1  0.1925069E-012  0.3127725E+04  0.7818608E-02  0.8253824E-01
         -2   -1    0    0    0  501 -0.00000000000E+00  0.00000000000E+00  0.24538206718E+04  0.24538206718E+04  0.00000000000E+00 0.  1.
          2   -1    0    0  501    0  0.00000000000E+00 -0.00000000000E+00 -0.36574584123E+04  0.36574584123E+04  0.00000000000E+00 0. -1.
    9900016    2    1    2    0    0 -0.88072729329E+03 -0.67291845318E+03  0.18291555674E+02  0.22795651300E+04  0.19918792110E+04 0.  0.
         24    2    3    3    0    0 -0.10241944354E+04 -0.95369866742E+03 -0.64658909467E+03  0.15437073797E+04  0.80247285956E+02 0.  0.
        -15    1    4    4    0    0 -0.79943458993E+03 -0.78717946802E+03 -0.52508534024E+03  0.12387339476E+04  0.00000000000E+00 0.  1.
        -15    1    1    2    0    0  0.13247342862E+04 -0.25383647265E+03 -0.69708944256E+02  0.13506343772E+04  0.00000000000E+00 0.  1.
         15    1    1    2    0    0  0.17543329783E+03  0.61336868549E+03 -0.14821270281E+04  0.16135980025E+04  0.00000000000E+00 0. -1.
         15    1    3    3    0    0  0.14346714213E+03  0.28078021424E+03  0.66488065034E+03  0.73585775037E+03  0.00000000000E+00 0. -1.
        -16    1    1    2    0    0 -0.60347395711E+03  0.35456530036E+03  0.27307212510E+03  0.75130936014E+03  0.00000000000E+00 0.  1.
         16    1    4    4    0    0 -0.22475984549E+03 -0.16651919940E+03 -0.12150375443E+03  0.30497343204E+03  0.00000000000E+00 0. -1.
    9900018    1    1    2    0    0 -0.15966333606E+02 -0.41179060018E+02  0.56834551068E+02  0.11617221433E+03  0.91187600000E+02 0.  0.
<mgrwt>
<rscale>  0 0.29649066E+04</rscale>
<asrwt>0</asrwt>
<pdfrwt beam="1">  1        2 0.56268590E+00 0.31277246E+04</pdfrwt>
<pdfrwt beam="2">  1       -2 0.37751088E+00 0.31277246E+04</pdfrwt>
<totfact> 0.51282237E-03</totfact>
</mgrwt>
</event>
<event>
11    1  0.1925069E-012  0.4830619E+04  0.7818608E-02  0.8059702E-01
          1   -1    0    0  501    0  0.00000000000E+00  0.00000000000E+00  0.42339096200E+04  0.42339096200E+04  0.00000000000E+00 0. -1.
         -1   -1    0    0    0  501 -0.00000000000E+00 -0.00000000000E+00 -0.25845616263E+04  0.25845616263E+04  0.00000000000E+00 0.  1.
    9900016    2    1    2    0    0  0.34581760313E+03  0.44664816030E+03 -0.18340411169E+03  0.21069250054E+04  0.20214874515E+04 0.  0.
        -24    2    3    3    0    0  0.91524888571E+03 -0.40159461531E+03  0.18743262063E+03  0.10200544179E+04  0.80132829128E+02 0.  0.
        -15    1    1    2    0    0  0.43827733713E+00 -0.11493952798E+04  0.17998483572E+03  0.11634020123E+04  0.00000000000E+00 0.  1.
        -15    1    3    3    0    0 -0.56943128258E+03  0.84824277562E+03 -0.37083673232E+03  0.10868705875E+04  0.00000000000E+00 0.  1.
         15    1    1    2    0    0  0.55348458240E+03 -0.41129956106E+02 -0.12354262877E+03  0.56859444015E+03  0.00000000000E+00 0. -1.
         15    1    4    4    0    0  0.51185908141E+03 -0.25992495491E+03  0.84105862104E+02  0.58020211776E+03  0.00000000000E+00 0. -1.
        -16    1    4    4    0    0  0.40338980429E+03 -0.14166966040E+03  0.10332675852E+03  0.43985230011E+03  0.00000000000E+00 0.  1.
         16    1    1    2    0    0  0.41340453262E+03  0.44237283512E+03  0.14771351687E+04  0.15964101413E+04  0.00000000000E+00 0. -1.
    9900018    1    1    2    0    0 -0.13131449955E+04  0.30150424045E+03  0.29917472971E+03  0.13831396471E+04  0.91187600000E+02 0.  0.
<mgrwt>
<rscale>  0 0.37374994E+04</rscale>
<asrwt>0</asrwt>
<pdfrwt beam="1">  1        1 0.65137071E+00 0.48306187E+04</pdfrwt>
<pdfrwt beam="2">  1       -1 0.39762487E+00 0.48306187E+04</pdfrwt>
<totfact> 0.30117839E-04</totfact>
</mgrwt>
</event>
<event>
11    1  0.1925069E-012  0.2856694E+04  0.7818608E-02  0.8461100E-01
          2   -1    0    0  501    0  0.00000000000E+00  0.00000000000E+00  0.27752570818E+04  0.27752570818E+04  0.00000000000E+00 0.  1.
         -2   -1    0    0    0  501 -0.00000000000E+00 -0.00000000000E+00 -0.16458551334E+04  0.16458551334E+04  0.00000000000E+00 0. -1.
    9900016    2    1    2    0    0 -0.25380638645E+03  0.46182693986E+02  0.50856888037E+02  0.20400673588E+04  0.20230516262E+04 0.  0.
         24    2    3    3    0    0 -0.62803294907E+02 -0.45997732879E+03  0.91003366211E+03  0.10247521966E+04  0.80202252588E+02 0.  0.
        -15    1    1    2    0    0 -0.50394537620E+03  0.10376785410E+03  0.15498492755E+03  0.53735373592E+03  0.00000000000E+00 0.  1.
        -15    1    4    4    0    0  0.84561471573E+01 -0.94275877022E+02  0.24185028156E+03  0.25971331522E+03  0.00000000000E+00 0.  1.
         15    1    1    2    0    0  0.27619233149E+03 -0.67731123107E+03  0.70247266782E+03  0.10141501648E+04  0.00000000000E+00 0. -1.
         15    1    3    3    0    0 -0.19100309154E+03  0.50616002278E+03 -0.85917677407E+03  0.10153151623E+04  0.00000000000E+00 0. -1.
        -16    1    1    2    0    0  0.43736499709E+03  0.45909495039E+03  0.28088852679E+03  0.69350896074E+03  0.00000000000E+00 0.  1.
         16    1    4    4    0    0 -0.71259442064E+02 -0.36570145177E+03  0.66818338055E+03  0.76503888133E+03  0.00000000000E+00 0. -1.
    9900018    1    1    2    0    0  0.44194434069E+02  0.68265732593E+02 -0.59801061825E+02  0.13603199491E+03  0.91187600000E+02 0.  0.
<mgrwt>
<rscale>  0 0.23431497E+04</rscale>
<asrwt>0</asrwt>
<pdfrwt beam="1">  1        2 0.42696263E+00 0.28566936E+04</pdfrwt>
<pdfrwt beam="2">  1       -2 0.25320848E+00 0.28566936E+04</pdfrwt>
<totfact> 0.12209275E-01</totfact>
</mgrwt>
</event>
