<event>
12    1  0.8995811E-015  0.1975738E+04  0.7818608E-02  0.8618048E-01
          2   -1    0    0  501    0  0.00000000000E+00  0.00000000000E+00  0.16326241930E+04  0.16326241930E+04  0.00000000000E+00 0. -1.
         -2   -1    0    0    0  501 -0.00000000000E+00 -0.00000000000E+00 -0.59774048168E+03  0.59774048168E+03  0.00000000000E+00 0.  1.
    9900016    2    1    2    0    0 -0.26763819371E+03 -0.72671686406E+02  0.58365296965E+03  0.10341500089E+04  0.80740576858E+03 0.  0.
         23    2    3    3    0    0  0.24725687112E+02 -0.19823483063E+03  0.38831468710E+03  0.45391205395E+03  0.12385252853E+03 0.  0.
         23    2    3    3    0    0 -0.26721901107E+03  0.17808606831E+03 -0.47375149888E+02  0.33063680847E+03  0.62893932018E+02 0.  0.
        -15    1    5    5    0    0 -0.24569899970E+02  0.79959093717E+01 -0.20709068061E+02  0.33113140159E+02  0.00000000000E+00 0. -1.
        -15    1    4    4    0    0  0.34284947655E+02 -0.14731674529E+03  0.36869409949E+03  0.39851351304E+03  0.00000000000E+00 0.  1.
         15    1    5    5    0    0 -0.24264911110E+03  0.17009015893E+03 -0.26666081827E+02  0.29752366831E+03  0.00000000000E+00 0. -1.
         15    1    4    4    0    0 -0.95592605427E+01 -0.50918085337E+02  0.19620587618E+02  0.55398540910E+02  0.00000000000E+00 0.  1.
        -16    1    1    2    0    0  0.51173139881E+03 -0.32240507855E+03  0.11498119592E+03  0.61565796886E+03  0.00000000000E+00 0.  1.
         16    1    3    3    0    0 -0.25144869752E+02 -0.52522924086E+02  0.24271343244E+03  0.24960114646E+03  0.00000000000E+00 0. -1.
    9900018    1    1    2    0    0 -0.24409320510E+03  0.39507676495E+03  0.33624954579E+03  0.58055669699E+03  0.91187600000E+02 0.  0.
<mgrwt>
<rscale>  0 0.19757384E+04</rscale>
<asrwt>0</asrwt>
<pdfrwt beam="1">  1        2 0.25117295E+00 0.19757384E+04</pdfrwt>
<pdfrwt beam="2">  1       -2 0.91960075E-01 0.19757384E+04</pdfrwt>
<totfact> 0.10007821E+01</totfact>
</mgrwt>
</event>
<event>
12    1  0.8995811E-015  0.1263617E+04  0.7818608E-02  0.9058925E-01
          1   -1    0    0  501    0  0.00000000000E+00  0.00000000000E+00  0.63908043670E+03  0.63908043670E+03  0.00000000000E+00 0. -1.
         -1   -1    0    0    0  501 -0.00000000000E+00 -0.00000000000E+00 -0.62461922536E+03  0.62461922536E+03  0.00000000000E+00 0.  1.
    9900016    2    1    2    0    0 -0.44095155217E+02  0.12875755635E+02  0.37107187526E+02  0.62881204019E+03  0.62603312270E+03 0.  0.
         23    2    3    3    0    0 -0.14555804767E+03 -0.80162744095E+02  0.19441405574E+03  0.26557628315E+03  0.71559250432E+02 0.  0.
         23    2    3    3    0    0 -0.66176439641E+02  0.76621174362E+02 -0.80297790842E+02  0.17802541111E+03  0.12245483357E+03 0.  0.
        -15    1    4    4    0    0 -0.40319329333E+02 -0.29277210674E+02  0.11189868551E+03  0.12249130256E+03  0.00000000000E+00 0.  1.
        -15    1    5    5    0    0 -0.60353915955E+02  0.98759608669E+02 -0.95911197987E+02  0.15031637760E+03  0.00000000000E+00 0. -1.
         15    1    4    4    0    0 -0.10523871834E+03 -0.50885533421E+02  0.82515370228E+02  0.14308498060E+03  0.00000000000E+00 0. -1.
         15    1    5    5    0    0 -0.58225236862E+01 -0.22138434307E+02  0.15613407145E+02  0.27709033514E+02  0.00000000000E+00 0.  1.
        -16    1    3    3    0    0  0.16763933209E+03  0.16417325368E+02 -0.77009077372E+02  0.18521034592E+03  0.00000000000E+00 0.  1.
         16    1    1    2    0    0  0.65324541088E+01 -0.31420788320E+03 -0.42853990230E+02  0.31718406533E+03  0.00000000000E+00 0. -1.
    9900018    1    1    2    0    0  0.37562701108E+02  0.30133212756E+03  0.20208014047E+02  0.31770355654E+03  0.91187600000E+02 0.  0.
<mgrwt>
<rscale>  0 0.12636169E+04</rscale>
<asrwt>0</asrwt>
<pdfrwt beam="1">  1        1 0.98320067E-01 0.12636169E+04</pdfrwt>
<pdfrwt beam="2">  1       -1 0.96095266E-01 0.12636169E+04</pdfrwt>
<totfact> 0.32121057E+01</totfact>
</mgrwt>
</event>
<event>
12    1  0.8995811E-015  0.1859131E+04  0.7818608E-02  0.8675471E-01
         -1   -1    0    0    0  501 -0.00000000000E+00  0.00000000000E+00  0.46077013033E+03  0.46077013033E+03  0.00000000000E+00 0.  1.
          1   -1    0    0  501    0  0.00000000000E+00 -0.00000000000E+00 -0.18753219501E+04  0.18753219501E+04  0.00000000000E+00 0. -1.
    9900016    2    1    2    0    0 -0.12981748570E+03 -0.53129979173E+03 -0.55967795060E+03  0.10119632730E+04  0.64163713203E+03 0.  0.
         23    2    3    3    0    0  0.44280014811E+02  0.83357057090E+02 -0.40919403443E+02  0.12205588960E+03  0.65681990912E+02 0.  0.
         23    2    3    3    0    0 -0.72239598650E+01 -0.81446996239E+02 -0.24557343775E+03  0.26798324857E+03  0.69447169815E+02 0.  0.
        -15    1    4    4    0    0 -0.32513672960E+01  0.30870888763E+02 -0.40774521794E+02  0.51245924617E+02  0.00000000000E+00 0. -1.
        -15    1    5    5    0    0 -0.31899233355E+02 -0.45384867614E+02 -0.84454003419E+02  0.10104368358E+03  0.00000000000E+00 0. -1.
         15    1    5    5    0    0  0.24675273490E+02 -0.36062128625E+02 -0.16111943433E+03  0.16693956499E+03  0.00000000000E+00 0.  1.
         15    1    4    4    0    0  0.47531382107E+02  0.52486168327E+02 -0.14488164955E+00  0.70809964986E+02  0.00000000000E+00 0.  1.
        -16    1    3    3    0    0 -0.16687354065E+03 -0.53320985258E+03 -0.27318510941E+03  0.62192413481E+03  0.00000000000E+00 0.  1.
         16    1    1    2    0    0  0.36862352651E+03  0.63526524461E+03 -0.59816016588E+03  0.94722796589E+03  0.00000000000E+00 0. -1.
    9900018    1    1    2    0    0 -0.23880604081E+03 -0.10396545288E+03 -0.25671370331E+03  0.37690084158E+03  0.91187600000E+02 0.  0.
<mgrwt>
<rscale>  0 0.18591313E+04</rscale>
<asrwt>0</asrwt>
<pdfrwt beam="1">  1        1 0.28851107E+00 0.18591313E+04</pdfrwt>
<pdfrwt beam="2">  1       -1 0.70887712E-01 0.18591313E+04</pdfrwt>
<totfact> 0.68343983E+00</totfact>
</mgrwt>
</event>
<event>
12    1  0.8995811E-015  0.2188345E+04  0.7818608E-02  0.8523295E-01
         -1   -1    0    0    0  501 -0.00000000000E+00  0.00000000000E+00  0.14743427306E+04  0.14743427306E+04  0.00000000000E+00 0.  1.
          1   -1    0    0  501    0  0.00000000000E+00 -0.00000000000E+00 -0.81203172224E+03  0.81203172224E+03  0.00000000000E+00 0. -1.
    9900016    2    1    2    0    0 -0.78495443197E+02  0.12518932563E+03 -0.13492206060E+03  0.66757648108E+03  0.63688342245E+03 0.  0.
         23    2    3    3    0    0 -0.31585747394E+03  0.12298495970E+03 -0.14443103245E+03  0.38523643271E+03  0.11249685239E+03 0.  0.
         23    2    3    3    0    0  0.16602286629E+03 -0.58114969981E+02  0.42652444495E+01  0.18877084753E+03  0.68376155920E+02 0.  0.
        -15    1    4    4    0    0 -0.23922248666E+03  0.11297915136E+03 -0.15594170553E+03  0.30709852212E+03  0.00000000000E+00 0. -1.
        -15    1    5    5    0    0  0.65029837054E+02 -0.42474003528E+02 -0.26459705465E+02  0.82055083305E+02  0.00000000000E+00 0.  1.
         15    1    4    4    0    0 -0.76634987278E+02  0.10005808343E+02  0.11510673087E+02  0.78137910585E+02  0.00000000000E+00 0.  1.
         15    1    5    5    0    0  0.10099302924E+03 -0.15640966453E+02  0.30724949914E+02  0.10671576422E+03  0.00000000000E+00 0. -1.
        -16    1    1    2    0    0  0.55189227735E+03 -0.29150351041E+03  0.90324822197E+03  0.10979147202E+04  0.00000000000E+00 0.  1.
         16    1    3    3    0    0  0.71339164448E+02  0.60319335909E+02  0.52437273933E+01  0.93569200839E+02  0.00000000000E+00 0. -1.
    9900018    1    1    2    0    0 -0.47339683416E+03  0.16631418478E+03 -0.10601515304E+03  0.52088325152E+03  0.91187600000E+02 0.  0.
<mgrwt>
<rscale>  0 0.21883446E+04</rscale>
<asrwt>0</asrwt>
<pdfrwt beam="1">  1        1 0.12492796E+00 0.21883446E+04</pdfrwt>
<pdfrwt beam="2">  1       -1 0.22682196E+00 0.21883446E+04</pdfrwt>
<totfact> 0.19517427E+00</totfact>
</mgrwt>
</event>
<event>
12    1  0.8995811E-015  0.2949583E+04  0.7818608E-02  0.8258276E-01
          1   -1    0    0  501    0  0.00000000000E+00  0.00000000000E+00  0.17700544718E+04  0.17700544718E+04  0.00000000000E+00 0. -1.
         -1   -1    0    0    0  501 -0.00000000000E+00 -0.00000000000E+00 -0.12287812763E+04  0.12287812763E+04  0.00000000000E+00 0.  1.
    9900016    2    1    2    0    0 -0.24210512721E+03  0.33736719264E+03 -0.24487978399E+03  0.73185533590E+03  0.55064926113E+03 0.  0.
         23    2    3    3    0    0 -0.13866538559E+03  0.38710285720E+03 -0.46060291922E+02  0.42972078467E+03  0.11602452789E+03 0.  0.
         23    2    3    3    0    0 -0.13714349389E+03 -0.71147170229E+02 -0.19841579857E+03  0.26220262840E+03  0.74236995273E+02 0.  0.
        -15    1    4    4    0    0 -0.51773529523E+02  0.23540201464E+03 -0.75196206535E+02  0.25248579432E+03  0.00000000000E+00 0. -1.
        -15    1    5    5    0    0 -0.10549724940E+03 -0.85883916073E+02 -0.14978660235E+03  0.20234066055E+03  0.00000000000E+00 0.  1.
         15    1    4    4    0    0 -0.86891856067E+02  0.15170084256E+03  0.29135914613E+02  0.17723499035E+03  0.00000000000E+00 0.  1.
         15    1    5    5    0    0 -0.31646244493E+02  0.14736745844E+02 -0.48629196227E+02  0.59861967845E+02  0.00000000000E+00 0. -1.
        -16    1    3    3    0    0  0.33703752273E+02  0.21411505670E+02 -0.40369349194E+00  0.39931922828E+02  0.00000000000E+00 0.  1.
         16    1    1    2    0    0  0.59479231834E+03 -0.26360244592E+01  0.13748583843E+04  0.14980054831E+04  0.00000000000E+00 0. -1.
    9900018    1    1    2    0    0 -0.35268719113E+03 -0.33473116818E+03 -0.58870540470E+03  0.76897492915E+03  0.91187600000E+02 0.  0.
<mgrwt>
<rscale>  0 0.29495829E+04</rscale>
<asrwt>0</asrwt>
<pdfrwt beam="1">  1        1 0.27231607E+00 0.29495829E+04</pdfrwt>
<pdfrwt beam="2">  1       -1 0.18904327E+00 0.29495829E+04</pdfrwt>
<totfact> 0.65495421E-01</totfact>
</mgrwt>
</event>
<event>
12    1  0.8995811E-015  0.1186533E+04  0.7818608E-02  0.9124726E-01
         -1   -1    0    0    0  501 -0.00000000000E+00  0.00000000000E+00  0.43280433847E+03  0.43280433847E+03  0.00000000000E+00 0.  1.
          1   -1    0    0  501    0  0.00000000000E+00 -0.00000000000E+00 -0.81322002597E+03  0.81322002597E+03  0.00000000000E+00 0. -1.
    9900016    2    1    2    0    0 -0.46459795490E+02  0.79829038513E+02 -0.54643470833E+03  0.85195339542E+03  0.64707225988E+03 0.  0.
         23    2    3    3    0    0 -0.62803554812E+02 -0.10721574582E+03 -0.38604309908E+02  0.17424322210E+03  0.11589178165E+03 0.  0.
         23    2    3    3    0    0 -0.85950958125E+02  0.10746575963E+03 -0.36386464981E+01  0.15712746798E+03  0.75758463234E+02 0.  0.
        -15    1    5    5    0    0 -0.45391306775E+02  0.12008118422E+02  0.19532466232E+02  0.50853543396E+02  0.00000000000E+00 0. -1.
        -15    1    4    4    0    0 -0.96194583914E+02 -0.65050677696E+02 -0.25918441678E+02  0.11898215943E+03  0.00000000000E+00 0.  1.
         15    1    4    4    0    0  0.33391029102E+02 -0.42165068127E+02 -0.12685868229E+02  0.55261062669E+02  0.00000000000E+00 0. -1.
         15    1    5    5    0    0 -0.40559651350E+02  0.95457641204E+02 -0.23171112730E+02  0.10627392459E+03  0.00000000000E+00 0.  1.
        -16    1    1    2    0    0  0.22548510341E+02 -0.17443685665E+03  0.18940893652E+03  0.25848094225E+03  0.00000000000E+00 0.  1.
         16    1    3    3    0    0  0.10229471745E+03  0.79579024710E+02 -0.50419175192E+03  0.52058270534E+03  0.00000000000E+00 0. -1.
    9900018    1    1    2    0    0  0.23911285149E+02  0.94607818133E+02 -0.23389915696E+02  0.13559002677E+03  0.91187600000E+02 0.  0.
<mgrwt>
<rscale>  0 0.11865330E+04</rscale>
<asrwt>0</asrwt>
<pdfrwt beam="1">  1        1 0.12511077E+00 0.11865330E+04</pdfrwt>
<pdfrwt beam="2">  1       -1 0.66585284E-01 0.11865330E+04</pdfrwt>
<totfact> 0.48760368E+01</totfact>
</mgrwt>
</event>
<event>
11    1  0.8995811E-015  0.1071286E+04  0.7818608E-02  0.9891065E-01
          2   -1    0    0  501    0  0.00000000000E+00  0.00000000000E+00  0.47177353281E+03  0.47177353281E+03  0.00000000000E+00 0. -1.
         -2   -1    0    0    0  501 -0.00000000000E+00 -0.00000000000E+00 -0.74583124067E+03  0.74583124067E+03  0.00000000000E+00 0.  1.
         23    2    1    2    0    0  0.15579166190E+02  0.15176879824E+03 -0.11666723015E+03  0.20362214426E+03  0.67633249976E+02 0.  0.
         23    2    1    2    0    0  0.23010993243E+02  0.24528290552E+02 -0.58182359449E+02  0.12478484485E+03  0.10514241630E+03 0.  0.
        -15    1    3    3    0    0  0.33923107320E+02  0.11484910832E+03 -0.61125094466E+02  0.13445211812E+03  0.00000000000E+00 0.  1.
        -15    1    4    4    0    0 -0.23045927503E+02  0.23682613487E+01 -0.68788728894E+02  0.72585209644E+02  0.00000000000E+00 0.  1.
         15    1    3    3    0    0 -0.18343941130E+02  0.36919689917E+02 -0.55542135682E+02  0.69170026137E+02  0.00000000000E+00 0. -1.
         15    1    4    4    0    0  0.46056920746E+02  0.22160029203E+02  0.10606369445E+02  0.52199635207E+02  0.00000000000E+00 0. -1.
        -16    1    1    2    0    0  0.20753042051E+03  0.19087441224E+02 -0.22192514221E+03  0.30444042865E+03  0.00000000000E+00 0.  1.
         16    1    1    2    0    0  0.10096722843E+03 -0.30338143182E+02  0.15608028954E+03  0.18835031439E+03  0.00000000000E+00 0. -1.
    9900018    1    1    2    0    0 -0.34708780838E+03 -0.16504638683E+03 -0.33363265586E+02  0.39640704133E+03  0.91187600000E+02 0.  0.
<mgrwt>
<rscale>  0 0.60696265E+03</rscale>
<asrwt>0</asrwt>
<pdfrwt beam="1">  1        2 0.72580544E-01 0.10712858E+04</pdfrwt>
<pdfrwt beam="2">  1       -2 0.11474327E+00 0.10712858E+04</pdfrwt>
<totfact> 0.38773423E+01</totfact>
</mgrwt>
</event>
<event>
12    1  0.8995811E-015  0.1659444E+04  0.7818608E-02  0.8784839E-01
          2   -1    0    0  501    0  0.00000000000E+00  0.00000000000E+00  0.99722283011E+03  0.99722283011E+03  0.00000000000E+00 0. -1.
         -2   -1    0    0    0  501 -0.00000000000E+00 -0.00000000000E+00 -0.69035614688E+03  0.69035614688E+03  0.00000000000E+00 0.  1.
    9900016    2    1    2    0    0 -0.32456346091E+03  0.26286215745E+03  0.15561311327E+03  0.92862562010E+03  0.81467303091E+03 0.  0.
         23    2    3    3    0    0  0.11473110764E+03  0.13072619938E+03  0.24654372832E+03  0.31065564050E+03  0.73963171459E+02 0.  0.
         23    2    3    3    0    0 -0.53784369495E+02 -0.86546556568E+02  0.44593351855E+02  0.15449732519E+03  0.10722775575E+03 0.  0.
        -15    1    5    5    0    0 -0.10323482913E+02 -0.15023595708E+02  0.65702291262E+02  0.68184116952E+02  0.00000000000E+00 0. -1.
        -15    1    4    4    0    0  0.16400163464E+02  0.42547633997E+02  0.23151241669E+02  0.51139480944E+02  0.00000000000E+00 0. -1.
         15    1    5    5    0    0 -0.43460886582E+02 -0.71522960861E+02 -0.21108939407E+02  0.86313208234E+02  0.00000000000E+00 0.  1.
         15    1    4    4    0    0  0.98330944172E+02  0.88178565385E+02  0.22339248665E+03  0.25951615955E+03  0.00000000000E+00 0.  1.
        -16    1    3    3    0    0 -0.38551019905E+03  0.21868251464E+03 -0.13552396691E+03  0.46347265442E+03  0.00000000000E+00 0.  1.
         16    1    1    2    0    0  0.37383253378E+03 -0.41561712131E+03  0.11966728752E+03  0.57167177169E+03  0.00000000000E+00 0. -1.
    9900018    1    1    2    0    0 -0.49269072869E+02  0.15275496386E+03  0.31586282447E+02  0.18728158521E+03  0.91187600000E+02 0.  0.
<mgrwt>
<rscale>  0 0.16594444E+04</rscale>
<asrwt>0</asrwt>
<pdfrwt beam="1">  1        2 0.15341890E+00 0.16594444E+04</pdfrwt>
<pdfrwt beam="2">  1       -2 0.10620864E+00 0.16594444E+04</pdfrwt>
<totfact> 0.17267966E+01</totfact>
</mgrwt>
</event>
<event>
 9    1  0.8995811E-015  0.1693635E+04  0.7818608E-02  0.9249810E-01
         -2   -1    0    0    0  501 -0.00000000000E+00  0.00000000000E+00  0.43150256349E+03  0.43150256349E+03  0.00000000000E+00 0.  1.
          2   -1    0    0  501    0  0.00000000000E+00 -0.00000000000E+00 -0.22192385236E+04  0.22192385236E+04  0.00000000000E+00 0. -1.
        -15    1    1    2    0    0 -0.62156086012E+02  0.17218927991E+02 -0.84093964834E+02  0.10597955195E+03  0.00000000000E+00 0.  1.
        -15    1    1    2    0    0 -0.27899846878E+02 -0.10162720809E+03 -0.26684317760E+03  0.28690028288E+03  0.00000000000E+00 0. -1.
         15    1    1    2    0    0  0.64253996271E+02  0.71577120744E+01 -0.17498052649E+03  0.18654220308E+03  0.00000000000E+00 0.  1.
         15    1    1    2    0    0  0.17052257737E+02 -0.10967784443E+03 -0.54782140106E+02  0.12377839847E+03  0.00000000000E+00 0. -1.
        -16    1    1    2    0    0 -0.69921262989E+03  0.23926067551E+02 -0.33996640952E+03  0.77784826162E+03  0.00000000000E+00 0.  1.
         16    1    1    2    0    0  0.33036817513E+02  0.87788395150E+02 -0.15733265355E+03  0.18317149753E+03  0.00000000000E+00 0. -1.
    9900018    1    1    2    0    0  0.67492549126E+03  0.75213949755E+02 -0.70973708798E+03  0.98652089154E+03  0.91187600000E+02 0.  0.
<mgrwt>
<rscale>  0 0.10553768E+04</rscale>
<asrwt>0</asrwt>
<pdfrwt beam="1">  1        2 0.34142131E+00 0.16936349E+04</pdfrwt>
<pdfrwt beam="2">  1       -2 0.66385011E-01 0.16936349E+04</pdfrwt>
<totfact> 0.99565093E+00</totfact>
</mgrwt>
</event>
<event>
12    1  0.8995811E-015  0.1924512E+04  0.7818608E-02  0.8642751E-01
         -2   -1    0    0    0  501 -0.00000000000E+00  0.00000000000E+00  0.82608314220E+03  0.82608314220E+03  0.00000000000E+00 0.  1.
          2   -1    0    0  501    0  0.00000000000E+00 -0.00000000000E+00 -0.11208756886E+04  0.11208756886E+04  0.00000000000E+00 0. -1.
    9900016    2    1    2    0    0 -0.22719311834E+03  0.20807241960E+03  0.97101153654E+02  0.85399145046E+03  0.79054532988E+03 0.  0.
         23    2    3    3    0    0 -0.22953004304E+03  0.14170126745E+03 -0.22921650200E+02  0.29034684099E+03  0.10494091750E+03 0.  0.
         23    2    3    3    0    0 -0.13170383098E+03 -0.14682826481E+02 -0.16608874181E+03  0.23745986397E+03  0.10601996204E+03 0.  0.
        -15    1    5    5    0    0 -0.59787757367E+02 -0.44455082385E+02 -0.29263363048E+02  0.80044829301E+02  0.00000000000E+00 0.  1.
        -15    1    4    4    0    0 -0.17730728151E+03  0.65135192894E+02 -0.46873910841E+02  0.19462175867E+03  0.00000000000E+00 0. -1.
         15    1    4    4    0    0 -0.52222761534E+02  0.76566074553E+02  0.23952260642E+02  0.95725082317E+02  0.00000000000E+00 0.  1.
         15    1    5    5    0    0 -0.71916073610E+02  0.29772255904E+02 -0.13682537877E+03  0.15741503467E+03  0.00000000000E+00 0. -1.
        -16    1    3    3    0    0  0.13404075568E+03  0.81053978635E+02  0.28611154567E+03  0.32618474551E+03  0.00000000000E+00 0.  1.
         16    1    1    2    0    0  0.59406212235E+02  0.22982441098E+03 -0.54242086496E+03  0.59208846693E+03  0.00000000000E+00 0. -1.
    9900018    1    1    2    0    0  0.16778690610E+03 -0.43789683058E+03  0.15052716493E+03  0.50087891338E+03  0.91187600000E+02 0.  0.
<mgrwt>
<rscale>  0 0.19245119E+04</rscale>
<asrwt>0</asrwt>
<pdfrwt beam="1">  1        2 0.17244241E+00 0.19245119E+04</pdfrwt>
<pdfrwt beam="2">  1       -2 0.12708971E+00 0.19245119E+04</pdfrwt>
<totfact> 0.90930165E+00</totfact>
</mgrwt>
</event>
<event>
12    1  0.8995811E-015  0.1022580E+04  0.7818608E-02  0.9284120E-01
          4   -1    0    0  501    0  0.00000000000E+00  0.00000000000E+00  0.10107354805E+04  0.10107354805E+04  0.00000000000E+00 0. -1.
         -4   -1    0    0    0  501 -0.00000000000E+00 -0.00000000000E+00 -0.25864095055E+03  0.25864095055E+03  0.00000000000E+00 0.  1.
    9900016    2    1    2    0    0  0.43351708111E+02 -0.55250704693E+02  0.42669785336E+03  0.90037644142E+03  0.78973075617E+03 0.  0.
         23    2    3    3    0    0 -0.23101777914E+03  0.73538921601E+01  0.23861140126E+03  0.34132642716E+03  0.78390274001E+02 0.  0.
         23    2    3    3    0    0  0.14015558003E+03 -0.21278638611E+03 -0.57844455934E+01  0.27948988176E+03  0.11471487030E+03 0.  0.
        -15    1    4    4    0    0 -0.10599271346E+03 -0.22637611218E+02  0.15048034061E+03  0.18544877907E+03  0.00000000000E+00 0.  1.
        -15    1    5    5    0    0  0.37905164763E+02 -0.64670045014E+02 -0.54914413639E+02  0.92922597161E+02  0.00000000000E+00 0.  1.
         15    1    5    5    0    0  0.10225041527E+03 -0.14811634109E+03  0.49129968045E+02  0.18656728460E+03  0.00000000000E+00 0. -1.
         15    1    4    4    0    0 -0.12502506567E+03  0.29991503378E+02  0.88131060645E+02  0.15587764808E+03  0.00000000000E+00 0. -1.
        -16    1    3    3    0    0  0.13421390722E+03  0.15018178925E+03  0.19387089769E+03  0.27956013251E+03  0.00000000000E+00 0.  1.
         16    1    1    2    0    0 -0.28004677224E+02  0.35240097112E+02  0.23102542055E+03  0.23536964828E+03  0.00000000000E+00 0. -1.
    9900018    1    1    2    0    0 -0.15347030887E+02  0.20010607581E+02  0.94371256070E+02  0.13363034139E+03  0.91187600000E+02 0.  0.
<mgrwt>
<rscale>  0 0.10225802E+04</rscale>
<asrwt>0</asrwt>
<pdfrwt beam="1">  1        4 0.15549776E+00 0.10225802E+04</pdfrwt>
<pdfrwt beam="2">  1       -4 0.39790916E-01 0.10225802E+04</pdfrwt>
<totfact> 0.33080306E+00</totfact>
</mgrwt>
</event>
<event>
12    1  0.8995811E-015  0.1295837E+04  0.7818608E-02  0.9032873E-01
         -1   -1    0    0    0  501 -0.00000000000E+00  0.00000000000E+00  0.40750369135E+03  0.40750369135E+03  0.00000000000E+00 0.  1.
          1   -1    0    0  501    0  0.00000000000E+00 -0.00000000000E+00 -0.10301703848E+04  0.10301703848E+04  0.00000000000E+00 0. -1.
    9900016    2    1    2    0    0  0.68275869592E+02 -0.66704129198E+02 -0.67268521673E+03  0.90390208735E+03  0.59617325290E+03 0.  0.
         23    2    3    3    0    0 -0.11910414296E+03  0.14819993044E+03 -0.33058001619E+03  0.39772235399E+03  0.11291991634E+03 0.  0.
         23    2    3    3    0    0  0.64467657932E+02 -0.60709939056E+02 -0.25320839801E+03  0.28987921268E+03  0.10988034176E+03 0.  0.
        -15    1    4    4    0    0 -0.76505959802E+02  0.40667057528E+02 -0.22504564065E+03  0.24114831915E+03  0.00000000000E+00 0. -1.
        -15    1    5    5    0    0  0.35677579053E+02 -0.77017442109E+02 -0.23944274362E+03  0.25404212940E+03  0.00000000000E+00 0. -1.
         15    1    4    4    0    0 -0.42598183162E+02  0.10753287291E+03 -0.10553437554E+03  0.15657403484E+03  0.00000000000E+00 0.  1.
         15    1    5    5    0    0  0.28790078879E+02  0.16307503053E+02 -0.13765654383E+02  0.35837083283E+02  0.00000000000E+00 0.  1.
        -16    1    1    2    0    0 -0.24289076331E+03 -0.10608927846E+03 -0.88808873692E+01  0.26519752651E+03  0.00000000000E+00 0.  1.
         16    1    3    3    0    0  0.12291235462E+03 -0.15419412058E+03 -0.88896802539E+02  0.21630052067E+03  0.00000000000E+00 0. -1.
    9900018    1    1    2    0    0  0.17461489372E+03  0.17279340766E+03  0.58899410638E+02  0.26857446231E+03  0.91187600000E+02 0.  0.
<mgrwt>
<rscale>  0 0.12958368E+04</rscale>
<asrwt>0</asrwt>
<pdfrwt beam="1">  1        1 0.15848775E+00 0.12958368E+04</pdfrwt>
<pdfrwt beam="2">  1       -1 0.62692876E-01 0.12958368E+04</pdfrwt>
<totfact> 0.36359075E+01</totfact>
</mgrwt>
</event>
