<event>
13    1  0.2550345E-012  0.8514760E+04  0.7818608E-02  0.7438648E-01
          2   -1    0    0  501    0  0.00000000000E+00  0.00000000000E+00  0.32470526999E+04  0.32470526999E+04  0.00000000000E+00 0. -1.
         -2   -1    0    0    0  501 -0.00000000000E+00 -0.00000000000E+00 -0.55820725588E+04  0.55820725588E+04  0.00000000000E+00 0.  1.
    9900016    2    1    2    0    0 -0.11453121450E+04  0.26869613890E+04 -0.34025375529E+04  0.49934471465E+04  0.21967592474E+04 0.  0.
         24    2    3    3    0    0  0.61779231030E+02  0.13449902807E+04 -0.26516351814E+03  0.13739068609E+04  0.67028669757E+02 0.  0.
    9900016    2    1    2    0    0  0.11453121450E+04 -0.26869613890E+04  0.10675176940E+04  0.38356781122E+04  0.22452908805E+04 0.  0.
         23    2    5    5    0    0  0.41257509524E+03  0.10713480227E+00 -0.44865414551E+03  0.61624464777E+03  0.90822370214E+02 0.  0.
        -15    1    4    4    0    0  0.40465298471E+02  0.10592009296E+04 -0.18185373299E+03  0.10754602874E+04  0.00000000000E+00 0.  1.
        -15    1    6    6    0    0  0.29672391413E+03  0.16037192226E+02 -0.37328141098E+03  0.47711768416E+03  0.00000000000E+00 0.  1.
         15    1    3    3    0    0 -0.12070913760E+04  0.13419711083E+04 -0.31373740347E+04  0.36195402856E+04  0.00000000000E+00 0. -1.
         15    1    6    6    0    0  0.11585118111E+03 -0.15930057423E+02 -0.75372734533E+02  0.13912696362E+03  0.00000000000E+00 0. -1.
        -16    1    5    5    0    0  0.67059369357E+03 -0.26078425127E+04  0.15009020051E+04  0.30827334140E+04  0.00000000000E+00 0.  1.
         16    1    4    4    0    0  0.21313932559E+02  0.28578935105E+03 -0.83309785155E+02  0.29844657344E+03  0.00000000000E+00 0. -1.
    9900018    1    5    5    0    0  0.62143356165E+02 -0.79226011064E+02  0.15269834376E+02  0.13670005040E+03  0.91187600000E+02 0.  0.
<mgrwt>
<rscale>  0 0.85147598E+04</rscale>
<asrwt>0</asrwt>
<pdfrwt beam="1">  1        2 0.49954657E+00 0.85147598E+04</pdfrwt>
<pdfrwt beam="2">  1       -2 0.85878039E+00 0.85147598E+04</pdfrwt>
<totfact> 0.18100866E-05</totfact>
</mgrwt>
</event>
<event>
12    1  0.2550345E-012  0.4877137E+04  0.7818608E-02  0.7847745E-01
          2   -1    0    0  501    0  0.00000000000E+00  0.00000000000E+00  0.25604303723E+04  0.25604303723E+04  0.00000000000E+00 0.  1.
         -2   -1    0    0    0  501 -0.00000000000E+00 -0.00000000000E+00 -0.23225065137E+04  0.23225065137E+04  0.00000000000E+00 0. -1.
    9900016    2    1    2    0    0  0.61644089016E+03 -0.16464628103E+03 -0.64314126309E+03  0.23782545676E+04  0.21989443683E+04 0.  0.
    9900016    2    1    2    0    0 -0.61644089016E+03  0.16464628103E+03  0.88106512164E+03  0.25046823184E+04  0.22561139153E+04 0.  0.
         23    2    4    4    0    0  0.32898725646E+02 -0.39874649704E+03 -0.61188764970E+03  0.73652259669E+03  0.89319340173E+02 0.  0.
        -15    1    5    5    0    0  0.45163337059E+02 -0.15054118181E+03 -0.18679592986E+03  0.24412106392E+03  0.00000000000E+00 0.  1.
        -15    1    3    3    0    0 -0.22702646465E+03 -0.10893724907E+03  0.39674323130E+03  0.46990800319E+03  0.00000000000E+00 0.  1.
         15    1    3    3    0    0  0.10676801900E+04  0.93707293107E+02 -0.11887025371E+04  0.16005423352E+04  0.00000000000E+00 0. -1.
         15    1    5    5    0    0 -0.12264611413E+02 -0.24820531522E+03 -0.42509171984E+03  0.49240153277E+03  0.00000000000E+00 0. -1.
        -16    1    4    4    0    0 -0.54983713768E+03  0.54232837050E+03  0.14119145366E+04  0.16093301706E+04  0.00000000000E+00 0.  1.
         16    1    3    3    0    0 -0.22421283522E+03 -0.14941632506E+03  0.14881804272E+03  0.30780422919E+03  0.00000000000E+00 0. -1.
    9900018    1    4    4    0    0 -0.99502478123E+02  0.21064407567E+02  0.81038234776E+02  0.15882955112E+03  0.91187600000E+02 0.  0.
<mgrwt>
<rscale>  0 0.48771370E+04</rscale>
<asrwt>0</asrwt>
<pdfrwt beam="1">  1        2 0.39391237E+00 0.48771370E+04</pdfrwt>
<pdfrwt beam="2">  1       -2 0.35730869E+00 0.48771370E+04</pdfrwt>
<totfact> 0.33012612E-02</totfact>
</mgrwt>
</event>
<event>
13    1  0.2550345E-012  0.7658911E+04  0.7818608E-02  0.7513053E-01
         -2   -1    0    0    0  501 -0.00000000000E+00  0.00000000000E+00  0.40156003572E+04  0.40156003572E+04  0.00000000000E+00 0.  1.
          2   -1    0    0  501    0  0.00000000000E+00 -0.00000000000E+00 -0.36519396067E+04  0.36519396067E+04  0.00000000000E+00 0. -1.
    9900016    2    1    2    0    0 -0.26917383413E+04  0.53393687980E+03 -0.12990626064E+04  0.37458872080E+04  0.21939834616E+04 0.  0.
         24    2    3    3    0    0 -0.12519777457E+03 -0.65963092335E+03 -0.35997266100E+03  0.76366915640E+03  0.53130273633E+02 0.  0.
    9900016    2    1    2    0    0  0.25547645955E+04 -0.48590051873E+03  0.15691502611E+04  0.37263570784E+04  0.21588383639E+04 0.  0.
         23    2    5    5    0    0 -0.37344235963E+03 -0.13748230378E+03  0.57040583430E+02  0.41240673149E+03  0.92006000913E+02 0.  0.
        -15    1    4    4    0    0 -0.48121329911E+02 -0.39315941305E+03 -0.20897376984E+03  0.44783928249E+03  0.00000000000E+00 0.  1.
        -15    1    6    6    0    0 -0.13930867691E+03 -0.77346853037E+02  0.61062689716E+02  0.17064025086E+03  0.00000000000E+00 0.  1.
         15    1    3    3    0    0 -0.25665405668E+04  0.11935678032E+04 -0.93908994538E+03  0.29822180516E+04  0.00000000000E+00 0. -1.
         15    1    6    6    0    0 -0.23413368272E+03 -0.60135450738E+02 -0.40221062854E+01  0.24176648064E+03  0.00000000000E+00 0. -1.
        -16    1    5    5    0    0  0.29282069551E+04 -0.34841821496E+03  0.15121096776E+04  0.33139503469E+04  0.00000000000E+00 0.  1.
         16    1    4    4    0    0 -0.77076444656E+02 -0.26647151031E+03 -0.15099889115E+03  0.31582987391E+03  0.00000000000E+00 0. -1.
    9900018    1    1    2    0    0  0.13697374585E+03 -0.48036361073E+02  0.93573095788E+02  0.19529567759E+03  0.91187600000E+02 0.  0.
<mgrwt>
<rscale>  0 0.76589111E+04</rscale>
<asrwt>0</asrwt>
<pdfrwt beam="1">  1        2 0.56183686E+00 0.76589111E+04</pdfrwt>
<pdfrwt beam="2">  1       -2 0.61778467E+00 0.76589111E+04</pdfrwt>
<totfact> 0.16866035E-04</totfact>
</mgrwt>
</event>
<event>
13    1  0.2550345E-012  0.5218428E+04  0.7818608E-02  0.7795668E-01
         -1   -1    0    0    0  501 -0.00000000000E+00  0.00000000000E+00  0.25115528212E+04  0.25115528212E+04  0.00000000000E+00 0.  1.
          1   -1    0    0  501    0  0.00000000000E+00 -0.00000000000E+00 -0.27106728976E+04  0.27106728976E+04  0.00000000000E+00 0. -1.
    9900016    2    1    2    0    0 -0.10202055018E+04 -0.30448689168E+03  0.76361426420E+03  0.25542940909E+04  0.21926650509E+04 0.  0.
         24    2    3    3    0    0  0.69264335248E+03 -0.18631492027E+03  0.21655342944E+03  0.75232534275E+03  0.68043885079E+02 0.  0.
    9900016    2    1    2    0    0  0.10202055018E+04  0.30448689168E+03 -0.96273434060E+03  0.26679316279E+04  0.22488819951E+04 0.  0.
         23    2    5    5    0    0 -0.55284795333E+03 -0.20353576840E+03 -0.71156058419E+03  0.92890476854E+03  0.97354689248E+02 0.  0.
        -15    1    4    4    0    0  0.36944778867E+03 -0.10679110419E+03  0.81382370697E+02  0.39308917404E+03  0.00000000000E+00 0.  1.
        -15    1    6    6    0    0 -0.18683488012E+02  0.10714860695E+02 -0.27877296940E+02  0.35228179753E+02  0.00000000000E+00 0.  1.
         15    1    6    6    0    0 -0.53416446532E+03 -0.21425062910E+03 -0.68368328725E+03  0.89367658879E+03  0.00000000000E+00 0. -1.
         15    1    3    3    0    0 -0.17128488543E+04 -0.11817197141E+03  0.54706083476E+03  0.18019687482E+04  0.00000000000E+00 0. -1.
        -16    1    5    5    0    0  0.14970029370E+04  0.50399922744E+03 -0.15686160224E+03  0.15873369450E+04  0.00000000000E+00 0.  1.
         16    1    4    4    0    0  0.32319556382E+03 -0.79523816075E+02  0.13517105874E+03  0.35923616872E+03  0.00000000000E+00 0. -1.
    9900018    1    5    5    0    0  0.76050518159E+02  0.40234326368E+01 -0.94312154168E+02  0.15168991443E+03  0.91187600000E+02 0.  0.
<mgrwt>
<rscale>  0 0.52184282E+04</rscale>
<asrwt>0</asrwt>
<pdfrwt beam="1">  1        1 0.41702660E+00 0.52184282E+04</pdfrwt>
<pdfrwt beam="2">  1       -1 0.38639274E+00 0.52184282E+04</pdfrwt>
<totfact> 0.60636493E-03</totfact>
</mgrwt>
</event>
<event>
12    1  0.2550345E-012  0.6629308E+04  0.7818608E-02  0.7616922E-01
          2   -1    0    0  501    0  0.00000000000E+00  0.00000000000E+00  0.45415124314E+04  0.45415124314E+04  0.00000000000E+00 0. -1.
         -2   -1    0    0    0  501 -0.00000000000E+00 -0.00000000000E+00 -0.24192231375E+04  0.24192231375E+04  0.00000000000E+00 0.  1.
    9900016    2    1    2    0    0  0.11745127583E+04  0.14075484705E+04 -0.65261174521E+03  0.29389727925E+04  0.22024954186E+04 0.  0.
    9900016    2    1    2    0    0 -0.10753190509E+04 -0.13359228775E+04  0.25434386032E+04  0.37445270377E+04  0.21474174751E+04 0.  0.
         23    2    4    4    0    0 -0.49185109103E+02 -0.28427147402E+03 -0.37102809655E+03  0.48062788412E+03  0.10055778771E+03 0.  0.
        -15    1    5    5    0    0  0.64134582360E+01 -0.22107012021E+03 -0.27599531635E+03  0.35367576273E+03  0.00000000000E+00 0. -1.
        -15    1    3    3    0    0  0.87740467102E+03  0.19563532758E+04 -0.17342509356E+03  0.21511004997E+04  0.00000000000E+00 0.  1.
         15    1    5    5    0    0 -0.55598567339E+02 -0.63201353809E+02 -0.95032780197E+02  0.12695212139E+03  0.00000000000E+00 0.  1.
         15    1    3    3    0    0  0.19436730247E+03 -0.37262155074E+03 -0.34498869649E+03  0.54373032751E+03  0.00000000000E+00 0. -1.
        -16    1    3    3    0    0  0.10274078480E+03 -0.17618325459E+03 -0.13419795516E+03  0.24414196532E+03  0.00000000000E+00 0.  1.
         16    1    4    4    0    0 -0.10261339418E+04 -0.10516514035E+04  0.29144666998E+04  0.32638991536E+04  0.00000000000E+00 0. -1.
    9900018    1    1    2    0    0 -0.99193707440E+02 -0.71625592976E+02  0.23146243589E+03  0.27723573865E+03  0.91187600000E+02 0.  0.
<mgrwt>
<rscale>  0 0.66293082E+04</rscale>
<asrwt>0</asrwt>
<pdfrwt beam="1">  1        2 0.69869422E+00 0.66293082E+04</pdfrwt>
<pdfrwt beam="2">  1       -2 0.37218818E+00 0.66293082E+04</pdfrwt>
<totfact> 0.79693991E-04</totfact>
</mgrwt>
</event>
<event>
13    1  0.2550345E-012  0.5389334E+04  0.7818608E-02  0.7771103E-01
          1   -1    0    0  501    0  0.00000000000E+00  0.00000000000E+00  0.37650510177E+04  0.37650510177E+04  0.00000000000E+00 0. -1.
         -1   -1    0    0    0  501 -0.00000000000E+00 -0.00000000000E+00 -0.19285877494E+04  0.19285877494E+04  0.00000000000E+00 0.  1.
    9900016    2    1    2    0    0  0.70153732086E+03 -0.81279397490E+03 -0.17843691064E+03  0.24814606267E+04  0.22300265587E+04 0.  0.
        -24    2    3    3    0    0 -0.72468389905E+03 -0.37045935160E+03 -0.49636075250E+03  0.95475094367E+03  0.52616376520E+02 0.  0.
    9900016    2    1    2    0    0 -0.60696406887E+03  0.76062638387E+03  0.18716918137E+04  0.30109584301E+04  0.21484139605E+04 0.  0.
         23    2    5    5    0    0  0.76945036447E+03 -0.16791194676E+02  0.68369040852E+03  0.10335252144E+04  0.91684167627E+02 0.  0.
        -15    1    6    6    0    0  0.59532806168E+02 -0.18454027502E+02  0.81503578408E+02  0.10260379834E+03  0.00000000000E+00 0.  1.
        -15    1    3    3    0    0  0.14262212199E+04 -0.44233462330E+03  0.31792384187E+03  0.15267096831E+04  0.00000000000E+00 0.  1.
         15    1    4    4    0    0 -0.49650196641E+03 -0.26226782844E+03 -0.31492234405E+03  0.64379709480E+03  0.00000000000E+00 0. -1.
         15    1    6    6    0    0  0.70991755830E+03  0.16628328265E+01  0.60218683011E+03  0.93092141610E+03  0.00000000000E+00 0. -1.
        -16    1    4    4    0    0 -0.22818193264E+03 -0.10819152316E+03 -0.18143840845E+03  0.31095384888E+03  0.00000000000E+00 0.  1.
         16    1    5    5    0    0 -0.13764144333E+04  0.77741757854E+03  0.11880014052E+04  0.19774332157E+04  0.00000000000E+00 0. -1.
    9900018    1    1    2    0    0 -0.94573251987E+02  0.52167591039E+02  0.14320836517E+03  0.20121971025E+03  0.91187600000E+02 0.  0.
<mgrwt>
<rscale>  0 0.53893344E+04</rscale>
<asrwt>0</asrwt>
<pdfrwt beam="1">  1        1 0.57923862E+00 0.53893344E+04</pdfrwt>
<pdfrwt beam="2">  1       -1 0.29670581E+00 0.53893344E+04</pdfrwt>
<totfact> 0.36946432E-03</totfact>
</mgrwt>
</event>
<event>
12    1  0.2550345E-012  0.5311075E+04  0.7818608E-02  0.7782234E-01
         -2   -1    0    0    0  501 -0.00000000000E+00  0.00000000000E+00  0.34389220676E+04  0.34389220676E+04  0.00000000000E+00 0.  1.
          2   -1    0    0  501    0  0.00000000000E+00 -0.00000000000E+00 -0.20506073353E+04  0.20506073353E+04  0.00000000000E+00 0. -1.
    9900016    2    1    2    0    0 -0.95953408958E+03 -0.54285840183E+02 -0.43087485879E+03  0.24431997940E+04  0.22045225033E+04 0.  0.
    9900016    2    1    2    0    0  0.95953408958E+03  0.54285840183E+02  0.18191895911E+04  0.30463296090E+04  0.22465575213E+04 0.  0.
         23    2    4    4    0    0  0.45992041236E+03 -0.17088806110E+03 -0.45627329185E+03  0.67610767678E+03  0.90591161923E+02 0.  0.
        -15    1    5    5    0    0  0.35423287108E+03 -0.10397765573E+03 -0.29845690510E+03  0.47473024345E+03  0.00000000000E+00 0. -1.
        -15    1    3    3    0    0 -0.28242786632E+03 -0.45724118800E+03  0.32877274031E+03  0.63002104603E+03  0.00000000000E+00 0.  1.
         15    1    5    5    0    0  0.10568754127E+03 -0.66910405371E+02 -0.15781638675E+03  0.20137743333E+03  0.00000000000E+00 0.  1.
         15    1    3    3    0    0 -0.36245087008E+03  0.70767349267E+03 -0.10279188116E+04  0.12995343354E+04  0.00000000000E+00 0. -1.
        -16    1    4    4    0    0  0.44787734341E+03  0.19201246042E+03  0.21447289053E+04  0.21993919562E+04  0.00000000000E+00 0.  1.
         16    1    3    3    0    0 -0.31465535318E+03 -0.30471814486E+03  0.26827121254E+03  0.51364441257E+03  0.00000000000E+00 0. -1.
    9900018    1    4    4    0    0  0.51736333810E+02  0.33161440864E+02  0.13073397767E+03  0.17082997602E+03  0.91187600000E+02 0.  0.
<mgrwt>
<rscale>  0 0.53110748E+04</rscale>
<asrwt>0</asrwt>
<pdfrwt beam="1">  1        2 0.31547805E+00 0.53110748E+04</pdfrwt>
<pdfrwt beam="2">  1       -2 0.52906493E+00 0.53110748E+04</pdfrwt>
<totfact> 0.49831851E-03</totfact>
</mgrwt>
</event>
<event>
12    1  0.2550345E-012  0.4808690E+04  0.7818608E-02  0.7858716E-01
          2   -1    0    0  501    0  0.00000000000E+00  0.00000000000E+00  0.17121372794E+04  0.17121372794E+04  0.00000000000E+00 0. -1.
         -2   -1    0    0    0  501 -0.00000000000E+00 -0.00000000000E+00 -0.33764085710E+04  0.33764085710E+04  0.00000000000E+00 0.  1.
    9900016    2    1    2    0    0  0.32045905152E+03 -0.84438701137E+03 -0.63437216778E+03  0.24540876079E+04  0.21919020305E+04 0.  0.
    9900016    2    1    2    0    0 -0.32045905152E+03  0.84438701137E+03 -0.10298991238E+04  0.26344582425E+04  0.22503321083E+04 0.  0.
         23    2    4    4    0    0  0.20304403633E+03  0.19179615072E+03  0.65558845381E+03  0.71825780516E+03  0.89918906734E+02 0.  0.
        -15    1    5    5    0    0  0.84862575715E+02  0.10083950947E+03  0.20574034431E+03  0.24433450985E+03  0.00000000000E+00 0. -1.
        -15    1    3    3    0    0  0.10379947469E+03 -0.27380580335E+03 -0.79941769506E+03  0.85135926615E+03  0.00000000000E+00 0.  1.
         15    1    3    3    0    0  0.40685988260E+02 -0.43138934118E+03  0.81068282497E+03  0.91921638151E+03  0.00000000000E+00 0. -1.
         15    1    5    5    0    0  0.11818146062E+03  0.90956641259E+02  0.44984810950E+03  0.47392329531E+03  0.00000000000E+00 0.  1.
        -16    1    4    4    0    0 -0.50182627574E+03  0.59539712438E+03 -0.15910489327E+04  0.17713734934E+04  0.00000000000E+00 0.  1.
         16    1    3    3    0    0  0.17597358857E+03 -0.13919186685E+03 -0.64563729769E+03  0.68351196028E+03  0.00000000000E+00 0. -1.
    9900018    1    4    4    0    0 -0.21676812116E+02  0.57193736273E+02 -0.94438644937E+02  0.14482694398E+03  0.91187600000E+02 0.  0.
<mgrwt>
<rscale>  0 0.48086900E+04</rscale>
<asrwt>0</asrwt>
<pdfrwt beam="1">  1        2 0.26340574E+00 0.48086900E+04</pdfrwt>
<pdfrwt beam="2">  1       -2 0.51944747E+00 0.48086900E+04</pdfrwt>
<totfact> 0.90460865E-03</totfact>
</mgrwt>
</event>
