<event>
11    1  0.1259436E-014  0.3248107E+04  0.7818608E-02  0.8719486E-01
          2   -1    0    0  501    0  0.00000000000E+00  0.00000000000E+00  0.16068765060E+04  0.16068765060E+04  0.00000000000E+00 0. -1.
         -2   -1    0    0    0  501 -0.00000000000E+00 -0.00000000000E+00 -0.19786673996E+04  0.19786673996E+04  0.00000000000E+00 0.  1.
    9900016    2    1    2    0    0  0.42162587135E+03  0.28740928819E+03 -0.93384328047E+03  0.23988354704E+04  0.21498781052E+04 0.  0.
        -24    2    3    3    0    0  0.10770489678E+04 -0.37261556797E+03 -0.92254969884E+03  0.14685990537E+04  0.82512987644E+02 0.  0.
        -15    1    3    3    0    0 -0.65542309641E+03  0.66002485616E+03 -0.11293581632E+02  0.93023641675E+03  0.00000000000E+00 0.  1.
        -15    1    1    2    0    0 -0.98394707728E+02 -0.11573391920E+03 -0.16859419806E+03  0.22693581071E+03  0.00000000000E+00 0.  1.
         15    1    4    4    0    0  0.97647638757E+03 -0.31720027204E+03 -0.80932376545E+03  0.13073358809E+04  0.00000000000E+00 0. -1.
         15    1    1    2    0    0 -0.99834071239E+02 -0.25405144505E+02  0.10073071614E+02  0.10350714912E+03  0.00000000000E+00 0. -1.
        -16    1    4    4    0    0  0.10057258019E+03 -0.55415295925E+02 -0.11322593338E+03  0.16126317280E+03  0.00000000000E+00 0.  1.
         16    1    1    2    0    0 -0.20392186900E+03 -0.13303498986E+03  0.72213164895E+03  0.76207385180E+03  0.00000000000E+00 0. -1.
    9900018    1    1    2    0    0 -0.19475223380E+02 -0.13235234634E+02 -0.15581356173E+01  0.94191623523E+02  0.91187600000E+02 0.  0.
<mgrwt>
<rscale>  0 0.17754103E+04</rscale>
<asrwt>0</asrwt>
<pdfrwt beam="1">  1        2 0.24721177E+00 0.32481069E+04</pdfrwt>
<pdfrwt beam="2">  1       -2 0.30441037E+00 0.32481069E+04</pdfrwt>
<totfact> 0.27374973E-01</totfact>
</mgrwt>
</event>
<event>
12    1  0.1259436E-014  0.4040466E+04  0.7818608E-02  0.8741926E-01
         -2   -1    0    0    0  501 -0.00000000000E+00  0.00000000000E+00  0.16428957627E+04  0.16428957627E+04  0.00000000000E+00 0.  1.
          2   -1    0    0  501    0  0.00000000000E+00 -0.00000000000E+00 -0.26779603862E+04  0.26779603862E+04  0.00000000000E+00 0. -1.
         23    2    1    2    0    0  0.59274882927E+02 -0.63797460671E+02 -0.10995268797E+03  0.17583527404E+03  0.10604160633E+03 0.  0.
    9900016    2    1    2    0    0 -0.91842967370E+03 -0.10007240741E+04 -0.90990617455E+03  0.27769622987E+04  0.22446889816E+04 0.  0.
         24    2    4    4    0    0 -0.19533293380E+03  0.10291261927E+03  0.63163541464E+03  0.67379004061E+03  0.79270168279E+02 0.  0.
        -15    1    5    5    0    0 -0.14162343933E+03  0.61917054737E+02  0.32615701853E+03  0.36092841530E+03  0.00000000000E+00 0.  1.
        -15    1    3    3    0    0  0.18864336539E+02  0.24608480072E+02 -0.27557148201E+01  0.31129318153E+02  0.00000000000E+00 0. -1.
         15    1    4    4    0    0 -0.66011424539E+03 -0.10770789744E+04 -0.15364422460E+04  0.19890964555E+04  0.00000000000E+00 0. -1.
         15    1    3    3    0    0  0.40410546388E+02 -0.88405940743E+02 -0.10719697315E+03  0.14470595589E+03  0.00000000000E+00 0.  1.
        -16    1    1    2    0    0  0.85915479077E+03  0.10645215347E+04 -0.15205761029E+02  0.13680585761E+04  0.00000000000E+00 0.  1.
         16    1    5    5    0    0 -0.53709494470E+02  0.40995564531E+02  0.30547839611E+03  0.31286162532E+03  0.00000000000E+00 0. -1.
    9900018    1    4    4    0    0 -0.62982494516E+02 -0.26557718925E+02 -0.50993432086E+01  0.11407580263E+03  0.91187600000E+02 0.  0.
<mgrwt>
<rscale>  0 0.17345044E+04</rscale>
<asrwt>0</asrwt>
<pdfrwt beam="1">  1        2 0.41199390E+00 0.40404661E+04</pdfrwt>
<pdfrwt beam="2">  1       -2 0.25275320E+00 0.40404661E+04</pdfrwt>
<totfact> 0.13222261E-01</totfact>
</mgrwt>
</event>
<event>
12    1  0.1259436E-014  0.2604421E+04  0.7818608E-02  0.9206522E-01
          1   -1    0    0  501    0  0.00000000000E+00  0.00000000000E+00  0.13565237770E+04  0.13565237770E+04  0.00000000000E+00 0. -1.
         -1   -1    0    0    0  501 -0.00000000000E+00 -0.00000000000E+00 -0.13831197213E+04  0.13831197213E+04  0.00000000000E+00 0.  1.
         23    2    1    2    0    0  0.20127211308E+02 -0.27796950135E+02 -0.10564678087E+03  0.13402273200E+03  0.74987167654E+02 0.  0.
    9900016    2    1    2    0    0  0.20343355170E+03 -0.11565299726E+03  0.25474235328E+03  0.22871481439E+04  0.22608388134E+04 0.  0.
         24    2    4    4    0    0 -0.97905450097E+03 -0.31845181477E+02  0.90819705420E+02  0.98706628885E+03  0.80559346086E+02 0.  0.
        -15    1    5    5    0    0 -0.55960294992E+03 -0.53956831487E+02  0.34255897424E+02  0.56324086121E+03  0.00000000000E+00 0.  1.
        -15    1    3    3    0    0  0.26605323170E+01  0.25262166136E+02 -0.22991117148E+02  0.34261449733E+02  0.00000000000E+00 0. -1.
         15    1    4    4    0    0  0.11640691915E+04 -0.28238042737E+02  0.87926104811E+02  0.11677266245E+04  0.00000000000E+00 0. -1.
         15    1    3    3    0    0  0.17466678991E+02 -0.53059116271E+02 -0.82655663720E+02  0.99761282266E+02  0.00000000000E+00 0.  1.
        -16    1    1    2    0    0 -0.22356076301E+03  0.14344994740E+03 -0.17569151669E+03  0.31847262238E+03  0.00000000000E+00 0.  1.
         16    1    5    5    0    0 -0.41945155105E+03  0.22111650010E+02  0.56563807996E+02  0.42382542764E+03  0.00000000000E+00 0. -1.
    9900018    1    4    4    0    0  0.18418861202E+02 -0.55569773048E+02  0.75996543048E+02  0.13235523062E+03  0.91187600000E+02 0.  0.
<mgrwt>
<rscale>  0 0.10986360E+04</rscale>
<asrwt>0</asrwt>
<pdfrwt beam="1">  1        1 0.20869596E+00 0.26044213E+04</pdfrwt>
<pdfrwt beam="2">  1       -1 0.21278765E+00 0.26044213E+04</pdfrwt>
<totfact> 0.88942953E-01</totfact>
</mgrwt>
</event>
<event>
12    1  0.1259436E-014  0.3055321E+04  0.7818608E-02  0.8748697E-01
         -1   -1    0    0    0  501 -0.00000000000E+00  0.00000000000E+00  0.14842987448E+04  0.14842987448E+04  0.00000000000E+00 0.  1.
          1   -1    0    0  501    0  0.00000000000E+00 -0.00000000000E+00 -0.19129905567E+04  0.19129905567E+04  0.00000000000E+00 0. -1.
         23    2    1    2    0    0  0.23993338220E+03 -0.17904516839E+03 -0.99846572013E+02  0.32432199309E+03  0.74767753997E+02 0.  0.
    9900016    2    1    2    0    0 -0.13297768618E+03 -0.53027101473E+03 -0.55024294751E+02  0.22169292663E+04  0.21477609933E+04 0.  0.
        -24    2    4    4    0    0 -0.10504062981E+04 -0.51642068788E+03 -0.39565635004E+03  0.12382069938E+04  0.81048714224E+02 0.  0.
        -15    1    4    4    0    0  0.91742861194E+03 -0.13850326853E+02  0.34063205529E+03  0.97872227249E+03  0.00000000000E+00 0.  1.
        -15    1    3    3    0    0  0.13338121828E+03 -0.13224473570E+03 -0.87760597796E+02  0.20731893796E+03  0.00000000000E+00 0.  1.
         15    1    3    3    0    0  0.10655216393E+03 -0.46800432691E+02 -0.12085974217E+02  0.11700305513E+03  0.00000000000E+00 0. -1.
         15    1    5    5    0    0 -0.71119171942E+03 -0.30706927134E+03 -0.25748636867E+03  0.81632372820E+03  0.00000000000E+00 0. -1.
        -16    1    5    5    0    0 -0.33921457870E+03 -0.20935141654E+03 -0.13816998137E+03  0.42188326557E+03  0.00000000000E+00 0.  1.
         16    1    1    2    0    0 -0.78184498605E+02  0.69295762516E+03 -0.29426647797E+03  0.75689883481E+03  0.00000000000E+00 0. -1.
    9900018    1    1    2    0    0 -0.28771197416E+02  0.16358557967E+02  0.20445532883E+02  0.99139207320E+02  0.91187600000E+02 0.  0.
<mgrwt>
<rscale>  0 0.17223884E+04</rscale>
<asrwt>0</asrwt>
<pdfrwt beam="1">  1        1 0.29430624E+00 0.30553214E+04</pdfrwt>
<pdfrwt beam="2">  1       -1 0.22835366E+00 0.30553214E+04</pdfrwt>
<totfact> 0.27697917E-01</totfact>
</mgrwt>
</event>
<event>
12    1  0.1259436E-014  0.2761159E+04  0.7818608E-02  0.8862756E-01
         -2   -1    0    0    0  501 -0.00000000000E+00  0.00000000000E+00  0.12525350504E+04  0.12525350504E+04  0.00000000000E+00 0.  1.
          2   -1    0    0  501    0  0.00000000000E+00 -0.00000000000E+00 -0.21562332630E+04  0.21562332630E+04  0.00000000000E+00 0. -1.
         23    2    1    2    0    0 -0.18617048741E+03 -0.14588853484E+03  0.29832916760E+03  0.39731178747E+03  0.11363735846E+03 0.  0.
    9900016    2    1    2    0    0  0.84671792310E+02  0.54268347328E+03 -0.11970288253E+04  0.26018552639E+04  0.22439024358E+04 0.  0.
         24    2    4    4    0    0 -0.10064459403E+04  0.29403890574E+02 -0.37806439274E+03  0.10784699978E+04  0.79792427767E+02 0.  0.
        -15    1    3    3    0    0 -0.39767070974E+02 -0.47997716847E+02  0.16511752519E+03  0.17649078696E+03  0.00000000000E+00 0. -1.
        -15    1    5    5    0    0 -0.47946557312E+03  0.23071300853E+01 -0.22071319185E+03  0.52783223823E+03  0.00000000000E+00 0.  1.
         15    1    4    4    0    0  0.10756688806E+04  0.44644234010E+03 -0.78439298521E+03  0.14041533602E+04  0.00000000000E+00 0. -1.
         15    1    3    3    0    0 -0.14640341643E+03 -0.97890817994E+02  0.13321164241E+03  0.22082100051E+03  0.00000000000E+00 0.  1.
        -16    1    1    2    0    0  0.10149869510E+03 -0.39679493844E+03 -0.49985549475E+01  0.40960126200E+03  0.00000000000E+00 0.  1.
         16    1    5    5    0    0 -0.52698036722E+03  0.27096760489E+02 -0.15735120089E+03  0.55063775958E+03  0.00000000000E+00 0. -1.
    9900018    1    4    4    0    0  0.15448852073E+02  0.66837242606E+02 -0.34571447371E+02  0.11923190595E+03  0.91187600000E+02 0.  0.
<mgrwt>
<rscale>  0 0.15330687E+04</rscale>
<asrwt>0</asrwt>
<pdfrwt beam="1">  1        2 0.33172819E+00 0.27611593E+04</pdfrwt>
<pdfrwt beam="2">  1       -2 0.19269770E+00 0.27611593E+04</pdfrwt>
<totfact> 0.69690693E-01</totfact>
</mgrwt>
</event>
<event>
12    1  0.1259436E-014  0.2712304E+04  0.7818608E-02  0.8788410E-01
         -2   -1    0    0    0  501 -0.00000000000E+00  0.00000000000E+00  0.19320128407E+04  0.19320128407E+04  0.00000000000E+00 0.  1.
          2   -1    0    0  501    0  0.00000000000E+00 -0.00000000000E+00 -0.12833225906E+04  0.12833225906E+04  0.00000000000E+00 0. -1.
         23    2    1    2    0    0  0.30276615156E+03 -0.20675704827E+03 -0.12502028540E+03  0.39483559953E+03  0.76480450804E+02 0.  0.
    9900016    2    1    2    0    0 -0.46033406091E+03 -0.89539881924E+01  0.43378958446E+03  0.22499483192E+04  0.21591911481E+04 0.  0.
        -24    2    4    4    0    0  0.72215510348E+03 -0.36302457945E+02  0.73002716418E+03  0.10306102749E+04  0.79950086971E+02 0.  0.
        -15    1    4    4    0    0 -0.11824891644E+04  0.27348469752E+02 -0.29623757972E+03  0.12193380443E+04  0.00000000000E+00 0.  1.
        -15    1    3    3    0    0  0.22856630461E+03 -0.19244532169E+03 -0.95141359916E+02  0.31357556635E+03  0.00000000000E+00 0.  1.
         15    1    5    5    0    0  0.24533013460E+03 -0.28398869633E+02  0.29889885507E+03  0.38772915328E+03  0.00000000000E+00 0. -1.
         15    1    3    3    0    0  0.74199846948E+02 -0.14311726584E+02 -0.29878925486E+02  0.81260033184E+02  0.00000000000E+00 0. -1.
        -16    1    5    5    0    0  0.47682496888E+03 -0.79035883113E+01  0.43112830911E+03  0.64288112165E+03  0.00000000000E+00 0.  1.
         16    1    1    2    0    0  0.19367797956E+03  0.25357905263E+03  0.33881379210E+03  0.46541194808E+03  0.00000000000E+00 0. -1.
    9900018    1    1    2    0    0 -0.36110070214E+02 -0.37868016164E+02  0.11071589609E+01  0.10513956445E+03  0.91187600000E+02 0.  0.
<mgrwt>
<rscale>  0 0.16533791E+04</rscale>
<asrwt>0</asrwt>
<pdfrwt beam="1">  1        2 0.19743424E+00 0.27123037E+04</pdfrwt>
<pdfrwt beam="2">  1       -2 0.29723274E+00 0.27123037E+04</pdfrwt>
<totfact> 0.48273430E-01</totfact>
</mgrwt>
</event>
<event>
12    1  0.1259436E-014  0.3016352E+04  0.7818608E-02  0.8975066E-01
         -1   -1    0    0    0  501 -0.00000000000E+00  0.00000000000E+00  0.74315916226E+03  0.74315916226E+03  0.00000000000E+00 0.  1.
          1   -1    0    0  501    0  0.00000000000E+00 -0.00000000000E+00 -0.33986260294E+04  0.33986260294E+04  0.00000000000E+00 0. -1.
         23    2    1    2    0    0  0.22361341634E+02  0.49257541803E+01 -0.90423227881E+01  0.12906237518E+03  0.12669270079E+03 0.  0.
    9900016    2    1    2    0    0 -0.15938855761E+03  0.46398441285E+02 -0.29265933765E+04  0.36966449693E+04  0.22522605778E+04 0.  0.
         24    2    4    4    0    0  0.62560691001E+03  0.47368363847E+03 -0.24538696564E+04  0.25774696255E+04  0.78186856133E+02 0.  0.
        -15    1    5    5    0    0  0.42061928590E+03  0.28739795323E+03 -0.14962402026E+04  0.15805862555E+04  0.00000000000E+00 0.  1.
        -15    1    3    3    0    0 -0.36632875099E+02 -0.39683098971E+02  0.31703653526E+01  0.54099603496E+02  0.00000000000E+00 0.  1.
         15    1    3    3    0    0  0.58994216733E+02  0.44608853152E+02 -0.12212688141E+02  0.74962771687E+02  0.00000000000E+00 0. -1.
         15    1    4    4    0    0 -0.74390206816E+03 -0.40026176764E+03 -0.26214343366E+03  0.88448795891E+03  0.00000000000E+00 0. -1.
        -16    1    1    2    0    0  0.13702721597E+03 -0.51324195465E+02  0.28016883213E+03  0.31607784714E+03  0.00000000000E+00 0.  1.
         16    1    5    5    0    0  0.20498762411E+03  0.18628568525E+03 -0.95762945384E+03  0.99688337003E+03  0.00000000000E+00 0. -1.
    9900018    1    4    4    0    0 -0.41093399459E+02 -0.27023429547E+02 -0.21058028645E+03  0.23468738496E+03  0.91187600000E+02 0.  0.
<mgrwt>
<rscale>  0 0.13710217E+04</rscale>
<asrwt>0</asrwt>
<pdfrwt beam="1">  1        1 0.52286555E+00 0.30163524E+04</pdfrwt>
<pdfrwt beam="2">  1       -1 0.11433218E+00 0.30163524E+04</pdfrwt>
<totfact> 0.17643134E-01</totfact>
</mgrwt>
</event>
<event>
12    1  0.1259436E-014  0.3465002E+04  0.7818608E-02  0.8822657E-01
         -1   -1    0    0    0  501 -0.00000000000E+00  0.00000000000E+00  0.22339542120E+04  0.22339542120E+04  0.00000000000E+00 0.  1.
          1   -1    0    0  501    0  0.00000000000E+00 -0.00000000000E+00 -0.14770981719E+04  0.14770981719E+04  0.00000000000E+00 0. -1.
         23    2    1    2    0    0 -0.56445402735E+02 -0.73816188645E+02  0.96776142449E+02  0.18373846553E+03  0.12553600587E+03 0.  0.
    9900016    2    1    2    0    0  0.62917083119E+03 -0.74750125152E+03  0.37940262414E+03  0.24874309991E+04  0.22558263604E+04 0.  0.
        -24    2    4    4    0    0  0.13247317073E+03 -0.12125011163E+04  0.91745983803E+03  0.15283245421E+04  0.79594306861E+02 0.  0.
        -15    1    4    4    0    0  0.40662937171E+03  0.47926366863E+03 -0.54220803097E+03  0.83007870642E+03  0.00000000000E+00 0.  1.
        -15    1    3    3    0    0 -0.82156701686E+02 -0.69487439588E+02  0.11053287986E+03  0.15425869642E+03  0.00000000000E+00 0.  1.
         15    1    5    5    0    0  0.67752535204E+02 -0.77173452263E+03  0.62533980447E+03  0.99559753440E+03  0.00000000000E+00 0. -1.
         15    1    3    3    0    0  0.25711298952E+02 -0.43287490576E+01 -0.13756737409E+02  0.29479769103E+02  0.00000000000E+00 0. -1.
        -16    1    5    5    0    0  0.64720635523E+02 -0.44076659367E+03  0.29212003355E+03  0.53272700773E+03  0.00000000000E+00 0.  1.
         16    1    1    2    0    0 -0.57272542846E+03  0.82131744017E+03  0.28067727351E+03  0.10398829193E+04  0.00000000000E+00 0. -1.
    9900018    1    4    4    0    0  0.90068288758E+02 -0.14263803855E+02  0.41508170899E+01  0.12902775057E+03  0.91187600000E+02 0.  0.
<mgrwt>
<rscale>  0 0.15965717E+04</rscale>
<asrwt>0</asrwt>
<pdfrwt beam="1">  1        1 0.22724587E+00 0.34650019E+04</pdfrwt>
<pdfrwt beam="2">  1       -1 0.34368526E+00 0.34650019E+04</pdfrwt>
<totfact> 0.94408152E-02</totfact>
</mgrwt>
</event>
<event>
12    1  0.1259436E-014  0.3055516E+04  0.7818608E-02  0.9100333E-01
         -1   -1    0    0    0  501 -0.00000000000E+00  0.00000000000E+00  0.93599683173E+03  0.93599683173E+03  0.00000000000E+00 0.  1.
          1   -1    0    0  501    0  0.00000000000E+00 -0.00000000000E+00 -0.27435877471E+04  0.27435877471E+04  0.00000000000E+00 0. -1.
         23    2    1    2    0    0 -0.25829501339E+01 -0.26593124564E+02 -0.22699772329E+03  0.23946045191E+03  0.71410613660E+02 0.  0.
    9900016    2    1    2    0    0 -0.28125351804E+03  0.24307468566E+03 -0.52726792042E+03  0.23279543850E+04  0.22367769926E+04 0.  0.
        -24    2    4    4    0    0 -0.36885357499E+03  0.70615777558E+02 -0.13214855475E+04  0.13761715694E+04  0.80526940847E+02 0.  0.
        -15    1    4    4    0    0  0.99693886590E+02  0.14385475101E+03  0.83057775639E+03  0.84881827845E+03  0.00000000000E+00 0.  1.
        -15    1    3    3    0    0  0.14544612963E+02  0.19015523457E+02 -0.11266796154E+03  0.11518335581E+03  0.00000000000E+00 0. -1.
         15    1    5    5    0    0 -0.29427073061E+03  0.58348409130E+02 -0.92139573531E+03  0.96900459276E+03  0.00000000000E+00 0. -1.
         15    1    3    3    0    0 -0.17127563097E+02 -0.45608648021E+02 -0.11432976175E+03  0.12427709609E+03  0.00000000000E+00 0.  1.
        -16    1    5    5    0    0 -0.74582844382E+02  0.12267368428E+02 -0.40008981222E+03  0.40716697661E+03  0.00000000000E+00 0.  1.
         16    1    1    2    0    0  0.28383646818E+03 -0.21648156109E+03 -0.10533252717E+04  0.11121697420E+04  0.00000000000E+00 0. -1.
    9900018    1    4    4    0    0 -0.12093829640E+02  0.28604157088E+02 -0.36360129281E+02  0.10296453716E+03  0.91187600000E+02 0.  0.
<mgrwt>
<rscale>  0 0.12144137E+04</rscale>
<asrwt>0</asrwt>
<pdfrwt beam="1">  1        1 0.42209042E+00 0.30555162E+04</pdfrwt>
<pdfrwt beam="2">  1       -1 0.14399951E+00 0.30555162E+04</pdfrwt>
<totfact> 0.29972107E-01</totfact>
</mgrwt>
</event>
