<event>
12    1  0.6919775E-013  0.1275972E+04  0.7818608E-02  0.9048840E-01
         -2   -1    0    0    0  501 -0.00000000000E+00  0.00000000000E+00  0.30032475422E+03  0.30032475422E+03  0.00000000000E+00 0.  1.
          2   -1    0    0  501    0  0.00000000000E+00 -0.00000000000E+00 -0.13552860785E+04  0.13552860785E+04  0.00000000000E+00 0. -1.
    9900016    2    1    2    0    0 -0.17983224257E+02 -0.25858283195E+03 -0.71828050692E+03  0.10976026949E+04  0.78842647844E+03 0.  0.
    9900016    2    3    3    0    0 -0.40277792040E+02 -0.23562830833E+03 -0.59186627283E+03  0.96032639674E+03  0.71748038519E+03 0.  0.
         23    2    4    4    0    0 -0.30946917330E+03 -0.17680301428E+03 -0.57934201743E+03  0.68449805893E+03  0.76615562663E+02 0.  0.
        -15    1    5    5    0    0 -0.25860885811E+03 -0.13173288672E+03 -0.51369254029E+03  0.59001027185E+03  0.00000000000E+00 0.  1.
        -15    1    3    3    0    0 -0.67247520537E+01 -0.23275388997E+02 -0.50716334473E+02  0.56205983716E+02  0.00000000000E+00 0.  1.
         15    1    5    5    0    0 -0.50860315195E+02 -0.45070127554E+02 -0.65649477133E+02  0.94487787080E+02  0.00000000000E+00 0. -1.
         15    1    3    3    0    0  0.29019319836E+02  0.32086538028E+00 -0.75697899614E+02  0.81070314446E+02  0.00000000000E+00 0. -1.
        -16    1    4    4    0    0  0.26919138126E+03 -0.58825294051E+02 -0.12524255410E+02  0.27582833781E+03  0.00000000000E+00 0.  1.
         16    1    1    2    0    0 -0.18168223755E+02  0.16172940233E+03 -0.38010450721E+03  0.41348025386E+03  0.00000000000E+00 0. -1.
    9900018    1    1    2    0    0  0.36151448012E+02  0.96853429621E+02  0.43423689815E+02  0.14452788400E+03  0.91187600000E+02 0.  0.
<mgrwt>
<rscale>  0 0.12759717E+04</rscale>
<asrwt>0</asrwt>
<pdfrwt beam="1">  1        2 0.20850555E+00 0.12759717E+04</pdfrwt>
<pdfrwt beam="2">  1       -2 0.46203808E-01 0.12759717E+04</pdfrwt>
<totfact> 0.66923260E+01</totfact>
</mgrwt>
</event>
<event>
11    1  0.6919775E-013  0.3320627E+04  0.7818608E-02  0.8565450E-01
         -1   -1    0    0    0  501 -0.00000000000E+00  0.00000000000E+00  0.26315289124E+04  0.26315289124E+04  0.00000000000E+00 0.  1.
          1   -1    0    0  501    0  0.00000000000E+00 -0.00000000000E+00 -0.17055560088E+04  0.17055560088E+04  0.00000000000E+00 0. -1.
    9900016    2    1    2    0    0 -0.63287461117E+02 -0.43273389087E+03 -0.14625431875E+04  0.16838849507E+04  0.71075454900E+03 0.  0.
         23    2    3    3    0    0  0.47478972678E+02  0.18494683985E+03 -0.41265206382E+03  0.46074552304E+03  0.74465594839E+02 0.  0.
        -15    1    4    4    0    0  0.20373573637E+02  0.35084530507E+02 -0.35144516735E+02  0.53676287504E+02  0.00000000000E+00 0. -1.
        -15    1    1    2    0    0  0.18981760292E+03  0.13729562818E+03  0.10823989989E+04  0.11074603401E+04  0.00000000000E+00 0.  1.
         15    1    4    4    0    0  0.27105399042E+02  0.14986230934E+03 -0.37750754708E+03  0.40706923554E+03  0.00000000000E+00 0.  1.
         15    1    1    2    0    0 -0.90531256429E+02 -0.42080214769E+02  0.15712864185E+03  0.18616138954E+03  0.00000000000E+00 0. -1.
        -16    1    1    2    0    0 -0.31878040743E+03  0.27588389545E+03  0.71479264466E+03  0.82985625068E+03  0.00000000000E+00 0.  1.
         16    1    3    3    0    0 -0.11076643379E+03 -0.61768073072E+03 -0.10498911237E+04  0.12231394277E+04  0.00000000000E+00 0. -1.
    9900018    1    1    2    0    0  0.28278152206E+03  0.61634582014E+02  0.43419580562E+03  0.52972199022E+03  0.91187600000E+02 0.  0.
<mgrwt>
<rscale>  0 0.20904765E+04</rscale>
<asrwt>0</asrwt>
<pdfrwt beam="1">  1        1 0.26239323E+00 0.33206274E+04</pdfrwt>
<pdfrwt beam="2">  1       -1 0.40485060E+00 0.33206274E+04</pdfrwt>
<totfact> 0.25190342E-02</totfact>
</mgrwt>
</event>
<event>
12    1  0.6919775E-013  0.2308101E+04  0.7818608E-02  0.8474734E-01
         -2   -1    0    0    0  501 -0.00000000000E+00  0.00000000000E+00  0.32895368642E+03  0.32895368642E+03  0.00000000000E+00 0. -1.
          2   -1    0    0  501    0  0.00000000000E+00 -0.00000000000E+00 -0.40486928972E+04  0.40486928972E+04  0.00000000000E+00 0.  1.
    9900016    2    1    2    0    0 -0.42004954901E+03  0.67181575556E+03 -0.10478649455E+04  0.15639534106E+04  0.84861728319E+03 0.  0.
    9900016    2    3    3    0    0 -0.39240604720E+03  0.54734052109E+03 -0.96432408889E+03  0.13744737304E+04  0.71112090060E+03 0.  0.
         23    2    4    4    0    0  0.79463160256E+02 -0.86186734194E+02 -0.50487709462E+02  0.16653571027E+03  0.10697002851E+03 0.  0.
        -15    1    3    3    0    0  0.41990605998E+02  0.38536512120E+02 -0.13536754227E+02  0.58579155622E+02  0.00000000000E+00 0. -1.
        -15    1    5    5    0    0 -0.17481823068E+02 -0.52958330385E+02 -0.23806975340E+02  0.60638032371E+02  0.00000000000E+00 0.  1.
         15    1    5    5    0    0  0.96944983324E+02 -0.33228403809E+02 -0.26680734121E+02  0.10589767790E+03  0.00000000000E+00 0. -1.
         15    1    3    3    0    0 -0.69634107812E+02  0.85938722349E+02 -0.70004102399E+02  0.13090052453E+03  0.00000000000E+00 0.  1.
        -16    1    1    2    0    0  0.35306392565E+03 -0.41550663139E+03 -0.12387717526E+04  0.13534605097E+04  0.00000000000E+00 0.  1.
         16    1    4    4    0    0 -0.47186920745E+03  0.63352725528E+03 -0.91383637943E+03  0.12079380201E+04  0.00000000000E+00 0. -1.
    9900018    1    1    2    0    0  0.66985623361E+02 -0.25630912417E+03 -0.14331025126E+04  0.14602326633E+04  0.91187600000E+02 0.  0.
<mgrwt>
<rscale>  0 0.23081009E+04</rscale>
<asrwt>0</asrwt>
<pdfrwt beam="1">  1        2 0.62287582E+00 0.23081009E+04</pdfrwt>
<pdfrwt beam="2">  1       -2 0.50608260E-01 0.23081009E+04</pdfrwt>
<totfact> 0.10505267E+00</totfact>
</mgrwt>
</event>
<event>
11    1  0.6919775E-013  0.2651139E+04  0.7818608E-02  0.8684139E-01
         -2   -1    0    0    0  501 -0.00000000000E+00  0.00000000000E+00  0.17614542616E+04  0.17614542616E+04  0.00000000000E+00 0. -1.
          2   -1    0    0  501    0  0.00000000000E+00 -0.00000000000E+00 -0.15175319807E+04  0.15175319807E+04  0.00000000000E+00 0.  1.
    9900016    2    1    2    0    0 -0.15020888526E+03 -0.61817450352E+02  0.66009421336E+02  0.73491337535E+03  0.71369203386E+03 0.  0.
         23    2    3    3    0    0 -0.28094554765E+03 -0.19531457835E+03  0.28216540039E+03  0.44919154322E+03  0.71256887840E+02 0.  0.
        -15    1    4    4    0    0 -0.44828091259E+02 -0.58663152915E+02  0.37816139924E+02  0.82951695068E+02  0.00000000000E+00 0.  1.
        -15    1    1    2    0    0  0.42556105111E+02  0.23518812980E+03  0.84234849613E+02  0.25341663002E+03  0.00000000000E+00 0.  1.
         15    1    1    2    0    0 -0.34885213989E+03 -0.11871885948E+03 -0.13822654335E+02  0.36875879498E+03  0.00000000000E+00 0. -1.
         15    1    4    4    0    0 -0.23611745639E+03 -0.13665142544E+03  0.24434926046E+03  0.36623984815E+03  0.00000000000E+00 0. -1.
        -16    1    1    2    0    0  0.76383115892E+03  0.25078455403E+02 -0.70814939869E+03  0.10418937274E+04  0.00000000000E+00 0.  1.
         16    1    3    3    0    0  0.13073666239E+03  0.13349712800E+03 -0.21615597905E+03  0.28572183213E+03  0.00000000000E+00 0. -1.
    9900018    1    1    2    0    0 -0.30732623888E+03 -0.79730275369E+02  0.81565006302E+03  0.88000371454E+03  0.91187600000E+02 0.  0.
<mgrwt>
<rscale>  0 0.18422680E+04</rscale>
<asrwt>0</asrwt>
<pdfrwt beam="1">  1        2 0.23346646E+00 0.26511390E+04</pdfrwt>
<pdfrwt beam="2">  1       -2 0.27099296E+00 0.26511390E+04</pdfrwt>
<totfact> 0.51197756E-01</totfact>
</mgrwt>
</event>
<event>
10    1  0.6919775E-013  0.2150050E+04  0.7818608E-02  0.8871481E-01
         -2   -1    0    0    0  501 -0.00000000000E+00  0.00000000000E+00  0.13711060064E+04  0.13711060064E+04  0.00000000000E+00 0. -1.
          2   -1    0    0  501    0  0.00000000000E+00 -0.00000000000E+00 -0.13292516105E+04  0.13292516105E+04  0.00000000000E+00 0.  1.
    9900016    2    1    2    0    0  0.81992630423E+03  0.24980209558E+03 -0.30087500386E+02  0.11352322766E+04  0.74375186233E+03 0.  0.
        -15    1    3    3    0    0 -0.15283418718E+02 -0.41245857993E+02  0.14646449932E+02  0.46360782833E+02  0.00000000000E+00 0.  1.
        -15    1    1    2    0    0  0.13090429761E+03  0.18117661138E+03 -0.88226811596E+02  0.24030162281E+03  0.00000000000E+00 0.  1.
         15    1    1    2    0    0 -0.63752450909E+03 -0.27846437282E+03  0.10997911453E+03  0.70432614055E+03  0.00000000000E+00 0. -1.
         15    1    3    3    0    0  0.19386109193E+03 -0.99526994521E+02  0.20332614640E+03  0.29804239197E+03  0.00000000000E+00 0. -1.
        -16    1    3    3    0    0  0.64134863102E+03  0.39057494810E+03 -0.24806009671E+03  0.79082910175E+03  0.00000000000E+00 0.  1.
         16    1    1    2    0    0 -0.57265315889E+02 -0.29976576825E+03 -0.10978615804E+02  0.30538395869E+03  0.00000000000E+00 0. -1.
    9900018    1    1    2    0    0 -0.25604077686E+03  0.14725143412E+03  0.61168209110E+02  0.31511361834E+03  0.91187600000E+02 0.  0.
<mgrwt>
<rscale>  0 0.15196635E+04</rscale>
<asrwt>0</asrwt>
<pdfrwt beam="1">  1        2 0.20450025E+00 0.21500497E+04</pdfrwt>
<pdfrwt beam="2">  1       -2 0.21093939E+00 0.21500497E+04</pdfrwt>
<totfact> 0.16194655E+00</totfact>
</mgrwt>
</event>
<event>
11    1  0.6919775E-013  0.1715645E+04  0.7818608E-02  0.9172104E-01
         -2   -1    0    0    0  501 -0.00000000000E+00  0.00000000000E+00  0.11451143929E+04  0.11451143929E+04  0.00000000000E+00 0.  1.
          2   -1    0    0  501    0  0.00000000000E+00 -0.00000000000E+00 -0.95173538485E+03  0.95173538485E+03  0.00000000000E+00 0. -1.
    9900016    2    1    2    0    0 -0.34423397287E+03 -0.52454918135E+02  0.10712874102E+03  0.79453363230E+03  0.70608680712E+03 0.  0.
         23    2    3    3    0    0  0.40213584934E+02  0.23034108197E+03  0.17272846274E+03  0.31279010524E+03  0.11544861038E+03 0.  0.
        -15    1    4    4    0    0  0.58879726356E+02  0.46267022448E+02  0.61593903273E+02  0.96960138523E+02  0.00000000000E+00 0.  1.
        -15    1    1    2    0    0 -0.10147407299E+02 -0.16181161303E+02  0.53410942703E+02  0.56723263802E+02  0.00000000000E+00 0.  1.
         15    1    1    2    0    0 -0.11065353772E+03 -0.20596321892E+03 -0.17978808833E+03  0.29493865407E+03  0.00000000000E+00 0. -1.
         15    1    4    4    0    0 -0.18666141423E+02  0.18407405952E+03  0.11113455946E+03  0.21582996672E+03  0.00000000000E+00 0. -1.
        -16    1    1    2    0    0  0.59961391725E+03  0.37354110279E+03  0.26296496877E+03  0.75380394005E+03  0.00000000000E+00 0.  1.
         16    1    3    3    0    0 -0.38444755780E+03 -0.28279600011E+03 -0.65599721721E+02  0.48174352706E+03  0.00000000000E+00 0. -1.
    9900018    1    1    2    0    0 -0.13457899935E+03 -0.98941804428E+02 -0.50337556156E+02  0.19685028749E+03  0.91187600000E+02 0.  0.
<mgrwt>
<rscale>  0 0.11346056E+04</rscale>
<asrwt>0</asrwt>
<pdfrwt beam="1">  1        2 0.14642083E+00 0.17156447E+04</pdfrwt>
<pdfrwt beam="2">  1       -2 0.17617144E+00 0.17156447E+04</pdfrwt>
<totfact> 0.49073416E+00</totfact>
</mgrwt>
</event>
<event>
11    1  0.7424437E-013  0.1774693E+04  0.7818608E-02  0.8932642E-01
          2   -1    0    0  501    0  0.00000000000E+00  0.00000000000E+00  0.92599730640E+03  0.92599730640E+03  0.00000000000E+00 0. -1.
         -2   -1    0    0    0  501 -0.00000000000E+00 -0.00000000000E+00 -0.17351960075E+04  0.17351960075E+04  0.00000000000E+00 0.  1.
    9900016    2    1    2    0    0  0.32371047939E+03  0.21564695777E+03  0.16166500985E+02  0.81196844768E+03  0.71255829194E+03 0.  0.
         23    2    3    3    0    0  0.43378091543E+03 -0.50115153030E+02  0.17064846204E+03  0.48545707465E+03  0.12597723039E+03 0.  0.
        -15    1    1    2    0    0 -0.14268833804E+03 -0.45065948464E+03 -0.69274427555E+01  0.47275989928E+03  0.00000000000E+00 0.  1.
        -15    1    4    4    0    0  0.81332857592E+02 -0.25419731867E+02 -0.14712035835E+02  0.86473351333E+02  0.00000000000E+00 0.  1.
         15    1    4    4    0    0  0.35244805784E+03 -0.24695421163E+02  0.18536049788E+03  0.39898372332E+03  0.00000000000E+00 0. -1.
         15    1    1    2    0    0  0.25142973206E+03  0.71001034290E+02 -0.11093578537E+03  0.28383940091E+03  0.00000000000E+00 0. -1.
        -16    1    1    2    0    0 -0.57385564323E+03  0.13677283839E+03 -0.70879288294E+03  0.92217376860E+03  0.00000000000E+00 0.  1.
         16    1    3    3    0    0 -0.11007043604E+03  0.26576211080E+03 -0.15448196106E+03  0.32651137303E+03  0.00000000000E+00 0. -1.
    9900018    1    1    2    0    0  0.14140376983E+03  0.27238654188E+02  0.12909089931E+01  0.17045179742E+03  0.91187600000E+02 0.  0.
<mgrwt>
<rscale>  0 0.14296350E+04</rscale>
<asrwt>0</asrwt>
<pdfrwt beam="1">  1        2 0.14246113E+00 0.17746925E+04</pdfrwt>
<pdfrwt beam="2">  1       -2 0.26695323E+00 0.17746925E+04</pdfrwt>
<totfact> 0.13239947E+00</totfact>
</mgrwt>
</event>
<event>
10    1  0.6919775E-013  0.2439078E+04  0.7818608E-02  0.8873284E-01
          2   -1    0    0  501    0  0.00000000000E+00  0.00000000000E+00  0.14115686404E+04  0.14115686404E+04  0.00000000000E+00 0. -1.
         -2   -1    0    0    0  501 -0.00000000000E+00 -0.00000000000E+00 -0.14214473758E+04  0.14214473758E+04  0.00000000000E+00 0.  1.
    9900016    2    1    2    0    0 -0.29737847639E+03  0.21589491742E+03  0.28263628750E+03  0.85737024318E+03  0.72121833676E+03 0.  0.
        -15    1    3    3    0    0  0.16442232194E+03 -0.15690834527E+02 -0.49763171098E+02  0.17250297226E+03  0.00000000000E+00 0. -1.
        -15    1    1    2    0    0  0.55639536755E+02  0.61847986743E+01 -0.85347064573E+02  0.10206924716E+03  0.00000000000E+00 0.  1.
         15    1    3    3    0    0  0.32947873416E+02 -0.21231184176E+02  0.38303129360E+01  0.39382697233E+02  0.00000000000E+00 0.  1.
         15    1    1    2    0    0  0.18312987313E+03 -0.21626902542E+03 -0.53781585387E+02  0.28844635674E+03  0.00000000000E+00 0. -1.
        -16    1    1    2    0    0 -0.61549753769E+03  0.42044886194E+03 -0.22648341588E+03  0.77904377417E+03  0.00000000000E+00 0.  1.
         16    1    3    3    0    0 -0.49474867175E+03  0.25281693612E+03  0.32856914566E+03  0.64548457369E+03  0.00000000000E+00 0. -1.
    9900018    1    1    2    0    0  0.67410660420E+03 -0.42625955262E+03  0.73097042905E+02  0.80608639493E+03  0.91187600000E+02 0.  0.
<mgrwt>
<rscale>  0 0.15169113E+04</rscale>
<asrwt>0</asrwt>
<pdfrwt beam="1">  1        2 0.21716441E+00 0.24390783E+04</pdfrwt>
<pdfrwt beam="2">  1       -2 0.21868421E+00 0.24390783E+04</pdfrwt>
<totfact> 0.12702081E+00</totfact>
</mgrwt>
</event>
<event>
11    1  0.6919775E-013  0.1447834E+04  0.7818608E-02  0.9448529E-01
         -2   -1    0    0    0  501 -0.00000000000E+00  0.00000000000E+00  0.10591201949E+04  0.10591201949E+04  0.00000000000E+00 0.  1.
          2   -1    0    0  501    0  0.00000000000E+00 -0.00000000000E+00 -0.13383224796E+04  0.13383224796E+04  0.00000000000E+00 0. -1.
    9900016    2    1    2    0    0  0.16320957738E+03 -0.81517286489E+00 -0.80686377740E+03  0.10842657651E+04  0.70566639676E+03 0.  0.
         23    2    3    3    0    0 -0.49255353252E+02 -0.17365240282E+03  0.14351175292E+02  0.21858218938E+03  0.12243761863E+03 0.  0.
        -15    1    4    4    0    0 -0.63215331352E+02 -0.23806973400E+02  0.19489325451E+01  0.67577721466E+02  0.00000000000E+00 0.  1.
        -15    1    1    2    0    0 -0.23368060427E+03 -0.24951681248E+03  0.10371811320E+03  0.35724321061E+03  0.00000000000E+00 0.  1.
         15    1    4    4    0    0  0.13959978100E+02 -0.14984542942E+03  0.12402242747E+02  0.15100446792E+03  0.00000000000E+00 0. -1.
         15    1    1    2    0    0 -0.24189517845E+02 -0.30021019849E+02  0.13083826047E+03  0.13640031088E+03  0.00000000000E+00 0. -1.
        -16    1    1    2    0    0  0.64028954074E+02  0.14738050905E+03  0.51730262735E+03  0.54168508348E+03  0.00000000000E+00 0.  1.
         16    1    3    3    0    0  0.21246493063E+03  0.17283722995E+03 -0.82121495269E+03  0.86568357575E+03  0.00000000000E+00 0. -1.
    9900018    1    1    2    0    0  0.30631590660E+02  0.13297249614E+03 -0.22419750840E+03  0.27784830437E+03  0.91187600000E+02 0.  0.
<mgrwt>
<rscale>  0 0.88187289E+03</rscale>
<asrwt>0</asrwt>
<pdfrwt beam="1">  1        2 0.20589576E+00 0.14478343E+04</pdfrwt>
<pdfrwt beam="2">  1       -2 0.16294157E+00 0.14478343E+04</pdfrwt>
<totfact> 0.35805115E+00</totfact>
</mgrwt>
</event>
<event>
11    1  0.6919775E-013  0.1602896E+04  0.7818608E-02  0.8962610E-01
          2   -1    0    0  501    0  0.00000000000E+00  0.00000000000E+00  0.11009175002E+04  0.11009175002E+04  0.00000000000E+00 0.  1.
         -2   -1    0    0    0  501 -0.00000000000E+00 -0.00000000000E+00 -0.14621394323E+04  0.14621394323E+04  0.00000000000E+00 0. -1.
    9900016    2    1    2    0    0 -0.23658541398E+03  0.26051472347E+02  0.79975414350E+02  0.75652975452E+03  0.71364547589E+03 0.  0.
         23    2    3    3    0    0  0.11701362364E+03 -0.23517750872E+03 -0.84897491253E+02  0.28700240180E+03  0.78499336905E+02 0.  0.
        -15    1    1    2    0    0 -0.10391712384E+03 -0.68473894854E+03 -0.98243725754E+02  0.69951270605E+03  0.00000000000E+00 0.  1.
        -15    1    4    4    0    0  0.11936823047E+03 -0.17817843927E+03 -0.50312846487E+02  0.22029006603E+03  0.00000000000E+00 0. -1.
         15    1    1    2    0    0 -0.13901575051E+03  0.10753992453E+03 -0.27605882619E+03  0.32725936163E+03  0.00000000000E+00 0. -1.
         15    1    4    4    0    0 -0.23546068349E+01 -0.56999069442E+02 -0.34584644766E+02  0.66712335772E+02  0.00000000000E+00 0.  1.
        -16    1    1    2    0    0  0.45141672464E+03  0.43979155162E+03 -0.54846276812E+02  0.63261503479E+03  0.00000000000E+00 0.  1.
         16    1    3    3    0    0 -0.35359903762E+03  0.26122898106E+03  0.16487290560E+03  0.46952735272E+03  0.00000000000E+00 0. -1.
    9900018    1    1    2    0    0  0.28101563691E+02  0.11135600004E+03 -0.12048517727E+02  0.14714007544E+03  0.91187600000E+02 0.  0.
<mgrwt>
<rscale>  0 0.13879191E+04</rscale>
<asrwt>0</asrwt>
<pdfrwt beam="1">  1        2 0.16937192E+00 0.16028959E+04</pdfrwt>
<pdfrwt beam="2">  1       -2 0.22494453E+00 0.16028959E+04</pdfrwt>
<totfact> 0.18786790E+00</totfact>
</mgrwt>
</event>
