<event>
12    1  0.4426306E-013  0.1006300E+04  0.7818608E-02  0.9301662E-01
         -2   -1    0    0    0  501 -0.00000000000E+00  0.00000000000E+00  0.19449526094E+03  0.19449526094E+03  0.00000000000E+00 0.  1.
          2   -1    0    0  501    0  0.00000000000E+00 -0.00000000000E+00 -0.13016260128E+04  0.13016260128E+04  0.00000000000E+00 0. -1.
    9900016    2    1    2    0    0  0.30493978092E+01  0.19352511148E+03 -0.10266395336E+04  0.12865023246E+04  0.75075843765E+03 0.  0.
         23    2    3    3    0    0 -0.98816097623E+02  0.44020718827E+02 -0.55328153251E+02  0.14764824630E+03  0.83882985502E+02 0.  0.
         23    2    3    3    0    0 -0.40614068823E+02 -0.11296653669E+03 -0.90507138693E+02  0.17530030807E+03  0.90153839941E+02 0.  0.
        -15    1    4    4    0    0 -0.70980176759E+02  0.92225749718E+01 -0.70605497426E+02  0.10054042793E+03  0.00000000000E+00 0.  1.
        -15    1    5    5    0    0 -0.60766970866E+02 -0.36411167273E+02 -0.39181791221E+02  0.80954373654E+02  0.00000000000E+00 0. -1.
         15    1    4    4    0    0 -0.27835920865E+02  0.34798143856E+02  0.15277344175E+02  0.47107818366E+02  0.00000000000E+00 0.  1.
         15    1    5    5    0    0  0.20152902043E+02 -0.76555369417E+02 -0.51325347472E+02  0.94345934414E+02  0.00000000000E+00 0. -1.
        -16    1    1    2    0    0 -0.30493978092E+01 -0.19352511148E+03 -0.80491218191E+02  0.20961894906E+03  0.00000000000E+00 0.  1.
         16    1    3    3    0    0  0.15294476016E+03  0.24011396022E+03 -0.74990855794E+03  0.80212820598E+03  0.00000000000E+00 0. -1.
    9900018    1    3    3    0    0 -0.10465195902E+02  0.22356969121E+02 -0.13089568374E+03  0.16142556429E+03  0.91187600000E+02 0.  0.
<mgrwt>
<rscale>  0 0.10063003E+04</rscale>
<asrwt>0</asrwt>
<pdfrwt beam="1">  1        2 0.20025016E+00 0.10063003E+04</pdfrwt>
<pdfrwt beam="2">  1       -2 0.29922348E-01 0.10063003E+04</pdfrwt>
<totfact> 0.16941007E+02</totfact>
</mgrwt>
</event>
<event>
12    1  0.4426306E-013  0.7911468E+03  0.7818608E-02  0.9572921E-01
          2   -1    0    0  501    0  0.00000000000E+00  0.00000000000E+00  0.35604154912E+03  0.35604154912E+03  0.00000000000E+00 0. -1.
         -2   -1    0    0    0  501 -0.00000000000E+00 -0.00000000000E+00 -0.43949449573E+03  0.43949449573E+03  0.00000000000E+00 0.  1.
    9900016    2    1    2    0    0 -0.33291088873E+02  0.10200612709E+02 -0.88890788248E+02  0.66946625455E+03  0.66262443710E+03 0.  0.
         23    2    3    3    0    0  0.14361756746E+03  0.13998323280E+03  0.16196092031E+03  0.27348746214E+03  0.91338606796E+02 0.  0.
         23    2    3    3    0    0 -0.12798367285E+03  0.64770947198E+01 -0.16272956994E+03  0.22649169790E+03  0.91628614603E+02 0.  0.
        -15    1    5    5    0    0 -0.10993006312E+03  0.24279006647E+02 -0.75252268364E+02  0.13541415301E+03  0.00000000000E+00 0.  1.
        -15    1    4    4    0    0  0.12988659343E+03  0.11530201000E+03  0.17109824636E+03  0.24380256473E+03  0.00000000000E+00 0.  1.
         15    1    5    5    0    0 -0.18053609726E+02 -0.17801911927E+02 -0.87477301574E+02  0.91077544890E+02  0.00000000000E+00 0. -1.
         15    1    4    4    0    0  0.13730974031E+02  0.24681222797E+02 -0.91373260502E+01  0.29684897405E+02  0.00000000000E+00 0. -1.
        -16    1    3    3    0    0 -0.48924983487E+02 -0.13625971481E+03 -0.88122138620E+02  0.16948709451E+03  0.00000000000E+00 0.  1.
         16    1    1    2    0    0 -0.52385973617E+01 -0.59949117107E+01  0.23979929735E+02  0.25266952702E+02  0.00000000000E+00 0. -1.
    9900018    1    1    2    0    0  0.38529686234E+02 -0.42057009982E+01 -0.18542088099E+02  0.10080283759E+03  0.91187600000E+02 0.  0.
<mgrwt>
<rscale>  0 0.79114677E+03</rscale>
<asrwt>0</asrwt>
<pdfrwt beam="1">  1        2 0.54775623E-01 0.79114677E+03</pdfrwt>
<pdfrwt beam="2">  1       -2 0.67614538E-01 0.79114677E+03</pdfrwt>
<totfact> 0.18319186E+02</totfact>
</mgrwt>
</event>
<event>
12    1  0.4426306E-013  0.9855464E+03  0.7818608E-02  0.9324541E-01
          1   -1    0    0  501    0  0.00000000000E+00  0.00000000000E+00  0.47172886965E+03  0.47172886965E+03  0.00000000000E+00 0. -1.
         -1   -1    0    0    0  501 -0.00000000000E+00 -0.00000000000E+00 -0.51475636293E+03  0.51475636293E+03  0.00000000000E+00 0.  1.
    9900016    2    1    2    0    0  0.17918099499E+03  0.23788565855E+01 -0.13003352571E+03  0.69479181040E+03  0.65857076618E+03 0.  0.
         23    2    3    3    0    0  0.82075589481E+02 -0.61357416638E+02  0.32035629290E+01  0.13597347389E+03  0.89316223731E+02 0.  0.
         23    2    3    3    0    0 -0.13816551208E+03  0.16887373143E+03  0.50455582222E+02  0.24235461488E+03  0.92638802236E+02 0.  0.
        -15    1    5    5    0    0 -0.31546002677E+00  0.39855469761E+02  0.34778658095E+02  0.52897193156E+02  0.00000000000E+00 0.  1.
        -15    1    4    4    0    0  0.14610132567E+02 -0.45148475754E+02  0.35673111481E+02  0.59366756011E+02  0.00000000000E+00 0. -1.
         15    1    5    5    0    0 -0.13785005205E+03  0.12901826167E+03  0.15676924126E+02  0.18945742172E+03  0.00000000000E+00 0. -1.
         15    1    4    4    0    0  0.67465456914E+02 -0.16208940884E+02 -0.32469548552E+02  0.76606717880E+02  0.00000000000E+00 0.  1.
        -16    1    3    3    0    0  0.23527091759E+03 -0.10513745820E+03 -0.18369267086E+03  0.31646372163E+03  0.00000000000E+00 0.  1.
         16    1    1    2    0    0 -0.15183382331E+03 -0.28405432692E+02  0.11089133291E+03  0.19015064087E+03  0.00000000000E+00 0. -1.
    9900018    1    1    2    0    0 -0.27347171681E+02  0.26026576107E+02 -0.23885300476E+02  0.10154278131E+03  0.91187600000E+02 0.  0.
<mgrwt>
<rscale>  0 0.98554642E+03</rscale>
<asrwt>0</asrwt>
<pdfrwt beam="1">  1        1 0.72573672E-01 0.98554642E+03</pdfrwt>
<pdfrwt beam="2">  1       -1 0.79193287E-01 0.98554642E+03</pdfrwt>
<totfact> 0.76846569E+01</totfact>
</mgrwt>
</event>
<event>
12    1  0.4426306E-013  0.1308877E+04  0.7818608E-02  0.9022555E-01
          2   -1    0    0  501    0  0.00000000000E+00  0.00000000000E+00  0.17850665860E+04  0.17850665860E+04  0.00000000000E+00 0.  1.
         -2   -1    0    0    0  501 -0.00000000000E+00 -0.00000000000E+00 -0.23992938956E+03  0.23992938956E+03  0.00000000000E+00 0. -1.
    9900016    2    1    2    0    0  0.17708016893E+03 -0.80122027900E+02  0.14661884064E+04  0.16255032783E+04  0.67437047616E+03 0.  0.
         23    2    3    3    0    0  0.40026572741E+02  0.18148174428E+02  0.43858995101E+02  0.11022733141E+03  0.91076727974E+02 0.  0.
         23    2    3    3    0    0  0.32533819569E+02 -0.12576211133E+02  0.12654629974E+02  0.99136535337E+02  0.91930965820E+02 0.  0.
        -15    1    5    5    0    0  0.46574529925E+02 -0.43895902894E+02  0.79131286268E+01  0.64487632406E+02  0.00000000000E+00 0. -1.
        -15    1    4    4    0    0  0.33492025223E+01  0.48457194545E+02  0.50644606709E+01  0.48836109823E+02  0.00000000000E+00 0. -1.
         15    1    5    5    0    0 -0.14040710356E+02  0.31319691761E+02  0.47415013477E+01  0.34648902931E+02  0.00000000000E+00 0.  1.
         15    1    4    4    0    0  0.36677370219E+02 -0.30309020117E+02  0.38794534430E+02  0.61391221589E+02  0.00000000000E+00 0.  1.
        -16    1    3    3    0    0  0.10451977662E+03 -0.85693991194E+02  0.14096747814E+04  0.14161394116E+04  0.00000000000E+00 0.  1.
         16    1    1    2    0    0 -0.19606136350E+03  0.10372576342E+03 -0.60714886116E+02  0.22996823618E+03  0.00000000000E+00 0. -1.
    9900018    1    1    2    0    0  0.18981194568E+02 -0.23603735520E+02  0.13966367614E+03  0.16952446108E+03  0.91187600000E+02 0.  0.
<mgrwt>
<rscale>  0 0.13088773E+04</rscale>
<asrwt>0</asrwt>
<pdfrwt beam="1">  1        2 0.27462562E+00 0.13088773E+04</pdfrwt>
<pdfrwt beam="2">  1       -2 0.36912215E-01 0.13088773E+04</pdfrwt>
<totfact> 0.59582476E+01</totfact>
</mgrwt>
</event>
<event>
12    1  0.4426306E-013  0.1039035E+04  0.7818608E-02  0.9266738E-01
          1   -1    0    0  501    0  0.00000000000E+00  0.00000000000E+00  0.21241217931E+04  0.21241217931E+04  0.00000000000E+00 0. -1.
         -1   -1    0    0    0  501 -0.00000000000E+00 -0.00000000000E+00 -0.12706358922E+03  0.12706358922E+03  0.00000000000E+00 0.  1.
    9900016    2    1    2    0    0  0.85850802549E+02  0.10459862469E+03  0.10612347900E+04  0.13056290940E+04  0.74842288768E+03 0.  0.
         23    2    3    3    0    0 -0.63728890771E+02 -0.97785271375E+02  0.44775183120E+03  0.47162435181E+03  0.91238676309E+02 0.  0.
         23    2    3    3    0    0  0.25453450886E+03  0.16109858414E+03  0.42788820934E+03  0.53132114727E+03  0.92050376585E+02 0.  0.
        -15    1    4    4    0    0  0.10753161693E+02 -0.28376625851E+02  0.34186630404E+02  0.45712023358E+02  0.00000000000E+00 0. -1.
        -15    1    5    5    0    0  0.11466505612E+03  0.21400734477E+02  0.14248925612E+03  0.18414465684E+03  0.00000000000E+00 0.  1.
         15    1    4    4    0    0 -0.74482052465E+02 -0.69408645524E+02  0.41356520080E+03  0.42591232845E+03  0.00000000000E+00 0.  1.
         15    1    5    5    0    0  0.13986945274E+03  0.13969784966E+03  0.28539895322E+03  0.34717649043E+03  0.00000000000E+00 0. -1.
        -16    1    3    3    0    0 -0.12459773983E+03  0.66705990239E+01  0.49815178727E+02  0.13435269143E+03  0.00000000000E+00 0.  1.
         16    1    1    2    0    0 -0.85850802549E+02 -0.10459862469E+03  0.93582341388E+03  0.94555628841E+03  0.00000000000E+00 0. -1.
    9900018    1    3    3    0    0  0.19642924294E+02  0.34614712897E+02  0.13577957077E+03  0.16833090345E+03  0.91187600000E+02 0.  0.
<mgrwt>
<rscale>  0 0.10390352E+04</rscale>
<asrwt>0</asrwt>
<pdfrwt beam="1">  1        1 0.32678794E+00 0.10390352E+04</pdfrwt>
<pdfrwt beam="2">  1       -1 0.19548246E-01 0.10390352E+04</pdfrwt>
<totfact> 0.52451401E+01</totfact>
</mgrwt>
</event>
<event>
12    1  0.4426306E-013  0.1360735E+04  0.7818608E-02  0.8982742E-01
         -2   -1    0    0    0  501 -0.00000000000E+00  0.00000000000E+00  0.20196682306E+03  0.20196682306E+03  0.00000000000E+00 0.  1.
          2   -1    0    0  501    0  0.00000000000E+00 -0.00000000000E+00 -0.22919593778E+04  0.22919593778E+04  0.00000000000E+00 0. -1.
    9900016    2    1    2    0    0  0.18370073736E+02  0.29030821107E+03 -0.67449801865E+03  0.98942456131E+03  0.66287032543E+03 0.  0.
         23    2    3    3    0    0  0.11917450938E+03 -0.37069688459E+02 -0.20324504600E+03  0.25530075909E+03  0.91067026862E+02 0.  0.
         23    2    3    3    0    0  0.11133693064E+02  0.34380896025E+02 -0.40078140223E+03  0.41265276005E+03  0.91381414241E+02 0.  0.
        -15    1    4    4    0    0  0.77087798898E+02 -0.50822355461E+02 -0.18623776995E+03  0.20787002552E+03  0.00000000000E+00 0. -1.
        -15    1    5    5    0    0  0.31406076617E+01 -0.30246214744E+02 -0.86321182744E+02  0.91520727232E+02  0.00000000000E+00 0.  1.
         15    1    5    5    0    0  0.79930854028E+01  0.64627110770E+02 -0.31446021948E+03  0.32113203281E+03  0.00000000000E+00 0. -1.
         15    1    4    4    0    0  0.42086710480E+02  0.13752667002E+02 -0.17007276052E+02  0.47430733574E+02  0.00000000000E+00 0.  1.
        -16    1    3    3    0    0 -0.11193812871E+03  0.29299700350E+03 -0.70471570423E+02  0.32147104218E+03  0.00000000000E+00 0.  1.
         16    1    1    2    0    0 -0.67003053273E+01 -0.32132036645E+03 -0.13493054566E+04  0.13870533108E+04  0.00000000000E+00 0. -1.
    9900018    1    1    2    0    0 -0.11669768409E+02  0.31012155382E+02 -0.66189079527E+02  0.11744832872E+03  0.91187600000E+02 0.  0.
<mgrwt>
<rscale>  0 0.13607347E+04</rscale>
<asrwt>0</asrwt>
<pdfrwt beam="1">  1        2 0.35260912E+00 0.13607347E+04</pdfrwt>
<pdfrwt beam="2">  1       -2 0.31071820E-01 0.13607347E+04</pdfrwt>
<totfact> 0.43038026E+01</totfact>
</mgrwt>
</event>
<event>
12    1  0.4426306E-013  0.9980694E+03  0.7818608E-02  0.9310665E-01
          2   -1    0    0  501    0  0.00000000000E+00  0.00000000000E+00  0.14906116415E+04  0.14906116415E+04  0.00000000000E+00 0. -1.
         -2   -1    0    0    0  501 -0.00000000000E+00 -0.00000000000E+00 -0.16706942850E+03  0.16706942850E+03  0.00000000000E+00 0.  1.
    9900016    2    1    2    0    0  0.11704182518E+03  0.13030490047E+03  0.99696990398E+03  0.12170118108E+04  0.67564088267E+03 0.  0.
         23    2    3    3    0    0  0.40983128533E+02 -0.18652121494E+03  0.13342331981E+03  0.24962708305E+03  0.89677856114E+02 0.  0.
         23    2    3    3    0    0  0.12391014086E+03  0.55712184466E+02  0.40986193772E+03  0.44174225987E+03  0.93230068431E+02 0.  0.
        -15    1    5    5    0    0  0.82808287121E+02  0.19701824462E+01  0.13260461197E+03  0.15634921538E+03  0.00000000000E+00 0. -1.
        -15    1    4    4    0    0 -0.72687147190E+01 -0.14612160320E+03  0.78141018697E+02  0.16586252120E+03  0.00000000000E+00 0. -1.
         15    1    4    4    0    0  0.48251843251E+02 -0.40399611735E+02  0.55282301114E+02  0.83764561851E+02  0.00000000000E+00 0.  1.
         15    1    5    5    0    0  0.41101853742E+02  0.53742002020E+02  0.27725732575E+03  0.28539304449E+03  0.00000000000E+00 0.  1.
        -16    1    1    2    0    0 -0.12560374975E+03 -0.15579741537E+03  0.20718926988E+03  0.28805647040E+03  0.00000000000E+00 0.  1.
         16    1    3    3    0    0 -0.47851444217E+02  0.26111393094E+03  0.45368464645E+03  0.52564246791E+03  0.00000000000E+00 0. -1.
    9900018    1    1    2    0    0  0.85619245695E+01  0.25492514904E+02  0.11938303914E+03  0.15261278877E+03  0.91187600000E+02 0.  0.
<mgrwt>
<rscale>  0 0.99806941E+03</rscale>
<asrwt>0</asrwt>
<pdfrwt beam="1">  1        2 0.22932486E+00 0.99806941E+03</pdfrwt>
<pdfrwt beam="2">  1       -2 0.25702990E-01 0.99806941E+03</pdfrwt>
<totfact> 0.17485633E+02</totfact>
</mgrwt>
</event>
<event>
12    1  0.4426306E-013  0.1073706E+04  0.7818608E-02  0.9231206E-01
          2   -1    0    0  501    0  0.00000000000E+00  0.00000000000E+00  0.55013559108E+03  0.55013559108E+03  0.00000000000E+00 0. -1.
         -2   -1    0    0    0  501 -0.00000000000E+00 -0.00000000000E+00 -0.52389064393E+03  0.52389064393E+03  0.00000000000E+00 0.  1.
    9900016    2    1    2    0    0  0.64354907682E+02 -0.71329893020E+02  0.27100907557E+03  0.81108330139E+03  0.75840668179E+03 0.  0.
         23    2    3    3    0    0  0.19740000190E+03  0.82867033193E+02  0.37636916172E+02  0.23527485756E+03  0.90022303901E+02 0.  0.
         23    2    3    3    0    0 -0.71473817863E+02  0.96097576615E+02 -0.10922765637E+02  0.15752792875E+03  0.10174718991E+03 0.  0.
        -15    1    4    4    0    0  0.86999494144E+02 -0.85683355642E+01  0.27169036696E+02  0.91544988452E+02  0.00000000000E+00 0. -1.
        -15    1    5    5    0    0 -0.83498038854E+02  0.55576303993E+02 -0.38079672130E+02  0.10728797457E+03  0.00000000000E+00 0.  1.
         15    1    5    5    0    0  0.12024220991E+02  0.40521272623E+02  0.27156906493E+02  0.50239954176E+02  0.00000000000E+00 0. -1.
         15    1    4    4    0    0  0.11040050776E+03  0.91435368758E+02  0.10467879476E+02  0.14372986911E+03  0.00000000000E+00 0.  1.
        -16    1    1    2    0    0 -0.64354907682E+02  0.71329893020E+02 -0.24476412841E+03  0.26294293362E+03  0.00000000000E+00 0.  1.
         16    1    3    3    0    0 -0.87210448596E+02 -0.22328190684E+03  0.15600940144E+03  0.28600595379E+03  0.00000000000E+00 0. -1.
    9900018    1    3    3    0    0  0.25639172239E+02 -0.27012595985E+02  0.88285523599E+02  0.13227456130E+03  0.91187600000E+02 0.  0.
<mgrwt>
<rscale>  0 0.10737055E+04</rscale>
<asrwt>0</asrwt>
<pdfrwt beam="1">  1        2 0.84636245E-01 0.10737055E+04</pdfrwt>
<pdfrwt beam="2">  1       -2 0.80598561E-01 0.10737055E+04</pdfrwt>
<totfact> 0.74436739E+01</totfact>
</mgrwt>
</event>
<event>
12    1  0.4426306E-013  0.8564295E+03  0.7818608E-02  0.9481748E-01
          2   -1    0    0  501    0  0.00000000000E+00  0.00000000000E+00  0.91336783728E+03  0.91336783728E+03  0.00000000000E+00 0. -1.
         -2   -1    0    0    0  501 -0.00000000000E+00 -0.00000000000E+00 -0.20076016119E+03  0.20076016119E+03  0.00000000000E+00 0.  1.
    9900016    2    1    2    0    0  0.81353924856E+02 -0.20745378037E+02  0.54876298539E+03  0.85788348559E+03  0.65404466889E+03 0.  0.
         23    2    3    3    0    0  0.27307560469E+03  0.42993615160E+02  0.17073214705E+03  0.33707287559E+03  0.89721349740E+02 0.  0.
         23    2    3    3    0    0 -0.11383303688E+01  0.42911945400E+02  0.19668963739E+02  0.10114447011E+03  0.89446100227E+02 0.  0.
        -15    1    4    4    0    0  0.95995993014E+02  0.57973275750E+02  0.54141363931E+02  0.12452878649E+03  0.00000000000E+00 0.  1.
        -15    1    5    5    0    0 -0.22100259279E+02 -0.21804123908E+02  0.36683195907E+01  0.31261763358E+02  0.00000000000E+00 0.  1.
         15    1    4    4    0    0  0.17707961168E+03 -0.14979660590E+02  0.11659078312E+03  0.21254408910E+03  0.00000000000E+00 0. -1.
         15    1    5    5    0    0  0.20961928910E+02  0.64716069308E+02  0.16000644148E+02  0.69882706755E+02  0.00000000000E+00 0. -1.
        -16    1    1    2    0    0 -0.65648729989E+02 -0.38685474614E+02  0.10995723260E+03  0.13377935079E+03  0.00000000000E+00 0.  1.
         16    1    3    3    0    0 -0.19058334947E+03 -0.10665093860E+03  0.35836187460E+03  0.41966613989E+03  0.00000000000E+00 0. -1.
    9900018    1    1    2    0    0 -0.15705194866E+02  0.59430852651E+02  0.53887458096E+02  0.12246516209E+03  0.91187600000E+02 0.  0.
<mgrwt>
<rscale>  0 0.85642950E+03</rscale>
<asrwt>0</asrwt>
<pdfrwt beam="1">  1        2 0.14051813E+00 0.85642950E+03</pdfrwt>
<pdfrwt beam="2">  1       -2 0.30886179E-01 0.85642950E+03</pdfrwt>
<totfact> 0.27963494E+02</totfact>
</mgrwt>
</event>
<event>
12    1  0.4426306E-013  0.1085935E+04  0.7818608E-02  0.9219010E-01
          2   -1    0    0  501    0  0.00000000000E+00  0.00000000000E+00  0.18492501338E+04  0.18492501338E+04  0.00000000000E+00 0. -1.
         -2   -1    0    0    0  501 -0.00000000000E+00 -0.00000000000E+00 -0.15942330816E+03  0.15942330816E+03  0.00000000000E+00 0.  1.
    9900016    2    1    2    0    0  0.25409357112E+02  0.13791055341E+03  0.75187238289E+03  0.10065421173E+04  0.65433171831E+03 0.  0.
         23    2    3    3    0    0  0.87811171958E+02  0.76350477714E+02  0.66609366401E+03  0.68213893734E+03  0.89958675106E+02 0.  0.
         23    2    3    3    0    0  0.65854490727E+02  0.74172756664E+02  0.12634788287E+03  0.18929353298E+03  0.10014910057E+03 0.  0.
        -15    1    5    5    0    0  0.91986125727E+02  0.53744401716E+02  0.10650278525E+03  0.15064113418E+03  0.00000000000E+00 0.  1.
        -15    1    4    4    0    0  0.66383653626E+02  0.96372773326E+02  0.50337466120E+03  0.51679836537E+03  0.00000000000E+00 0.  1.
         15    1    5    5    0    0 -0.26131635000E+02  0.20428354948E+02  0.19845097617E+02  0.38652398801E+02  0.00000000000E+00 0. -1.
         15    1    4    4    0    0  0.21427518332E+02 -0.20022295612E+02  0.16271900281E+03  0.16534057197E+03  0.00000000000E+00 0. -1.
        -16    1    3    3    0    0 -0.12825630557E+03 -0.12612680970E+02 -0.40569163992E+02  0.13510964698E+03  0.00000000000E+00 0.  1.
         16    1    1    2    0    0  0.73166867040E+01 -0.11577744661E+03  0.87891614128E+03  0.88653907666E+03  0.00000000000E+00 0. -1.
    9900018    1    1    2    0    0 -0.32726043816E+02 -0.22133106796E+02  0.59038301479E+02  0.11559224799E+03  0.91187600000E+02 0.  0.
<mgrwt>
<rscale>  0 0.10859348E+04</rscale>
<asrwt>0</asrwt>
<pdfrwt beam="1">  1        2 0.28450001E+00 0.10859348E+04</pdfrwt>
<pdfrwt beam="2">  1       -2 0.24526664E-01 0.10859348E+04</pdfrwt>
<totfact> 0.11969526E+02</totfact>
</mgrwt>
</event>
<event>
12    1  0.4426306E-013  0.1511459E+04  0.7818608E-02  0.8876868E-01
          1   -1    0    0  501    0  0.00000000000E+00  0.00000000000E+00  0.21064571517E+04  0.21064571517E+04  0.00000000000E+00 0. -1.
         -1   -1    0    0    0  501 -0.00000000000E+00 -0.00000000000E+00 -0.27113154860E+03  0.27113154860E+03  0.00000000000E+00 0.  1.
    9900016    2    1    2    0    0  0.50024264312E+03  0.26611288533E+03  0.11297535985E+04  0.14726629446E+04  0.75586651281E+03 0.  0.
         23    2    3    3    0    0  0.28477111908E+03  0.11549600732E+03  0.58440567604E+03  0.66628575336E+03  0.89290497683E+02 0.  0.
         23    2    3    3    0    0 -0.13038369327E+03 -0.26978213099E+02  0.17981649575E+03  0.24174285681E+03  0.91530897634E+02 0.  0.
        -15    1    5    5    0    0 -0.27409748543E+02 -0.34791392466E+02  0.14098607926E+02  0.46481244071E+02  0.00000000000E+00 0. -1.
        -15    1    4    4    0    0  0.21225217451E+03  0.41257940753E+02  0.39671974945E+03  0.45181828522E+03  0.00000000000E+00 0. -1.
         15    1    5    5    0    0 -0.10297394473E+03  0.78131793670E+01  0.16571788782E+03  0.19526161274E+03  0.00000000000E+00 0.  1.
         15    1    4    4    0    0  0.72518944567E+02  0.74238066569E+02  0.18768592659E+03  0.21446746814E+03  0.00000000000E+00 0.  1.
        -16    1    3    3    0    0  0.26515535733E+03  0.14945278173E+03  0.24133997972E+03  0.38844366812E+03  0.00000000000E+00 0.  1.
         16    1    1    2    0    0 -0.50024264312E+03 -0.26611288533E+03  0.70557200456E+03  0.90492575571E+03  0.00000000000E+00 0. -1.
    9900018    1    3    3    0    0  0.80699859988E+02  0.28142309380E+02  0.12419144703E+03  0.17619066629E+03  0.91187600000E+02 0.  0.
<mgrwt>
<rscale>  0 0.15114589E+04</rscale>
<asrwt>0</asrwt>
<pdfrwt beam="1">  1        1 0.32407032E+00 0.15114589E+04</pdfrwt>
<pdfrwt beam="2">  1       -1 0.41712547E-01 0.15114589E+04</pdfrwt>
<totfact> 0.13760778E+01</totfact>
</mgrwt>
</event>
<event>
12    1  0.4426306E-013  0.1049134E+04  0.7818608E-02  0.9256239E-01
         -2   -1    0    0    0  501 -0.00000000000E+00  0.00000000000E+00  0.12482504396E+03  0.12482504396E+03  0.00000000000E+00 0. -1.
          2   -1    0    0  501    0  0.00000000000E+00 -0.00000000000E+00 -0.22044485449E+04  0.22044485449E+04  0.00000000000E+00 0.  1.
    9900016    2    1    2    0    0 -0.13816190061E+03 -0.79865721764E+02 -0.10584422080E+04  0.12570283150E+04  0.65905465073E+03 0.  0.
         23    2    3    3    0    0  0.91792516887E+02 -0.14490737274E+02 -0.46415932868E+03  0.48343725896E+03  0.98142005951E+02 0.  0.
         23    2    3    3    0    0  0.87406935692E+02  0.61194494883E+02 -0.26083181742E+03  0.29617334342E+03  0.91108033450E+02 0.  0.
        -15    1    5    5    0    0  0.10057268453E+03  0.28002686492E+02 -0.18730416051E+03  0.21443382165E+03  0.00000000000E+00 0.  1.
        -15    1    4    4    0    0  0.24344729124E+02  0.41057562514E+02 -0.15786253276E+03  0.16492109788E+03  0.00000000000E+00 0.  1.
         15    1    5    5    0    0 -0.13165748840E+02  0.33191808392E+02 -0.73527656913E+02  0.81739521762E+02  0.00000000000E+00 0. -1.
         15    1    4    4    0    0  0.67447787763E+02 -0.55548299788E+02 -0.30629679591E+03  0.31851616108E+03  0.00000000000E+00 0. -1.
        -16    1    3    3    0    0 -0.31736135319E+03 -0.12656947937E+03 -0.33345106192E+03  0.47741771260E+03  0.00000000000E+00 0.  1.
         16    1    1    2    0    0  0.10033927856E+03  0.10543885714E+03 -0.90924212418E+03  0.92081842064E+03  0.00000000000E+00 0. -1.
    9900018    1    1    2    0    0  0.37822622052E+02 -0.25573135379E+02 -0.11193916878E+03  0.15142685327E+03  0.91187600000E+02 0.  0.
<mgrwt>
<rscale>  0 0.10491337E+04</rscale>
<asrwt>0</asrwt>
<pdfrwt beam="1">  1        2 0.33914594E+00 0.10491337E+04</pdfrwt>
<pdfrwt beam="2">  1       -2 0.19203852E-01 0.10491337E+04</pdfrwt>
<totfact> 0.11798955E+02</totfact>
</mgrwt>
</event>
<event>
12    1  0.4426306E-013  0.2559449E+04  0.7818608E-02  0.8382107E-01
         -1   -1    0    0    0  501 -0.00000000000E+00  0.00000000000E+00  0.19188820332E+04  0.19188820332E+04  0.00000000000E+00 0.  1.
          1   -1    0    0  501    0  0.00000000000E+00 -0.00000000000E+00 -0.85346288198E+03  0.85346288198E+03  0.00000000000E+00 0. -1.
    9900016    2    1    2    0    0  0.75954662785E+03  0.64722381314E+02  0.11233223933E+04  0.15107019827E+04  0.66277237027E+03 0.  0.
         23    2    3    3    0    0  0.65983802257E+02 -0.19889913242E+03  0.28233049505E+03  0.36333197284E+03  0.91569028697E+02 0.  0.
         23    2    3    3    0    0  0.19752188448E+03  0.32285368663E+02  0.34095565522E+03  0.40601363699E+03  0.92407114011E+02 0.  0.
        -15    1    5    5    0    0  0.71610568493E+02  0.56822462988E+02  0.15856196285E+03  0.18302666987E+03  0.00000000000E+00 0.  1.
        -15    1    4    4    0    0  0.68126060414E+02 -0.17191777061E+03  0.28080004601E+03  0.33622246474E+03  0.00000000000E+00 0.  1.
         15    1    4    4    0    0 -0.21422581567E+01 -0.26981361811E+02  0.15304490420E+01  0.27109508101E+02  0.00000000000E+00 0. -1.
         15    1    5    5    0    0  0.12591131599E+03 -0.24537094325E+02  0.18239369237E+03  0.22298696713E+03  0.00000000000E+00 0. -1.
        -16    1    3    3    0    0  0.49604094111E+03  0.23133614507E+03  0.50003624300E+03  0.74135637287E+03  0.00000000000E+00 0.  1.
         16    1    1    2    0    0 -0.90822574743E+03 -0.36695385994E+02 -0.30422336245E+03  0.95852616756E+03  0.00000000000E+00 0. -1.
    9900018    1    1    2    0    0  0.14867911958E+03 -0.28026995320E+02  0.24632012036E+03  0.30311676488E+03  0.91187600000E+02 0.  0.
<mgrwt>
<rscale>  0 0.25594488E+04</rscale>
<asrwt>0</asrwt>
<pdfrwt beam="1">  1        1 0.13130198E+00 0.25594488E+04</pdfrwt>
<pdfrwt beam="2">  1       -1 0.29521262E+00 0.25594488E+04</pdfrwt>
<totfact> 0.62370478E-01</totfact>
</mgrwt>
</event>
<event>
12    1  0.4426306E-013  0.1102301E+04  0.7818608E-02  0.9202952E-01
          2   -1    0    0  501    0  0.00000000000E+00  0.00000000000E+00  0.42087574038E+03  0.42087574038E+03  0.00000000000E+00 0. -1.
         -2   -1    0    0    0  501 -0.00000000000E+00 -0.00000000000E+00 -0.72174940055E+03  0.72174940055E+03  0.00000000000E+00 0.  1.
    9900016    2    1    2    0    0  0.15122649230E+03 -0.28401060889E+02 -0.31312613064E+03  0.74170795436E+03  0.65452780204E+03 0.  0.
         23    2    3    3    0    0 -0.11338059036E+02 -0.16614567479E+03 -0.37805718413E+02  0.19493643449E+03  0.94010660643E+02 0.  0.
         23    2    3    3    0    0  0.29206675035E+03  0.63785530364E+02 -0.23495772222E+03  0.39227261265E+03  0.96442163293E+02 0.  0.
        -15    1    4    4    0    0 -0.48655354062E+02 -0.12618431851E+03 -0.37176366971E+02  0.14025657909E+03  0.00000000000E+00 0.  1.
        -15    1    5    5    0    0  0.26522146655E+03  0.70055343145E+02 -0.23971359150E+03  0.36429765765E+03  0.00000000000E+00 0. -1.
         15    1    5    5    0    0  0.26845283799E+02 -0.62698127809E+01  0.47558692766E+01  0.27974954998E+02  0.00000000000E+00 0.  1.
         15    1    4    4    0    0  0.37317295026E+02 -0.39961356274E+02 -0.62935144253E+00  0.54679855400E+02  0.00000000000E+00 0. -1.
        -16    1    3    3    0    0 -0.12950219902E+03  0.73959083532E+02 -0.40362690008E+02  0.15449890722E+03  0.00000000000E+00 0.  1.
         16    1    1    2    0    0 -0.19782599301E+03  0.92722553171E+02  0.11075457535E+03  0.24494728277E+03  0.00000000000E+00 0. -1.
    9900018    1    1    2    0    0  0.46599500706E+02 -0.64321492282E+02 -0.98502104871E+02  0.15596990381E+03  0.91187600000E+02 0.  0.
<mgrwt>
<rscale>  0 0.11023009E+04</rscale>
<asrwt>0</asrwt>
<pdfrwt beam="1">  1        2 0.64750114E-01 0.11023009E+04</pdfrwt>
<pdfrwt beam="2">  1       -2 0.11103837E+00 0.11023009E+04</pdfrwt>
<totfact> 0.47853060E+01</totfact>
</mgrwt>
</event>
<event>
12    1  0.4426306E-013  0.9941715E+03  0.7818608E-02  0.9314961E-01
         -2   -1    0    0    0  501 -0.00000000000E+00  0.00000000000E+00  0.14181939066E+03  0.14181939066E+03  0.00000000000E+00 0.  1.
          2   -1    0    0  501    0  0.00000000000E+00 -0.00000000000E+00 -0.17423162942E+04  0.17423162942E+04  0.00000000000E+00 0. -1.
    9900016    2    1    2    0    0 -0.40125467352E+02  0.87052247081E+01 -0.16526677193E+04  0.18177457150E+04  0.75577976934E+03 0.  0.
         23    2    3    3    0    0 -0.25155333009E+03  0.23080018599E+02 -0.40249083852E+03  0.48393061413E+03  0.91532502747E+02 0.  0.
         23    2    3    3    0    0  0.71409566592E+02 -0.10587982683E+03 -0.20147208276E+03  0.25551724259E+03  0.91587101724E+02 0.  0.
        -15    1    5    5    0    0  0.66985666274E+02 -0.72893770952E+02 -0.73530961218E+02  0.12331822082E+03  0.00000000000E+00 0.  1.
        -15    1    4    4    0    0 -0.12891077892E+03 -0.11649389138E+02 -0.13179535056E+03  0.18472604477E+03  0.00000000000E+00 0.  1.
         15    1    4    4    0    0 -0.12264255117E+03  0.34729407737E+02 -0.27069548796E+03  0.29920456935E+03  0.00000000000E+00 0. -1.
         15    1    5    5    0    0  0.44239003184E+01 -0.32986055882E+02 -0.12794112154E+03  0.13219902177E+03  0.00000000000E+00 0. -1.
        -16    1    1    2    0    0  0.40125467352E+02 -0.87052247081E+01  0.52170815850E+02  0.66389969829E+02  0.00000000000E+00 0.  1.
         16    1    3    3    0    0  0.98930007878E+02  0.81492523816E+02 -0.79741221458E+03  0.80764745889E+03  0.00000000000E+00 0. -1.
    9900018    1    3    3    0    0  0.41088288271E+02  0.10012509127E+02 -0.25129258349E+03  0.27065039938E+03  0.91187600000E+02 0.  0.
<mgrwt>
<rscale>  0 0.99417148E+03</rscale>
<asrwt>0</asrwt>
<pdfrwt beam="1">  1        2 0.26804867E+00 0.99417148E+03</pdfrwt>
<pdfrwt beam="2">  1       -2 0.21818367E-01 0.99417148E+03</pdfrwt>
<totfact> 0.17014568E+02</totfact>
</mgrwt>
</event>
<event>
12    1  0.4426306E-013  0.1298380E+04  0.7818608E-02  0.9030850E-01
         -1   -1    0    0    0  501 -0.00000000000E+00  0.00000000000E+00  0.31242982763E+03  0.31242982763E+03  0.00000000000E+00 0.  1.
          1   -1    0    0  501    0  0.00000000000E+00 -0.00000000000E+00 -0.13489363841E+04  0.13489363841E+04  0.00000000000E+00 0. -1.
    9900016    2    1    2    0    0 -0.34841550085E+02  0.71687864519E+02 -0.15855386306E+03  0.68487631633E+03  0.66148556874E+03 0.  0.
         23    2    3    3    0    0 -0.16485619423E+03  0.46264120700E+02 -0.31814669652E+03  0.37249746586E+03  0.90659295887E+02 0.  0.
         23    2    3    3    0    0  0.83536408970E+02 -0.38254659640E+02 -0.53378025631E+01  0.12957491147E+03  0.91210826876E+02 0.  0.
        -15    1    5    5    0    0  0.78277013519E+02  0.95380732606E+01 -0.15665538927E+02  0.80396982511E+02  0.00000000000E+00 0. -1.
        -15    1    4    4    0    0 -0.46829422339E+02 -0.25922507473E+02 -0.66904784228E+02  0.85680927533E+02  0.00000000000E+00 0. -1.
         15    1    5    5    0    0  0.52593954506E+01 -0.47792732901E+02  0.10327736364E+02  0.49177928963E+02  0.00000000000E+00 0.  1.
         15    1    4    4    0    0 -0.11802677189E+03  0.72186628173E+02 -0.25124191229E+03  0.28681653833E+03  0.00000000000E+00 0.  1.
        -16    1    3    3    0    0  0.46478235172E+02  0.63678403459E+02  0.16493063602E+03  0.18280393899E+03  0.00000000000E+00 0.  1.
         16    1    1    2    0    0  0.94988565460E+02 -0.60970880336E+02 -0.85742794869E+03  0.86482539453E+03  0.00000000000E+00 0. -1.
    9900018    1    1    2    0    0 -0.60147015375E+02 -0.10716984183E+02 -0.20524744671E+02  0.11166450083E+03  0.91187600000E+02 0.  0.
<mgrwt>
<rscale>  0 0.12983805E+04</rscale>
<asrwt>0</asrwt>
<pdfrwt beam="1">  1        1 0.20752867E+00 0.12983805E+04</pdfrwt>
<pdfrwt beam="2">  1       -1 0.48066128E-01 0.12983805E+04</pdfrwt>
<totfact> 0.35480433E+01</totfact>
</mgrwt>
</event>
<event>
12    1  0.4426306E-013  0.9256500E+03  0.7818608E-02  0.9394074E-01
          2   -1    0    0  501    0  0.00000000000E+00  0.00000000000E+00  0.40743949844E+03  0.40743949844E+03  0.00000000000E+00 0. -1.
         -2   -1    0    0    0  501 -0.00000000000E+00 -0.00000000000E+00 -0.52573935755E+03  0.52573935755E+03  0.00000000000E+00 0.  1.
    9900016    2    1    2    0    0 -0.10128988858E+02  0.15631692484E+03 -0.88477359255E+02  0.77372052631E+03  0.75251420739E+03 0.  0.
         23    2    3    3    0    0 -0.15503726534E+03  0.27359231871E+03  0.21019065887E+02  0.32819487898E+03  0.91546528928E+02 0.  0.
         23    2    3    3    0    0  0.11462809322E+03 -0.16948793686E+03 -0.16567003443E+03  0.27872035767E+03  0.91502551747E+02 0.  0.
        -15    1    4    4    0    0 -0.88667330550E+02  0.16896458468E+03 -0.31899334942E+02  0.19346445139E+03  0.00000000000E+00 0. -1.
        -15    1    5    5    0    0 -0.63884815974E+01 -0.47623483354E+02 -0.15234300669E+02  0.50407269126E+02  0.00000000000E+00 0. -1.
         15    1    5    5    0    0  0.12101657482E+03 -0.12186445350E+03 -0.15043573376E+03  0.22831308854E+03  0.00000000000E+00 0.  1.
         15    1    4    4    0    0 -0.66369934791E+02  0.10462773403E+03  0.52918400829E+02  0.13473042759E+03  0.00000000000E+00 0.  1.
        -16    1    1    2    0    0  0.10128988858E+02 -0.15631692484E+03 -0.29822499855E+02  0.15945832968E+03  0.00000000000E+00 0.  1.
         16    1    3    3    0    0  0.20187893883E+02  0.56734334858E+02  0.43032261981E+02  0.74014264722E+02  0.00000000000E+00 0. -1.
    9900018    1    3    3    0    0  0.10092289381E+02 -0.45217918664E+01  0.13141347307E+02  0.92791024940E+02  0.91187600000E+02 0.  0.
<mgrwt>
<rscale>  0 0.92565000E+03</rscale>
<asrwt>0</asrwt>
<pdfrwt beam="1">  1        2 0.62683000E-01 0.92565000E+03</pdfrwt>
<pdfrwt beam="2">  1       -2 0.80882978E-01 0.92565000E+03</pdfrwt>
<totfact> 0.10531281E+02</totfact>
</mgrwt>
</event>
<event>
12    1  0.4426306E-013  0.1033906E+04  0.7818608E-02  0.9272119E-01
          2   -1    0    0  501    0  0.00000000000E+00  0.00000000000E+00  0.12460201912E+04  0.12460201912E+04  0.00000000000E+00 0. -1.
         -2   -1    0    0    0  501 -0.00000000000E+00 -0.00000000000E+00 -0.21447538096E+03  0.21447538096E+03  0.00000000000E+00 0.  1.
    9900016    2    1    2    0    0 -0.12511745079E+03  0.87655612353E+02  0.73729092555E+03  0.10011605739E+04  0.65983839151E+03 0.  0.
         23    2    3    3    0    0 -0.19485006090E+02 -0.30006902990E+01  0.30313222223E+03  0.31706178783E+03  0.90831511832E+02 0.  0.
         23    2    3    3    0    0 -0.23325406951E+02 -0.16302871988E+03  0.16779923782E+02  0.18878516345E+03  0.90751495754E+02 0.  0.
        -15    1    5    5    0    0  0.17356700611E+02 -0.13146309368E+02  0.25136072574E+02  0.33255114652E+02  0.00000000000E+00 0.  1.
        -15    1    4    4    0    0 -0.51465387443E+02  0.14097257700E+02  0.13716758552E+03  0.14718140268E+03  0.00000000000E+00 0.  1.
         15    1    4    4    0    0  0.31980381353E+02 -0.17097947999E+02  0.16596463672E+03  0.16988038515E+03  0.00000000000E+00 0. -1.
         15    1    5    5    0    0 -0.40682107562E+02 -0.14988241051E+03 -0.83561487918E+01  0.15553004880E+03  0.00000000000E+00 0. -1.
        -16    1    3    3    0    0 -0.82307037748E+02  0.25368502253E+03  0.41737877954E+03  0.49531362259E+03  0.00000000000E+00 0.  1.
         16    1    1    2    0    0  0.14978895137E+03 -0.16498660026E+03  0.14223320803E+03  0.26436261779E+03  0.00000000000E+00 0. -1.
    9900018    1    1    2    0    0 -0.24671500584E+02  0.77330987910E+02  0.15202067665E+03  0.19497238050E+03  0.91187600000E+02 0.  0.
<mgrwt>
<rscale>  0 0.10339065E+04</rscale>
<asrwt>0</asrwt>
<pdfrwt beam="1">  1        2 0.19169541E+00 0.10339065E+04</pdfrwt>
<pdfrwt beam="2">  1       -2 0.32996213E-01 0.10339065E+04</pdfrwt>
<totfact> 0.15173401E+02</totfact>
</mgrwt>
</event>
<event>
12    1  0.4426306E-013  0.1105499E+04  0.7818608E-02  0.9199849E-01
         -1   -1    0    0    0  501 -0.00000000000E+00  0.00000000000E+00  0.31876442069E+03  0.31876442069E+03  0.00000000000E+00 0.  1.
          1   -1    0    0  501    0  0.00000000000E+00 -0.00000000000E+00 -0.95848844557E+03  0.95848844557E+03  0.00000000000E+00 0. -1.
    9900016    2    1    2    0    0  0.72277227101E+02 -0.26752224480E+03 -0.58786743785E+03  0.99532866609E+03  0.75385600749E+03 0.  0.
         23    2    3    3    0    0 -0.17303063151E+03 -0.22109035178E+03 -0.73446426494E+02  0.30408699546E+03  0.90851418001E+02 0.  0.
         23    2    3    3    0    0  0.37789696761E+02  0.55825233659E+02 -0.19042335082E+03  0.22173711413E+03  0.91442754509E+02 0.  0.
        -15    1    5    5    0    0 -0.13990966374E+02  0.45031513715E+02 -0.38520012094E+02  0.60888222993E+02  0.00000000000E+00 0.  1.
        -15    1    4    4    0    0  0.15753335018E+01 -0.39495296379E+02  0.59032595757E+01  0.39965092085E+02  0.00000000000E+00 0.  1.
         15    1    5    5    0    0  0.51780663135E+02  0.10793719944E+02 -0.15190333872E+03  0.16084889114E+03  0.00000000000E+00 0. -1.
         15    1    4    4    0    0 -0.17460596501E+03 -0.18159505540E+03 -0.79349686069E+02  0.26412190338E+03  0.00000000000E+00 0. -1.
        -16    1    1    2    0    0 -0.72277227101E+02  0.26752224480E+03 -0.51856587035E+02  0.28192420017E+03  0.00000000000E+00 0.  1.
         16    1    3    3    0    0  0.21973786825E+03 -0.27908744476E+02 -0.21035617451E+03  0.30547233740E+03  0.00000000000E+00 0. -1.
    9900018    1    3    3    0    0 -0.12219706401E+02 -0.74348382207E+02 -0.11364148603E+03  0.16403221910E+03  0.91187600000E+02 0.  0.
<mgrwt>
<rscale>  0 0.11054990E+04</rscale>
<asrwt>0</asrwt>
<pdfrwt beam="1">  1        1 0.14745976E+00 0.11054990E+04</pdfrwt>
<pdfrwt beam="2">  1       -1 0.49040682E-01 0.11054990E+04</pdfrwt>
<totfact> 0.67668906E+01</totfact>
</mgrwt>
</event>
<event>
12    1  0.4426306E-013  0.9139436E+03  0.7818608E-02  0.9408317E-01
         -2   -1    0    0    0  501 -0.00000000000E+00  0.00000000000E+00  0.31365344342E+03  0.31365344342E+03  0.00000000000E+00 0.  1.
          2   -1    0    0  501    0  0.00000000000E+00 -0.00000000000E+00 -0.66577696071E+03  0.66577696071E+03  0.00000000000E+00 0. -1.
    9900016    2    1    2    0    0 -0.55560241023E+02 -0.13531752429E+03 -0.28367260239E+03  0.81792715180E+03  0.75308492718E+03 0.  0.
         23    2    3    3    0    0 -0.23140447407E+03 -0.15992787383E+03 -0.77181128424E+02  0.30543106442E+03  0.90588371672E+02 0.  0.
         23    2    3    3    0    0  0.10994249498E+02  0.46267808440E+02 -0.22170605674E+03  0.24344107707E+03  0.88591189127E+02 0.  0.
        -15    1    5    5    0    0  0.15941307700E+02 -0.24261702823E+02 -0.79360858807E+02  0.84503854502E+02  0.00000000000E+00 0. -1.
        -15    1    4    4    0    0 -0.95171054861E+02 -0.14537923018E+02 -0.25405408065E+02  0.99570656561E+02  0.00000000000E+00 0.  1.
         15    1    5    5    0    0 -0.49470582016E+01  0.70529511263E+02 -0.14234519793E+03  0.15893722257E+03  0.00000000000E+00 0.  1.
         15    1    4    4    0    0 -0.13623341921E+03 -0.14538995081E+03 -0.51775720359E+02  0.20586040786E+03  0.00000000000E+00 0. -1.
        -16    1    1    2    0    0  0.55560241023E+02  0.13531752429E+03 -0.68450914903E+02  0.16150325233E+03  0.00000000000E+00 0.  1.
         16    1    3    3    0    0  0.16552428923E+03 -0.37537620964E+02  0.37559867656E+02  0.17383356112E+03  0.00000000000E+00 0. -1.
    9900018    1    3    3    0    0 -0.67430568330E+00  0.15880162063E+02 -0.22345284881E+02  0.95221449188E+02  0.91187600000E+02 0.  0.
<mgrwt>
<rscale>  0 0.91394362E+03</rscale>
<asrwt>0</asrwt>
<pdfrwt beam="1">  1        2 0.10242722E+00 0.91394362E+03</pdfrwt>
<pdfrwt beam="2">  1       -2 0.48254377E-01 0.91394362E+03</pdfrwt>
<totfact> 0.17799345E+02</totfact>
</mgrwt>
</event>
<event>
12    1  0.4426306E-013  0.1061291E+04  0.7818608E-02  0.9243764E-01
          1   -1    0    0  501    0  0.00000000000E+00  0.00000000000E+00  0.26674612048E+03  0.26674612048E+03  0.00000000000E+00 0. -1.
         -1   -1    0    0    0  501 -0.00000000000E+00 -0.00000000000E+00 -0.10556279144E+04  0.10556279144E+04  0.00000000000E+00 0.  1.
    9900016    2    1    2    0    0  0.20141981185E+03 -0.43452312845E+02 -0.67106818941E+03  0.95831038898E+03  0.65235591719E+03 0.  0.
         23    2    3    3    0    0 -0.19758650508E+02  0.58512528802E+02  0.56030700307E+02  0.11923289515E+03  0.85222788100E+02 0.  0.
         23    2    3    3    0    0  0.42680371532E+02 -0.12877597273E+03 -0.11219412971E+03  0.19822784762E+03  0.91114716497E+02 0.  0.
        -15    1    4    4    0    0  0.31060531434E+02  0.29509062210E+02  0.39880078095E+02  0.58531717849E+02  0.00000000000E+00 0. -1.
        -15    1    5    5    0    0  0.38636754178E+02 -0.57936529476E+02 -0.10623291415E+03  0.12702311707E+03  0.00000000000E+00 0. -1.
         15    1    5    5    0    0  0.40436173536E+01 -0.70839443253E+02 -0.59612155663E+01  0.71204730550E+02  0.00000000000E+00 0.  1.
         15    1    4    4    0    0 -0.50819181941E+02  0.29003466591E+02  0.16150622212E+02  0.60701177298E+02  0.00000000000E+00 0.  1.
        -16    1    3    3    0    0  0.17849809083E+03  0.26811131082E+02 -0.61490476000E+03  0.64084964622E+03  0.00000000000E+00 0.  1.
         16    1    1    2    0    0 -0.23273021375E+03  0.69392819513E+02 -0.10003382679E+03  0.26265087530E+03  0.00000000000E+00 0. -1.
    9900018    1    1    2    0    0  0.31310401900E+02 -0.25940506668E+02 -0.17779777734E+02  0.10141277061E+03  0.91187600000E+02 0.  0.
<mgrwt>
<rscale>  0 0.10612910E+04</rscale>
<asrwt>0</asrwt>
<pdfrwt beam="1">  1        1 0.41037864E-01 0.10612910E+04</pdfrwt>
<pdfrwt beam="2">  1       -1 0.16240430E+00 0.10612910E+04</pdfrwt>
<totfact> 0.28619161E+01</totfact>
</mgrwt>
</event>
<event>
12    1  0.4426306E-013  0.8115154E+03  0.7818608E-02  0.9543497E-01
          2   -1    0    0  501    0  0.00000000000E+00  0.00000000000E+00  0.74068087807E+03  0.74068087807E+03  0.00000000000E+00 0. -1.
         -2   -1    0    0    0  501 -0.00000000000E+00 -0.00000000000E+00 -0.22228100665E+03  0.22228100665E+03  0.00000000000E+00 0.  1.
    9900016    2    1    2    0    0  0.38036244321E+02  0.31361815267E+02  0.49375664377E+03  0.90784738564E+03  0.76023741885E+03 0.  0.
         23    2    3    3    0    0  0.95225603795E+02 -0.30781396991E+02  0.45776111732E+03  0.47766380445E+03  0.92747288558E+02 0.  0.
         23    2    3    3    0    0 -0.10072577914E+03 -0.76661665264E+02 -0.51043725675E+02  0.16567998501E+03  0.93923916006E+02 0.  0.
        -15    1    5    5    0    0 -0.62335332449E+02 -0.96061211820E+02 -0.34549929661E+02  0.11961248985E+03  0.00000000000E+00 0. -1.
        -15    1    4    4    0    0  0.10673182459E+03 -0.59192002445E+01  0.39448863952E+03  0.40871506704E+03  0.00000000000E+00 0. -1.
         15    1    4    4    0    0 -0.11506220800E+02 -0.24862196747E+02  0.63272477798E+02  0.68948737413E+02  0.00000000000E+00 0.  1.
         15    1    5    5    0    0 -0.38390446688E+02  0.19399546556E+02 -0.16493796014E+02  0.46067495161E+02  0.00000000000E+00 0.  1.
        -16    1    3    3    0    0  0.81780140854E+02  0.12192235714E+03  0.32658731650E+02  0.15039828910E+03  0.00000000000E+00 0.  1.
         16    1    1    2    0    0 -0.38036244321E+02 -0.31361815267E+02  0.24643227650E+02  0.55114499072E+02  0.00000000000E+00 0. -1.
    9900018    1    3    3    0    0 -0.38243721191E+02  0.16882520378E+02  0.54380520474E+02  0.11410530709E+03  0.91187600000E+02 0.  0.
<mgrwt>
<rscale>  0 0.81151535E+03</rscale>
<asrwt>0</asrwt>
<pdfrwt beam="1">  1        2 0.11395090E+00 0.81151535E+03</pdfrwt>
<pdfrwt beam="2">  1       -2 0.34197078E-01 0.81151535E+03</pdfrwt>
<totfact> 0.30664585E+02</totfact>
</mgrwt>
</event>
<event>
12    1  0.4426306E-013  0.1021261E+04  0.7818608E-02  0.9285529E-01
          2   -1    0    0  501    0  0.00000000000E+00  0.00000000000E+00  0.85859271799E+03  0.85859271799E+03  0.00000000000E+00 0. -1.
         -2   -1    0    0    0  501 -0.00000000000E+00 -0.00000000000E+00 -0.30368687404E+03  0.30368687404E+03  0.00000000000E+00 0.  1.
    9900016    2    1    2    0    0  0.13088567839E+02 -0.21473440064E+03  0.52525993402E+03  0.94511363383E+03  0.75568486100E+03 0.  0.
         23    2    3    3    0    0  0.45601811510E+01  0.19006403673E+03  0.15681345932E+03  0.26255735188E+03  0.90558095684E+02 0.  0.
         23    2    3    3    0    0 -0.45192336298E+02 -0.24027518392E+03  0.37876627215E+02  0.26314082244E+03  0.89632261339E+02 0.  0.
        -15    1    4    4    0    0  0.31529459814E+02  0.34240557004E+02  0.11855462376E+02  0.48032016075E+02  0.00000000000E+00 0. -1.
        -15    1    5    5    0    0 -0.13409740738E+02 -0.14662980802E+02 -0.19866105891E+02  0.28097799130E+02  0.00000000000E+00 0.  1.
         15    1    5    5    0    0 -0.31782595560E+02 -0.22561220312E+03  0.57742733105E+02  0.23504302331E+03  0.00000000000E+00 0. -1.
         15    1    4    4    0    0 -0.26969278663E+02  0.15582347972E+03  0.14495799694E+03  0.21452533581E+03  0.00000000000E+00 0.  1.
        -16    1    1    2    0    0 -0.13088567839E+02  0.21473440064E+03  0.29645909924E+02  0.21716595820E+03  0.00000000000E+00 0.  1.
         16    1    3    3    0    0  0.62393006523E+02 -0.83760455824E+02  0.25561068341E+03  0.27612591819E+03  0.00000000000E+00 0. -1.
    9900018    1    3    3    0    0 -0.86722835371E+01 -0.80762797616E+02  0.74959164070E+02  0.14328954132E+03  0.91187600000E+02 0.  0.
<mgrwt>
<rscale>  0 0.10212607E+04</rscale>
<asrwt>0</asrwt>
<pdfrwt beam="1">  1        2 0.13209119E+00 0.10212607E+04</pdfrwt>
<pdfrwt beam="2">  1       -2 0.46721058E-01 0.10212607E+04</pdfrwt>
<totfact> 0.13554267E+02</totfact>
</mgrwt>
</event>
<event>
12    1  0.4426306E-013  0.1105459E+04  0.7818608E-02  0.9199888E-01
          2   -1    0    0  501    0  0.00000000000E+00  0.00000000000E+00  0.56807365299E+03  0.56807365299E+03  0.00000000000E+00 0.  1.
         -2   -1    0    0    0  501 -0.00000000000E+00 -0.00000000000E+00 -0.53779963162E+03  0.53779963162E+03  0.00000000000E+00 0. -1.
    9900016    2    1    2    0    0 -0.17121782287E+03  0.19108539921E+03 -0.95498186982E+02  0.71924682723E+03  0.66510669978E+03 0.  0.
         23    2    3    3    0    0 -0.12661723737E+03 -0.13443933283E+03 -0.73061055369E+02  0.21877044817E+03  0.91742749941E+02 0.  0.
         23    2    3    3    0    0  0.53552067906E+02  0.36571369551E+02  0.11974782775E+03  0.16380955305E+03  0.91042508590E+02 0.  0.
        -15    1    4    4    0    0 -0.36248509318E+02 -0.78367172791E+02  0.55453225480E+01  0.86522360122E+02  0.00000000000E+00 0. -1.
        -15    1    5    5    0    0  0.35968258386E+02  0.58521580661E+02  0.11683817738E+03  0.13553468452E+03  0.00000000000E+00 0. -1.
         15    1    4    4    0    0 -0.90368728057E+02 -0.56072160043E+02 -0.78606377917E+02  0.13224808805E+03  0.00000000000E+00 0.  1.
         15    1    5    5    0    0  0.17583809519E+02 -0.21950211109E+02  0.29096503717E+01  0.28274868528E+02  0.00000000000E+00 0.  1.
        -16    1    1    2    0    0  0.16644689346E+03 -0.21432812057E+03  0.94177221222E+02  0.28724634132E+03  0.00000000000E+00 0.  1.
         16    1    3    3    0    0 -0.98152653403E+02  0.28895336250E+03 -0.14218495936E+03  0.33666682601E+03  0.00000000000E+00 0. -1.
    9900018    1    1    2    0    0  0.47709294150E+01  0.23242721352E+02  0.31594987129E+02  0.99380116064E+02  0.91187600000E+02 0.  0.
<mgrwt>
<rscale>  0 0.11054588E+04</rscale>
<asrwt>0</asrwt>
<pdfrwt beam="1">  1        2 0.87395947E-01 0.11054588E+04</pdfrwt>
<pdfrwt beam="2">  1       -2 0.82738405E-01 0.11054588E+04</pdfrwt>
<totfact> 0.67393903E+01</totfact>
</mgrwt>
</event>
<event>
12    1  0.4426306E-013  0.2317940E+04  0.7818608E-02  0.8470881E-01
         -1   -1    0    0    0  501 -0.00000000000E+00  0.00000000000E+00  0.43869194884E+03  0.43869194884E+03  0.00000000000E+00 0.  1.
          1   -1    0    0  501    0  0.00000000000E+00 -0.00000000000E+00 -0.30618552126E+04  0.30618552126E+04  0.00000000000E+00 0. -1.
    9900016    2    1    2    0    0  0.64044146647E+03  0.39148037727E+03 -0.25282755782E+04  0.27439588780E+04  0.75743697242E+03 0.  0.
         23    2    3    3    0    0  0.48719379881E+02  0.26901398552E+03 -0.35526075611E+03  0.45716830500E+03  0.89724867665E+02 0.  0.
         23    2    3    3    0    0  0.33547558282E+03  0.16614639841E+03 -0.12173851692E+04  0.12768090251E+04  0.89811714748E+02 0.  0.
        -15    1    5    5    0    0  0.16658344869E+03  0.13195035207E+03 -0.69030080473E+03  0.72227151529E+03  0.00000000000E+00 0. -1.
        -15    1    4    4    0    0  0.69636994393E+02  0.13552201237E+03 -0.19777347853E+03  0.24965951941E+03  0.00000000000E+00 0. -1.
         15    1    5    5    0    0  0.16889213413E+03  0.34196046337E+02 -0.52708436447E+03  0.55453750985E+03  0.00000000000E+00 0.  1.
         15    1    4    4    0    0 -0.20917614512E+02  0.13349197316E+03 -0.15748727758E+03  0.20750878558E+03  0.00000000000E+00 0.  1.
        -16    1    1    2    0    0 -0.64044146647E+03 -0.39148037727E+03 -0.94887685584E+02  0.75658828344E+03  0.00000000000E+00 0.  1.
         16    1    3    3    0    0  0.13274235917E+03 -0.95836366648E+02 -0.51949689986E+03  0.54468538814E+03  0.00000000000E+00 0. -1.
    9900018    1    3    3    0    0  0.12350414460E+03  0.52156359981E+02 -0.43613275301E+03  0.46529615974E+03  0.91187600000E+02 0.  0.
<mgrwt>
<rscale>  0 0.23179398E+04</rscale>
<asrwt>0</asrwt>
<pdfrwt beam="1">  1        1 0.47105463E+00 0.23179398E+04</pdfrwt>
<pdfrwt beam="2">  1       -1 0.67491072E-01 0.23179398E+04</pdfrwt>
<totfact> 0.10811466E+00</totfact>
</mgrwt>
</event>
<event>
12    1  0.4426306E-013  0.9977222E+03  0.7818608E-02  0.9311047E-01
         -2   -1    0    0    0  501 -0.00000000000E+00  0.00000000000E+00  0.22288220896E+04  0.22288220896E+04  0.00000000000E+00 0.  1.
          2   -1    0    0  501    0  0.00000000000E+00 -0.00000000000E+00 -0.11165647623E+03  0.11165647623E+03  0.00000000000E+00 0. -1.
    9900016    2    1    2    0    0  0.52523102006E+01 -0.13752221854E+03  0.20405042043E+04  0.21829446997E+04  0.76331527336E+03 0.  0.
         23    2    3    3    0    0 -0.19346959406E+03 -0.11398799669E+02  0.39447732779E+03  0.44827845187E+03  0.88208796691E+02 0.  0.
         23    2    3    3    0    0  0.65580344726E+02  0.48747218659E+02  0.10540565892E+03  0.16307436502E+03  0.93839344910E+02 0.  0.
        -15    1    4    4    0    0 -0.71908455586E+02  0.36348240515E+02  0.12332975321E+03  0.14731683067E+03  0.00000000000E+00 0. -1.
        -15    1    5    5    0    0 -0.30223308643E+01  0.22871487323E+02  0.83386410632E+02  0.86518974187E+02  0.00000000000E+00 0.  1.
         15    1    5    5    0    0  0.68602675590E+02  0.25875731336E+02  0.22019248284E+02  0.76555390831E+02  0.00000000000E+00 0. -1.
         15    1    4    4    0    0 -0.12156113847E+03 -0.47747040183E+02  0.27114757458E+03  0.30096162120E+03  0.00000000000E+00 0.  1.
        -16    1    1    2    0    0 -0.52523102006E+01  0.13752221854E+03  0.76661409041E+02  0.15753386618E+03  0.00000000000E+00 0.  1.
         16    1    3    3    0    0  0.14848010816E+03 -0.10036660785E+03  0.11307632210E+04  0.11448778365E+04  0.00000000000E+00 0. -1.
    9900018    1    3    3    0    0 -0.15338548629E+02 -0.74504029683E+02  0.40985799662E+03  0.42671404629E+03  0.91187600000E+02 0.  0.
<mgrwt>
<rscale>  0 0.99772225E+03</rscale>
<asrwt>0</asrwt>
<pdfrwt beam="1">  1        2 0.17177921E-01 0.99772225E+03</pdfrwt>
<pdfrwt beam="2">  1       -2 0.34289567E+00 0.99772225E+03</pdfrwt>
<totfact> 0.60063305E+00</totfact>
</mgrwt>
</event>
<event>
12    1  0.4426306E-013  0.8883906E+03  0.7818608E-02  0.9440211E-01
          2   -1    0    0  501    0  0.00000000000E+00  0.00000000000E+00  0.13223101876E+03  0.13223101876E+03  0.00000000000E+00 0. -1.
         -2   -1    0    0    0  501 -0.00000000000E+00 -0.00000000000E+00 -0.14921571790E+04  0.14921571790E+04  0.00000000000E+00 0.  1.
    9900016    2    1    2    0    0  0.35104263652E+02  0.38702732008E+01 -0.11497995655E+04  0.13260299865E+04  0.65959775324E+03 0.  0.
         23    2    3    3    0    0 -0.19411540197E+03  0.20026940921E+03 -0.35968453005E+03  0.46438945738E+03  0.92173648184E+02 0.  0.
         23    2    3    3    0    0  0.16482513784E+03 -0.11244813773E+03 -0.37742432400E+03  0.43560291507E+03  0.86538254695E+02 0.  0.
        -15    1    5    5    0    0  0.15338750041E+03 -0.71506735556E+02 -0.25536436394E+03  0.30635256957E+03  0.00000000000E+00 0.  1.
        -15    1    4    4    0    0 -0.11994012073E+03  0.92556864123E+02 -0.12796850152E+03  0.19831374899E+03  0.00000000000E+00 0. -1.
         15    1    5    5    0    0  0.11437637437E+02 -0.40941402177E+02 -0.12205996006E+03  0.12925034550E+03  0.00000000000E+00 0. -1.
         15    1    4    4    0    0 -0.74175281234E+02  0.10771254509E+03 -0.23171602853E+03  0.26607570839E+03  0.00000000000E+00 0.  1.
        -16    1    3    3    0    0  0.64394527777E+02 -0.83950998277E+02 -0.41269071143E+03  0.42603761409E+03  0.00000000000E+00 0.  1.
         16    1    1    2    0    0  0.76835204738E+00  0.48093172122E+02  0.12443100173E+02  0.49682736555E+02  0.00000000000E+00 0. -1.
    9900018    1    1    2    0    0 -0.35872615699E+02 -0.51963445323E+02 -0.22256969490E+03  0.24867547465E+03  0.91187600000E+02 0.  0.
<mgrwt>
<rscale>  0 0.88839060E+03</rscale>
<asrwt>0</asrwt>
<pdfrwt beam="1">  1        2 0.20343234E-01 0.88839060E+03</pdfrwt>
<pdfrwt beam="2">  1       -2 0.22956264E+00 0.88839060E+03</pdfrwt>
<totfact> 0.24255793E+01</totfact>
</mgrwt>
</event>
<event>
12    1  0.4426306E-013  0.1723658E+04  0.7818608E-02  0.8747985E-01
          2   -1    0    0  501    0  0.00000000000E+00  0.00000000000E+00  0.16740174212E+04  0.16740174212E+04  0.00000000000E+00 0. -1.
         -2   -1    0    0    0  501 -0.00000000000E+00 -0.00000000000E+00 -0.44369270596E+03  0.44369270596E+03  0.00000000000E+00 0.  1.
    9900016    2    1    2    0    0  0.52968391765E+02  0.17292271298E+03  0.12634015901E+04  0.14368463358E+04  0.66002719624E+03 0.  0.
         23    2    3    3    0    0 -0.76255480957E+02  0.27416350855E+03  0.28360853095E+03  0.41186894224E+03  0.90673584664E+02 0.  0.
         23    2    3    3    0    0  0.12548099206E+03  0.39703921500E+02  0.55361007563E+03  0.57607722891E+03  0.89771805583E+02 0.  0.
        -15    1    4    4    0    0 -0.74030988794E+02  0.11147310783E+03  0.15270976911E+03  0.20304461247E+03  0.00000000000E+00 0. -1.
        -15    1    5    5    0    0  0.11178855406E+03  0.11975063745E+02  0.51220019812E+03  0.52439405596E+03  0.00000000000E+00 0. -1.
         15    1    4    4    0    0 -0.22244921628E+01  0.16269040072E+03  0.13089876184E+03  0.20882432977E+03  0.00000000000E+00 0.  1.
         15    1    5    5    0    0  0.13692438008E+02  0.27728857755E+02  0.41409877510E+02  0.51683172952E+02  0.00000000000E+00 0.  1.
        -16    1    1    2    0    0 -0.56858768720E+02 -0.15257337774E+03 -0.33085394255E+03  0.36874908336E+03  0.00000000000E+00 0.  1.
         16    1    3    3    0    0  0.37428806581E+01 -0.14094471707E+03  0.42618298348E+03  0.44890016466E+03  0.00000000000E+00 0. -1.
    9900018    1    1    2    0    0  0.38903769551E+01 -0.20349335240E+02  0.29777706772E+03  0.31211470797E+03  0.91187600000E+02 0.  0.
<mgrwt>
<rscale>  0 0.17236581E+04</rscale>
<asrwt>0</asrwt>
<pdfrwt beam="1">  1        2 0.25754114E+00 0.17236581E+04</pdfrwt>
<pdfrwt beam="2">  1       -2 0.68260417E-01 0.17236581E+04</pdfrwt>
<totfact> 0.18909517E+01</totfact>
</mgrwt>
</event>
