<event>
12    1  0.6852136E-012  0.4722884E+04  0.7818608E-02  0.8492426E-01
         -2   -1    0    0    0  501 -0.00000000000E+00  0.00000000000E+00  0.19292027147E+04  0.19292027147E+04  0.00000000000E+00 0.  1.
          2   -1    0    0  501    0  0.00000000000E+00 -0.00000000000E+00 -0.32718608833E+04  0.32718608833E+04  0.00000000000E+00 0. -1.
         23    2    1    2    0    0 -0.18451688112E+03 -0.12409353918E+03 -0.25091426034E+03  0.35363814142E+03  0.11250014729E+03 0.  0.
    9900016    2    1    2    0    0  0.69102404167E+03 -0.59504094717E+03  0.74397153862E+03  0.21661617490E+04  0.18185640262E+04 0.  0.
        -24    2    4    4    0    0 -0.11516685828E+03 -0.26582794024E+03 -0.53809561312E+03  0.61631622358E+03  0.79817914846E+02 0.  0.
        -15    1    4    4    0    0  0.80619089995E+03 -0.32921300693E+03  0.12820671517E+04  0.15498455254E+04  0.00000000000E+00 0.  1.
        -15    1    3    3    0    0 -0.13077399616E+03 -0.60202797623E+02 -0.83163963835E+02  0.16626021711E+03  0.00000000000E+00 0. -1.
         15    1    5    5    0    0 -0.25029763309E+02 -0.15712906627E+02 -0.95915597233E+02  0.10036526430E+03  0.00000000000E+00 0. -1.
         15    1    3    3    0    0 -0.53742884957E+02 -0.63890741559E+02 -0.16775029650E+03  0.18737792430E+03  0.00000000000E+00 0.  1.
        -16    1    5    5    0    0 -0.90137094971E+02 -0.25011503361E+03 -0.44218001588E+03  0.51595095927E+03  0.00000000000E+00 0.  1.
         16    1    1    2    0    0 -0.71116586112E+03  0.96334942510E+03 -0.19846656799E+04  0.23179078623E+04  0.00000000000E+00 0. -1.
    9900018    1    1    2    0    0  0.20465870057E+03 -0.24421493875E+03  0.14895023302E+03  0.36335584533E+03  0.91187600000E+02 0.  0.
<mgrwt>
<rscale>  0 0.22635683E+04</rscale>
<asrwt>0</asrwt>
<pdfrwt beam="1">  1        2 0.50336321E+00 0.47228835E+04</pdfrwt>
<pdfrwt beam="2">  1       -2 0.29680042E+00 0.47228835E+04</pdfrwt>
<totfact> 0.28422942E-02</totfact>
</mgrwt>
</event>
<event>
11    1  0.6852136E-012  0.2917774E+04  0.7818608E-02  0.8744063E-01
         -2   -1    0    0    0  501 -0.00000000000E+00  0.00000000000E+00  0.72430329379E+03  0.72430329379E+03  0.00000000000E+00 0. -1.
          2   -1    0    0  501    0  0.00000000000E+00 -0.00000000000E+00 -0.37227836760E+04  0.37227836760E+04  0.00000000000E+00 0.  1.
    9900016    2    1    2    0    0 -0.78387431930E+01 -0.12208421562E+03 -0.18738646267E+04  0.26380996910E+04  0.18528991713E+04 0.  0.
         24    2    3    3    0    0 -0.36835499245E+03  0.76549702116E+03 -0.59373641291E+03  0.10391936083E+04  0.75692387738E+02 0.  0.
        -15    1    4    4    0    0 -0.28452052076E+03  0.55527879509E+03 -0.47092124454E+03  0.78169897375E+03  0.00000000000E+00 0.  1.
        -15    1    1    2    0    0 -0.30131412347E+02  0.20621826927E+02 -0.10530871631E+03  0.11145890492E+03  0.00000000000E+00 0.  1.
         15    1    1    2    0    0  0.29818364232E+03 -0.86755085823E+02 -0.30736391012E+03  0.43693535300E+03  0.00000000000E+00 0. -1.
         15    1    3    3    0    0  0.36051624926E+03 -0.88758123678E+03 -0.12801282138E+04  0.15989060828E+04  0.00000000000E+00 0. -1.
        -16    1    1    2    0    0  0.13670262536E+01  0.19632259081E+03 -0.90292524756E+03  0.92402296027E+03  0.00000000000E+00 0.  1.
         16    1    4    4    0    0 -0.83834471692E+02  0.21021822608E+03 -0.12281516836E+03  0.25749463450E+03  0.00000000000E+00 0. -1.
    9900018    1    1    2    0    0 -0.26158051303E+03 -0.81051162946E+01  0.19098211844E+03  0.33657006056E+03  0.91187600000E+02 0.  0.
<mgrwt>
<rscale>  0 0.17306691E+04</rscale>
<asrwt>0</asrwt>
<pdfrwt beam="1">  1        2 0.57273596E+00 0.29177737E+04</pdfrwt>
<pdfrwt beam="2">  1       -2 0.11143127E+00 0.29177737E+04</pdfrwt>
<totfact> 0.30482546E-01</totfact>
</mgrwt>
</event>
<event>
12    1  0.6852136E-012  0.3924293E+04  0.7818608E-02  0.8501436E-01
         -2   -1    0    0    0  501 -0.00000000000E+00  0.00000000000E+00  0.16275477413E+04  0.16275477413E+04  0.00000000000E+00 0.  1.
          2   -1    0    0  501    0  0.00000000000E+00 -0.00000000000E+00 -0.30569940746E+04  0.30569940746E+04  0.00000000000E+00 0. -1.
         23    2    1    2    0    0  0.51009810921E+02 -0.39595089386E+03 -0.50049201337E+03  0.65179717735E+03  0.12234456999E+03 0.  0.
    9900016    2    1    2    0    0 -0.28351774660E+03 -0.48085746303E+03 -0.67718010011E+03  0.20336309858E+04  0.18345233403E+04 0.  0.
        -24    2    4    4    0    0 -0.92357024064E+03 -0.23127149295E+03 -0.89882333517E+03  0.13117680658E+04  0.79897295274E+02 0.  0.
        -15    1    3    3    0    0  0.50361368476E+02 -0.51642912001E+02 -0.69573868538E+02  0.10021866582E+03  0.00000000000E+00 0.  1.
        -15    1    4    4    0    0  0.64005249403E+03 -0.24958597008E+03  0.22164323506E+03  0.72186291997E+03  0.00000000000E+00 0.  1.
         15    1    3    3    0    0  0.64844244471E+00 -0.34430798185E+03 -0.43091814483E+03  0.55157851154E+03  0.00000000000E+00 0. -1.
         15    1    5    5    0    0 -0.39925011604E+03 -0.97838715713E+02 -0.33422780821E+03  0.52979363646E+03  0.00000000000E+00 0. -1.
        -16    1    5    5    0    0 -0.52432012460E+03 -0.13343277723E+03 -0.56459552696E+03  0.78197442935E+03  0.00000000000E+00 0.  1.
         16    1    1    2    0    0  0.37405694967E+03 -0.31149536630E+03 -0.57773392417E+03  0.75546307121E+03  0.00000000000E+00 0. -1.
    9900018    1    1    2    0    0 -0.14154901399E+03  0.11883037232E+04  0.32595970438E+03  0.12436505816E+04  0.91187600000E+02 0.  0.
<mgrwt>
<rscale>  0 0.22412895E+04</rscale>
<asrwt>0</asrwt>
<pdfrwt beam="1">  1        2 0.47030677E+00 0.39242927E+04</pdfrwt>
<pdfrwt beam="2">  1       -2 0.25039196E+00 0.39242927E+04</pdfrwt>
<totfact> 0.79716819E-02</totfact>
</mgrwt>
</event>
<event>
11    1  0.6852136E-012  0.4329213E+04  0.7818608E-02  0.7941238E-01
          1   -1    0    0  501    0  0.00000000000E+00  0.00000000000E+00  0.44176345269E+04  0.44176345269E+04  0.00000000000E+00 0. -1.
         -1   -1    0    0    0  501 -0.00000000000E+00 -0.00000000000E+00 -0.10606404609E+04  0.10606404609E+04  0.00000000000E+00 0.  1.
    9900016    2    1    2    0    0  0.92814582269E+03  0.59107071748E+03  0.15411084776E+04  0.26457901235E+04  0.18478016064E+04 0.  0.
         24    2    3    3    0    0  0.10625985037E+04  0.10932917498E+04  0.75484044597E+03  0.17031762544E+04  0.81380736539E+02 0.  0.
        -15    1    4    4    0    0  0.94173336111E+03  0.93175478856E+03  0.66534141685E+03  0.14824668328E+04  0.00000000000E+00 0.  1.
        -15    1    1    2    0    0 -0.48862481917E+02  0.29254251707E+02  0.22862372791E+02  0.61368081863E+02  0.00000000000E+00 0.  1.
         15    1    1    2    0    0 -0.17370682461E+03 -0.72930900530E+02  0.33526792795E+03  0.38457451902E+03  0.00000000000E+00 0. -1.
         15    1    3    3    0    0 -0.13445268101E+03 -0.50222103234E+03  0.78626803159E+03  0.94261386912E+03  0.00000000000E+00 0. -1.
        -16    1    1    2    0    0 -0.92571844808E+03 -0.97753461268E+03  0.12964259220E+04  0.18690234711E+04  0.00000000000E+00 0.  1.
         16    1    4    4    0    0  0.12086514258E+03  0.16153696127E+03  0.89499029113E+02  0.22070942155E+03  0.00000000000E+00 0. -1.
    9900018    1    1    2    0    0  0.22014193193E+03  0.43014054403E+03  0.16132936567E+03  0.51751879235E+03  0.91187600000E+02 0.  0.
<mgrwt>
<rscale>  0 0.43292133E+04</rscale>
<asrwt>0</asrwt>
<pdfrwt beam="1">  1        1 0.67963607E+00 0.43292133E+04</pdfrwt>
<pdfrwt beam="2">  1       -1 0.16317546E+00 0.43292133E+04</pdfrwt>
<totfact> 0.81753319E-03</totfact>
</mgrwt>
</event>
<event>
11    1  0.6852136E-012  0.3812385E+04  0.7818608E-02  0.8043502E-01
          1   -1    0    0  501    0  0.00000000000E+00  0.00000000000E+00  0.18768482778E+04  0.18768482778E+04  0.00000000000E+00 0. -1.
         -1   -1    0    0    0  501 -0.00000000000E+00 -0.00000000000E+00 -0.19359956698E+04  0.19359956698E+04  0.00000000000E+00 0.  1.
    9900016    2    1    2    0    0  0.34763027275E+03 -0.39701224123E+03  0.17138429251E+02  0.19030131829E+04  0.18283052050E+04 0.  0.
        -24    2    3    3    0    0  0.92092657083E+03 -0.77506969768E+03  0.10436767978E+03  0.12107668193E+04  0.78897991743E+02 0.  0.
        -15    1    3    3    0    0 -0.57329629808E+03  0.37805745645E+03 -0.87229250524E+02  0.69224636360E+03  0.00000000000E+00 0.  1.
        -15    1    1    2    0    0 -0.63972515494E+02  0.40412534807E+01  0.10899633978E+03  0.12644768307E+03  0.00000000000E+00 0. -1.
         15    1    1    2    0    0 -0.14262509385E+03  0.11548354704E+03  0.48590286735E+02  0.18984041456E+03  0.00000000000E+00 0.  1.
         15    1    4    4    0    0  0.74167788099E+03 -0.58407062154E+03  0.70990449103E+02  0.94671231847E+03  0.00000000000E+00 0. -1.
        -16    1    4    4    0    0  0.17924868985E+03 -0.19099907614E+03  0.33377230672E+02  0.26405450086E+03  0.00000000000E+00 0.  1.
         16    1    1    2    0    0 -0.77460813257E+03  0.25108639985E+03  0.17588035545E+03  0.83306424642E+03  0.00000000000E+00 0. -1.
    9900018    1    1    2    0    0  0.63357546917E+03  0.26401040858E+02 -0.40975280321E+03  0.76047842062E+03  0.91187600000E+02 0.  0.
<mgrwt>
<rscale>  0 0.38123852E+04</rscale>
<asrwt>0</asrwt>
<pdfrwt beam="1">  1        1 0.28874589E+00 0.38123852E+04</pdfrwt>
<pdfrwt beam="2">  1       -1 0.29784549E+00 0.38123852E+04</pdfrwt>
<totfact> 0.97923073E-02</totfact>
</mgrwt>
</event>
<event>
12    1  0.6852136E-012  0.3123835E+04  0.7818608E-02  0.8805529E-01
          2   -1    0    0  501    0  0.00000000000E+00  0.00000000000E+00  0.17739920650E+04  0.17739920650E+04  0.00000000000E+00 0. -1.
         -2   -1    0    0    0  501 -0.00000000000E+00 -0.00000000000E+00 -0.17014334368E+04  0.17014334368E+04  0.00000000000E+00 0.  1.
         23    2    1    2    0    0  0.19921354075E+03  0.51468547881E+01 -0.24551648695E+03  0.33543879668E+03  0.11192996034E+03 0.  0.
    9900016    2    1    2    0    0  0.35417781236E+03 -0.55219712677E+03  0.20951732963E+03  0.19700000113E+04  0.18457082499E+04 0.  0.
        -24    2    4    4    0    0 -0.44449145511E+03 -0.62132874843E+03 -0.48569044720E+03  0.90888473349E+03  0.80957896356E+02 0.  0.
        -15    1    4    4    0    0  0.79866926747E+03  0.69131621660E+02  0.69520777683E+03  0.10611152778E+04  0.00000000000E+00 0.  1.
        -15    1    3    3    0    0  0.12179419844E+03 -0.28107826021E+02 -0.20917564349E+03  0.24367668433E+03  0.00000000000E+00 0.  1.
         15    1    3    3    0    0  0.77419342307E+02  0.33254680809E+02 -0.36340843461E+02  0.91762112347E+02  0.00000000000E+00 0. -1.
         15    1    5    5    0    0 -0.33348055055E+03 -0.48327304029E+03 -0.33305563911E+03  0.67504678935E+03  0.00000000000E+00 0. -1.
        -16    1    5    5    0    0 -0.11101090456E+03 -0.13805570814E+03 -0.15263480808E+03  0.23383794414E+03  0.00000000000E+00 0.  1.
         16    1    1    2    0    0 -0.64998776764E+03  0.70418443037E+03  0.72076316922E+02  0.96101758856E+03  0.00000000000E+00 0. -1.
    9900018    1    1    2    0    0  0.96596414533E+02 -0.15713415839E+03  0.36481468602E+02  0.20896910532E+03  0.91187600000E+02 0.  0.
<mgrwt>
<rscale>  0 0.16246781E+04</rscale>
<asrwt>0</asrwt>
<pdfrwt beam="1">  1        2 0.27292186E+00 0.31238349E+04</pdfrwt>
<pdfrwt beam="2">  1       -2 0.26175899E+00 0.31238349E+04</pdfrwt>
<totfact> 0.40630668E-01</totfact>
</mgrwt>
</event>
<event>
12    1  0.6852136E-012  0.4235150E+04  0.7818608E-02  0.7958720E-01
         -2   -1    0    0    0  501 -0.00000000000E+00  0.00000000000E+00  0.23970658980E+04  0.23970658980E+04  0.00000000000E+00 0.  1.
          2   -1    0    0  501    0  0.00000000000E+00 -0.00000000000E+00 -0.18706715701E+04  0.18706715701E+04  0.00000000000E+00 0. -1.
         23    2    1    2    0    0 -0.27898761085E+03  0.51875466014E+03 -0.47469673313E+03  0.76670450310E+03  0.12473300367E+03 0.  0.
    9900016    2    1    2    0    0  0.35547334762E+03 -0.27495949677E+03 -0.27910404317E+03  0.19225323406E+04  0.18483147752E+04 0.  0.
         24    2    4    4    0    0  0.32727508385E+03  0.75080156466E+03  0.99399392138E+02  0.82880214183E+03  0.78871928705E+02 0.  0.
        -15    1    5    5    0    0  0.25051065118E+03  0.48984465472E+03  0.51330554391E+02  0.55257415604E+03  0.00000000000E+00 0.  1.
        -15    1    3    3    0    0 -0.35898376350E+01  0.71553399593E+02 -0.26924056158E+02  0.76535486721E+02  0.00000000000E+00 0. -1.
         15    1    3    3    0    0 -0.27539777322E+03  0.44720126055E+03 -0.44777267698E+03  0.69016901638E+03  0.00000000000E+00 0.  1.
         15    1    4    4    0    0  0.28198263767E+02 -0.10257610614E+04 -0.37850343531E+03  0.10937301988E+04  0.00000000000E+00 0. -1.
        -16    1    1    2    0    0 -0.55604316665E+01 -0.50848738713E+03  0.11583323012E+04  0.12650391541E+04  0.00000000000E+00 0.  1.
         16    1    5    5    0    0  0.76764432668E+02  0.26095690995E+03  0.48068837746E+02  0.27622798579E+03  0.00000000000E+00 0. -1.
    9900018    1    1    2    0    0 -0.70925305099E+02  0.26469222376E+03  0.12186280303E+03  0.31346147032E+03  0.91187600000E+02 0.  0.
<mgrwt>
<rscale>  0 0.42351496E+04</rscale>
<asrwt>0</asrwt>
<pdfrwt beam="1">  1        2 0.28779562E+00 0.42351496E+04</pdfrwt>
<pdfrwt beam="2">  1       -2 0.36877937E+00 0.42351496E+04</pdfrwt>
<totfact> 0.72119566E-02</totfact>
</mgrwt>
</event>
<event>
12    1  0.6852136E-012  0.3039783E+04  0.7818608E-02  0.8232461E-01
         -1   -1    0    0    0  501 -0.00000000000E+00  0.00000000000E+00  0.14425433171E+04  0.14425433171E+04  0.00000000000E+00 0.  1.
          1   -1    0    0  501    0  0.00000000000E+00 -0.00000000000E+00 -0.16013871151E+04  0.16013871151E+04  0.00000000000E+00 0. -1.
         23    2    1    2    0    0 -0.49934400381E+02  0.51228324208E+03 -0.60393920769E+03  0.80075438205E+03  0.10741251941E+03 0.  0.
    9900016    2    1    2    0    0  0.21434954777E+02 -0.34399054250E+03  0.14506771457E+03  0.18838859286E+04  0.18463999024E+04 0.  0.
        -24    2    4    4    0    0  0.71205380833E+03 -0.85421900802E+02 -0.52104724071E+03  0.89014487731E+03  0.80932987444E+02 0.  0.
        -15    1    4    4    0    0 -0.69061885356E+03 -0.25856864170E+03  0.66611495528E+03  0.99374105129E+03  0.00000000000E+00 0.  1.
        -15    1    3    3    0    0 -0.31089519322E+02  0.19093710130E+03 -0.15264990469E+03  0.24642550247E+03  0.00000000000E+00 0.  1.
         15    1    5    5    0    0  0.61207800515E+03 -0.44698896413E+02 -0.43926106702E+03  0.75471038202E+03  0.00000000000E+00 0. -1.
         15    1    3    3    0    0 -0.18844881059E+02  0.32134614078E+03 -0.45128930300E+03  0.55432887958E+03  0.00000000000E+00 0. -1.
        -16    1    5    5    0    0  0.99975803189E+02 -0.40723004389E+02 -0.81786173686E+02  0.13543449530E+03  0.00000000000E+00 0.  1.
         16    1    1    2    0    0  0.23963210999E+01  0.16168249099E+01  0.65672675140E+01  0.71753383337E+01  0.00000000000E+00 0. -1.
    9900018    1    1    2    0    0  0.26103124504E+02 -0.16990952449E+03  0.29346042764E+03  0.35211478328E+03  0.91187600000E+02 0.  0.
<mgrwt>
<rscale>  0 0.30397831E+04</rscale>
<asrwt>0</asrwt>
<pdfrwt beam="1">  1        1 0.24636725E+00 0.30397831E+04</pdfrwt>
<pdfrwt beam="2">  1       -1 0.22192974E+00 0.30397831E+04</pdfrwt>
<totfact> 0.50450306E-01</totfact>
</mgrwt>
</event>
