<event>
12    1  0.2608472E-014  0.1403725E+04  0.7818608E-02  0.8951127E-01
          2   -1    0    0  501    0  0.00000000000E+00  0.00000000000E+00  0.11891532276E+04  0.11891532276E+04  0.00000000000E+00 0. -1.
         -2   -1    0    0    0  501 -0.00000000000E+00 -0.00000000000E+00 -0.41425346400E+03  0.41425346400E+03  0.00000000000E+00 0.  1.
    9900016    2    1    2    0    0 -0.23558173653E+03  0.19502714179E+03  0.42482061953E+03  0.87909244942E+03  0.70625536120E+03 0.  0.
    9900016    2    3    3    0    0 -0.19112124859E+03  0.19118756306E+03  0.41112151059E+03  0.81660768784E+03  0.65172632557E+03 0.  0.
         23    2    4    4    0    0 -0.29700391293E+03 -0.44064722857E+02  0.46102305869E+03  0.55384364704E+03  0.63619970335E+02 0.  0.
        -15    1    3    3    0    0 -0.27944729244E+02 -0.82400517067E+01 -0.10341429711E+02  0.30915231086E+02  0.00000000000E+00 0.  1.
        -15    1    5    5    0    0 -0.16381760219E+03 -0.41627877767E+02  0.20911070695E+03  0.26887985190E+03  0.00000000000E+00 0. -1.
         15    1    3    3    0    0 -0.16515758700E+02  0.12079630439E+02  0.24040538651E+02  0.31569530494E+02  0.00000000000E+00 0. -1.
         15    1    5    5    0    0 -0.13318631074E+03 -0.24368450897E+01  0.25191235174E+03  0.28496379514E+03  0.00000000000E+00 0.  1.
        -16    1    1    2    0    0 -0.62111332096E+02 -0.29735745035E+03  0.13578977469E+03  0.33274334518E+03  0.00000000000E+00 0.  1.
         16    1    4    4    0    0  0.10588266434E+03  0.23525228591E+03 -0.49901548098E+02  0.26276404080E+03  0.00000000000E+00 0. -1.
    9900018    1    1    2    0    0  0.29769306863E+03  0.10233030856E+03  0.21428936943E+03  0.39157089704E+03  0.91187600000E+02 0.  0.
<mgrwt>
<rscale>  0 0.14037248E+04</rscale>
<asrwt>0</asrwt>
<pdfrwt beam="1">  1        2 0.18294665E+00 0.14037248E+04</pdfrwt>
<pdfrwt beam="2">  1       -2 0.63731303E-01 0.14037248E+04</pdfrwt>
<totfact> 0.42611364E+01</totfact>
</mgrwt>
</event>
<event>
11    1  0.2608472E-014  0.1486006E+04  0.7818608E-02  0.8893813E-01
          5   -1    0    0  501    0  0.00000000000E+00  0.00000000000E+00  0.13029885266E+04  0.13029885266E+04  0.00000000000E+00 0. -1.
         -5   -1    0    0    0  501 -0.00000000000E+00 -0.00000000000E+00 -0.42368226144E+03  0.42368226144E+03  0.00000000000E+00 0.  1.
    9900016    2    1    2    0    0 -0.43066547199E+02  0.45549789804E+03  0.45308415551E+03  0.10033061126E+04  0.76941850842E+03 0.  0.
    9900016    2    3    3    0    0 -0.70311463108E+02  0.41979388203E+03  0.40705084181E+03  0.89826860428E+03  0.67825179129E+03 0.  0.
        -15    1    4    4    0    0  0.22899819875E+03  0.22645197609E+03  0.37900266614E+02  0.32427935906E+03  0.00000000000E+00 0. -1.
        -15    1    3    3    0    0 -0.15063624994E+02 -0.61253321848E+01 -0.13303836211E+02  0.21010105908E+02  0.00000000000E+00 0. -1.
         15    1    4    4    0    0  0.33626764530E+02  0.18613298199E+02 -0.10308244574E+02  0.39792889677E+02  0.00000000000E+00 0.  1.
         15    1    3    3    0    0  0.42308540903E+02  0.41829348201E+02  0.59337149913E+02  0.84027402459E+02  0.00000000000E+00 0.  1.
        -16    1    1    2    0    0  0.20725603508E+02 -0.47167169002E+03  0.28019996644E+03  0.54901343790E+03  0.00000000000E+00 0.  1.
         16    1    4    4    0    0 -0.33293642638E+03  0.17472860773E+03  0.37945881977E+03  0.53419635554E+03  0.00000000000E+00 0. -1.
    9900018    1    1    2    0    0  0.22340943691E+02  0.16173791974E+02  0.14602214318E+03  0.17435123746E+03  0.91187600000E+02 0.  0.
<mgrwt>
<rscale>  0 0.14860056E+04</rscale>
<asrwt>0</asrwt>
<pdfrwt beam="1">  1        5 0.20045977E+00 0.14860056E+04</pdfrwt>
<pdfrwt beam="2">  1       -5 0.65181887E-01 0.14860056E+04</pdfrwt>
<totfact> 0.22669480E-01</totfact>
</mgrwt>
</event>
<event>
11    1  0.2608472E-014  0.1541055E+04  0.7818608E-02  0.8857601E-01
         -2   -1    0    0    0  501 -0.00000000000E+00  0.00000000000E+00  0.34956117265E+03  0.34956117265E+03  0.00000000000E+00 0.  1.
          2   -1    0    0  501    0  0.00000000000E+00 -0.00000000000E+00 -0.16984519948E+04  0.16984519948E+04  0.00000000000E+00 0. -1.
    9900016    2    1    2    0    0 -0.21223744866E+03  0.26258865869E+03 -0.48919424829E+03  0.91921732062E+03  0.70117895838E+03 0.  0.
    9900016    2    3    3    0    0 -0.21189899341E+03  0.21257629478E+03 -0.46646181137E+03  0.85675023780E+03  0.65295059844E+03 0.  0.
        -15    1    3    3    0    0  0.30889461027E+01  0.12225156398E+02  0.68550061105E+01  0.14352252288E+02  0.00000000000E+00 0.  1.
        -15    1    4    4    0    0 -0.87822467926E+02  0.16560206230E+03 -0.29972056612E+03  0.35350989613E+03  0.00000000000E+00 0. -1.
         15    1    3    3    0    0 -0.34274013510E+01  0.37787207508E+02 -0.29587443033E+02  0.48114830526E+02  0.00000000000E+00 0.  1.
         15    1    4    4    0    0  0.10580770883E+03  0.17751019715E+03 -0.10485895048E+03  0.23173377146E+03  0.00000000000E+00 0. -1.
        -16    1    1    2    0    0  0.13342143211E+03 -0.33298276659E+03 -0.12334510524E+03  0.37933206611E+03  0.00000000000E+00 0.  1.
         16    1    4    4    0    0 -0.22988423432E+03 -0.13053596467E+03 -0.61882294775E+02  0.27150657021E+03  0.00000000000E+00 0. -1.
    9900018    1    1    2    0    0  0.78816016548E+02  0.70394107903E+02 -0.73635146860E+03  0.74946378071E+03  0.91187600000E+02 0.  0.
<mgrwt>
<rscale>  0 0.15410553E+04</rscale>
<asrwt>0</asrwt>
<pdfrwt beam="1">  1        2 0.26130031E+00 0.15410553E+04</pdfrwt>
<pdfrwt beam="2">  1       -2 0.53778641E-01 0.15410553E+04</pdfrwt>
<totfact> 0.30827605E+01</totfact>
</mgrwt>
</event>
