<event>
11    1  0.1178527E-018  0.2155594E+04  0.7818608E-02  0.8537142E-01
          1   -1    0    0  501    0  0.00000000000E+00  0.00000000000E+00  0.20451352005E+04  0.20451352005E+04  0.00000000000E+00 0. -1.
         -1   -1    0    0    0  501 -0.00000000000E+00 -0.00000000000E+00 -0.56800465448E+03  0.56800465448E+03  0.00000000000E+00 0.  1.
    9900016    2    1    2    0    0  0.70036181982E+02 -0.59042162327E+02  0.16450017844E+04  0.24219023158E+04  0.17751588416E+04 0.  0.
        -24    2    3    3    0    0  0.18582860286E+03  0.10319131962E+03  0.11599976470E+04  0.11820416203E+04  0.80294041523E+02 0.  0.
        -15    1    3    3    0    0 -0.24322039569E+03  0.39876181476E+03  0.46195113947E+03  0.65693683186E+03  0.00000000000E+00 0.  1.
        -15    1    4    4    0    0  0.13333208642E+03  0.84435998965E+02  0.87567270570E+03  0.88978063067E+03  0.00000000000E+00 0. -1.
         15    1    4    4    0    0  0.25308916144E+02  0.57321737954E+01  0.71486456281E+02  0.76050723102E+02  0.00000000000E+00 0. -1.
         15    1    4    4    0    0  0.19223166788E+02 -0.34024293347E+01  0.97368677626E+02  0.99306425016E+02  0.00000000000E+00 0.  1.
        -16    1    1    2    0    0 -0.70036181982E+02  0.59042162327E+02 -0.16787123839E+03  0.19123753920E+03  0.00000000000E+00 0.  1.
         16    1    4    4    0    0  0.79644335031E+01  0.16425576191E+02  0.11546980734E+03  0.11690384152E+03  0.00000000000E+00 0. -1.
    9900018    1    3    3    0    0  0.12742797482E+03 -0.56099529670E+03  0.23052997990E+02  0.58292386364E+03  0.91187600000E+02 0.  0.
<mgrwt>
<rscale>  0 0.21555939E+04</rscale>
<asrwt>0</asrwt>
<pdfrwt beam="1">  1        1 0.31463618E+00 0.21555939E+04</pdfrwt>
<pdfrwt beam="2">  1       -1 0.87385332E-01 0.21555939E+04</pdfrwt>
<totfact> 0.32753624E+00</totfact>
</mgrwt>
</event>
<event>
10    1  0.1241855E-018  0.2017533E+04  0.7818608E-02  0.8598467E-01
         -1   -1    0    0    0  501 -0.00000000000E+00  0.00000000000E+00  0.55824162215E+03  0.55824162215E+03  0.00000000000E+00 0.  1.
          1   -1    0    0  501    0  0.00000000000E+00 -0.00000000000E+00 -0.18228840714E+04  0.18228840714E+04  0.00000000000E+00 0. -1.
         24    2    1    2    0    0 -0.23374140355E+03  0.36614741480E+03  0.34595268091E+03  0.56090220275E+03  0.78924334161E+02 0.  0.
        -15    1    3    3    0    0 -0.16461947443E+03  0.26580441398E+03  0.26364889361E+03  0.40897713500E+03  0.00000000000E+00 0.  1.
        -15    1    3    3    0    0 -0.17750382616E+02  0.33692600253E+02  0.13630165579E+02  0.40448100185E+02  0.00000000000E+00 0.  1.
         15    1    1    2    0    0 -0.26071662559E+02 -0.19728790647E+03 -0.30902264102E+03  0.36755576760E+03  0.00000000000E+00 0. -1.
         15    1    3    3    0    0  0.49867387330E+00  0.12881084921E+02  0.74772454085E+01  0.14902356299E+02  0.00000000000E+00 0. -1.
        -16    1    3    3    0    0 -0.51870220377E+02  0.53769315647E+02  0.61196376310E+02  0.96574611263E+02  0.00000000000E+00 0.  1.
         16    1    1    2    0    0  0.19908139587E+03 -0.16025593540E+03 -0.13171109773E+04  0.13416768216E+04  0.00000000000E+00 0. -1.
    9900018    1    1    2    0    0  0.60731670240E+02 -0.86035729249E+01  0.15538488162E+02  0.11099090163E+03  0.91187600000E+02 0.  0.
<mgrwt>
<rscale>  0 0.20175329E+04</rscale>
<asrwt>0</asrwt>
<pdfrwt beam="1">  1        1 0.28044370E+00 0.20175329E+04</pdfrwt>
<pdfrwt beam="2">  1       -1 0.85883326E-01 0.20175329E+04</pdfrwt>
<totfact> 0.48731572E+00</totfact>
</mgrwt>
</event>
<event>
10    1  0.1178527E-018  0.1340725E+04  0.7818608E-02  0.8997879E-01
         -2   -1    0    0    0  501 -0.00000000000E+00  0.00000000000E+00  0.57531503221E+03  0.57531503221E+03  0.00000000000E+00 0.  1.
          2   -1    0    0  501    0  0.00000000000E+00 -0.00000000000E+00 -0.78111310551E+03  0.78111310551E+03  0.00000000000E+00 0. -1.
         24    2    1    2    0    0  0.11109169012E+03 -0.13664402322E+02  0.33633062732E+03  0.36462027064E+03  0.85449232785E+02 0.  0.
        -15    1    3    3    0    0  0.44282270780E+02 -0.12174019455E+02  0.91970021690E+02  0.10279888689E+03  0.00000000000E+00 0.  1.
        -15    1    3    3    0    0  0.52270024201E+01  0.94244558846E+01  0.76865181955E+01  0.13237238571E+02  0.00000000000E+00 0.  1.
         15    1    3    3    0    0  0.30150533913E+02 -0.25395949415E+02  0.97406459977E+02  0.10508105151E+03  0.00000000000E+00 0. -1.
         15    1    1    2    0    0 -0.20083670952E+03 -0.26341707505E+03 -0.32549669911E+03  0.46440503922E+03  0.00000000000E+00 0. -1.
        -16    1    3    3    0    0  0.31431883010E+02  0.14481110664E+02  0.13926762745E+03  0.14350309367E+03  0.00000000000E+00 0.  1.
         16    1    1    2    0    0  0.10614867626E+03  0.86004496777E+02 -0.27509185484E+03  0.30714791801E+03  0.00000000000E+00 0. -1.
    9900018    1    1    2    0    0 -0.16403656858E+02  0.19107698060E+03  0.58459853334E+02  0.22025490986E+03  0.91187600000E+02 0.  0.
<mgrwt>
<rscale>  0 0.13407253E+04</rscale>
<asrwt>0</asrwt>
<pdfrwt beam="1">  1        2 0.12017125E+00 0.13407253E+04</pdfrwt>
<pdfrwt beam="2">  1       -2 0.88510006E-01 0.13407253E+04</pdfrwt>
<totfact> 0.38181543E+01</totfact>
</mgrwt>
</event>
<event>
10    1  0.1178527E-018  0.8880685E+03  0.7818608E-02  0.9440621E-01
         -1   -1    0    0    0  501 -0.00000000000E+00  0.00000000000E+00  0.90560945072E+02  0.90560945072E+02  0.00000000000E+00 0.  1.
          1   -1    0    0  501    0  0.00000000000E+00 -0.00000000000E+00 -0.21771680779E+04  0.21771680779E+04  0.00000000000E+00 0. -1.
        -24    2    1    2    0    0 -0.86947137837E+01  0.29411535502E+03 -0.87266929227E+03  0.92431590902E+03  0.78922530942E+02 0.  0.
        -15    1    3    3    0    0  0.45218490135E-01  0.47122462816E+02 -0.16427854841E+03  0.17090339380E+03  0.00000000000E+00 0.  1.
        -15    1    1    2    0    0  0.23637453681E+02 -0.18417582014E+03 -0.32854098826E+03  0.37738394627E+03  0.00000000000E+00 0.  1.
         15    1    3    3    0    0  0.14925161097E+02  0.42301753723E+02 -0.10610171717E+03  0.11519450155E+03  0.00000000000E+00 0. -1.
         15    1    3    3    0    0 -0.15829167845E+02  0.30178935155E+02 -0.13822401743E+03  0.14236295050E+03  0.00000000000E+00 0. -1.
        -16    1    1    2    0    0 -0.13526421480E+03 -0.30608489806E+02 -0.12487668918E+03  0.18662120714E+03  0.00000000000E+00 0.  1.
         16    1    3    3    0    0 -0.78359255261E+01  0.17451220333E+03 -0.46406500927E+03  0.49585506316E+03  0.00000000000E+00 0. -1.
    9900018    1    1    2    0    0  0.12032147491E+03 -0.79331045078E+02 -0.76052016308E+03  0.77940796050E+03  0.91187600000E+02 0.  0.
<mgrwt>
<rscale>  0 0.88806846E+03</rscale>
<asrwt>0</asrwt>
<pdfrwt beam="1">  1        1 0.33494890E+00 0.88806846E+03</pdfrwt>
<pdfrwt beam="2">  1       -1 0.13932454E-01 0.88806846E+03</pdfrwt>
<totfact> 0.85482277E+01</totfact>
</mgrwt>
</event>
<event>
10    1  0.1178527E-018  0.1405359E+04  0.7818608E-02  0.8949949E-01
         -2   -1    0    0    0  501 -0.00000000000E+00  0.00000000000E+00  0.25665383075E+03  0.25665383075E+03  0.00000000000E+00 0.  1.
          2   -1    0    0  501    0  0.00000000000E+00 -0.00000000000E+00 -0.19238298374E+04  0.19238298374E+04  0.00000000000E+00 0. -1.
        -24    2    1    2    0    0  0.22076675377E+03  0.14421797640E+03 -0.84972007045E+03  0.89348003282E+03  0.82131520354E+02 0.  0.
        -15    1    1    2    0    0 -0.33006481760E+03 -0.22524959832E+02 -0.31774876635E+03  0.45870953352E+03  0.00000000000E+00 0.  1.
        -15    1    3    3    0    0  0.18227994086E+02  0.18447084520E+02 -0.11904978998E+03  0.12184173009E+03  0.00000000000E+00 0.  1.
         15    1    3    3    0    0  0.60734668035E+02  0.66970758784E+02 -0.21030144309E+03  0.22891150998E+03  0.00000000000E+00 0. -1.
         15    1    3    3    0    0  0.65297459059E+02  0.29331430633E+02 -0.21878802947E+03  0.23020054913E+03  0.00000000000E+00 0. -1.
        -16    1    1    2    0    0  0.13309048071E+03 -0.12593088708E+03  0.10841543844E+03  0.21289803116E+03  0.00000000000E+00 0.  1.
         16    1    3    3    0    0  0.76506632593E+02  0.29468702463E+02 -0.30158080791E+03  0.31252624362E+03  0.00000000000E+00 0. -1.
    9900018    1    1    2    0    0 -0.23792416887E+02  0.42378705167E+01 -0.60812260831E+03  0.61539607066E+03  0.91187600000E+02 0.  0.
<mgrwt>
<rscale>  0 0.14053587E+04</rscale>
<asrwt>0</asrwt>
<pdfrwt beam="1">  1        2 0.29597383E+00 0.14053587E+04</pdfrwt>
<pdfrwt beam="2">  1       -2 0.39485204E-01 0.14053587E+04</pdfrwt>
<totfact> 0.43486398E+01</totfact>
</mgrwt>
</event>
