<event>
11    1  0.7471364E-012  0.3110486E+04  0.7818608E-02  0.8500315E-01
         -2   -1    0    0    0  501 -0.00000000000E+00  0.00000000000E+00  0.21832226606E+04  0.21832226606E+04  0.00000000000E+00 0.  1.
          2   -1    0    0  501    0  0.00000000000E+00 -0.00000000000E+00 -0.18101152407E+04  0.18101152407E+04  0.00000000000E+00 0. -1.
    9900016    2    1    2    0    0  0.58523841691E+03 -0.56204892481E+03 -0.11887649377E+03  0.19616282327E+04  0.17819794342E+04 0.  0.
         24    2    3    3    0    0  0.80984749465E+03 -0.77060258555E+03 -0.68809481052E+03  0.13151351087E+04  0.80153455137E+02 0.  0.
        -15    1    4    4    0    0  0.54199294858E+03 -0.56278561151E+03 -0.46348843005E+03  0.90846327699E+03  0.00000000000E+00 0.  1.
        -15    1    1    2    0    0  0.23797003326E+03  0.16201973913E+03  0.10849048261E+03  0.30765291713E+03  0.00000000000E+00 0.  1.
         15    1    1    2    0    0 -0.36211225258E+03 -0.34582123647E+03 -0.20289250546E+03  0.54026195483E+03  0.00000000000E+00 0. -1.
         15    1    3    3    0    0 -0.22460907774E+03  0.20855366074E+03  0.56921831675E+03  0.64649312397E+03  0.00000000000E+00 0. -1.
        -16    1    1    2    0    0 -0.29147647350E+03  0.58762509357E+03  0.65324881658E+03  0.92574067728E+03  0.00000000000E+00 0.  1.
         16    1    4    4    0    0  0.26785454607E+03 -0.20781697404E+03 -0.22460638047E+03  0.40667183170E+03  0.00000000000E+00 0. -1.
    9900018    1    1    2    0    0 -0.16961972409E+03  0.15822532858E+03 -0.66862880042E+02  0.25805411937E+03  0.91187600000E+02 0.  0.
<mgrwt>
<rscale>  0 0.22440478E+04</rscale>
<asrwt>0</asrwt>
<pdfrwt beam="1">  1        2 0.27847927E+00 0.31104856E+04</pdfrwt>
<pdfrwt beam="2">  1       -2 0.33588041E+00 0.31104856E+04</pdfrwt>
<totfact> 0.13401017E-01</totfact>
</mgrwt>
</event>
<event>
11    1  0.7471364E-012  0.3538579E+04  0.7818608E-02  0.8104708E-01
         -2   -1    0    0    0  501 -0.00000000000E+00  0.00000000000E+00  0.10726000961E+04  0.10726000961E+04  0.00000000000E+00 0. -1.
          2   -1    0    0  501    0  0.00000000000E+00 -0.00000000000E+00 -0.29185014838E+04  0.29185014838E+04  0.00000000000E+00 0.  1.
    9900016    2    1    2    0    0 -0.14751927942E+03  0.55904987957E+03 -0.72166644203E+03  0.19651400169E+04  0.17339763916E+04 0.  0.
         24    2    3    3    0    0  0.33674096752E+03  0.15774614139E+03  0.29159774007E+03  0.47914543865E+03  0.79200915645E+02 0.  0.
        -15    1    4    4    0    0  0.58776227425E+02  0.35864670870E+02  0.19601708415E+02  0.71590128508E+02  0.00000000000E+00 0.  1.
        -15    1    1    2    0    0 -0.21068334762E+03  0.16803053404E+02 -0.60515315099E+02  0.21984521584E+03  0.00000000000E+00 0.  1.
         15    1    1    2    0    0  0.56990195869E+03 -0.74165339485E+03 -0.27816607050E+03  0.97581471776E+03  0.00000000000E+00 0. -1.
         15    1    3    3    0    0  0.18345888867E+03  0.31902324313E+03 -0.17563474367E+03  0.40777513004E+03  0.00000000000E+00 0. -1.
        -16    1    1    2    0    0 -0.21169933165E+03  0.16580046188E+03 -0.78555356006E+03  0.83030162947E+03  0.00000000000E+00 0.  1.
         16    1    4    4    0    0  0.27796474009E+03  0.12188147052E+03  0.27199603166E+03  0.40755531015E+03  0.00000000000E+00 0. -1.
    9900018    1    3    3    0    0 -0.66771913561E+03  0.82280495038E+02 -0.83762943844E+03  0.10782194482E+04  0.91187600000E+02 0.  0.
<mgrwt>
<rscale>  0 0.35385788E+04</rscale>
<asrwt>0</asrwt>
<pdfrwt beam="1">  1        2 0.44900022E+00 0.35385788E+04</pdfrwt>
<pdfrwt beam="2">  1       -2 0.16501540E+00 0.35385788E+04</pdfrwt>
<totfact> 0.37081014E-01</totfact>
</mgrwt>
</event>
<event>
11    1  0.7471364E-012  0.3851276E+04  0.7818608E-02  0.8359493E-01
          2   -1    0    0  501    0  0.00000000000E+00  0.00000000000E+00  0.39499490072E+04  0.39499490072E+04  0.00000000000E+00 0. -1.
         -2   -1    0    0    0  501 -0.00000000000E+00 -0.00000000000E+00 -0.14493616072E+04  0.14493616072E+04  0.00000000000E+00 0.  1.
    9900016    2    1    2    0    0 -0.34987730383E+03  0.12764346890E+04  0.19826569060E+04  0.29704354628E+04  0.17722468195E+04 0.  0.
         24    2    3    3    0    0 -0.90410126252E+03  0.81970030687E+03  0.80421643942E+03  0.14637854498E+04  0.81216228133E+02 0.  0.
        -15    1    1    2    0    0  0.64254089066E+03 -0.15219126066E+03  0.58993588524E+03  0.88546333899E+03  0.00000000000E+00 0. -1.
        -15    1    4    4    0    0 -0.15458943992E+03  0.10220888560E+03  0.11310929806E+03  0.21711348309E+03  0.00000000000E+00 0.  1.
         15    1    3    3    0    0  0.42763774722E+03 -0.16741709616E+02  0.66661841819E+03  0.79217071592E+03  0.00000000000E+00 0. -1.
         15    1    1    2    0    0  0.11761951033E+03 -0.69566694030E+02  0.31824572843E+03  0.34634407428E+03  0.00000000000E+00 0.  1.
        -16    1    1    2    0    0 -0.41028309716E+03 -0.10546767343E+04 -0.39025111965E+03  0.11970677383E+04  0.00000000000E+00 0.  1.
         16    1    4    4    0    0 -0.74951182260E+03  0.71749142127E+03  0.69110714136E+03  0.12466719667E+04  0.00000000000E+00 0. -1.
    9900018    1    3    3    0    0  0.12658621148E+03  0.47347609177E+03  0.51182204836E+03  0.71447929710E+03  0.91187600000E+02 0.  0.
<mgrwt>
<rscale>  0 0.26257920E+04</rscale>
<asrwt>0</asrwt>
<pdfrwt beam="1">  1        2 0.60768446E+00 0.38512760E+04</pdfrwt>
<pdfrwt beam="2">  1       -2 0.22297871E+00 0.38512760E+04</pdfrwt>
<totfact> 0.27441230E-02</totfact>
</mgrwt>
</event>
<event>
11    1  0.7471364E-012  0.4663521E+04  0.7818608E-02  0.8060063E-01
          2   -1    0    0  501    0  0.00000000000E+00  0.00000000000E+00  0.33108583811E+04  0.33108583811E+04  0.00000000000E+00 0. -1.
         -2   -1    0    0    0  501 -0.00000000000E+00 -0.00000000000E+00 -0.34239902614E+04  0.34239902614E+04  0.00000000000E+00 0.  1.
    9900016    2    1    2    0    0  0.51123830577E+03  0.33047020148E+03  0.56349610136E+03  0.20794914730E+04  0.19068774923E+04 0.  0.
         24    2    3    3    0    0  0.15531712918E+03  0.60272378728E+03  0.10223691349E+04  0.11996127620E+04  0.80204466624E+02 0.  0.
        -15    1    1    2    0    0  0.25322495709E+03  0.50668061683E+03 -0.18383937416E+03  0.59552081564E+03  0.00000000000E+00 0.  1.
        -15    1    4    4    0    0  0.37146628059E+02  0.11001858458E+03  0.13773894097E+03  0.18015542398E+03  0.00000000000E+00 0.  1.
         15    1    3    3    0    0  0.12408604673E+03 -0.22069030899E+03  0.94963567745E+02  0.27040643238E+03  0.00000000000E+00 0. -1.
         15    1    1    2    0    0  0.90629608383E+03  0.75011386826E+03  0.79501933911E+03  0.14198940652E+04  0.00000000000E+00 0. -1.
        -16    1    1    2    0    0 -0.16707593467E+04 -0.15872646866E+04 -0.12878079467E+04  0.26399422886E+04  0.00000000000E+00 0.  1.
         16    1    4    4    0    0  0.11817050113E+03  0.49270520270E+03  0.88463019394E+03  0.10194573381E+04  0.00000000000E+00 0. -1.
    9900018    1    3    3    0    0  0.23183512986E+03 -0.51563276806E+02 -0.55383660130E+03  0.60947227852E+03  0.91187600000E+02 0.  0.
<mgrwt>
<rscale>  0 0.37358511E+04</rscale>
<asrwt>0</asrwt>
<pdfrwt beam="1">  1        2 0.50936283E+00 0.46635209E+04</pdfrwt>
<pdfrwt beam="2">  1       -2 0.52676773E+00 0.46635209E+04</pdfrwt>
<totfact> 0.88120674E-04</totfact>
</mgrwt>
</event>
<event>
11    1  0.7471364E-012  0.3056680E+04  0.7818608E-02  0.8422013E-01
          1   -1    0    0  501    0  0.00000000000E+00  0.00000000000E+00  0.19848831351E+04  0.19848831351E+04  0.00000000000E+00 0. -1.
         -1   -1    0    0    0  501 -0.00000000000E+00 -0.00000000000E+00 -0.23612901975E+04  0.23612901975E+04  0.00000000000E+00 0.  1.
    9900016    2    1    2    0    0 -0.19812529112E+03  0.60953406241E+03 -0.88348336963E+03  0.22052268643E+04  0.19161673346E+04 0.  0.
        -24    2    3    3    0    0  0.46449613996E+03  0.65449927587E+03 -0.60111163343E+03  0.10060113899E+04  0.81226563188E+02 0.  0.
        -15    1    1    2    0    0  0.42503226968E+03  0.30431137488E+03 -0.34897583756E+03  0.62852364980E+03  0.00000000000E+00 0.  1.
        -15    1    3    3    0    0 -0.64819962134E+03  0.33641115243E+03 -0.33471380997E+03  0.80334833489E+03  0.00000000000E+00 0.  1.
         15    1    4    4    0    0  0.84080683944E+02  0.15310583963E+03 -0.16519565387E+03  0.24041747773E+03  0.00000000000E+00 0. -1.
         15    1    1    2    0    0 -0.51241882850E+02 -0.65463544869E+03  0.62833991037E+02  0.65963733344E+03  0.00000000000E+00 0. -1.
        -16    1    4    4    0    0  0.38041545602E+03  0.50139343624E+03 -0.43591597957E+03  0.76559391215E+03  0.00000000000E+00 0.  1.
         16    1    1    2    0    0 -0.17566509571E+03 -0.25920998860E+03  0.79321815380E+03  0.85278548508E+03  0.00000000000E+00 0. -1.
    9900018    1    3    3    0    0 -0.14421809736E+02 -0.38137636589E+03  0.52342073777E+02  0.39586713950E+03  0.91187600000E+02 0.  0.
<mgrwt>
<rscale>  0 0.24472763E+04</rscale>
<asrwt>0</asrwt>
<pdfrwt beam="1">  1        1 0.30536664E+00 0.30566799E+04</pdfrwt>
<pdfrwt beam="2">  1       -1 0.36327541E+00 0.30566799E+04</pdfrwt>
<totfact> 0.31552775E-02</totfact>
</mgrwt>
</event>
<event>
11    1  0.7471364E-012  0.4231796E+04  0.7818608E-02  0.7959351E-01
         -1   -1    0    0    0  501 -0.00000000000E+00  0.00000000000E+00  0.12356541414E+04  0.12356541414E+04  0.00000000000E+00 0.  1.
          1   -1    0    0  501    0  0.00000000000E+00 -0.00000000000E+00 -0.36232012201E+04  0.36232012201E+04  0.00000000000E+00 0. -1.
    9900016    2    1    2    0    0  0.72986341595E+03 -0.29550246641E+03 -0.14050959039E+04  0.25605187726E+04  0.19904621504E+04 0.  0.
         24    2    3    3    0    0 -0.63237786671E+03 -0.18960860252E+03 -0.83261832457E+03  0.10656931164E+04  0.81211794284E+02 0.  0.
        -15    1    4    4    0    0 -0.33556185127E+03 -0.12487408427E+03 -0.50317593261E+03  0.61756077605E+03  0.00000000000E+00 0.  1.
        -15    1    1    2    0    0 -0.17558189195E+02 -0.49998740845E+02  0.18011633446E+03  0.18774998810E+03  0.00000000000E+00 0.  1.
         15    1    1    2    0    0 -0.63303414629E+01 -0.35213603786E+03 -0.10550229508E+04  0.11122559458E+04  0.00000000000E+00 0. -1.
         15    1    3    3    0    0  0.27987027630E+03 -0.29995579800E+02 -0.45405802136E+02  0.28511189598E+03  0.00000000000E+00 0. -1.
        -16    1    1    2    0    0 -0.70597488530E+03  0.69763724512E+03 -0.10754455845E+03  0.99833065489E+03  0.00000000000E+00 0.  1.
         16    1    4    4    0    0 -0.29681601544E+03 -0.64734518248E+02 -0.32944239196E+03  0.44813234038E+03  0.00000000000E+00 0. -1.
    9900018    1    3    3    0    0  0.10823710064E+04 -0.75898284090E+02 -0.52707177718E+03  0.12097137602E+04  0.91187600000E+02 0.  0.
<mgrwt>
<rscale>  0 0.42317956E+04</rscale>
<asrwt>0</asrwt>
<pdfrwt beam="1">  1        1 0.55741557E+00 0.42317956E+04</pdfrwt>
<pdfrwt beam="2">  1       -1 0.19010064E+00 0.42317956E+04</pdfrwt>
<totfact> 0.26944960E-02</totfact>
</mgrwt>
</event>
<event>
10    1  0.7471364E-012  0.3190084E+04  0.7818608E-02  0.8191441E-01
         -2   -1    0    0    0  501 -0.00000000000E+00  0.00000000000E+00  0.59933408673E+03  0.59933408673E+03  0.00000000000E+00 0.  1.
          2   -1    0    0  501    0  0.00000000000E+00 -0.00000000000E+00 -0.42449772725E+04  0.42449772725E+04  0.00000000000E+00 0. -1.
        -24    2    1    2    0    0  0.27403811190E+03  0.18080082759E+03  0.20716611037E+02  0.33830258579E+03  0.78953375827E+02 0.  0.
        -15    1    1    2    0    0  0.28068854218E+03 -0.14079074933E+03 -0.30598539214E+03  0.43844629433E+03  0.00000000000E+00 0.  1.
        -15    1    1    2    0    0 -0.33834993483E+03 -0.82251126500E+03 -0.51053337040E+03  0.10254997717E+04  0.00000000000E+00 0.  1.
         15    1    3    3    0    0  0.21885522918E+03  0.10866936368E+03  0.33328957551E+02  0.24661196515E+03  0.00000000000E+00 0. -1.
         15    1    1    2    0    0  0.17295381379E+03  0.21280979843E+03 -0.41327086496E+03  0.49597766062E+03  0.00000000000E+00 0. -1.
        -16    1    3    3    0    0  0.55182882715E+02  0.72131463904E+02 -0.12612346515E+02  0.91690620645E+02  0.00000000000E+00 0.  1.
         16    1    1    2    0    0 -0.31266698578E+03  0.40536950376E+03 -0.20025595288E+04  0.20669614764E+04  0.00000000000E+00 0. -1.
    9900018    1    1    2    0    0 -0.76663547257E+02  0.16432188456E+03 -0.43401064051E+03  0.47912357038E+03  0.91187600000E+02 0.  0.
<mgrwt>
<rscale>  0 0.31900844E+04</rscale>
<asrwt>0</asrwt>
<pdfrwt beam="1">  1        2 0.65307343E+00 0.31900844E+04</pdfrwt>
<pdfrwt beam="2">  1       -2 0.92205243E-01 0.31900844E+04</pdfrwt>
<totfact> 0.17847199E-01</totfact>
</mgrwt>
</event>
<event>
11    1  0.7471364E-012  0.3966868E+04  0.7818608E-02  0.8011264E-01
          1   -1    0    0  501    0  0.00000000000E+00  0.00000000000E+00  0.27515931634E+04  0.27515931634E+04  0.00000000000E+00 0. -1.
         -1   -1    0    0    0  501 -0.00000000000E+00 -0.00000000000E+00 -0.14297211484E+04  0.14297211484E+04  0.00000000000E+00 0.  1.
    9900016    2    1    2    0    0  0.33143380767E+02  0.76631587918E+02  0.13719641594E+04  0.21869470087E+04  0.17010234215E+04 0.  0.
        -24    2    3    3    0    0 -0.28897014294E+03 -0.65262792827E+03  0.11552226295E+04  0.13607790749E+04  0.88053453703E+02 0.  0.
        -15    1    1    2    0    0  0.41589284674E+03  0.29605708099E+03  0.38818622653E+03  0.64133080515E+03  0.00000000000E+00 0.  1.
        -15    1    3    3    0    0  0.32211352371E+03  0.72925951619E+03  0.21674152984E+03  0.82616793382E+03  0.00000000000E+00 0.  1.
         15    1    4    4    0    0 -0.11403409904E+03 -0.17887479865E+03  0.38934840273E+03  0.44338713112E+03  0.00000000000E+00 0. -1.
         15    1    1    2    0    0 -0.20580129283E+03 -0.56247420271E+03 -0.39377109483E+03  0.71678942234E+03  0.00000000000E+00 0. -1.
        -16    1    4    4    0    0 -0.17493604390E+03 -0.47375312962E+03  0.76587422678E+03  0.91739194379E+03  0.00000000000E+00 0.  1.
         16    1    1    2    0    0 -0.31603051640E+03  0.15876597229E+03  0.16822690422E+03  0.39164041231E+03  0.00000000000E+00 0. -1.
    9900018    1    1    2    0    0  0.72795581722E+02  0.31019561519E+02 -0.21273418024E+03  0.24460666334E+03  0.91187600000E+02 0.  0.
<mgrwt>
<rscale>  0 0.39668683E+04</rscale>
<asrwt>0</asrwt>
<pdfrwt beam="1">  1        1 0.42332202E+00 0.39668683E+04</pdfrwt>
<pdfrwt beam="2">  1       -1 0.21995710E+00 0.39668683E+04</pdfrwt>
<totfact> 0.77953586E-02</totfact>
</mgrwt>
</event>
