<event>
12    1  0.2294953E-011  0.3188099E+04  0.7818608E-02  0.8711118E-01
         -1   -1    0    0    0  501 -0.00000000000E+00  0.00000000000E+00  0.13942351026E+04  0.13942351026E+04  0.00000000000E+00 0.  1.
          1   -1    0    0  501    0  0.00000000000E+00 -0.00000000000E+00 -0.22956532516E+04  0.22956532516E+04  0.00000000000E+00 0. -1.
        -24    2    1    2    0    0  0.20456861917E+03 -0.22774641300E+03 -0.31700193597E+03  0.44866629093E+03  0.84228644906E+02 0.  0.
    9900016    2    1    2    0    0 -0.36653412355E+03 -0.33944250168E+03 -0.20453601864E+03  0.22327482483E+04  0.21665090080E+04 0.  0.
         23    2    4    4    0    0  0.14089523399E+03  0.40553252919E+03  0.78182763693E+03  0.89656502340E+03  0.90919129620E+02 0.  0.
        -15    1    5    5    0    0  0.96619573328E+02  0.25888495472E+03  0.41007294074E+03  0.49448617620E+03  0.00000000000E+00 0.  1.
        -15    1    1    2    0    0  0.22883317308E+03  0.71324531927E+03 -0.31670091869E+03  0.81325455944E+03  0.00000000000E+00 0.  1.
         15    1    5    5    0    0  0.44275660662E+02  0.14664757447E+03  0.37175469620E+03  0.40207884720E+03  0.00000000000E+00 0. -1.
         15    1    3    3    0    0  0.13976047709E+02 -0.65773523023E+02 -0.61719161173E+02  0.91272893546E+02  0.00000000000E+00 0. -1.
        -16    1    3    3    0    0  0.19059257146E+03 -0.16197288998E+03 -0.25528277479E+03  0.35739339738E+03  0.00000000000E+00 0.  1.
         16    1    4    4    0    0 -0.50742935754E+03 -0.74497503087E+03 -0.98636365557E+03  0.13361832249E+04  0.00000000000E+00 0. -1.
    9900018    1    1    2    0    0 -0.66867668699E+02 -0.14605640458E+03 -0.63179275714E+02  0.19521925548E+03  0.91187600000E+02 0.  0.
<mgrwt>
<rscale>  0 0.17909667E+04</rscale>
<asrwt>0</asrwt>
<pdfrwt beam="1">  1        1 0.35317742E+00 0.31880995E+04</pdfrwt>
<pdfrwt beam="2">  1       -1 0.21449771E+00 0.31880995E+04</pdfrwt>
<totfact> 0.18565298E-01</totfact>
</mgrwt>
</event>
<event>
12    1  0.2294953E-011  0.3518127E+04  0.7818608E-02  0.8805370E-01
          1   -1    0    0  501    0  0.00000000000E+00  0.00000000000E+00  0.16790892319E+04  0.16790892319E+04  0.00000000000E+00 0. -1.
         -1   -1    0    0    0  501 -0.00000000000E+00 -0.00000000000E+00 -0.20872162486E+04  0.20872162486E+04  0.00000000000E+00 0.  1.
        -24    2    1    2    0    0  0.13795570931E+03  0.13858641624E+02  0.13130255087E+03  0.20706392482E+03  0.80070402884E+02 0.  0.
    9900016    2    1    2    0    0  0.23534187451E+03 -0.90406010186E+02 -0.60169167078E+03  0.22934108728E+04  0.21986681242E+04 0.  0.
         23    2    4    4    0    0  0.23423048210E+03 -0.44310704909E+03 -0.13625729528E+04  0.14547574383E+04  0.92230021557E+02 0.  0.
        -15    1    5    5    0    0  0.34141658630E+01 -0.42461930723E+02 -0.18078294863E+03  0.18573407497E+03  0.00000000000E+00 0. -1.
        -15    1    1    2    0    0 -0.85526183741E+02 -0.29948278904E+03 -0.45966429009E+03  0.55524402619E+03  0.00000000000E+00 0.  1.
         15    1    5    5    0    0  0.23081631624E+03 -0.40064511837E+03 -0.11817900041E+04  0.12690233633E+04  0.00000000000E+00 0.  1.
         15    1    3    3    0    0  0.10829869755E+03 -0.17897924304E+02  0.11902091426E+03  0.16191022703E+03  0.00000000000E+00 0. -1.
        -16    1    3    3    0    0  0.29657011761E+02  0.31756565928E+02  0.12281636603E+02  0.45153697786E+02  0.00000000000E+00 0.  1.
         16    1    4    4    0    0  0.11113924105E+01  0.35270103891E+03  0.76088128199E+03  0.83865343458E+03  0.00000000000E+00 0. -1.
    9900018    1    1    2    0    0 -0.28777140008E+03  0.37603015760E+03  0.52192639327E+03  0.71058665658E+03  0.91187600000E+02 0.  0.
<mgrwt>
<rscale>  0 0.16249426E+04</rscale>
<asrwt>0</asrwt>
<pdfrwt beam="1">  1        1 0.25832142E+00 0.35181268E+04</pdfrwt>
<pdfrwt beam="2">  1       -1 0.32111019E+00 0.35181268E+04</pdfrwt>
<totfact> 0.95804883E-02</totfact>
</mgrwt>
</event>
<event>
12    1  0.2294953E-011  0.3972476E+04  0.7818608E-02  0.8329009E-01
         -1   -1    0    0    0  501 -0.00000000000E+00  0.00000000000E+00  0.16573004656E+04  0.16573004656E+04  0.00000000000E+00 0.  1.
          1   -1    0    0  501    0  0.00000000000E+00 -0.00000000000E+00 -0.35401606479E+04  0.35401606479E+04  0.00000000000E+00 0. -1.
        -24    2    1    2    0    0  0.86388679844E+03  0.80087347377E+02 -0.37136272431E+03  0.94714482812E+03  0.80365842896E+02 0.  0.
    9900016    2    1    2    0    0 -0.96761883432E+03 -0.67433406326E+03 -0.64542183682E+03  0.25527039551E+04  0.21699574875E+04 0.  0.
         23    2    4    4    0    0  0.36664913727E+02  0.19165556922E+03  0.65866792105E+03  0.69281847837E+03  0.89876808126E+02 0.  0.
        -15    1    1    2    0    0  0.77484657865E+02  0.99776009655E+03 -0.41051815224E+03  0.10816904529E+04  0.00000000000E+00 0.  1.
        -15    1    5    5    0    0 -0.21916462648E+02  0.14841139506E+02  0.11905805714E+03  0.12196479708E+03  0.00000000000E+00 0. -1.
         15    1    3    3    0    0  0.39942038441E+03  0.57308685827E+02 -0.21025175214E+03  0.45500189915E+03  0.00000000000E+00 0. -1.
         15    1    5    5    0    0  0.58581376375E+02  0.17681442972E+03  0.53960986391E+03  0.57085368129E+03  0.00000000000E+00 0.  1.
        -16    1    3    3    0    0  0.46446641402E+03  0.22778661550E+02 -0.16111097217E+03  0.49214292897E+03  0.00000000000E+00 0.  1.
         16    1    4    4    0    0 -0.10042837480E+04 -0.86598963249E+03 -0.13040897579E+04  0.18598854768E+04  0.00000000000E+00 0. -1.
    9900018    1    1    2    0    0  0.26247378021E+02 -0.40351338066E+03 -0.45555746892E+03  0.61592187744E+03  0.91187600000E+02 0.  0.
<mgrwt>
<rscale>  0 0.27185576E+04</rscale>
<asrwt>0</asrwt>
<pdfrwt beam="1">  1        1 0.54464009E+00 0.39724758E+04</pdfrwt>
<pdfrwt beam="2">  1       -1 0.25496931E+00 0.39724758E+04</pdfrwt>
<totfact> 0.11448872E-02</totfact>
</mgrwt>
</event>
