<event>
11    1  0.3744329E-022  0.2249923E+04  0.7818608E-02  0.8497932E-01
         -2   -1    0    0    0  501 -0.00000000000E+00  0.00000000000E+00  0.67842343876E+03  0.67842343876E+03  0.00000000000E+00 0. -1.
          2   -1    0    0  501    0  0.00000000000E+00 -0.00000000000E+00 -0.18654111487E+04  0.18654111487E+04  0.00000000000E+00 0.  1.
        -24    2    1    2    0    0  0.11502489313E+02 -0.27387436287E+03 -0.74510748874E+02  0.29711230560E+03  0.87088440940E+02 0.  0.
        -24    2    3    3    0    0  0.11437403037E+02 -0.24690335296E+03 -0.59759818525E+02  0.26418963673E+03  0.71643899626E+02 0.  0.
        -15    1    3    3    0    0  0.33385404924E+01 -0.11531942215E+02 -0.11863911162E+02  0.16878505026E+02  0.00000000000E+00 0.  1.
        -15    1    1    2    0    0 -0.42930525045E+03  0.38558335924E+03 -0.40316840949E+02  0.57844876407E+03  0.00000000000E+00 0.  1.
         15    1    4    4    0    0 -0.22738062296E+02 -0.32425632735E+02 -0.30298846499E+01  0.39719281669E+02  0.00000000000E+00 0. -1.
         15    1    3    3    0    0 -0.32734542162E+01 -0.15439067692E+02 -0.28870191870E+01  0.16044163845E+02  0.00000000000E+00 0. -1.
        -16    1    4    4    0    0  0.34175465333E+02 -0.21447772022E+03 -0.56729933875E+02  0.22447035506E+03  0.00000000000E+00 0.  1.
         16    1    1    2    0    0 -0.40397772462E+03  0.11570314840E+03 -0.33364065911E+03  0.53656435770E+03  0.00000000000E+00 0. -1.
    9900018    1    1    2    0    0  0.82178048576E+03 -0.22741214478E+03 -0.73851946104E+03  0.11317091601E+04  0.91187600000E+02 0.  0.
<mgrwt>
<rscale>  0 0.22499232E+04</rscale>
<asrwt>0</asrwt>
<pdfrwt beam="1">  1        2 0.28698632E+00 0.22499232E+04</pdfrwt>
<pdfrwt beam="2">  1       -2 0.10437284E+00 0.22499232E+04</pdfrwt>
<totfact> 0.53878726E+00</totfact>
</mgrwt>
</event>
<event>
11    1  0.3744329E-022  0.2076030E+04  0.7818608E-02  0.8571876E-01
         -1   -1    0    0    0  501 -0.00000000000E+00  0.00000000000E+00  0.60445717911E+03  0.60445717911E+03  0.00000000000E+00 0. -1.
          1   -1    0    0  501    0  0.00000000000E+00 -0.00000000000E+00 -0.17825505796E+04  0.17825505796E+04  0.00000000000E+00 0.  1.
         24    2    1    2    0    0  0.34072308747E+03  0.14328563290E+03  0.14791345404E+03  0.40756111968E+03  0.87204824744E+02 0.  0.
         24    2    3    3    0    0  0.29846961141E+03  0.13090518603E+03  0.12635106352E+03  0.35663977824E+03  0.70760607028E+02 0.  0.
        -15    1    4    4    0    0  0.30213891005E+02  0.43539935891E+01  0.34652654940E+02  0.46180547465E+02  0.00000000000E+00 0.  1.
        -15    1    3    3    0    0  0.21044657460E+02  0.13088457719E+02  0.13496359233E+02  0.28219444460E+02  0.00000000000E+00 0.  1.
         15    1    3    3    0    0  0.21208818601E+02 -0.70801084633E+00  0.80660312839E+01  0.22701896980E+02  0.00000000000E+00 0. -1.
         15    1    1    2    0    0 -0.78963531326E+02 -0.71587531780E+02 -0.11968354552E+03  0.16026279997E+03  0.00000000000E+00 0. -1.
        -16    1    1    2    0    0 -0.95650584794E+02 -0.56415649054E+03 -0.11550811698E+04  0.12890438662E+04  0.00000000000E+00 0.  1.
         16    1    4    4    0    0  0.26825572041E+03  0.12655119244E+03  0.91698408584E+02  0.31045923078E+03  0.00000000000E+00 0. -1.
    9900018    1    1    2    0    0 -0.16610897135E+03  0.49245838942E+03 -0.51242139317E+02  0.53013997294E+03  0.91187600000E+02 0.  0.
<mgrwt>
<rscale>  0 0.20760303E+04</rscale>
<asrwt>0</asrwt>
<pdfrwt beam="1">  1        1 0.27423855E+00 0.20760303E+04</pdfrwt>
<pdfrwt beam="2">  1       -1 0.92993413E-01 0.20760303E+04</pdfrwt>
<totfact> 0.43336270E+00</totfact>
</mgrwt>
</event>
<event>
11    1  0.3744329E-022  0.2358228E+04  0.7818608E-02  0.8455310E-01
          2   -1    0    0  501    0  0.00000000000E+00  0.00000000000E+00  0.20883550221E+04  0.20883550221E+04  0.00000000000E+00 0.  1.
         -2   -1    0    0    0  501 -0.00000000000E+00 -0.00000000000E+00 -0.66574411010E+03  0.66574411010E+03  0.00000000000E+00 0. -1.
         24    2    1    2    0    0 -0.10706092427E+03  0.47446201565E+02 -0.22804225620E+03  0.27107161997E+03  0.88109982353E+02 0.  0.
         24    2    3    3    0    0 -0.78852126599E+02  0.29850248398E+02 -0.17380444829E+03  0.20583056521E+03  0.71060116311E+02 0.  0.
        -15    1    3    3    0    0 -0.10017269294E+02  0.61280336190E+01 -0.32957985960E+02  0.34987530903E+02  0.00000000000E+00 0.  1.
        -15    1    4    4    0    0 -0.16830534050E+02  0.10644193133E+02  0.40210996675E+00  0.19918017378E+02  0.00000000000E+00 0.  1.
         15    1    3    3    0    0 -0.18191528377E+02  0.11467919548E+02 -0.21279821950E+02  0.30253523855E+02  0.00000000000E+00 0. -1.
         15    1    1    2    0    0  0.13100086794E+03  0.17111954152E+03  0.10133831465E+04  0.10360446547E+04  0.00000000000E+00 0. -1.
        -16    1    1    2    0    0 -0.13508818546E+03  0.52470584108E+03  0.27927716498E+03  0.60955784992E+03  0.00000000000E+00 0.  1.
         16    1    4    4    0    0 -0.62021592549E+02  0.19206055265E+02 -0.17420655826E+03  0.18591254783E+03  0.00000000000E+00 0. -1.
    9900018    1    1    2    0    0  0.11114824179E+03 -0.74327158416E+03  0.35799285663E+03  0.83742500755E+03  0.91187600000E+02 0.  0.
<mgrwt>
<rscale>  0 0.23582282E+04</rscale>
<asrwt>0</asrwt>
<pdfrwt beam="1">  1        2 0.32128539E+00 0.23582282E+04</pdfrwt>
<pdfrwt beam="2">  1       -2 0.10242217E+00 0.23582282E+04</pdfrwt>
<totfact> 0.41986377E+00</totfact>
</mgrwt>
</event>
