<event>
12    1  0.1202496E-017  0.2361769E+04  0.7818608E-02  0.8453957E-01
         -2   -1    0    0    0  501 -0.00000000000E+00  0.00000000000E+00  0.97932198585E+03  0.97932198585E+03  0.00000000000E+00 0.  1.
          2   -1    0    0  501    0  0.00000000000E+00 -0.00000000000E+00 -0.14239320122E+04  0.14239320122E+04  0.00000000000E+00 0. -1.
    9900016    2    1    2    0    0  0.39190023209E+03  0.18965299828E+03 -0.50293006559E+03  0.19639872470E+04  0.18479050851E+04 0.  0.
        -24    2    3    3    0    0 -0.20815810894E+03 -0.67635007352E+02  0.49833249063E+03  0.55099115057E+03  0.85741963167E+02 0.  0.
        -24    2    4    4    0    0 -0.17747625031E+03 -0.57825137922E+02  0.41017214461E+03  0.45688860000E+03  0.75262464746E+02 0.  0.
        -15    1    4    4    0    0 -0.19711125893E+02 -0.67054262907E+01  0.65600522977E+02  0.68825284893E+02  0.00000000000E+00 0. -1.
        -15    1    3    3    0    0  0.38526657354E+03 -0.13828925486E+03 -0.82517504595E+03  0.92112328553E+03  0.00000000000E+00 0.  1.
         15    1    4    4    0    0 -0.10970732745E+02 -0.31044431394E+01  0.22559823047E+02  0.25277265676E+02  0.00000000000E+00 0.  1.
         15    1    5    5    0    0 -0.74593082501E+01  0.11930173893E+02  0.57646134178E+02  0.59338411795E+02  0.00000000000E+00 0. -1.
        -16    1    5    5    0    0 -0.17001694206E+03 -0.69755311815E+02  0.35252601043E+03  0.39755018820E+03  0.00000000000E+00 0.  1.
         16    1    1    2    0    0 -0.39190023209E+03 -0.18965299828E+03  0.58320039191E+02  0.43926675112E+03  0.00000000000E+00 0. -1.
    9900018    1    3    3    0    0  0.21479176750E+03  0.39557726049E+03 -0.17608751027E+03  0.49187281087E+03  0.91187600000E+02 0.  0.
<mgrwt>
<rscale>  0 0.23617688E+04</rscale>
<asrwt>0</asrwt>
<pdfrwt beam="1">  1        2 0.21906646E+00 0.23617688E+04</pdfrwt>
<pdfrwt beam="2">  1       -2 0.15066492E+00 0.23617688E+04</pdfrwt>
<totfact> 0.37459853E+00</totfact>
</mgrwt>
</event>
<event>
12    1  0.1202496E-017  0.3650400E+04  0.7818608E-02  0.8079044E-01
         -2   -1    0    0    0  501 -0.00000000000E+00  0.00000000000E+00  0.15046650994E+04  0.15046650994E+04  0.00000000000E+00 0. -1.
          2   -1    0    0  501    0  0.00000000000E+00 -0.00000000000E+00 -0.22140177141E+04  0.22140177141E+04  0.00000000000E+00 0.  1.
    9900016    2    1    2    0    0  0.13150783881E+04 -0.33313013894E+03 -0.32443553897E+03  0.23085168618E+04  0.18394523168E+04 0.  0.
         24    2    3    3    0    0 -0.42042712577E+02  0.12684866303E+03  0.74432986326E+02  0.17727739343E+03  0.89603748663E+02 0.  0.
         24    2    4    4    0    0 -0.40284894765E+02  0.10453631184E+03  0.52126042389E+02  0.14284835824E+03  0.71678559691E+02 0.  0.
        -15    1    4    4    0    0 -0.77579114256E+01  0.13246878100E+02  0.13294176044E+02  0.20307636144E+02  0.00000000000E+00 0.  1.
        -15    1    5    5    0    0  0.10213576398E+02  0.17677307525E+02  0.35582868067E+02  0.41023710754E+02  0.00000000000E+00 0.  1.
         15    1    3    3    0    0  0.15411822253E+04  0.50483009062E+02 -0.26037376639E+03  0.15638368470E+04  0.00000000000E+00 0. -1.
         15    1    4    4    0    0  0.60000936136E+01  0.90654730962E+01  0.90127678936E+01  0.14121399043E+02  0.00000000000E+00 0. -1.
        -16    1    1    2    0    0 -0.13150783881E+04  0.33313013894E+03 -0.38491707567E+03  0.14101659518E+04  0.00000000000E+00 0.  1.
         16    1    5    5    0    0 -0.50498471163E+02  0.86859004312E+02  0.16543174322E+02  0.10182464749E+03  0.00000000000E+00 0. -1.
    9900018    1    3    3    0    0 -0.18406112459E+03 -0.51046181103E+03 -0.13849475891E+03  0.56740262138E+03  0.91187600000E+02 0.  0.
<mgrwt>
<rscale>  0 0.36504001E+04</rscale>
<asrwt>0</asrwt>
<pdfrwt beam="1">  1        2 0.34061811E+00 0.36504001E+04</pdfrwt>
<pdfrwt beam="2">  1       -2 0.23148694E+00 0.36504001E+04</pdfrwt>
<totfact> 0.34445890E-01</totfact>
</mgrwt>
</event>
<event>
12    1  0.1202496E-017  0.2256988E+04  0.7818608E-02  0.8495076E-01
         -1   -1    0    0    0  501 -0.00000000000E+00  0.00000000000E+00  0.93953950230E+03  0.93953950230E+03  0.00000000000E+00 0.  1.
          1   -1    0    0  501    0  0.00000000000E+00 -0.00000000000E+00 -0.13554502066E+04  0.13554502066E+04  0.00000000000E+00 0. -1.
    9900016    2    1    2    0    0 -0.27539943148E+03 -0.22246219745E+03 -0.43985524336E+03  0.19401550754E+04  0.18561774714E+04 0.  0.
         24    2    3    3    0    0  0.17797386052E+03 -0.52820427636E+02  0.60373979991E+03  0.63711736996E+03  0.83379280999E+02 0.  0.
         24    2    4    4    0    0  0.15802271212E+03 -0.43145284465E+02  0.53187045093E+03  0.56135909764E+03  0.73519839551E+02 0.  0.
        -15    1    5    5    0    0  0.43197679728E+01  0.12978892974E+02  0.70926316511E+02  0.72233333247E+02  0.00000000000E+00 0.  1.
        -15    1    4    4    0    0  0.93078262012E+01 -0.72491217610E+01  0.25136825526E+02  0.27767704126E+02  0.00000000000E+00 0. -1.
         15    1    3    3    0    0 -0.18663771251E+03 -0.33296392622E+03 -0.82975037306E+03  0.91333690033E+03  0.00000000000E+00 0. -1.
         15    1    4    4    0    0  0.10643322202E+02 -0.24260214095E+01  0.46732523454E+02  0.47990568196E+02  0.00000000000E+00 0.  1.
        -16    1    1    2    0    0  0.27539943148E+03  0.22246219745E+03  0.23944539095E+02  0.35483463346E+03  0.00000000000E+00 0.  1.
         16    1    5    5    0    0  0.15370294415E+03 -0.56124177439E+02  0.46094413442E+03  0.48912576439E+03  0.00000000000E+00 0. -1.
    9900018    1    3    3    0    0 -0.26673557949E+03  0.16332215640E+03 -0.21384467021E+03  0.38970080512E+03  0.91187600000E+02 0.  0.
<mgrwt>
<rscale>  0 0.22569883E+04</rscale>
<asrwt>0</asrwt>
<pdfrwt beam="1">  1        1 0.20853080E+00 0.22569883E+04</pdfrwt>
<pdfrwt beam="2">  1       -1 0.14454454E+00 0.22569883E+04</pdfrwt>
<totfact> 0.28873468E+00</totfact>
</mgrwt>
</event>
