<event>
13    1  0.3035299E-009  0.6192302E+04  0.7818608E-02  0.7667005E-01
         -2   -1    0    0    0  501 -0.00000000000E+00  0.00000000000E+00  0.18390483028E+04  0.18390483028E+04  0.00000000000E+00 0.  1.
          2   -1    0    0  501    0  0.00000000000E+00 -0.00000000000E+00 -0.52125610632E+04  0.52125610632E+04  0.00000000000E+00 0. -1.
    9900016    2    1    2    0    0  0.86338618600E+03 -0.12700912101E+04 -0.66852721735E+03  0.27623346239E+04  0.21965874774E+04 0.  0.
        -24    2    3    3    0    0 -0.42063063813E+02  0.42725020681E+03  0.37394666080E+03  0.57428571766E+03  0.75205982678E+02 0.  0.
    9900016    2    1    2    0    0 -0.62755664804E+02  0.66031115937E+03 -0.17624414251E+04  0.29074116757E+04  0.22151509598E+04 0.  0.
         23    2    5    5    0    0  0.83651340058E+02  0.16583564639E+03  0.52256825097E+03  0.56493216378E+03  0.10757213597E+03 0.  0.
        -15    1    6    6    0    0  0.34975464621E+02  0.13090179333E+03  0.23566057294E+03  0.27183536978E+03  0.00000000000E+00 0.  1.
        -15    1    3    3    0    0  0.90544924981E+03 -0.16973414169E+04 -0.10424738781E+04  0.21880489062E+04  0.00000000000E+00 0.  1.
         15    1    4    4    0    0 -0.34796448747E+02  0.14025863433E+03  0.88568433171E+02  0.16949231458E+03  0.00000000000E+00 0. -1.
         15    1    6    6    0    0  0.48675875438E+02  0.34933853060E+02  0.28690767803E+03  0.29309679400E+03  0.00000000000E+00 0. -1.
        -16    1    4    4    0    0 -0.72666150651E+01  0.28699157248E+03  0.28537822763E+03  0.40479340308E+03  0.00000000000E+00 0.  1.
         16    1    5    5    0    0 -0.14640700486E+03  0.49447551297E+03 -0.22850096761E+04  0.23424795120E+04  0.00000000000E+00 0. -1.
    9900018    1    1    2    0    0 -0.80063052119E+03  0.60978005070E+03 -0.94254411784E+03  0.13818630664E+04  0.91187600000E+02 0.  0.
<mgrwt>
<rscale>  0 0.61923022E+04</rscale>
<asrwt>0</asrwt>
<pdfrwt beam="1">  1        2 0.80193245E+00 0.61923022E+04</pdfrwt>
<pdfrwt beam="2">  1       -2 0.28293051E+00 0.61923022E+04</pdfrwt>
<totfact> 0.46067134E-04</totfact>
</mgrwt>
</event>
<event>
13    1  0.3035299E-009  0.6142661E+04  0.7818608E-02  0.7672961E-01
         -2   -1    0    0    0  501 -0.00000000000E+00  0.00000000000E+00  0.51325773091E+04  0.51325773091E+04  0.00000000000E+00 0.  1.
          2   -1    0    0  501    0  0.00000000000E+00 -0.00000000000E+00 -0.18378819702E+04  0.18378819702E+04  0.00000000000E+00 0. -1.
    9900016    2    1    2    0    0  0.21676962739E+03  0.37433382972E+03  0.11623113671E+04  0.25207021528E+04  0.21945060359E+04 0.  0.
        -24    2    3    3    0    0  0.37523988082E+02 -0.80063758785E+03 -0.70186570569E+02  0.80847027666E+03  0.79179775153E+02 0.  0.
    9900016    2    1    2    0    0  0.57378314939E+03 -0.97043301758E+03  0.45343833345E+03  0.24984802190E+04  0.21830780422E+04 0.  0.
         23    2    5    5    0    0 -0.35666934183E+03 -0.19806364830E+03  0.10635016145E+04  0.11440528536E+04  0.10667248759E+03 0.  0.
        -15    1    6    6    0    0 -0.12351135857E+03 -0.14081725379E+02  0.29225982647E+03  0.31759905046E+03  0.00000000000E+00 0. -1.
        -15    1    3    3    0    0  0.17924563931E+03  0.11749714176E+04  0.12324979377E+04  0.17122318761E+04  0.00000000000E+00 0.  1.
         15    1    4    4    0    0  0.27307118453E+02 -0.42514468497E+03 -0.76243869640E+02  0.43278956726E+03  0.00000000000E+00 0. -1.
         15    1    6    6    0    0 -0.23315798325E+03 -0.18398192292E+03  0.77124178808E+03  0.82645380318E+03  0.00000000000E+00 0.  1.
        -16    1    4    4    0    0  0.10216869629E+02 -0.37549290288E+03  0.60572990710E+01  0.37568070940E+03  0.00000000000E+00 0.  1.
         16    1    5    5    0    0  0.93045249122E+03 -0.77236936928E+03 -0.61006328110E+03  0.13544273653E+04  0.00000000000E+00 0. -1.
    9900018    1    1    2    0    0 -0.79055277678E+03  0.59609918785E+03  0.16789456384E+04  0.19512769075E+04  0.91187600000E+02 0.  0.
<mgrwt>
<rscale>  0 0.61426611E+04</rscale>
<asrwt>0</asrwt>
<pdfrwt beam="1">  1        2 0.28275107E+00 0.61426611E+04</pdfrwt>
<pdfrwt beam="2">  1       -2 0.78962727E+00 0.61426611E+04</pdfrwt>
<totfact> 0.49752588E-04</totfact>
</mgrwt>
</event>
<event>
13    1  0.3035299E-009  0.6377647E+04  0.7818608E-02  0.7645264E-01
          2   -1    0    0  501    0  0.00000000000E+00  0.00000000000E+00  0.29367599734E+04  0.29367599734E+04  0.00000000000E+00 0. -1.
         -2   -1    0    0    0  501 -0.00000000000E+00 -0.00000000000E+00 -0.34625219026E+04  0.34625219026E+04  0.00000000000E+00 0.  1.
    9900016    2    1    2    0    0  0.10509915102E+04 -0.12100169232E+04  0.95384901101E+02  0.27241818009E+04  0.22007598906E+04 0.  0.
        -24    2    3    3    0    0  0.70394645238E+03  0.51688233516E+03 -0.28510286402E+03  0.92212956523E+03  0.79569691284E+02 0.  0.
    9900016    2    1    2    0    0 -0.87435927860E+03  0.17977429306E+04 -0.64002924414E+03  0.30543807111E+04  0.22188330947E+04 0.  0.
         23    2    5    5    0    0 -0.26077360061E+03 -0.20329957781E+03 -0.88078057935E+03  0.94757751427E+03  0.11311554926E+03 0.  0.
        -15    1    6    6    0    0 -0.75794806680E+02 -0.10739787024E+03 -0.23824429886E+03  0.27210200512E+03  0.00000000000E+00 0.  1.
        -15    1    3    3    0    0  0.34704505786E+03 -0.17268992584E+04  0.38048776512E+03  0.18020522357E+04  0.00000000000E+00 0.  1.
         15    1    6    6    0    0 -0.18497879393E+03 -0.95901707566E+02 -0.64253628049E+03  0.67547550915E+03  0.00000000000E+00 0. -1.
         15    1    4    4    0    0  0.34036265173E+03  0.29297499069E+03 -0.12571648221E+03  0.46635363595E+03  0.00000000000E+00 0. -1.
        -16    1    4    4    0    0  0.36358380065E+03  0.22390734447E+03 -0.15938638181E+03  0.45577592928E+03  0.00000000000E+00 0.  1.
         16    1    5    5    0    0 -0.61358567799E+03  0.20010425084E+04  0.24075133521E+03  0.21068031968E+04  0.00000000000E+00 0. -1.
    9900018    1    1    2    0    0 -0.17663223164E+03 -0.58772600736E+03  0.18882413794E+02  0.62071936407E+03  0.91187600000E+02 0.  0.
<mgrwt>
<rscale>  0 0.63776471E+04</rscale>
<asrwt>0</asrwt>
<pdfrwt beam="1">  1        2 0.45180923E+00 0.63776471E+04</pdfrwt>
<pdfrwt beam="2">  1       -2 0.53269568E+00 0.63776471E+04</pdfrwt>
<totfact> 0.13417065E-03</totfact>
</mgrwt>
</event>
<event>
13    1  0.3035299E-009  0.5615481E+04  0.7818608E-02  0.7739996E-01
         -1   -1    0    0    0  501 -0.00000000000E+00  0.00000000000E+00  0.30139121312E+04  0.30139121312E+04  0.00000000000E+00 0.  1.
          1   -1    0    0  501    0  0.00000000000E+00 -0.00000000000E+00 -0.26156727839E+04  0.26156727839E+04  0.00000000000E+00 0. -1.
    9900016    2    1    2    0    0  0.11444663030E+04  0.16074994349E+03 -0.55376022018E+03  0.25492047305E+04  0.22036675597E+04 0.  0.
        -24    2    3    3    0    0 -0.41077901817E+03  0.77844994474E+02 -0.86214521796E+03  0.96151378252E+03  0.80094520344E+02 0.  0.
    9900016    2    1    2    0    0 -0.97144558375E+03 -0.24833457099E+03  0.32417043563E+03  0.24169860080E+04  0.21751685705E+04 0.  0.
         23    2    5    5    0    0  0.42890070547E+03 -0.15163146447E+03  0.80603083694E+03  0.93290020623E+03  0.11691521932E+03 0.  0.
        -15    1    3    3    0    0  0.15552453212E+04  0.82904949017E+02  0.30838499778E+03  0.15876909480E+04  0.00000000000E+00 0.  1.
        -15    1    6    6    0    0  0.21717425511E+03 -0.15537555189E+02  0.38983741833E+03  0.44651907623E+03  0.00000000000E+00 0. -1.
         15    1    6    6    0    0  0.21172645036E+03 -0.13609390928E+03  0.41619341862E+03  0.48638113000E+03  0.00000000000E+00 0.  1.
         15    1    4    4    0    0 -0.35330329072E+03  0.45620718007E+02 -0.76802039822E+03  0.84661667668E+03  0.00000000000E+00 0. -1.
        -16    1    4    4    0    0 -0.57475727448E+02  0.32224276466E+02 -0.94124819731E+02  0.11489710583E+03  0.00000000000E+00 0.  1.
         16    1    5    5    0    0 -0.14003462892E+04 -0.96703106520E+02 -0.48186040131E+03  0.14840858017E+04  0.00000000000E+00 0. -1.
    9900018    1    1    2    0    0 -0.17302071924E+03  0.87584627498E+02  0.62782913189E+03  0.66339417657E+03  0.91187600000E+02 0.  0.
<mgrwt>
<rscale>  0 0.56154814E+04</rscale>
<asrwt>0</asrwt>
<pdfrwt beam="1">  1        1 0.40241120E+00 0.56154814E+04</pdfrwt>
<pdfrwt beam="2">  1       -1 0.46367879E+00 0.56154814E+04</pdfrwt>
<totfact> 0.20266347E-03</totfact>
</mgrwt>
</event>
<event>
12    1  0.3035299E-009  0.5065769E+04  0.7818608E-02  0.7818441E-01
          1   -1    0    0  501    0  0.00000000000E+00  0.00000000000E+00  0.35192962751E+04  0.35192962751E+04  0.00000000000E+00 0. -1.
         -1   -1    0    0    0  501 -0.00000000000E+00 -0.00000000000E+00 -0.18229506309E+04  0.18229506309E+04  0.00000000000E+00 0.  1.
    9900016    2    1    2    0    0  0.17668980797E+02 -0.87620129761E+03  0.11738668818E+04  0.26448635391E+04  0.22021123445E+04 0.  0.
         24    2    3    3    0    0  0.14038150227E+03 -0.13812503368E+04  0.14886510931E+04  0.20372271391E+04  0.81565189603E+02 0.  0.
    9900016    2    1    2    0    0  0.58220096798E+02  0.76068940124E+03  0.20591617414E+03  0.23401310737E+04  0.22026742897E+04 0.  0.
        -15    1    5    5    0    0  0.20953771109E+03 -0.36260219004E+02  0.30962193767E+03  0.37561496261E+03  0.00000000000E+00 0.  1.
        -15    1    4    4    0    0  0.66248313940E+02 -0.69529970885E+03  0.68947837369E+03  0.98143311133E+03  0.00000000000E+00 0.  1.
         15    1    5    5    0    0  0.25044319525E+03  0.76297634429E+02  0.73969086063E+03  0.78465641676E+03  0.00000000000E+00 0. -1.
         15    1    3    3    0    0 -0.12271252147E+03  0.50504903919E+03 -0.31478421134E+03  0.60763640002E+03  0.00000000000E+00 0. -1.
        -16    1    5    5    0    0 -0.40176080954E+03  0.72065198582E+03 -0.84339662416E+03  0.11798596944E+04  0.00000000000E+00 0.  1.
         16    1    4    4    0    0  0.74133188327E+02 -0.68595062794E+03  0.79917271946E+03  0.10557940278E+04  0.00000000000E+00 0. -1.
    9900018    1    1    2    0    0 -0.75889077594E+02  0.11551189636E+03  0.31656258825E+03  0.35725229317E+03  0.91187600000E+02 0.  0.
<mgrwt>
<rscale>  0 0.50657688E+04</rscale>
<asrwt>0</asrwt>
<pdfrwt beam="1">  1        1 0.54143019E+00 0.50657688E+04</pdfrwt>
<pdfrwt beam="2">  1       -1 0.28045394E+00 0.50657688E+04</pdfrwt>
<totfact> 0.76513019E-03</totfact>
</mgrwt>
</event>
<event>
12    1  0.3035299E-009  0.5506396E+04  0.7818608E-02  0.7754810E-01
         -1   -1    0    0    0  501 -0.00000000000E+00  0.00000000000E+00  0.38099004522E+04  0.38099004522E+04  0.00000000000E+00 0.  1.
          1   -1    0    0  501    0  0.00000000000E+00 -0.00000000000E+00 -0.19895790152E+04  0.19895790152E+04  0.00000000000E+00 0. -1.
    9900016    2    1    2    0    0  0.21295450868E+03 -0.27372268118E+03  0.20878983085E+04  0.30582988896E+04  0.22076229349E+04 0.  0.
         24    2    3    3    0    0 -0.52043532835E+03 -0.31699231084E+03  0.22272966420E+04  0.23105256557E+04  0.79633022534E+02 0.  0.
    9900016    2    1    2    0    0 -0.19373846681E+01  0.37640369296E+03 -0.61264320147E+03  0.23140300572E+04  0.21994817389E+04 0.  0.
        -15    1    4    4    0    0 -0.28378656675E+03 -0.21812744218E+03  0.12718949196E+04  0.13212990134E+04  0.00000000000E+00 0.  1.
        -15    1    5    5    0    0  0.15425010183E+02 -0.87740466348E+02 -0.15464482143E+03  0.17846944043E+03  0.00000000000E+00 0. -1.
         15    1    3    3    0    0  0.73338983703E+03  0.43269629661E+02 -0.13939833350E+03  0.74777323387E+03  0.00000000000E+00 0. -1.
         15    1    5    5    0    0 -0.42916187664E+03 -0.42445700174E+03 -0.88164564360E+03  0.10684768147E+04  0.00000000000E+00 0.  1.
        -16    1    5    5    0    0  0.41179948178E+03  0.88860116105E+03  0.42364726355E+03  0.10670838020E+04  0.00000000000E+00 0.  1.
         16    1    4    4    0    0 -0.23664876160E+03 -0.98864868663E+02  0.95540172243E+03  0.98922664230E+03  0.00000000000E+00 0. -1.
    9900018    1    1    2    0    0 -0.21101712401E+03 -0.10268101178E+03  0.34506632998E+03  0.42715052065E+03  0.91187600000E+02 0.  0.
<mgrwt>
<rscale>  0 0.55063956E+04</rscale>
<asrwt>0</asrwt>
<pdfrwt beam="1">  1        1 0.30608908E+00 0.55063956E+04</pdfrwt>
<pdfrwt beam="2">  1       -1 0.58613853E+00 0.55063956E+04</pdfrwt>
<totfact> 0.10741652E-03</totfact>
</mgrwt>
</event>
<event>
13    1  0.3035299E-009  0.7237691E+04  0.7818608E-02  0.7553407E-01
         -2   -1    0    0    0  501 -0.00000000000E+00  0.00000000000E+00  0.28568709481E+04  0.28568709481E+04  0.00000000000E+00 0.  1.
          2   -1    0    0  501    0  0.00000000000E+00 -0.00000000000E+00 -0.45840517064E+04  0.45840517064E+04  0.00000000000E+00 0. -1.
    9900016    2    1    2    0    0  0.72223933284E+03 -0.14967212994E+04 -0.18407687245E+04  0.33098635873E+04  0.21920226202E+04 0.  0.
        -24    2    3    3    0    0  0.11522118473E+04 -0.11519948273E+04 -0.28110139576E+03  0.16556946479E+04  0.87307211786E+02 0.  0.
    9900016    2    1    2    0    0 -0.83171085122E+03 -0.17049770991E+03  0.46205334867E+03  0.24218643622E+04  0.22206128170E+04 0.  0.
         23    2    5    5    0    0  0.36238286248E+03  0.43095702238E+01 -0.67189135641E+03  0.76589093961E+03  0.61733500893E+02 0.  0.
        -15    1    3    3    0    0 -0.42997251447E+03 -0.34472647218E+03 -0.15596673287E+04  0.16541689394E+04  0.00000000000E+00 0.  1.
        -15    1    6    6    0    0  0.34215730617E+03  0.16643351039E+02 -0.60976358809E+03  0.69939992612E+03  0.00000000000E+00 0. -1.
         15    1    4    4    0    0  0.21191136274E+03 -0.25191700128E+03 -0.35893355227E+02  0.33114488392E+03  0.00000000000E+00 0. -1.
         15    1    6    6    0    0  0.20225556311E+02 -0.12333780815E+02 -0.62127768324E+02  0.66491013484E+02  0.00000000000E+00 0.  1.
        -16    1    4    4    0    0  0.94030048457E+03 -0.90007782598E+03 -0.24520804053E+03  0.13245497640E+04  0.00000000000E+00 0.  1.
         16    1    5    5    0    0 -0.11940937137E+04 -0.17480728013E+03  0.11339447051E+04  0.16559734226E+04  0.00000000000E+00 0. -1.
    9900018    1    1    2    0    0  0.10947151837E+03  0.16672190093E+04 -0.34846538245E+03  0.17091947050E+04  0.91187600000E+02 0.  0.
<mgrwt>
<rscale>  0 0.72376914E+04</rscale>
<asrwt>0</asrwt>
<pdfrwt beam="1">  1        2 0.70523872E+00 0.72376914E+04</pdfrwt>
<pdfrwt beam="2">  1       -2 0.43951861E+00 0.72376914E+04</pdfrwt>
<totfact> 0.25060278E-04</totfact>
</mgrwt>
</event>
<event>
13    1  0.3035299E-009  0.6273639E+04  0.7818608E-02  0.7657370E-01
         -2   -1    0    0    0  501 -0.00000000000E+00  0.00000000000E+00  0.30132932563E+04  0.30132932563E+04  0.00000000000E+00 0.  1.
          2   -1    0    0  501    0  0.00000000000E+00 -0.00000000000E+00 -0.32654099584E+04  0.32654099584E+04  0.00000000000E+00 0. -1.
    9900016    2    1    2    0    0 -0.12680193532E+03  0.12654393615E+04  0.11116206217E+04  0.27761559757E+04  0.22031627463E+04 0.  0.
        -24    2    3    3    0    0  0.41920273199E+03 -0.50594206959E+03  0.11618937057E+03  0.67216057491E+03  0.81188424993E+02 0.  0.
    9900016    2    1    2    0    0 -0.20771464371E+02 -0.16590227806E+04 -0.13525918590E+04  0.30722854398E+04  0.22037797181E+04 0.  0.
         23    2    5    5    0    0  0.91505249202E+02 -0.38950640213E+03  0.60564280172E+03  0.73584351192E+03  0.12072291758E+03 0.  0.
        -15    1    3    3    0    0 -0.54600466731E+03  0.17713814310E+04  0.99543125115E+03  0.21039954008E+04  0.00000000000E+00 0.  1.
        -15    1    6    6    0    0  0.70560611774E+02 -0.34612276458E+03  0.44515147512E+03  0.56827775242E+03  0.00000000000E+00 0.  1.
         15    1    6    6    0    0  0.20944637428E+02 -0.43383637555E+02  0.16049132659E+03  0.16756575950E+03  0.00000000000E+00 0. -1.
         15    1    4    4    0    0  0.26900362252E+03 -0.26504236931E+03  0.79450115337E+02  0.38590507548E+03  0.00000000000E+00 0. -1.
        -16    1    4    4    0    0  0.15019910947E+03 -0.24089970028E+03  0.36739255229E+02  0.28625549943E+03  0.00000000000E+00 0.  1.
         16    1    5    5    0    0 -0.11227671357E+03 -0.12695163785E+04 -0.19582346608E+04  0.23364419278E+04  0.00000000000E+00 0. -1.
    9900018    1    1    2    0    0  0.14757339969E+03  0.39358341914E+03 -0.11145464776E+02  0.43026179925E+03  0.91187600000E+02 0.  0.
<mgrwt>
<rscale>  0 0.62736394E+04</rscale>
<asrwt>0</asrwt>
<pdfrwt beam="1">  1        2 0.50237076E+00 0.62736394E+04</pdfrwt>
<pdfrwt beam="2">  1       -2 0.46358358E+00 0.62736394E+04</pdfrwt>
<totfact> 0.21987381E-03</totfact>
</mgrwt>
</event>
<event>
12    1  0.3035299E-009  0.6802413E+04  0.7818608E-02  0.7598163E-01
         -1   -1    0    0    0  501 -0.00000000000E+00  0.00000000000E+00  0.43503519014E+04  0.43503519014E+04  0.00000000000E+00 0.  1.
          1   -1    0    0  501    0  0.00000000000E+00 -0.00000000000E+00 -0.26591428336E+04  0.26591428336E+04  0.00000000000E+00 0. -1.
    9900016    2    1    2    0    0 -0.80138882733E+03 -0.17113334858E+04 -0.72982045385E+03  0.29931014852E+04  0.22034364646E+04 0.  0.
         24    2    3    3    0    0 -0.25152216504E+03 -0.29006457026E+03  0.76421005079E+03  0.85897734978E+03  0.80151302433E+02 0.  0.
    9900016    2    1    2    0    0  0.70134285414E+03  0.11346780355E+04  0.22062339837E+04  0.33863194394E+04  0.21955215580E+04 0.  0.
        -15    1    4    4    0    0 -0.68559466540E+02 -0.13415994377E+03  0.26276439521E+03  0.30289341088E+03  0.00000000000E+00 0.  1.
        -15    1    5    5    0    0  0.39360264942E+03 -0.14580964007E+03  0.83299373475E+02  0.42792789392E+03  0.00000000000E+00 0.  1.
         15    1    3    3    0    0 -0.54986666229E+03 -0.14212689155E+04 -0.14940305046E+04  0.21341241354E+04  0.00000000000E+00 0. -1.
         15    1    5    5    0    0  0.32634716272E+03 -0.28188426280E+03  0.18555889726E+03  0.46946066138E+03  0.00000000000E+00 0. -1.
        -16    1    5    5    0    0 -0.18606958003E+02  0.15623719384E+04  0.19373757130E+04  0.24889308841E+04  0.00000000000E+00 0.  1.
         16    1    4    4    0    0 -0.18296269850E+03 -0.15590462649E+03  0.50144565558E+03  0.55608393890E+03  0.00000000000E+00 0. -1.
    9900018    1    1    2    0    0  0.10004597319E+03  0.57665545022E+03  0.21479553798E+03  0.63007381040E+03  0.91187600000E+02 0.  0.
<mgrwt>
<rscale>  0 0.68024134E+04</rscale>
<asrwt>0</asrwt>
<pdfrwt beam="1">  1        1 0.40909890E+00 0.68024134E+04</pdfrwt>
<pdfrwt beam="2">  1       -1 0.66928491E+00 0.68024134E+04</pdfrwt>
<totfact> 0.17175074E-04</totfact>
</mgrwt>
</event>
<event>
13    1  0.3035299E-009  0.6880929E+04  0.7818608E-02  0.7589841E-01
         -1   -1    0    0    0  501 -0.00000000000E+00  0.00000000000E+00  0.38762149856E+04  0.38762149856E+04  0.00000000000E+00 0.  1.
          1   -1    0    0  501    0  0.00000000000E+00 -0.00000000000E+00 -0.30536993408E+04  0.30536993408E+04  0.00000000000E+00 0. -1.
    9900016    2    1    2    0    0 -0.97645980255E+02 -0.85010043973E+03 -0.17357375102E+04  0.29268778104E+04  0.21958195549E+04 0.  0.
        -24    2    3    3    0    0  0.76518905926E+03  0.67515243770E+02 -0.14386481207E+04  0.16327507095E+04  0.78063176199E+02 0.  0.
    9900016    2    1    2    0    0  0.28895074179E+03  0.90896058240E+02  0.14966860674E+04  0.26808305320E+04  0.22034129282E+04 0.  0.
         23    2    5    5    0    0 -0.61597143485E+03  0.11847017266E+03 -0.27364353653E+03  0.69243635974E+03  0.10550515080E+03 0.  0.
        -15    1    6    6    0    0 -0.13845852373E+03  0.20022868811E+02 -0.11061489640E+03  0.17834610558E+03  0.00000000000E+00 0.  1.
        -15    1    3    3    0    0 -0.86283503951E+03 -0.91761568350E+03 -0.29708938948E+03  0.12941271009E+04  0.00000000000E+00 0.  1.
         15    1    4    4    0    0  0.60489823731E+03  0.84422480597E+02 -0.11238535806E+04  0.12790918276E+04  0.00000000000E+00 0. -1.
         15    1    6    6    0    0 -0.47751291112E+03  0.98447303854E+02 -0.16302864013E+03  0.51409025416E+03  0.00000000000E+00 0. -1.
        -16    1    4    4    0    0  0.16029082194E+03 -0.16907236827E+02 -0.31479454009E+03  0.35365888188E+03  0.00000000000E+00 0.  1.
         16    1    5    5    0    0  0.90492217664E+03 -0.27574114425E+02  0.17703296039E+04  0.19883941722E+04  0.00000000000E+00 0. -1.
    9900018    1    1    2    0    0 -0.19130476153E+03  0.75920438149E+03  0.10615670876E+04  0.13222059841E+04  0.91187600000E+02 0.  0.
<mgrwt>
<rscale>  0 0.68809288E+04</rscale>
<asrwt>0</asrwt>
<pdfrwt beam="1">  1        1 0.46979990E+00 0.68809288E+04</pdfrwt>
<pdfrwt beam="2">  1       -1 0.59634077E+00 0.68809288E+04</pdfrwt>
<totfact> 0.16008591E-04</totfact>
</mgrwt>
</event>
<event>
13    1  0.3035299E-009  0.5239410E+04  0.7818608E-02  0.7792601E-01
          1   -1    0    0  501    0  0.00000000000E+00  0.00000000000E+00  0.38393994506E+04  0.38393994506E+04  0.00000000000E+00 0. -1.
         -1   -1    0    0    0  501 -0.00000000000E+00 -0.00000000000E+00 -0.17874809597E+04  0.17874809597E+04  0.00000000000E+00 0.  1.
    9900016    2    1    2    0    0 -0.10630283245E+03 -0.57125571749E+03  0.47063402552E+03  0.23229488261E+04  0.21993093179E+04 0.  0.
        -24    2    3    3    0    0 -0.10689476780E+04 -0.29363080269E+03 -0.18404899173E+03  0.11261319875E+04  0.73695557806E+02 0.  0.
    9900016    2    1    2    0    0  0.58957930817E+03  0.36128508109E+03  0.15484939731E+04  0.27681758425E+04  0.21878832784E+04 0.  0.
         23    2    5    5    0    0  0.33420203416E+03  0.36906921851E+02 -0.53474941129E+03  0.64441932610E+03  0.12753907029E+03 0.  0.
        -15    1    3    3    0    0  0.96264484559E+03 -0.27762491480E+03  0.65468301725E+03  0.11968168386E+04  0.00000000000E+00 0.  1.
        -15    1    6    6    0    0  0.10277783229E+03  0.68348095906E+02 -0.14906397202E+03  0.19353245924E+03  0.00000000000E+00 0. -1.
         15    1    4    4    0    0 -0.69091235313E+03 -0.21143694108E+03 -0.14841965017E+03  0.73762717705E+03  0.00000000000E+00 0. -1.
         15    1    6    6    0    0  0.23142420187E+03 -0.31441174056E+02 -0.38568543927E+03  0.45088686686E+03  0.00000000000E+00 0.  1.
        -16    1    4    4    0    0 -0.37803532491E+03 -0.82193861607E+02 -0.35629341560E+02  0.38850481045E+03  0.00000000000E+00 0.  1.
         16    1    5    5    0    0  0.25537727401E+03  0.32437815923E+03  0.20832433844E+04  0.21237565164E+04  0.00000000000E+00 0. -1.
    9900018    1    1    2    0    0 -0.48327647572E+03  0.20997063640E+03  0.32790492304E+02  0.53575574184E+03  0.91187600000E+02 0.  0.
<mgrwt>
<rscale>  0 0.52394097E+04</rscale>
<asrwt>0</asrwt>
<pdfrwt beam="1">  1        1 0.59067684E+00 0.52394097E+04</pdfrwt>
<pdfrwt beam="2">  1       -1 0.27499707E+00 0.52394097E+04</pdfrwt>
<totfact> 0.44743805E-03</totfact>
</mgrwt>
</event>
<event>
13    1  0.3035299E-009  0.8171639E+04  0.7818608E-02  0.7467360E-01
          2   -1    0    0  501    0  0.00000000000E+00  0.00000000000E+00  0.43272397220E+04  0.43272397220E+04  0.00000000000E+00 0. -1.
         -2   -1    0    0    0  501 -0.00000000000E+00 -0.00000000000E+00 -0.38578680381E+04  0.38578680381E+04  0.00000000000E+00 0.  1.
    9900016    2    1    2    0    0 -0.17370647990E+04  0.33504140088E+03 -0.21005450386E+04  0.35134317455E+04  0.21914073822E+04 0.  0.
         24    2    3    3    0    0 -0.92661871838E+03 -0.44113903812E+03 -0.21568009565E+04  0.23898465677E+04  0.79689088111E+02 0.  0.
    9900016    2    1    2    0    0  0.13354703415E+04  0.48040109869E+03  0.89713500433E+03  0.27657016093E+04  0.21977233509E+04 0.  0.
         23    2    5    5    0    0  0.16214281393E+03 -0.46053329535E+03  0.11377622258E+04  0.12425612742E+04  0.10523511488E+03 0.  0.
        -15    1    6    6    0    0  0.84988661822E+02 -0.22022700018E+03  0.68034962860E+03  0.72013791831E+03  0.00000000000E+00 0.  1.
        -15    1    4    4    0    0 -0.56422155491E+03 -0.27354651443E+03 -0.14059263269E+04  0.15394162839E+04  0.00000000000E+00 0.  1.
         15    1    6    6    0    0  0.77154152107E+02 -0.24030629517E+03  0.45741259719E+03  0.52242335586E+03  0.00000000000E+00 0. -1.
         15    1    3    3    0    0 -0.81044608060E+03  0.77618043900E+03  0.56255917903E+02  0.11235851778E+04  0.00000000000E+00 0. -1.
        -16    1    5    5    0    0  0.11733275276E+04  0.94093439405E+03 -0.24062722146E+03  0.15231403351E+04  0.00000000000E+00 0.  1.
         16    1    4    4    0    0 -0.36239716347E+03 -0.16759252368E+03 -0.75087462965E+03  0.85043028376E+03  0.00000000000E+00 0. -1.
    9900018    1    1    2    0    0  0.40159445749E+03 -0.81544249957E+03  0.16727817182E+04  0.19059744053E+04  0.91187600000E+02 0.  0.
<mgrwt>
<rscale>  0 0.81716387E+04</rscale>
<asrwt>0</asrwt>
<pdfrwt beam="1">  1        2 0.66572919E+00 0.81716387E+04</pdfrwt>
<pdfrwt beam="2">  1       -2 0.59351816E+00 0.81716387E+04</pdfrwt>
<totfact> 0.56644087E-05</totfact>
</mgrwt>
</event>
<event>
13    1  0.3035299E-009  0.5658014E+04  0.7818608E-02  0.7734313E-01
         -1   -1    0    0    0  501 -0.00000000000E+00  0.00000000000E+00  0.24791914027E+04  0.24791914027E+04  0.00000000000E+00 0.  1.
          1   -1    0    0  501    0  0.00000000000E+00 -0.00000000000E+00 -0.32281822418E+04  0.32281822418E+04  0.00000000000E+00 0. -1.
    9900016    2    1    2    0    0 -0.63254899197E+03 -0.64610038528E+02  0.75504941141E+03  0.24129449660E+04  0.22017972457E+04 0.  0.
         24    2    3    3    0    0 -0.68418125557E+03 -0.33234739829E+03  0.14649030252E+04  0.16525231505E+04  0.79580814178E+02 0.  0.
    9900016    2    1    2    0    0  0.63284765346E+03  0.41102703822E+03 -0.73692846887E+03  0.24477997806E+04  0.22088958371E+04 0.  0.
         23    2    5    5    0    0  0.61556408042E+01 -0.39092314201E+03 -0.12456020640E+04  0.13099879347E+04  0.10809760530E+03 0.  0.
        -15    1    6    6    0    0 -0.13999386377E+02 -0.24838400304E+03 -0.62028632494E+03  0.66831558465E+03  0.00000000000E+00 0. -1.
        -15    1    4    4    0    0 -0.24015142609E+03 -0.78181805014E+02  0.51525602444E+03  0.57382390400E+03  0.00000000000E+00 0.  1.
         15    1    6    6    0    0  0.20155027181E+02 -0.14253913897E+03 -0.62531573908E+03  0.64167235003E+03  0.00000000000E+00 0.  1.
         15    1    3    3    0    0  0.51632263603E+02  0.26773735977E+03 -0.70985361382E+03  0.76042181552E+03  0.00000000000E+00 0. -1.
        -16    1    5    5    0    0  0.62669201265E+03  0.80195018023E+03  0.50867359514E+03  0.11378118459E+04  0.00000000000E+00 0.  1.
         16    1    4    4    0    0 -0.44402982948E+03 -0.25416559328E+03  0.94964700079E+03  0.10786992465E+04  0.00000000000E+00 0. -1.
    9900018    1    1    2    0    0 -0.29866148792E+00 -0.34641699969E+03 -0.76711178165E+03  0.84662889793E+03  0.91187600000E+02 0.  0.
<mgrwt>
<rscale>  0 0.56580144E+04</rscale>
<asrwt>0</asrwt>
<pdfrwt beam="1">  1        1 0.49664342E+00 0.56580144E+04</pdfrwt>
<pdfrwt beam="2">  1       -1 0.38141406E+00 0.56580144E+04</pdfrwt>
<totfact> 0.26565943E-03</totfact>
</mgrwt>
</event>
<event>
13    1  0.3035299E-009  0.6855409E+04  0.7818608E-02  0.7592534E-01
         -2   -1    0    0    0  501 -0.00000000000E+00  0.00000000000E+00  0.26866313844E+04  0.26866313844E+04  0.00000000000E+00 0.  1.
          2   -1    0    0  501    0  0.00000000000E+00 -0.00000000000E+00 -0.43731925881E+04  0.43731925881E+04  0.00000000000E+00 0. -1.
    9900016    2    1    2    0    0  0.80893475243E+03 -0.35874247516E+03 -0.24574709029E+04  0.34321990909E+04  0.22266018422E+04 0.  0.
        -24    2    3    3    0    0  0.12835140728E+04 -0.94674966744E+03 -0.19571824466E+04  0.25259615233E+04  0.78582312554E+02 0.  0.
    9900016    2    1    2    0    0 -0.11828553295E+04  0.61945875351E+03 -0.17773942085E+03  0.25711969819E+04  0.21901111250E+04 0.  0.
         23    2    5    5    0    0  0.15631607305E+03 -0.46399045096E+03  0.51009711190E+03  0.71637588003E+03  0.11521060992E+03 0.  0.
        -15    1    6    6    0    0  0.24701388594E+02 -0.23774308693E+03  0.27715061198E+03  0.36598414679E+03  0.00000000000E+00 0.  1.
        -15    1    3    3    0    0 -0.47457932035E+03  0.58800719229E+03 -0.50028845627E+03  0.90623756762E+03  0.00000000000E+00 0.  1.
         15    1    6    6    0    0  0.13161468445E+03 -0.22624736403E+03  0.23294649992E+03  0.35039173323E+03  0.00000000000E+00 0. -1.
         15    1    4    4    0    0  0.74078797488E+03 -0.58733594629E+03 -0.11270472290E+04  0.14710424175E+04  0.00000000000E+00 0. -1.
        -16    1    4    4    0    0  0.54272609790E+03 -0.35941372115E+03 -0.83013521761E+03  0.10549191058E+04  0.00000000000E+00 0.  1.
         16    1    5    5    0    0 -0.13391714025E+04  0.10834492045E+04 -0.68783653275E+03  0.18548211018E+04  0.00000000000E+00 0. -1.
    9900018    1    1    2    0    0  0.37392057706E+03 -0.26071627835E+03  0.94864912010E+03  0.10564278997E+04  0.91187600000E+02 0.  0.
<mgrwt>
<rscale>  0 0.68554085E+04</rscale>
<asrwt>0</asrwt>
<pdfrwt beam="1">  1        2 0.67279886E+00 0.68554085E+04</pdfrwt>
<pdfrwt beam="2">  1       -2 0.41332791E+00 0.68554085E+04</pdfrwt>
<totfact> 0.61669720E-04</totfact>
</mgrwt>
</event>
<event>
12    1  0.3035299E-009  0.5403129E+04  0.7818608E-02  0.7769161E-01
         -2   -1    0    0    0  501 -0.00000000000E+00  0.00000000000E+00  0.22732981566E+04  0.22732981566E+04  0.00000000000E+00 0.  1.
          2   -1    0    0  501    0  0.00000000000E+00 -0.00000000000E+00 -0.32105118482E+04  0.32105118482E+04  0.00000000000E+00 0. -1.
    9900016    2    1    2    0    0  0.72324826486E+03 -0.86601567682E+02 -0.68785520763E+03  0.24123709950E+04  0.21944933690E+04 0.  0.
         24    2    3    3    0    0 -0.20256920508E+01 -0.80764453764E+03  0.41271134116E+03  0.90998222856E+03  0.73778062904E+02 0.  0.
    9900016    2    1    2    0    0 -0.75840313429E+03  0.64504850403E+02  0.44653247926E+03  0.23683717721E+04  0.21978301586E+04 0.  0.
        -15    1    5    5    0    0 -0.10592877792E+03 -0.20629721205E+03 -0.17297280406E+03  0.28930785789E+03  0.00000000000E+00 0.  1.
        -15    1    4    4    0    0  0.30930178729E+02 -0.49912488647E+03  0.27235591789E+03  0.56943838495E+03  0.00000000000E+00 0.  1.
         15    1    5    5    0    0 -0.38912322336E+03 -0.69263791746E+01 -0.64752826533E+03  0.75548508395E+03  0.00000000000E+00 0. -1.
         15    1    3    3    0    0  0.72527395691E+03  0.72104296996E+03 -0.11005665488E+04  0.15023887664E+04  0.00000000000E+00 0. -1.
        -16    1    5    5    0    0 -0.26335113302E+03  0.27772844163E+03  0.12670335486E+04  0.13235788303E+04  0.00000000000E+00 0.  1.
         16    1    4    4    0    0 -0.32955870780E+02 -0.30851965117E+03  0.14035542328E+03  0.34054384361E+03  0.00000000000E+00 0. -1.
    9900018    1    1    2    0    0  0.35154869435E+02  0.22096717279E+02 -0.69589096319E+03  0.70306723776E+03  0.91187600000E+02 0.  0.
<mgrwt>
<rscale>  0 0.54031290E+04</rscale>
<asrwt>0</asrwt>
<pdfrwt beam="1">  1        2 0.49392490E+00 0.54031290E+04</pdfrwt>
<pdfrwt beam="2">  1       -2 0.34973818E+00 0.54031290E+04</pdfrwt>
<totfact> 0.14044926E-02</totfact>
</mgrwt>
</event>
<event>
13    1  0.3035299E-009  0.5423647E+04  0.7818608E-02  0.7766284E-01
         -1   -1    0    0    0  501 -0.00000000000E+00  0.00000000000E+00  0.23922254657E+04  0.23922254657E+04  0.00000000000E+00 0.  1.
          1   -1    0    0  501    0  0.00000000000E+00 -0.00000000000E+00 -0.30741189147E+04  0.30741189147E+04  0.00000000000E+00 0. -1.
    9900016    2    1    2    0    0 -0.18050526034E+03  0.39675400069E+03 -0.76833371655E+03  0.23687292200E+04  0.21978502069E+04 0.  0.
        -24    2    3    3    0    0  0.69867345551E+02  0.66590052787E+03 -0.14472810710E+04  0.15966568108E+04  0.79909411811E+02 0.  0.
    9900016    2    1    2    0    0  0.42396922403E+03  0.11479693634E+03 -0.46723989718E+03  0.23002219286E+04  0.22090223086E+04 0.  0.
         23    2    5    5    0    0  0.22246380347E+03 -0.27086763935E+03  0.84482247074E+03  0.91788721635E+03  0.77022808134E+02 0.  0.
        -15    1    6    6    0    0  0.16062380779E+03 -0.14022488066E+03  0.46750826351E+03  0.51383557802E+03  0.00000000000E+00 0.  1.
        -15    1    3    3    0    0 -0.25037260589E+03 -0.26914652719E+03  0.67894735447E+03  0.77207240918E+03  0.00000000000E+00 0.  1.
         15    1    6    6    0    0  0.61839995681E+02 -0.13064275869E+03  0.37731420723E+03  0.40405163833E+03  0.00000000000E+00 0. -1.
         15    1    4    4    0    0  0.12825425983E+02  0.24060702275E+03 -0.60900322074E+03  0.65493599215E+03  0.00000000000E+00 0. -1.
        -16    1    4    4    0    0  0.57041919569E+02  0.42529350513E+03 -0.83827785028E+03  0.94172081869E+03  0.00000000000E+00 0.  1.
         16    1    5    5    0    0  0.20150542056E+03  0.38566457569E+03 -0.13120623679E+04  0.13823347123E+04  0.00000000000E+00 0. -1.
    9900018    1    1    2    0    0 -0.24346396369E+03 -0.51155093703E+03  0.55368016478E+03  0.79739323176E+03  0.91187600000E+02 0.  0.
<mgrwt>
<rscale>  0 0.54236466E+04</rscale>
<asrwt>0</asrwt>
<pdfrwt beam="1">  1        1 0.47294137E+00 0.54236466E+04</pdfrwt>
<pdfrwt beam="2">  1       -1 0.36803469E+00 0.54236466E+04</pdfrwt>
<totfact> 0.43378301E-03</totfact>
</mgrwt>
</event>
<event>
12    1  0.3035299E-009  0.5276835E+04  0.7818608E-02  0.7787166E-01
          1   -1    0    0  501    0  0.00000000000E+00  0.00000000000E+00  0.13493400739E+04  0.13493400739E+04  0.00000000000E+00 0. -1.
         -1   -1    0    0    0  501 -0.00000000000E+00 -0.00000000000E+00 -0.51590006301E+04  0.51590006301E+04  0.00000000000E+00 0.  1.
    9900016    2    1    2    0    0 -0.14087938599E+03  0.25009962310E+03 -0.10186063152E+04  0.24353274974E+04  0.21933682708E+04 0.  0.
        -24    2    3    3    0    0 -0.11284264467E+03  0.11269251684E+04 -0.60825153752E+02  0.11364996224E+04  0.72373302041E+02 0.  0.
    9900016    2    1    2    0    0 -0.48916974274E+02 -0.44946537492E+03 -0.29801590496E+04  0.37268265974E+04  0.21916834928E+04 0.  0.
        -15    1    3    3    0    0 -0.28036741321E+02 -0.87682554526E+03 -0.95778116147E+03  0.12988278750E+04  0.00000000000E+00 0.  1.
        -15    1    5    5    0    0 -0.70595273463E+03  0.75997523283E+02 -0.20434612416E+04  0.21633027372E+04  0.00000000000E+00 0. -1.
         15    1    4    4    0    0 -0.79406036805E+02  0.10000784796E+04 -0.43360555310E+02  0.10041625475E+04  0.00000000000E+00 0. -1.
         15    1    5    5    0    0 -0.93637802875E+02  0.70291779604E+02 -0.49432325385E+03  0.50800044459E+03  0.00000000000E+00 0.  1.
        -16    1    4    4    0    0 -0.33436607867E+02  0.12684668875E+03 -0.17464598442E+02  0.13233707489E+03  0.00000000000E+00 0.  1.
         16    1    5    5    0    0  0.75067356323E+03 -0.59575467781E+03 -0.44237455419E+03  0.10555234156E+04  0.00000000000E+00 0. -1.
    9900018    1    1    2    0    0  0.18979636027E+03  0.19936575182E+03  0.18910480863E+03  0.34618660923E+03  0.91187600000E+02 0.  0.
<mgrwt>
<rscale>  0 0.52768348E+04</rscale>
<asrwt>0</asrwt>
<pdfrwt beam="1">  1        1 0.20759078E+00 0.52768348E+04</pdfrwt>
<pdfrwt beam="2">  1       -1 0.79369240E+00 0.52768348E+04</pdfrwt>
<totfact> 0.45223480E-04</totfact>
</mgrwt>
</event>
<event>
13    1  0.3035299E-009  0.6196589E+04  0.7818608E-02  0.7666494E-01
         -1   -1    0    0    0  501 -0.00000000000E+00  0.00000000000E+00  0.40314638829E+04  0.40314638829E+04  0.00000000000E+00 0.  1.
          1   -1    0    0  501    0  0.00000000000E+00 -0.00000000000E+00 -0.23811270231E+04  0.23811270231E+04  0.00000000000E+00 0. -1.
    9900016    2    1    2    0    0  0.15421368244E+04  0.15533695050E+03  0.20988350269E+04  0.34151943287E+04  0.22036624694E+04 0.  0.
         24    2    3    3    0    0  0.20025493490E+03  0.57663407641E+03  0.18968887210E+04  0.19943070762E+04  0.80405206553E+02 0.  0.
    9900016    2    1    2    0    0 -0.10985440587E+04 -0.16494425028E+03 -0.19686084864E+03  0.24792234783E+04  0.22076660089E+04 0.  0.
         23    2    5    5    0    0  0.53388205324E+02  0.54624212234E+03 -0.81707372384E+03  0.99013046303E+03  0.10732244377E+03 0.  0.
        -15    1    4    4    0    0  0.13805583876E+03  0.27528013852E+03  0.95784721229E+03  0.10061360998E+04  0.00000000000E+00 0.  1.
        -15    1    6    6    0    0  0.38041850623E+02  0.17201704204E+03 -0.18531499658E+03  0.25569257539E+03  0.00000000000E+00 0. -1.
         15    1    3    3    0    0  0.13418818895E+04 -0.42129712592E+03  0.20194630589E+03  0.14208872525E+04  0.00000000000E+00 0. -1.
         15    1    6    6    0    0  0.15346354700E+02  0.37422508029E+03 -0.63175872726E+03  0.73443788764E+03  0.00000000000E+00 0.  1.
        -16    1    5    5    0    0 -0.11519322640E+04 -0.71118637262E+03  0.62021287520E+03  0.14890930152E+04  0.00000000000E+00 0.  1.
         16    1    4    4    0    0  0.62199096141E+02  0.30135393790E+03  0.93904150874E+03  0.98817097640E+03  0.00000000000E+00 0. -1.
    9900018    1    1    2    0    0 -0.44359276576E+03  0.96072997871E+01 -0.25163731853E+03  0.51817309899E+03  0.91187600000E+02 0.  0.
<mgrwt>
<rscale>  0 0.61965886E+04</rscale>
<asrwt>0</asrwt>
<pdfrwt beam="1">  1        1 0.36632723E+00 0.61965886E+04</pdfrwt>
<pdfrwt beam="2">  1       -1 0.62022521E+00 0.61965886E+04</pdfrwt>
<totfact> 0.40787621E-04</totfact>
</mgrwt>
</event>
<event>
12    1  0.3035299E-009  0.5258554E+04  0.7818608E-02  0.7789815E-01
         -1   -1    0    0    0  501 -0.00000000000E+00  0.00000000000E+00  0.22560858903E+04  0.22560858903E+04  0.00000000000E+00 0.  1.
          1   -1    0    0  501    0  0.00000000000E+00 -0.00000000000E+00 -0.30642001916E+04  0.30642001916E+04  0.00000000000E+00 0. -1.
    9900016    2    1    2    0    0 -0.15467653967E+03  0.98087396801E+03 -0.11545086000E+04  0.26748865267E+04  0.21991110136E+04 0.  0.
         24    2    3    3    0    0  0.10119335624E+04  0.56339066616E+03 -0.69694351482E+03  0.13540393573E+04  0.79206950501E+02 0.  0.
    9900016    2    1    2    0    0  0.12423687619E+03 -0.70070796599E+03  0.20873779996E+03  0.23187743084E+04  0.21969789187E+04 0.  0.
        -15    1    4    4    0    0  0.39068052983E+03  0.23458568456E+03 -0.31605846506E+03  0.55457612023E+03  0.00000000000E+00 0.  1.
        -15    1    5    5    0    0  0.24750656528E+03  0.38711640813E+03 -0.41371296450E+03  0.61828555724E+03  0.00000000000E+00 0. -1.
         15    1    5    5    0    0  0.60014413936E+02  0.87998468251E+02 -0.21866054978E+03  0.24322396330E+03  0.00000000000E+00 0.  1.
         15    1    3    3    0    0 -0.11666101021E+04  0.41748330185E+03 -0.45756508519E+03  0.13208471693E+04  0.00000000000E+00 0. -1.
        -16    1    5    5    0    0 -0.18328410302E+03 -0.11758228424E+04  0.84111131423E+03  0.14572647879E+04  0.00000000000E+00 0.  1.
         16    1    4    4    0    0  0.62125303255E+03  0.32880498160E+03 -0.38088504976E+03  0.79946323712E+03  0.00000000000E+00 0. -1.
    9900018    1    1    2    0    0  0.30439663479E+02 -0.28016600202E+03  0.13765649881E+03  0.32662524682E+03  0.91187600000E+02 0.  0.
<mgrwt>
<rscale>  0 0.52585545E+04</rscale>
<asrwt>0</asrwt>
<pdfrwt beam="1">  1        1 0.47141541E+00 0.52585545E+04</pdfrwt>
<pdfrwt beam="2">  1       -1 0.34709014E+00 0.52585545E+04</pdfrwt>
<totfact> 0.61621173E-03</totfact>
</mgrwt>
</event>
<event>
12    1  0.3035299E-009  0.5729519E+04  0.7818608E-02  0.7724873E-01
         -2   -1    0    0    0  501 -0.00000000000E+00  0.00000000000E+00  0.25787253223E+04  0.25787253223E+04  0.00000000000E+00 0.  1.
          2   -1    0    0  501    0  0.00000000000E+00 -0.00000000000E+00 -0.31825212919E+04  0.31825212919E+04  0.00000000000E+00 0. -1.
    9900016    2    1    2    0    0  0.36225136411E+03 -0.18882500271E+03 -0.19631613703E+04  0.29765160161E+04  0.21997190947E+04 0.  0.
        -24    2    3    3    0    0  0.81286201334E+03  0.28046181575E+03 -0.21354640380E+04  0.23034868306E+04  0.80258571041E+02 0.  0.
    9900016    2    1    2    0    0 -0.18101855226E+03  0.11893514232E+03  0.11824131599E+04  0.25065989772E+04  0.21995509241E+04 0.  0.
        -15    1    3    3    0    0 -0.45061064923E+03 -0.46928681846E+03  0.17230266772E+03  0.67302918547E+03  0.00000000000E+00 0.  1.
        -15    1    5    5    0    0  0.13511221219E+03  0.46739128776E+02  0.45514956730E+03  0.47707544965E+03  0.00000000000E+00 0.  1.
         15    1    4    4    0    0  0.43910576258E+03  0.17765690849E+03 -0.12574619675E+04  0.13437211197E+04  0.00000000000E+00 0. -1.
         15    1    5    5    0    0  0.28178243671E+03  0.35863522327E+03  0.11541450854E+04  0.12409961495E+04  0.00000000000E+00 0. -1.
        -16    1    4    4    0    0  0.37375625076E+03  0.10280490726E+03 -0.87800207049E+03  0.95976571086E+03  0.00000000000E+00 0.  1.
         16    1    5    5    0    0 -0.59791320116E+03 -0.28643920973E+03 -0.42688149282E+03  0.78852737803E+03  0.00000000000E+00 0. -1.
    9900018    1    1    2    0    0 -0.18123281185E+03  0.69889860393E+02  0.17695224080E+03  0.27813162099E+03  0.91187600000E+02 0.  0.
<mgrwt>
<rscale>  0 0.57295194E+04</rscale>
<asrwt>0</asrwt>
<pdfrwt beam="1">  1        2 0.48961866E+00 0.57295194E+04</pdfrwt>
<pdfrwt beam="2">  1       -2 0.39672698E+00 0.57295194E+04</pdfrwt>
<totfact> 0.71351798E-03</totfact>
</mgrwt>
</event>
<event>
13    1  0.3035299E-009  0.5911476E+04  0.7818608E-02  0.7701475E-01
         -2   -1    0    0    0  501 -0.00000000000E+00  0.00000000000E+00  0.40405626500E+04  0.40405626500E+04  0.00000000000E+00 0.  1.
          2   -1    0    0  501    0  0.00000000000E+00 -0.00000000000E+00 -0.21621712553E+04  0.21621712553E+04  0.00000000000E+00 0. -1.
    9900016    2    1    2    0    0 -0.50306844256E+03 -0.30319531868E+03  0.21856992218E+04  0.31561882330E+04  0.21998267693E+04 0.  0.
        -24    2    3    3    0    0  0.13031932074E+03  0.41814213483E+03 -0.26919562414E+03  0.52027918965E+03  0.79988629473E+02 0.  0.
    9900016    2    1    2    0    0 -0.20189048928E+03  0.28106722626E+03  0.71161581058E+02  0.22409334708E+04  0.22129076561E+04 0.  0.
         23    2    5    5    0    0 -0.58266486537E+03  0.98786714910E+03  0.58307072555E+03  0.12887747505E+04  0.74759861342E+02 0.  0.
        -15    1    6    6    0    0 -0.56405305533E+03  0.96541248796E+03  0.57958194426E+03  0.12594015846E+04  0.00000000000E+00 0. -1.
        -15    1    3    3    0    0 -0.63338776330E+03 -0.72133745351E+03  0.24548948459E+04  0.26359090434E+04  0.00000000000E+00 0.  1.
         15    1    6    6    0    0 -0.18611810035E+02  0.22454661142E+02  0.34887812898E+01  0.29373165895E+02  0.00000000000E+00 0.  1.
         15    1    4    4    0    0  0.44654564299E+02  0.61641506725E+02 -0.26562877555E+02  0.80618186087E+02  0.00000000000E+00 0. -1.
        -16    1    4    4    0    0  0.85664756441E+02  0.35650062811E+03 -0.24263274658E+03  0.43966100356E+03  0.00000000000E+00 0.  1.
         16    1    5    5    0    0  0.38077437609E+03 -0.70679992284E+03 -0.51190914449E+03  0.95215872029E+03  0.00000000000E+00 0. -1.
    9900018    1    1    2    0    0  0.70495893184E+03  0.22128092418E+02 -0.37846940812E+03  0.80561220158E+03  0.91187600000E+02 0.  0.
<mgrwt>
<rscale>  0 0.59114764E+04</rscale>
<asrwt>0</asrwt>
<pdfrwt beam="1">  1        2 0.33264173E+00 0.59114764E+04</pdfrwt>
<pdfrwt beam="2">  1       -2 0.62162502E+00 0.59114764E+04</pdfrwt>
<totfact> 0.15792918E-03</totfact>
</mgrwt>
</event>
<event>
13    1  0.3035299E-009  0.5412511E+04  0.7818608E-02  0.7767844E-01
         -2   -1    0    0    0  501 -0.00000000000E+00  0.00000000000E+00  0.22500797739E+04  0.22500797739E+04  0.00000000000E+00 0.  1.
          2   -1    0    0  501    0  0.00000000000E+00 -0.00000000000E+00 -0.32549146145E+04  0.32549146145E+04  0.00000000000E+00 0. -1.
    9900016    2    1    2    0    0 -0.22050139150E+03  0.65621203069E+03  0.65460924654E+03  0.23940868550E+04  0.21963386603E+04 0.  0.
         24    2    3    3    0    0  0.34035005092E+03 -0.54617022909E+03 -0.34354250664E+03  0.73379038709E+03  0.79289356251E+02 0.  0.
    9900016    2    1    2    0    0  0.33192808420E+03 -0.31785256491E+03 -0.12938619511E+04  0.25923822085E+04  0.21988997841E+04 0.  0.
         23    2    5    5    0    0  0.23404465186E+03  0.47242731648E+03 -0.16381182044E+04  0.17248363451E+04  0.11689609684E+03 0.  0.
        -15    1    4    4    0    0  0.30425568824E+03 -0.46639947129E+03 -0.26732626074E+03  0.61770811903E+03  0.00000000000E+00 0.  1.
        -15    1    6    6    0    0  0.23122327280E+02  0.15751895493E+03 -0.55106123455E+03  0.57359859431E+03  0.00000000000E+00 0. -1.
         15    1    6    6    0    0  0.21092232458E+03  0.31490836156E+03 -0.10870569698E+04  0.11512377508E+04  0.00000000000E+00 0.  1.
         15    1    3    3    0    0 -0.56085144242E+03  0.12023822598E+04  0.99815175318E+03  0.16602964679E+04  0.00000000000E+00 0. -1.
        -16    1    5    5    0    0  0.97883432342E+02 -0.79027988139E+03  0.34425625328E+03  0.86754586345E+03  0.00000000000E+00 0.  1.
         16    1    4    4    0    0  0.36094362682E+02 -0.79770757798E+02 -0.76216245899E+02  0.11608226805E+03  0.00000000000E+00 0. -1.
    9900018    1    1    2    0    0 -0.11142669270E+03 -0.33835946578E+03 -0.36558213605E+03  0.51852532486E+03  0.91187600000E+02 0.  0.
<mgrwt>
<rscale>  0 0.54125105E+04</rscale>
<asrwt>0</asrwt>
<pdfrwt beam="1">  1        2 0.50075610E+00 0.54125105E+04</pdfrwt>
<pdfrwt beam="2">  1       -2 0.34616612E+00 0.54125105E+04</pdfrwt>
<totfact> 0.13817166E-02</totfact>
</mgrwt>
</event>
<event>
13    1  0.3035299E-009  0.6512130E+04  0.7818608E-02  0.7629956E-01
         -1   -1    0    0    0  501 -0.00000000000E+00  0.00000000000E+00  0.20938375054E+04  0.20938375054E+04  0.00000000000E+00 0.  1.
          1   -1    0    0  501    0  0.00000000000E+00 -0.00000000000E+00 -0.50634100316E+04  0.50634100316E+04  0.00000000000E+00 0. -1.
    9900016    2    1    2    0    0  0.14632343448E+04  0.15654994832E+04 -0.80899218096E+03  0.31697188447E+04  0.21910741260E+04 0.  0.
         24    2    3    3    0    0  0.19116553909E+04  0.13273826552E+04 -0.11096587178E+04  0.25796498446E+04  0.82944581757E+02 0.  0.
    9900016    2    1    2    0    0 -0.14648689576E+04 -0.15373792495E+04 -0.16446521763E+04  0.34628473857E+04  0.21856475508E+04 0.  0.
         23    2    5    5    0    0 -0.41468572065E+03  0.59824634630E+02 -0.14848464456E+04  0.15446495466E+04  0.75033465487E+02 0.  0.
        -15    1    6    6    0    0 -0.35131576592E+03  0.44953415191E+02 -0.11413862704E+04  0.11950758115E+04  0.00000000000E+00 0.  1.
        -15    1    4    4    0    0  0.14756157570E+04  0.10149931694E+04 -0.81585543796E+03  0.19680632845E+04  0.00000000000E+00 0.  1.
         15    1    6    6    0    0 -0.63369954726E+02  0.14871219439E+02 -0.34346017520E+03  0.34957373511E+03  0.00000000000E+00 0. -1.
         15    1    3    3    0    0 -0.44842104617E+03  0.23811682802E+03  0.30066653687E+03  0.59006900005E+03  0.00000000000E+00 0. -1.
        -16    1    5    5    0    0 -0.10501832369E+04 -0.15972038841E+04 -0.15980573067E+03  0.19181978392E+04  0.00000000000E+00 0.  1.
         16    1    4    4    0    0  0.43603963398E+03  0.31238948581E+03 -0.29380327987E+03  0.61158656011E+03  0.00000000000E+00 0. -1.
    9900018    1    1    2    0    0  0.16346127929E+01 -0.28120233730E+02 -0.51592816899E+03  0.52468130656E+03  0.91187600000E+02 0.  0.
<mgrwt>
<rscale>  0 0.65121296E+04</rscale>
<asrwt>0</asrwt>
<pdfrwt beam="1">  1        1 0.77898614E+00 0.65121296E+04</pdfrwt>
<pdfrwt beam="2">  1       -1 0.32212885E+00 0.65121296E+04</pdfrwt>
<totfact> 0.10668947E-04</totfact>
</mgrwt>
</event>
<event>
13    1  0.3035299E-009  0.6134008E+04  0.7818608E-02  0.7674005E-01
         -2   -1    0    0    0  501 -0.00000000000E+00  0.00000000000E+00  0.25686571887E+04  0.25686571887E+04  0.00000000000E+00 0.  1.
          2   -1    0    0  501    0  0.00000000000E+00 -0.00000000000E+00 -0.36620355303E+04  0.36620355303E+04  0.00000000000E+00 0. -1.
    9900016    2    1    2    0    0  0.50100586000E+03  0.11517294372E+04  0.78360740810E+03  0.26472263996E+04  0.21946023495E+04 0.  0.
        -24    2    3    3    0    0 -0.26860628309E+03 -0.37327489900E+03  0.81424872571E+03  0.93875340698E+03  0.82301192275E+02 0.  0.
    9900016    2    1    2    0    0 -0.84074153618E+02 -0.48377230392E+03 -0.12903833071E+04  0.25973545692E+04  0.22000130849E+04 0.  0.
         23    2    5    5    0    0  0.62745868394E+02 -0.48986591762E+03 -0.19015586374E+04  0.19687620658E+04  0.12725234413E+03 0.  0.
        -15    1    6    6    0    0  0.42769199854E+02 -0.18053567194E+03 -0.49942509135E+03  0.53277364346E+03  0.00000000000E+00 0. -1.
        -15    1    3    3    0    0  0.76961214308E+03  0.15250043362E+04 -0.30641317609E+02  0.17084729927E+04  0.00000000000E+00 0.  1.
         15    1    6    6    0    0  0.19976668540E+02 -0.30933024568E+03 -0.14021335461E+04  0.14359884224E+04  0.00000000000E+00 0.  1.
         15    1    4    4    0    0 -0.17214286106E+03 -0.17260620043E+03  0.45214998713E+03  0.51367857256E+03  0.00000000000E+00 0. -1.
        -16    1    4    4    0    0 -0.96463422024E+02 -0.20066869858E+03  0.36209873858E+03  0.42507483443E+03  0.00000000000E+00 0.  1.
         16    1    5    5    0    0 -0.14682002201E+03  0.60936137001E+01  0.61117533030E+03  0.62859250342E+03  0.00000000000E+00 0. -1.
    9900018    1    1    2    0    0 -0.41693170638E+03 -0.66795713330E+03 -0.58660244263E+03  0.98611175016E+03  0.91187600000E+02 0.  0.
<mgrwt>
<rscale>  0 0.61340081E+04</rscale>
<asrwt>0</asrwt>
<pdfrwt beam="1">  1        2 0.56339008E+00 0.61340081E+04</pdfrwt>
<pdfrwt beam="2">  1       -2 0.39517803E+00 0.61340081E+04</pdfrwt>
<totfact> 0.33032761E-03</totfact>
</mgrwt>
</event>
<event>
13    1  0.3035299E-009  0.6182897E+04  0.7818608E-02  0.7668129E-01
         -2   -1    0    0    0  501 -0.00000000000E+00  0.00000000000E+00  0.46304269461E+04  0.46304269461E+04  0.00000000000E+00 0.  1.
          2   -1    0    0  501    0  0.00000000000E+00 -0.00000000000E+00 -0.20639679374E+04  0.20639679374E+04  0.00000000000E+00 0. -1.
    9900016    2    1    2    0    0  0.43084325000E+03 -0.10342600747E+04  0.26222252788E+04  0.36035380526E+04  0.22032025044E+04 0.  0.
         24    2    3    3    0    0  0.90985050398E+03  0.14916850712E+03  0.19550683190E+04  0.21630348188E+04  0.79676295837E+02 0.  0.
    9900016    2    1    2    0    0 -0.87409604150E+03  0.67515268889E+03  0.17219752562E+03  0.24697982006E+04  0.22023569468E+04 0.  0.
         23    2    5    5    0    0  0.16757589498E+03  0.23794700065E+03 -0.87574925063E+03  0.92888234216E+03  0.10576010542E+03 0.  0.
        -15    1    6    6    0    0  0.10710572546E+03  0.63381429053E+02 -0.37750110810E+03  0.39748701688E+03  0.00000000000E+00 0. -1.
        -15    1    4    4    0    0  0.23172064972E+03  0.28451362279E+02  0.57623744232E+03  0.62173429169E+03  0.00000000000E+00 0.  1.
         15    1    3    3    0    0 -0.47900725397E+03 -0.11834285818E+04  0.66715695982E+03  0.14405032338E+04  0.00000000000E+00 0. -1.
         15    1    6    6    0    0  0.60470169523E+02  0.17456557160E+03 -0.49824814253E+03  0.53139532528E+03  0.00000000000E+00 0.  1.
        -16    1    5    5    0    0 -0.10416719365E+04  0.43720568824E+03  0.10479467763E+04  0.15409158585E+04  0.00000000000E+00 0.  1.
         16    1    4    4    0    0  0.67812985425E+03  0.12071714484E+03  0.13788308767E+04  0.15413005271E+04  0.00000000000E+00 0. -1.
    9900018    1    1    2    0    0  0.44325279150E+03  0.35910738576E+03 -0.22796379581E+03  0.62105863030E+03  0.91187600000E+02 0.  0.
<mgrwt>
<rscale>  0 0.61828967E+04</rscale>
<asrwt>0</asrwt>
<pdfrwt beam="1">  1        2 0.31753353E+00 0.61828967E+04</pdfrwt>
<pdfrwt beam="2">  1       -2 0.71237337E+00 0.61828967E+04</pdfrwt>
<totfact> 0.85274922E-04</totfact>
</mgrwt>
</event>
<event>
13    1  0.3035299E-009  0.6673481E+04  0.7818608E-02  0.7612080E-01
         -2   -1    0    0    0  501 -0.00000000000E+00  0.00000000000E+00  0.30902260308E+04  0.30902260308E+04  0.00000000000E+00 0.  1.
          2   -1    0    0  501    0  0.00000000000E+00 -0.00000000000E+00 -0.36029204718E+04  0.36029204718E+04  0.00000000000E+00 0. -1.
    9900016    2    1    2    0    0 -0.12885945729E+03  0.10920375873E+04 -0.18482111680E+04  0.30761046457E+04  0.21994054693E+04 0.  0.
         24    2    3    3    0    0 -0.24631946006E+03 -0.25732349275E+03  0.34249968591E+03  0.50049088940E+03  0.79350105235E+02 0.  0.
    9900016    2    1    2    0    0  0.17417417506E+03 -0.26587512390E+03  0.23479848623E+03  0.22370079212E+04  0.22018283052E+04 0.  0.
         23    2    5    5    0    0 -0.17279899210E+02  0.28144153059E+03 -0.90912100559E+03  0.95452517800E+03  0.71479945290E+02 0.  0.
        -15    1    4    4    0    0 -0.19757954321E+03 -0.17685422826E+03  0.21137904112E+03  0.33911088595E+03  0.00000000000E+00 0.  1.
        -15    1    6    6    0    0 -0.30190684678E+02  0.10724415040E+03 -0.27303516998E+03  0.29489148730E+03  0.00000000000E+00 0. -1.
         15    1    6    6    0    0  0.12910785468E+02  0.17419738020E+03 -0.63608583560E+03  0.65963369070E+03  0.00000000000E+00 0.  1.
         15    1    3    3    0    0  0.11746000277E+03  0.13493610800E+04 -0.21907108539E+04  0.25756137563E+04  0.00000000000E+00 0. -1.
        -16    1    5    5    0    0  0.19145407427E+03 -0.54731665450E+03  0.11439194918E+04  0.12824827432E+04  0.00000000000E+00 0.  1.
         16    1    4    4    0    0 -0.48739916851E+02 -0.80469264486E+02  0.13112064480E+03  0.16138000345E+03  0.00000000000E+00 0. -1.
    9900018    1    1    2    0    0 -0.45314717766E+02 -0.82616246338E+03  0.11007182408E+04  0.13800339356E+04  0.91187600000E+02 0.  0.
<mgrwt>
<rscale>  0 0.66734814E+04</rscale>
<asrwt>0</asrwt>
<pdfrwt beam="1">  1        2 0.55429546E+00 0.66734814E+04</pdfrwt>
<pdfrwt beam="2">  1       -2 0.47541939E+00 0.66734814E+04</pdfrwt>
<totfact> 0.10452568E-03</totfact>
</mgrwt>
</event>
<event>
13    1  0.3035299E-009  0.6862962E+04  0.7818608E-02  0.7591736E-01
          2   -1    0    0  501    0  0.00000000000E+00  0.00000000000E+00  0.26820888712E+04  0.26820888712E+04  0.00000000000E+00 0. -1.
         -2   -1    0    0    0  501 -0.00000000000E+00 -0.00000000000E+00 -0.43902583354E+04  0.43902583354E+04  0.00000000000E+00 0.  1.
    9900016    2    1    2    0    0 -0.19292413164E+04 -0.45217006004E+03 -0.18268097450E+04  0.34801972972E+04  0.22018423111E+04 0.  0.
        -24    2    3    3    0    0  0.26584804252E+03 -0.33017085226E+03 -0.10723744384E+04  0.11558750881E+04  0.79826747406E+02 0.  0.
    9900016    2    1    2    0    0  0.19823452076E+04  0.25791491096E+01 -0.28466854974E+03  0.29790225151E+04  0.22054114783E+04 0.  0.
         23    2    5    5    0    0 -0.29819298369E+02 -0.20447982116E+03  0.69356610084E+03  0.73210853196E+03  0.11066968198E+03 0.  0.
        -15    1    6    6    0    0  0.95710150333E+01 -0.73332157905E+02  0.41690415781E+03  0.42341266692E+03  0.00000000000E+00 0. -1.
        -15    1    3    3    0    0 -0.21950893589E+04 -0.12199920778E+03 -0.75443530658E+03  0.23243222092E+04  0.00000000000E+00 0.  1.
         15    1    4    4    0    0  0.61139101753E+02 -0.42813661296E+02 -0.13432415174E+03  0.15366839981E+03  0.00000000000E+00 0. -1.
         15    1    6    6    0    0 -0.39390313402E+02 -0.13114766325E+03  0.27666194304E+03  0.30869586504E+03  0.00000000000E+00 0.  1.
        -16    1    4    4    0    0  0.20470894077E+03 -0.28735719096E+03 -0.93805028668E+03  0.10022066882E+04  0.00000000000E+00 0.  1.
         16    1    5    5    0    0  0.20121645060E+04  0.20705897027E+03 -0.97823465059E+03  0.22469139832E+04  0.00000000000E+00 0. -1.
    9900018    1    1    2    0    0 -0.53103891232E+02  0.44959091093E+03  0.40330883053E+03  0.61312739429E+03  0.91187600000E+02 0.  0.
<mgrwt>
<rscale>  0 0.68629623E+04</rscale>
<asrwt>0</asrwt>
<pdfrwt beam="1">  1        2 0.41262906E+00 0.68629623E+04</pdfrwt>
<pdfrwt beam="2">  1       -2 0.67542436E+00 0.68629623E+04</pdfrwt>
<totfact> 0.48701933E-04</totfact>
</mgrwt>
</event>
<event>
13    1  0.3035299E-009  0.6435877E+04  0.7818608E-02  0.7638588E-01
         -1   -1    0    0    0  501 -0.00000000000E+00  0.00000000000E+00  0.22191216784E+04  0.22191216784E+04  0.00000000000E+00 0.  1.
          1   -1    0    0  501    0  0.00000000000E+00 -0.00000000000E+00 -0.46663180478E+04  0.46663180478E+04  0.00000000000E+00 0. -1.
    9900016    2    1    2    0    0  0.25914906236E+03  0.15144910829E+04 -0.20127342637E+04  0.33529130418E+04  0.21977454749E+04 0.  0.
         24    2    3    3    0    0  0.87155927324E+03 -0.79109653436E+02 -0.28448271853E+03  0.92362035111E+03  0.79184795343E+02 0.  0.
    9900016    2    1    2    0    0 -0.39125974488E+03 -0.42150050532E+03 -0.73176613205E+03  0.23885046140E+04  0.21997103799E+04 0.  0.
         23    2    5    5    0    0  0.70683758252E+02  0.86316986293E+03 -0.49203835879E+03  0.10024168966E+04  0.11260320643E+03 0.  0.
        -15    1    6    6    0    0  0.24758461231E+02  0.68823651707E+02 -0.14888016297E+02  0.74641338855E+02  0.00000000000E+00 0. -1.
        -15    1    4    4    0    0  0.51862298779E+03 -0.16796815444E+02 -0.14230988458E+03  0.53805579611E+03  0.00000000000E+00 0.  1.
         15    1    6    6    0    0  0.45925297021E+02  0.79434621122E+03 -0.47715034250E+03  0.92777555774E+03  0.00000000000E+00 0.  1.
         15    1    3    3    0    0 -0.61241021088E+03  0.15936007364E+04 -0.17282515452E+04  0.24292926906E+04  0.00000000000E+00 0. -1.
        -16    1    5    5    0    0 -0.46194350313E+03 -0.12846703682E+04 -0.23972777326E+03  0.13860877174E+04  0.00000000000E+00 0.  1.
         16    1    4    4    0    0  0.35293628544E+03 -0.62312837992E+02 -0.14217283395E+03  0.38556455501E+03  0.00000000000E+00 0. -1.
    9900018    1    1    2    0    0  0.13211068252E+03 -0.10929905776E+04  0.29730402630E+03  0.11440220704E+04  0.91187600000E+02 0.  0.
<mgrwt>
<rscale>  0 0.64358768E+04</rscale>
<asrwt>0</asrwt>
<pdfrwt beam="1">  1        1 0.71789507E+00 0.64358768E+04</pdfrwt>
<pdfrwt beam="2">  1       -1 0.34140334E+00 0.64358768E+04</pdfrwt>
<totfact> 0.24278695E-04</totfact>
</mgrwt>
</event>
<event>
13    1  0.3035299E-009  0.5901220E+04  0.7818608E-02  0.7702771E-01
          1   -1    0    0  501    0  0.00000000000E+00  0.00000000000E+00  0.28666829897E+04  0.28666829897E+04  0.00000000000E+00 0. -1.
         -1   -1    0    0    0  501 -0.00000000000E+00 -0.00000000000E+00 -0.30369938635E+04  0.30369938635E+04  0.00000000000E+00 0.  1.
    9900016    2    1    2    0    0  0.11360967724E+04 -0.65837554857E+03 -0.13926767891E+04  0.29195042779E+04  0.22044914040E+04 0.  0.
         24    2    3    3    0    0  0.62906180121E+03 -0.14737679358E+04 -0.82701846824E+03  0.18050902869E+04  0.81735664041E+02 0.  0.
    9900016    2    1    2    0    0 -0.10671130607E+04  0.55728071860E+03  0.12889902300E+04  0.28176406120E+04  0.21973417398E+04 0.  0.
         23    2    5    5    0    0 -0.32517098772E+03  0.45096907086E+03 -0.57532319070E+03  0.80830123375E+03  0.11508621377E+03 0.  0.
        -15    1    4    4    0    0  0.93418900485E+02 -0.21947600337E+03 -0.91090285142E+02  0.25533164134E+03  0.00000000000E+00 0.  1.
        -15    1    6    6    0    0 -0.32974848796E+03  0.42757217558E+03 -0.56720155975E+03  0.78311534273E+03  0.00000000000E+00 0. -1.
         15    1    3    3    0    0  0.50703497121E+03  0.81539238725E+03 -0.56565832086E+03  0.11144139909E+04  0.00000000000E+00 0. -1.
         15    1    6    6    0    0  0.45775002413E+01  0.23396895278E+02 -0.81216309569E+01  0.25185891020E+02  0.00000000000E+00 0.  1.
        -16    1    5    5    0    0 -0.74194207297E+03  0.10631164774E+03  0.18643134207E+04  0.20093393782E+04  0.00000000000E+00 0.  1.
         16    1    4    4    0    0  0.53564290073E+03 -0.12542919325E+04 -0.73592818310E+03  0.15497586456E+04  0.00000000000E+00 0. -1.
    9900018    1    1    2    0    0 -0.68983711737E+02  0.10109482997E+03 -0.66624314775E+02  0.16653196343E+03  0.91187600000E+02 0.  0.
<mgrwt>
<rscale>  0 0.59012198E+04</rscale>
<asrwt>0</asrwt>
<pdfrwt beam="1">  1        1 0.44102815E+00 0.59012198E+04</pdfrwt>
<pdfrwt beam="2">  1       -1 0.46722983E+00 0.59012198E+04</pdfrwt>
<totfact> 0.12455326E-03</totfact>
</mgrwt>
</event>
<event>
13    1  0.3954602E-009  0.5929405E+04  0.7818608E-02  0.7699217E-01
          2   -1    0    0  501    0  0.00000000000E+00  0.00000000000E+00  0.21213268316E+04  0.21213268316E+04  0.00000000000E+00 0. -1.
         -2   -1    0    0    0  501 -0.00000000000E+00 -0.00000000000E+00 -0.41433794592E+04  0.41433794592E+04  0.00000000000E+00 0.  1.
    9900016    2    1    2    0    0 -0.90831206560E+02  0.65771280616E+03 -0.23989250324E+04  0.33238923993E+04  0.22028579001E+04 0.  0.
        -24    2    3    3    0    0  0.46053752711E+03 -0.69619044426E+03 -0.84477189471E+03  0.11902444745E+04  0.79160636391E+02 0.  0.
    9900016    2    1    2    0    0  0.28247816811E+02 -0.97730945569E+02 -0.86201758687E+02  0.22057974126E+04  0.22017634308E+04 0.  0.
         23    2    5    5    0    0 -0.19571468474E+03 -0.12622615277E+03 -0.11206834068E+04  0.11469662367E+04  0.73232304470E+02 0.  0.
        -15    1    6    6    0    0 -0.96135125407E+02 -0.10301123483E+03 -0.69939135046E+03  0.71344343710E+03  0.00000000000E+00 0.  1.
        -15    1    3    3    0    0 -0.55136873367E+03  0.13539032504E+04 -0.15541531377E+04  0.21336479249E+04  0.00000000000E+00 0.  1.
         15    1    4    4    0    0  0.36811664859E+03 -0.60363680148E+03 -0.72948914707E+03  0.10158945175E+04  0.00000000000E+00 0. -1.
         15    1    6    6    0    0 -0.99579559333E+02 -0.23214917938E+02 -0.42129205629E+03  0.43352279957E+03  0.00000000000E+00 0. -1.
        -16    1    4    4    0    0  0.92420878521E+02 -0.92553642785E+02 -0.11528274764E+03  0.17434995694E+03  0.00000000000E+00 0.  1.
         16    1    5    5    0    0  0.22396250155E+03  0.28495207202E+02  0.10344816481E+04  0.10588311759E+04  0.00000000000E+00 0. -1.
    9900018    1    1    2    0    0  0.62583389749E+02 -0.55998186060E+03  0.46307416353E+03  0.73501647885E+03  0.91187600000E+02 0.  0.
<mgrwt>
<rscale>  0 0.59294054E+04</rscale>
<asrwt>0</asrwt>
<pdfrwt beam="1">  1        2 0.32635798E+00 0.59294054E+04</pdfrwt>
<pdfrwt beam="2">  1       -2 0.63744299E+00 0.59294054E+04</pdfrwt>
<totfact> 0.14632767E-03</totfact>
</mgrwt>
</event>
<event>
12    1  0.3035299E-009  0.5633210E+04  0.7818608E-02  0.7737621E-01
          2   -1    0    0  501    0  0.00000000000E+00  0.00000000000E+00  0.36766315447E+04  0.36766315447E+04  0.00000000000E+00 0. -1.
         -2   -1    0    0    0  501 -0.00000000000E+00 -0.00000000000E+00 -0.21577533803E+04  0.21577533803E+04  0.00000000000E+00 0.  1.
    9900016    2    1    2    0    0 -0.44787449773E+02 -0.15418455617E+04  0.71787041008E+03  0.27825351434E+04  0.22017879659E+04 0.  0.
        -24    2    3    3    0    0  0.12506053831E+03 -0.66668373178E+03  0.14669589545E+04  0.16181081534E+04  0.78727921513E+02 0.  0.
    9900016    2    1    2    0    0  0.88439758309E+02  0.10974816564E+04  0.81194548829E+03  0.25959993491E+04  0.22062795760E+04 0.  0.
        -15    1    3    3    0    0 -0.16984798808E+03 -0.87516182995E+03 -0.74908854440E+03  0.11644269900E+04  0.00000000000E+00 0.  1.
        -15    1    5    5    0    0 -0.99386022987E+02  0.42604781617E+02  0.14228577512E+03  0.17871203312E+03  0.00000000000E+00 0. -1.
         15    1    4    4    0    0  0.38664040706E+02 -0.13318169738E+03  0.37259621662E+03  0.39756787245E+03  0.00000000000E+00 0. -1.
         15    1    5    5    0    0 -0.68492720956E+03 -0.50516489515E+02  0.73684856849E+03  0.10072849701E+04  0.00000000000E+00 0.  1.
        -16    1    4    4    0    0  0.86396497603E+02 -0.53350203440E+03  0.10943627379E+04  0.12205402810E+04  0.00000000000E+00 0.  1.
         16    1    5    5    0    0  0.87275299086E+03  0.11053933643E+04 -0.67188855325E+02  0.14100023458E+04  0.00000000000E+00 0. -1.
    9900018    1    1    2    0    0 -0.43652308536E+02  0.44436390528E+03 -0.10937733991E+02  0.45585043246E+03  0.91187600000E+02 0.  0.
<mgrwt>
<rscale>  0 0.56332101E+04</rscale>
<asrwt>0</asrwt>
<pdfrwt beam="1">  1        2 0.56563562E+00 0.56332101E+04</pdfrwt>
<pdfrwt beam="2">  1       -2 0.33196206E+00 0.56332101E+04</pdfrwt>
<totfact> 0.84630714E-03</totfact>
</mgrwt>
</event>
<event>
13    1  0.3035299E-009  0.6632109E+04  0.7818608E-02  0.7616614E-01
         -2   -1    0    0    0  501 -0.00000000000E+00  0.00000000000E+00  0.29796858815E+04  0.29796858815E+04  0.00000000000E+00 0.  1.
          2   -1    0    0  501    0  0.00000000000E+00 -0.00000000000E+00 -0.36903951494E+04  0.36903951494E+04  0.00000000000E+00 0. -1.
    9900016    2    1    2    0    0  0.49503547397E+03 -0.10614711666E+04 -0.19315015475E+04  0.31547424099E+04  0.22022534565E+04 0.  0.
         24    2    3    3    0    0 -0.52484171561E+03 -0.11532803114E+03  0.22536447611E+03  0.58814790383E+03  0.79808699277E+02 0.  0.
    9900016    2    1    2    0    0  0.11354108760E+03  0.15060220030E+03  0.73358930384E+03  0.23129536481E+04  0.21854127094E+04 0.  0.
         23    2    5    5    0    0 -0.19763897327E+03  0.84638965082E+02 -0.75273421178E+03  0.79297280224E+03  0.12638098489E+03 0.  0.
        -15    1    6    6    0    0 -0.18826762372E+03  0.46221623545E+02 -0.70405298651E+03  0.73025457509E+03  0.00000000000E+00 0.  1.
        -15    1    4    4    0    0 -0.47682097462E+02 -0.12900969323E+02  0.48031662395E+02  0.68898897090E+02  0.00000000000E+00 0.  1.
         15    1    3    3    0    0  0.10198771896E+04 -0.94614313542E+03 -0.21568660236E+04  0.25665945061E+04  0.00000000000E+00 0. -1.
         15    1    6    6    0    0 -0.93713495513E+01  0.38417341537E+02 -0.48681225270E+02  0.62718227151E+02  0.00000000000E+00 0. -1.
        -16    1    5    5    0    0  0.31118006088E+03  0.65963235214E+02  0.14863235156E+04  0.15199808459E+04  0.00000000000E+00 0.  1.
         16    1    4    4    0    0 -0.47715961815E+03 -0.10242706182E+03  0.17733281372E+03  0.51924900674E+03  0.00000000000E+00 0. -1.
    9900018    1    1    2    0    0 -0.60857656157E+03  0.91086896626E+03  0.48720297577E+03  0.12023849729E+04  0.91187600000E+02 0.  0.
<mgrwt>
<rscale>  0 0.66321093E+04</rscale>
<asrwt>0</asrwt>
<pdfrwt beam="1">  1        2 0.56775310E+00 0.66321093E+04</pdfrwt>
<pdfrwt beam="2">  1       -2 0.45841321E+00 0.66321093E+04</pdfrwt>
<totfact> 0.11660962E-03</totfact>
</mgrwt>
</event>
<event>
13    1  0.3035299E-009  0.7345401E+04  0.7818608E-02  0.7542826E-01
         -1   -1    0    0    0  501 -0.00000000000E+00  0.00000000000E+00  0.59552201829E+04  0.59552201829E+04  0.00000000000E+00 0.  1.
          1   -1    0    0  501    0  0.00000000000E+00 -0.00000000000E+00 -0.22650262627E+04  0.22650262627E+04  0.00000000000E+00 0. -1.
    9900016    2    1    2    0    0  0.39144574625E+03 -0.34583286882E+03  0.36568553921E+04  0.43000177641E+04  0.22010750254E+04 0.  0.
         24    2    3    3    0    0  0.11380672633E+04 -0.65063905228E+03  0.29433097718E+04  0.32232179445E+04  0.86794199647E+02 0.  0.
    9900016    2    1    2    0    0 -0.15015844719E+04  0.78066909122E+02  0.44142831429E+03  0.27041040779E+04  0.22037398982E+04 0.  0.
         23    2    5    5    0    0 -0.14236065798E+03  0.48036222777E+03 -0.71141429669E+03  0.87698148060E+03  0.10941567054E+03 0.  0.
        -15    1    6    6    0    0 -0.71442148615E+02  0.21998839891E+03 -0.23684108377E+03  0.33104769327E+03  0.00000000000E+00 0. -1.
        -15    1    4    4    0    0  0.31487226365E+02 -0.11280567243E+02  0.49218410562E+02  0.59507550444E+02  0.00000000000E+00 0.  1.
         15    1    6    6    0    0 -0.70918509360E+02  0.26037382886E+03 -0.47457321292E+03  0.54593378733E+03  0.00000000000E+00 0.  1.
         15    1    3    3    0    0 -0.74662151704E+03  0.30480618346E+03  0.71354562033E+03  0.10767998196E+04  0.00000000000E+00 0. -1.
        -16    1    5    5    0    0 -0.13592238140E+04 -0.40229531865E+03  0.11528426110E+04  0.18271225973E+04  0.00000000000E+00 0.  1.
         16    1    4    4    0    0  0.11065800369E+04 -0.63935848504E+03  0.28940913612E+04  0.31637103941E+04  0.00000000000E+00 0. -1.
    9900018    1    1    2    0    0  0.11101387257E+04  0.26776595970E+03 -0.40808978627E+03  0.12161246036E+04  0.91187600000E+02 0.  0.
<mgrwt>
<rscale>  0 0.73454013E+04</rscale>
<asrwt>0</asrwt>
<pdfrwt beam="1">  1        1 0.34846558E+00 0.73454013E+04</pdfrwt>
<pdfrwt beam="2">  1       -1 0.91618772E+00 0.73454013E+04</pdfrwt>
<totfact> 0.50328727E-06</totfact>
</mgrwt>
</event>
<event>
13    1  0.3035299E-009  0.5513639E+04  0.7818608E-02  0.7753815E-01
         -1   -1    0    0    0  501 -0.00000000000E+00  0.00000000000E+00  0.19973805820E+04  0.19973805820E+04  0.00000000000E+00 0.  1.
          1   -1    0    0  501    0  0.00000000000E+00 -0.00000000000E+00 -0.38050101996E+04  0.38050101996E+04  0.00000000000E+00 0. -1.
    9900016    2    1    2    0    0  0.26347669435E+03  0.81754897303E+03 -0.20678129616E+04  0.31410062376E+04  0.22027853841E+04 0.  0.
        -24    2    3    3    0    0  0.10903409959E+04  0.22573330398E+03 -0.17498467001E+04  0.20756176217E+04  0.80162497146E+02 0.  0.
    9900016    2    1    2    0    0 -0.19759524903E+03 -0.52559227388E+03  0.20796538337E+02  0.22674298512E+04  0.21967053769E+04 0.  0.
         23    2    5    5    0    0  0.31889022851E+03  0.34805152351E+03  0.83775612480E+03  0.96457387325E+03  0.75740289544E+02 0.  0.
        -15    1    6    6    0    0  0.28598491415E+03  0.26977940184E+03  0.69292221451E+03  0.79668657083E+03  0.00000000000E+00 0. -1.
        -15    1    3    3    0    0 -0.82686430153E+03  0.59181566905E+03 -0.31796626146E+03  0.10653886158E+04  0.00000000000E+00 0.  1.
         15    1    6    6    0    0  0.32905314355E+02  0.78272121674E+02  0.14483391030E+03  0.16788730243E+03  0.00000000000E+00 0.  1.
         15    1    4    4    0    0  0.52318980822E+03  0.12460673797E+03 -0.91331114780E+03  0.10599017253E+04  0.00000000000E+00 0. -1.
        -16    1    4    4    0    0  0.56715118766E+03  0.10112656601E+03 -0.83653555232E+03  0.10157158965E+04  0.00000000000E+00 0.  1.
         16    1    5    5    0    0 -0.51648547754E+03 -0.87364379740E+03 -0.81695958646E+03  0.13028559779E+04  0.00000000000E+00 0. -1.
    9900018    1    1    2    0    0 -0.65881445319E+02 -0.29195669915E+03  0.23938680564E+03  0.39395469298E+03  0.91187600000E+02 0.  0.
<mgrwt>
<rscale>  0 0.55136389E+04</rscale>
<asrwt>0</asrwt>
<pdfrwt beam="1">  1        1 0.58538618E+00 0.55136389E+04</pdfrwt>
<pdfrwt beam="2">  1       -1 0.30728932E+00 0.55136389E+04</pdfrwt>
<totfact> 0.28916563E-03</totfact>
</mgrwt>
</event>
<event>
13    1  0.3035299E-009  0.6810469E+04  0.7818608E-02  0.7597304E-01
          2   -1    0    0  501    0  0.00000000000E+00  0.00000000000E+00  0.47256842752E+04  0.47256842752E+04  0.00000000000E+00 0. -1.
         -2   -1    0    0    0  501 -0.00000000000E+00 -0.00000000000E+00 -0.24537446660E+04  0.24537446660E+04  0.00000000000E+00 0.  1.
    9900016    2    1    2    0    0 -0.15479448521E+04 -0.19262088358E+04  0.88439734833E+03  0.34292054196E+04  0.22070064330E+04 0.  0.
        -24    2    3    3    0    0  0.67415700242E+02  0.34005168314E+03 -0.23844936820E+03  0.42818705861E+03  0.79410529035E+02 0.  0.
    9900016    2    1    2    0    0  0.13268088748E+04  0.14099609598E+04  0.11804687335E+04  0.31447422138E+04  0.21788725209E+04 0.  0.
         23    2    5    5    0    0  0.52601984804E+03 -0.16815518458E+03 -0.46409106534E+03  0.72890062911E+03  0.10460670896E+03 0.  0.
        -15    1    3    3    0    0 -0.16153605524E+04 -0.22662605190E+04  0.11228467165E+04  0.30010183610E+04  0.00000000000E+00 0.  1.
        -15    1    6    6    0    0  0.40428891215E+03 -0.13732574693E+03 -0.41073229488E+03  0.59246004364E+03  0.00000000000E+00 0.  1.
         15    1    4    4    0    0  0.37312103103E+02  0.28551508873E+03 -0.16495749256E+03  0.33184640014E+03  0.00000000000E+00 0. -1.
         15    1    6    6    0    0  0.12173093588E+03 -0.30829437643E+02 -0.53358770462E+02  0.13644058546E+03  0.00000000000E+00 0. -1.
        -16    1    4    4    0    0  0.30103597140E+02  0.54536594409E+02 -0.73491875640E+02  0.96340658476E+02  0.00000000000E+00 0.  1.
         16    1    5    5    0    0  0.80078902679E+03  0.15781161444E+04  0.16445597988E+04  0.24158415847E+04  0.00000000000E+00 0. -1.
    9900018    1    1    2    0    0  0.22113597732E+03  0.51624787605E+03  0.20707352733E+03  0.60548130781E+03  0.91187600000E+02 0.  0.
<mgrwt>
<rscale>  0 0.68104692E+04</rscale>
<asrwt>0</asrwt>
<pdfrwt beam="1">  1        2 0.72702835E+00 0.68104692E+04</pdfrwt>
<pdfrwt beam="2">  1       -2 0.37749918E+00 0.68104692E+04</pdfrwt>
<totfact> 0.46526990E-04</totfact>
</mgrwt>
</event>
<event>
12    1  0.3035299E-009  0.5663406E+04  0.7818608E-02  0.7733596E-01
         -2   -1    0    0    0  501 -0.00000000000E+00  0.00000000000E+00  0.22748806065E+04  0.22748806065E+04  0.00000000000E+00 0.  1.
          2   -1    0    0  501    0  0.00000000000E+00 -0.00000000000E+00 -0.35248185051E+04  0.35248185051E+04  0.00000000000E+00 0. -1.
    9900016    2    1    2    0    0  0.86931206245E+03  0.38045685302E+03  0.48658871325E+03  0.24454853278E+04  0.22007223891E+04 0.  0.
        -24    2    3    3    0    0  0.27036758789E+03  0.87246481608E+03 -0.61105204327E+03  0.11017511466E+04  0.78597084176E+02 0.  0.
    9900016    2    1    2    0    0 -0.46303772885E+03 -0.41118606588E+03 -0.96594522693E+03  0.24777926705E+04  0.21961166675E+04 0.  0.
        -15    1    3    3    0    0  0.59894447456E+03 -0.49200796306E+03  0.10976407565E+04  0.13437341812E+04  0.00000000000E+00 0.  1.
        -15    1    5    5    0    0 -0.23580823638E+03  0.12594938382E+03 -0.13189758617E+03  0.29810358077E+03  0.00000000000E+00 0.  1.
         15    1    5    5    0    0 -0.87188151789E+03  0.12635547597E+03 -0.89079149520E+03  0.12528577635E+04  0.00000000000E+00 0. -1.
         15    1    4    4    0    0  0.99723332695E+02  0.43326624961E+03 -0.32229495156E+03  0.54912514233E+03  0.00000000000E+00 0. -1.
        -16    1    4    4    0    0  0.17064425520E+03  0.43919856647E+03 -0.28875709171E+03  0.55262600430E+03  0.00000000000E+00 0.  1.
         16    1    5    5    0    0  0.64465202543E+03 -0.66349092566E+03  0.56743854434E+02  0.92683132627E+03  0.00000000000E+00 0. -1.
    9900018    1    1    2    0    0 -0.40627433361E+03  0.30729212855E+02 -0.77058138487E+03  0.87642111326E+03  0.91187600000E+02 0.  0.
<mgrwt>
<rscale>  0 0.56634058E+04</rscale>
<asrwt>0</asrwt>
<pdfrwt beam="1">  1        2 0.54227977E+00 0.56634058E+04</pdfrwt>
<pdfrwt beam="2">  1       -2 0.34998163E+00 0.56634058E+04</pdfrwt>
<totfact> 0.83789646E-03</totfact>
</mgrwt>
</event>
<event>
13    1  0.3035299E-009  0.5690920E+04  0.7818608E-02  0.7729951E-01
          2   -1    0    0  501    0  0.00000000000E+00  0.00000000000E+00  0.33205318036E+04  0.33205318036E+04  0.00000000000E+00 0. -1.
         -2   -1    0    0    0  501 -0.00000000000E+00 -0.00000000000E+00 -0.24383569339E+04  0.24383569339E+04  0.00000000000E+00 0.  1.
    9900016    2    1    2    0    0  0.42714486423E+03  0.61603882419E+03  0.34724893373E+03  0.23482510802E+04  0.21981230052E+04 0.  0.
        -24    2    3    3    0    0 -0.74058908111E+03  0.77921475723E+03 -0.11015093326E+03  0.10835599754E+04  0.79505769032E+02 0.  0.
    9900016    2    1    2    0    0 -0.69220055940E+03 -0.61849545440E+03  0.12122305092E+04  0.26776184079E+04  0.21996498106E+04 0.  0.
         23    2    5    5    0    0 -0.28345650868E+03 -0.33476487810E+03 -0.62700319167E+03  0.77226926788E+03  0.10417151157E+03 0.  0.
        -15    1    3    3    0    0  0.11677339453E+04 -0.16317593304E+03  0.45739986699E+03  0.12646911048E+04  0.00000000000E+00 0.  1.
        -15    1    6    6    0    0 -0.11840520001E+03 -0.11081464477E+03 -0.15471703088E+03  0.22413620085E+03  0.00000000000E+00 0. -1.
         15    1    6    6    0    0 -0.16505130867E+03 -0.22395023333E+03 -0.47228616079E+03  0.54813306703E+03  0.00000000000E+00 0.  1.
         15    1    4    4    0    0 -0.56674807642E+03  0.63760704243E+03 -0.71920843005E+02  0.85610672836E+03  0.00000000000E+00 0. -1.
        -16    1    4    4    0    0 -0.17384100469E+03  0.14160771480E+03 -0.38230090254E+02  0.22745324707E+03  0.00000000000E+00 0.  1.
         16    1    5    5    0    0 -0.40874405072E+03 -0.28373057630E+03  0.18392337009E+04  0.19053491400E+04  0.00000000000E+00 0. -1.
    9900018    1    1    2    0    0  0.26505569517E+03  0.24566302093E+01 -0.67730457328E+03  0.73301924937E+03  0.91187600000E+02 0.  0.
<mgrwt>
<rscale>  0 0.56909197E+04</rscale>
<asrwt>0</asrwt>
<pdfrwt beam="1">  1        2 0.51085105E+00 0.56909197E+04</pdfrwt>
<pdfrwt beam="2">  1       -2 0.37513183E+00 0.56909197E+04</pdfrwt>
<totfact> 0.79991944E-03</totfact>
</mgrwt>
</event>
<event>
13    1  0.3035299E-009  0.6051449E+04  0.7818608E-02  0.7684055E-01
         -2   -1    0    0    0  501 -0.00000000000E+00  0.00000000000E+00  0.32372890516E+04  0.32372890516E+04  0.00000000000E+00 0.  1.
          2   -1    0    0  501    0  0.00000000000E+00 -0.00000000000E+00 -0.28279860381E+04  0.28279860381E+04  0.00000000000E+00 0. -1.
    9900016    2    1    2    0    0 -0.46318665450E+03 -0.23648456407E+02  0.15783850287E+04  0.27470520224E+04  0.21999759973E+04 0.  0.
        -24    2    3    3    0    0 -0.12025980290E+04  0.15949074659E+03  0.15693971759E+04  0.19852450062E+04  0.80690282274E+02 0.  0.
    9900016    2    1    2    0    0  0.50506666023E+03 -0.69638843886E+03 -0.10173450501E+04  0.25755614011E+04  0.22041951798E+04 0.  0.
         23    2    5    5    0    0  0.23989100761E+03  0.97742614152E+02  0.65335255141E+03  0.70682045280E+03  0.74995212536E+02 0.  0.
        -15    1    6    6    0    0  0.20018155718E+03  0.68430524401E+02  0.44536905223E+03  0.49306083315E+03  0.00000000000E+00 0. -1.
        -15    1    3    3    0    0  0.73941137448E+03 -0.18313920299E+03  0.89878528127E+01  0.76180701616E+03  0.00000000000E+00 0.  1.
         15    1    6    6    0    0  0.39709450433E+02  0.29312089751E+02  0.20798349918E+03  0.21375961965E+03  0.00000000000E+00 0.  1.
         15    1    4    4    0    0 -0.58566184823E+03  0.99727854791E+02  0.71276954904E+03  0.92789324576E+03  0.00000000000E+00 0. -1.
        -16    1    4    4    0    0 -0.61693618074E+03  0.59762891794E+02  0.85662762683E+03  0.10573517605E+04  0.00000000000E+00 0.  1.
         16    1    5    5    0    0  0.26517565262E+03 -0.79413105301E+03 -0.16706976016E+04  0.18687409483E+04  0.00000000000E+00 0. -1.
    9900018    1    1    2    0    0 -0.41880005737E+02  0.72003689527E+03 -0.15173696505E+03  0.74266166616E+03  0.91187600000E+02 0.  0.
<mgrwt>
<rscale>  0 0.60514488E+04</rscale>
<asrwt>0</asrwt>
<pdfrwt beam="1">  1        2 0.43507478E+00 0.60514488E+04</pdfrwt>
<pdfrwt beam="2">  1       -2 0.49804447E+00 0.60514488E+04</pdfrwt>
<totfact> 0.25575181E-03</totfact>
</mgrwt>
</event>
<event>
13    1  0.3072566E-009  0.5985144E+04  0.7818608E-02  0.7692246E-01
         -2   -1    0    0    0  501 -0.00000000000E+00  0.00000000000E+00  0.28336781061E+04  0.28336781061E+04  0.00000000000E+00 0.  1.
          2   -1    0    0  501    0  0.00000000000E+00 -0.00000000000E+00 -0.31603755738E+04  0.31603755738E+04  0.00000000000E+00 0. -1.
    9900016    2    1    2    0    0 -0.50551471163E+03 -0.73450885765E+03  0.13183701129E+04  0.27225542030E+04  0.22088805418E+04 0.  0.
         24    2    3    3    0    0 -0.12316112241E+04 -0.61956317162E+03  0.21634974676E+03  0.13978362920E+04  0.80089670656E+02 0.  0.
    9900016    2    1    2    0    0  0.54665718023E+03  0.51959947559E+03 -0.92360166773E+03  0.25120872127E+04  0.22110460049E+04 0.  0.
         23    2    5    5    0    0  0.29305271156E+03 -0.49700436563E+03 -0.12771675355E+04  0.14062809822E+04  0.11651633395E+03 0.  0.
        -15    1    4    4    0    0 -0.50502992801E+03 -0.21063803623E+03  0.91266019382E+02  0.55475498807E+03  0.00000000000E+00 0.  1.
        -15    1    6    6    0    0  0.11809715741E+03 -0.13428685539E+03 -0.49917635707E+03  0.53024233476E+03  0.00000000000E+00 0.  1.
         15    1    6    6    0    0  0.17495555416E+03 -0.36271751024E+03 -0.77799117844E+03  0.87603864749E+03  0.00000000000E+00 0. -1.
         15    1    3    3    0    0  0.72609651248E+03 -0.11494568602E+03  0.11020203662E+04  0.13247179110E+04  0.00000000000E+00 0. -1.
        -16    1    5    5    0    0  0.25360446866E+03  0.10166038412E+04  0.35356586777E+03  0.11058062305E+04  0.00000000000E+00 0.  1.
         16    1    4    4    0    0 -0.72658129610E+03 -0.40892513539E+03  0.12508372738E+03  0.84308130394E+03  0.00000000000E+00 0. -1.
    9900018    1    1    2    0    0 -0.41142468592E+02  0.21490938206E+03 -0.72146591286E+03  0.75941226421E+03  0.91187600000E+02 0.  0.
<mgrwt>
<rscale>  0 0.59851440E+04</rscale>
<asrwt>0</asrwt>
<pdfrwt beam="1">  1        2 0.48621163E+00 0.59851440E+04</pdfrwt>
<pdfrwt beam="2">  1       -2 0.43595048E+00 0.59851440E+04</pdfrwt>
<totfact> 0.39977691E-03</totfact>
</mgrwt>
</event>
<event>
12    1  0.3035299E-009  0.6025271E+04  0.7818608E-02  0.7687276E-01
          1   -1    0    0  501    0  0.00000000000E+00  0.00000000000E+00  0.30111176253E+04  0.30111176253E+04  0.00000000000E+00 0. -1.
         -1   -1    0    0    0  501 -0.00000000000E+00 -0.00000000000E+00 -0.30141545308E+04  0.30141545308E+04  0.00000000000E+00 0.  1.
    9900016    2    1    2    0    0 -0.13931649507E+04 -0.57630505830E+03 -0.47287528541E+03  0.27055902159E+04  0.21962630263E+04 0.  0.
         24    2    3    3    0    0 -0.15869235505E+04 -0.11062780209E+04  0.49219081770E+02  0.19368274018E+04  0.81856286196E+02 0.  0.
    9900016    2    1    2    0    0  0.11629445068E+04 -0.15763752899E+03  0.51323678533E+03  0.25438779867E+04  0.21978657140E+04 0.  0.
        -15    1    4    4    0    0 -0.13027341866E+04 -0.87452288102E+03  0.56224971419E+02  0.15700534634E+04  0.00000000000E+00 0.  1.
        -15    1    5    5    0    0 -0.56125867525E+02  0.15984460936E+03 -0.13577043822E+03  0.21710371725E+03  0.00000000000E+00 0.  1.
         15    1    5    5    0    0 -0.10474159895E+03  0.54104075986E+03 -0.13134416258E+03  0.56652201671E+03  0.00000000000E+00 0. -1.
         15    1    3    3    0    0  0.19375859979E+03  0.52997296264E+03 -0.52209436718E+03  0.76876281411E+03  0.00000000000E+00 0. -1.
        -16    1    5    5    0    0  0.13238119733E+04 -0.85852289821E+03  0.78035138614E+03  0.17602522527E+04  0.00000000000E+00 0.  1.
         16    1    4    4    0    0 -0.28418936389E+03 -0.23175513992E+03 -0.70058896480E+01  0.36677393844E+03  0.00000000000E+00 0. -1.
    9900018    1    1    2    0    0  0.23022044393E+03  0.73394258729E+03 -0.43398405374E+02  0.77580395347E+03  0.91187600000E+02 0.  0.
<mgrwt>
<rscale>  0 0.60252714E+04</rscale>
<asrwt>0</asrwt>
<pdfrwt beam="1">  1        1 0.46324887E+00 0.60252714E+04</pdfrwt>
<pdfrwt beam="2">  1       -1 0.46371608E+00 0.60252714E+04</pdfrwt>
<totfact> 0.10243214E-03</totfact>
</mgrwt>
</event>
<event>
13    1  0.3035299E-009  0.5950230E+04  0.7818608E-02  0.7696603E-01
         -2   -1    0    0    0  501 -0.00000000000E+00  0.00000000000E+00  0.33204889379E+04  0.33204889379E+04  0.00000000000E+00 0.  1.
          2   -1    0    0  501    0  0.00000000000E+00 -0.00000000000E+00 -0.26656640389E+04  0.26656640389E+04  0.00000000000E+00 0. -1.
    9900016    2    1    2    0    0 -0.76542178026E+03  0.97243831694E+03  0.59688936341E+03  0.25726777773E+04  0.21750602869E+04 0.  0.
         24    2    3    3    0    0 -0.13242420255E+04  0.89952692900E+03  0.99147971167E+03  0.18847114410E+04  0.79621347226E+02 0.  0.
    9900016    2    1    2    0    0  0.92015190466E+03 -0.94010255923E+02 -0.36378303505E+03  0.24226477670E+04  0.22093815086E+04 0.  0.
         23    2    5    5    0    0 -0.24582040596E+03  0.79528693735E+02 -0.10310339686E+04  0.10680884274E+04  0.10502075654E+03 0.  0.
        -15    1    4    4    0    0 -0.67257087851E+03  0.47922455717E+03  0.55273266542E+03  0.99374099354E+03  0.00000000000E+00 0.  1.
        -15    1    6    6    0    0 -0.16934873693E+03  0.91563574131E+02 -0.59910563471E+03  0.62927771640E+03  0.00000000000E+00 0.  1.
         15    1    6    6    0    0 -0.76471669025E+02 -0.12034880396E+02 -0.43192833384E+03  0.43881071100E+03  0.00000000000E+00 0. -1.
         15    1    3    3    0    0  0.55882024524E+03  0.72911387935E+02 -0.39459034825E+03  0.68796633633E+03  0.00000000000E+00 0. -1.
        -16    1    5    5    0    0  0.11659723106E+04 -0.17353894966E+03  0.66725093350E+03  0.13545593396E+04  0.00000000000E+00 0.  1.
         16    1    4    4    0    0 -0.65167114700E+03  0.42030237183E+03  0.43874704624E+03  0.89097044742E+03  0.00000000000E+00 0. -1.
    9900018    1    1    2    0    0 -0.15473012440E+03 -0.87842806101E+03  0.42171857065E+03  0.99082743250E+03  0.91187600000E+02 0.  0.
<mgrwt>
<rscale>  0 0.59502296E+04</rscale>
<asrwt>0</asrwt>
<pdfrwt beam="1">  1        2 0.41010216E+00 0.59502296E+04</pdfrwt>
<pdfrwt beam="2">  1       -2 0.51084445E+00 0.59502296E+04</pdfrwt>
<totfact> 0.26972063E-03</totfact>
</mgrwt>
</event>
<event>
13    1  0.3035299E-009  0.6654804E+04  0.7818608E-02  0.7614123E-01
          1   -1    0    0  501    0  0.00000000000E+00  0.00000000000E+00  0.22489600131E+04  0.22489600131E+04  0.00000000000E+00 0. -1.
         -1   -1    0    0    0  501 -0.00000000000E+00 -0.00000000000E+00 -0.49229877327E+04  0.49229877327E+04  0.00000000000E+00 0.  1.
    9900016    2    1    2    0    0  0.22233532170E+03  0.81047905716E+03  0.61833087984E+03  0.24267367477E+04  0.21909835390E+04 0.  0.
        -24    2    3    3    0    0 -0.24290111374E+03  0.13886705336E+04  0.85154522932E+03  0.16488297757E+04  0.78125217308E+02 0.  0.
    9900016    2    1    2    0    0  0.70329978230E+03 -0.23570883367E+03 -0.22303693931E+04  0.32209743340E+04  0.22022576581E+04 0.  0.
         23    2    5    5    0    0 -0.43585287526E+03 -0.29812466625E+02 -0.19876812024E+04  0.20381980876E+04  0.11188552139E+03 0.  0.
        -15    1    6    6    0    0 -0.23800343679E+03 -0.66813139263E+02 -0.12008318609E+04  0.12260125569E+04  0.00000000000E+00 0.  1.
        -15    1    3    3    0    0  0.46523643545E+03 -0.57819147645E+03 -0.23321434949E+03  0.77790697202E+03  0.00000000000E+00 0.  1.
         15    1    4    4    0    0 -0.11356083601E+03  0.86669171310E+03  0.53411452290E+03  0.10243675671E+04  0.00000000000E+00 0. -1.
         15    1    6    6    0    0 -0.19784943847E+03  0.37000672638E+02 -0.78684934147E+03  0.81218553068E+03  0.00000000000E+00 0. -1.
        -16    1    4    4    0    0 -0.12934027773E+03  0.52197882050E+03  0.31743070643E+03  0.62446220853E+03  0.00000000000E+00 0.  1.
         16    1    5    5    0    0  0.11391526576E+04 -0.20589636704E+03 -0.24268819071E+03  0.11827762464E+04  0.00000000000E+00 0. -1.
    9900018    1    1    2    0    0 -0.92563510400E+03 -0.57477022349E+03 -0.10619892063E+04  0.15242366641E+04  0.91187600000E+02 0.  0.
<mgrwt>
<rscale>  0 0.66548035E+04</rscale>
<asrwt>0</asrwt>
<pdfrwt beam="1">  1        1 0.34599385E+00 0.66548035E+04</pdfrwt>
<pdfrwt beam="2">  1       -1 0.75738273E+00 0.66548035E+04</pdfrwt>
<totfact> 0.15352137E-04</totfact>
</mgrwt>
</event>
<event>
12    1  0.3035299E-009  0.6148691E+04  0.7818608E-02  0.7672235E-01
         -1   -1    0    0    0  501 -0.00000000000E+00  0.00000000000E+00  0.54126614989E+04  0.54126614989E+04  0.00000000000E+00 0.  1.
          1   -1    0    0  501    0  0.00000000000E+00 -0.00000000000E+00 -0.17462018354E+04  0.17462018354E+04  0.00000000000E+00 0. -1.
    9900016    2    1    2    0    0 -0.66588099821E+03  0.76034838786E+03  0.29348705386E+03  0.24420116946E+04  0.22035787463E+04 0.  0.
        -24    2    3    3    0    0 -0.95387298694E+03  0.45280677132E+03  0.11032766203E+04  0.15291697733E+04  0.78950916087E+02 0.  0.
    9900016    2    1    2    0    0  0.31152236903E+03 -0.49581783759E+03  0.13821946952E+04  0.26755142514E+04  0.22147308684E+04 0.  0.
        -15    1    3    3    0    0  0.28799198873E+03  0.30754161655E+03 -0.80978956644E+03  0.91284192136E+03  0.00000000000E+00 0.  1.
        -15    1    5    5    0    0  0.12316029653E+03 -0.15539288264E+01  0.64435731477E+03  0.65602379715E+03  0.00000000000E+00 0.  1.
         15    1    4    4    0    0 -0.83450665838E+03  0.42051694953E+03  0.99180422354E+03  0.13626853949E+04  0.00000000000E+00 0. -1.
         15    1    5    5    0    0  0.43616179881E+03 -0.19254584275E+03  0.12716751313E+04  0.13581121661E+04  0.00000000000E+00 0. -1.
        -16    1    4    4    0    0 -0.11936632855E+03  0.32289821784E+02  0.11147239677E+03  0.16648437832E+03  0.00000000000E+00 0.  1.
         16    1    5    5    0    0 -0.24779972632E+03 -0.30171806601E+03 -0.53383775085E+03  0.66137828809E+03  0.00000000000E+00 0. -1.
    9900018    1    1    2    0    0  0.35435862918E+03 -0.26453055027E+03  0.19907779145E+04  0.20413373884E+04  0.91187600000E+02 0.  0.
<mgrwt>
<rscale>  0 0.61486907E+04</rscale>
<asrwt>0</asrwt>
<pdfrwt beam="1">  1        1 0.26864644E+00 0.61486907E+04</pdfrwt>
<pdfrwt beam="2">  1       -1 0.83271714E+00 0.61486907E+04</pdfrwt>
<totfact> 0.12076739E-04</totfact>
</mgrwt>
</event>
<event>
12    1  0.3035299E-009  0.5451558E+04  0.7818608E-02  0.7762390E-01
         -2   -1    0    0    0  501 -0.00000000000E+00  0.00000000000E+00  0.20246199216E+04  0.20246199216E+04  0.00000000000E+00 0.  1.
          2   -1    0    0  501    0  0.00000000000E+00 -0.00000000000E+00 -0.36697609059E+04  0.36697609059E+04  0.00000000000E+00 0. -1.
    9900016    2    1    2    0    0 -0.69474478721E+03  0.54101650424E+03 -0.96726291212E+02  0.23722266641E+04  0.22006213198E+04 0.  0.
         24    2    3    3    0    0  0.14040663483E+03 -0.33592822231E+03  0.78851032112E+03  0.87217539461E+03  0.79872390664E+02 0.  0.
    9900016    2    1    2    0    0  0.90295493793E+03 -0.86064345344E+03 -0.14478274710E+04  0.29172519268E+04  0.22041142540E+04 0.  0.
        -15    1    5    5    0    0  0.92859455701E+02  0.74110597051E+02 -0.27001075330E+03  0.29499333214E+03  0.00000000000E+00 0.  1.
        -15    1    4    4    0    0  0.81030498118E+02 -0.10878398462E+03  0.24317299637E+03  0.27844748715E+03  0.00000000000E+00 0.  1.
         15    1    5    5    0    0  0.22227110128E+03  0.17464868233E+03 -0.13280396111E+04  0.13577907841E+04  0.00000000000E+00 0. -1.
         15    1    3    3    0    0 -0.83515142204E+03  0.87694472655E+03 -0.88523661234E+03  0.15000512695E+04  0.00000000000E+00 0. -1.
        -16    1    5    5    0    0  0.58782438095E+03 -0.11094027328E+04  0.15022289333E+03  0.12644678106E+04  0.00000000000E+00 0.  1.
         16    1    4    4    0    0  0.59376136708E+02 -0.22714423769E+03  0.54533732475E+03  0.59372790746E+03  0.00000000000E+00 0. -1.
    9900018    1    1    2    0    0 -0.20821015071E+03  0.31962694920E+03 -0.10058722204E+03  0.40490223653E+03  0.91187600000E+02 0.  0.
<mgrwt>
<rscale>  0 0.54515580E+04</rscale>
<asrwt>0</asrwt>
<pdfrwt beam="1">  1        2 0.56457859E+00 0.54515580E+04</pdfrwt>
<pdfrwt beam="2">  1       -2 0.31147999E+00 0.54515580E+04</pdfrwt>
<totfact> 0.11629376E-02</totfact>
</mgrwt>
</event>
<event>
13    1  0.3035299E-009  0.5741517E+04  0.7818608E-02  0.7723303E-01
         -1   -1    0    0    0  501 -0.00000000000E+00  0.00000000000E+00  0.23880858621E+04  0.23880858621E+04  0.00000000000E+00 0.  1.
          1   -1    0    0  501    0  0.00000000000E+00 -0.00000000000E+00 -0.34509871764E+04  0.34509871764E+04  0.00000000000E+00 0. -1.
    9900016    2    1    2    0    0  0.88655962251E+03 -0.74759306019E+03  0.20474546735E+03  0.24943077890E+04  0.21988104266E+04 0.  0.
        -24    2    3    3    0    0 -0.20224871256E+03 -0.62125105558E+03 -0.78012426676E+03  0.10207290549E+04  0.80227900743E+02 0.  0.
    9900016    2    1    2    0    0 -0.29723704508E+03  0.25837165679E+03 -0.12819333438E+04  0.25733004311E+04  0.21962277288E+04 0.  0.
         23    2    5    5    0    0 -0.42250939479E+03 -0.76583483356E+02  0.55035934644E+03  0.70643551628E+03  0.10851962880E+03 0.  0.
        -15    1    6    6    0    0 -0.28936009403E+03 -0.25141086869E+02  0.43426542919E+03  0.52244406519E+03  0.00000000000E+00 0.  1.
        -15    1    3    3    0    0  0.10888083351E+04 -0.12634200461E+03  0.98486973411E+03  0.14735787342E+04  0.00000000000E+00 0.  1.
         15    1    6    6    0    0 -0.13314930076E+03 -0.51442396488E+02  0.11609391726E+03  0.18399145109E+03  0.00000000000E+00 0. -1.
         15    1    4    4    0    0 -0.31260059722E+02 -0.20792960499E+03 -0.22794923360E+03  0.31011734080E+03  0.00000000000E+00 0. -1.
        -16    1    4    4    0    0 -0.17098865284E+03 -0.41332145059E+03 -0.55217503316E+03  0.71061171406E+03  0.00000000000E+00 0.  1.
         16    1    5    5    0    0  0.12527234971E+03  0.33495514015E+03 -0.18322926902E+04  0.18668649148E+04  0.00000000000E+00 0. -1.
    9900018    1    1    2    0    0 -0.58932257743E+03  0.48922140339E+03  0.14286562117E+02  0.77146481842E+03  0.91187600000E+02 0.  0.
<mgrwt>
<rscale>  0 0.57415168E+04</rscale>
<asrwt>0</asrwt>
<pdfrwt beam="1">  1        1 0.53092110E+00 0.57415168E+04</pdfrwt>
<pdfrwt beam="2">  1       -1 0.36739783E+00 0.57415168E+04</pdfrwt>
<totfact> 0.22111694E-03</totfact>
</mgrwt>
</event>
<event>
13    1  0.3035299E-009  0.7131527E+04  0.7818608E-02  0.7564021E-01
          2   -1    0    0  501    0  0.00000000000E+00  0.00000000000E+00  0.24941657121E+04  0.24941657121E+04  0.00000000000E+00 0. -1.
         -2   -1    0    0    0  501 -0.00000000000E+00 -0.00000000000E+00 -0.50977637806E+04  0.50977637806E+04  0.00000000000E+00 0.  1.
    9900016    2    1    2    0    0  0.68014274421E+03 -0.22371857651E+04  0.20885951506E+03  0.32215967975E+04  0.22062341962E+04 0.  0.
        -24    2    3    3    0    0  0.11525103750E+04 -0.26462679058E+03  0.31855937918E+02  0.11855588919E+04  0.78915034502E+02 0.  0.
    9900016    2    1    2    0    0 -0.74857061327E+03  0.20495314362E+04 -0.24575267662E+04  0.39529748344E+04  0.21967328386E+04 0.  0.
         23    2    5    5    0    0  0.51950266727E+03  0.47459311549E+02 -0.11060685319E+04  0.12248359091E+04  0.68556540886E+02 0.  0.
        -15    1    6    6    0    0  0.53086220904E+02  0.18662120588E+02 -0.85329978189E+02  0.10221363301E+03  0.00000000000E+00 0. -1.
        -15    1    3    3    0    0 -0.47236763080E+03 -0.19725589746E+04  0.17700357714E+03  0.20360379056E+04  0.00000000000E+00 0.  1.
         15    1    6    6    0    0  0.46641644636E+03  0.28797190961E+02 -0.10207385537E+04  0.11226222761E+04  0.00000000000E+00 0.  1.
         15    1    4    4    0    0  0.29766271574E+03 -0.93419282096E+02 -0.16325696585E+02  0.31240483828E+03  0.00000000000E+00 0. -1.
        -16    1    4    4    0    0  0.85484765927E+03 -0.17120750848E+03  0.48181634502E+02  0.87315405366E+03  0.00000000000E+00 0.  1.
         16    1    5    5    0    0 -0.12680732805E+04  0.20020721246E+04 -0.13514582343E+04  0.27281389254E+04  0.00000000000E+00 0. -1.
    9900018    1    1    2    0    0  0.68427869055E+02  0.18765432895E+03 -0.35493081727E+03  0.41735786069E+03  0.91187600000E+02 0.  0.
<mgrwt>
<rscale>  0 0.71315265E+04</rscale>
<asrwt>0</asrwt>
<pdfrwt beam="1">  1        2 0.38371781E+00 0.71315265E+04</pdfrwt>
<pdfrwt beam="2">  1       -2 0.78427134E+00 0.71315265E+04</pdfrwt>
<totfact> 0.21210437E-04</totfact>
</mgrwt>
</event>
<event>
13    1  0.3035299E-009  0.5742718E+04  0.7818608E-02  0.7723146E-01
         -1   -1    0    0    0  501 -0.00000000000E+00  0.00000000000E+00  0.51636392602E+04  0.51636392602E+04  0.00000000000E+00 0.  1.
          1   -1    0    0  501    0  0.00000000000E+00 -0.00000000000E+00 -0.15966845700E+04  0.15966845700E+04  0.00000000000E+00 0. -1.
    9900016    2    1    2    0    0 -0.10653033679E+03  0.93972121293E+03  0.48268023522E+03  0.24433523051E+04  0.22005830152E+04 0.  0.
        -24    2    3    3    0    0  0.68401965933E+03 -0.18032174890E+03 -0.39641868795E+03  0.81476996165E+03  0.79394500903E+02 0.  0.
    9900016    2    1    2    0    0  0.34506556720E+03 -0.21643268920E+03  0.20709054780E+04  0.30460359615E+04  0.21963087728E+04 0.  0.
         23    2    5    5    0    0 -0.44024022622E+03 -0.10686696883E+03 -0.29426223192E+03  0.55149629814E+03  0.11102206950E+03 0.  0.
        -15    1    3    3    0    0 -0.79054999611E+03  0.11200429618E+04  0.87909892317E+03  0.16285823435E+04  0.00000000000E+00 0.  1.
        -15    1    6    6    0    0 -0.10590709876E+03 -0.67165634669E+01 -0.12387350394E+03  0.16311367438E+03  0.00000000000E+00 0.  1.
         15    1    6    6    0    0 -0.33433312747E+03 -0.10015040536E+03 -0.17038872798E+03  0.38838262376E+03  0.00000000000E+00 0. -1.
         15    1    4    4    0    0  0.34952883100E+03 -0.59391559679E+02 -0.22528922420E+03  0.42006308526E+03  0.00000000000E+00 0. -1.
        -16    1    4    4    0    0  0.33449082833E+03 -0.12093018922E+03 -0.17112946375E+03  0.39470687638E+03  0.00000000000E+00 0.  1.
         16    1    5    5    0    0  0.78530579342E+03 -0.10956572037E+03  0.23651677099E+04  0.24945396634E+04  0.00000000000E+00 0. -1.
    9900018    1    1    2    0    0 -0.23853523041E+03 -0.72328852372E+03  0.10133689770E+04  0.12709355635E+04  0.91187600000E+02 0.  0.
<mgrwt>
<rscale>  0 0.57427182E+04</rscale>
<asrwt>0</asrwt>
<pdfrwt beam="1">  1        1 0.24564378E+00 0.57427182E+04</pdfrwt>
<pdfrwt beam="2">  1       -1 0.79440603E+00 0.57427182E+04</pdfrwt>
<totfact> 0.29088164E-04</totfact>
</mgrwt>
</event>
<event>
13    1  0.3035299E-009  0.7374324E+04  0.7818608E-02  0.7540017E-01
          2   -1    0    0  501    0  0.00000000000E+00  0.00000000000E+00  0.38658538732E+04  0.38658538732E+04  0.00000000000E+00 0. -1.
         -2   -1    0    0    0  501 -0.00000000000E+00 -0.00000000000E+00 -0.35167301898E+04  0.35167301898E+04  0.00000000000E+00 0.  1.
    9900016    2    1    2    0    0  0.24196341085E+04  0.65647488599E+01  0.11219943166E+04  0.34553201795E+04  0.21967462260E+04 0.  0.
         24    2    3    3    0    0  0.97256931798E+02 -0.41680941971E+03 -0.44474581048E+03  0.62206126739E+03  0.77281183441E+02 0.  0.
    9900016    2    1    2    0    0 -0.98828019462E+03 -0.95486819178E+02 -0.48751436428E+03  0.24621957828E+04  0.21997550640E+04 0.  0.
         23    2    5    5    0    0  0.11122369664E+03 -0.52490584366E+03 -0.10270270937E+04  0.11643577764E+04  0.11422576289E+03 0.  0.
        -15    1    6    6    0    0  0.97122036172E+02 -0.21676124531E+03 -0.39136972663E+03  0.45780824621E+03  0.00000000000E+00 0.  1.
        -15    1    4    4    0    0  0.19129925990E+02 -0.17488961340E+03 -0.13758737214E+03  0.22334416472E+03  0.00000000000E+00 0.  1.
         15    1    3    3    0    0  0.23223771767E+04  0.42337416857E+03  0.15667401270E+04  0.28332589121E+04  0.00000000000E+00 0. -1.
         15    1    6    6    0    0  0.14101660464E+02 -0.30814459835E+03 -0.63565736710E+03  0.70654953023E+03  0.00000000000E+00 0. -1.
        -16    1    5    5    0    0 -0.10995038913E+04  0.42941902449E+03  0.53951272945E+03  0.12978380063E+04  0.00000000000E+00 0.  1.
         16    1    4    4    0    0  0.78127005808E+02 -0.24191980631E+03 -0.30715843834E+03  0.39871710267E+03  0.00000000000E+00 0. -1.
    9900018    1    1    2    0    0 -0.14313539138E+04  0.88922070318E+02 -0.28535626893E+03  0.14650681008E+04  0.91187600000E+02 0.  0.
<mgrwt>
<rscale>  0 0.73743244E+04</rscale>
<asrwt>0</asrwt>
<pdfrwt beam="1">  1        2 0.59474675E+00 0.73743244E+04</pdfrwt>
<pdfrwt beam="2">  1       -2 0.54103541E+00 0.73743244E+04</pdfrwt>
<totfact> 0.25735437E-04</totfact>
</mgrwt>
</event>
<event>
13    1  0.3035299E-009  0.5420511E+04  0.7818608E-02  0.7766722E-01
          2   -1    0    0  501    0  0.00000000000E+00  0.00000000000E+00  0.25628149827E+04  0.25628149827E+04  0.00000000000E+00 0. -1.
         -2   -1    0    0    0  501 -0.00000000000E+00 -0.00000000000E+00 -0.28661787698E+04  0.28661787698E+04  0.00000000000E+00 0.  1.
    9900016    2    1    2    0    0 -0.82903493882E+03 -0.68383961435E+03 -0.99298437759E+03  0.26401067350E+04  0.21975463705E+04 0.  0.
        -24    2    3    3    0    0 -0.10097759508E+04  0.53750636531E+03 -0.17792047979E+03  0.11606870945E+04  0.83536043746E+02 0.  0.
    9900016    2    1    2    0    0  0.48827725120E+03  0.44728128352E+03  0.67641332876E+03  0.23639573106E+04  0.21661680347E+04 0.  0.
         23    2    5    5    0    0 -0.60484518150E+03  0.71090688512E+03  0.79839139046E+03  0.12328986215E+04  0.10669538724E+03 0.  0.
        -15    1    3    3    0    0  0.18074101195E+03 -0.12213459797E+04 -0.81506389779E+03  0.14794196406E+04  0.00000000000E+00 0.  1.
        -15    1    6    6    0    0 -0.56852759958E+02  0.39511823100E+02  0.33166160787E+02  0.76768578865E+02  0.00000000000E+00 0. -1.
         15    1    6    6    0    0 -0.54799242154E+03  0.67139506202E+03  0.76522522967E+03  0.11561300426E+04  0.00000000000E+00 0.  1.
         15    1    4    4    0    0 -0.13099249433E+03  0.39533510900E+02 -0.16980722672E+02  0.13787776107E+03  0.00000000000E+00 0. -1.
        -16    1    4    4    0    0 -0.87878345644E+03  0.49797285441E+03 -0.16093975712E+03  0.10228093334E+04  0.00000000000E+00 0.  1.
         16    1    5    5    0    0  0.10931224327E+04 -0.26362560159E+03 -0.12197806170E+03  0.11310586891E+04  0.00000000000E+00 0. -1.
    9900018    1    1    2    0    0  0.34075768763E+03  0.23655833082E+03  0.13207261760E+02  0.42492970679E+03  0.91187600000E+02 0.  0.
<mgrwt>
<rscale>  0 0.54205114E+04</rscale>
<asrwt>0</asrwt>
<pdfrwt beam="1">  1        2 0.39427923E+00 0.54205114E+04</pdfrwt>
<pdfrwt beam="2">  1       -2 0.44095058E+00 0.54205114E+04</pdfrwt>
<totfact> 0.90052313E-03</totfact>
</mgrwt>
</event>
<event>
12    1  0.3035299E-009  0.8120842E+04  0.7818608E-02  0.7471732E-01
         -2   -1    0    0    0  501 -0.00000000000E+00  0.00000000000E+00  0.37457429161E+04  0.37457429161E+04  0.00000000000E+00 0.  1.
          2   -1    0    0  501    0  0.00000000000E+00 -0.00000000000E+00 -0.44015350125E+04  0.44015350125E+04  0.00000000000E+00 0. -1.
    9900016    2    1    2    0    0 -0.16529938478E+03 -0.19806566476E+04  0.21955390593E+04  0.36860736418E+04  0.21946349330E+04 0.  0.
         24    2    3    3    0    0  0.18487373378E+03 -0.23797869457E+04  0.20162874284E+04  0.31256654379E+04  0.82493829403E+02 0.  0.
    9900016    2    1    2    0    0  0.61352723006E+03  0.15267379099E+04 -0.19618108547E+04  0.33627909010E+04  0.21799808500E+04 0.  0.
        -15    1    4    4    0    0  0.96188634471E+02 -0.13770527283E+04  0.11143983170E+04  0.17740941573E+04  0.00000000000E+00 0.  1.
        -15    1    5    5    0    0  0.66844907209E+01  0.28512698454E+03 -0.72024162684E+03  0.77465481394E+03  0.00000000000E+00 0.  1.
         15    1    5    5    0    0 -0.92825082992E+02  0.34078630358E+03 -0.13933856040E+04  0.14374544313E+04  0.00000000000E+00 0. -1.
         15    1    3    3    0    0 -0.35017311856E+03  0.39913029803E+03  0.17925163099E+03  0.56040820389E+03  0.00000000000E+00 0. -1.
        -16    1    5    5    0    0  0.69966782233E+03  0.90082462175E+03  0.15181637611E+03  0.11506816557E+04  0.00000000000E+00 0.  1.
         16    1    4    4    0    0  0.88685099311E+02 -0.10027342174E+04  0.90188911134E+03  0.13515712806E+04  0.00000000000E+00 0. -1.
    9900018    1    1    2    0    0 -0.44822784528E+03  0.45391873776E+03 -0.88952030101E+03  0.10984133858E+04  0.91187600000E+02 0.  0.
<mgrwt>
<rscale>  0 0.81208420E+04</rscale>
<asrwt>0</asrwt>
<pdfrwt beam="1">  1        2 0.67715923E+00 0.81208420E+04</pdfrwt>
<pdfrwt beam="2">  1       -2 0.57626814E+00 0.81208420E+04</pdfrwt>
<totfact> 0.57295380E-05</totfact>
</mgrwt>
</event>
<event>
13    1  0.3035299E-009  0.5121364E+04  0.7818608E-02  0.7810054E-01
         -2   -1    0    0    0  501 -0.00000000000E+00  0.00000000000E+00  0.38527534593E+04  0.38527534593E+04  0.00000000000E+00 0.  1.
          2   -1    0    0  501    0  0.00000000000E+00 -0.00000000000E+00 -0.17019236527E+04  0.17019236527E+04  0.00000000000E+00 0. -1.
    9900016    2    1    2    0    0  0.14781717948E+03 -0.22584641479E+03  0.20537352813E+03  0.22294336640E+04  0.22034835272E+04 0.  0.
         24    2    3    3    0    0 -0.28874805839E+03  0.67000516434E+03 -0.60011479940E+03  0.94804742068E+03  0.79835943855E+02 0.  0.
    9900016    2    1    2    0    0 -0.97439735562E+02  0.25048994566E+03  0.21581699556E+04  0.30871101297E+04  0.21909613600E+04 0.  0.
         23    2    5    5    0    0  0.11185549587E+03 -0.20878972350E+03 -0.40102435260E+03  0.47862056384E+03  0.11023752606E+03 0.  0.
        -15    1    4    4    0    0 -0.13682199523E+03  0.41186979849E+03 -0.33951616798E+03  0.55102469782E+03  0.00000000000E+00 0.  1.
        -15    1    6    6    0    0  0.11793385070E+03 -0.18246890601E+03 -0.27886216153E+03  0.35350728413E+03  0.00000000000E+00 0. -1.
         15    1    3    3    0    0  0.43656523787E+03 -0.89585157914E+03  0.80548832753E+03  0.12813862433E+04  0.00000000000E+00 0. -1.
         15    1    6    6    0    0 -0.60783548291E+01 -0.26320817487E+02 -0.12216219107E+03  0.12511327970E+03  0.00000000000E+00 0.  1.
        -16    1    5    5    0    0 -0.20929523144E+03  0.45927966916E+03  0.25591943082E+04  0.26084895659E+04  0.00000000000E+00 0.  1.
         16    1    4    4    0    0 -0.15192606316E+03  0.25813536586E+03 -0.26059863142E+03  0.39702272286E+03  0.00000000000E+00 0. -1.
    9900018    1    1    2    0    0 -0.50377443922E+02 -0.24643530868E+02 -0.21271367713E+03  0.23813331833E+03  0.91187600000E+02 0.  0.
<mgrwt>
<rscale>  0 0.51213640E+04</rscale>
<asrwt>0</asrwt>
<pdfrwt beam="1">  1        2 0.26183441E+00 0.51213640E+04</pdfrwt>
<pdfrwt beam="2">  1       -2 0.59273130E+00 0.51213640E+04</pdfrwt>
<totfact> 0.38753766E-03</totfact>
</mgrwt>
</event>
<event>
13    1  0.3035299E-009  0.6026849E+04  0.7818608E-02  0.7687082E-01
          2   -1    0    0  501    0  0.00000000000E+00  0.00000000000E+00  0.33738690103E+04  0.33738690103E+04  0.00000000000E+00 0. -1.
         -2   -1    0    0    0  501 -0.00000000000E+00 -0.00000000000E+00 -0.26914878659E+04  0.26914878659E+04  0.00000000000E+00 0.  1.
    9900016    2    1    2    0    0  0.39686637047E+03  0.52199634524E+03 -0.11636277274E+04  0.25763669672E+04  0.22031010329E+04 0.  0.
        -24    2    3    3    0    0  0.28069301418E+03 -0.35749852904E+03 -0.15437425005E+04  0.16112272243E+04  0.79488955725E+02 0.  0.
    9900016    2    1    2    0    0 -0.10870806936E+03 -0.20488028340E+03  0.77748627478E+03  0.23341507332E+04  0.21886026050E+04 0.  0.
         23    2    5    5    0    0  0.39074139238E+03  0.26262058183E+03 -0.61574385561E+03  0.78202412104E+03  0.10379221758E+03 0.  0.
        -15    1    6    6    0    0  0.11392340045E+03  0.12795296032E+03 -0.26260429331E+03  0.31354667290E+03  0.00000000000E+00 0. -1.
        -15    1    3    3    0    0  0.11617335629E+03  0.87949487428E+03  0.38011477308E+03  0.96513974290E+03  0.00000000000E+00 0.  1.
         15    1    4    4    0    0  0.15115095837E+03 -0.22745417890E+03 -0.10334662708E+04  0.10689408536E+04  0.00000000000E+00 0. -1.
         15    1    6    6    0    0  0.27681799194E+03  0.13466762151E+03 -0.35313956231E+03  0.46847744813E+03  0.00000000000E+00 0.  1.
        -16    1    4    4    0    0  0.12954205580E+03 -0.13004435014E+03 -0.51027622969E+03  0.54228637067E+03  0.00000000000E+00 0.  1.
         16    1    5    5    0    0 -0.49944946174E+03 -0.46750086523E+03  0.13932301304E+04  0.15521266121E+04  0.00000000000E+00 0. -1.
    9900018    1    1    2    0    0 -0.28815830111E+03 -0.31711606184E+03  0.10685225970E+04  0.11548391758E+04  0.91187600000E+02 0.  0.
<mgrwt>
<rscale>  0 0.60268491E+04</rscale>
<asrwt>0</asrwt>
<pdfrwt beam="1">  1        2 0.51905677E+00 0.60268491E+04</pdfrwt>
<pdfrwt beam="2">  1       -2 0.41407506E+00 0.60268491E+04</pdfrwt>
<totfact> 0.40046717E-03</totfact>
</mgrwt>
</event>
