<event>
12    1  0.1785576E-010  0.8920505E+03  0.7818608E-02  0.9435574E-01
          2   -1    0    0  501    0  0.00000000000E+00  0.00000000000E+00  0.35920227236E+03  0.35920227236E+03  0.00000000000E+00 0.  1.
         -2   -1    0    0    0  501 -0.00000000000E+00 -0.00000000000E+00 -0.55383430966E+03  0.55383430966E+03  0.00000000000E+00 0. -1.
    9900016    2    1    2    0    0  0.11984487143E+03 -0.41768984509E+02 -0.59031264153E+02  0.72730825636E+03  0.71371224478E+03 0.  0.
         23    2    3    3    0    0 -0.23443214075E+01 -0.29328794836E+02  0.22449587078E+01  0.97556280338E+02  0.92986633149E+02 0.  0.
         23    2    3    3    0    0  0.81694434013E+02 -0.16670802569E+03 -0.40867402417E+02  0.21068508300E+03  0.90843344507E+02 0.  0.
        -15    1    4    4    0    0  0.41158954384E+02  0.18077167625E+01 -0.10595000103E+02  0.42539174804E+02  0.00000000000E+00 0. -1.
        -15    1    5    5    0    0  0.55434269628E+02 -0.70036591001E+02 -0.61451353028E+02  0.10841748529E+03  0.00000000000E+00 0.  1.
         15    1    5    5    0    0  0.26260164385E+02 -0.96671434692E+02  0.20583950611E+02  0.10226759771E+03  0.00000000000E+00 0. -1.
         15    1    4    4    0    0 -0.43503275791E+02 -0.31136511599E+02  0.12839958811E+02  0.55017105534E+02  0.00000000000E+00 0.  1.
        -16    1    3    3    0    0 -0.46925473865E+02  0.21010040904E+03  0.98573326403E+02  0.23677179447E+03  0.00000000000E+00 0.  1.
         16    1    1    2    0    0 -0.11984487143E+03  0.41768984509E+02 -0.13560077315E+03  0.18572832566E+03  0.00000000000E+00 0. -1.
    9900018    1    3    3    0    0  0.87420232686E+02 -0.55832573021E+02 -0.11898214685E+03  0.18229509855E+03  0.91187600000E+02 0.  0.
<mgrwt>
<rscale>  0 0.89205054E+03</rscale>
<asrwt>0</asrwt>
<pdfrwt beam="1">  1        2 0.55261888E-01 0.89205054E+03</pdfrwt>
<pdfrwt beam="2">  1       -2 0.85205278E-01 0.89205054E+03</pdfrwt>
<totfact> 0.10800420E+02</totfact>
</mgrwt>
</event>
<event>
12    1  0.1785576E-010  0.2289904E+04  0.7818608E-02  0.8481913E-01
          1   -1    0    0  501    0  0.00000000000E+00  0.00000000000E+00  0.26550852904E+04  0.26550852904E+04  0.00000000000E+00 0. -1.
         -1   -1    0    0    0  501 -0.00000000000E+00 -0.00000000000E+00 -0.49373732153E+03  0.49373732153E+03  0.00000000000E+00 0.  1.
    9900016    2    1    2    0    0 -0.41666909278E+02 -0.39403581575E+03 -0.14166264292E+03  0.81197468503E+03  0.69443086720E+03 0.  0.
         23    2    3    3    0    0  0.29823337353E+02 -0.21958858850E+03  0.28726514536E+02  0.24135188449E+03  0.91197257969E+02 0.  0.
         23    2    3    3    0    0  0.16981961841E+02 -0.10685717920E+03 -0.15510774853E+03  0.21075982071E+03  0.93029267434E+02 0.  0.
        -15    1    5    5    0    0  0.18211951441E+02 -0.15697899351E+02 -0.10296319818E+03  0.10573324642E+03  0.00000000000E+00 0. -1.
        -15    1    4    4    0    0  0.29673515293E+02 -0.14935765783E+03 -0.23166543874E+02  0.15402894604E+03  0.00000000000E+00 0. -1.
         15    1    4    4    0    0  0.14982205953E+00 -0.70230930663E+02  0.51893058409E+02  0.87322938450E+02  0.00000000000E+00 0.  1.
         15    1    5    5    0    0 -0.12299895999E+01 -0.91159279846E+02 -0.52144550350E+02  0.10502657429E+03  0.00000000000E+00 0.  1.
        -16    1    3    3    0    0  0.46497834306E+02 -0.10326342717E+03 -0.11837223260E+03  0.16382115076E+03  0.00000000000E+00 0.  1.
         16    1    1    2    0    0  0.41666909278E+02  0.39403581575E+03  0.23030106118E+04  0.23368479269E+04  0.00000000000E+00 0. -1.
    9900018    1    3    3    0    0 -0.13497004278E+03  0.35673379119E+02  0.10309082367E+03  0.19604182907E+03  0.91187600000E+02 0.  0.
<mgrwt>
<rscale>  0 0.22899037E+04</rscale>
<asrwt>0</asrwt>
<pdfrwt beam="1">  1        1 0.40847465E+00 0.22899037E+04</pdfrwt>
<pdfrwt beam="2">  1       -1 0.75959590E-01 0.22899037E+04</pdfrwt>
<totfact> 0.16625006E+00</totfact>
</mgrwt>
</event>
<event>
12    1  0.1785576E-010  0.8578705E+03  0.7818608E-02  0.9479834E-01
         -2   -1    0    0    0  501 -0.00000000000E+00  0.00000000000E+00  0.16714637426E+04  0.16714637426E+04  0.00000000000E+00 0.  1.
          2   -1    0    0  501    0  0.00000000000E+00 -0.00000000000E+00 -0.11007446063E+03  0.11007446063E+03  0.00000000000E+00 0. -1.
    9900016    2    1    2    0    0 -0.37883990642E+01 -0.10812436371E+03  0.11333114092E+04  0.13400001017E+04  0.70675334607E+03 0.  0.
         23    2    3    3    0    0  0.22588391941E+02  0.80733956860E+02  0.19555721918E+03  0.23085479943E+03  0.89571788012E+02 0.  0.
         23    2    3    3    0    0  0.43137643584E+02  0.10090643109E+03  0.11961133850E+03  0.18631243383E+03  0.91446632370E+02 0.  0.
        -15    1    4    4    0    0 -0.31603636900E+02  0.93410839326E+01  0.56726131210E+02  0.65604113258E+02  0.00000000000E+00 0. -1.
        -15    1    5    5    0    0 -0.16129381627E+02  0.66400057751E+02  0.86281418217E+02  0.11006183603E+03  0.00000000000E+00 0.  1.
         15    1    5    5    0    0  0.59267025211E+02  0.34506373341E+02  0.33329920284E+02  0.76250597798E+02  0.00000000000E+00 0. -1.
         15    1    4    4    0    0  0.54192028841E+02  0.71392872928E+02  0.13883108797E+03  0.16525068618E+03  0.00000000000E+00 0.  1.
        -16    1    3    3    0    0 -0.92605050251E+02 -0.30090741063E+03  0.72301065283E+03  0.78858440842E+03  0.00000000000E+00 0.  1.
         16    1    1    2    0    0  0.37883990642E+01  0.10812436371E+03  0.42807787278E+03  0.44153810159E+03  0.00000000000E+00 0. -1.
    9900018    1    3    3    0    0  0.23090615663E+02  0.11142658964E+02  0.95132198728E+02  0.13424845999E+03  0.91187600000E+02 0.  0.
<mgrwt>
<rscale>  0 0.85787055E+03</rscale>
<asrwt>0</asrwt>
<pdfrwt beam="1">  1        2 0.16934534E-01 0.85787055E+03</pdfrwt>
<pdfrwt beam="2">  1       -2 0.25714825E+00 0.85787055E+03</pdfrwt>
<totfact> 0.20516368E+01</totfact>
</mgrwt>
</event>
<event>
12    1  0.1785576E-010  0.8766727E+03  0.7818608E-02  0.9455221E-01
          2   -1    0    0  501    0  0.00000000000E+00  0.00000000000E+00  0.53005429880E+03  0.53005429880E+03  0.00000000000E+00 0. -1.
         -2   -1    0    0    0  501 -0.00000000000E+00 -0.00000000000E+00 -0.36248881129E+03  0.36248881129E+03  0.00000000000E+00 0.  1.
    9900016    2    1    2    0    0 -0.38706573963E+01 -0.14883175867E+03  0.16519945987E+03  0.74364222875E+03  0.70961047657E+03 0.  0.
         23    2    3    3    0    0 -0.13691446053E+03  0.54750004288E+02  0.48003201908E+02  0.17956005108E+03  0.90522771054E+02 0.  0.
         23    2    3    3    0    0  0.17810462276E+03  0.93581275746E+01 -0.10852673031E+03  0.22856825997E+03  0.93040674281E+02 0.  0.
        -15    1    5    5    0    0  0.55104195091E+02  0.23189986552E+01  0.11749875449E+02  0.56390687569E+02  0.00000000000E+00 0. -1.
        -15    1    4    4    0    0 -0.13163586899E+03  0.27005443174E+02  0.62056493519E+02  0.14801454102E+03  0.00000000000E+00 0.  1.
         15    1    4    4    0    0 -0.52785915448E+01  0.27744561114E+02 -0.14053291611E+02  0.31545510064E+02  0.00000000000E+00 0. -1.
         15    1    5    5    0    0  0.12300042767E+03  0.70391289195E+01 -0.12027660576E+03  0.17217757240E+03  0.00000000000E+00 0.  1.
        -16    1    3    3    0    0 -0.21154422072E+02 -0.78271272849E+02  0.98936905180E+02  0.12791564773E+03  0.00000000000E+00 0.  1.
         16    1    1    2    0    0  0.38706573963E+01  0.14883175867E+03  0.23660276315E+01  0.14890088134E+03  0.00000000000E+00 0. -1.
    9900018    1    3    3    0    0 -0.23906397553E+02 -0.13466861768E+03  0.12678608310E+03  0.20759826997E+03  0.91187600000E+02 0.  0.
<mgrwt>
<rscale>  0 0.87667269E+03</rscale>
<asrwt>0</asrwt>
<pdfrwt beam="1">  1        2 0.81546815E-01 0.87667269E+03</pdfrwt>
<pdfrwt beam="2">  1       -2 0.55767509E-01 0.87667269E+03</pdfrwt>
<totfact> 0.17452144E+02</totfact>
</mgrwt>
</event>
<event>
12    1  0.1785576E-010  0.8643781E+03  0.7818608E-02  0.9471240E-01
          2   -1    0    0  501    0  0.00000000000E+00  0.00000000000E+00  0.86036433062E+03  0.86036433062E+03  0.00000000000E+00 0. -1.
         -2   -1    0    0    0  501 -0.00000000000E+00 -0.00000000000E+00 -0.21710266552E+03  0.21710266552E+03  0.00000000000E+00 0.  1.
    9900016    2    1    2    0    0  0.61010251212E+02 -0.85021606981E+02  0.65109995872E+03  0.97252718838E+03  0.71479161404E+03 0.  0.
         23    2    3    3    0    0 -0.79516385147E+02  0.25051581273E+02  0.13065312531E+03  0.18030960582E+03  0.92145957948E+02 0.  0.
         23    2    3    3    0    0  0.26935139872E+03 -0.59445817576E+02  0.41383029937E+03  0.50554932105E+03  0.90777850363E+02 0.  0.
        -15    1    4    4    0    0 -0.36033265774E+02  0.55627880116E+02  0.96701653014E+02  0.11723509280E+03  0.00000000000E+00 0. -1.
        -15    1    5    5    0    0  0.20294252937E+03 -0.55000671163E+02  0.23817705282E+03  0.31770906903E+03  0.00000000000E+00 0. -1.
         15    1    4    4    0    0 -0.43483119373E+02 -0.30576298844E+02  0.33951472300E+02  0.63074513021E+02  0.00000000000E+00 0.  1.
         15    1    5    5    0    0  0.66408869358E+02 -0.44451464133E+01  0.17565324655E+03  0.18784025202E+03  0.00000000000E+00 0.  1.
        -16    1    3    3    0    0 -0.97220185127E+02 -0.92821698797E+02 -0.32666370667E+01  0.13445558033E+03  0.00000000000E+00 0.  1.
         16    1    1    2    0    0 -0.61010251212E+02  0.85021606981E+02 -0.78382936202E+01  0.10493980776E+03  0.00000000000E+00 0. -1.
    9900018    1    3    3    0    0 -0.31604577238E+02  0.42194328120E+02  0.10988317110E+03  0.15221268118E+03  0.91187600000E+02 0.  0.
<mgrwt>
<rscale>  0 0.86437813E+03</rscale>
<asrwt>0</asrwt>
<pdfrwt beam="1">  1        2 0.13236374E+00 0.86437813E+03</pdfrwt>
<pdfrwt beam="2">  1       -2 0.33400411E-01 0.86437813E+03</pdfrwt>
<totfact> 0.26219663E+02</totfact>
</mgrwt>
</event>
<event>
12    1  0.1785576E-010  0.8733494E+03  0.7818608E-02  0.9459523E-01
          1   -1    0    0  501    0  0.00000000000E+00  0.00000000000E+00  0.33699773051E+03  0.33699773051E+03  0.00000000000E+00 0. -1.
         -1   -1    0    0    0  501 -0.00000000000E+00 -0.00000000000E+00 -0.56583400072E+03  0.56583400072E+03  0.00000000000E+00 0.  1.
    9900016    2    1    2    0    0 -0.23135110880E+02 -0.82736953072E+02 -0.31440639217E+03  0.78157628793E+03  0.71037277373E+03 0.  0.
         23    2    3    3    0    0 -0.14771150713E+03  0.67687975224E+02 -0.31766186094E+03  0.36758317517E+03  0.88362783122E+02 0.  0.
         23    2    3    3    0    0  0.63660614320E+02  0.65423475112E+01  0.80375787078E+02  0.14021087408E+03  0.95411455989E+02 0.  0.
        -15    1    5    5    0    0  0.36455252163E+02  0.49652208907E+02  0.57761283323E+02  0.84443431425E+02  0.00000000000E+00 0. -1.
        -15    1    4    4    0    0 -0.37235635899E+02  0.48423075536E+02 -0.55862276882E+02  0.82776088356E+02  0.00000000000E+00 0.  1.
         15    1    4    4    0    0 -0.11047587123E+03  0.19264899688E+02 -0.26179958406E+03  0.28480708681E+03  0.00000000000E+00 0. -1.
         15    1    5    5    0    0  0.27205362157E+02 -0.43109861396E+02  0.22614503755E+02  0.55767442651E+02  0.00000000000E+00 0.  1.
        -16    1    3    3    0    0  0.86020766105E+02 -0.38975179187E+02 -0.78115262922E+02  0.12255868429E+03  0.00000000000E+00 0.  1.
         16    1    1    2    0    0  0.23135110880E+02  0.82736953072E+02  0.85570121958E+02  0.12125544330E+03  0.00000000000E+00 0. -1.
    9900018    1    3    3    0    0 -0.25104984178E+02 -0.11799209662E+03  0.99494460929E+00  0.15122355440E+03  0.91187600000E+02 0.  0.
<mgrwt>
<rscale>  0 0.87334936E+03</rscale>
<asrwt>0</asrwt>
<pdfrwt beam="1">  1        1 0.51845806E-01 0.87334936E+03</pdfrwt>
<pdfrwt beam="2">  1       -1 0.87051383E-01 0.87334936E+03</pdfrwt>
<totfact> 0.98798285E+01</totfact>
</mgrwt>
</event>
<event>
12    1  0.1785576E-010  0.1053495E+04  0.7818608E-02  0.9251743E-01
         -2   -1    0    0    0  501 -0.00000000000E+00  0.00000000000E+00  0.21176144625E+03  0.21176144625E+03  0.00000000000E+00 0.  1.
          2   -1    0    0  501    0  0.00000000000E+00 -0.00000000000E+00 -0.13102611185E+04  0.13102611185E+04  0.00000000000E+00 0. -1.
    9900016    2    1    2    0    0 -0.13807131375E+03 -0.15961617703E+03 -0.10751371107E+04  0.13096859901E+04  0.71750719445E+03 0.  0.
         23    2    3    3    0    0  0.26901415159E+02 -0.11712422886E+03 -0.40069271566E+03  0.42809061713E+03  0.90912886708E+02 0.  0.
         23    2    3    3    0    0 -0.24862373097E+03 -0.72634346318E+02 -0.31877215720E+03  0.42045589556E+03  0.89877494613E+02 0.  0.
        -15    1    5    5    0    0 -0.14778865300E+03 -0.32492239981E+02 -0.24918651203E+03  0.29153241568E+03  0.00000000000E+00 0. -1.
        -15    1    4    4    0    0  0.26540500690E+02 -0.63386963686E+02 -0.92416334409E+02  0.11516546447E+03  0.00000000000E+00 0. -1.
         15    1    5    5    0    0 -0.10083507797E+03 -0.40142106338E+02 -0.69585645170E+02  0.12892347988E+03  0.00000000000E+00 0.  1.
         15    1    4    4    0    0  0.36091446921E+00 -0.53737265171E+02 -0.30827638125E+03  0.31292515266E+03  0.00000000000E+00 0.  1.
        -16    1    3    3    0    0 -0.89564185997E+01 -0.54544009092E+02  0.16705333240E+02  0.57743696805E+02  0.00000000000E+00 0.  1.
         16    1    1    2    0    0  0.13807131375E+03  0.15961617703E+03 -0.23362561492E+02  0.21233657464E+03  0.00000000000E+00 0. -1.
    9900018    1    3    3    0    0  0.92607420664E+02  0.84686407234E+02 -0.37237757112E+03  0.40339578059E+03  0.91187600000E+02 0.  0.
<mgrwt>
<rscale>  0 0.10534947E+04</rscale>
<asrwt>0</asrwt>
<pdfrwt beam="1">  1        2 0.20157864E+00 0.10534947E+04</pdfrwt>
<pdfrwt beam="2">  1       -2 0.32578684E-01 0.10534947E+04</pdfrwt>
<totfact> 0.14237567E+02</totfact>
</mgrwt>
</event>
<event>
12    1  0.1785576E-010  0.1220846E+04  0.7818608E-02  0.9094803E-01
         -1   -1    0    0    0  501 -0.00000000000E+00  0.00000000000E+00  0.66906132213E+03  0.66906132213E+03  0.00000000000E+00 0.  1.
          1   -1    0    0  501    0  0.00000000000E+00 -0.00000000000E+00 -0.55692405225E+03  0.55692405225E+03  0.00000000000E+00 0. -1.
    9900016    2    1    2    0    0  0.11605554228E+03 -0.53585591378E+02  0.45778591067E+03  0.85745683088E+03  0.71366937185E+03 0.  0.
         23    2    3    3    0    0 -0.60969239400E+02 -0.18622288758E+03  0.12890979302E+03  0.25168659947E+03  0.91280872087E+02 0.  0.
         23    2    3    3    0    0  0.14664848627E+03 -0.14457841064E+00  0.16029874325E+03  0.23570434424E+03  0.91405970152E+02 0.  0.
        -15    1    5    5    0    0  0.71139571104E+02  0.36317915935E+02  0.11608574965E+03  0.14091036466E+03  0.00000000000E+00 0.  1.
        -15    1    4    4    0    0 -0.76408624400E+02 -0.14944143888E+03  0.73060387922E+02  0.18305420459E+03  0.00000000000E+00 0.  1.
         15    1    5    5    0    0  0.75508915162E+02 -0.36462494346E+02  0.44212993595E+02  0.94793979585E+02  0.00000000000E+00 0. -1.
         15    1    4    4    0    0  0.15439384999E+02 -0.36781448700E+02  0.55849405094E+02  0.68632394880E+02  0.00000000000E+00 0. -1.
        -16    1    3    3    0    0  0.58096518312E+02  0.61629937411E+02  0.22353663790E+03  0.23904410286E+03  0.00000000000E+00 0.  1.
         16    1    1    2    0    0 -0.11605554228E+03  0.53585591378E+02 -0.34564864079E+03  0.36852854350E+03  0.00000000000E+00 0. -1.
    9900018    1    3    3    0    0 -0.27720222899E+02  0.71151937198E+02 -0.54959263499E+02  0.13102178431E+03  0.91187600000E+02 0.  0.
<mgrwt>
<rscale>  0 0.12208462E+04</rscale>
<asrwt>0</asrwt>
<pdfrwt beam="1">  1        1 0.85680624E-01 0.12208462E+04</pdfrwt>
<pdfrwt beam="2">  1       -1 0.10293251E+00 0.12208462E+04</pdfrwt>
<totfact> 0.33598911E+01</totfact>
</mgrwt>
</event>
<event>
12    1  0.1900922E-010  0.9225998E+03  0.7818608E-02  0.9397763E-01
          1   -1    0    0  501    0  0.00000000000E+00  0.00000000000E+00  0.36032855299E+03  0.36032855299E+03  0.00000000000E+00 0. -1.
         -1   -1    0    0    0  501 -0.00000000000E+00 -0.00000000000E+00 -0.59056540243E+03  0.59056540243E+03  0.00000000000E+00 0.  1.
    9900016    2    1    2    0    0  0.10860365500E+03  0.12987971521E+03 -0.26772088115E+03  0.77749110961E+03  0.71003835179E+03 0.  0.
         23    2    3    3    0    0  0.59302126157E+02 -0.24566411043E+03 -0.16979837797E+03  0.31791684863E+03  0.91498831472E+02 0.  0.
         23    2    3    3    0    0  0.79524444589E+02  0.14971808537E+03 -0.91037159612E+01  0.19103955923E+03  0.87599047783E+02 0.  0.
        -15    1    4    4    0    0  0.55346711934E+01 -0.17583604694E+03 -0.84107869552E+02  0.19499508125E+03  0.00000000000E+00 0.  1.
        -15    1    5    5    0    0  0.56713562642E+02  0.26351676794E+02 -0.18541459063E+02  0.65227484709E+02  0.00000000000E+00 0. -1.
         15    1    4    4    0    0  0.53767454964E+02 -0.69828063487E+02 -0.85690508414E+02  0.12292176738E+03  0.00000000000E+00 0. -1.
         15    1    5    5    0    0  0.22810881948E+02  0.12336640858E+03  0.94377431016E+01  0.12581207452E+03  0.00000000000E+00 0.  1.
        -16    1    3    3    0    0 -0.20496697392E+02  0.63584851772E+02 -0.18230917499E+02  0.69249652214E+02  0.00000000000E+00 0.  1.
         16    1    1    2    0    0 -0.10860365500E+03 -0.12987971521E+03  0.37484031707E+02  0.17340284581E+03  0.00000000000E+00 0. -1.
    9900018    1    3    3    0    0 -0.97262183523E+01  0.16224088849E+03 -0.70587869720E+02  0.19928504954E+03  0.91187600000E+02 0.  0.
<mgrwt>
<rscale>  0 0.92259975E+03</rscale>
<asrwt>0</asrwt>
<pdfrwt beam="1">  1        1 0.55435162E-01 0.92259975E+03</pdfrwt>
<pdfrwt beam="2">  1       -1 0.90856215E-01 0.92259975E+03</pdfrwt>
<totfact> 0.82132193E+01</totfact>
</mgrwt>
</event>
<event>
12    1  0.1785576E-010  0.1789297E+04  0.7818608E-02  0.8712012E-01
         -2   -1    0    0    0  501 -0.00000000000E+00  0.00000000000E+00  0.38723918912E+03  0.38723918912E+03  0.00000000000E+00 0. -1.
          2   -1    0    0  501    0  0.00000000000E+00 -0.00000000000E+00 -0.20669292620E+04  0.20669292620E+04  0.00000000000E+00 0.  1.
    9900016    2    1    2    0    0  0.71618300431E+03  0.21295601774E+03 -0.10772838443E+04  0.14943967984E+04  0.71722587003E+03 0.  0.
         23    2    3    3    0    0  0.29454073810E+03  0.23237355484E+03 -0.30360661079E+03  0.49124909407E+03  0.91635052888E+02 0.  0.
         23    2    3    3    0    0  0.22563438100E+03 -0.60073739075E+02 -0.14870203709E+03  0.29149599775E+03  0.91312063048E+02 0.  0.
        -15    1    4    4    0    0  0.23974873744E+03  0.16886789566E+03 -0.27664125179E+03  0.40314539000E+03  0.00000000000E+00 0.  1.
        -15    1    5    5    0    0  0.18246629579E+03 -0.28121272527E+02 -0.72668990712E+02  0.19840750308E+03  0.00000000000E+00 0.  1.
         15    1    4    4    0    0  0.54792000665E+02  0.63505659180E+02 -0.26965359004E+02  0.88103704071E+02  0.00000000000E+00 0. -1.
         15    1    5    5    0    0  0.43168085204E+02 -0.31952466548E+02 -0.76033046377E+02  0.93088494671E+02  0.00000000000E+00 0. -1.
        -16    1    1    2    0    0 -0.71618300431E+03 -0.21295601774E+03 -0.60240622849E+03  0.95977165268E+03  0.00000000000E+00 0.  1.
         16    1    3    3    0    0  0.62464481566E+01  0.93112086157E+02 -0.72737930925E+02  0.11832026580E+03  0.00000000000E+00 0. -1.
    9900018    1    3    3    0    0  0.18976143706E+03 -0.52455884181E+02 -0.55223726554E+03  0.59333144079E+03  0.91187600000E+02 0.  0.
<mgrwt>
<rscale>  0 0.17892971E+04</rscale>
<asrwt>0</asrwt>
<pdfrwt beam="1">  1        2 0.31798912E+00 0.17892971E+04</pdfrwt>
<pdfrwt beam="2">  1       -2 0.59575258E-01 0.17892971E+04</pdfrwt>
<totfact> 0.15232746E+01</totfact>
</mgrwt>
</event>
<event>
12    1  0.1785576E-010  0.8089917E+03  0.7818608E-02  0.9547092E-01
         -2   -1    0    0    0  501 -0.00000000000E+00  0.00000000000E+00  0.90059035484E+02  0.90059035484E+02  0.00000000000E+00 0.  1.
          2   -1    0    0  501    0  0.00000000000E+00 -0.00000000000E+00 -0.18167738661E+04  0.18167738661E+04  0.00000000000E+00 0. -1.
    9900016    2    1    2    0    0 -0.31206482551E+02  0.11643303817E+02 -0.17115753892E+04  0.18702458306E+04  0.75313992240E+03 0.  0.
         23    2    3    3    0    0 -0.94079228133E+02  0.60532801106E+02 -0.18200687021E+03  0.23191167607E+03  0.90229726355E+02 0.  0.
         23    2    3    3    0    0  0.20413014218E+03 -0.21878561686E+03 -0.76919936312E+03  0.83037441069E+03  0.91201648120E+02 0.  0.
        -15    1    4    4    0    0 -0.51125408509E+01  0.26156433752E+02 -0.10785946914E+03  0.11110338511E+03  0.00000000000E+00 0. -1.
        -15    1    5    5    0    0  0.15117897079E+03 -0.13642774320E+03 -0.40596626031E+03  0.45417641378E+03  0.00000000000E+00 0. -1.
         15    1    4    4    0    0 -0.88966687282E+02  0.34376367354E+02 -0.74147401070E+02  0.12080829096E+03  0.00000000000E+00 0.  1.
         15    1    5    5    0    0  0.52951171392E+02 -0.82357873659E+02 -0.36323310281E+03  0.37619799691E+03  0.00000000000E+00 0.  1.
        -16    1    1    2    0    0  0.31206482551E+02 -0.11643303817E+02 -0.15139441336E+02  0.36587070953E+02  0.00000000000E+00 0.  1.
         16    1    3    3    0    0 -0.66523766990E+02  0.89358351698E+02 -0.19245475169E+03  0.22237166645E+03  0.00000000000E+00 0. -1.
    9900018    1    3    3    0    0 -0.74733629613E+02  0.80537767870E+02 -0.56791440422E+03  0.58558807737E+03  0.91187600000E+02 0.  0.
<mgrwt>
<rscale>  0 0.80899172E+03</rscale>
<asrwt>0</asrwt>
<pdfrwt beam="1">  1        2 0.27950363E+00 0.80899172E+03</pdfrwt>
<pdfrwt beam="2">  1       -2 0.13855238E-01 0.80899172E+03</pdfrwt>
<totfact> 0.34335371E+02</totfact>
</mgrwt>
</event>
<event>
12    1  0.1785576E-010  0.9624034E+03  0.7818608E-02  0.9350769E-01
         -1   -1    0    0    0  501 -0.00000000000E+00  0.00000000000E+00  0.12699223009E+03  0.12699223009E+03  0.00000000000E+00 0.  1.
          1   -1    0    0  501    0  0.00000000000E+00 -0.00000000000E+00 -0.18233798427E+04  0.18233798427E+04  0.00000000000E+00 0. -1.
    9900016    2    1    2    0    0 -0.10708983297E+03  0.18608806602E+03 -0.12944659522E+04  0.14946989205E+04  0.71581126063E+03 0.  0.
         23    2    3    3    0    0 -0.20147384716E+03  0.15559617901E+03 -0.50628004017E+03  0.57405809326E+03  0.91767823061E+02 0.  0.
         23    2    3    3    0    0  0.11531990980E+03  0.85010400060E+02 -0.16607978793E+03  0.23763836293E+03  0.91455157669E+02 0.  0.
        -15    1    4    4    0    0 -0.15801003061E+03  0.12880953429E+03 -0.30833120291E+03  0.36963116290E+03  0.00000000000E+00 0.  1.
        -15    1    5    5    0    0  0.31756722154E+02  0.65368390475E+01 -0.10043655704E+03  0.10554014240E+03  0.00000000000E+00 0.  1.
         15    1    5    5    0    0  0.83563187642E+02  0.78473561013E+02 -0.65643230887E+02  0.13209822053E+03  0.00000000000E+00 0. -1.
         15    1    4    4    0    0 -0.43463816548E+02  0.26786644727E+02 -0.19794883726E+03  0.20442693036E+03  0.00000000000E+00 0. -1.
        -16    1    3    3    0    0  0.36279624942E+02 -0.92776285398E+01  0.11148658710E+02  0.39071449529E+02  0.00000000000E+00 0.  1.
         16    1    1    2    0    0  0.10708983297E+03 -0.18608806602E+03 -0.40192166040E+03  0.45567315232E+03  0.00000000000E+00 0. -1.
    9900018    1    3    3    0    0 -0.57215520544E+02 -0.45240884517E+02 -0.63325478282E+03  0.64393101477E+03  0.91187600000E+02 0.  0.
<mgrwt>
<rscale>  0 0.96240339E+03</rscale>
<asrwt>0</asrwt>
<pdfrwt beam="1">  1        1 0.28051998E+00 0.96240339E+03</pdfrwt>
<pdfrwt beam="2">  1       -1 0.19537266E-01 0.96240339E+03</pdfrwt>
<totfact> 0.84231534E+01</totfact>
</mgrwt>
</event>
<event>
12    1  0.1785576E-010  0.1476118E+04  0.7818608E-02  0.8900492E-01
          1   -1    0    0  501    0  0.00000000000E+00  0.00000000000E+00  0.82645619736E+03  0.82645619736E+03  0.00000000000E+00 0. -1.
         -1   -1    0    0    0  501 -0.00000000000E+00 -0.00000000000E+00 -0.65911635091E+03  0.65911635091E+03  0.00000000000E+00 0.  1.
    9900016    2    1    2    0    0  0.35277972851E+03 -0.97190258886E+01  0.55164721786E+03  0.96380617140E+03  0.70714898483E+03 0.  0.
         23    2    3    3    0    0  0.68648623868E+02  0.92280797731E+01  0.65018961493E+02  0.12478464152E+03  0.80907047844E+02 0.  0.
         23    2    3    3    0    0  0.21297626426E+03 -0.19442533523E+03  0.41657191540E+03  0.51595665980E+03  0.97565434355E+02 0.  0.
        -15    1    4    4    0    0  0.53049777868E+01 -0.21280458937E+02  0.47512472325E+02  0.52330065434E+02  0.00000000000E+00 0. -1.
        -15    1    5    5    0    0  0.21785414667E+02 -0.37671735337E+02  0.13198837651E+03  0.13897731998E+03  0.00000000000E+00 0.  1.
         15    1    5    5    0    0  0.19119084960E+03 -0.15675359989E+03  0.28458353889E+03  0.37697933983E+03  0.00000000000E+00 0. -1.
         15    1    4    4    0    0  0.63343646082E+02  0.30508538710E+02  0.17506489168E+02  0.72454576088E+02  0.00000000000E+00 0.  1.
        -16    1    1    2    0    0 -0.35277972851E+03  0.97190258886E+01 -0.38430737141E+03  0.52176637687E+03  0.00000000000E+00 0.  1.
         16    1    3    3    0    0 -0.11412423115E+01  0.15963916416E+03 -0.37305775018E+02  0.16394415518E+03  0.00000000000E+00 0. -1.
    9900018    1    3    3    0    0  0.72296082689E+02  0.15839065411E+02  0.10736211599E+03  0.15912071490E+03  0.91187600000E+02 0.  0.
<mgrwt>
<rscale>  0 0.14761176E+04</rscale>
<asrwt>0</asrwt>
<pdfrwt beam="1">  1        1 0.12714711E+00 0.14761176E+04</pdfrwt>
<pdfrwt beam="2">  1       -1 0.10140252E+00 0.14761176E+04</pdfrwt>
<totfact> 0.18771115E+01</totfact>
</mgrwt>
</event>
<event>
12    1  0.1785576E-010  0.8875301E+03  0.7818608E-02  0.9441305E-01
         -2   -1    0    0    0  501 -0.00000000000E+00  0.00000000000E+00  0.21899063831E+03  0.21899063831E+03  0.00000000000E+00 0.  1.
          2   -1    0    0  501    0  0.00000000000E+00 -0.00000000000E+00 -0.89925049431E+03  0.89925049431E+03  0.00000000000E+00 0. -1.
    9900016    2    1    2    0    0 -0.31344811125E+02 -0.62407885903E+02 -0.36766085635E+03  0.79793600311E+03  0.70473407634E+03 0.  0.
         23    2    3    3    0    0 -0.15196336053E+03 -0.81731651073E+02 -0.27494691691E+03  0.33733926555E+03  0.91809842785E+02 0.  0.
         23    2    3    3    0    0  0.12179507910E+03  0.74294353739E+02  0.11760159273E+02  0.16982399562E+03  0.91368462020E+02 0.  0.
        -15    1    4    4    0    0 -0.10626685192E+03 -0.77643323900E+02 -0.12875274921E+03  0.18411518132E+03  0.00000000000E+00 0. -1.
        -15    1    5    5    0    0  0.11935719231E+03  0.64117679041E+02 -0.19476081065E+02  0.13688145913E+03  0.00000000000E+00 0. -1.
         15    1    4    4    0    0 -0.45696508606E+02 -0.40883271739E+01 -0.14619416770E+03  0.15322408423E+03  0.00000000000E+00 0.  1.
         15    1    5    5    0    0  0.24378867975E+01  0.10176674699E+02  0.31236240338E+02  0.32942536490E+02  0.00000000000E+00 0.  1.
        -16    1    3    3    0    0 -0.48829752658E+02  0.44149580482E+02  0.48268084810E+02  0.81629273013E+02  0.00000000000E+00 0.  1.
         16    1    1    2    0    0  0.31344811125E+02  0.62407885903E+02 -0.31259899966E+03  0.32030512951E+03  0.00000000000E+00 0. -1.
    9900018    1    3    3    0    0  0.47653222959E+02 -0.99120169051E+02 -0.15274218353E+03  0.20914346892E+03  0.91187600000E+02 0.  0.
<mgrwt>
<rscale>  0 0.88753015E+03</rscale>
<asrwt>0</asrwt>
<pdfrwt beam="1">  1        2 0.13834623E+00 0.88753015E+03</pdfrwt>
<pdfrwt beam="2">  1       -2 0.33690867E-01 0.88753015E+03</pdfrwt>
<totfact> 0.24234715E+02</totfact>
</mgrwt>
</event>
<event>
12    1  0.1785576E-010  0.1072533E+04  0.7818608E-02  0.9232384E-01
         -2   -1    0    0    0  501 -0.00000000000E+00  0.00000000000E+00  0.33481919404E+03  0.33481919404E+03  0.00000000000E+00 0.  1.
          2   -1    0    0  501    0  0.00000000000E+00 -0.00000000000E+00 -0.85891692264E+03  0.85891692264E+03  0.00000000000E+00 0. -1.
    9900016    2    1    2    0    0  0.34885728849E+01 -0.59508093463E+02 -0.71067409018E+03  0.99786850316E+03  0.69794735031E+03 0.  0.
         23    2    3    3    0    0 -0.11066948951E+03 -0.47056019924E+02 -0.68094293484E+02  0.16577777833E+03  0.91561094700E+02 0.  0.
         23    2    3    3    0    0  0.10268686629E+03  0.10285438293E+02 -0.15656050371E+03  0.20850784314E+03  0.91180845462E+02 0.  0.
        -15    1    5    5    0    0  0.57050863882E+02 -0.39546018660E+02 -0.89995095340E+02  0.11365652576E+03  0.00000000000E+00 0. -1.
        -15    1    4    4    0    0 -0.37793057836E+01 -0.17414600295E+02  0.18025664573E+02  0.25347111056E+02  0.00000000000E+00 0. -1.
         15    1    4    4    0    0 -0.10689018372E+03 -0.29641419630E+02 -0.86119958057E+02  0.14043066727E+03  0.00000000000E+00 0.  1.
         15    1    5    5    0    0  0.45636002411E+02  0.49831456954E+02 -0.66565408373E+02  0.94851317388E+02  0.00000000000E+00 0.  1.
        -16    1    1    2    0    0 -0.34885728849E+01  0.59508093463E+02  0.18657636158E+03  0.19586761352E+03  0.00000000000E+00 0.  1.
         16    1    3    3    0    0 -0.59949312726E+02 -0.18242968009E+03 -0.26603043112E+03  0.32809556314E+03  0.00000000000E+00 0. -1.
    9900018    1    3    3    0    0  0.71420508824E+02  0.15969216826E+03 -0.21998886186E+03  0.29548731855E+03  0.91187600000E+02 0.  0.
<mgrwt>
<rscale>  0 0.10725332E+04</rscale>
<asrwt>0</asrwt>
<pdfrwt beam="1">  1        2 0.13214106E+00 0.10725332E+04</pdfrwt>
<pdfrwt beam="2">  1       -2 0.51510646E-01 0.10725332E+04</pdfrwt>
<totfact> 0.11077655E+02</totfact>
</mgrwt>
</event>
<event>
12    1  0.1785576E-010  0.2133501E+04  0.7818608E-02  0.8546628E-01
          1   -1    0    0  501    0  0.00000000000E+00  0.00000000000E+00  0.10584557348E+04  0.10584557348E+04  0.00000000000E+00 0. -1.
         -1   -1    0    0    0  501 -0.00000000000E+00 -0.00000000000E+00 -0.10751104828E+04  0.10751104828E+04  0.00000000000E+00 0.  1.
    9900016    2    1    2    0    0  0.11746077973E+02 -0.37342846763E+03 -0.87955253759E+03  0.11932580840E+04  0.71460856269E+03 0.  0.
         23    2    3    3    0    0 -0.13590053631E+03  0.96928493845E+02 -0.15284334927E+03  0.24426722317E+03  0.91876537855E+02 0.  0.
         23    2    3    3    0    0  0.89606466125E+02 -0.17707609182E+03 -0.12060803558E+03  0.24985922191E+03  0.92184985003E+02 0.  0.
        -15    1    5    5    0    0  0.54711504910E+02 -0.22533355589E+02 -0.21364652417E+02  0.62909055442E+02  0.00000000000E+00 0. -1.
        -15    1    4    4    0    0 -0.20513611883E+02  0.66119236764E+02 -0.73004955054E+02  0.10060956816E+03  0.00000000000E+00 0. -1.
         15    1    5    5    0    0  0.34894961215E+02 -0.15454273623E+03 -0.99243383163E+02  0.18695016647E+03  0.00000000000E+00 0.  1.
         15    1    4    4    0    0 -0.11538692443E+03  0.30809257081E+02 -0.79838394221E+02  0.14365765501E+03  0.00000000000E+00 0.  1.
        -16    1    3    3    0    0  0.62702672885E+02 -0.11956258144E+03 -0.35920809279E+03  0.38374117578E+03  0.00000000000E+00 0.  1.
         16    1    1    2    0    0 -0.11746077973E+02  0.37342846763E+03  0.86289778964E+03  0.94030813362E+03  0.00000000000E+00 0. -1.
    9900018    1    3    3    0    0 -0.46625247247E+01 -0.17371828822E+03 -0.24689305995E+03  0.31539046314E+03  0.91187600000E+02 0.  0.
<mgrwt>
<rscale>  0 0.21335012E+04</rscale>
<asrwt>0</asrwt>
<pdfrwt beam="1">  1        1 0.16283934E+00 0.21335012E+04</pdfrwt>
<pdfrwt beam="2">  1       -1 0.16540161E+00 0.21335012E+04</pdfrwt>
<totfact> 0.33276963E+00</totfact>
</mgrwt>
</event>
<event>
12    1  0.1785576E-010  0.1479696E+04  0.7818608E-02  0.8898068E-01
         -2   -1    0    0    0  501 -0.00000000000E+00  0.00000000000E+00  0.18259380206E+03  0.18259380206E+03  0.00000000000E+00 0.  1.
          2   -1    0    0  501    0  0.00000000000E+00 -0.00000000000E+00 -0.29977734624E+04  0.29977734624E+04  0.00000000000E+00 0. -1.
    9900016    2    1    2    0    0 -0.18075293750E+03 -0.29280530326E+03 -0.26985178595E+04  0.28170264523E+04  0.73159608035E+03 0.  0.
         23    2    3    3    0    0 -0.52638902505E+02 -0.15583516652E+03 -0.39617972226E+03  0.43856005180E+03  0.91220028069E+02 0.  0.
         23    2    3    3    0    0 -0.17536424801E+02  0.79492112910E+02 -0.17983335956E+03  0.21802593316E+03  0.92567532681E+02 0.  0.
        -15    1    4    4    0    0 -0.82708412108E+01 -0.72452798364E+02 -0.78537792452E+02  0.10717275609E+03  0.00000000000E+00 0.  1.
        -15    1    5    5    0    0 -0.44170086288E+02  0.49456759569E+02 -0.16011247984E+03  0.17330024175E+03  0.00000000000E+00 0.  1.
         15    1    4    4    0    0 -0.44368061294E+02 -0.83382368153E+02 -0.31764192981E+03  0.33138729571E+03  0.00000000000E+00 0. -1.
         15    1    5    5    0    0  0.26633661486E+02  0.30035353341E+02 -0.19720879719E+02  0.44725691402E+02  0.00000000000E+00 0. -1.
        -16    1    1    2    0    0  0.18075293750E+03  0.29280530326E+03 -0.11666180087E+03  0.36334081221E+03  0.00000000000E+00 0.  1.
         16    1    3    3    0    0 -0.15024643956E+02  0.34505609535E+02 -0.10620900686E+04  0.10627566470E+04  0.00000000000E+00 0. -1.
    9900018    1    3    3    0    0 -0.95552966233E+02 -0.25096785919E+03 -0.10604147091E+04  0.10976838203E+04  0.91187600000E+02 0.  0.
<mgrwt>
<rscale>  0 0.14796957E+04</rscale>
<asrwt>0</asrwt>
<pdfrwt beam="1">  1        2 0.46119592E+00 0.14796957E+04</pdfrwt>
<pdfrwt beam="2">  1       -2 0.28091354E-01 0.14796957E+04</pdfrwt>
<totfact> 0.19735712E+01</totfact>
</mgrwt>
</event>
<event>
12    1  0.1785576E-010  0.8384227E+03  0.7818608E-02  0.9506009E-01
         -2   -1    0    0    0  501 -0.00000000000E+00  0.00000000000E+00  0.50528315294E+03  0.50528315294E+03  0.00000000000E+00 0.  1.
          2   -1    0    0  501    0  0.00000000000E+00 -0.00000000000E+00 -0.34780130984E+03  0.34780130984E+03  0.00000000000E+00 0. -1.
    9900016    2    1    2    0    0 -0.52089463230E+02 -0.37147682588E+02  0.23448652807E+03  0.75296960869E+03  0.71266123598E+03 0.  0.
         23    2    3    3    0    0 -0.11454923269E+03  0.92539593387E+02  0.14399663728E+03  0.22545079111E+03  0.91694736003E+02 0.  0.
         23    2    3    3    0    0  0.77324802158E+02  0.20070504154E+02 -0.76504562481E+02  0.14320660668E+03  0.90957319385E+02 0.  0.
        -15    1    5    5    0    0  0.73408112798E+02  0.51079809295E+02 -0.61496720546E+02  0.10853453174E+03  0.00000000000E+00 0.  1.
        -15    1    4    4    0    0 -0.44767140140E+02  0.92373952736E+02  0.97665553561E+02  0.14168840578E+03  0.00000000000E+00 0. -1.
         15    1    4    4    0    0 -0.69782092552E+02  0.16564065083E+00  0.46331083717E+02  0.83762385330E+02  0.00000000000E+00 0.  1.
         15    1    5    5    0    0  0.39166893599E+01 -0.31009305141E+02 -0.15007841935E+02  0.34672074937E+02  0.00000000000E+00 0. -1.
        -16    1    3    3    0    0  0.13274494707E+03 -0.56762095780E+02  0.10288414349E+03  0.17728029634E+03  0.00000000000E+00 0.  1.
         16    1    1    2    0    0  0.52089463230E+02  0.37147682588E+02 -0.77004684969E+02  0.10011485408E+03  0.00000000000E+00 0. -1.
    9900018    1    3    3    0    0 -0.14760997976E+03 -0.92995684348E+02  0.64110309782E+02  0.20703191456E+03  0.91187600000E+02 0.  0.
<mgrwt>
<rscale>  0 0.83842267E+03</rscale>
<asrwt>0</asrwt>
<pdfrwt beam="1">  1        2 0.53507893E-01 0.83842267E+03</pdfrwt>
<pdfrwt beam="2">  1       -2 0.77735870E-01 0.83842267E+03</pdfrwt>
<totfact> 0.13808205E+02</totfact>
</mgrwt>
</event>
<event>
12    1  0.1785576E-010  0.1559812E+04  0.7818608E-02  0.8845624E-01
         -1   -1    0    0    0  501 -0.00000000000E+00  0.00000000000E+00  0.10693572383E+04  0.10693572383E+04  0.00000000000E+00 0.  1.
          1   -1    0    0  501    0  0.00000000000E+00 -0.00000000000E+00 -0.56880311938E+03  0.56880311938E+03  0.00000000000E+00 0. -1.
    9900016    2    1    2    0    0  0.26078400246E+03 -0.82586194355E+02  0.88328429008E+03  0.11677231574E+04  0.71313214750E+03 0.  0.
         23    2    3    3    0    0 -0.17849403586E+02 -0.96698753896E+02  0.21470641397E+03  0.25398887005E+03  0.93500009057E+02 0.  0.
         23    2    3    3    0    0  0.15063745329E+03  0.14450241470E+02  0.54295779100E+03  0.57108773639E+03  0.91856344542E+02 0.  0.
        -15    1    5    5    0    0  0.15110903437E+03 -0.10864962088E+02  0.45507850040E+03  0.47963364060E+03  0.00000000000E+00 0.  1.
        -15    1    4    4    0    0  0.34367585425E+02 -0.57249874253E+02  0.13692293397E+03  0.15233702398E+03  0.00000000000E+00 0. -1.
         15    1    5    5    0    0 -0.47158107952E+00  0.25315203559E+02  0.87879290596E+02  0.91454095783E+02  0.00000000000E+00 0. -1.
         15    1    4    4    0    0 -0.52216989011E+02 -0.39448879643E+02  0.77783480005E+02  0.10165184606E+03  0.00000000000E+00 0.  1.
        -16    1    3    3    0    0  0.12580796489E+03  0.56793454073E+02 -0.41261406010E+02  0.14406819247E+03  0.00000000000E+00 0.  1.
         16    1    1    2    0    0 -0.26078400246E+03  0.82586194355E+02 -0.38273017119E+03  0.47043720025E+03  0.00000000000E+00 0. -1.
    9900018    1    3    3    0    0  0.21879878720E+01 -0.57131136003E+02  0.16688149112E+03  0.19857835850E+03  0.91187600000E+02 0.  0.
<mgrwt>
<rscale>  0 0.15598125E+04</rscale>
<asrwt>0</asrwt>
<pdfrwt beam="1">  1        1 0.87508173E-01 0.15598125E+04</pdfrwt>
<pdfrwt beam="2">  1       -1 0.16451650E+00 0.15598125E+04</pdfrwt>
<totfact> 0.96198622E+00</totfact>
</mgrwt>
</event>
<event>
12    1  0.1785576E-010  0.1896028E+04  0.7818608E-02  0.8656836E-01
          1   -1    0    0  501    0  0.00000000000E+00  0.00000000000E+00  0.83087510901E+03  0.83087510901E+03  0.00000000000E+00 0. -1.
         -1   -1    0    0    0  501 -0.00000000000E+00 -0.00000000000E+00 -0.10816679990E+04  0.10816679990E+04  0.00000000000E+00 0.  1.
    9900016    2    1    2    0    0 -0.13285870472E+03  0.39106676246E+03  0.56774679867E+03  0.99570513429E+03  0.70605073396E+03 0.  0.
         23    2    3    3    0    0  0.46872374727E+02  0.10808021438E+03  0.16643552066E+03  0.22391759147E+03  0.92520013927E+02 0.  0.
         23    2    3    3    0    0 -0.91519427622E+02  0.39684537948E+03  0.24559837853E+03  0.48405731945E+03  0.90171304322E+02 0.  0.
        -15    1    5    5    0    0 -0.86199159827E+02  0.20066669359E+03  0.15557695033E+03  0.26814474551E+03  0.00000000000E+00 0. -1.
        -15    1    4    4    0    0  0.54958888509E+02  0.24658889637E+02  0.40297971309E+02  0.72473903965E+02  0.00000000000E+00 0. -1.
         15    1    5    5    0    0 -0.53202677952E+01  0.19617868589E+03  0.90021428204E+02  0.21591257394E+03  0.00000000000E+00 0.  1.
         15    1    4    4    0    0 -0.80865137824E+01  0.83421324748E+02  0.12613754935E+03  0.15144368750E+03  0.00000000000E+00 0.  1.
        -16    1    1    2    0    0  0.13285870472E+03 -0.39106676246E+03 -0.81853968863E+03  0.91683797368E+03  0.00000000000E+00 0.  1.
         16    1    3    3    0    0  0.23273157944E+02 -0.92295324852E+02  0.75325771711E+02  0.12138384882E+03  0.00000000000E+00 0. -1.
    9900018    1    3    3    0    0 -0.11148480977E+03 -0.21563506557E+02  0.80387127767E+02  0.16634637456E+03  0.91187600000E+02 0.  0.
<mgrwt>
<rscale>  0 0.18960285E+04</rscale>
<asrwt>0</asrwt>
<pdfrwt beam="1">  1        1 0.12782694E+00 0.18960285E+04</pdfrwt>
<pdfrwt beam="2">  1       -1 0.16641046E+00 0.18960285E+04</pdfrwt>
<totfact> 0.50902739E+00</totfact>
</mgrwt>
</event>
<event>
12    1  0.1785576E-010  0.1050733E+04  0.7818608E-02  0.9254588E-01
          1   -1    0    0  501    0  0.00000000000E+00  0.00000000000E+00  0.45804480963E+03  0.45804480963E+03  0.00000000000E+00 0. -1.
         -1   -1    0    0    0  501 -0.00000000000E+00 -0.00000000000E+00 -0.60258238398E+03  0.60258238398E+03  0.00000000000E+00 0.  1.
    9900016    2    1    2    0    0  0.18146383555E+03  0.22902860023E+03 -0.97251362415E+02  0.76462177276E+03  0.69986098945E+03 0.  0.
         23    2    3    3    0    0 -0.27141429245E+02 -0.38397155122E+02  0.10222595158E+03  0.14329971780E+03  0.88733675918E+02 0.  0.
         23    2    3    3    0    0 -0.74471327265E+02  0.24104320374E+02 -0.15220909892E+03  0.19464248966E+03  0.92688144573E+02 0.  0.
        -15    1    5    5    0    0 -0.13638281340E+02  0.35587482125E+02 -0.97878002465E+01  0.39348095705E+02  0.00000000000E+00 0.  1.
        -15    1    4    4    0    0 -0.16047225542E+02 -0.67310985991E+02  0.65794628999E+02  0.95484111180E+02  0.00000000000E+00 0.  1.
         15    1    4    4    0    0 -0.11094203704E+02  0.28913830869E+02  0.36431322585E+02  0.47815606622E+02  0.00000000000E+00 0. -1.
         15    1    5    5    0    0 -0.60833045925E+02 -0.11483161751E+02 -0.14242129867E+03  0.15529439396E+03  0.00000000000E+00 0. -1.
        -16    1    3    3    0    0 -0.62287622119E+01 -0.20716480866E+02 -0.57704043637E+01  0.22389006782E+02  0.00000000000E+00 0.  1.
         16    1    1    2    0    0 -0.18146383555E+03 -0.22902860023E+03 -0.47286211934E+02  0.29600542086E+03  0.00000000000E+00 0. -1.
    9900018    1    3    3    0    0  0.28930535428E+03  0.26403791584E+03 -0.41497810718E+02  0.40429055851E+03  0.91187600000E+02 0.  0.
<mgrwt>
<rscale>  0 0.10507326E+04</rscale>
<asrwt>0</asrwt>
<pdfrwt beam="1">  1        1 0.70468433E-01 0.10507326E+04</pdfrwt>
<pdfrwt beam="2">  1       -1 0.92704982E-01 0.10507326E+04</pdfrwt>
<totfact> 0.56548247E+01</totfact>
</mgrwt>
</event>
<event>
12    1  0.1785576E-010  0.7832505E+03  0.7818608E-02  0.9584583E-01
          1   -1    0    0  501    0  0.00000000000E+00  0.00000000000E+00  0.18873562492E+04  0.18873562492E+04  0.00000000000E+00 0. -1.
         -1   -1    0    0    0  501 -0.00000000000E+00 -0.00000000000E+00 -0.81262001866E+02  0.81262001866E+02  0.00000000000E+00 0.  1.
    9900016    2    1    2    0    0  0.34386242034E+00 -0.73765101951E+02  0.16508766705E+04  0.17967639387E+04  0.70535484819E+03 0.  0.
         23    2    3    3    0    0  0.96888589185E+02  0.54786943806E+02  0.15256855468E+03  0.20933977961E+03  0.90315953863E+02 0.  0.
         23    2    3    3    0    0 -0.15466020253E+03  0.26871646471E+02  0.33724503659E+03  0.38317975379E+03  0.91927391907E+02 0.  0.
        -15    1    5    5    0    0 -0.11849441280E+03  0.49564118930E+02  0.30068676761E+03  0.32697103842E+03  0.00000000000E+00 0.  1.
        -15    1    4    4    0    0  0.58702094210E+02  0.43962683528E+02  0.27835596155E+02  0.78444080854E+02  0.00000000000E+00 0.  1.
         15    1    5    5    0    0 -0.36165789729E+02 -0.22692472460E+02  0.36558268977E+02  0.56208715371E+02  0.00000000000E+00 0. -1.
         15    1    4    4    0    0  0.38186494975E+02  0.10824260277E+02  0.12473295853E+03  0.13089569875E+03  0.00000000000E+00 0. -1.
        -16    1    1    2    0    0 -0.34386242034E+00  0.73765101951E+02  0.15521757690E+03  0.17185431239E+03  0.00000000000E+00 0.  1.
         16    1    3    3    0    0  0.13822663243E+03 -0.10830802649E+03  0.83257958958E+03  0.85089717563E+03  0.00000000000E+00 0. -1.
    9900018    1    3    3    0    0 -0.80111156663E+02 -0.47115665732E+02  0.32848348963E+03  0.35334722969E+03  0.91187600000E+02 0.  0.
<mgrwt>
<rscale>  0 0.78325053E+03</rscale>
<asrwt>0</asrwt>
<pdfrwt beam="1">  1        1 0.29036247E+00 0.78325053E+03</pdfrwt>
<pdfrwt beam="2">  1       -1 0.12501848E-01 0.78325053E+03</pdfrwt>
<totfact> 0.16077201E+02</totfact>
</mgrwt>
</event>
<event>
12    1  0.1785576E-010  0.1240841E+04  0.7818608E-02  0.9077841E-01
          2   -1    0    0  501    0  0.00000000000E+00  0.00000000000E+00  0.66730517545E+03  0.66730517545E+03  0.00000000000E+00 0. -1.
         -2   -1    0    0    0  501 -0.00000000000E+00 -0.00000000000E+00 -0.57683021640E+03  0.57683021640E+03  0.00000000000E+00 0.  1.
    9900016    2    1    2    0    0 -0.42793576233E+02 -0.84802389076E+02 -0.34645572593E+03  0.79699876973E+03  0.71144411836E+03 0.  0.
         23    2    3    3    0    0 -0.12250412827E+02  0.80102768278E+02  0.61606329533E+02  0.13379505880E+03  0.86828865133E+02 0.  0.
         23    2    3    3    0    0 -0.18580880260E+02  0.16824992866E+02 -0.24134940024E+03  0.25924530620E+03  0.91270292513E+02 0.  0.
        -15    1    5    5    0    0 -0.41537430229E+02 -0.20648443084E+02 -0.16233262169E+03  0.16883008138E+03  0.00000000000E+00 0.  1.
        -15    1    4    4    0    0 -0.48853539015E+02  0.40685492793E+02  0.23105180856E+02  0.67644859232E+02  0.00000000000E+00 0.  1.
         15    1    5    5    0    0  0.22956549969E+02  0.37473435950E+02 -0.79016778548E+02  0.90415224827E+02  0.00000000000E+00 0. -1.
         15    1    4    4    0    0  0.36603126188E+02  0.39417275485E+02  0.38501148677E+02  0.66150199568E+02  0.00000000000E+00 0. -1.
        -16    1    3    3    0    0  0.10971339244E+03 -0.87750652622E+02 -0.17572288368E+03  0.22497941543E+03  0.00000000000E+00 0.  1.
         16    1    1    2    0    0  0.42793576233E+02  0.84802389076E+02  0.43693068498E+03  0.44713662212E+03  0.00000000000E+00 0. -1.
    9900018    1    3    3    0    0 -0.12167567559E+03 -0.93979497598E+02  0.90102284565E+01  0.17897898930E+03  0.91187600000E+02 0.  0.
<mgrwt>
<rscale>  0 0.12408413E+04</rscale>
<asrwt>0</asrwt>
<pdfrwt beam="1">  1        2 0.10266233E+00 0.12408413E+04</pdfrwt>
<pdfrwt beam="2">  1       -2 0.88743111E-01 0.12408413E+04</pdfrwt>
<totfact> 0.46768904E+01</totfact>
</mgrwt>
</event>
<event>
12    1  0.1785576E-010  0.1275172E+04  0.7818608E-02  0.9049489E-01
         -1   -1    0    0    0  501 -0.00000000000E+00  0.00000000000E+00  0.68725264996E+03  0.68725264996E+03  0.00000000000E+00 0.  1.
          1   -1    0    0  501    0  0.00000000000E+00 -0.00000000000E+00 -0.59150876551E+03  0.59150876551E+03  0.00000000000E+00 0. -1.
    9900016    2    1    2    0    0  0.35480080021E+03 -0.19285562014E+03 -0.12340351559E+03  0.81930251525E+03  0.70210489656E+03 0.  0.
         23    2    3    3    0    0  0.25593778478E+03 -0.22324249511E+02 -0.21915305770E+02  0.27375777934E+03  0.91981081383E+02 0.  0.
         23    2    3    3    0    0  0.83991345976E+02 -0.62719427894E+02 -0.11507863608E+03  0.18027401358E+03  0.90924994666E+02 0.  0.
        -15    1    5    5    0    0  0.65119459037E+02 -0.80839630174E+02 -0.61518063430E+02  0.12066508144E+03  0.00000000000E+00 0.  1.
        -15    1    4    4    0    0  0.14354461958E+03 -0.57885868781E+02 -0.17852237241E+02  0.15580286900E+03  0.00000000000E+00 0. -1.
         15    1    5    5    0    0  0.18871886939E+02  0.18120202279E+02 -0.53560572654E+02  0.59608932135E+02  0.00000000000E+00 0. -1.
         15    1    4    4    0    0  0.11239316520E+03  0.35561619270E+02 -0.40630685287E+01  0.11795491034E+03  0.00000000000E+00 0.  1.
        -16    1    1    2    0    0 -0.35480080021E+03  0.19285562014E+03  0.21914740005E+03  0.45945890023E+03  0.00000000000E+00 0.  1.
         16    1    3    3    0    0 -0.15230635726E+03 -0.24847038065E+02 -0.17229116422E+02  0.15527860192E+03  0.00000000000E+00 0. -1.
    9900018    1    3    3    0    0  0.16717802672E+03 -0.82964904668E+02  0.30819542681E+02  0.20999212040E+03  0.91187600000E+02 0.  0.
<mgrwt>
<rscale>  0 0.12751721E+04</rscale>
<asrwt>0</asrwt>
<pdfrwt beam="1">  1        1 0.91001349E-01 0.12751721E+04</pdfrwt>
<pdfrwt beam="2">  1       -1 0.10573118E+00 0.12751721E+04</pdfrwt>
<totfact> 0.28842188E+01</totfact>
</mgrwt>
</event>
<event>
12    1  0.1785576E-010  0.9761154E+03  0.7818608E-02  0.9335136E-01
          2   -1    0    0  501    0  0.00000000000E+00  0.00000000000E+00  0.41140620989E+03  0.41140620989E+03  0.00000000000E+00 0.  1.
         -2   -1    0    0    0  501 -0.00000000000E+00 -0.00000000000E+00 -0.57899058936E+03  0.57899058936E+03  0.00000000000E+00 0. -1.
    9900016    2    1    2    0    0 -0.47403158394E+02  0.69484121984E+02  0.88608416093E+02  0.72074915671E+03  0.71031879664E+03 0.  0.
         23    2    3    3    0    0  0.81765799204E+02  0.42932016187E+02 -0.22049425751E+02  0.13258388539E+03  0.92539210914E+02 0.  0.
         23    2    3    3    0    0  0.11257972961E+03 -0.14346845770E+03 -0.47484331571E+02  0.20896472108E+03  0.90300050046E+02 0.  0.
        -15    1    4    4    0    0 -0.19835549262E+02  0.21146941272E+01 -0.10332100740E+02  0.22464933819E+02  0.00000000000E+00 0. -1.
        -15    1    5    5    0    0  0.83632813853E+02 -0.72820011572E+02  0.12876263692E+02  0.11163780634E+03  0.00000000000E+00 0.  1.
         15    1    5    5    0    0  0.28946915754E+02 -0.70648446132E+02 -0.60360595263E+02  0.97326914741E+02  0.00000000000E+00 0. -1.
         15    1    4    4    0    0  0.10160134847E+03  0.40817322060E+02 -0.11717325011E+02  0.11011895157E+03  0.00000000000E+00 0.  1.
        -16    1    3    3    0    0 -0.16583046300E+03  0.11549991409E+03  0.46427673479E+02  0.20735356635E+03  0.00000000000E+00 0.  1.
         16    1    1    2    0    0  0.47403158394E+02 -0.69484121984E+02 -0.25619279556E+03  0.26964764255E+03  0.00000000000E+00 0. -1.
    9900018    1    3    3    0    0 -0.75918224206E+02  0.54520649411E+02  0.11171449994E+03  0.17184698388E+03  0.91187600000E+02 0.  0.
<mgrwt>
<rscale>  0 0.97611541E+03</rscale>
<asrwt>0</asrwt>
<pdfrwt beam="1">  1        2 0.63293263E-01 0.97611541E+03</pdfrwt>
<pdfrwt beam="2">  1       -2 0.89075475E-01 0.97611541E+03</pdfrwt>
<totfact> 0.83381547E+01</totfact>
</mgrwt>
</event>
<event>
12    1  0.1785576E-010  0.9669412E+03  0.7818608E-02  0.9345565E-01
          1   -1    0    0  501    0  0.00000000000E+00  0.00000000000E+00  0.31434356094E+04  0.31434356094E+04  0.00000000000E+00 0. -1.
         -1   -1    0    0    0  501 -0.00000000000E+00 -0.00000000000E+00 -0.74359351261E+02  0.74359351261E+02  0.00000000000E+00 0.  1.
    9900016    2    1    2    0    0 -0.56048688912E+02  0.19086959609E+03  0.26770515499E+04  0.27781860093E+04  0.71563946459E+03 0.  0.
         23    2    3    3    0    0 -0.19856504915E+03 -0.19529548818E+02  0.61726368452E+03  0.65490555660E+03  0.89874077604E+02 0.  0.
         23    2    3    3    0    0  0.63733179992E+02  0.10944544908E+03  0.50905517669E+03  0.53283164390E+03  0.93446044706E+02 0.  0.
        -15    1    4    4    0    0 -0.90717613668E+02 -0.72422592860E+01  0.42003400685E+03  0.42977983045E+03  0.00000000000E+00 0.  1.
        -15    1    5    5    0    0  0.72457304323E+02  0.46067433695E+02  0.36897951681E+03  0.37883789835E+03  0.00000000000E+00 0.  1.
         15    1    5    5    0    0 -0.87241243316E+01  0.63378015386E+02  0.14007565988E+03  0.15399374555E+03  0.00000000000E+00 0. -1.
         15    1    4    4    0    0 -0.10784743548E+03 -0.12287289532E+02  0.19722967766E+03  0.22512572615E+03  0.00000000000E+00 0. -1.
        -16    1    1    2    0    0  0.56048688912E+02 -0.19086959609E+03  0.39202470831E+03  0.43960895142E+03  0.00000000000E+00 0.  1.
         16    1    3    3    0    0 -0.49099824283E+02  0.77427798134E+01  0.11383070219E+04  0.11393917761E+04  0.00000000000E+00 0. -1.
    9900018    1    3    3    0    0  0.12788300453E+03  0.93210916015E+02  0.41242566675E+03  0.45105703265E+03  0.91187600000E+02 0.  0.
<mgrwt>
<rscale>  0 0.96694122E+03</rscale>
<asrwt>0</asrwt>
<pdfrwt beam="1">  1        1 0.48360538E+00 0.96694122E+03</pdfrwt>
<pdfrwt beam="2">  1       -1 0.11439903E-01 0.96694122E+03</pdfrwt>
<totfact> 0.24669370E+01</totfact>
</mgrwt>
</event>
<event>
12    1  0.1785576E-010  0.1031212E+04  0.7818608E-02  0.9274959E-01
          2   -1    0    0  501    0  0.00000000000E+00  0.00000000000E+00  0.52157410538E+03  0.52157410538E+03  0.00000000000E+00 0. -1.
         -2   -1    0    0    0  501 -0.00000000000E+00 -0.00000000000E+00 -0.50970640298E+03  0.50970640298E+03  0.00000000000E+00 0.  1.
    9900016    2    1    2    0    0 -0.23667868468E+03  0.47509738064E+02 -0.11483010893E+03  0.75865198750E+03  0.70999500648E+03 0.  0.
         23    2    3    3    0    0 -0.38422770249E+02  0.11254216081E+03  0.82011631135E+02  0.17040743487E+03  0.90392140058E+02 0.  0.
         23    2    3    3    0    0 -0.15033193242E+03 -0.84247396386E+02 -0.13737986569E+03  0.23877892310E+03  0.91895772020E+02 0.  0.
        -15    1    5    5    0    0 -0.15756149958E+03 -0.71419018361E+02 -0.10289105109E+03  0.20127809302E+03  0.00000000000E+00 0.  1.
        -15    1    4    4    0    0  0.25084216723E+02  0.34057090814E+02  0.33684996608E+01  0.42431711647E+02  0.00000000000E+00 0. -1.
         15    1    4    4    0    0 -0.63506986972E+02  0.78485069994E+02  0.78643131474E+02  0.12797572322E+03  0.00000000000E+00 0.  1.
         15    1    5    5    0    0  0.72295671607E+01 -0.12828378025E+02 -0.34488814604E+02  0.37500830083E+02  0.00000000000E+00 0. -1.
        -16    1    3    3    0    0  0.10225612325E+03  0.52629507480E+02  0.64502017249E+02  0.13185859861E+03  0.00000000000E+00 0.  1.
         16    1    1    2    0    0  0.23667868468E+03 -0.47509738064E+02  0.12669781132E+03  0.27262852086E+03  0.00000000000E+00 0. -1.
    9900018    1    3    3    0    0 -0.15018010526E+03 -0.33414533838E+02 -0.12396389162E+03  0.21760703092E+03  0.91187600000E+02 0.  0.
<mgrwt>
<rscale>  0 0.10312122E+04</rscale>
<asrwt>0</asrwt>
<pdfrwt beam="1">  1        2 0.80242170E-01 0.10312122E+04</pdfrwt>
<pdfrwt beam="2">  1       -2 0.78416369E-01 0.10312122E+04</pdfrwt>
<totfact> 0.84524389E+01</totfact>
</mgrwt>
</event>
<event>
12    1  0.1785576E-010  0.8672236E+03  0.7818608E-02  0.9467507E-01
          1   -1    0    0  501    0  0.00000000000E+00  0.00000000000E+00  0.11347263515E+04  0.11347263515E+04  0.00000000000E+00 0. -1.
         -1   -1    0    0    0  501 -0.00000000000E+00 -0.00000000000E+00 -0.16569561895E+03  0.16569561895E+03  0.00000000000E+00 0.  1.
    9900016    2    1    2    0    0 -0.10552776858E+03  0.48500771996E+02  0.67247243101E+03  0.98193294233E+03  0.70603448778E+03 0.  0.
         23    2    3    3    0    0  0.79595929425E+02  0.10658405694E+03  0.18570248222E+03  0.24631466707E+03  0.92140274230E+02 0.  0.
         23    2    3    3    0    0  0.36111944384E+02 -0.19511364161E+02 -0.34909132591E+02  0.10694733263E+03  0.92381375607E+02 0.  0.
        -15    1    4    4    0    0  0.64237011916E+02  0.11053749104E+03  0.10904849305E+03  0.16803721154E+03  0.00000000000E+00 0.  1.
        -15    1    5    5    0    0  0.67242944133E+02 -0.75331797428E+01 -0.21502752153E+02  0.70998103375E+02  0.00000000000E+00 0.  1.
         15    1    4    4    0    0  0.15358917508E+02 -0.39534340987E+01  0.76653989173E+02  0.78277455530E+02  0.00000000000E+00 0. -1.
         15    1    5    5    0    0 -0.31130999749E+02 -0.11978184418E+02 -0.13406380437E+02  0.35949229251E+02  0.00000000000E+00 0. -1.
        -16    1    1    2    0    0  0.10552776858E+03 -0.48500771996E+02  0.29655830153E+03  0.31848902812E+03  0.00000000000E+00 0.  1.
         16    1    3    3    0    0 -0.18721959389E+03  0.70621588731E+02  0.34970152342E+03  0.40290165129E+03  0.00000000000E+00 0. -1.
    9900018    1    3    3    0    0 -0.34016048499E+02 -0.10919350952E+03  0.17197755796E+03  0.22576929134E+03  0.91187600000E+02 0.  0.
<mgrwt>
<rscale>  0 0.86722358E+03</rscale>
<asrwt>0</asrwt>
<pdfrwt beam="1">  1        1 0.17457328E+00 0.86722358E+03</pdfrwt>
<pdfrwt beam="2">  1       -1 0.25491634E-01 0.86722358E+03</pdfrwt>
<totfact> 0.16301091E+02</totfact>
</mgrwt>
</event>
<event>
12    1  0.1785576E-010  0.8000045E+03  0.7818608E-02  0.9560011E-01
         -1   -1    0    0    0  501 -0.00000000000E+00  0.00000000000E+00  0.27167143447E+03  0.27167143447E+03  0.00000000000E+00 0.  1.
          1   -1    0    0  501    0  0.00000000000E+00 -0.00000000000E+00 -0.58895333227E+03  0.58895333227E+03  0.00000000000E+00 0. -1.
    9900016    2    1    2    0    0  0.25368920304E+01 -0.33479400266E+02 -0.32921307104E+03  0.82499249263E+03  0.75571427186E+03 0.  0.
         23    2    3    3    0    0 -0.11900941405E+03  0.97889820812E+02 -0.28636178065E+03  0.33784451796E+03  0.91597987153E+02 0.  0.
         23    2    3    3    0    0  0.11440275989E+03 -0.97379929183E+02 -0.15014599821E+03  0.23423019252E+03  0.98737633299E+02 0.  0.
        -15    1    5    5    0    0  0.83847101764E+02 -0.94142412120E+02 -0.15837109341E+03  0.20242167241E+03  0.00000000000E+00 0. -1.
        -15    1    4    4    0    0 -0.70217138473E+02  0.98263563894E+02 -0.14736675608E+03  0.19053381674E+03  0.00000000000E+00 0. -1.
         15    1    5    5    0    0  0.30555658123E+02 -0.32375170636E+01  0.82250952006E+01  0.31808520103E+02  0.00000000000E+00 0.  1.
         15    1    4    4    0    0 -0.48792275582E+02 -0.37374308177E+00 -0.13899502457E+03  0.14731070122E+03  0.00000000000E+00 0.  1.
        -16    1    1    2    0    0 -0.25368920304E+01  0.33479400266E+02  0.11931173236E+02  0.35632274108E+02  0.00000000000E+00 0.  1.
         16    1    3    3    0    0  0.30880279153E+02 -0.94609961315E+02  0.25732979799E+01  0.99555302637E+02  0.00000000000E+00 0. -1.
    9900018    1    3    3    0    0 -0.23736732955E+02  0.60620669421E+02  0.10472140983E+03  0.15336247952E+03  0.91187600000E+02 0.  0.
<mgrwt>
<rscale>  0 0.80000449E+03</rscale>
<asrwt>0</asrwt>
<pdfrwt beam="1">  1        1 0.90608205E-01 0.80000449E+03</pdfrwt>
<pdfrwt beam="2">  1       -1 0.41795606E-01 0.80000449E+03</pdfrwt>
<totfact> 0.19978088E+02</totfact>
</mgrwt>
</event>
<event>
12    1  0.1785576E-010  0.9096199E+03  0.7818608E-02  0.9413635E-01
         -1   -1    0    0    0  501 -0.00000000000E+00  0.00000000000E+00  0.34560512185E+03  0.34560512185E+03  0.00000000000E+00 0.  1.
          1   -1    0    0  501    0  0.00000000000E+00 -0.00000000000E+00 -0.59852149360E+03  0.59852149360E+03  0.00000000000E+00 0. -1.
    9900016    2    1    2    0    0 -0.14808411528E+03 -0.73279038530E+02 -0.12856332601E+03  0.73733589353E+03  0.70699149105E+03 0.  0.
         23    2    3    3    0    0 -0.56818270330E+02 -0.39155234930E+02 -0.10068247091E+03  0.15085066878E+03  0.88642631141E+02 0.  0.
         23    2    3    3    0    0  0.61241739687E+02 -0.49906584596E+02  0.18294260511E+03  0.21945074837E+03  0.91920706754E+02 0.  0.
        -15    1    4    4    0    0  0.12906571355E+02 -0.39721549741E+02 -0.28981101487E+02  0.50835866682E+02  0.00000000000E+00 0.  1.
        -15    1    5    5    0    0  0.30822315612E+02 -0.70507152687E+02  0.84051381994E+02  0.11395573059E+03  0.00000000000E+00 0. -1.
         15    1    5    5    0    0  0.30419424075E+02  0.20600568091E+02  0.98891223116E+02  0.10549501778E+03  0.00000000000E+00 0.  1.
         15    1    4    4    0    0 -0.69724841685E+02  0.56631481092E+00 -0.71701369423E+02  0.10001480209E+03  0.00000000000E+00 0. -1.
        -16    1    3    3    0    0 -0.41196972677E+02 -0.84488038467E+02 -0.15803902036E+03  0.18387971927E+03  0.00000000000E+00 0.  1.
         16    1    1    2    0    0  0.14808411528E+03  0.73279038530E+02 -0.12435304574E+03  0.20679072192E+03  0.00000000000E+00 0. -1.
    9900018    1    3    3    0    0 -0.11131061196E+03  0.10027081946E+03 -0.52784439848E+02  0.18315475712E+03  0.91187600000E+02 0.  0.
<mgrwt>
<rscale>  0 0.90961991E+03</rscale>
<asrwt>0</asrwt>
<pdfrwt beam="1">  1        1 0.92080230E-01 0.90961991E+03</pdfrwt>
<pdfrwt beam="2">  1       -1 0.53170019E-01 0.90961991E+03</pdfrwt>
<totfact> 0.12350633E+02</totfact>
</mgrwt>
</event>
<event>
12    1  0.1785576E-010  0.2293463E+04  0.7818608E-02  0.8480503E-01
          2   -1    0    0  501    0  0.00000000000E+00  0.00000000000E+00  0.66405306093E+03  0.66405306093E+03  0.00000000000E+00 0. -1.
         -2   -1    0    0    0  501 -0.00000000000E+00 -0.00000000000E+00 -0.19802535167E+04  0.19802535167E+04  0.00000000000E+00 0.  1.
    9900016    2    1    2    0    0  0.59642530153E+03 -0.47092310557E+03 -0.15394729875E+04  0.18522571252E+04  0.69526086255E+03 0.  0.
         23    2    3    3    0    0  0.13593607343E+03  0.87311335912E+00 -0.12428214943E+03  0.20634203945E+03  0.93014010720E+02 0.  0.
         23    2    3    3    0    0  0.11747702306E+03 -0.22365553822E+03 -0.27223472516E+03  0.38248591299E+03  0.91438926779E+02 0.  0.
        -15    1    4    4    0    0  0.11178001842E+03  0.15336382147E+02 -0.43719903844E+02  0.12100168234E+03  0.00000000000E+00 0.  1.
        -15    1    5    5    0    0  0.86617958376E+02 -0.15342321667E+03 -0.24352720551E+03  0.30057753401E+03  0.00000000000E+00 0.  1.
         15    1    4    4    0    0  0.24156055002E+02 -0.14463268788E+02 -0.80562245590E+02  0.85340357111E+02  0.00000000000E+00 0. -1.
         15    1    5    5    0    0  0.30859064688E+02 -0.70232321544E+02 -0.28707519648E+02  0.81908378980E+02  0.00000000000E+00 0. -1.
        -16    1    3    3    0    0  0.25122586850E+03 -0.30664950394E+03 -0.84512205026E+03  0.93347717439E+03  0.00000000000E+00 0.  1.
         16    1    1    2    0    0 -0.59642530153E+03  0.47092310557E+03  0.22327253173E+03  0.79204945243E+03  0.00000000000E+00 0. -1.
    9900018    1    3    3    0    0  0.91786336540E+02  0.58508823232E+02 -0.29783406266E+03  0.32995199840E+03  0.91187600000E+02 0.  0.
<mgrwt>
<rscale>  0 0.22934632E+04</rscale>
<asrwt>0</asrwt>
<pdfrwt beam="1">  1        2 0.10216201E+00 0.22934632E+04</pdfrwt>
<pdfrwt beam="2">  1       -2 0.30465439E+00 0.22934632E+04</pdfrwt>
<totfact> 0.11825839E+00</totfact>
</mgrwt>
</event>
