<event>
13    1  0.5669275E-011  0.5198019E+04  0.7818608E-02  0.7798666E-01
          1   -1    0    0  501    0  0.00000000000E+00  0.00000000000E+00  0.32678926233E+04  0.32678926233E+04  0.00000000000E+00 0. -1.
         -1   -1    0    0    0  501 -0.00000000000E+00 -0.00000000000E+00 -0.20670357507E+04  0.20670357507E+04  0.00000000000E+00 0.  1.
    9900016    2    1    2    0    0 -0.14802716465E+04 -0.81265122967E+03 -0.78505991758E+02  0.24938288250E+04  0.18334156238E+04 0.  0.
         23    2    3    3    0    0  0.15331557434E+03  0.41327922837E+03 -0.15213611445E+02  0.45042024589E+03  0.91332130137E+02 0.  0.
    9900016    2    1    2    0    0  0.14802716465E+04  0.81265122967E+03  0.12793628644E+04  0.28410995490E+04  0.18930058479E+04 0.  0.
         24    2    5    5    0    0 -0.29676745778E+03 -0.23805391484E+03  0.34913210081E+03  0.52253261880E+03  0.80040761659E+02 0.  0.
        -15    1    6    6    0    0 -0.34111793015E+02 -0.51069902443E+02  0.89658655530E+02  0.10867577407E+03  0.00000000000E+00 0.  1.
        -15    1    4    4    0    0  0.11105226980E+03  0.17242292870E+03  0.40052159945E+01  0.20512999470E+03  0.00000000000E+00 0. -1.
         15    1    4    4    0    0  0.42263304544E+02  0.24085629967E+03 -0.19218827439E+02  0.24529025120E+03  0.00000000000E+00 0.  1.
         15    1    5    5    0    0  0.17487278500E+04  0.98459001301E+03  0.86469815648E+03  0.21852161195E+04  0.00000000000E+00 0. -1.
        -16    1    3    3    0    0 -0.16335872208E+04 -0.12259304580E+04 -0.63292380313E+02  0.20434085791E+04  0.00000000000E+00 0.  1.
         16    1    6    6    0    0 -0.26265566476E+03 -0.18698401240E+03  0.25947344528E+03  0.41385684473E+03  0.00000000000E+00 0. -1.
    9900018    1    5    5    0    0  0.28311254275E+02  0.66115131506E+02  0.65532607109E+02  0.13335081072E+03  0.91187600000E+02 0.  0.
<mgrwt>
<rscale>  0 0.51980192E+04</rscale>
<asrwt>0</asrwt>
<pdfrwt beam="1">  1        1 0.50275271E+00 0.51980192E+04</pdfrwt>
<pdfrwt beam="2">  1       -1 0.31800550E+00 0.51980192E+04</pdfrwt>
<totfact> 0.67686951E-03</totfact>
</mgrwt>
</event>
<event>
13    1  0.5669275E-011  0.4043575E+04  0.7818608E-02  0.7995813E-01
          1   -1    0    0  501    0  0.00000000000E+00  0.00000000000E+00  0.17097244330E+04  0.17097244330E+04  0.00000000000E+00 0. -1.
         -1   -1    0    0    0  501 -0.00000000000E+00 -0.00000000000E+00 -0.23908089828E+04  0.23908089828E+04  0.00000000000E+00 0.  1.
    9900016    2    1    2    0    0  0.44919005675E+02  0.65875342437E+03 -0.67044673986E+03  0.20894459167E+04  0.18655593308E+04 0.  0.
         23    2    3    3    0    0 -0.34560667087E+02 -0.38029232680E+03  0.42423242706E+03  0.57807052657E+03  0.91518784858E+02 0.  0.
    9900016    2    1    2    0    0 -0.29861703275E+02 -0.60156977257E+03  0.30019464287E+01  0.19015525104E+04  0.18036393835E+04 0.  0.
         24    2    5    5    0    0  0.73541815876E+03 -0.10215076829E+03 -0.46002522449E+03  0.87711765642E+03  0.80234209258E+02 0.  0.
        -15    1    4    4    0    0 -0.40920659921E+02 -0.29565091012E+03  0.27221493854E+03  0.40396154993E+03  0.00000000000E+00 0. -1.
        -15    1    6    6    0    0  0.68135483819E+03 -0.11267995365E+03 -0.43803138813E+03  0.81780968719E+03  0.00000000000E+00 0.  1.
         15    1    4    4    0    0  0.63599928338E+01 -0.84641416684E+02  0.15201748853E+03  0.17410897664E+03  0.00000000000E+00 0.  1.
         15    1    5    5    0    0 -0.76527986204E+03 -0.49941900428E+03  0.46302717091E+03  0.10244348540E+04  0.00000000000E+00 0. -1.
        -16    1    3    3    0    0  0.79479672763E+02  0.10390457512E+04 -0.10946791669E+04  0.15113753901E+04  0.00000000000E+00 0.  1.
         16    1    6    6    0    0  0.54063320576E+02  0.10529185363E+02 -0.21993836355E+02  0.59307969226E+02  0.00000000000E+00 0. -1.
    9900018    1    1    2    0    0 -0.15057302400E+02 -0.57183651798E+02 -0.13639756402E+02  0.10953498864E+03  0.91187600000E+02 0.  0.
<mgrwt>
<rscale>  0 0.40435749E+04</rscale>
<asrwt>0</asrwt>
<pdfrwt beam="1">  1        1 0.26303453E+00 0.40435749E+04</pdfrwt>
<pdfrwt beam="2">  1       -1 0.36781676E+00 0.40435749E+04</pdfrwt>
<totfact> 0.43239165E-02</totfact>
</mgrwt>
</event>
<event>
13    1  0.5669275E-011  0.4439122E+04  0.7818608E-02  0.7921382E-01
         -2   -1    0    0    0  501 -0.00000000000E+00  0.00000000000E+00  0.31432754808E+04  0.31432754808E+04  0.00000000000E+00 0.  1.
          2   -1    0    0  501    0  0.00000000000E+00 -0.00000000000E+00 -0.15672983485E+04  0.15672983485E+04  0.00000000000E+00 0. -1.
    9900016    2    1    2    0    0  0.99718946248E+02  0.20510339332E+03 -0.47493074312E+03  0.19121066760E+04  0.18380917984E+04 0.  0.
         23    2    3    3    0    0  0.23604092880E+03 -0.12675359297E+03  0.66197002028E+03  0.71994222085E+03  0.91272669553E+02 0.  0.
    9900016    2    1    2    0    0 -0.99718946248E+02 -0.20510339332E+03  0.20509078755E+04  0.27984671533E+04  0.18902867571E+04 0.  0.
        -24    2    5    5    0    0  0.31633356484E+03 -0.23458016576E+03 -0.22340168260E+03  0.46000454385E+03  0.81247093224E+02 0.  0.
        -15    1    4    4    0    0  0.10796339153E+03 -0.32852829753E+02  0.17970185389E+03  0.21219839449E+03  0.00000000000E+00 0.  1.
        -15    1    5    5    0    0 -0.40560681417E+03  0.81107029849E+01  0.21134218497E+04  0.21520071064E+04  0.00000000000E+00 0.  1.
         15    1    6    6    0    0  0.17219426178E+03 -0.11662476099E+03 -0.16289177138E+03  0.26417026299E+03  0.00000000000E+00 0. -1.
         15    1    4    4    0    0  0.12807753727E+03 -0.93900763220E+02  0.48226816640E+03  0.50774382636E+03  0.00000000000E+00 0. -1.
        -16    1    6    6    0    0  0.14413930306E+03 -0.11795540477E+03 -0.60509911216E+02  0.19583428085E+03  0.00000000000E+00 0.  1.
         16    1    3    3    0    0 -0.13632198255E+03  0.33185698630E+03 -0.11369007634E+04  0.11921644551E+04  0.00000000000E+00 0. -1.
    9900018    1    5    5    0    0 -0.10445696918E+02  0.21366069455E+02  0.16088770838E+03  0.18645550303E+03  0.91187600000E+02 0.  0.
<mgrwt>
<rscale>  0 0.44391217E+04</rscale>
<asrwt>0</asrwt>
<pdfrwt beam="1">  1        2 0.24112282E+00 0.44391217E+04</pdfrwt>
<pdfrwt beam="2">  1       -2 0.48358084E+00 0.44391217E+04</pdfrwt>
<totfact> 0.18601163E-02</totfact>
</mgrwt>
</event>
<event>
13    1  0.5669275E-011  0.4425922E+04  0.7818608E-02  0.7923736E-01
          2   -1    0    0  501    0  0.00000000000E+00  0.00000000000E+00  0.21876103629E+04  0.21876103629E+04  0.00000000000E+00 0. -1.
         -2   -1    0    0    0  501 -0.00000000000E+00 -0.00000000000E+00 -0.22386054387E+04  0.22386054387E+04  0.00000000000E+00 0.  1.
    9900016    2    1    2    0    0  0.80539934257E+03  0.41044421996E+03  0.76071670416E+03  0.21893227758E+04  0.18431797942E+04 0.  0.
         23    2    3    3    0    0 -0.36617727942E+03 -0.14365493470E+03 -0.30956097861E+03  0.50851583486E+03  0.89653859894E+02 0.  0.
    9900016    2    1    2    0    0 -0.80539934257E+03 -0.41044421996E+03 -0.81171177993E+03  0.22368930258E+04  0.18782124045E+04 0.  0.
        -24    2    5    5    0    0 -0.15137841343E+03  0.35837926575E+03 -0.10387711790E+04  0.11124901049E+04  0.85073785343E+02 0.  0.
        -15    1    5    5    0    0 -0.60820629742E+03 -0.75275626194E+03  0.28117837872E+03  0.10077788303E+04  0.00000000000E+00 0.  1.
        -15    1    4    4    0    0 -0.22969350118E+03 -0.52436951564E+02 -0.14825183321E+03  0.27836548712E+03  0.00000000000E+00 0. -1.
         15    1    4    4    0    0 -0.13648377825E+03 -0.91217983131E+02 -0.16130914541E+03  0.23015034774E+03  0.00000000000E+00 0.  1.
         15    1    6    6    0    0 -0.59849405116E+02  0.21435948414E+03 -0.67362036829E+03  0.70943381672E+03  0.00000000000E+00 0. -1.
        -16    1    6    6    0    0 -0.91529008314E+02  0.14401978161E+03 -0.36515081072E+03  0.40305628816E+03  0.00000000000E+00 0.  1.
         16    1    3    3    0    0  0.11715766220E+04  0.55409915465E+03  0.10702776828E+04  0.16808069409E+04  0.00000000000E+00 0. -1.
    9900018    1    5    5    0    0 -0.45814631720E+02 -0.16067223767E+02 -0.54118979637E+02  0.11662409061E+03  0.91187600000E+02 0.  0.
<mgrwt>
<rscale>  0 0.44259220E+04</rscale>
<asrwt>0</asrwt>
<pdfrwt beam="1">  1        2 0.33655544E+00 0.44259220E+04</pdfrwt>
<pdfrwt beam="2">  1       -2 0.34440084E+00 0.44259220E+04</pdfrwt>
<totfact> 0.67488424E-02</totfact>
</mgrwt>
</event>
<event>
13    1  0.5669275E-011  0.4262462E+04  0.7818608E-02  0.7953596E-01
          1   -1    0    0  501    0  0.00000000000E+00  0.00000000000E+00  0.23101587679E+04  0.23101587679E+04  0.00000000000E+00 0. -1.
         -1   -1    0    0    0  501 -0.00000000000E+00 -0.00000000000E+00 -0.19661620122E+04  0.19661620122E+04  0.00000000000E+00 0.  1.
    9900016    2    1    2    0    0 -0.85514741628E+02  0.72380910958E+03 -0.54321697054E+03  0.20520016777E+04  0.18396776375E+04 0.  0.
         23    2    3    3    0    0 -0.28321194625E+03 -0.54014386253E+02  0.59010803888E+03  0.66329034972E+03  0.92736347021E+02 0.  0.
    9900016    2    1    2    0    0  0.40999194766E+02 -0.60981645074E+03  0.81713783754E+03  0.20563852798E+04  0.17853428623E+04 0.  0.
         24    2    5    5    0    0 -0.72110350760E+03  0.22170543702E+03  0.30188647833E+03  0.81633965891E+03  0.78303406210E+02 0.  0.
        -15    1    4    4    0    0 -0.83239767504E+02 -0.36731475094E+02  0.10894288057E+03  0.14193875927E+03  0.00000000000E+00 0.  1.
        -15    1    6    6    0    0 -0.12820433266E+03  0.31674080040E+02  0.84936345634E+02  0.15701522559E+03  0.00000000000E+00 0.  1.
         15    1    5    5    0    0  0.76210270237E+03 -0.83152188776E+03  0.51525135921E+03  0.12400456209E+04  0.00000000000E+00 0. -1.
         15    1    4    4    0    0 -0.19997217874E+03 -0.17282911160E+02  0.48116515831E+03  0.52135159045E+03  0.00000000000E+00 0. -1.
        -16    1    3    3    0    0  0.19769720462E+03  0.77782349583E+03 -0.11333250094E+04  0.13887113279E+04  0.00000000000E+00 0.  1.
         16    1    6    6    0    0 -0.59289917495E+03  0.19003135698E+03  0.21695013270E+03  0.65932443332E+03  0.00000000000E+00 0. -1.
    9900018    1    1    2    0    0  0.44515546862E+02 -0.11399265884E+03  0.70075888706E+02  0.16793382254E+03  0.91187600000E+02 0.  0.
<mgrwt>
<rscale>  0 0.42624624E+04</rscale>
<asrwt>0</asrwt>
<pdfrwt beam="1">  1        1 0.35540904E+00 0.42624624E+04</pdfrwt>
<pdfrwt beam="2">  1       -1 0.30248647E+00 0.42624624E+04</pdfrwt>
<totfact> 0.44650079E-02</totfact>
</mgrwt>
</event>
<event>
13    1  0.5669275E-011  0.5347463E+04  0.7818608E-02  0.7777034E-01
          1   -1    0    0  501    0  0.00000000000E+00  0.00000000000E+00  0.39743689871E+04  0.39743689871E+04  0.00000000000E+00 0. -1.
         -1   -1    0    0    0  501 -0.00000000000E+00 -0.00000000000E+00 -0.17987361848E+04  0.17987361848E+04  0.00000000000E+00 0.  1.
    9900016    2    1    2    0    0 -0.17185961326E+04  0.68425833225E+03  0.54536605706E+03  0.26655077286E+04  0.18400340168E+04 0.  0.
         23    2    3    3    0    0  0.30186965239E+03  0.47157106432E+03  0.21591428239E+03  0.60733952993E+03  0.93476047947E+02 0.  0.
    9900016    2    1    2    0    0  0.17185961326E+04 -0.68425833225E+03  0.16302667453E+04  0.31075974432E+04  0.18914571304E+04 0.  0.
         24    2    5    5    0    0  0.84241078617E+03 -0.10774713837E+03  0.17959820805E+04  0.19883533419E+04  0.82048766743E+02 0.  0.
        -15    1    6    6    0    0  0.73921031981E+03 -0.11778031346E+03  0.15442658487E+04  0.17161180352E+04  0.00000000000E+00 0.  1.
        -15    1    4    4    0    0  0.26572858018E+03  0.45579647914E+03  0.20799181515E+03  0.56711789240E+03  0.00000000000E+00 0.  1.
         15    1    5    5    0    0  0.80557862119E+03 -0.54477181959E+03 -0.20399343157E+03  0.99365314394E+03  0.00000000000E+00 0. -1.
         15    1    4    4    0    0  0.36141072211E+02  0.15774585185E+02  0.79224672478E+01  0.40221637530E+02  0.00000000000E+00 0. -1.
        -16    1    3    3    0    0 -0.20204657850E+04  0.21268726793E+03  0.32945177466E+03  0.20581681987E+04  0.00000000000E+00 0.  1.
         16    1    6    6    0    0  0.10320046636E+03  0.10033175097E+02  0.25171623184E+03  0.27223530673E+03  0.00000000000E+00 0. -1.
    9900018    1    5    5    0    0  0.70606725266E+02 -0.31739374301E+02  0.38278096276E+02  0.12559095741E+03  0.91187600000E+02 0.  0.
<mgrwt>
<rscale>  0 0.53474634E+04</rscale>
<asrwt>0</asrwt>
<pdfrwt beam="1">  1        1 0.61144138E+00 0.53474634E+04</pdfrwt>
<pdfrwt beam="2">  1       -1 0.27672864E+00 0.53474634E+04</pdfrwt>
<totfact> 0.33063258E-03</totfact>
</mgrwt>
</event>
<event>
13    1  0.5669275E-011  0.5119977E+04  0.7818608E-02  0.7810262E-01
         -2   -1    0    0    0  501 -0.00000000000E+00  0.00000000000E+00  0.18985520837E+04  0.18985520837E+04  0.00000000000E+00 0.  1.
          2   -1    0    0  501    0  0.00000000000E+00 -0.00000000000E+00 -0.34518622511E+04  0.34518622511E+04  0.00000000000E+00 0. -1.
    9900016    2    1    2    0    0  0.11715398795E+04 -0.12729883339E+04 -0.54576749117E+03  0.25873162432E+04  0.18448138660E+04 0.  0.
         23    2    3    3    0    0 -0.35074271530E+03  0.43139956815E+02  0.22905430983E+03  0.43095662580E+03  0.91521736563E+02 0.  0.
    9900016    2    1    2    0    0 -0.10912184393E+04  0.12108372365E+04 -0.99078201163E+03  0.26255830344E+04  0.18042041959E+04 0.  0.
        -24    2    5    5    0    0  0.11606701185E+03  0.26107989641E+03 -0.10473880278E+04  0.10884488807E+04  0.77878247720E+02 0.  0.
        -15    1    5    5    0    0 -0.12072854511E+04  0.94975734005E+03  0.56606016194E+02  0.15371341537E+04  0.00000000000E+00 0.  1.
        -15    1    4    4    0    0 -0.10418105729E+03 -0.21294718836E+02  0.39851243158E+02  0.11355738342E+03  0.00000000000E+00 0. -1.
         15    1    6    6    0    0  0.27109344638E+02  0.14517003436E+03 -0.59486335037E+03  0.61292059931E+03  0.00000000000E+00 0. -1.
         15    1    4    4    0    0 -0.24656165801E+03  0.64434675652E+02  0.18920306668E+03  0.31739924238E+03  0.00000000000E+00 0.  1.
        -16    1    6    6    0    0  0.88957667214E+02  0.11590986205E+03 -0.45252467745E+03  0.47552828137E+03  0.00000000000E+00 0.  1.
         16    1    3    3    0    0  0.15222825948E+04 -0.13161282907E+04 -0.77482180101E+03  0.21563596174E+04  0.00000000000E+00 0. -1.
    9900018    1    1    2    0    0 -0.80321440251E+02  0.62151097439E+02 -0.16760664580E+02  0.13751505717E+03  0.91187600000E+02 0.  0.
<mgrwt>
<rscale>  0 0.51199767E+04</rscale>
<asrwt>0</asrwt>
<pdfrwt beam="1">  1        2 0.53105573E+00 0.51199767E+04</pdfrwt>
<pdfrwt beam="2">  1       -2 0.29208494E+00 0.51199767E+04</pdfrwt>
<totfact> 0.22462267E-02</totfact>
</mgrwt>
</event>
<event>
13    1  0.5669275E-011  0.5884710E+04  0.7818608E-02  0.7704863E-01
         -2   -1    0    0    0  501 -0.00000000000E+00  0.00000000000E+00  0.44468645547E+04  0.44468645547E+04  0.00000000000E+00 0. -1.
          2   -1    0    0  501    0  0.00000000000E+00 -0.00000000000E+00 -0.19468667581E+04  0.19468667581E+04  0.00000000000E+00 0.  1.
    9900016    2    1    2    0    0  0.12408808210E+04  0.11989366227E+04  0.28455239076E+04  0.38050104983E+04  0.18449564618E+04 0.  0.
         23    2    3    3    0    0 -0.17199359946E+03  0.16271239936E+03 -0.17840490842E+03  0.31013993508E+03  0.91111716178E+02 0.  0.
    9900016    2    1    2    0    0 -0.11483285849E+04 -0.11339130615E+04 -0.28979995990E+03  0.24331105249E+04  0.17976722281E+04 0.  0.
        -24    2    5    5    0    0  0.17742834645E+03  0.56748442152E+02  0.45776183338E+03  0.50071437193E+03  0.80422523860E+02 0.  0.
        -15    1    4    4    0    0 -0.98075619991E+02  0.14691684269E+03 -0.13976006896E+03  0.22524711492E+03  0.00000000000E+00 0. -1.
        -15    1    5    5    0    0 -0.13257569314E+04 -0.11906615036E+04 -0.74756179328E+03  0.19323961530E+04  0.00000000000E+00 0.  1.
         15    1    4    4    0    0 -0.73917979466E+02  0.15795556671E+02 -0.38644839463E+02  0.84892820167E+02  0.00000000000E+00 0.  1.
         15    1    6    6    0    0  0.12525803313E+03 -0.73185027367E+00  0.27958304174E+03  0.30636055180E+03  0.00000000000E+00 0. -1.
        -16    1    6    6    0    0  0.52170313327E+02  0.57480292426E+02  0.17817879164E+03  0.19435382013E+03  0.00000000000E+00 0.  1.
         16    1    3    3    0    0  0.14128744205E+04  0.10362242233E+04  0.30239288160E+04  0.34948705632E+04  0.00000000000E+00 0. -1.
    9900018    1    1    2    0    0 -0.92552236091E+02 -0.65023561203E+02 -0.55726151158E+02  0.15561028961E+03  0.91187600000E+02 0.  0.
<mgrwt>
<rscale>  0 0.58847099E+04</rscale>
<asrwt>0</asrwt>
<pdfrwt beam="1">  1        2 0.29951796E+00 0.58847099E+04</pdfrwt>
<pdfrwt beam="2">  1       -2 0.68413301E+00 0.58847099E+04</pdfrwt>
<totfact> 0.12776151E-03</totfact>
</mgrwt>
</event>
<event>
13    1  0.5669275E-011  0.6188287E+04  0.7818608E-02  0.7667485E-01
         -1   -1    0    0    0  501 -0.00000000000E+00  0.00000000000E+00  0.29834120496E+04  0.29834120496E+04  0.00000000000E+00 0.  1.
          1   -1    0    0  501    0  0.00000000000E+00 -0.00000000000E+00 -0.32089852567E+04  0.32089852567E+04  0.00000000000E+00 0. -1.
    9900016    2    1    2    0    0 -0.17982128208E+04 -0.10687253424E+04 -0.14210854313E+04  0.31264401054E+04  0.18383146421E+04 0.  0.
         23    2    3    3    0    0  0.37479837353E+03 -0.20192983388E+03 -0.13041670144E+03  0.45452358834E+03  0.91289088773E+02 0.  0.
    9900016    2    1    2    0    0  0.17982128208E+04  0.10687253424E+04  0.11955122242E+04  0.30659572008E+04  0.18960751232E+04 0.  0.
        -24    2    5    5    0    0  0.63830902086E+03  0.34841898377E+02  0.13128372194E+04  0.14623910875E+04  0.79961016404E+02 0.  0.
        -15    1    5    5    0    0  0.10160979314E+04  0.98308673623E+03 -0.15378506651E+03  0.14221689013E+04  0.00000000000E+00 0.  1.
        -15    1    4    4    0    0  0.20633139623E+02 -0.15182586981E+02  0.13627741593E+02  0.29016421886E+02  0.00000000000E+00 0.  1.
         15    1    6    6    0    0  0.40025803888E+03 -0.74709815118E+01  0.75983448811E+03  0.85884268791E+03  0.00000000000E+00 0. -1.
         15    1    4    4    0    0  0.35416523390E+03 -0.18674724690E+03 -0.14404444304E+03  0.42550716645E+03  0.00000000000E+00 0. -1.
        -16    1    6    6    0    0  0.23805098198E+03  0.42312879888E+02  0.55300273132E+03  0.60354839961E+03  0.00000000000E+00 0.  1.
         16    1    3    3    0    0 -0.21730111943E+04 -0.86679550853E+03 -0.12906687298E+04  0.26719165171E+04  0.00000000000E+00 0. -1.
    9900018    1    5    5    0    0  0.14380586848E+03  0.50796707805E+02  0.36460071296E+02  0.18139721201E+03  0.91187600000E+02 0.  0.
<mgrwt>
<rscale>  0 0.61882874E+04</rscale>
<asrwt>0</asrwt>
<pdfrwt beam="1">  1        1 0.49369004E+00 0.61882874E+04</pdfrwt>
<pdfrwt beam="2">  1       -1 0.45898647E+00 0.61882874E+04</pdfrwt>
<totfact> 0.77729789E-04</totfact>
</mgrwt>
</event>
