<event>
11    1  0.8244140E-010  0.2498055E+04  0.7818608E-02  0.8403679E-01
         -2   -1    0    0    0  501 -0.00000000000E+00  0.00000000000E+00  0.73407022815E+03  0.73407022815E+03  0.00000000000E+00 0.  1.
          2   -1    0    0  501    0  0.00000000000E+00 -0.00000000000E+00 -0.21252327656E+04  0.21252327656E+04  0.00000000000E+00 0. -1.
    9900016    2    1    2    0    0  0.12210994332E+02  0.25989069692E+03 -0.11070871780E+04  0.24740873495E+04  0.21972195863E+04 0.  0.
        -24    2    3    3    0    0 -0.46497281801E+03 -0.97565394734E+02 -0.11387786711E+03  0.49295878602E+03  0.65737876167E+02 0.  0.
        -15    1    3    3    0    0  0.89624604592E+02  0.10230386611E+03  0.54852164129E+02  0.14665405101E+03  0.00000000000E+00 0.  1.
        -15    1    3    3    0    0  0.51739202557E+03 -0.35159930080E+00 -0.86180598390E+03  0.10051886319E+04  0.00000000000E+00 0.  1.
         15    1    4    4    0    0 -0.22959511365E+03 -0.64193894017E+02 -0.86710562384E+02  0.25367990435E+03  0.00000000000E+00 0. -1.
         15    1    3    3    0    0  0.24707728258E+03  0.85248910855E+01  0.12206705148E+03  0.27571764977E+03  0.00000000000E+00 0. -1.
        -16    1    4    4    0    0 -0.23537770436E+03 -0.33371500716E+02 -0.27167304722E+02  0.23927888167E+03  0.00000000000E+00 0.  1.
         16    1    1    2    0    0 -0.12210994332E+02 -0.25989069692E+03 -0.28407535949E+03  0.38521564428E+03  0.00000000000E+00 0. -1.
    9900018    1    3    3    0    0 -0.37691010040E+03  0.24697893376E+03 -0.30832254257E+03  0.55356823080E+03  0.91187600000E+02 0.  0.
<mgrwt>
<rscale>  0 0.24980553E+04</rscale>
<asrwt>0</asrwt>
<pdfrwt beam="1">  1        2 0.32695888E+00 0.24980553E+04</pdfrwt>
<pdfrwt beam="2">  1       -2 0.11293388E+00 0.24980553E+04</pdfrwt>
<totfact> 0.31267601E+00</totfact>
</mgrwt>
</event>
<event>
12    1  0.8244140E-010  0.2884660E+04  0.7818608E-02  0.8277456E-01
         -2   -1    0    0    0  501 -0.00000000000E+00  0.00000000000E+00  0.58210715561E+03  0.58210715561E+03  0.00000000000E+00 0.  1.
          2   -1    0    0  501    0  0.00000000000E+00 -0.00000000000E+00 -0.35737674465E+04  0.35737674465E+04  0.00000000000E+00 0. -1.
    9900016    2    1    2    0    0  0.19850952378E+02 -0.60396722050E+03 -0.24129687492E+04  0.33191820874E+04  0.21975852841E+04 0.  0.
         23    2    3    3    0    0  0.64664256762E+02  0.51988584357E+02 -0.73891849526E+01  0.13939947988E+03  0.11177359228E+03 0.  0.
         24    2    3    3    0    0 -0.43551636143E+03  0.31845940043E+03 -0.20204766653E+03  0.58377421929E+03  0.94224141075E+02 0.  0.
        -15    1    5    5    0    0 -0.19602547056E+03  0.15226075152E+03 -0.43687555760E+02  0.25202762565E+03  0.00000000000E+00 0.  1.
        -15    1    4    4    0    0  0.96444418844E+02  0.44316337118E+02 -0.13161184239E+01  0.10614704814E+03  0.00000000000E+00 0.  1.
         15    1    3    3    0    0  0.52839279592E+03 -0.20579054553E+03 -0.71441393228E+03  0.91210523628E+03  0.00000000000E+00 0. -1.
         15    1    4    4    0    0 -0.31780162081E+02  0.76722472393E+01 -0.60730665287E+01  0.33252431741E+02  0.00000000000E+00 0. -1.
        -16    1    1    2    0    0 -0.19850952378E+02  0.60396722050E+03 -0.57869154169E+03  0.83669251471E+03  0.00000000000E+00 0.  1.
         16    1    5    5    0    0 -0.23949089087E+03  0.16619864891E+03 -0.15836011077E+03  0.33174659364E+03  0.00000000000E+00 0. -1.
    9900018    1    3    3    0    0 -0.13768973887E+03 -0.76862465976E+03 -0.14891179654E+04  0.16839031519E+04  0.91187600000E+02 0.  0.
<mgrwt>
<rscale>  0 0.28846598E+04</rscale>
<asrwt>0</asrwt>
<pdfrwt beam="1">  1        2 0.54981038E+00 0.28846598E+04</pdfrwt>
<pdfrwt beam="2">  1       -2 0.89554946E-01 0.28846598E+04</pdfrwt>
<totfact> 0.66570017E-01</totfact>
</mgrwt>
</event>
<event>
12    1  0.8244140E-010  0.2991161E+04  0.7818608E-02  0.8246259E-01
          1   -1    0    0  501    0  0.00000000000E+00  0.00000000000E+00  0.18318414139E+04  0.18318414139E+04  0.00000000000E+00 0. -1.
         -1   -1    0    0    0  501 -0.00000000000E+00 -0.00000000000E+00 -0.12210453350E+04  0.12210453350E+04  0.00000000000E+00 0.  1.
    9900016    2    1    2    0    0  0.23538639357E+03  0.10800227767E+03  0.11179495896E+04  0.24834344421E+04  0.22023996225E+04 0.  0.
         23    2    3    3    0    0 -0.21049145431E+02 -0.14716476207E+01  0.12252908077E+03  0.14592622490E+03  0.76392769349E+02 0.  0.
         24    2    3    3    0    0  0.33402995698E+02 -0.39210843893E+03 -0.25728335281E+03  0.47456779211E+03  0.64459891957E+02 0.  0.
        -15    1    5    5    0    0  0.15916606392E+02 -0.31964953518E+03 -0.23403796990E+03  0.39648825337E+03  0.00000000000E+00 0.  1.
        -15    1    4    4    0    0 -0.28425678074E+02  0.31142978587E+02  0.89453476575E+02  0.98893016744E+02  0.00000000000E+00 0. -1.
         15    1    4    4    0    0  0.73765326433E+01 -0.32614626208E+02  0.33075604194E+02  0.47033208154E+02  0.00000000000E+00 0.  1.
         15    1    3    3    0    0 -0.42616952702E+03  0.53441515952E+03  0.41857837143E+03  0.80151598955E+03  0.00000000000E+00 0. -1.
        -16    1    1    2    0    0 -0.23538639357E+03 -0.10800227767E+03 -0.50715351067E+03  0.56945230673E+03  0.00000000000E+00 0.  1.
         16    1    5    5    0    0  0.17486389306E+02 -0.72458903754E+02 -0.23245382902E+02  0.78079538744E+02  0.00000000000E+00 0. -1.
    9900018    1    3    3    0    0  0.64920207032E+03 -0.32832795290E+02  0.83412549023E+03  0.10614244356E+04  0.91187600000E+02 0.  0.
<mgrwt>
<rscale>  0 0.29911613E+04</rscale>
<asrwt>0</asrwt>
<pdfrwt beam="1">  1        1 0.28182176E+00 0.29911613E+04</pdfrwt>
<pdfrwt beam="2">  1       -1 0.18785313E+00 0.29911613E+04</pdfrwt>
<totfact> 0.60399946E-01</totfact>
</mgrwt>
</event>
<event>
12    1  0.8244140E-010  0.2276444E+04  0.7818608E-02  0.8487267E-01
          1   -1    0    0  501    0  0.00000000000E+00  0.00000000000E+00  0.13266165676E+04  0.13266165676E+04  0.00000000000E+00 0. -1.
         -1   -1    0    0    0  501 -0.00000000000E+00 -0.00000000000E+00 -0.97658174574E+03  0.97658174574E+03  0.00000000000E+00 0.  1.
    9900016    2    1    2    0    0  0.35509664425E+02  0.26838964327E+01  0.27238981586E+03  0.22177764981E+04  0.22006972177E+04 0.  0.
         23    2    3    3    0    0 -0.42569371545E+02  0.18427084596E+03 -0.51223192389E+02  0.22382517921E+03  0.10819426670E+03 0.  0.
        -24    2    3    3    0    0  0.72545616009E+03 -0.47220079547E+03  0.67288185879E+03  0.10979005551E+04  0.57925827451E+02 0.  0.
        -15    1    3    3    0    0 -0.56266372075E+03  0.71871788353E+02 -0.18998050196E+03  0.59820448655E+03  0.00000000000E+00 0.  1.
        -15    1    4    4    0    0 -0.29974610550E+02  0.16450923575E+03  0.30566895943E+00  0.16721799950E+03  0.00000000000E+00 0.  1.
         15    1    5    5    0    0  0.67769059169E+03 -0.44344997318E+03  0.61031802185E+03  0.10141008355E+04  0.00000000000E+00 0. -1.
         15    1    4    4    0    0 -0.12594760994E+02  0.19761610212E+02 -0.51528861349E+02  0.56607179708E+02  0.00000000000E+00 0. -1.
        -16    1    5    5    0    0  0.47765568405E+02 -0.28750822284E+02  0.62563836939E+02  0.83799719567E+02  0.00000000000E+00 0.  1.
         16    1    1    2    0    0 -0.35509664425E+02 -0.26838964327E+01  0.77645005991E+02  0.85421815264E+02  0.00000000000E+00 0. -1.
    9900018    1    3    3    0    0 -0.84713403374E+02  0.21874205759E+03 -0.15928834859E+03  0.29784627723E+03  0.91187600000E+02 0.  0.
<mgrwt>
<rscale>  0 0.22764442E+04</rscale>
<asrwt>0</asrwt>
<pdfrwt beam="1">  1        1 0.20409486E+00 0.22764442E+04</pdfrwt>
<pdfrwt beam="2">  1       -1 0.15024335E+00 0.22764442E+04</pdfrwt>
<totfact> 0.27243609E+00</totfact>
</mgrwt>
</event>
<event>
11    1  0.8244140E-010  0.2740102E+04  0.7818608E-02  0.8322109E-01
         -2   -1    0    0    0  501 -0.00000000000E+00  0.00000000000E+00  0.16020595088E+04  0.16020595088E+04  0.00000000000E+00 0.  1.
          2   -1    0    0  501    0  0.00000000000E+00 -0.00000000000E+00 -0.11716413069E+04  0.11716413069E+04  0.00000000000E+00 0. -1.
    9900016    2    1    2    0    0 -0.16965915585E+03 -0.38246778108E+03  0.60684083273E+03  0.23196184692E+04  0.21993881453E+04 0.  0.
        -24    2    3    3    0    0 -0.47830589638E+03 -0.19904518778E+03 -0.41116839933E+03  0.66826299216E+03  0.95501082691E+02 0.  0.
        -15    1    3    3    0    0  0.22282159719E+02 -0.10456962590E+03  0.79788661231E+02  0.13340739021E+03  0.00000000000E+00 0.  1.
        -15    1    3    3    0    0  0.34455652791E+03  0.33938540909E+03  0.64149084022E+02  0.48786961558E+03  0.00000000000E+00 0.  1.
         15    1    3    3    0    0  0.89131167606E+02 -0.33083022132E+03  0.64072513908E+03  0.72658220748E+03  0.00000000000E+00 0. -1.
         15    1    4    4    0    0 -0.18797482109E+03 -0.12743709157E+03 -0.16091481030E+03  0.27833131668E+03  0.00000000000E+00 0. -1.
        -16    1    4    4    0    0 -0.29033107528E+03 -0.71608096214E+02 -0.25025358903E+03  0.38993167548E+03  0.00000000000E+00 0.  1.
         16    1    1    2    0    0  0.16965915585E+03  0.38246778108E+03 -0.17642263084E+03  0.45408234650E+03  0.00000000000E+00 0. -1.
    9900018    1    3    3    0    0 -0.14732311471E+03 -0.87408155170E+02  0.23334634772E+03  0.30349626375E+03  0.91187600000E+02 0.  0.
<mgrwt>
<rscale>  0 0.27401015E+04</rscale>
<asrwt>0</asrwt>
<pdfrwt beam="1">  1        2 0.18025251E+00 0.27401015E+04</pdfrwt>
<pdfrwt beam="2">  1       -2 0.24647070E+00 0.27401015E+04</pdfrwt>
<totfact> 0.11637318E+00</totfact>
</mgrwt>
</event>
<event>
12    1  0.8244140E-010  0.3140550E+04  0.7818608E-02  0.8204697E-01
          2   -1    0    0  501    0  0.00000000000E+00  0.00000000000E+00  0.12393323350E+04  0.12393323350E+04  0.00000000000E+00 0.  1.
         -2   -1    0    0    0  501 -0.00000000000E+00 -0.00000000000E+00 -0.19895903109E+04  0.19895903109E+04  0.00000000000E+00 0. -1.
    9900016    2    1    2    0    0  0.30140735198E+03 -0.54012569858E+03 -0.10683886110E+04  0.25333730336E+04  0.22122256985E+04 0.  0.
         23    2    3    3    0    0  0.30371602949E+03 -0.14657802423E+03 -0.32682500909E+03  0.48620117279E+03  0.12589062754E+03 0.  0.
         24    2    3    3    0    0  0.26050111701E+03  0.98279306249E+01 -0.98477027288E+03  0.10204912449E+04  0.60600911295E+02 0.  0.
        -15    1    4    4    0    0  0.17814516940E+03 -0.74897368416E+02 -0.10099347363E+03  0.21804815727E+03  0.00000000000E+00 0.  1.
        -15    1    5    5    0    0  0.14769394644E+03  0.31096272615E+02 -0.61870227406E+03  0.63684612264E+03  0.00000000000E+00 0.  1.
         15    1    4    4    0    0  0.12557086009E+03 -0.71680655817E+02 -0.22583153546E+03  0.26815301552E+03  0.00000000000E+00 0. -1.
         15    1    3    3    0    0 -0.10296794679E+03 -0.59738167764E+03  0.39080831754E+03  0.72124781311E+03  0.00000000000E+00 0. -1.
        -16    1    1    2    0    0 -0.30140735198E+03  0.54012569858E+03  0.31813063512E+03  0.69554961225E+03  0.00000000000E+00 0.  1.
         16    1    5    5    0    0  0.11280717058E+03 -0.21268341990E+02 -0.36606799881E+03  0.38364512229E+03  0.00000000000E+00 0. -1.
    9900018    1    3    3    0    0 -0.15984184773E+03  0.19400607267E+03 -0.14760164658E+03  0.30543280273E+03  0.91187600000E+02 0.  0.
<mgrwt>
<rscale>  0 0.31405500E+04</rscale>
<asrwt>0</asrwt>
<pdfrwt beam="1">  1        2 0.19066652E+00 0.31405500E+04</pdfrwt>
<pdfrwt beam="2">  1       -2 0.30609081E+00 0.31405500E+04</pdfrwt>
<totfact> 0.44284494E-01</totfact>
</mgrwt>
</event>
<event>
11    1  0.8244140E-010  0.2499814E+04  0.7818608E-02  0.8403052E-01
          1   -1    0    0  501    0  0.00000000000E+00  0.00000000000E+00  0.23448497426E+04  0.23448497426E+04  0.00000000000E+00 0. -1.
         -1   -1    0    0    0  501 -0.00000000000E+00 -0.00000000000E+00 -0.66625511138E+03  0.66625511138E+03  0.00000000000E+00 0.  1.
    9900016    2    1    2    0    0  0.17705657305E+03 -0.16960525023E+03  0.16668852800E+04  0.27656418631E+04  0.21932061936E+04 0.  0.
         24    2    3    3    0    0 -0.56830575928E+03 -0.28399654183E+03 -0.61999325724E+02  0.64075329582E+03  0.55636300420E+02 0.  0.
        -15    1    3    3    0    0 -0.51654019018E+02  0.81541303719E+02  0.94523042911E+02  0.13509895460E+03  0.00000000000E+00 0.  1.
        -15    1    4    4    0    0 -0.15848802017E+03 -0.58431914142E+02 -0.35725807339E+00  0.16891675098E+03  0.00000000000E+00 0.  1.
         15    1    3    3    0    0 -0.51692905923E+02 -0.47808751948E+02  0.12786859529E+03  0.14597332273E+03  0.00000000000E+00 0. -1.
         15    1    3    3    0    0  0.85433688142E+03  0.62678341004E+02  0.94836103195E+03  0.12779705506E+04  0.00000000000E+00 0. -1.
        -16    1    1    2    0    0 -0.17705657305E+03  0.16960525023E+03  0.11709351263E+02  0.24546299084E+03  0.00000000000E+00 0.  1.
         16    1    4    4    0    0 -0.40981773910E+03 -0.22556462768E+03 -0.61642067650E+02  0.47183654484E+03  0.00000000000E+00 0. -1.
    9900018    1    3    3    0    0 -0.56276241539E+01  0.17980398826E+02  0.55813193552E+03  0.56584573935E+03  0.91187600000E+02 0.  0.
<mgrwt>
<rscale>  0 0.24998145E+04</rscale>
<asrwt>0</asrwt>
<pdfrwt beam="1">  1        1 0.36074611E+00 0.24998145E+04</pdfrwt>
<pdfrwt beam="2">  1       -1 0.10250079E+00 0.24998145E+04</pdfrwt>
<totfact> 0.13864682E+00</totfact>
</mgrwt>
</event>
<event>
12    1  0.8244140E-010  0.2789352E+04  0.7818608E-02  0.8306582E-01
         -2   -1    0    0    0  501 -0.00000000000E+00  0.00000000000E+00  0.57151034459E+03  0.57151034459E+03  0.00000000000E+00 0.  1.
          2   -1    0    0  501    0  0.00000000000E+00 -0.00000000000E+00 -0.34034750967E+04  0.34034750967E+04  0.00000000000E+00 0. -1.
    9900016    2    1    2    0    0 -0.25887411253E+03  0.35795960940E+03 -0.26866395263E+04  0.35099367241E+04  0.22150559755E+04 0.  0.
         23    2    3    3    0    0 -0.10653019042E+03  0.11121863425E+03 -0.29723484091E+03  0.34273034609E+03  0.73466137801E+02 0.  0.
         24    2    3    3    0    0  0.46756772141E+01  0.36118984336E+03  0.23616586572E+03  0.44305415334E+03  0.10021328132E+03 0.  0.
        -15    1    5    5    0    0  0.24151533593E+02  0.14264532215E+03  0.14689679898E+03  0.20617869448E+03  0.00000000000E+00 0.  1.
        -15    1    4    4    0    0 -0.95374410249E+02  0.56919560207E+02 -0.16046784777E+03  0.19515646193E+03  0.00000000000E+00 0. -1.
         15    1    3    3    0    0  0.17103731889E+03 -0.25711777789E+03 -0.72450936303E+03  0.78757674754E+03  0.00000000000E+00 0. -1.
         15    1    4    4    0    0 -0.11155780167E+02  0.54299074043E+02 -0.13676699314E+03  0.14757388416E+03  0.00000000000E+00 0.  1.
        -16    1    1    2    0    0  0.25887411253E+03 -0.35795960940E+03 -0.14532522580E+03  0.46504871718E+03  0.00000000000E+00 0.  1.
         16    1    5    5    0    0 -0.19475856379E+02  0.21854452121E+03  0.89269066742E+02  0.23687545886E+03  0.00000000000E+00 0. -1.
    9900018    1    3    3    0    0 -0.32805691821E+03  0.14266890967E+03 -0.19010611881E+04  0.19365754771E+04  0.91187600000E+02 0.  0.
<mgrwt>
<rscale>  0 0.27893521E+04</rscale>
<asrwt>0</asrwt>
<pdfrwt beam="1">  1        2 0.52361155E+00 0.27893521E+04</pdfrwt>
<pdfrwt beam="2">  1       -2 0.87924670E-01 0.27893521E+04</pdfrwt>
<totfact> 0.92068525E-01</totfact>
</mgrwt>
</event>
<event>
12    1  0.8244140E-010  0.4460152E+04  0.7818608E-02  0.7917650E-01
         -2   -1    0    0    0  501 -0.00000000000E+00  0.00000000000E+00  0.16464044478E+04  0.16464044478E+04  0.00000000000E+00 0.  1.
          2   -1    0    0  501    0  0.00000000000E+00 -0.00000000000E+00 -0.30206671741E+04  0.30206671741E+04  0.00000000000E+00 0. -1.
    9900016    2    1    2    0    0  0.26991275981E+03  0.89012078231E+03  0.62569892058E+03  0.24613938362E+04  0.21912992887E+04 0.  0.
         23    2    3    3    0    0  0.79528169036E+02  0.93073991542E+02 -0.43966985399E+02  0.15122251528E+03  0.77121046103E+02 0.  0.
        -24    2    3    3    0    0 -0.24312070970E+03  0.11536157854E+04  0.17051579508E+03  0.11946999002E+04  0.91077743765E+02 0.  0.
        -15    1    3    3    0    0  0.62803994308E+03 -0.24050035037E+03  0.54669814555E+03  0.86669109317E+03  0.00000000000E+00 0.  1.
        -15    1    4    4    0    0  0.41340791366E+02  0.54938266670E+00 -0.27820683730E+02  0.49833254914E+02  0.00000000000E+00 0. -1.
         15    1    5    5    0    0 -0.15264318989E+03  0.62469052195E+03  0.52061873168E+02  0.64517333351E+03  0.00000000000E+00 0. -1.
         15    1    4    4    0    0  0.38187377670E+02  0.92524608875E+02 -0.16146301669E+02  0.10138926037E+03  0.00000000000E+00 0.  1.
        -16    1    5    5    0    0 -0.90477519804E+02  0.52892526346E+03  0.11845392191E+03  0.54952656672E+03  0.00000000000E+00 0.  1.
         16    1    1    2    0    0 -0.26991275981E+03 -0.89012078231E+03 -0.19999616469E+04  0.22056777856E+04  0.00000000000E+00 0. -1.
    9900018    1    3    3    0    0 -0.19453464261E+03 -0.11606864428E+03 -0.47548034649E+02  0.24878032750E+03  0.91187600000E+02 0.  0.
<mgrwt>
<rscale>  0 0.44601524E+04</rscale>
<asrwt>0</asrwt>
<pdfrwt beam="1">  1        2 0.46471803E+00 0.44601524E+04</pdfrwt>
<pdfrwt beam="2">  1       -2 0.25329299E+00 0.44601524E+04</pdfrwt>
<totfact> 0.78739998E-02</totfact>
</mgrwt>
</event>
<event>
12    1  0.8244140E-010  0.3133447E+04  0.7818608E-02  0.8206618E-01
          1   -1    0    0  501    0  0.00000000000E+00  0.00000000000E+00  0.22473704583E+04  0.22473704583E+04  0.00000000000E+00 0. -1.
         -1   -1    0    0    0  501 -0.00000000000E+00 -0.00000000000E+00 -0.10922198224E+04  0.10922198224E+04  0.00000000000E+00 0.  1.
    9900016    2    1    2    0    0 -0.38514152971E+03  0.37700347107E+03  0.25081145997E+03  0.22868343926E+04  0.22082208982E+04 0.  0.
         23    2    3    3    0    0 -0.22535433104E+02 -0.14015935092E+03 -0.40550121995E+03  0.43632865043E+03  0.76150918667E+02 0.  0.
        -24    2    3    3    0    0 -0.78922238610E+03 -0.16602907892E+03  0.33855637172E+03  0.87710596013E+03  0.65244299980E+02 0.  0.
        -15    1    3    3    0    0  0.44005499809E+03  0.47838146514E+03  0.36271073605E+03  0.74434958560E+03  0.00000000000E+00 0.  1.
        -15    1    4    4    0    0 -0.30631378997E+00 -0.11767713540E+03 -0.23384570697E+03  0.26178582218E+03  0.00000000000E+00 0. -1.
         15    1    4    4    0    0 -0.22229119314E+02 -0.22482215520E+02 -0.17165551297E+03  0.17454282825E+03  0.00000000000E+00 0.  1.
         15    1    5    5    0    0 -0.15007458460E+03 -0.16554557753E+02  0.86305254128E+02  0.17391098647E+03  0.00000000000E+00 0. -1.
        -16    1    5    5    0    0 -0.63914780150E+03 -0.14947452117E+03  0.25225111759E+03  0.70319497366E+03  0.00000000000E+00 0.  1.
         16    1    1    2    0    0  0.38514152971E+03 -0.37700347107E+03  0.90433917592E+03  0.10527558882E+04  0.00000000000E+00 0. -1.
    9900018    1    3    3    0    0 -0.13438708598E+02  0.20481043578E+03 -0.44954427852E+02  0.22905019640E+03  0.91187600000E+02 0.  0.
<mgrwt>
<rscale>  0 0.31334470E+04</rscale>
<asrwt>0</asrwt>
<pdfrwt beam="1">  1        1 0.34574930E+00 0.31334470E+04</pdfrwt>
<pdfrwt beam="2">  1       -1 0.16803382E+00 0.31334470E+04</pdfrwt>
<totfact> 0.43283680E-01</totfact>
</mgrwt>
</event>
