<event>
12    1  0.3225564E-012  0.2843905E+04  0.7818608E-02  0.8289766E-01
         -1   -1    0    0    0  501 -0.00000000000E+00  0.00000000000E+00  0.70822889303E+03  0.70822889303E+03  0.00000000000E+00 0.  1.
          1   -1    0    0  501    0  0.00000000000E+00 -0.00000000000E+00 -0.28549376888E+04  0.28549376888E+04  0.00000000000E+00 0. -1.
    9900016    2    1    2    0    0 -0.20170757647E+03 -0.39288917125E+03 -0.19018479162E+04  0.29029427614E+04  0.21482558815E+04 0.  0.
         23    2    3    3    0    0  0.93676593661E+02  0.39717927297E+03 -0.13243553528E+04  0.13887876463E+04  0.91034866426E+02 0.  0.
         24    2    3    3    0    0  0.28388888399E+03 -0.69549588198E+03 -0.53480846453E+03  0.92566282711E+03  0.80772244289E+02 0.  0.
        -15    1    4    4    0    0 -0.56201751075E+01  0.31824980816E+02 -0.19498153005E+03  0.19764162728E+03  0.00000000000E+00 0. -1.
        -15    1    5    5    0    0  0.10996578823E+03 -0.24267882831E+03 -0.23615146516E+03  0.35602387952E+03  0.00000000000E+00 0.  1.
         15    1    3    3    0    0 -0.57927305411E+03 -0.94572562236E+02 -0.42684098847E+02  0.58849228801E+03  0.00000000000E+00 0. -1.
         15    1    4    4    0    0  0.99296768769E+02  0.36535429215E+03 -0.11293738227E+04  0.11911460190E+04  0.00000000000E+00 0.  1.
        -16    1    1    2    0    0  0.18160940296E+03  0.45852711871E+03 -0.16173955263E+03  0.51902675916E+03  0.00000000000E+00 0.  1.
         16    1    5    5    0    0  0.17392309576E+03 -0.45281705367E+03 -0.29865699937E+03  0.56963894759E+03  0.00000000000E+00 0. -1.
    9900018    1    1    2    0    0  0.20098173502E+02 -0.65637947467E+02 -0.83121326999E+02  0.14119706131E+03  0.91187600000E+02 0.  0.
<mgrwt>
<rscale>  0 0.28439053E+04</rscale>
<asrwt>0</asrwt>
<pdfrwt beam="1">  1        1 0.43922118E+00 0.28439053E+04</pdfrwt>
<pdfrwt beam="2">  1       -1 0.10895829E+00 0.28439053E+04</pdfrwt>
<totfact> 0.51217054E-01</totfact>
</mgrwt>
</event>
<event>
12    1  0.3225564E-012  0.2914290E+04  0.7818608E-02  0.8268638E-01
         -1   -1    0    0    0  501 -0.00000000000E+00  0.00000000000E+00  0.48651287167E+03  0.48651287167E+03  0.00000000000E+00 0.  1.
          1   -1    0    0  501    0  0.00000000000E+00 -0.00000000000E+00 -0.43642669274E+04  0.43642669274E+04  0.00000000000E+00 0. -1.
    9900016    2    1    2    0    0 -0.42018356587E+03  0.11260936109E+02 -0.24614838239E+04  0.32937733858E+04  0.21478732421E+04 0.  0.
         23    2    3    3    0    0 -0.37162624334E+03  0.12783035746E+03 -0.11137605865E+04  0.11846809818E+04  0.92518753638E+02 0.  0.
        -24    2    3    3    0    0 -0.58129204861E+03 -0.48733718052E+03 -0.12332177095E+04  0.14500123363E+04  0.79447361930E+02 0.  0.
        -15    1    3    3    0    0  0.53273472607E+03  0.37076775917E+03 -0.11450552797E+03  0.65908006763E+03  0.00000000000E+00 0.  1.
        -15    1    4    4    0    0 -0.21612055652E+03  0.38677893517E+02 -0.51990268139E+03  0.56436058731E+03  0.00000000000E+00 0.  1.
         15    1    4    4    0    0 -0.15550568682E+03  0.89152463943E+02 -0.59385790508E+03  0.62032039454E+03  0.00000000000E+00 0. -1.
         15    1    5    5    0    0 -0.11805484192E+03 -0.94875973105E+02 -0.31045778748E+03  0.34543079449E+03  0.00000000000E+00 0. -1.
        -16    1    5    5    0    0 -0.46323720669E+03 -0.39246120742E+03 -0.92275992198E+03  0.11045815419E+04  0.00000000000E+00 0.  1.
         16    1    1    2    0    0  0.45136991119E+03  0.27174592397E+00 -0.13823722826E+04  0.14541966849E+04  0.00000000000E+00 0. -1.
    9900018    1    1    2    0    0 -0.31186345315E+02 -0.11532682033E+02 -0.33897949192E+02  0.10280972834E+03  0.91187600000E+02 0.  0.
<mgrwt>
<rscale>  0 0.29142903E+04</rscale>
<asrwt>0</asrwt>
<pdfrwt beam="1">  1        1 0.67142572E+00 0.29142903E+04</pdfrwt>
<pdfrwt beam="2">  1       -1 0.74848130E-01 0.29142903E+04</pdfrwt>
<totfact> 0.67860239E-02</totfact>
</mgrwt>
</event>
<event>
12    1  0.3225564E-012  0.2621927E+04  0.7818608E-02  0.8360791E-01
         -2   -1    0    0    0  501 -0.00000000000E+00  0.00000000000E+00  0.11947093169E+04  0.11947093169E+04  0.00000000000E+00 0.  1.
          2   -1    0    0  501    0  0.00000000000E+00 -0.00000000000E+00 -0.14385296237E+04  0.14385296237E+04  0.00000000000E+00 0. -1.
    9900016    2    1    2    0    0  0.42489500218E+02  0.16605870210E+02  0.12751373432E+03  0.22591131828E+04  0.22550502229E+04 0.  0.
         23    2    3    3    0    0  0.24582467758E+03 -0.38801281189E+03 -0.77274475669E+03  0.90319411897E+03  0.87415349094E+02 0.  0.
        -24    2    3    3    0    0 -0.45272635287E+03  0.58738942385E+02  0.51260071421E+03  0.69072065924E+03  0.76968324446E+02 0.  0.
        -15    1    4    4    0    0  0.51124237450E+02 -0.43586718255E+02 -0.16336436155E+03  0.17663919239E+03  0.00000000000E+00 0.  1.
        -15    1    3    3    0    0  0.27316184611E+03  0.35266830543E+03  0.31971072037E+03  0.54882353498E+03  0.00000000000E+00 0.  1.
         15    1    5    5    0    0 -0.14157453706E+03  0.53501007822E+02  0.15405695083E+03  0.21596122680E+03  0.00000000000E+00 0. -1.
         15    1    4    4    0    0  0.19470044013E+03 -0.34442609363E+03 -0.60938039514E+03  0.72655492659E+03  0.00000000000E+00 0. -1.
        -16    1    5    5    0    0 -0.31115181581E+03  0.52379345629E+01  0.35854376337E+03  0.47475943244E+03  0.00000000000E+00 0.  1.
         16    1    1    2    0    0 -0.42489500218E+02 -0.16605870210E+02 -0.37133404115E+03  0.37412575783E+03  0.00000000000E+00 0. -1.
    9900018    1    3    3    0    0 -0.23770670609E+02 -0.67885657222E+01  0.67947056437E+02  0.11637486962E+03  0.91187600000E+02 0.  0.
<mgrwt>
<rscale>  0 0.26219266E+04</rscale>
<asrwt>0</asrwt>
<pdfrwt beam="1">  1        2 0.22131225E+00 0.26219266E+04</pdfrwt>
<pdfrwt beam="2">  1       -2 0.18380143E+00 0.26219266E+04</pdfrwt>
<totfact> 0.20739339E+00</totfact>
</mgrwt>
</event>
<event>
12    1  0.3225564E-012  0.4376593E+04  0.7818608E-02  0.7932605E-01
          2   -1    0    0  501    0  0.00000000000E+00  0.00000000000E+00  0.30463291855E+04  0.30463291855E+04  0.00000000000E+00 0. -1.
         -2   -1    0    0    0  501 -0.00000000000E+00 -0.00000000000E+00 -0.15719381637E+04  0.15719381637E+04  0.00000000000E+00 0.  1.
    9900016    2    1    2    0    0  0.85586534563E+03  0.43455469576E+02  0.23733422478E+04  0.33762902260E+04  0.22432539751E+04 0.  0.
         23    2    3    3    0    0 -0.15680635804E+03  0.51972419151E+02  0.67471680779E+02  0.19999846393E+03  0.90319386587E+02 0.  0.
         24    2    3    3    0    0 -0.80767282104E+02 -0.73553615054E+03  0.12243510365E+04  0.14328043685E+04  0.79725247896E+02 0.  0.
        -15    1    4    4    0    0 -0.11065460996E+03  0.41734315051E+02  0.79782506382E+00  0.11826593881E+03  0.00000000000E+00 0. -1.
        -15    1    5    5    0    0 -0.66273971438E+01 -0.18275124269E+03  0.36642038506E+03  0.40951903214E+03  0.00000000000E+00 0.  1.
         15    1    4    4    0    0 -0.46151748078E+02  0.10238104100E+02  0.66673855715E+02  0.81732525118E+02  0.00000000000E+00 0.  1.
         15    1    3    3    0    0  0.10272629311E+04  0.70401971128E+03  0.93529209002E+03  0.15574608108E+04  0.00000000000E+00 0. -1.
        -16    1    1    2    0    0 -0.85586534563E+03 -0.43455469576E+02 -0.89895122603E+03  0.12419771232E+04  0.00000000000E+00 0.  1.
         16    1    5    5    0    0 -0.74139884961E+02 -0.55278490786E+03  0.85793065141E+03  0.10232853363E+04  0.00000000000E+00 0. -1.
    9900018    1    3    3    0    0  0.66176054635E+02  0.22999489693E+02  0.14622744057E+03  0.18602658279E+03  0.91187600000E+02 0.  0.
<mgrwt>
<rscale>  0 0.43765928E+04</rscale>
<asrwt>0</asrwt>
<pdfrwt beam="1">  1        2 0.46866603E+00 0.43765928E+04</pdfrwt>
<pdfrwt beam="2">  1       -2 0.24183664E+00 0.43765928E+04</pdfrwt>
<totfact> 0.89845635E-02</totfact>
</mgrwt>
</event>
<event>
12    1  0.3225564E-012  0.2637822E+04  0.7818608E-02  0.8355466E-01
          2   -1    0    0  501    0  0.00000000000E+00  0.00000000000E+00  0.20830118698E+04  0.20830118698E+04  0.00000000000E+00 0. -1.
         -2   -1    0    0    0  501 -0.00000000000E+00 -0.00000000000E+00 -0.83510163394E+03  0.83510163394E+03  0.00000000000E+00 0.  1.
    9900016    2    1    2    0    0  0.10605919146E+03 -0.18678766463E+03  0.12585759194E+04  0.25038717927E+04  0.21538854253E+04 0.  0.
         23    2    3    3    0    0  0.16477021180E+03  0.81034415788E+02 -0.38964815988E+02  0.20848437151E+03  0.90728589982E+02 0.  0.
         24    2    3    3    0    0  0.28342300378E+03  0.75578806402E+03  0.49357699344E+03  0.94958241422E+03  0.80896947743E+02 0.  0.
        -15    1    5    5    0    0  0.15543942064E+03  0.39029502193E+03  0.30298635397E+03  0.51796944729E+03  0.00000000000E+00 0.  1.
        -15    1    4    4    0    0  0.25138642272E+02  0.53978052502E+02  0.46296661588E+01  0.59724494941E+02  0.00000000000E+00 0. -1.
         15    1    4    4    0    0  0.13963156953E+03  0.27056363286E+02 -0.43594482146E+02  0.14875987657E+03  0.00000000000E+00 0.  1.
         15    1    3    3    0    0 -0.34213402412E+03 -0.10236101444E+04  0.80396374198E+03  0.13458050069E+04  0.00000000000E+00 0. -1.
        -16    1    1    2    0    0 -0.10616157244E+03  0.18754284603E+03 -0.13926777338E+03  0.25658938259E+03  0.00000000000E+00 0.  1.
         16    1    5    5    0    0  0.12798358314E+03  0.36549304208E+03  0.19059063947E+03  0.43161296692E+03  0.00000000000E+00 0. -1.
    9900018    1    1    2    0    0  0.10238097953E+00 -0.75518139532E+00  0.12860208978E+03  0.15765232847E+03  0.91187600000E+02 0.  0.
<mgrwt>
<rscale>  0 0.26378223E+04</rscale>
<asrwt>0</asrwt>
<pdfrwt beam="1">  1        2 0.32046336E+00 0.26378223E+04</pdfrwt>
<pdfrwt beam="2">  1       -2 0.12847718E+00 0.26378223E+04</pdfrwt>
<totfact> 0.23696112E+00</totfact>
</mgrwt>
</event>
<event>
12    1  0.3225564E-012  0.2836572E+04  0.7818608E-02  0.8292003E-01
         -2   -1    0    0    0  501 -0.00000000000E+00  0.00000000000E+00  0.63023684007E+03  0.63023684007E+03  0.00000000000E+00 0.  1.
          2   -1    0    0  501    0  0.00000000000E+00 -0.00000000000E+00 -0.31917135420E+04  0.31917135420E+04  0.00000000000E+00 0. -1.
    9900016    2    1    2    0    0  0.11700706427E+03  0.31143108038E+03 -0.15598606951E+04  0.26798495969E+04  0.21535432438E+04 0.  0.
         23    2    3    3    0    0 -0.30229107554E+03  0.32016748264E+03 -0.18895282127E+04  0.19423962278E+04  0.93269113948E+02 0.  0.
        -24    2    3    3    0    0  0.10639210117E+03 -0.68538208901E+02 -0.11615199095E+03  0.18951041645E+03  0.80038413711E+02 0.  0.
        -15    1    3    3    0    0  0.31290603864E+03  0.59801806634E+02  0.44581950861E+03  0.54794295265E+03  0.00000000000E+00 0.  1.
        -15    1    4    4    0    0 -0.21403179077E+03  0.18016484709E+03 -0.10447978139E+04  0.10816059595E+04  0.00000000000E+00 0.  1.
         15    1    5    5    0    0  0.32189853968E+02 -0.54885262053E+01  0.61004432032E+01  0.33219362210E+02  0.00000000000E+00 0. -1.
         15    1    4    4    0    0 -0.88259284776E+02  0.14000263556E+03 -0.84473039879E+03  0.86079026827E+03  0.00000000000E+00 0. -1.
        -16    1    5    5    0    0  0.74202247202E+02 -0.63049682696E+02 -0.12225243415E+03  0.15629105424E+03  0.00000000000E+00 0.  1.
         16    1    1    2    0    0 -0.91402211625E+02 -0.33784180071E+03 -0.98109863014E+03  0.10416553982E+04  0.00000000000E+00 0. -1.
    9900018    1    1    2    0    0 -0.25604852641E+02  0.26410720337E+02 -0.20517376728E+02  0.10044538700E+03  0.91187600000E+02 0.  0.
<mgrwt>
<rscale>  0 0.28365722E+04</rscale>
<asrwt>0</asrwt>
<pdfrwt beam="1">  1        2 0.49103286E+00 0.28365722E+04</pdfrwt>
<pdfrwt beam="2">  1       -2 0.96959513E-01 0.28365722E+04</pdfrwt>
<totfact> 0.10115783E+00</totfact>
</mgrwt>
</event>
<event>
12    1  0.3225564E-012  0.3275729E+04  0.7818608E-02  0.8169099E-01
         -2   -1    0    0    0  501 -0.00000000000E+00  0.00000000000E+00  0.17014455808E+04  0.17014455808E+04  0.00000000000E+00 0.  1.
          2   -1    0    0  501    0  0.00000000000E+00 -0.00000000000E+00 -0.15766590230E+04  0.15766590230E+04  0.00000000000E+00 0. -1.
    9900016    2    1    2    0    0 -0.61024347636E+03 -0.23319732369E+03  0.61262721811E+03  0.23306825721E+04  0.21517413997E+04 0.  0.
         23    2    3    3    0    0  0.37166843596E+03 -0.27586815522E+02  0.31365312956E+00  0.38369792105E+03  0.91244383740E+02 0.  0.
        -24    2    3    3    0    0  0.32202857106E+03 -0.37817683109E+03  0.33016518854E+03  0.60175321133E+03  0.79860875726E+02 0.  0.
        -15    1    3    3    0    0 -0.13039404834E+04  0.17256632292E+03  0.28214837645E+03  0.13452314397E+04  0.00000000000E+00 0.  1.
        -15    1    4    4    0    0  0.17586146837E+03 -0.25108532233E+02 -0.43806742956E+02  0.18296645916E+03  0.00000000000E+00 0.  1.
         15    1    5    5    0    0  0.22103853508E+03 -0.20800884417E+03  0.22370275730E+03  0.37705256512E+03  0.00000000000E+00 0. -1.
         15    1    4    4    0    0  0.19580696759E+03 -0.24782832890E+01  0.44120396086E+02  0.20073146189E+03  0.00000000000E+00 0. -1.
        -16    1    5    5    0    0  0.10099003598E+03 -0.17016798693E+03  0.10646243124E+03  0.22470064621E+03  0.00000000000E+00 0.  1.
         16    1    1    2    0    0  0.58833483289E+03  0.24880297911E+03 -0.54223430531E+03  0.83788951531E+03  0.00000000000E+00 0. -1.
    9900018    1    1    2    0    0  0.21908643471E+02 -0.15605655417E+02  0.54393644966E+02  0.10953251639E+03  0.91187600000E+02 0.  0.
<mgrwt>
<rscale>  0 0.32757286E+04</rscale>
<asrwt>0</asrwt>
<pdfrwt beam="1">  1        2 0.24256292E+00 0.32757286E+04</pdfrwt>
<pdfrwt beam="2">  1       -2 0.26176086E+00 0.32757286E+04</pdfrwt>
<totfact> 0.52347088E-01</totfact>
</mgrwt>
</event>
<event>
12    1  0.3225564E-012  0.3727266E+04  0.7818608E-02  0.8061946E-01
         -2   -1    0    0    0  501 -0.00000000000E+00  0.00000000000E+00  0.13457121399E+04  0.13457121399E+04  0.00000000000E+00 0.  1.
          2   -1    0    0  501    0  0.00000000000E+00 -0.00000000000E+00 -0.25808848853E+04  0.25808848853E+04  0.00000000000E+00 0. -1.
    9900016    2    1    2    0    0 -0.15752254750E+03  0.21378812178E+03  0.37448066030E+03  0.22951857342E+04  0.22488048105E+04 0.  0.
         23    2    3    3    0    0 -0.47464840389E+02 -0.43975042910E+03 -0.67320716504E+03  0.81049983521E+03  0.89826192359E+02 0.  0.
        -24    2    3    3    0    0 -0.58279837027E+00  0.73336077077E+02 -0.96823786479E+02  0.14564124848E+03  0.80361730787E+02 0.  0.
        -15    1    4    4    0    0 -0.24054633750E+02 -0.15818283824E+03 -0.32361006760E+03  0.36100403262E+03  0.00000000000E+00 0. -1.
        -15    1    3    3    0    0 -0.12924374289E+03  0.55490084687E+03  0.10850632170E+04  0.12255533770E+04  0.00000000000E+00 0.  1.
         15    1    5    5    0    0 -0.12697759690E+02  0.48043360179E+02 -0.10522215935E+03  0.11636623383E+03  0.00000000000E+00 0. -1.
         15    1    4    4    0    0 -0.23410206638E+02 -0.28156759086E+03 -0.34959709745E+03  0.44949580258E+03  0.00000000000E+00 0.  1.
        -16    1    5    5    0    0  0.12114961320E+02  0.25292716898E+02  0.83983728664E+01  0.29275014648E+02  0.00000000000E+00 0.  1.
         16    1    1    2    0    0  0.15752254750E+03 -0.21378812178E+03 -0.16096534057E+04  0.16314112910E+04  0.00000000000E+00 0. -1.
    9900018    1    3    3    0    0  0.19768834148E+02  0.25301626940E+02  0.59448394782E+02  0.11349127352E+03  0.91187600000E+02 0.  0.
<mgrwt>
<rscale>  0 0.37272661E+04</rscale>
<asrwt>0</asrwt>
<pdfrwt beam="1">  1        2 0.39705921E+00 0.37272661E+04</pdfrwt>
<pdfrwt beam="2">  1       -2 0.20703264E+00 0.37272661E+04</pdfrwt>
<totfact> 0.30140622E-01</totfact>
</mgrwt>
</event>
<event>
12    1  0.3225564E-012  0.3370705E+04  0.7818608E-02  0.8145134E-01
          1   -1    0    0  501    0  0.00000000000E+00  0.00000000000E+00  0.39699424918E+04  0.39699424918E+04  0.00000000000E+00 0. -1.
         -1   -1    0    0    0  501 -0.00000000000E+00 -0.00000000000E+00 -0.71547950971E+03  0.71547950971E+03  0.00000000000E+00 0.  1.
    9900016    2    1    2    0    0 -0.29611301207E+03 -0.70583605339E+03  0.15988508641E+04  0.28614321617E+04  0.22462374052E+04 0.  0.
         23    2    3    3    0    0 -0.41174002689E+03  0.14802976089E+03  0.24049172872E+03  0.50781931473E+03  0.92744406717E+02 0.  0.
        -24    2    3    3    0    0  0.84603024979E+03 -0.32443434559E+03  0.60020729337E+03  0.10897643930E+04  0.79453187750E+02 0.  0.
        -15    1    4    4    0    0 -0.15473828631E+03  0.78226420380E+02  0.50205192224E+02  0.18051003136E+03  0.00000000000E+00 0.  1.
        -15    1    3    3    0    0 -0.75478891149E+03 -0.50921700157E+03  0.71695556037E+03  0.11588932354E+04  0.00000000000E+00 0.  1.
         15    1    4    4    0    0 -0.25700174058E+03  0.69803340509E+02  0.19028653650E+03  0.32730928336E+03  0.00000000000E+00 0. -1.
         15    1    5    5    0    0  0.43158903659E+03 -0.13574106385E+03  0.33314563806E+03  0.56185474020E+03  0.00000000000E+00 0. -1.
        -16    1    5    5    0    0  0.41444121320E+03 -0.18869328174E+03  0.26706165531E+03  0.52790965279E+03  0.00000000000E+00 0.  1.
         16    1    1    2    0    0  0.29611301207E+03  0.70583605339E+03  0.16556121181E+04  0.18239898398E+04  0.00000000000E+00 0. -1.
    9900018    1    3    3    0    0  0.24385676511E+02 -0.20214467113E+02  0.41196281592E+02  0.10495521859E+03  0.91187600000E+02 0.  0.
<mgrwt>
<rscale>  0 0.33707047E+04</rscale>
<asrwt>0</asrwt>
<pdfrwt beam="1">  1        1 0.61076037E+00 0.33707047E+04</pdfrwt>
<pdfrwt beam="2">  1       -1 0.11007377E+00 0.33707047E+04</pdfrwt>
<totfact> 0.63934279E-02</totfact>
</mgrwt>
</event>
<event>
12    1  0.3225564E-012  0.2974986E+04  0.7818608E-02  0.8250910E-01
          2   -1    0    0  501    0  0.00000000000E+00  0.00000000000E+00  0.19138461122E+04  0.19138461122E+04  0.00000000000E+00 0. -1.
         -2   -1    0    0    0  501 -0.00000000000E+00 -0.00000000000E+00 -0.11561196581E+04  0.11561196581E+04  0.00000000000E+00 0.  1.
    9900016    2    1    2    0    0  0.57149750734E+03 -0.19387418362E+03  0.56544068142E+03  0.23014974468E+04  0.21477827482E+04 0.  0.
         23    2    3    3    0    0 -0.84877567526E+02 -0.36544285927E+03  0.22817231413E+03  0.44811659557E+03  0.89404661128E+02 0.  0.
        -24    2    3    3    0    0 -0.33936684506E+03 -0.11144075876E+02 -0.45118674035E+03  0.57020222864E+03  0.79164770731E+02 0.  0.
        -15    1    4    4    0    0 -0.76631718339E+02 -0.17005497145E+03  0.14193036127E+03  0.23438289404E+03  0.00000000000E+00 0.  1.
        -15    1    3    3    0    0  0.99574191992E+03  0.18271275152E+03  0.78845510763E+03  0.12831786226E+04  0.00000000000E+00 0.  1.
         15    1    4    4    0    0 -0.82458491872E+01 -0.19538788782E+03  0.86241952861E+02  0.21373370153E+03  0.00000000000E+00 0. -1.
         15    1    5    5    0    0 -0.33719061020E+02  0.25808234474E+01 -0.93968596279E+02  0.99868577703E+02  0.00000000000E+00 0. -1.
        -16    1    5    5    0    0 -0.30564778404E+03 -0.13724899324E+02 -0.35721814407E+03  0.47033365093E+03  0.00000000000E+00 0.  1.
         16    1    1    2    0    0 -0.61299143309E+03  0.15809550914E+03  0.13367633816E+03  0.64701008526E+03  0.00000000000E+00 0. -1.
    9900018    1    1    2    0    0  0.41493925745E+02  0.35778674474E+02  0.58609434600E+02  0.12145823825E+03  0.91187600000E+02 0.  0.
<mgrwt>
<rscale>  0 0.29749858E+04</rscale>
<asrwt>0</asrwt>
<pdfrwt beam="1">  1        2 0.29443786E+00 0.29749858E+04</pdfrwt>
<pdfrwt beam="2">  1       -2 0.17786456E+00 0.29749858E+04</pdfrwt>
<totfact> 0.12007499E+00</totfact>
</mgrwt>
</event>
<event>
12    1  0.3225564E-012  0.2826846E+04  0.7818608E-02  0.8294982E-01
         -2   -1    0    0    0  501 -0.00000000000E+00  0.00000000000E+00  0.20195005846E+04  0.20195005846E+04  0.00000000000E+00 0.  1.
          2   -1    0    0  501    0  0.00000000000E+00 -0.00000000000E+00 -0.98923683104E+03  0.98923683104E+03  0.00000000000E+00 0. -1.
    9900016    2    1    2    0    0  0.26274244057E+03 -0.44970316795E+03  0.81532448814E+03  0.24452967203E+04  0.22457639012E+04 0.  0.
         23    2    3    3    0    0  0.51636607935E+03 -0.92130658448E+01  0.23364520033E+03  0.57443247350E+03  0.93079420357E+02 0.  0.
        -24    2    3    3    0    0  0.20061217815E+02  0.58052486162E+03  0.40589426219E+03  0.71312377512E+03  0.79898680482E+02 0.  0.
        -15    1    3    3    0    0 -0.28346130561E+03 -0.10092250608E+04  0.13593657679E+03  0.10570545341E+04  0.00000000000E+00 0.  1.
        -15    1    4    4    0    0  0.41898924659E+03 -0.40281040780E+02  0.20555038666E+03  0.46842876989E+03  0.00000000000E+00 0.  1.
         15    1    4    4    0    0  0.97376832752E+02  0.31067974935E+02  0.28094813670E+02  0.10600370361E+03  0.00000000000E+00 0. -1.
         15    1    5    5    0    0  0.33444106862E+02  0.51650211827E+03  0.33433147806E+03  0.61617406930E+03  0.00000000000E+00 0. -1.
        -16    1    5    5    0    0 -0.13382889048E+02  0.64022743352E+02  0.71562784129E+02  0.96949705816E+02  0.00000000000E+00 0.  1.
         16    1    1    2    0    0 -0.26274244057E+03  0.44970316795E+03  0.21493926542E+03  0.56344069534E+03  0.00000000000E+00 0. -1.
    9900018    1    3    3    0    0  0.97764490202E+01 -0.11789902960E+02  0.39848448833E+02  0.10068593762E+03  0.91187600000E+02 0.  0.
<mgrwt>
<rscale>  0 0.28268458E+04</rscale>
<asrwt>0</asrwt>
<pdfrwt beam="1">  1        2 0.15219028E+00 0.28268458E+04</pdfrwt>
<pdfrwt beam="2">  1       -2 0.31069240E+00 0.28268458E+04</pdfrwt>
<totfact> 0.60723290E-01</totfact>
</mgrwt>
</event>
<event>
12    1  0.3225564E-012  0.2282848E+04  0.7818608E-02  0.8484715E-01
         -2   -1    0    0    0  501 -0.00000000000E+00  0.00000000000E+00  0.40094996111E+03  0.40094996111E+03  0.00000000000E+00 0.  1.
          2   -1    0    0  501    0  0.00000000000E+00 -0.00000000000E+00 -0.32494038863E+04  0.32494038863E+04  0.00000000000E+00 0. -1.
    9900016    2    1    2    0    0  0.32624576883E+02  0.45629720726E+01 -0.28146613891E+04  0.36031614834E+04  0.22493040604E+04 0.  0.
         23    2    3    3    0    0  0.29564552503E+03 -0.26060688352E+03 -0.16016965516E+04  0.16519239860E+04  0.89993265923E+02 0.  0.
         24    2    3    3    0    0 -0.32482160923E+03  0.53507216197E+03 -0.13427224636E+04  0.14836515262E+04  0.80665609718E+02 0.  0.
        -15    1    4    4    0    0  0.24038637317E+03 -0.24967081164E+03 -0.13272217432E+04  0.13717283544E+04  0.00000000000E+00 0. -1.
        -15    1    5    5    0    0 -0.18067400280E+03  0.22889787506E+03 -0.57794610424E+03  0.64734769012E+03  0.00000000000E+00 0.  1.
         15    1    4    4    0    0  0.55259151862E+02 -0.10936071876E+02 -0.27447480842E+03  0.28019563164E+03  0.00000000000E+00 0.  1.
         15    1    3    3    0    0  0.94465934998E+02 -0.25896957782E+03  0.20575639053E+03  0.34398364402E+03  0.00000000000E+00 0. -1.
        -16    1    1    2    0    0 -0.32624576883E+02 -0.45629720726E+01 -0.33792536033E+02  0.47192364027E+02  0.00000000000E+00 0.  1.
         16    1    5    5    0    0 -0.14414760643E+03  0.30617428692E+03 -0.76477635938E+03  0.83630383610E+03  0.00000000000E+00 0. -1.
    9900018    1    3    3    0    0 -0.32665273918E+02 -0.10932728571E+02 -0.75998764407E+02  0.12360232708E+03  0.91187600000E+02 0.  0.
<mgrwt>
<rscale>  0 0.22828477E+04</rscale>
<asrwt>0</asrwt>
<pdfrwt beam="1">  1        2 0.49990829E+00 0.22828477E+04</pdfrwt>
<pdfrwt beam="2">  1       -2 0.61684609E-01 0.22828477E+04</pdfrwt>
<totfact> 0.26726802E+00</totfact>
</mgrwt>
</event>
<event>
12    1  0.3225564E-012  0.2465576E+04  0.7818608E-02  0.8415353E-01
         -2   -1    0    0    0  501 -0.00000000000E+00  0.00000000000E+00  0.33266839276E+03  0.33266839276E+03  0.00000000000E+00 0.  1.
          2   -1    0    0  501    0  0.00000000000E+00 -0.00000000000E+00 -0.45684124675E+04  0.45684124675E+04  0.00000000000E+00 0. -1.
    9900016    2    1    2    0    0  0.13117297508E+02  0.21294797943E+03 -0.38648545191E+04  0.44732047475E+04  0.22420841539E+04 0.  0.
         23    2    3    3    0    0 -0.19217178137E+03  0.11504791566E+03  0.51141821085E+02  0.25052953881E+03  0.99917703627E+02 0.  0.
         24    2    3    3    0    0 -0.62299868119E+03  0.10677121699E-01 -0.13881238691E+04  0.15236575923E+04  0.80729336648E+02 0.  0.
        -15    1    5    5    0    0 -0.54480339456E+03  0.22757136803E+02 -0.12407051098E+04  0.13552408625E+04  0.00000000000E+00 0.  1.
        -15    1    4    4    0    0 -0.12734987540E+03  0.18102397343E+02  0.26139619667E+02  0.13125916071E+03  0.00000000000E+00 0.  1.
         15    1    3    3    0    0  0.80948099811E+03  0.63642082687E+02 -0.24194043233E+04  0.25520241144E+04  0.00000000000E+00 0. -1.
         15    1    4    4    0    0 -0.64821905973E+02  0.96945518322E+02  0.25002201419E+02  0.11927037810E+03  0.00000000000E+00 0. -1.
        -16    1    1    2    0    0 -0.13117297508E+02 -0.21294797943E+03 -0.37088955563E+03  0.42787611281E+03  0.00000000000E+00 0.  1.
         16    1    5    5    0    0 -0.78195286621E+02 -0.22746459681E+02 -0.14741875932E+03  0.16841672981E+03  0.00000000000E+00 0. -1.
    9900018    1    3    3    0    0  0.18806761961E+02  0.34247303952E+02 -0.10846814781E+03  0.14699350192E+03  0.91187600000E+02 0.  0.
<mgrwt>
<rscale>  0 0.24655761E+04</rscale>
<asrwt>0</asrwt>
<pdfrwt beam="1">  1        2 0.70283259E+00 0.24655761E+04</pdfrwt>
<pdfrwt beam="2">  1       -2 0.51179760E-01 0.24655761E+04</pdfrwt>
<totfact> 0.34193298E-01</totfact>
</mgrwt>
</event>
<event>
12    1  0.3225564E-012  0.2533541E+04  0.7818608E-02  0.8391133E-01
          2   -1    0    0  501    0  0.00000000000E+00  0.00000000000E+00  0.27562606152E+04  0.27562606152E+04  0.00000000000E+00 0.  1.
         -2   -1    0    0    0  501 -0.00000000000E+00 -0.00000000000E+00 -0.58220434183E+03  0.58220434183E+03  0.00000000000E+00 0. -1.
    9900016    2    1    2    0    0 -0.12169594982E+03  0.18780500674E+03  0.17721400183E+04  0.28784461521E+04  0.22571866076E+04 0.  0.
         23    2    3    3    0    0  0.28174291549E+03  0.39178170143E+03  0.16010369669E+04  0.16746744193E+04  0.91340402292E+02 0.  0.
        -24    2    3    3    0    0 -0.66607389275E+03 -0.45579645681E+02 -0.14275171777E+02  0.67276537645E+03  0.81716194989E+02 0.  0.
        -15    1    4    4    0    0  0.23800779132E+03  0.27939048388E+03  0.12857586749E+04  0.13371170934E+04  0.00000000000E+00 0. -1.
        -15    1    3    3    0    0  0.28862802442E+03 -0.15530625123E+03  0.56869845050E+01  0.32780864837E+03  0.00000000000E+00 0.  1.
         15    1    5    5    0    0 -0.27939671913E+03 -0.58360385231E+02  0.38489207319E+01  0.28545275514E+03  0.00000000000E+00 0. -1.
         15    1    4    4    0    0  0.43735124169E+02  0.11239121755E+03  0.31527829201E+03  0.33755732592E+03  0.00000000000E+00 0.  1.
        -16    1    5    5    0    0 -0.38667717362E+03  0.12780739550E+02 -0.18124092509E+02  0.38731262132E+03  0.00000000000E+00 0.  1.
         16    1    1    2    0    0  0.12169594982E+03 -0.18780500674E+03  0.40191625514E+03  0.46001880494E+03  0.00000000000E+00 0. -1.
    9900018    1    3    3    0    0 -0.25992996973E+02 -0.30907977782E+01  0.17969123858E+03  0.20319770801E+03  0.91187600000E+02 0.  0.
<mgrwt>
<rscale>  0 0.25335405E+04</rscale>
<asrwt>0</asrwt>
<pdfrwt beam="1">  1        2 0.42404009E+00 0.25335405E+04</pdfrwt>
<pdfrwt beam="2">  1       -2 0.89569900E-01 0.25335405E+04</pdfrwt>
<totfact> 0.23351360E+00</totfact>
</mgrwt>
</event>
<event>
12    1  0.3225564E-012  0.2698170E+04  0.7818608E-02  0.8335599E-01
          1   -1    0    0  501    0  0.00000000000E+00  0.00000000000E+00  0.31583134616E+04  0.31583134616E+04  0.00000000000E+00 0. -1.
         -1   -1    0    0    0  501 -0.00000000000E+00 -0.00000000000E+00 -0.57626632937E+03  0.57626632937E+03  0.00000000000E+00 0.  1.
    9900016    2    1    2    0    0  0.26322484455E+03  0.31383710708E+03  0.22321713509E+04  0.31958831129E+04  0.22501775226E+04 0.  0.
         23    2    3    3    0    0 -0.87659463067E+02 -0.40570243000E+03  0.15970210519E+04  0.16526536584E+04  0.92245493958E+02 0.  0.
         24    2    3    3    0    0  0.29089663257E+03 -0.19348071003E+03  0.17792147227E+03  0.40031622826E+03  0.80878899106E+02 0.  0.
        -15    1    4    4    0    0 -0.51904898321E+02 -0.72076782943E+02  0.29394639162E+03  0.30707273122E+03  0.00000000000E+00 0.  1.
        -15    1    5    5    0    0  0.42535107392E+02 -0.62432866456E+02  0.20024931687E+02  0.78154309310E+02  0.00000000000E+00 0.  1.
         15    1    4    4    0    0 -0.35754564746E+02 -0.33362564705E+03  0.13030746603E+04  0.13455809272E+04  0.00000000000E+00 0. -1.
         15    1    3    3    0    0  0.28954191564E+02  0.91212263145E+03  0.30393119162E+03  0.96186288485E+03  0.00000000000E+00 0. -1.
        -16    1    1    2    0    0 -0.26322484455E+03 -0.31383710708E+03  0.34987578133E+03  0.53869667803E+03  0.00000000000E+00 0.  1.
         16    1    5    5    0    0  0.24836152517E+03 -0.13104784357E+03  0.15789654058E+03  0.32216191895E+03  0.00000000000E+00 0. -1.
    9900018    1    3    3    0    0  0.31033483482E+02  0.89761565159E+00  0.15329763509E+03  0.18105034142E+03  0.91187600000E+02 0.  0.
<mgrwt>
<rscale>  0 0.26981695E+04</rscale>
<asrwt>0</asrwt>
<pdfrwt beam="1">  1        1 0.48589437E+00 0.26981695E+04</pdfrwt>
<pdfrwt beam="2">  1       -1 0.88656360E-01 0.26981695E+04</pdfrwt>
<totfact> 0.49787219E-01</totfact>
</mgrwt>
</event>
<event>
12    1  0.3225564E-012  0.2588359E+04  0.7818608E-02  0.8372166E-01
          2   -1    0    0  501    0  0.00000000000E+00  0.00000000000E+00  0.23927491243E+04  0.23927491243E+04  0.00000000000E+00 0. -1.
         -2   -1    0    0    0  501 -0.00000000000E+00 -0.00000000000E+00 -0.69998982438E+03  0.69998982438E+03  0.00000000000E+00 0.  1.
    9900016    2    1    2    0    0 -0.33728025036E+02 -0.79962993760E+01  0.11072343448E+04  0.24220514014E+04  0.21538717641E+04 0.  0.
         23    2    3    3    0    0  0.23114122446E+03  0.18138496296E+03  0.18857854603E+02  0.30857590823E+03  0.92394274876E+02 0.  0.
        -24    2    3    3    0    0 -0.10067694809E+04 -0.21804742170E+03  0.83679900227E+03  0.13295565340E+04  0.79740461164E+02 0.  0.
        -15    1    4    4    0    0  0.31533045124E+02  0.61728518594E+02 -0.21075278313E+02  0.72449363686E+02  0.00000000000E+00 0.  1.
        -15    1    3    3    0    0  0.74190023142E+03  0.28666159366E+02  0.25157748792E+03  0.78391895914E+03  0.00000000000E+00 0.  1.
         15    1    5    5    0    0 -0.14931073230E+03 -0.53302780233E+01  0.10928891279E+03  0.18511124521E+03  0.00000000000E+00 0. -1.
         15    1    4    4    0    0  0.19960817933E+03  0.11965644437E+03  0.39933132916E+02  0.23612654455E+03  0.00000000000E+00 0. -1.
        -16    1    5    5    0    0 -0.85745874861E+03 -0.21271714368E+03  0.72751008948E+03  0.11444452888E+04  0.00000000000E+00 0.  1.
         16    1    1    2    0    0  0.37199757642E+02  0.13196451318E+02  0.57759542135E+03  0.57894251792E+03  0.00000000000E+00 0. -1.
    9900018    1    1    2    0    0 -0.34717326055E+01 -0.52001519415E+01  0.79295337518E+01  0.91745029330E+02  0.91187600000E+02 0.  0.
<mgrwt>
<rscale>  0 0.25883586E+04</rscale>
<asrwt>0</asrwt>
<pdfrwt beam="1">  1        2 0.36811525E+00 0.25883586E+04</pdfrwt>
<pdfrwt beam="2">  1       -2 0.10769074E+00 0.25883586E+04</pdfrwt>
<totfact> 0.24574141E+00</totfact>
</mgrwt>
</event>
<event>
12    1  0.3225564E-012  0.2876202E+04  0.7818608E-02  0.8279993E-01
         -2   -1    0    0    0  501 -0.00000000000E+00  0.00000000000E+00  0.63709474704E+03  0.63709474704E+03  0.00000000000E+00 0.  1.
          2   -1    0    0  501    0  0.00000000000E+00 -0.00000000000E+00 -0.32461971420E+04  0.32461971420E+04  0.00000000000E+00 0. -1.
    9900016    2    1    2    0    0  0.63413264029E+02  0.32417635290E+03 -0.14578463799E+04  0.26213890574E+04  0.21534281908E+04 0.  0.
         23    2    3    3    0    0 -0.16324071412E+03  0.25709469902E+03 -0.42951623116E+03  0.53468234148E+03  0.93036543614E+02 0.  0.
        -24    2    3    3    0    0 -0.42204373602E+03  0.60740119715E+03 -0.99426793979E+03  0.12417722999E+04  0.79828437070E+02 0.  0.
        -15    1    4    4    0    0 -0.75914890670E+02  0.47344793695E+02 -0.14772380176E+03  0.17270472408E+03  0.00000000000E+00 0.  1.
        -15    1    3    3    0    0  0.64869771417E+03 -0.54031954328E+03 -0.34062208989E+02  0.84493441597E+03  0.00000000000E+00 0.  1.
         15    1    5    5    0    0 -0.54849204068E+02  0.76365651914E+02 -0.17528120845E+03  0.19890613368E+03  0.00000000000E+00 0. -1.
         15    1    4    4    0    0 -0.87325823448E+02  0.20974990533E+03 -0.28179242941E+03  0.36197761740E+03  0.00000000000E+00 0. -1.
        -16    1    5    5    0    0 -0.36719453195E+03  0.53103554524E+03 -0.81898673133E+03  0.10428661662E+04  0.00000000000E+00 0.  1.
         16    1    1    2    0    0 -0.11431048145E+03 -0.33706642905E+03 -0.10737871829E+04  0.11312380730E+04  0.00000000000E+00 0. -1.
    9900018    1    1    2    0    0  0.50897217422E+02  0.12890076149E+02 -0.77468832192E+02  0.13066475867E+03  0.91187600000E+02 0.  0.
<mgrwt>
<rscale>  0 0.28762025E+04</rscale>
<asrwt>0</asrwt>
<pdfrwt beam="1">  1        2 0.49941495E+00 0.28762025E+04</pdfrwt>
<pdfrwt beam="2">  1       -2 0.98014576E-01 0.28762025E+04</pdfrwt>
<totfact> 0.90524779E-01</totfact>
</mgrwt>
</event>
<event>
12    1  0.3225564E-012  0.5526617E+04  0.7818608E-02  0.7752037E-01
          1   -1    0    0  501    0  0.00000000000E+00  0.00000000000E+00  0.17487574921E+04  0.17487574921E+04  0.00000000000E+00 0. -1.
         -1   -1    0    0    0  501 -0.00000000000E+00 -0.00000000000E+00 -0.43664562630E+04  0.43664562630E+04  0.00000000000E+00 0.  1.
    9900016    2    1    2    0    0  0.14302829987E+04  0.16467458053E+04 -0.19115280258E+04  0.36150053852E+04  0.21579720429E+04 0.  0.
         23    2    3    3    0    0 -0.89467932364E+02 -0.15853316126E+03 -0.35364232873E+03  0.40687258632E+03  0.85703737883E+02 0.  0.
        -24    2    3    3    0    0  0.54930930240E+03 -0.13627635818E+03 -0.62139585601E+03  0.84415156880E+03  0.78403480366E+02 0.  0.
        -15    1    4    4    0    0  0.12441013126E+01 -0.63838303277E+02 -0.16681993266E+03  0.17862185389E+03  0.00000000000E+00 0.  1.
        -15    1    3    3    0    0  0.97044162863E+03  0.19415553248E+04 -0.93648984103E+03  0.23639812301E+04  0.00000000000E+00 0.  1.
         15    1    4    4    0    0 -0.90712033677E+02 -0.94694857980E+02 -0.18682239607E+03  0.22825073243E+03  0.00000000000E+00 0. -1.
         15    1    5    5    0    0  0.40052595963E+03 -0.13278237948E+03 -0.44238519315E+03  0.61135657661E+03  0.00000000000E+00 0. -1.
        -16    1    5    5    0    0  0.14878334278E+03 -0.34939787019E+01 -0.17901066286E+03  0.23279499220E+03  0.00000000000E+00 0.  1.
         16    1    1    2    0    0 -0.14820339326E+04 -0.17200605361E+04 -0.66837062823E+03  0.23668020876E+04  0.00000000000E+00 0. -1.
    9900018    1    1    2    0    0  0.51750933909E+02  0.73314730809E+02 -0.37800116863E+02  0.13340628225E+03  0.91187600000E+02 0.  0.
<mgrwt>
<rscale>  0 0.55266167E+04</rscale>
<asrwt>0</asrwt>
<pdfrwt beam="1">  1        1 0.26903962E+00 0.55266167E+04</pdfrwt>
<pdfrwt beam="2">  1       -1 0.67176249E+00 0.55266167E+04</pdfrwt>
<totfact> 0.77269347E-04</totfact>
</mgrwt>
</event>
<event>
12    1  0.3225564E-012  0.2948957E+04  0.7818608E-02  0.8258459E-01
         -2   -1    0    0    0  501 -0.00000000000E+00  0.00000000000E+00  0.11597909006E+04  0.11597909006E+04  0.00000000000E+00 0.  1.
          2   -1    0    0  501    0  0.00000000000E+00 -0.00000000000E+00 -0.18745507791E+04  0.18745507791E+04  0.00000000000E+00 0. -1.
    9900016    2    1    2    0    0  0.24110409005E+03  0.11504701971E+03  0.71735433889E+01  0.22645658261E+04  0.22487418532E+04 0.  0.
         23    2    3    3    0    0  0.31941093757E+03  0.19408044345E+03  0.49313844468E+02  0.38794965045E+03  0.91556050912E+02 0.  0.
        -24    2    3    3    0    0 -0.39652863183E+03  0.58074116805E+03  0.50245703565E+03  0.86786243128E+03  0.78910498803E+02 0.  0.
        -15    1    4    4    0    0  0.10169433460E+03  0.27579786393E+02  0.42963525745E+02  0.11379036362E+03  0.00000000000E+00 0.  1.
        -15    1    3    3    0    0  0.29021633488E+03 -0.62165788550E+03 -0.58175763230E+03  0.89951430805E+03  0.00000000000E+00 0.  1.
         15    1    5    5    0    0 -0.13952610496E+03  0.15178782475E+03  0.12233599046E+03  0.23973562995E+03  0.00000000000E+00 0. -1.
         15    1    4    4    0    0  0.21771660296E+03  0.16650065706E+03  0.63503187224E+01  0.27415928683E+03  0.00000000000E+00 0. -1.
        -16    1    5    5    0    0 -0.25700252687E+03  0.42895334329E+03  0.38012104519E+03  0.62812680132E+03  0.00000000000E+00 0.  1.
         16    1    1    2    0    0 -0.24110409005E+03 -0.11504701971E+03 -0.72193342197E+03  0.76977585357E+03  0.00000000000E+00 0. -1.
    9900018    1    3    3    0    0  0.28005449429E+02 -0.38116706287E+02  0.37160295571E+02  0.10923943636E+03  0.91187600000E+02 0.  0.
<mgrwt>
<rscale>  0 0.29489571E+04</rscale>
<asrwt>0</asrwt>
<pdfrwt beam="1">  1        2 0.28839243E+00 0.29489571E+04</pdfrwt>
<pdfrwt beam="2">  1       -2 0.17842937E+00 0.29489571E+04</pdfrwt>
<totfact> 0.12539267E+00</totfact>
</mgrwt>
</event>
