<event>
11    1  0.6472313E-013  0.1577098E+04  0.7818608E-02  0.9235832E-01
          2   -1    0    0  501    0  0.00000000000E+00  0.00000000000E+00  0.10298239989E+04  0.10298239989E+04  0.00000000000E+00 0. -1.
         -2   -1    0    0    0  501 -0.00000000000E+00 -0.00000000000E+00 -0.89811634485E+03  0.89811634485E+03  0.00000000000E+00 0.  1.
    9900016    2    1    2    0    0  0.41397001097E+03 -0.32320188795E+03 -0.29160163989E+03  0.94277101226E+03  0.72660514368E+03 0.  0.
         23    2    3    3    0    0  0.33698077273E+03 -0.22460764640E+03 -0.49401700888E+03  0.64519670706E+03  0.90671658886E+02 0.  0.
        -15    1    4    4    0    0  0.32553964833E+03 -0.19201442630E+03 -0.47005589381E+03  0.60315681697E+03  0.00000000000E+00 0. -1.
        -15    1    1    2    0    0  0.58547338515E+02  0.83545456807E+02 -0.59381791499E+02  0.11804165096E+03  0.00000000000E+00 0. -1.
         15    1    4    4    0    0  0.11441124402E+02 -0.32593220095E+02 -0.23961115062E+02  0.42039890090E+02  0.00000000000E+00 0.  1.
         15    1    1    2    0    0 -0.47217177391E+02  0.21573243875E+03 -0.33171675845E+01  0.22086409978E+03  0.00000000000E+00 0.  1.
        -16    1    1    2    0    0 -0.42530017209E+03  0.23923992399E+02  0.48600825307E+03  0.64626358078E+03  0.00000000000E+00 0.  1.
         16    1    3    3    0    0  0.35144962694E+02 -0.10851993729E+03  0.13275080109E+03  0.17502719898E+03  0.00000000000E+00 0. -1.
    9900018    1    3    3    0    0  0.41844275540E+02  0.99256957370E+01  0.69664567888E+02  0.12254710623E+03  0.91187600000E+02 0.  0.
<mgrwt>
<rscale>  0 0.10691117E+04</rscale>
<asrwt>0</asrwt>
<pdfrwt beam="1">  1        2 0.15843446E+00 0.15770977E+04</pdfrwt>
<pdfrwt beam="2">  1       -2 0.13817175E+00 0.15770977E+04</pdfrwt>
<totfact> 0.85246542E+00</totfact>
</mgrwt>
</event>
<event>
11    1  0.6472313E-013  0.1134978E+04  0.7818608E-02  0.9632878E-01
          2   -1    0    0  501    0  0.00000000000E+00  0.00000000000E+00  0.14358089837E+04  0.14358089837E+04  0.00000000000E+00 0. -1.
         -2   -1    0    0    0  501 -0.00000000000E+00 -0.00000000000E+00 -0.42914857079E+03  0.42914857079E+03  0.00000000000E+00 0.  1.
    9900016    2    1    2    0    0  0.32663272728E+02  0.23653690203E+03  0.73194422830E+03  0.10504898521E+04  0.71468173375E+03 0.  0.
         23    2    3    3    0    0  0.40881529822E+02 -0.92778434040E+02  0.22631417476E+02  0.13965237439E+03  0.93335241539E+02 0.  0.
        -15    1    4    4    0    0  0.89155070069E+01  0.18847769252E+02 -0.20321407863E+01  0.20948848826E+02  0.00000000000E+00 0. -1.
        -15    1    1    2    0    0  0.40083962747E+02 -0.37871180659E+03  0.40850381215E+03  0.55848430691E+03  0.00000000000E+00 0.  1.
         15    1    4    4    0    0  0.31966022816E+02 -0.11162620329E+03  0.24663558262E+02  0.11870352557E+03  0.00000000000E+00 0.  1.
         15    1    1    2    0    0 -0.10012291177E+03  0.60902390861E+02 -0.12242543290E+03  0.16947473350E+03  0.00000000000E+00 0. -1.
        -16    1    1    2    0    0  0.27375676299E+02  0.81272513702E+02 -0.11362194638E+02  0.86508662013E+02  0.00000000000E+00 0.  1.
         16    1    3    3    0    0  0.25126495349E+02 -0.92199450785E+02  0.30176137643E+03  0.31653121141E+03  0.00000000000E+00 0. -1.
    9900018    1    3    3    0    0 -0.33344752443E+02  0.42151478686E+03  0.40755143440E+03  0.59430626627E+03  0.91187600000E+02 0.  0.
<mgrwt>
<rscale>  0 0.75157778E+03</rscale>
<asrwt>0</asrwt>
<pdfrwt beam="1">  1        2 0.22089369E+00 0.11349785E+04</pdfrwt>
<pdfrwt beam="2">  1       -2 0.66022858E-01 0.11349785E+04</pdfrwt>
<totfact> 0.28770124E+01</totfact>
</mgrwt>
</event>
<event>
11    1  0.6472313E-013  0.1415709E+04  0.7818608E-02  0.8942526E-01
         -2   -1    0    0    0  501 -0.00000000000E+00  0.00000000000E+00  0.34481227563E+03  0.34481227563E+03  0.00000000000E+00 0.  1.
          2   -1    0    0  501    0  0.00000000000E+00 -0.00000000000E+00 -0.14531322118E+04  0.14531322118E+04  0.00000000000E+00 0. -1.
    9900016    2    1    2    0    0 -0.27499631925E+02  0.12383604738E+02 -0.27107962485E+03  0.75627759024E+03  0.70538078162E+03 0.  0.
         23    2    3    3    0    0  0.20447715263E+03 -0.95940789146E+01 -0.44979028921E+02  0.22778409682E+03  0.89216194855E+02 0.  0.
        -15    1    1    2    0    0  0.69095348047E+01  0.84808647032E+02 -0.92484845110E+02  0.12567296789E+03  0.00000000000E+00 0.  1.
        -15    1    4    4    0    0  0.43526227840E+02  0.18778463330E+02  0.20597991752E+02  0.51685979329E+02  0.00000000000E+00 0. -1.
         15    1    4    4    0    0  0.16095092479E+03 -0.28372542244E+02 -0.65577020673E+02  0.17609811749E+03  0.00000000000E+00 0.  1.
         15    1    1    2    0    0  0.21944910682E+03 -0.16025949843E+03 -0.21456462831E+03  0.34623546474E+03  0.00000000000E+00 0. -1.
        -16    1    1    2    0    0 -0.19885900970E+03  0.63067246662E+02 -0.53019083792E+03  0.56975846457E+03  0.00000000000E+00 0.  1.
         16    1    3    3    0    0 -0.23386293012E+03 -0.83222420248E+02 -0.28444775851E+03  0.37752929508E+03  0.00000000000E+00 0. -1.
    9900018    1    3    3    0    0  0.18861455666E+01  0.10520010390E+03  0.58347162587E+02  0.15096419834E+03  0.91187600000E+02 0.  0.
<mgrwt>
<rscale>  0 0.14157088E+04</rscale>
<asrwt>0</asrwt>
<pdfrwt beam="1">  1        2 0.22355881E+00 0.14157088E+04</pdfrwt>
<pdfrwt beam="2">  1       -2 0.53048042E-01 0.14157088E+04</pdfrwt>
<totfact> 0.43954494E+01</totfact>
</mgrwt>
</event>
<event>
11    1  0.6472313E-013  0.1052038E+04  0.7818608E-02  0.9432146E-01
         -2   -1    0    0    0  501 -0.00000000000E+00  0.00000000000E+00  0.55528866896E+03  0.55528866896E+03  0.00000000000E+00 0. -1.
          2   -1    0    0  501    0  0.00000000000E+00 -0.00000000000E+00 -0.11677055890E+04  0.11677055890E+04  0.00000000000E+00 0.  1.
    9900016    2    1    2    0    0 -0.10398329646E+03  0.52423384504E+02 -0.49018766713E+03  0.87351816558E+03  0.71357501317E+03 0.  0.
         23    2    3    3    0    0  0.12822621111E+03 -0.70893758104E+02  0.25372834918E+02  0.17520720529E+03  0.92660120229E+02 0.  0.
        -15    1    4    4    0    0  0.97216929666E+02 -0.27709222395E+01  0.38791071882E+01  0.97333739763E+02  0.00000000000E+00 0.  1.
        -15    1    1    2    0    0 -0.36305423823E+01  0.28370969651E+03  0.78027227351E+01  0.28384019309E+03  0.00000000000E+00 0. -1.
         15    1    4    4    0    0  0.31009281447E+02 -0.68122835865E+02  0.21493727730E+02  0.77873465531E+02  0.00000000000E+00 0. -1.
         15    1    1    2    0    0  0.21443207159E+03 -0.37496495171E+02 -0.11942514267E+03  0.24829310336E+03  0.00000000000E+00 0.  1.
        -16    1    1    2    0    0 -0.10681823274E+03 -0.29863658584E+03 -0.10606833026E+02  0.31734279597E+03  0.00000000000E+00 0.  1.
         16    1    3    3    0    0 -0.87623229883E+02  0.40077345011E+02  0.45029400802E+02  0.10635633942E+03  0.00000000000E+00 0. -1.
    9900018    1    3    3    0    0 -0.14458627769E+03  0.83239797597E+02 -0.56058990285E+03  0.59195462087E+03  0.91187600000E+02 0.  0.
<mgrwt>
<rscale>  0 0.89476743E+03</rscale>
<asrwt>0</asrwt>
<pdfrwt beam="1">  1        2 0.17964701E+00 0.10520376E+04</pdfrwt>
<pdfrwt beam="2">  1       -2 0.85429026E-01 0.10520376E+04</pdfrwt>
<totfact> 0.23386409E+01</totfact>
</mgrwt>
</event>
<event>
11    1  0.7127718E-013  0.1121395E+04  0.7818608E-02  0.9365990E-01
          2   -1    0    0  501    0  0.00000000000E+00  0.00000000000E+00  0.12841103688E+04  0.12841103688E+04  0.00000000000E+00 0.  1.
         -2   -1    0    0    0  501 -0.00000000000E+00 -0.00000000000E+00 -0.63049233279E+03  0.63049233279E+03  0.00000000000E+00 0. -1.
    9900016    2    1    2    0    0  0.83831719267E+02  0.22673423726E+03  0.30865249044E+03  0.81103351706E+03  0.70998086907E+03 0.  0.
         23    2    3    3    0    0  0.16915024858E+03  0.26229987431E+03 -0.20566086121E+02  0.32535637845E+03  0.89558798786E+02 0.  0.
        -15    1    1    2    0    0 -0.16064962528E+03 -0.11432120374E+03  0.33815774752E+03  0.39144386818E+03  0.00000000000E+00 0.  1.
        -15    1    4    4    0    0  0.12646970673E+03  0.20640250459E+03  0.22138299314E+02  0.24307752862E+03  0.00000000000E+00 0. -1.
         15    1    1    2    0    0 -0.25135771345E+03 -0.15081346685E+02 -0.19165477176E+03  0.31644857192E+03  0.00000000000E+00 0. -1.
         15    1    4    4    0    0  0.42680541845E+02  0.55897369722E+02 -0.42704385435E+02  0.82278849830E+02  0.00000000000E+00 0.  1.
        -16    1    3    3    0    0 -0.12583391274E+03  0.11874915044E+03  0.14998855867E+03  0.22898057136E+03  0.00000000000E+00 0.  1.
         16    1    1    2    0    0  0.32817561947E+03 -0.97331686833E+02  0.19846256984E+03  0.39567674446E+03  0.00000000000E+00 0. -1.
    9900018    1    3    3    0    0  0.40515383431E+02 -0.15431478749E+03  0.17923001789E+03  0.25669656726E+03  0.91187600000E+02 0.  0.
<mgrwt>
<rscale>  0 0.94928245E+03</rscale>
<asrwt>0</asrwt>
<pdfrwt beam="1">  1        2 0.19755544E+00 0.11213953E+04</pdfrwt>
<pdfrwt beam="2">  1       -2 0.96998820E-01 0.11213953E+04</pdfrwt>
<totfact> 0.14758517E+01</totfact>
</mgrwt>
</event>
<event>
11    1  0.6472313E-013  0.1836389E+04  0.7818608E-02  0.8687184E-01
          2   -1    0    0  501    0  0.00000000000E+00  0.00000000000E+00  0.58311934573E+03  0.58311934573E+03  0.00000000000E+00 0. -1.
         -2   -1    0    0    0  501 -0.00000000000E+00 -0.00000000000E+00 -0.14458129389E+04  0.14458129389E+04  0.00000000000E+00 0.  1.
    9900016    2    1    2    0    0  0.17079362921E+03  0.25366065165E+03 -0.21588515039E+03  0.80495049006E+03  0.71261820305E+03 0.  0.
         23    2    3    3    0    0  0.14996855868E+03 -0.12203449845E+03 -0.16345698978E+03  0.26731472172E+03  0.85767042245E+02 0.  0.
        -15    1    4    4    0    0  0.12138535164E+03 -0.58514919116E+02 -0.73345592594E+02  0.15342090896E+03  0.00000000000E+00 0. -1.
        -15    1    1    2    0    0 -0.10410992405E+03 -0.89444572694E+02  0.36308472663E+02  0.14197715681E+03  0.00000000000E+00 0.  1.
         15    1    1    2    0    0  0.32370786312E+03 -0.20251660290E+02 -0.56160465534E+03  0.64853426994E+03  0.00000000000E+00 0. -1.
         15    1    4    4    0    0  0.28583207044E+02 -0.63519579330E+02 -0.90111397184E+02  0.11389381276E+03  0.00000000000E+00 0.  1.
        -16    1    1    2    0    0 -0.39039156828E+03 -0.14396441866E+03 -0.12151226011E+03  0.43347036783E+03  0.00000000000E+00 0.  1.
         16    1    3    3    0    0 -0.35525710024E+02  0.25944478489E+03 -0.19359882799E+03  0.32565960554E+03  0.00000000000E+00 0. -1.
    9900018    1    3    3    0    0  0.56350780546E+02  0.11625036520E+03  0.14117066738E+03  0.21197616281E+03  0.91187600000E+02 0.  0.
<mgrwt>
<rscale>  0 0.18363894E+04</rscale>
<asrwt>0</asrwt>
<pdfrwt beam="1">  1        2 0.89710670E-01 0.18363894E+04</pdfrwt>
<pdfrwt beam="2">  1       -2 0.22243276E+00 0.18363894E+04</pdfrwt>
<totfact> 0.46068287E+00</totfact>
</mgrwt>
</event>
<event>
11    1  0.6472313E-013  0.1498126E+04  0.7818608E-02  0.8885700E-01
          1   -1    0    0  501    0  0.00000000000E+00  0.00000000000E+00  0.10117603507E+04  0.10117603507E+04  0.00000000000E+00 0. -1.
         -1   -1    0    0    0  501 -0.00000000000E+00 -0.00000000000E+00 -0.55457359487E+03  0.55457359487E+03  0.00000000000E+00 0.  1.
    9900016    2    1    2    0    0  0.29719068565E+03 -0.29768041586E+03  0.22191640611E+03  0.89654212106E+03  0.76000325652E+03 0.  0.
         23    2    3    3    0    0  0.31109137790E+03 -0.28083165436E+03  0.35143852994E+03  0.55470888056E+03  0.92458846816E+02 0.  0.
        -15    1    4    4    0    0  0.28840047307E+02 -0.72373832788E+02  0.73096833949E+02  0.10683102141E+03  0.00000000000E+00 0.  1.
        -15    1    1    2    0    0 -0.70462486268E+02  0.87788472877E+02 -0.31673203533E+02  0.11694002635E+03  0.00000000000E+00 0.  1.
         15    1    1    2    0    0  0.23127778733E+02  0.12162192308E+03  0.25977276943E+03  0.28776497017E+03  0.00000000000E+00 0. -1.
         15    1    4    4    0    0  0.28225133060E+03 -0.20845782157E+03  0.27834169599E+03  0.44787785916E+03  0.00000000000E+00 0. -1.
        -16    1    1    2    0    0 -0.24985597811E+03  0.88270019900E+02  0.71707837926E+01  0.26508682795E+03  0.00000000000E+00 0.  1.
         16    1    3    3    0    0 -0.53501077828E+02  0.11660225977E+03 -0.11917159280E+03  0.17510088761E+03  0.00000000000E+00 0. -1.
    9900018    1    3    3    0    0  0.39600385572E+02 -0.13345102127E+03 -0.10350531031E+02  0.16673235289E+03  0.91187600000E+02 0.  0.
<mgrwt>
<rscale>  0 0.14981263E+04</rscale>
<asrwt>0</asrwt>
<pdfrwt beam="1">  1        1 0.15565544E+00 0.14981263E+04</pdfrwt>
<pdfrwt beam="2">  1       -1 0.85319015E-01 0.14981263E+04</pdfrwt>
<totfact> 0.19468460E+01</totfact>
</mgrwt>
</event>
<event>
11    1  0.6472313E-013  0.1160069E+04  0.7818608E-02  0.9148544E-01
          1   -1    0    0  501    0  0.00000000000E+00  0.00000000000E+00  0.13479883468E+04  0.13479883468E+04  0.00000000000E+00 0. -1.
         -1   -1    0    0    0  501 -0.00000000000E+00 -0.00000000000E+00 -0.24958670501E+03  0.24958670501E+03  0.00000000000E+00 0.  1.
    9900016    2    1    2    0    0  0.78360212869E+02 -0.18229970368E+03  0.10234126231E+04  0.12595829728E+04  0.70696701710E+03 0.  0.
         23    2    3    3    0    0  0.20126021323E+03 -0.18838615619E+03  0.89058099745E+03  0.93646581587E+03  0.88536399279E+02 0.  0.
        -15    1    4    4    0    0  0.16807182906E+03 -0.18252954260E+03  0.83842241198E+03  0.87436680779E+03  0.00000000000E+00 0. -1.
        -15    1    1    2    0    0 -0.53139527845E+02  0.45298052055E+02  0.17384359691E+02  0.71957896727E+02  0.00000000000E+00 0.  1.
         15    1    4    4    0    0  0.33188384174E+02 -0.58566135946E+01  0.52158585467E+02  0.62099008083E+02  0.00000000000E+00 0.  1.
         15    1    1    2    0    0  0.57545612704E+02  0.22830199234E+02 -0.57128581750E+02  0.84240075922E+02  0.00000000000E+00 0. -1.
        -16    1    1    2    0    0 -0.82766297728E+02  0.11417145239E+03  0.11473324071E+03  0.18179410635E+03  0.00000000000E+00 0.  1.
         16    1    3    3    0    0 -0.10904755618E+02  0.37211929260E+02 -0.65313073947E+02  0.75956823280E+02  0.00000000000E+00 0. -1.
    9900018    1    3    3    0    0 -0.11199524474E+03 -0.31125476743E+02  0.19814469963E+03  0.24716033366E+03  0.91187600000E+02 0.  0.
<mgrwt>
<rscale>  0 0.11600689E+04</rscale>
<asrwt>0</asrwt>
<pdfrwt beam="1">  1        1 0.20738282E+00 0.11600689E+04</pdfrwt>
<pdfrwt beam="2">  1       -1 0.38397955E-01 0.11600689E+04</pdfrwt>
<totfact> 0.54434392E+01</totfact>
</mgrwt>
</event>
<event>
11    1  0.6472313E-013  0.1419685E+04  0.7818608E-02  0.9277587E-01
          2   -1    0    0  501    0  0.00000000000E+00  0.00000000000E+00  0.16340811806E+04  0.16340811806E+04  0.00000000000E+00 0. -1.
         -2   -1    0    0    0  501 -0.00000000000E+00 -0.00000000000E+00 -0.54933865116E+03  0.54933865116E+03  0.00000000000E+00 0.  1.
    9900016    2    1    2    0    0  0.58484727873E+03 -0.21089312750E+03  0.68051177871E+03  0.11624878305E+04  0.70834978967E+03 0.  0.
         23    2    3    3    0    0  0.40631997581E+03  0.16598588532E+03  0.54103193759E+03  0.70263954852E+03  0.91321086238E+02 0.  0.
        -15    1    4    4    0    0  0.25922493928E+03  0.13361353981E+03  0.29977854644E+03  0.41823118495E+03  0.00000000000E+00 0.  1.
        -15    1    1    2    0    0 -0.22918922557E+03  0.24920916243E+03 -0.12654287478E+03  0.36144986777E+03  0.00000000000E+00 0.  1.
         15    1    4    4    0    0  0.14709503653E+03  0.32372345508E+02  0.24125339115E+03  0.28440836357E+03  0.00000000000E+00 0. -1.
         15    1    1    2    0    0 -0.36604787853E+03 -0.32087152497E+02  0.46528956476E+03  0.59288701606E+03  0.00000000000E+00 0. -1.
        -16    1    1    2    0    0  0.10389825374E+02 -0.62288824285E+01  0.65484060737E+02  0.66595117375E+02  0.00000000000E+00 0.  1.
         16    1    3    3    0    0  0.85121425612E+02 -0.10918832290E+03  0.64485519954E+02  0.15272894041E+03  0.00000000000E+00 0. -1.
    9900018    1    3    3    0    0  0.93405877311E+02 -0.26769068992E+03  0.74994321173E+02  0.30711934161E+03  0.91187600000E+02 0.  0.
<mgrwt>
<rscale>  0 0.10287265E+04</rscale>
<asrwt>0</asrwt>
<pdfrwt beam="1">  1        2 0.25139710E+00 0.14196847E+04</pdfrwt>
<pdfrwt beam="2">  1       -2 0.84513639E-01 0.14196847E+04</pdfrwt>
<totfact> 0.12556987E+01</totfact>
</mgrwt>
</event>
<event>
11    1  0.6472313E-013  0.2555183E+04  0.7818608E-02  0.8383586E-01
         -1   -1    0    0    0  501 -0.00000000000E+00  0.00000000000E+00  0.52339525775E+03  0.52339525775E+03  0.00000000000E+00 0.  1.
          1   -1    0    0  501    0  0.00000000000E+00 -0.00000000000E+00 -0.31185613453E+04  0.31185613453E+04  0.00000000000E+00 0. -1.
    9900016    2    1    2    0    0 -0.64526120628E+03 -0.44926692744E+03 -0.43856229281E+03  0.11385056995E+04  0.69688991008E+03 0.  0.
         23    2    3    3    0    0 -0.30230223379E+02 -0.37655625884E+03 -0.83609359816E+02  0.39707680610E+03  0.89280358507E+02 0.  0.
        -15    1    4    4    0    0 -0.53584252161E+02 -0.17745405990E+03 -0.18439908975E+02  0.18628270370E+03  0.00000000000E+00 0.  1.
        -15    1    1    2    0    0 -0.52773562005E+02 -0.16068812079E+03 -0.18743130334E+03  0.25246032259E+03  0.00000000000E+00 0.  1.
         15    1    1    2    0    0 -0.22005653163E+00  0.34286956624E+03 -0.60531125782E+03  0.69567327585E+03  0.00000000000E+00 0. -1.
         15    1    4    4    0    0  0.23354028782E+02 -0.19910219894E+03 -0.65169450840E+02  0.21079410240E+03  0.00000000000E+00 0. -1.
        -16    1    3    3    0    0 -0.30712537206E+03 -0.58802272594E+01 -0.90910009896E+02  0.32035168352E+03  0.00000000000E+00 0.  1.
         16    1    1    2    0    0  0.69825482481E+03  0.26708548200E+03 -0.13638612336E+04  0.15553173051E+04  0.00000000000E+00 0. -1.
    9900018    1    3    3    0    0 -0.30790561083E+03 -0.66830441342E+02 -0.26404292310E+03  0.42107720991E+03  0.91187600000E+02 0.  0.
<mgrwt>
<rscale>  0 0.25551831E+04</rscale>
<asrwt>0</asrwt>
<pdfrwt beam="1">  1        1 0.47977867E+00 0.25551831E+04</pdfrwt>
<pdfrwt beam="2">  1       -1 0.80522346E-01 0.25551831E+04</pdfrwt>
<totfact> 0.66501279E-01</totfact>
</mgrwt>
</event>
<event>
11    1  0.6472313E-013  0.1528927E+04  0.7818608E-02  0.8934841E-01
          2   -1    0    0  501    0  0.00000000000E+00  0.00000000000E+00  0.95970750834E+03  0.95970750834E+03  0.00000000000E+00 0.  1.
         -2   -1    0    0    0  501 -0.00000000000E+00 -0.00000000000E+00 -0.18942064971E+04  0.18942064971E+04  0.00000000000E+00 0. -1.
    9900016    2    1    2    0    0  0.27882312992E+02 -0.38178316345E+02 -0.75282344373E+03  0.10362191310E+04  0.71047304153E+03 0.  0.
         23    2    3    3    0    0 -0.15379594688E+03  0.11789109296E+03 -0.22982531395E+02  0.21605450748E+03  0.92735378232E+02 0.  0.
        -15    1    1    2    0    0  0.49216157439E+03 -0.36826510696E+03  0.10624902955E+03  0.62380370358E+03  0.00000000000E+00 0.  1.
        -15    1    4    4    0    0 -0.48139332767E+02  0.72182888584E+01 -0.38773801683E+02  0.62232682332E+02  0.00000000000E+00 0. -1.
         15    1    1    2    0    0 -0.62343980885E+03  0.62791023675E+03 -0.33286040806E+03  0.94538061749E+03  0.00000000000E+00 0. -1.
         15    1    4    4    0    0 -0.10565661411E+03  0.11067280410E+03  0.15791270288E+02  0.15382182514E+03  0.00000000000E+00 0.  1.
        -16    1    1    2    0    0  0.10339592147E+03 -0.22146681344E+03  0.44935833472E+02  0.24851055342E+03  0.00000000000E+00 0.  1.
         16    1    3    3    0    0  0.19347090319E+02 -0.16498478851E+03 -0.48354783850E+03  0.51128544128E+03  0.00000000000E+00 0. -1.
    9900018    1    3    3    0    0  0.16233116955E+03  0.89153792027E+01 -0.24629307384E+03  0.30887918222E+03  0.91187600000E+02 0.  0.
<mgrwt>
<rscale>  0 0.14265217E+04</rscale>
<asrwt>0</asrwt>
<pdfrwt beam="1">  1        2 0.14764731E+00 0.15289269E+04</pdfrwt>
<pdfrwt beam="2">  1       -2 0.29141638E+00 0.15289269E+04</pdfrwt>
<totfact> 0.90788718E-01</totfact>
</mgrwt>
</event>
<event>
11    1  0.6472313E-013  0.1986660E+04  0.7818608E-02  0.8612883E-01
          2   -1    0    0  501    0  0.00000000000E+00  0.00000000000E+00  0.17132905512E+04  0.17132905512E+04  0.00000000000E+00 0. -1.
         -2   -1    0    0    0  501 -0.00000000000E+00 -0.00000000000E+00 -0.57591170966E+03  0.57591170966E+03  0.00000000000E+00 0.  1.
    9900016    2    1    2    0    0  0.55594593640E+03  0.34196957577E+03  0.87390492402E+03  0.13028564833E+04  0.71253499909E+03 0.  0.
         23    2    3    3    0    0  0.30131576607E+03  0.25329618290E+03  0.89936666900E+03  0.98656136716E+03  0.97430892026E+02 0.  0.
        -15    1    4    4    0    0  0.23423333409E+03  0.24138707145E+03  0.77273691102E+03  0.84276646036E+03  0.00000000000E+00 0.  1.
        -15    1    1    2    0    0 -0.34193461365E+03 -0.51295163783E+03  0.31094279935E+03  0.69045208902E+03  0.00000000000E+00 0.  1.
         15    1    4    4    0    0  0.67082431978E+02  0.11909111449E+02  0.12662975798E+03  0.14379490680E+03  0.00000000000E+00 0. -1.
         15    1    1    2    0    0 -0.34812771226E+02  0.85914744613E+02 -0.26561363932E+02  0.96430173889E+02  0.00000000000E+00 0. -1.
        -16    1    3    3    0    0  0.71039094542E+02  0.79586715619E+02 -0.30791373294E+02  0.11103471045E+03  0.00000000000E+00 0.  1.
         16    1    1    2    0    0 -0.17919855153E+03  0.85067317450E+02 -0.20907517896E+02  0.19946351464E+03  0.00000000000E+00 0. -1.
    9900018    1    3    3    0    0  0.18359107579E+03  0.90866772492E+01  0.53296283127E+01  0.20526040569E+03  0.91187600000E+02 0.  0.
<mgrwt>
<rscale>  0 0.19866596E+04</rscale>
<asrwt>0</asrwt>
<pdfrwt beam="1">  1        2 0.26358316E+00 0.19866596E+04</pdfrwt>
<pdfrwt beam="2">  1       -2 0.88601802E-01 0.19866596E+04</pdfrwt>
<totfact> 0.98245497E+00</totfact>
</mgrwt>
</event>
<event>
11    1  0.6472313E-013  0.3388738E+04  0.7818608E-02  0.8140676E-01
         -2   -1    0    0    0  501 -0.00000000000E+00  0.00000000000E+00  0.19155165698E+04  0.19155165698E+04  0.00000000000E+00 0.  1.
          2   -1    0    0  501    0  0.00000000000E+00 -0.00000000000E+00 -0.14987529132E+04  0.14987529132E+04  0.00000000000E+00 0. -1.
    9900016    2    1    2    0    0 -0.11923803270E+03  0.75001229237E+02  0.54930838577E+02  0.73898355160E+03  0.72335081370E+03 0.  0.
         23    2    3    3    0    0 -0.31822098063E+03 -0.94017679241E+02  0.22239463928E+03  0.40974567078E+03  0.91259096095E+02 0.  0.
        -15    1    1    2    0    0 -0.11150266126E+03  0.86876623834E+03  0.56704471390E+03  0.10434209735E+04  0.00000000000E+00 0.  1.
        -15    1    4    4    0    0 -0.33314132116E+02 -0.17094480613E+02  0.65688635843E+02  0.75611173414E+02  0.00000000000E+00 0. -1.
         15    1    4    4    0    0 -0.28490684851E+03 -0.76923198628E+02  0.15670600343E+03  0.33413449737E+03  0.00000000000E+00 0.  1.
         15    1    1    2    0    0 -0.28767287885E+03 -0.10990310704E+03 -0.51691970928E+03  0.60169790095E+03  0.00000000000E+00 0. -1.
        -16    1    3    3    0    0  0.55128426710E+01  0.18983595418E+02 -0.17271686856E+01  0.19843171142E+02  0.00000000000E+00 0.  1.
         16    1    1    2    0    0  0.51841357281E+03 -0.83386436054E+03  0.31170781337E+03  0.10301670569E+04  0.00000000000E+00 0. -1.
    9900018    1    3    3    0    0  0.19347010526E+03  0.15003531306E+03 -0.16573663201E+03  0.30939470968E+03  0.91187600000E+02 0.  0.
<mgrwt>
<rscale>  0 0.33887378E+04</rscale>
<asrwt>0</asrwt>
<pdfrwt beam="1">  1        2 0.23057737E+00 0.33887378E+04</pdfrwt>
<pdfrwt beam="2">  1       -2 0.29469486E+00 0.33887378E+04</pdfrwt>
<totfact> 0.36106108E-01</totfact>
</mgrwt>
</event>
<event>
11    1  0.6472313E-013  0.2496154E+04  0.7818608E-02  0.8404357E-01
         -2   -1    0    0    0  501 -0.00000000000E+00  0.00000000000E+00  0.77131322388E+03  0.77131322388E+03  0.00000000000E+00 0. -1.
          2   -1    0    0  501    0  0.00000000000E+00 -0.00000000000E+00 -0.20195378293E+04  0.20195378293E+04  0.00000000000E+00 0.  1.
    9900016    2    1    2    0    0 -0.73624272208E+02 -0.38998694524E+03 -0.37061957384E+03  0.89838256392E+03  0.71569687139E+03 0.  0.
         23    2    3    3    0    0 -0.31613438023E+02 -0.30140759504E+03  0.11525295480E+03  0.33992712244E+03  0.10208455893E+03 0.  0.
        -15    1    1    2    0    0 -0.43841153045E+02 -0.61154860672E+03 -0.44040498345E+03  0.75489753909E+03  0.00000000000E+00 0.  1.
        -15    1    4    4    0    0 -0.64294036688E+02 -0.19457188802E+03  0.51488635807E+02  0.21128895470E+03  0.00000000000E+00 0. -1.
         15    1    1    2    0    0 -0.67887659590E+02  0.64236013215E+03 -0.26197192134E+03  0.69703985630E+03  0.00000000000E+00 0. -1.
         15    1    4    4    0    0  0.32680598665E+02 -0.10683570702E+03  0.63764318989E+02  0.12863816774E+03  0.00000000000E+00 0.  1.
        -16    1    3    3    0    0  0.56828215724E+01 -0.61464549694E+02 -0.43702166630E+03  0.44135940247E+03  0.00000000000E+00 0.  1.
         16    1    1    2    0    0  0.18535308484E+03  0.35917541981E+03 -0.17522812681E+03  0.44053109389E+03  0.00000000000E+00 0. -1.
    9900018    1    3    3    0    0 -0.47693655758E+02 -0.27114800510E+02 -0.48850862332E+02  0.11709603900E+03  0.91187600000E+02 0.  0.
<mgrwt>
<rscale>  0 0.24961540E+04</rscale>
<asrwt>0</asrwt>
<pdfrwt beam="1">  1        2 0.31069813E+00 0.24961540E+04</pdfrwt>
<pdfrwt beam="2">  1       -2 0.11866357E+00 0.24961540E+04</pdfrwt>
<totfact> 0.31739241E+00</totfact>
</mgrwt>
</event>
<event>
11    1  0.6472313E-013  0.1760006E+04  0.7818608E-02  0.9035447E-01
         -1   -1    0    0    0  501 -0.00000000000E+00  0.00000000000E+00  0.11730490863E+04  0.11730490863E+04  0.00000000000E+00 0.  1.
          1   -1    0    0  501    0  0.00000000000E+00 -0.00000000000E+00 -0.11420735786E+04  0.11420735786E+04  0.00000000000E+00 0. -1.
    9900016    2    1    2    0    0  0.58302529864E+03  0.53226695075E+02  0.18065376844E+03  0.93396249832E+03  0.70491033777E+03 0.  0.
         23    2    3    3    0    0  0.19397396054E+03 -0.26141187030E+03  0.19489508638E+03  0.39007739776E+03  0.90632324515E+02 0.  0.
        -15    1    4    4    0    0  0.48560244752E+02 -0.13136027289E+03  0.10627313323E+03  0.17580556735E+03  0.00000000000E+00 0. -1.
        -15    1    1    2    0    0  0.31697467063E+03  0.88064175847E+02  0.19754007769E+03  0.38373209819E+03  0.00000000000E+00 0.  1.
         15    1    4    4    0    0  0.14541371579E+03 -0.13005159741E+03  0.88621953153E+02  0.21427183041E+03  0.00000000000E+00 0.  1.
         15    1    1    2    0    0 -0.16063155857E+03  0.32123679028E+02 -0.35420826504E+01  0.16385046449E+03  0.00000000000E+00 0. -1.
        -16    1    3    3    0    0  0.26405882785E+03  0.23298337805E+03  0.53682589573E+02  0.35621642218E+03  0.00000000000E+00 0.  1.
         16    1    1    2    0    0 -0.73936841069E+03 -0.17341454995E+03 -0.34367625582E+03  0.83357760387E+03  0.00000000000E+00 0. -1.
    9900018    1    3    3    0    0  0.12499251025E+03  0.81655187329E+02 -0.67923907515E+02  0.18766867837E+03  0.91187600000E+02 0.  0.
<mgrwt>
<rscale>  0 0.12926088E+04</rscale>
<asrwt>0</asrwt>
<pdfrwt beam="1">  1        1 0.17570363E+00 0.17600062E+04</pdfrwt>
<pdfrwt beam="2">  1       -1 0.18046909E+00 0.17600062E+04</pdfrwt>
<totfact> 0.22743075E+00</totfact>
</mgrwt>
</event>
<event>
11    1  0.6472313E-013  0.2396342E+04  0.7818608E-02  0.8440874E-01
          1   -1    0    0  501    0  0.00000000000E+00  0.00000000000E+00  0.27456294120E+04  0.27456294120E+04  0.00000000000E+00 0. -1.
         -1   -1    0    0    0  501 -0.00000000000E+00 -0.00000000000E+00 -0.52287234531E+03  0.52287234531E+03  0.00000000000E+00 0.  1.
    9900016    2    1    2    0    0 -0.30820686670E+03  0.62483398554E+03  0.62267822174E+03  0.11899154735E+04  0.73672361445E+03 0.  0.
         23    2    3    3    0    0 -0.28715016966E+03  0.25573722030E+03 -0.25273129909E+02  0.39610579300E+03  0.91675091304E+02 0.  0.
        -15    1    1    2    0    0  0.30928281165E+02 -0.38188897417E+03  0.12430655511E+03  0.40280003329E+03  0.00000000000E+00 0.  1.
        -15    1    4    4    0    0 -0.10396428827E+03  0.80291674250E+02  0.33862222959E+02  0.13565388433E+03  0.00000000000E+00 0.  1.
         15    1    1    2    0    0  0.18703515187E+03 -0.12755540447E+03  0.36781682160E+02  0.22935871771E+03  0.00000000000E+00 0. -1.
         15    1    4    4    0    0 -0.18318588139E+03  0.17544554605E+03 -0.59135352868E+02  0.26045190867E+03  0.00000000000E+00 0. -1.
        -16    1    3    3    0    0  0.82635813645E+02  0.45005025239E+02  0.22157866744E+03  0.24073062925E+03  0.00000000000E+00 0.  1.
         16    1    1    2    0    0  0.90243433663E+02 -0.11538960689E+03  0.14389906077E+04  0.14464275328E+04  0.00000000000E+00 0. -1.
    9900018    1    3    3    0    0 -0.10369251068E+03  0.32409174000E+03  0.42637268421E+03  0.55307905126E+03  0.91187600000E+02 0.  0.
<mgrwt>
<rscale>  0 0.23963420E+04</rscale>
<asrwt>0</asrwt>
<pdfrwt beam="1">  1        1 0.42240452E+00 0.23963420E+04</pdfrwt>
<pdfrwt beam="2">  1       -1 0.80441901E-01 0.23963420E+04</pdfrwt>
<totfact> 0.12589301E+00</totfact>
</mgrwt>
</event>
<event>
11    1  0.6472313E-013  0.2644869E+04  0.7818608E-02  0.8353118E-01
         -1   -1    0    0    0  501 -0.00000000000E+00  0.00000000000E+00  0.46124577470E+03  0.46124577470E+03  0.00000000000E+00 0.  1.
          1   -1    0    0  501    0  0.00000000000E+00 -0.00000000000E+00 -0.37915428706E+04  0.37915428706E+04  0.00000000000E+00 0. -1.
    9900016    2    1    2    0    0 -0.32260398623E+03  0.30501750086E+03 -0.88544802601E+03  0.12188264445E+04  0.71021876019E+03 0.  0.
         23    2    3    3    0    0  0.80862721832E+02  0.20064339504E+03 -0.97140522651E+02  0.25385206965E+03  0.90598236027E+02 0.  0.
        -15    1    1    2    0    0 -0.55232412576E+01  0.16932971545E+03 -0.86937835702E+03  0.88573234466E+03  0.00000000000E+00 0.  1.
        -15    1    4    4    0    0  0.83729160114E+02  0.15973141098E+03 -0.42070120620E+02  0.18518798816E+03  0.00000000000E+00 0.  1.
         15    1    1    2    0    0 -0.34944729763E+02 -0.68865594780E+03 -0.15828913621E+04  0.17265610945E+04  0.00000000000E+00 0. -1.
         15    1    4    4    0    0 -0.28664382827E+01  0.40911984052E+02 -0.55070402032E+02  0.68664081494E+02  0.00000000000E+00 0. -1.
        -16    1    1    2    0    0  0.36307195725E+03  0.21430873149E+03  0.74206492449E+01  0.42166876167E+03  0.00000000000E+00 0.  1.
         16    1    3    3    0    0 -0.33769942273E+03  0.19212405341E+03 -0.68963226248E+03  0.79154608802E+03  0.00000000000E+00 0. -1.
    9900018    1    3    3    0    0 -0.65767285331E+02 -0.87749947587E+02 -0.98675240887E+02  0.17342828685E+03  0.91187600000E+02 0.  0.
<mgrwt>
<rscale>  0 0.26448691E+04</rscale>
<asrwt>0</asrwt>
<pdfrwt beam="1">  1        1 0.58331426E+00 0.26448691E+04</pdfrwt>
<pdfrwt beam="2">  1       -1 0.70960891E-01 0.26448691E+04</pdfrwt>
<totfact> 0.25517717E-01</totfact>
</mgrwt>
</event>
<event>
11    1  0.6472313E-013  0.2272928E+04  0.7818608E-02  0.8488672E-01
         -2   -1    0    0    0  501 -0.00000000000E+00  0.00000000000E+00  0.76177858677E+03  0.76177858677E+03  0.00000000000E+00 0. -1.
          2   -1    0    0  501    0  0.00000000000E+00 -0.00000000000E+00 -0.16954412839E+04  0.16954412839E+04  0.00000000000E+00 0.  1.
    9900016    2    1    2    0    0 -0.15949723317E+02  0.52688352895E+03 -0.40589790064E+03  0.96684447113E+03  0.70155147983E+03 0.  0.
         23    2    3    3    0    0  0.75737590877E+02  0.23350690945E+03  0.66325384317E+02  0.26951861365E+03  0.89328422494E+02 0.  0.
        -15    1    4    4    0    0  0.37210934053E+02  0.14608200872E+03 -0.41430600657E+01  0.15080375271E+03  0.00000000000E+00 0.  1.
        -15    1    1    2    0    0 -0.54025441906E+01 -0.72151500341E+02 -0.24337893109E+03  0.25390614523E+03  0.00000000000E+00 0.  1.
         15    1    4    4    0    0  0.38526656824E+02  0.87424900729E+02  0.70468444382E+02  0.11871486094E+03  0.00000000000E+00 0. -1.
         15    1    1    2    0    0  0.41069028429E+02  0.12528803299E+03  0.35158755463E+03  0.37549642459E+03  0.00000000000E+00 0. -1.
        -16    1    1    2    0    0 -0.19716760921E+02 -0.58002006160E+03 -0.63597341999E+03  0.86097282969E+03  0.00000000000E+00 0.  1.
         16    1    3    3    0    0  0.35038835128E+02  0.30088010200E+03 -0.14744426924E+03  0.33689222057E+03  0.00000000000E+00 0. -1.
    9900018    1    3    3    0    0 -0.12672614932E+03 -0.75034825035E+01 -0.32477901571E+03  0.36043363690E+03  0.91187600000E+02 0.  0.
<mgrwt>
<rscale>  0 0.22729284E+04</rscale>
<asrwt>0</asrwt>
<pdfrwt beam="1">  1        2 0.26083712E+00 0.22729284E+04</pdfrwt>
<pdfrwt beam="2">  1       -2 0.11719671E+00 0.22729284E+04</pdfrwt>
<totfact> 0.50462755E+00</totfact>
</mgrwt>
</event>
<event>
11    1  0.6472313E-013  0.1959822E+04  0.7818608E-02  0.8625639E-01
         -2   -1    0    0    0  501 -0.00000000000E+00  0.00000000000E+00  0.91637168799E+03  0.91637168799E+03  0.00000000000E+00 0. -1.
          2   -1    0    0  501    0  0.00000000000E+00 -0.00000000000E+00 -0.10478563042E+04  0.10478563042E+04  0.00000000000E+00 0.  1.
    9900016    2    1    2    0    0 -0.15664422090E+03  0.60508083748E+03 -0.32054546870E+03  0.99805548884E+03  0.70901701635E+03 0.  0.
         23    2    3    3    0    0 -0.10451532396E+03 -0.60688837189E+01 -0.23889415879E+03  0.27542659837E+03  0.88482245090E+02 0.  0.
        -15    1    1    2    0    0  0.18284172166E+03 -0.20290208684E+03  0.87254616422E+02  0.28672934993E+03  0.00000000000E+00 0.  1.
        -15    1    4    4    0    0 -0.34072824958E+02 -0.37830730810E+02 -0.14584265252E+03  0.15447394889E+03  0.00000000000E+00 0. -1.
         15    1    1    2    0    0  0.15327141899E+03 -0.90466183379E+02  0.23595802168E+03  0.29555447249E+03  0.00000000000E+00 0. -1.
         15    1    4    4    0    0 -0.70442499002E+02  0.31761847091E+02 -0.93051506274E+02  0.12095264948E+03  0.00000000000E+00 0.  1.
        -16    1    1    2    0    0 -0.17946891975E+03 -0.31171256726E+03 -0.13415178558E+03  0.38388868090E+03  0.00000000000E+00 0.  1.
         16    1    3    3    0    0 -0.40397250765E+01  0.20166258452E+03 -0.20004448806E+03  0.28408082402E+03  0.00000000000E+00 0. -1.
    9900018    1    3    3    0    0 -0.48089171864E+02  0.40948713669E+03  0.11839317814E+03  0.43854806645E+03  0.91187600000E+02 0.  0.
<mgrwt>
<rscale>  0 0.19598223E+04</rscale>
<asrwt>0</asrwt>
<pdfrwt beam="1">  1        2 0.16120866E+00 0.19598223E+04</pdfrwt>
<pdfrwt beam="2">  1       -2 0.14098026E+00 0.19598223E+04</pdfrwt>
<totfact> 0.77191213E+00</totfact>
</mgrwt>
</event>
<event>
11    1  0.6472313E-013  0.1828940E+04  0.7818608E-02  0.8691059E-01
         -2   -1    0    0    0  501 -0.00000000000E+00  0.00000000000E+00  0.55440847807E+03  0.55440847807E+03  0.00000000000E+00 0.  1.
          2   -1    0    0  501    0  0.00000000000E+00 -0.00000000000E+00 -0.15083737544E+04  0.15083737544E+04  0.00000000000E+00 0. -1.
    9900016    2    1    2    0    0  0.45373317281E+03  0.28742675032E+03 -0.18695006162E+03  0.87408628662E+03  0.66376847018E+03 0.  0.
         23    2    3    3    0    0  0.12337007494E+03 -0.68562744258E+02 -0.23616850026E+03  0.28985632408E+03  0.91214597541E+02 0.  0.
        -15    1    4    4    0    0  0.77444894922E+02 -0.75870464904E+02 -0.10597573247E+03  0.15160770121E+03  0.00000000000E+00 0.  1.
        -15    1    1    2    0    0 -0.42517632817E+03 -0.18769487450E+03 -0.15329483149E+03  0.48939103110E+03  0.00000000000E+00 0.  1.
         15    1    4    4    0    0  0.45925180014E+02  0.73077206459E+01 -0.13019276779E+03  0.13824862287E+03  0.00000000000E+00 0. -1.
         15    1    1    2    0    0 -0.15020770530E+03  0.12573564746E+02 -0.40976111856E+03  0.43660579880E+03  0.00000000000E+00 0. -1.
        -16    1    1    2    0    0  0.12165086067E+03 -0.11230544056E+03 -0.20395926462E+03  0.26269911592E+03  0.00000000000E+00 0.  1.
         16    1    3    3    0    0  0.17911143268E+03  0.33105897323E+03  0.11584411109E+03  0.39382839810E+03  0.00000000000E+00 0. -1.
    9900018    1    3    3    0    0  0.15125166519E+03  0.24930521345E+02 -0.66625672459E+02  0.19040156444E+03  0.91187600000E+02 0.  0.
<mgrwt>
<rscale>  0 0.18289398E+04</rscale>
<asrwt>0</asrwt>
<pdfrwt beam="1">  1        2 0.23205750E+00 0.18289398E+04</pdfrwt>
<pdfrwt beam="2">  1       -2 0.85293613E-01 0.18289398E+04</pdfrwt>
<totfact> 0.14138644E+01</totfact>
</mgrwt>
</event>
