<event>
10    1  0.5640512E-013  0.3609680E+04  0.7818608E-02  0.8088278E-01
          2   -1    0    0  501    0  0.00000000000E+00  0.00000000000E+00  0.36514320166E+04  0.36514320166E+04  0.00000000000E+00 0. -1.
         -2   -1    0    0    0  501 -0.00000000000E+00 -0.00000000000E+00 -0.89210122037E+03  0.89210122037E+03  0.00000000000E+00 0.  1.
         24    2    1    2    0    0  0.13547851497E+03  0.11550195207E+03  0.10458053698E+03  0.22185914442E+03  0.81174271150E+02 0.  0.
        -15    1    3    3    0    0  0.93486338526E+02  0.10619703901E+03  0.10902862813E+03  0.17861900329E+03  0.00000000000E+00 0.  1.
        -15    1    1    2    0    0 -0.44776610544E+03  0.25113558494E+03  0.86936962989E+03  0.10096371232E+04  0.00000000000E+00 0.  1.
         15    1    1    2    0    0 -0.93118407574E+02 -0.13125678221E+03 -0.31619069724E+03  0.35478999102E+03  0.00000000000E+00 0. -1.
         15    1    1    2    0    0 -0.52917875107E+03 -0.34007715113E+03  0.19591700069E+03  0.65883692251E+03  0.00000000000E+00 0. -1.
        -16    1    1    2    0    0  0.78065878468E+03 -0.28281772486E+03  0.10196115657E+04  0.13149227158E+04  0.00000000000E+00 0.  1.
         16    1    3    3    0    0  0.41992176446E+02  0.93049130623E+01 -0.44480911521E+01  0.43240141127E+02  0.00000000000E+00 0. -1.
    9900018    1    1    2    0    0  0.15392596443E+03  0.38751412119E+03  0.88604276023E+03  0.98348734003E+03  0.91187600000E+02 0.  0.
<mgrwt>
<rscale>  0 0.36096797E+04</rscale>
<asrwt>0</asrwt>
<pdfrwt beam="1">  1        2 0.56175876E+00 0.36096797E+04</pdfrwt>
<pdfrwt beam="2">  1       -2 0.13724634E+00 0.36096797E+04</pdfrwt>
<totfact> 0.19474422E-01</totfact>
</mgrwt>
</event>
<event>
10    1  0.5640512E-013  0.2302861E+04  0.7818608E-02  0.9115190E-01
          2   -1    0    0  501    0  0.00000000000E+00  0.00000000000E+00  0.21884386631E+04  0.21884386631E+04  0.00000000000E+00 0.  1.
         -2   -1    0    0    0  501 -0.00000000000E+00 -0.00000000000E+00 -0.72991518441E+03  0.72991518441E+03  0.00000000000E+00 0. -1.
         24    2    1    2    0    0  0.49168014767E+03 -0.34391888711E+02  0.28894004002E+03  0.57657319807E+03  0.77576648438E+02 0.  0.
        -15    1    1    2    0    0 -0.72040719258E+02 -0.47120696690E+02 -0.85348377159E+02  0.12122116470E+03  0.00000000000E+00 0.  1.
        -15    1    3    3    0    0  0.12296501479E+03  0.97508879053E-01  0.11126200981E+03  0.16583015165E+03  0.00000000000E+00 0.  1.
         15    1    1    2    0    0 -0.17594514621E+03  0.55063256343E+03  0.61625895748E+03  0.84494261170E+03  0.00000000000E+00 0. -1.
         15    1    1    2    0    0 -0.16969816599E+02 -0.35744047251E+01  0.48111418387E+02  0.51141564541E+02  0.00000000000E+00 0. -1.
        -16    1    1    2    0    0  0.25712712319E+03 -0.47895616756E+03  0.62788217441E+03  0.83051152483E+03  0.00000000000E+00 0.  1.
         16    1    3    3    0    0  0.36871513287E+03 -0.34489397590E+02  0.17767803021E+03  0.41074304641E+03  0.00000000000E+00 0. -1.
    9900018    1    1    2    0    0 -0.48385158879E+03  0.13410594252E+02 -0.37320734401E+02  0.49396378372E+03  0.91187600000E+02 0.  0.
<mgrwt>
<rscale>  0 0.11973383E+04</rscale>
<asrwt>0</asrwt>
<pdfrwt beam="1">  1        2 0.33668287E+00 0.23028608E+04</pdfrwt>
<pdfrwt beam="2">  1       -2 0.11229464E+00 0.23028608E+04</pdfrwt>
<totfact> 0.29486128E+00</totfact>
</mgrwt>
</event>
<event>
11    1  0.5640512E-013  0.5224359E+04  0.7818608E-02  0.7794800E-01
          2   -1    0    0  501    0  0.00000000000E+00  0.00000000000E+00  0.22833547546E+04  0.22833547546E+04  0.00000000000E+00 0. -1.
         -2   -1    0    0    0  501 -0.00000000000E+00 -0.00000000000E+00 -0.29883578071E+04  0.29883578071E+04  0.00000000000E+00 0.  1.
    9900016    2    1    2    0    0  0.69585234598E+03 -0.59897353293E+03 -0.33309874020E+03  0.21647206265E+04  0.19318594254E+04 0.  0.
         24    2    3    3    0    0  0.52830132083E+03 -0.67993718467E+03  0.45359468513E+03  0.97618817716E+03  0.76015512606E+02 0.  0.
        -15    1    4    4    0    0  0.44995561280E+03 -0.53033951013E+03  0.36156345321E+03  0.78386745065E+03  0.00000000000E+00 0.  1.
        -15    1    1    2    0    0 -0.31377107566E+03  0.41124703848E+03 -0.79330717619E+03  0.94705474518E+03  0.00000000000E+00 0.  1.
         15    1    3    3    0    0  0.38783401407E+03  0.22791940199E+03 -0.78925999075E+03  0.90845682851E+03  0.00000000000E+00 0. -1.
         15    1    1    2    0    0  0.86214924676E+03  0.99709459906E+02  0.23135006730E+03  0.89820162198E+03  0.00000000000E+00 0. -1.
        -16    1    1    2    0    0 -0.12442305171E+04  0.88017034548E+02  0.19005279661E+03  0.12617355680E+04  0.00000000000E+00 0.  1.
         16    1    4    4    0    0  0.78345708025E+02 -0.14959767454E+03  0.92031231923E+02  0.19232072651E+03  0.00000000000E+00 0. -1.
    9900018    1    3    3    0    0 -0.22028298891E+03 -0.14695575024E+03  0.25665654214E+01  0.28007562084E+03  0.91187600000E+02 0.  0.
<mgrwt>
<rscale>  0 0.52243587E+04</rscale>
<asrwt>0</asrwt>
<pdfrwt beam="1">  1        2 0.35128534E+00 0.52243587E+04</pdfrwt>
<pdfrwt beam="2">  1       -2 0.45974736E+00 0.52243587E+04</pdfrwt>
<totfact> 0.99587690E-03</totfact>
</mgrwt>
</event>
<event>
11    1  0.5640512E-013  0.2463365E+04  0.7818608E-02  0.8416154E-01
         -1   -1    0    0    0  501 -0.00000000000E+00  0.00000000000E+00  0.57044729084E+03  0.57044729084E+03  0.00000000000E+00 0.  1.
          1   -1    0    0  501    0  0.00000000000E+00 -0.00000000000E+00 -0.26593895127E+04  0.26593895127E+04  0.00000000000E+00 0. -1.
    9900016    2    1    2    0    0 -0.13231280599E+02  0.16999131473E+03 -0.19826364182E+04  0.27970056498E+04  0.19655333435E+04 0.  0.
         24    2    3    3    0    0  0.50625312515E+03 -0.36129418196E+03 -0.81401746147E+02  0.63174131090E+03  0.75134059978E+02 0.  0.
        -15    1    1    2    0    0  0.15830755079E+02  0.14881666181E+02 -0.12326255429E+03  0.12516283029E+03  0.00000000000E+00 0.  1.
        -15    1    4    4    0    0  0.38146294616E+03 -0.27090295576E+03 -0.93709817218E+02  0.47716236291E+03  0.00000000000E+00 0.  1.
         15    1    1    2    0    0 -0.10032804055E+03 -0.35769269254E+01 -0.51655290184E+01  0.10052458812E+03  0.00000000000E+00 0. -1.
         15    1    3    3    0    0 -0.47005975304E+03  0.68321392881E+03 -0.13523733651E+04  0.15863956514E+04  0.00000000000E+00 0. -1.
        -16    1    1    2    0    0  0.97728566068E+02 -0.18129605399E+03  0.22122279688E+02  0.20714373531E+03  0.00000000000E+00 0.  1.
         16    1    4    4    0    0  0.12479017899E+03 -0.90391226201E+02  0.12308071071E+02  0.15457894799E+03  0.00000000000E+00 0. -1.
    9900018    1    3    3    0    0 -0.49424652712E+02 -0.15192843211E+03 -0.54886130697E+03  0.57886868758E+03  0.91187600000E+02 0.  0.
<mgrwt>
<rscale>  0 0.24633648E+04</rscale>
<asrwt>0</asrwt>
<pdfrwt beam="1">  1        1 0.40913685E+00 0.24633648E+04</pdfrwt>
<pdfrwt beam="2">  1       -1 0.87761121E-01 0.24633648E+04</pdfrwt>
<totfact> 0.11925852E+00</totfact>
</mgrwt>
</event>
