<event>
10    1  0.1509672E-015  0.1442456E+04  0.7818608E-02  0.8923647E-01
          1   -1    0    0  501    0  0.00000000000E+00  0.00000000000E+00  0.14755171542E+04  0.14755171542E+04  0.00000000000E+00 0. -1.
         -1   -1    0    0    0  501 -0.00000000000E+00 -0.00000000000E+00 -0.35253401382E+03  0.35253401382E+03  0.00000000000E+00 0.  1.
         23    2    1    2    0    0 -0.13441669792E+03 -0.20290776102E+03  0.71419463236E+03  0.75663981174E+03  0.56483835338E+02 0.  0.
        -15    1    3    3    0    0 -0.13523467340E+03 -0.17316907334E+03  0.61441517265E+03  0.65251969260E+03  0.00000000000E+00 0.  1.
        -15    1    1    2    0    0  0.13938861030E+03  0.99576448089E+02  0.20702091920E+03  0.26870488399E+03  0.00000000000E+00 0.  1.
         15    1    1    2    0    0 -0.48840825828E+02  0.33402692531E+02  0.23534086628E+03  0.24266538583E+03  0.00000000000E+00 0. -1.
         15    1    3    3    0    0  0.81797548493E+00 -0.29738687679E+02  0.99779459707E+02  0.10412011913E+03  0.00000000000E+00 0. -1.
        -16    1    1    2    0    0  0.11023527317E+03 -0.14865310706E+02 -0.23060308452E+03  0.25602846620E+03  0.00000000000E+00 0.  1.
         16    1    1    2    0    0 -0.13223408105E+02  0.69900297965E+02 -0.93315166834E+01  0.71749476522E+02  0.00000000000E+00 0. -1.
    9900018    1    1    2    0    0 -0.53142951619E+02  0.14893633140E+02  0.20636132378E+03  0.23226314378E+03  0.91187600000E+02 0.  0.
<mgrwt>
<rscale>  0 0.14424562E+04</rscale>
<asrwt>0</asrwt>
<pdfrwt beam="1">  1        1 0.22700263E+00 0.14424562E+04</pdfrwt>
<pdfrwt beam="2">  1       -1 0.54236003E-01 0.14424562E+04</pdfrwt>
<totfact> 0.22695025E+01</totfact>
</mgrwt>
</event>
<event>
11    1  0.1623987E-015  0.8291725E+03  0.7818608E-02  0.9518725E-01
         -1   -1    0    0    0  501 -0.00000000000E+00  0.00000000000E+00  0.20847631410E+03  0.20847631410E+03  0.00000000000E+00 0. -1.
          1   -1    0    0  501    0  0.00000000000E+00 -0.00000000000E+00 -0.82446660356E+03  0.82446660356E+03  0.00000000000E+00 0.  1.
         23    2    1    2    0    0  0.13597248846E+03 -0.80826093686E+02 -0.38114956884E+03  0.41918851642E+03  0.73638600192E+02 0.  0.
         23    2    1    2    0    0 -0.14591550761E+03  0.78482218143E+02  0.15426222165E+02  0.19994136662E+03  0.11085029468E+03 0.  0.
        -15    1    4    4    0    0 -0.12231801138E+03  0.84005384727E+01 -0.65976112097E+01  0.12278352263E+03  0.00000000000E+00 0.  1.
        -15    1    3    3    0    0  0.88194668452E+02 -0.84005529810E+02 -0.31330860346E+03  0.33615102199E+03  0.00000000000E+00 0.  1.
         15    1    3    3    0    0  0.47777820006E+02  0.31794361243E+01 -0.67840965377E+02  0.83037494434E+02  0.00000000000E+00 0. -1.
         15    1    4    4    0    0 -0.23597496231E+02  0.70081679670E+02  0.22023833375E+02  0.77157843997E+02  0.00000000000E+00 0. -1.
        -16    1    1    2    0    0  0.19383170560E+02 -0.12311867519E+03 -0.54105728119E+02  0.13587253327E+03  0.00000000000E+00 0.  1.
         16    1    1    2    0    0  0.30797852095E+02  0.65026263025E+02 -0.37711261991E+02  0.81234609974E+02  0.00000000000E+00 0. -1.
    9900018    1    1    2    0    0 -0.40238003500E+02  0.60436287711E+02 -0.15844995268E+03  0.19670589136E+03  0.91187600000E+02 0.  0.
<mgrwt>
<rscale>  0 0.82917250E+03</rscale>
<asrwt>0</asrwt>
<pdfrwt beam="1">  1        1 0.12684102E+00 0.82917250E+03</pdfrwt>
<pdfrwt beam="2">  1       -1 0.32073279E-01 0.82917250E+03</pdfrwt>
<totfact> 0.19264852E+02</totfact>
</mgrwt>
</event>
<event>
10    1  0.1509672E-015  0.9605806E+03  0.7818608E-02  0.9352868E-01
         -1   -1    0    0    0  501 -0.00000000000E+00  0.00000000000E+00  0.19609239909E+03  0.19609239909E+03  0.00000000000E+00 0.  1.
          1   -1    0    0  501    0  0.00000000000E+00 -0.00000000000E+00 -0.11763778648E+04  0.11763778648E+04  0.00000000000E+00 0. -1.
         23    2    1    2    0    0 -0.18126664432E+03 -0.18979931676E+03 -0.16829066188E+03  0.33685186139E+03  0.12753843600E+03 0.  0.
        -15    1    3    3    0    0 -0.53619851155E+02 -0.56863784948E+00 -0.61626264191E+00  0.53626407362E+02  0.00000000000E+00 0.  1.
        -15    1    1    2    0    0  0.10069355120E+03  0.87494041350E+02 -0.29189741519E+03  0.32093379305E+03  0.00000000000E+00 0.  1.
         15    1    1    2    0    0 -0.32570547329E+02  0.99661975778E+02 -0.32195342552E+03  0.33859615795E+03  0.00000000000E+00 0. -1.
         15    1    3    3    0    0 -0.12764679316E+03 -0.18923067891E+03 -0.16767439924E+03  0.28322545402E+03  0.00000000000E+00 0. -1.
        -16    1    1    2    0    0  0.47794177191E+02 -0.70274372952E+02 -0.50271261391E+02  0.98741939362E+02  0.00000000000E+00 0.  1.
         16    1    1    2    0    0 -0.16851038072E+02 -0.40623273254E+02  0.12426359836E+02  0.45701446725E+02  0.00000000000E+00 0. -1.
    9900018    1    1    2    0    0  0.82200501329E+02  0.11354094584E+03 -0.16029906151E+03  0.23164506539E+03  0.91187600000E+02 0.  0.
<mgrwt>
<rscale>  0 0.96058057E+03</rscale>
<asrwt>0</asrwt>
<pdfrwt beam="1">  1        1 0.18098121E+00 0.96058057E+03</pdfrwt>
<pdfrwt beam="2">  1       -1 0.30168062E-01 0.96058057E+03</pdfrwt>
<totfact> 0.11277305E+02</totfact>
</mgrwt>
</event>
<event>
12    1  0.1509672E-015  0.9330584E+03  0.7818608E-02  0.9385175E-01
          1   -1    0    0  501    0  0.00000000000E+00  0.00000000000E+00  0.16902092625E+04  0.16902092625E+04  0.00000000000E+00 0. -1.
         -1   -1    0    0    0  501 -0.00000000000E+00 -0.00000000000E+00 -0.12877073279E+03  0.12877073279E+03  0.00000000000E+00 0.  1.
         23    2    1    2    0    0 -0.93074600220E+02  0.16002281661E+02  0.18599434906E+03  0.24265339929E+03  0.12396701206E+03 0.  0.
    9900016    2    1    2    0    0  0.19714458859E+03 -0.45491849874E+01  0.12756855228E+04  0.14317115009E+04  0.61930411349E+03 0.  0.
         23    2    4    4    0    0  0.35090951153E+03  0.54179097962E+01  0.55932050981E+03  0.66449236143E+03  0.74456878000E+02 0.  0.
        -15    1    3    3    0    0 -0.11693516188E+03  0.35023356692E+02  0.16646560869E+03  0.20642496572E+03  0.00000000000E+00 0. -1.
        -15    1    5    5    0    0  0.64735852273E+02  0.29071424382E+02  0.12739007303E+03  0.14582218278E+03  0.00000000000E+00 0.  1.
         15    1    5    5    0    0  0.28617365926E+03 -0.23653514586E+02  0.43193043678E+03  0.51867017865E+03  0.00000000000E+00 0. -1.
         15    1    3    3    0    0  0.23860561661E+02 -0.19021075030E+02  0.19528740373E+02  0.36228433566E+02  0.00000000000E+00 0.  1.
        -16    1    1    2    0    0 -0.10406998837E+03 -0.11453096674E+02  0.99758657861E+02  0.14461509506E+03  0.00000000000E+00 0.  1.
         16    1    4    4    0    0  0.12721772611E+02 -0.69563224924E+02  0.25842162397E+03  0.26792279017E+03  0.00000000000E+00 0. -1.
    9900018    1    4    4    0    0 -0.16648669556E+03  0.59596130141E+02  0.45794338900E+03  0.49929634933E+03  0.91187600000E+02 0.  0.
<mgrwt>
<rscale>  0 0.93305838E+03</rscale>
<asrwt>0</asrwt>
<pdfrwt beam="1">  1        1 0.26003218E+00 0.93305838E+03</pdfrwt>
<pdfrwt beam="2">  1       -1 0.19810883E-01 0.93305838E+03</pdfrwt>
<totfact> 0.10146216E+02</totfact>
</mgrwt>
</event>
<event>
11    1  0.1509672E-015  0.1318398E+04  0.7818608E-02  0.9583515E-01
         -2   -1    0    0    0  501 -0.00000000000E+00  0.00000000000E+00  0.67975671635E+03  0.67975671635E+03  0.00000000000E+00 0. -1.
          2   -1    0    0  501    0  0.00000000000E+00 -0.00000000000E+00 -0.89539472586E+03  0.89539472586E+03  0.00000000000E+00 0.  1.
         23    2    1    2    0    0 -0.92477408156E+02  0.76487649746E+02  0.13258375728E+03  0.21154165858E+03  0.11299995150E+03 0.  0.
    9900016    2    1    2    0    0  0.40282066799E+03 -0.20095076412E+03 -0.60698994716E+03  0.94080370876E+03  0.56038301394E+03 0.  0.
        -15    1    4    4    0    0  0.35134452803E+02 -0.44488972710E+02 -0.48242649910E+02  0.74438241092E+02  0.00000000000E+00 0.  1.
        -15    1    3    3    0    0  0.95938539544E+01  0.66604184610E+01 -0.14988071238E+02  0.19001196994E+02  0.00000000000E+00 0. -1.
         15    1    3    3    0    0 -0.10207126211E+03  0.69827231285E+02  0.14757182852E+03  0.19254046159E+03  0.00000000000E+00 0.  1.
         15    1    4    4    0    0 -0.79329443972E+02  0.70563350258E+02 -0.29960053115E+02  0.11031750479E+03  0.00000000000E+00 0. -1.
        -16    1    4    4    0    0  0.13082493549E+03 -0.15323238788E+03 -0.22657422961E+03  0.30320159954E+03  0.00000000000E+00 0.  1.
         16    1    1    2    0    0 -0.31034325984E+03  0.12446311438E+03  0.25876818037E+03  0.42280607486E+03  0.00000000000E+00 0. -1.
    9900018    1    4    4    0    0  0.31619072367E+03 -0.73792753789E+02 -0.30221301452E+03  0.45284636334E+03  0.91187600000E+02 0.  0.
<mgrwt>
<rscale>  0 0.78396909E+03</rscale>
<asrwt>0</asrwt>
<pdfrwt beam="1">  1        2 0.13775303E+00 0.13183980E+04</pdfrwt>
<pdfrwt beam="2">  1       -2 0.10457796E+00 0.13183980E+04</pdfrwt>
<totfact> 0.21349387E+01</totfact>
</mgrwt>
</event>
<event>
11    1  0.1509672E-015  0.8568131E+03  0.7818608E-02  0.9481238E-01
         -1   -1    0    0    0  501 -0.00000000000E+00  0.00000000000E+00  0.66679562266E+03  0.66679562266E+03  0.00000000000E+00 0.  1.
          1   -1    0    0  501    0  0.00000000000E+00 -0.00000000000E+00 -0.27524500419E+03  0.27524500419E+03  0.00000000000E+00 0. -1.
         23    2    1    2    0    0  0.73227055698E+02 -0.19848156314E+03  0.15695622076E+03  0.28593517986E+03  0.11120494258E+03 0.  0.
         23    2    1    2    0    0  0.31246123938E+02  0.18778205219E+03  0.74036807903E+01  0.20032286748E+03  0.61935590428E+02 0.  0.
        -15    1    3    3    0    0  0.58131265272E+02 -0.10779669380E+03  0.24815600266E+02  0.12496073469E+03  0.00000000000E+00 0.  1.
        -15    1    4    4    0    0  0.27954811809E+02  0.12017290703E+03 -0.24015734992E+02  0.12569707480E+03  0.00000000000E+00 0.  1.
         15    1    3    3    0    0  0.15095790426E+02 -0.90684869340E+02  0.13214062049E+03  0.16097444518E+03  0.00000000000E+00 0. -1.
         15    1    4    4    0    0  0.32913121290E+01  0.67609145163E+02  0.31419415782E+02  0.74625792681E+02  0.00000000000E+00 0. -1.
        -16    1    1    2    0    0 -0.16655945686E+03  0.48318855248E+02  0.18997971532E+03  0.25723346726E+03  0.00000000000E+00 0.  1.
         16    1    1    2    0    0  0.79109464659E+02  0.22938180028E+01 -0.21140437789E+02  0.81917562888E+02  0.00000000000E+00 0. -1.
    9900018    1    1    2    0    0 -0.17023187435E+02 -0.39913162299E+02  0.58351439386E+02  0.11663154937E+03  0.91187600000E+02 0.  0.
<mgrwt>
<rscale>  0 0.85681308E+03</rscale>
<asrwt>0</asrwt>
<pdfrwt beam="1">  1        1 0.42345385E-01 0.85681308E+03</pdfrwt>
<pdfrwt beam="2">  1       -1 0.10258394E+00 0.85681308E+03</pdfrwt>
<totfact> 0.89088470E+01</totfact>
</mgrwt>
</event>
