<event>
11    1  0.1713947E-015  0.3808418E+04  0.7818608E-02  0.8272689E-01
          2   -1    0    0  501    0  0.00000000000E+00  0.00000000000E+00  0.39674457743E+04  0.39674457743E+04  0.00000000000E+00 0.  1.
         -2   -1    0    0    0  501 -0.00000000000E+00 -0.00000000000E+00 -0.17304223200E+04  0.17304223200E+04  0.00000000000E+00 0. -1.
    9900016    2    1    2    0    0  0.82514959591E+03  0.41735578000E+03  0.78973937303E+03  0.21734882479E+04  0.18014730594E+04 0.  0.
         24    2    3    3    0    0  0.26087564998E+03  0.67145126267E+03 -0.40449868813E+03  0.82843280401E+03  0.61472100772E+02 0.  0.
        -15    1    1    2    0    0  0.95932709661E+02 -0.38485360684E+03 -0.16662789536E+01  0.39663353359E+03  0.00000000000E+00 0.  1.
        -15    1    4    4    0    0  0.13749719469E+03  0.37387124118E+03 -0.18946785606E+03  0.44111591675E+03  0.00000000000E+00 0.  1.
         15    1    1    2    0    0  0.35916835983E+03  0.80874923323E+03  0.26712690617E+01  0.88492054368E+03  0.00000000000E+00 0. -1.
         15    1    3    3    0    0  0.56427394594E+03 -0.25409548266E+03  0.11942380612E+04  0.13450554439E+04  0.00000000000E+00 0. -1.
        -16    1    1    2    0    0 -0.13335285248E+04 -0.86722806685E+03  0.14166847429E+04  0.21301123226E+04  0.00000000000E+00 0.  1.
         16    1    4    4    0    0  0.12337845529E+03  0.29758002148E+03 -0.21503083207E+03  0.38731688726E+03  0.00000000000E+00 0. -1.
    9900018    1    1    2    0    0  0.53277859362E+02  0.25976660462E+02  0.29594348303E+02  0.11271344655E+03  0.91187600000E+02 0.  0.
<mgrwt>
<rscale>  0 0.29006324E+04</rscale>
<asrwt>0</asrwt>
<pdfrwt beam="1">  1        2 0.61037627E+00 0.38084184E+04</pdfrwt>
<pdfrwt beam="2">  1       -2 0.26621882E+00 0.38084184E+04</pdfrwt>
<totfact> 0.14196964E-02</totfact>
</mgrwt>
</event>
<event>
11    1  0.1713947E-015  0.4669812E+04  0.7818608E-02  0.7881564E-01
          2   -1    0    0  501    0  0.00000000000E+00  0.00000000000E+00  0.23262912808E+04  0.23262912808E+04  0.00000000000E+00 0. -1.
         -2   -1    0    0    0  501 -0.00000000000E+00 -0.00000000000E+00 -0.23435529599E+04  0.23435529599E+04  0.00000000000E+00 0.  1.
    9900016    2    1    2    0    0  0.33808072515E+03  0.42899528196E+03  0.78441047792E+02  0.18837038511E+04  0.18010695911E+04 0.  0.
         24    2    3    3    0    0 -0.41557026621E+03  0.73559733567E+03 -0.39924990640E+03  0.94020860267E+03  0.10387320328E+03 0.  0.
        -15    1    1    2    0    0  0.18267216301E+03 -0.58722105802E+03  0.33932673486E+03  0.70238189264E+03  0.00000000000E+00 0.  1.
        -15    1    4    4    0    0 -0.82215797690E+02  0.11743146935E+03 -0.10984314222E+03  0.18059652067E+03  0.00000000000E+00 0.  1.
         15    1    1    2    0    0  0.22437381952E+03  0.87800052920E+03 -0.82202185831E+02  0.90993721735E+03  0.00000000000E+00 0. -1.
         15    1    3    3    0    0  0.75365099137E+03 -0.30660205371E+03  0.47769095420E+03  0.94349524845E+03  0.00000000000E+00 0. -1.
        -16    1    1    2    0    0 -0.74729372550E+03 -0.70305189165E+03 -0.33547383940E+03  0.10794779161E+04  0.00000000000E+00 0.  1.
         16    1    4    4    0    0 -0.33335446852E+03  0.61816586632E+03 -0.28940676418E+03  0.75961208200E+03  0.00000000000E+00 0. -1.
    9900018    1    1    2    0    0  0.21670178152E+01 -0.16722861496E+02 -0.17353436512E+02  0.94343363388E+02  0.91187600000E+02 0.  0.
<mgrwt>
<rscale>  0 0.46698123E+04</rscale>
<asrwt>0</asrwt>
<pdfrwt beam="1">  1        2 0.35789097E+00 0.46698123E+04</pdfrwt>
<pdfrwt beam="2">  1       -2 0.36054661E+00 0.46698123E+04</pdfrwt>
<totfact> 0.43675930E-02</totfact>
</mgrwt>
</event>
<event>
11    1  0.1713947E-015  0.5019020E+04  0.7818608E-02  0.7825580E-01
          2   -1    0    0  501    0  0.00000000000E+00  0.00000000000E+00  0.44305295532E+04  0.44305295532E+04  0.00000000000E+00 0.  1.
         -2   -1    0    0    0  501 -0.00000000000E+00 -0.00000000000E+00 -0.14214194904E+04  0.14214194904E+04  0.00000000000E+00 0. -1.
    9900016    2    1    2    0    0  0.51887549486E+03 -0.11598267728E+04  0.14227897125E+04  0.26274972854E+04  0.18069259798E+04 0.  0.
         24    2    3    3    0    0  0.62553075305E+03 -0.14582313993E+04  0.16074769959E+04  0.22607138917E+04  0.95485447615E+02 0.  0.
        -15    1    1    2    0    0  0.11984758996E+03  0.81990391427E+02  0.42494646099E+03  0.44907166891E+03  0.00000000000E+00 0.  1.
        -15    1    4    4    0    0  0.30124185691E+03 -0.62593436641E+03  0.75546716954E+03  0.10262899842E+04  0.00000000000E+00 0.  1.
         15    1    3    3    0    0 -0.10665525819E+03  0.29840462651E+03 -0.18468728342E+03  0.36678339368E+03  0.00000000000E+00 0. -1.
         15    1    1    2    0    0 -0.12426142509E+04  0.65168415192E+03  0.12058235363E+03  0.14083048372E+04  0.00000000000E+00 0. -1.
        -16    1    1    2    0    0  0.59531994101E+03  0.48148957971E+03  0.98122537809E+03  0.12446048731E+04  0.00000000000E+00 0.  1.
         16    1    4    4    0    0  0.32428889614E+03 -0.83229703292E+03  0.85200982635E+03  0.12344239075E+04  0.00000000000E+00 0. -1.
    9900018    1    1    2    0    0  0.85712250807E+01 -0.55337350236E+02  0.59566157572E+02  0.12247037908E+03  0.91187600000E+02 0.  0.
<mgrwt>
<rscale>  0 0.50190202E+04</rscale>
<asrwt>0</asrwt>
<pdfrwt beam="1">  1        2 0.68161992E+00 0.50190202E+04</pdfrwt>
<pdfrwt beam="2">  1       -2 0.21867993E+00 0.50190202E+04</pdfrwt>
<totfact> 0.10425827E-02</totfact>
</mgrwt>
</event>
<event>
11    1  0.1713947E-015  0.2899413E+04  0.7818608E-02  0.8355790E-01
         -2   -1    0    0    0  501 -0.00000000000E+00  0.00000000000E+00  0.32037255841E+04  0.32037255841E+04  0.00000000000E+00 0.  1.
          2   -1    0    0  501    0  0.00000000000E+00 -0.00000000000E+00 -0.20047335863E+04  0.20047335863E+04  0.00000000000E+00 0. -1.
    9900016    2    1    2    0    0  0.13871276847E+03  0.28306988921E+03  0.12655336262E+04  0.22241845771E+04  0.18016802935E+04 0.  0.
         24    2    3    3    0    0 -0.21226741758E+03  0.46636408456E+03 -0.30789322863E+03  0.60170008711E+03  0.68496997454E+02 0.  0.
        -15    1    1    2    0    0 -0.65820349867E+03 -0.35832148896E+03  0.89303174776E+02  0.75471928035E+03  0.00000000000E+00 0.  1.
        -15    1    4    4    0    0 -0.13127622565E+03  0.22135569193E+03 -0.13043138095E+03  0.28852059702E+03  0.00000000000E+00 0.  1.
         15    1    3    3    0    0  0.35098018605E+03 -0.18329419535E+03  0.15734268548E+04  0.16224844900E+04  0.00000000000E+00 0. -1.
         15    1    1    2    0    0  0.75038095636E+03  0.94360443826E+03 -0.28122427926E+03  0.12379612315E+04  0.00000000000E+00 0. -1.
        -16    1    1    2    0    0 -0.20310459638E+03 -0.85615248385E+03  0.75050683301E+02  0.88310880289E+03  0.00000000000E+00 0.  1.
         16    1    4    4    0    0 -0.80991191931E+02  0.24500839263E+03 -0.17746184768E+03  0.31317949009E+03  0.00000000000E+00 0. -1.
    9900018    1    1    2    0    0 -0.27785629786E+02 -0.12200354668E+02  0.50328792803E+02  0.10848527852E+03  0.91187600000E+02 0.  0.
<mgrwt>
<rscale>  0 0.26368535E+04</rscale>
<asrwt>0</asrwt>
<pdfrwt beam="1">  1        2 0.30842055E+00 0.28994125E+04</pdfrwt>
<pdfrwt beam="2">  1       -2 0.49288086E+00 0.28994125E+04</pdfrwt>
<totfact> 0.98707918E-03</totfact>
</mgrwt>
</event>
<event>
11    1  0.1713947E-015  0.2844321E+04  0.7818608E-02  0.8586066E-01
         -2   -1    0    0    0  501 -0.00000000000E+00  0.00000000000E+00  0.27103712373E+04  0.27103712373E+04  0.00000000000E+00 0.  1.
          2   -1    0    0  501    0  0.00000000000E+00 -0.00000000000E+00 -0.13558376026E+04  0.13558376026E+04  0.00000000000E+00 0. -1.
    9900016    2    1    2    0    0  0.23837657632E+03  0.40781530530E+03  0.99935129390E+03  0.21160606435E+04  0.18044037583E+04 0.  0.
        -24    2    3    3    0    0  0.14579883836E+03  0.87619684122E+03  0.12811586946E+04  0.15616534719E+04  0.91737450243E+02 0.  0.
        -15    1    1    2    0    0  0.60438394872E+03  0.93645112898E+02 -0.21052635930E+03  0.64681582588E+03  0.00000000000E+00 0.  1.
        -15    1    3    3    0    0  0.92577737959E+02 -0.46838153592E+03 -0.28180740073E+03  0.55440717154E+03  0.00000000000E+00 0.  1.
         15    1    4    4    0    0  0.94094356939E+02  0.69760293831E+03  0.10639992746E+04  0.12757735159E+04  0.00000000000E+00 0. -1.
         15    1    1    2    0    0 -0.14634220338E+03  0.18794752687E+02 -0.40768717387E+02  0.15307309214E+03  0.00000000000E+00 0. -1.
        -16    1    4    4    0    0  0.51704481423E+02  0.17859390290E+03  0.21715942005E+03  0.28587995605E+03  0.00000000000E+00 0.  1.
         16    1    1    2    0    0 -0.70340744721E+03 -0.52124240544E+03  0.59394468352E+03  0.10579442183E+04  0.00000000000E+00 0. -1.
    9900018    1    1    2    0    0  0.69891255518E+01  0.98723455329E+00  0.12532733941E+02  0.92315060103E+02  0.91187600000E+02 0.  0.
<mgrwt>
<rscale>  0 0.20445612E+04</rscale>
<asrwt>0</asrwt>
<pdfrwt beam="1">  1        2 0.20859040E+00 0.28443207E+04</pdfrwt>
<pdfrwt beam="2">  1       -2 0.41698019E+00 0.28443207E+04</pdfrwt>
<totfact> 0.74115616E-02</totfact>
</mgrwt>
</event>
<event>
10    1  0.1713947E-015  0.3681856E+04  0.7818608E-02  0.8439940E-01
         -1   -1    0    0    0  501 -0.00000000000E+00  0.00000000000E+00  0.17433861904E+04  0.17433861904E+04  0.00000000000E+00 0.  1.
          1   -1    0    0  501    0  0.00000000000E+00 -0.00000000000E+00 -0.27970316107E+04  0.27970316107E+04  0.00000000000E+00 0. -1.
    9900016    2    1    2    0    0  0.43998202106E+03  0.69063456388E+03  0.26448192718E+03  0.20685698633E+04  0.18810822177E+04 0.  0.
        -15    1    3    3    0    0  0.74900875674E+03  0.10488239294E+04 -0.17418575947E+03  0.13005331335E+04  0.00000000000E+00 0.  1.
        -15    1    1    2    0    0  0.57562472789E+03 -0.22853548822E+03  0.12067407979E+03  0.63097902522E+03  0.00000000000E+00 0. -1.
         15    1    1    2    0    0 -0.41904338911E+02 -0.12729342606E+02  0.30908306042E+01  0.43904020506E+02  0.00000000000E+00 0.  1.
         15    1    3    3    0    0 -0.18023444880E+03 -0.12552645937E+03  0.17528163952E+03  0.28100712035E+03  0.00000000000E+00 0. -1.
        -16    1    3    3    0    0 -0.13224677205E+03 -0.27522767285E+03  0.22489103565E+03  0.37923008654E+03  0.00000000000E+00 0.  1.
         16    1    1    2    0    0 -0.97370241004E+03 -0.44936973305E+03 -0.14418922578E+04  0.17969648921E+04  0.00000000000E+00 0. -1.
    9900018    1    3    3    0    0  0.34544851639E+01  0.42564766752E+02  0.38495011489E+02  0.10779952291E+03  0.91187600000E+02 0.  0.
<mgrwt>
<rscale>  0 0.23988335E+04</rscale>
<asrwt>0</asrwt>
<pdfrwt beam="1">  1        1 0.43031255E+00 0.36818560E+04</pdfrwt>
<pdfrwt beam="2">  1       -1 0.26821326E+00 0.36818560E+04</pdfrwt>
<totfact> 0.34855057E-02</totfact>
</mgrwt>
</event>
<event>
11    1  0.1713947E-015  0.4463653E+04  0.7818608E-02  0.8158202E-01
         -2   -1    0    0    0  501 -0.00000000000E+00  0.00000000000E+00  0.22642575557E+04  0.22642575557E+04  0.00000000000E+00 0. -1.
          2   -1    0    0  501    0  0.00000000000E+00 -0.00000000000E+00 -0.38910420665E+04  0.38910420665E+04  0.00000000000E+00 0.  1.
    9900016    2    1    2    0    0  0.14273200366E+04  0.74466829331E+03 -0.78413612979E+03  0.25996677803E+04  0.18845768076E+04 0.  0.
        -24    2    3    3    0    0  0.12829863954E+02 -0.35211962785E+03  0.29301870757E+03  0.46295738421E+03  0.65701894037E+02 0.  0.
        -15    1    3    3    0    0  0.13380937938E+04  0.10876321445E+04 -0.10289505024E+04  0.20080283412E+04  0.00000000000E+00 0.  1.
        -15    1    1    2    0    0  0.20367616122E+03 -0.99243555936E+03 -0.29655947820E+02  0.10135540407E+04  0.00000000000E+00 0.  1.
         15    1    4    4    0    0  0.23788132028E+02 -0.19912504772E+03  0.12929862843E+03  0.23861013216E+03  0.00000000000E+00 0. -1.
         15    1    1    2    0    0  0.32739564501E+03  0.13574759067E+02  0.13418858122E+03  0.35408862984E+03  0.00000000000E+00 0. -1.
        -16    1    4    4    0    0 -0.10958268074E+02 -0.15299458013E+03  0.16372007914E+03  0.22434725205E+03  0.00000000000E+00 0.  1.
         16    1    1    2    0    0 -0.19583918428E+04  0.23419250698E+03 -0.94718101433E+03  0.21879891714E+04  0.00000000000E+00 0. -1.
    9900018    1    3    3    0    0  0.76396378838E+02  0.91557766869E+01 -0.48204334997E+02  0.12868205490E+03  0.91187600000E+02 0.  0.
<mgrwt>
<rscale>  0 0.33185084E+04</rscale>
<asrwt>0</asrwt>
<pdfrwt beam="1">  1        2 0.59862185E+00 0.44636532E+04</pdfrwt>
<pdfrwt beam="2">  1       -2 0.34834732E+00 0.44636532E+04</pdfrwt>
<totfact> 0.48043393E-03</totfact>
</mgrwt>
</event>
<event>
11    1  0.1713947E-015  0.3575813E+04  0.7818608E-02  0.8221594E-01
          2   -1    0    0  501    0  0.00000000000E+00  0.00000000000E+00  0.25279431051E+04  0.25279431051E+04  0.00000000000E+00 0.  1.
         -2   -1    0    0    0  501 -0.00000000000E+00 -0.00000000000E+00 -0.30662538144E+04  0.30662538144E+04  0.00000000000E+00 0. -1.
    9900016    2    1    2    0    0  0.72751969523E+03 -0.12811771415E+03 -0.84728981827E+03  0.22020935356E+04  0.18935725092E+04 0.  0.
        -24    2    3    3    0    0  0.48569125484E+03 -0.21029897922E+03  0.51317751349E+03  0.74039000600E+03  0.68589685468E+02 0.  0.
        -15    1    3    3    0    0  0.24431179500E+03  0.92261805823E+02 -0.13431557340E+04  0.13683083789E+04  0.00000000000E+00 0.  1.
        -15    1    1    2    0    0  0.74488720721E+03 -0.28019135233E+03 -0.21422423613E+02  0.79613005572E+03  0.00000000000E+00 0.  1.
         15    1    1    2    0    0 -0.96242715677E+03 -0.61299649683E+03 -0.43543836955E+03  0.12213260461E+04  0.00000000000E+00 0. -1.
         15    1    4    4    0    0  0.42402466804E+03 -0.16676696751E+03  0.46393469844E+03  0.65026421166E+03  0.00000000000E+00 0. -1.
        -16    1    4    4    0    0  0.61666586801E+02 -0.43532011712E+02  0.49242815053E+02  0.90125794342E+02  0.00000000000E+00 0.  1.
         16    1    1    2    0    0 -0.50997974567E+03  0.10213055633E+04  0.76583990207E+03  0.13746472821E+04  0.00000000000E+00 0. -1.
    9900018    1    3    3    0    0 -0.24833546062E+01 -0.10080540753E+02 -0.17311597722E+02  0.93395150631E+02  0.91187600000E+02 0.  0.
<mgrwt>
<rscale>  0 0.30787493E+04</rscale>
<asrwt>0</asrwt>
<pdfrwt beam="1">  1        2 0.38891432E+00 0.35758133E+04</pdfrwt>
<pdfrwt beam="2">  1       -2 0.47173136E+00 0.35758133E+04</pdfrwt>
<totfact> 0.64479875E-03</totfact>
</mgrwt>
</event>
<event>
10    1  0.1713947E-015  0.3309629E+04  0.7818608E-02  0.8255076E-01
          2   -1    0    0  501    0  0.00000000000E+00  0.00000000000E+00  0.46575345687E+04  0.46575345687E+04  0.00000000000E+00 0. -1.
         -2   -1    0    0    0  501 -0.00000000000E+00 -0.00000000000E+00 -0.17350228526E+04  0.17350228526E+04  0.00000000000E+00 0.  1.
    9900016    2    1    2    0    0 -0.66482534070E+01 -0.44270861734E+03  0.94670907481E+03  0.21655001380E+04  0.18966016071E+04 0.  0.
        -15    1    1    2    0    0  0.18972017843E+03  0.36625372608E+03 -0.56756587454E+03  0.70161710349E+03  0.00000000000E+00 0.  1.
        -15    1    3    3    0    0 -0.34370045902E+03  0.46192440794E+03  0.90190604139E+03  0.10700180707E+04  0.00000000000E+00 0.  1.
         15    1    1    2    0    0 -0.49796373688E+03 -0.10618679094E+04  0.17349955266E+04  0.20942160389E+04  0.00000000000E+00 0. -1.
         15    1    3    3    0    0  0.30523536619E+03 -0.84340529899E+03 -0.48107280048E+02  0.89822905627E+03  0.00000000000E+00 0. -1.
        -16    1    3    3    0    0 -0.86992425737E+01 -0.48000955191E+02 -0.13662762520E+02  0.50660039482E+02  0.00000000000E+00 0.  1.
         16    1    1    2    0    0  0.31489181186E+03  0.11383228007E+04  0.80837298930E+03  0.14312241409E+04  0.00000000000E+00 0. -1.
    9900018    1    3    3    0    0  0.40516081997E+02 -0.13226771103E+02  0.10657307598E+03  0.14659297150E+03  0.91187600000E+02 0.  0.
<mgrwt>
<rscale>  0 0.29605860E+04</rscale>
<asrwt>0</asrwt>
<pdfrwt beam="1">  1        2 0.71654378E+00 0.33096287E+04</pdfrwt>
<pdfrwt beam="2">  1       -2 0.26692659E+00 0.33096287E+04</pdfrwt>
<totfact> 0.33688793E-03</totfact>
</mgrwt>
</event>
<event>
10    1  0.1713947E-015  0.4567807E+04  0.7818608E-02  0.8032292E-01
         -2   -1    0    0    0  501 -0.00000000000E+00  0.00000000000E+00  0.28044680226E+04  0.28044680226E+04  0.00000000000E+00 0.  1.
          2   -1    0    0  501    0  0.00000000000E+00 -0.00000000000E+00 -0.43325362569E+04  0.43325362569E+04  0.00000000000E+00 0. -1.
    9900016    2    1    2    0    0 -0.10947771779E+04 -0.10344545999E+03 -0.13237811854E+04  0.24870099950E+04  0.17954342249E+04 0.  0.
        -15    1    3    3    0    0 -0.13885355082E+03 -0.18755475583E+02  0.14901284848E+03  0.20454071832E+03  0.00000000000E+00 0.  1.
        -15    1    1    2    0    0  0.31279148757E+03  0.70582977731E+02 -0.13225781593E+04  0.13608943600E+04  0.00000000000E+00 0.  1.
         15    1    3    3    0    0 -0.10280735327E+04  0.18882803852E+03 -0.16466814339E+04  0.19504232775E+04  0.00000000000E+00 0. -1.
         15    1    1    2    0    0 -0.62180165473E+03 -0.93225656904E+03  0.35158759922E+03  0.11744587895E+04  0.00000000000E+00 0. -1.
        -16    1    1    2    0    0  0.14495880797E+04  0.10211389285E+04  0.85501702447E+03  0.19685234121E+04  0.00000000000E+00 0.  1.
         16    1    3    3    0    0  0.72149905551E+02 -0.27351802293E+03  0.17388739996E+03  0.33204599922E+03  0.00000000000E+00 0. -1.
    9900018    1    1    2    0    0 -0.45800734576E+02 -0.56019877212E+02 -0.88313513251E+02  0.14611772291E+03  0.91187600000E+02 0.  0.
<mgrwt>
<rscale>  0 0.38652694E+04</rscale>
<asrwt>0</asrwt>
<pdfrwt beam="1">  1        2 0.66654403E+00 0.45678066E+04</pdfrwt>
<pdfrwt beam="2">  1       -2 0.43145662E+00 0.45678066E+04</pdfrwt>
<totfact> 0.56852624E-04</totfact>
</mgrwt>
</event>
<event>
10    1  0.1713947E-015  0.7522357E+04  0.7818608E-02  0.7525839E-01
          2   -1    0    0  501    0  0.00000000000E+00  0.00000000000E+00  0.33402230028E+04  0.33402230028E+04  0.00000000000E+00 0.  1.
         -2   -1    0    0    0  501 -0.00000000000E+00 -0.00000000000E+00 -0.42351851765E+04  0.42351851765E+04  0.00000000000E+00 0. -1.
    9900016    2    1    2    0    0 -0.10730556140E+04  0.11588310988E+04 -0.25384695040E+03  0.24074880385E+04  0.17992283109E+04 0.  0.
        -15    1    3    3    0    0 -0.81875172126E+03  0.62535651048E+03 -0.42965521019E+03  0.11162565771E+04  0.00000000000E+00 0.  1.
        -15    1    1    2    0    0 -0.51247612546E+03 -0.10483029536E+04  0.19078361230E+03  0.11823574960E+04  0.00000000000E+00 0.  1.
         15    1    3    3    0    0  0.28786284978E+03  0.22990014468E+02  0.41809747059E+03  0.50813291171E+03  0.00000000000E+00 0. -1.
         15    1    1    2    0    0  0.33576426186E+03  0.53696633267E+03 -0.18863169783E+04  0.19897894925E+04  0.00000000000E+00 0. -1.
        -16    1    1    2    0    0  0.13335639144E+04 -0.73303893487E+03  0.10428851509E+04  0.18448165848E+04  0.00000000000E+00 0.  1.
         16    1    3    3    0    0 -0.54216674247E+03  0.51048457389E+03 -0.24228921080E+03  0.78309854967E+03  0.00000000000E+00 0. -1.
    9900018    1    1    2    0    0 -0.83796436863E+02  0.85544456976E+02  0.11532991786E+02  0.15095656741E+03  0.91187600000E+02 0.  0.
<mgrwt>
<rscale>  0 0.75223568E+04</rscale>
<asrwt>0</asrwt>
<pdfrwt beam="1">  1        2 0.51388046E+00 0.75223568E+04</pdfrwt>
<pdfrwt beam="2">  1       -2 0.65156695E+00 0.75223568E+04</pdfrwt>
<totfact> 0.21519134E-04</totfact>
</mgrwt>
</event>
