<event>
10    1  0.3052607E-011  0.1311266E+04  0.7818608E-02  0.9020678E-01
          2   -1    0    0  501    0  0.00000000000E+00  0.00000000000E+00  0.54292784642E+03  0.54292784642E+03  0.00000000000E+00 0. -1.
         -2   -1    0    0    0  501 -0.00000000000E+00 -0.00000000000E+00 -0.79173446473E+03  0.79173446473E+03  0.00000000000E+00 0.  1.
    9900016    2    1    2    0    0  0.13295567101E+03 -0.20876186443E+03 -0.13716629387E+03  0.76507734604E+03  0.71082348495E+03 0.  0.
        -15    1    3    3    0    0  0.64586746387E+02  0.10144758408E+03 -0.33937287488E+02  0.12495919176E+03  0.00000000000E+00 0. -1.
        -15    1    3    3    0    0  0.11406244971E+02  0.42445815010E+02 -0.11625418718E+03  0.12428509836E+03  0.00000000000E+00 0.  1.
         15    1    3    3    0    0  0.70851520577E+02 -0.25104768072E+03 -0.77302117949E+02  0.27206707519E+03  0.00000000000E+00 0. -1.
         15    1    3    3    0    0 -0.31696746221E+02  0.50939025271E+02 -0.92825230015E+01  0.60709416484E+02  0.00000000000E+00 0.  1.
        -16    1    3    3    0    0  0.17807905293E+02 -0.15254660806E+03  0.99609821748E+02  0.18305656424E+03  0.00000000000E+00 0.  1.
         16    1    1    2    0    0 -0.20650206354E+03 -0.93173793121E+02  0.14138314595E+01  0.22655343054E+03  0.00000000000E+00 0. -1.
    9900018    1    1    2    0    0  0.73546392529E+02  0.30193565755E+03 -0.11305415589E+03  0.34303153458E+03  0.91187600000E+02 0.  0.
<mgrwt>
<rscale>  0 0.13112661E+04</rscale>
<asrwt>0</asrwt>
<pdfrwt beam="1">  1        2 0.83527361E-01 0.13112661E+04</pdfrwt>
<pdfrwt beam="2">  1       -2 0.12180530E+00 0.13112661E+04</pdfrwt>
<totfact> 0.28002935E+01</totfact>
</mgrwt>
</event>
<event>
10    1  0.3052607E-011  0.1525625E+04  0.7818608E-02  0.8867589E-01
         -1   -1    0    0    0  501 -0.00000000000E+00  0.00000000000E+00  0.55123854468E+03  0.55123854468E+03  0.00000000000E+00 0.  1.
          1   -1    0    0  501    0  0.00000000000E+00 -0.00000000000E+00 -0.10555912370E+04  0.10555912370E+04  0.00000000000E+00 0. -1.
    9900016    2    1    2    0    0 -0.19269401375E+03  0.27277749186E+03 -0.45129141073E+03  0.90654198528E+03  0.71176954885E+03 0.  0.
        -15    1    3    3    0    0 -0.15635464925E+03  0.20694548625E+02 -0.18636637329E+03  0.24414640234E+03  0.00000000000E+00 0.  1.
        -15    1    3    3    0    0  0.26673844771E+02  0.61544019558E+02  0.22528784114E+02  0.70758084004E+02  0.00000000000E+00 0.  1.
         15    1    3    3    0    0 -0.40501807318E+02 -0.35933028969E+02 -0.23589590470E+03  0.24202986762E+03  0.00000000000E+00 0. -1.
         15    1    3    3    0    0 -0.29916998491E+02  0.46895974229E+02 -0.13901403910E+03  0.14973029842E+03  0.00000000000E+00 0. -1.
        -16    1    1    2    0    0 -0.13893070987E+03 -0.63645683061E+02  0.17923964863E+03  0.23554058410E+03  0.00000000000E+00 0.  1.
         16    1    3    3    0    0  0.74055965304E+01  0.17957597842E+03  0.87456122243E+02  0.19987733289E+03  0.00000000000E+00 0. -1.
    9900018    1    1    2    0    0  0.33162472362E+03 -0.20913180880E+03 -0.23230093021E+03  0.46474721230E+03  0.91187600000E+02 0.  0.
<mgrwt>
<rscale>  0 0.15256246E+04</rscale>
<asrwt>0</asrwt>
<pdfrwt beam="1">  1        1 0.16239865E+00 0.15256246E+04</pdfrwt>
<pdfrwt beam="2">  1       -1 0.84805930E-01 0.15256246E+04</pdfrwt>
<totfact> 0.18204562E+01</totfact>
</mgrwt>
</event>
<event>
10    1  0.3052607E-011  0.1663903E+04  0.7818608E-02  0.8782224E-01
          1   -1    0    0  501    0  0.00000000000E+00  0.00000000000E+00  0.70659692972E+03  0.70659692972E+03  0.00000000000E+00 0. -1.
         -1   -1    0    0    0  501 -0.00000000000E+00 -0.00000000000E+00 -0.97954458200E+03  0.97954458200E+03  0.00000000000E+00 0.  1.
    9900016    2    1    2    0    0 -0.20121247136E+03 -0.39245548955E+01  0.14938501138E+03  0.74329554020E+03  0.69976461593E+03 0.  0.
        -15    1    3    3    0    0 -0.12905244965E+03 -0.24866693042E+03  0.11249502663E+03  0.30190214981E+03  0.00000000000E+00 0.  1.
        -15    1    3    3    0    0 -0.12254807095E+02 -0.29088147792E+02 -0.15925608335E+02  0.35354287431E+02  0.00000000000E+00 0. -1.
         15    1    3    3    0    0 -0.30721780907E+02  0.29385497893E+03  0.69838371642E+02  0.30359837717E+03  0.00000000000E+00 0. -1.
         15    1    3    3    0    0 -0.11100766358E+02 -0.40990903612E+02 -0.45833030401E+02  0.62483180684E+02  0.00000000000E+00 0.  1.
        -16    1    3    3    0    0 -0.18082667354E+02  0.20966447999E+02  0.28810251838E+02  0.39957545111E+02  0.00000000000E+00 0.  1.
         16    1    1    2    0    0  0.42856916483E+03 -0.73345204748E+02  0.15670838371E+02  0.43508231782E+03  0.00000000000E+00 0. -1.
    9900018    1    1    2    0    0 -0.22735669347E+03  0.77269759644E+02 -0.43800350204E+03  0.50776365369E+03  0.91187600000E+02 0.  0.
<mgrwt>
<rscale>  0 0.16639029E+04</rscale>
<asrwt>0</asrwt>
<pdfrwt beam="1">  1        1 0.10870722E+00 0.16639029E+04</pdfrwt>
<pdfrwt beam="2">  1       -1 0.15069916E+00 0.16639029E+04</pdfrwt>
<totfact> 0.88327918E+00</totfact>
</mgrwt>
</event>
<event>
10    1  0.3052607E-011  0.1331894E+04  0.7818608E-02  0.9004649E-01
         -1   -1    0    0    0  501 -0.00000000000E+00  0.00000000000E+00  0.43444312668E+03  0.43444312668E+03  0.00000000000E+00 0.  1.
          1   -1    0    0  501    0  0.00000000000E+00 -0.00000000000E+00 -0.10208130526E+04  0.10208130526E+04  0.00000000000E+00 0. -1.
    9900016    2    1    2    0    0  0.22595907655E+03 -0.70781955714E+02 -0.39358990100E+03  0.84965287986E+03  0.71479326840E+03 0.  0.
        -15    1    3    3    0    0  0.21582850286E+03 -0.19428580925E+03 -0.50756481604E+03  0.58476573156E+03  0.00000000000E+00 0.  1.
        -15    1    3    3    0    0 -0.54531201840E+01  0.42904702694E+02 -0.40683361146E+02  0.59377486535E+02  0.00000000000E+00 0.  1.
         15    1    3    3    0    0  0.35004329152E+02  0.41685300115E+02  0.51861391569E+02  0.75183583584E+02  0.00000000000E+00 0. -1.
         15    1    3    3    0    0  0.14863166650E+02  0.21478092425E+02  0.69180099813E+01  0.27020011828E+02  0.00000000000E+00 0. -1.
        -16    1    1    2    0    0 -0.29017444992E+02 -0.16616195701E+03  0.77593854804E+02  0.18566802195E+03  0.00000000000E+00 0.  1.
         16    1    3    3    0    0 -0.34283801922E+02  0.17435758301E+02  0.95878874644E+02  0.10330606635E+03  0.00000000000E+00 0. -1.
    9900018    1    1    2    0    0 -0.19694163156E+03  0.23694391272E+03 -0.27037387969E+03  0.41993527743E+03  0.91187600000E+02 0.  0.
<mgrwt>
<rscale>  0 0.13318937E+04</rscale>
<asrwt>0</asrwt>
<pdfrwt beam="1">  1        1 0.15704816E+00 0.13318937E+04</pdfrwt>
<pdfrwt beam="2">  1       -1 0.66837405E-01 0.13318937E+04</pdfrwt>
<totfact> 0.32405214E+01</totfact>
</mgrwt>
</event>
<event>
10    1  0.3052607E-011  0.2173439E+04  0.7818608E-02  0.8529565E-01
          1   -1    0    0  501    0  0.00000000000E+00  0.00000000000E+00  0.37888724010E+03  0.37888724010E+03  0.00000000000E+00 0. -1.
         -1   -1    0    0    0  501 -0.00000000000E+00 -0.00000000000E+00 -0.31169149478E+04  0.31169149478E+04  0.00000000000E+00 0.  1.
    9900016    2    1    2    0    0  0.45780572258E+02  0.47525858500E+03 -0.15929496348E+04  0.18078022615E+04  0.70900909319E+03 0.  0.
        -15    1    3    3    0    0  0.16670822322E+03 -0.43561021932E+02 -0.50552514956E+03  0.53408320622E+03  0.00000000000E+00 0.  1.
        -15    1    3    3    0    0 -0.13359097437E+02  0.19712547177E+02 -0.83660578778E+02  0.86983575702E+02  0.00000000000E+00 0. -1.
         15    1    3    3    0    0  0.11973001355E+03  0.10989557757E+03 -0.30098688789E+03  0.34206055136E+03  0.00000000000E+00 0.  1.
         15    1    3    3    0    0 -0.99937662721E+02  0.22010475990E+03 -0.47951949981E+03  0.53700334493E+03  0.00000000000E+00 0. -1.
        -16    1    3    3    0    0 -0.12736090436E+03  0.16910672228E+03 -0.22325751878E+03  0.30767158330E+03  0.00000000000E+00 0.  1.
         16    1    1    2    0    0  0.58862341128E+02 -0.47252898390E+03  0.55515833134E+02  0.47940632407E+03  0.00000000000E+00 0. -1.
    9900018    1    1    2    0    0 -0.10464291339E+03 -0.27296011005E+01 -0.12005939061E+04  0.12085936024E+04  0.91187600000E+02 0.  0.
<mgrwt>
<rscale>  0 0.21734390E+04</rscale>
<asrwt>0</asrwt>
<pdfrwt beam="1">  1        1 0.58290344E-01 0.21734390E+04</pdfrwt>
<pdfrwt beam="2">  1       -1 0.47952538E+00 0.21734390E+04</pdfrwt>
<totfact> 0.11963837E-01</totfact>
</mgrwt>
</event>
<event>
10    1  0.3052607E-011  0.2168067E+04  0.7818608E-02  0.8531838E-01
         -2   -1    0    0    0  501 -0.00000000000E+00  0.00000000000E+00  0.71242904142E+03  0.71242904142E+03  0.00000000000E+00 0.  1.
          2   -1    0    0  501    0  0.00000000000E+00 -0.00000000000E+00 -0.16494670903E+04  0.16494670903E+04  0.00000000000E+00 0. -1.
    9900016    2    1    2    0    0  0.14827226930E+03  0.21096295390E+03 -0.51386446589E+03  0.90470396174E+03  0.69852883643E+03 0.  0.
        -15    1    3    3    0    0 -0.16296094131E+03 -0.54270121202E+01 -0.19304890249E+03  0.25269269796E+03  0.00000000000E+00 0.  1.
        -15    1    3    3    0    0  0.72776937152E+02  0.11842307511E+03  0.43673924504E+01  0.13906682356E+03  0.00000000000E+00 0.  1.
         15    1    3    3    0    0  0.25527165817E+01  0.12398498697E+02  0.45752870457E+01  0.13460029103E+02  0.00000000000E+00 0. -1.
         15    1    3    3    0    0  0.27702256595E+03  0.11090091115E+03 -0.33758329839E+03  0.45055853947E+03  0.00000000000E+00 0. -1.
        -16    1    3    3    0    0 -0.41119009074E+02 -0.25332518929E+02  0.78250554886E+01  0.48925871642E+02  0.00000000000E+00 0.  1.
         16    1    1    2    0    0  0.22491043225E+03  0.21156205590E+03 -0.74162878023E+03  0.80334080793E+03  0.00000000000E+00 0. -1.
    9900018    1    1    2    0    0 -0.37318270155E+03 -0.42252500980E+03  0.31845519721E+03  0.65385136206E+03  0.91187600000E+02 0.  0.
<mgrwt>
<rscale>  0 0.21680667E+04</rscale>
<asrwt>0</asrwt>
<pdfrwt beam="1">  1        2 0.25376416E+00 0.21680667E+04</pdfrwt>
<pdfrwt beam="2">  1       -2 0.10960447E+00 0.21680667E+04</pdfrwt>
<totfact> 0.63563983E+00</totfact>
</mgrwt>
</event>
