<event>
11    1  0.8740160E-013  0.3443148E+04  0.7818608E-02  0.8375647E-01
         -2   -1    0    0    0  501 -0.00000000000E+00  0.00000000000E+00  0.18573903041E+04  0.18573903041E+04  0.00000000000E+00 0. -1.
          2   -1    0    0  501    0  0.00000000000E+00 -0.00000000000E+00 -0.28193305525E+04  0.28193305525E+04  0.00000000000E+00 0.  1.
    9900016    2    1    2    0    0  0.31697691927E+03  0.25873015455E+03  0.47595023989E+02  0.21025199601E+04  0.20617733231E+04 0.  0.
         24    2    3    3    0    0  0.21097482757E+03 -0.30060087039E+03 -0.74747074676E+03  0.83559446677E+03  0.68075946439E+02 0.  0.
        -15    1    4    4    0    0  0.73951787353E+02 -0.54639571334E+02 -0.18242993321E+03  0.20429153222E+03  0.00000000000E+00 0.  1.
        -15    1    1    2    0    0  0.50784090037E+02 -0.13125378767E+03  0.28203382364E+03  0.31519780813E+03  0.00000000000E+00 0.  1.
         15    1    3    3    0    0  0.31017697829E+02  0.74707230078E+03  0.70464216387E+03  0.10274238168E+04  0.00000000000E+00 0. -1.
         15    1    1    2    0    0  0.27168170697E+03  0.68532493546E+03 -0.21898886575E+03  0.76904963454E+03  0.00000000000E+00 0. -1.
        -16    1    1    2    0    0 -0.63944271627E+03 -0.81280130235E+03 -0.10725802303E+04  0.14899534539E+04  0.00000000000E+00 0.  1.
         16    1    4    4    0    0  0.13702304021E+03 -0.24596129906E+03 -0.56504081356E+03  0.63130293455E+03  0.00000000000E+00 0. -1.
    9900018    1    3    3    0    0  0.74984393873E+02 -0.18774127584E+03  0.90423606882E+02  0.23950167652E+03  0.91187600000E+02 0.  0.
<mgrwt>
<rscale>  0 0.25781908E+04</rscale>
<asrwt>0</asrwt>
<pdfrwt beam="1">  1        2 0.43374316E+00 0.34431483E+04</pdfrwt>
<pdfrwt beam="2">  1       -2 0.28575236E+00 0.34431483E+04</pdfrwt>
<totfact> 0.69534316E-02</totfact>
</mgrwt>
</event>
<event>
11    1  0.8740160E-013  0.2386953E+04  0.7818608E-02  0.8751813E-01
         -1   -1    0    0    0  501 -0.00000000000E+00  0.00000000000E+00  0.13872843798E+04  0.13872843798E+04  0.00000000000E+00 0.  1.
          1   -1    0    0  501    0  0.00000000000E+00 -0.00000000000E+00 -0.23363023668E+04  0.23363023668E+04  0.00000000000E+00 0. -1.
    9900016    2    1    2    0    0  0.20081678665E+03  0.29805156556E+03 -0.89182796396E+02  0.20445440476E+04  0.20107323725E+04 0.  0.
        -24    2    3    3    0    0  0.31872193888E+03  0.10570125942E+04  0.45354008815E+02  0.11088696366E+04  0.93142827180E+02 0.  0.
        -15    1    1    2    0    0 -0.26989573835E+02 -0.33048930972E+03 -0.84167831658E+03  0.90464026526E+03  0.00000000000E+00 0.  1.
        -15    1    3    3    0    0 -0.29494903740E+03 -0.27816391332E+03 -0.66288359081E+02  0.41080925487E+03  0.00000000000E+00 0.  1.
         15    1    4    4    0    0  0.26324547666E+03  0.81372350568E+03 -0.13422094658E-01  0.85524506714E+03  0.00000000000E+00 0. -1.
         15    1    1    2    0    0 -0.17477320668E+03  0.21103340227E+03 -0.32147692747E+03  0.42240760592E+03  0.00000000000E+00 0. -1.
        -16    1    4    4    0    0  0.55476462219E+02  0.24328908849E+03  0.45367430910E+02  0.25362456944E+03  0.00000000000E+00 0.  1.
         16    1    1    2    0    0  0.94599386131E+00 -0.17859565811E+03  0.30332005340E+03  0.35199482779E+03  0.00000000000E+00 0. -1.
    9900018    1    3    3    0    0  0.17704388517E+03 -0.48079711530E+03 -0.68248446130E+02  0.52486515616E+03  0.91187600000E+02 0.  0.
<mgrwt>
<rscale>  0 0.17168492E+04</rscale>
<asrwt>0</asrwt>
<pdfrwt beam="1">  1        1 0.35943113E+00 0.23869528E+04</pdfrwt>
<pdfrwt beam="2">  1       -1 0.21342837E+00 0.23869528E+04</pdfrwt>
<totfact> 0.18609016E-01</totfact>
</mgrwt>
</event>
<event>
10    1  0.8740160E-013  0.5499597E+04  0.7818608E-02  0.7755745E-01
         -2   -1    0    0    0  501 -0.00000000000E+00  0.00000000000E+00  0.28163118264E+04  0.28163118264E+04  0.00000000000E+00 0. -1.
          2   -1    0    0  501    0  0.00000000000E+00 -0.00000000000E+00 -0.26848558989E+04  0.26848558989E+04  0.00000000000E+00 0.  1.
    9900016    2    1    2    0    0  0.47828202812E+03  0.33215325494E+03 -0.49744593941E+03  0.21584702402E+04  0.20180341503E+04 0.  0.
        -15    1    3    3    0    0 -0.31205033143E+03  0.26241741267E+03 -0.35341543387E+03  0.53957462572E+03  0.00000000000E+00 0.  1.
        -15    1    1    2    0    0  0.65735304600E+03  0.36623742313E+03 -0.12093465386E+03  0.76214701186E+03  0.00000000000E+00 0.  1.
         15    1    1    2    0    0 -0.68266657953E+03  0.40293702872E+03  0.10847304883E+04  0.13435148455E+04  0.00000000000E+00 0. -1.
         15    1    3    3    0    0  0.53994733908E+03 -0.13261269394E+03  0.46769114272E+03  0.72654267635E+03  0.00000000000E+00 0. -1.
        -16    1    1    2    0    0 -0.45296849459E+03 -0.11013277068E+04 -0.33489396754E+03  0.12370356278E+04  0.00000000000E+00 0.  1.
         16    1    3    3    0    0 -0.16653209838E+03  0.14123234916E+03 -0.19521869878E+03  0.29289905529E+03  0.00000000000E+00 0. -1.
    9900018    1    3    3    0    0  0.41691711885E+03  0.61116187049E+02 -0.41650294949E+03  0.59945388283E+03  0.91187600000E+02 0.  0.
<mgrwt>
<rscale>  0 0.54995969E+04</rscale>
<asrwt>0</asrwt>
<pdfrwt beam="1">  1        2 0.41305475E+00 0.54995969E+04</pdfrwt>
<pdfrwt beam="2">  1       -2 0.43327874E+00 0.54995969E+04</pdfrwt>
<totfact> 0.85202715E-03</totfact>
</mgrwt>
</event>
<event>
10    1  0.8740160E-013  0.4175381E+04  0.7818608E-02  0.7970072E-01
         -1   -1    0    0    0  501 -0.00000000000E+00  0.00000000000E+00  0.18942015940E+04  0.18942015940E+04  0.00000000000E+00 0.  1.
          1   -1    0    0  501    0  0.00000000000E+00 -0.00000000000E+00 -0.23009438159E+04  0.23009438159E+04  0.00000000000E+00 0. -1.
    9900016    2    1    2    0    0 -0.63914759917E+03  0.41454572468E+03 -0.30574346472E+03  0.21880119223E+04  0.20281911385E+04 0.  0.
        -15    1    1    2    0    0 -0.11557374154E+03  0.37297266286E+03 -0.41999960000E+03  0.57346801216E+03  0.00000000000E+00 0.  1.
        -15    1    3    3    0    0 -0.19017205392E+03  0.82129374143E+02  0.13261623882E+02  0.20757291456E+03  0.00000000000E+00 0.  1.
         15    1    3    3    0    0  0.41772384263E+03 -0.11467219546E+03 -0.32943616781E+03  0.54421605064E+03  0.00000000000E+00 0. -1.
         15    1    1    2    0    0 -0.44011012558E+02 -0.35885256440E+02  0.33198720423E+03  0.33680888443E+03  0.00000000000E+00 0. -1.
        -16    1    1    2    0    0  0.79873235327E+03 -0.75163313110E+03 -0.12986361414E+02  0.10968565911E+04  0.00000000000E+00 0.  1.
         16    1    3    3    0    0 -0.98866217011E+03  0.60810355833E+02 -0.12749503180E+03  0.99870204221E+03  0.00000000000E+00 0. -1.
    9900018    1    3    3    0    0  0.12196278223E+03  0.38627819016E+03  0.13792611100E+03  0.43752091485E+03  0.91187600000E+02 0.  0.
<mgrwt>
<rscale>  0 0.41753809E+04</rscale>
<asrwt>0</asrwt>
<pdfrwt beam="1">  1        1 0.35399135E+00 0.41753809E+04</pdfrwt>
<pdfrwt beam="2">  1       -1 0.29141563E+00 0.41753809E+04</pdfrwt>
<totfact> 0.53826386E-02</totfact>
</mgrwt>
</event>
<event>
11    1  0.8740160E-013  0.6431146E+04  0.7818608E-02  0.7639128E-01
          2   -1    0    0  501    0  0.00000000000E+00  0.00000000000E+00  0.27265642178E+04  0.27265642178E+04  0.00000000000E+00 0. -1.
         -2   -1    0    0    0  501 -0.00000000000E+00 -0.00000000000E+00 -0.37922859490E+04  0.37922859490E+04  0.00000000000E+00 0.  1.
    9900016    2    1    2    0    0  0.86500230476E+03  0.10247746043E+04  0.24033417319E+03  0.23971216584E+04  0.19723183702E+04 0.  0.
        -24    2    3    3    0    0  0.37175729783E+03 -0.12862272307E+03 -0.14593340499E+02  0.39762526674E+03  0.56085593320E+02 0.  0.
        -15    1    1    2    0    0  0.66723289464E+03 -0.11148607002E+04  0.60400223435E+03  0.14328059240E+04  0.00000000000E+00 0.  1.
        -15    1    3    3    0    0  0.88137432892E+03  0.12395505200E+04  0.47029619977E+01  0.15209629572E+04  0.00000000000E+00 0.  1.
         15    1    4    4    0    0  0.13795913809E+03 -0.67596904207E+02  0.14199461916E+02  0.15428444497E+03  0.00000000000E+00 0. -1.
         15    1    1    2    0    0 -0.87427020362E+03 -0.44342928083E+03 -0.67086587683E+03  0.11878716011E+04  0.00000000000E+00 0. -1.
        -16    1    4    4    0    0  0.23379815974E+03 -0.61025818863E+02 -0.28792802415E+02  0.24334082176E+03  0.00000000000E+00 0.  1.
         16    1    1    2    0    0 -0.65796499578E+03  0.53351537675E+03 -0.12391922619E+04  0.15010509834E+04  0.00000000000E+00 0. -1.
    9900018    1    3    3    0    0 -0.38812932199E+03 -0.86153192632E+02  0.25022455169E+03  0.47853343442E+03  0.91187600000E+02 0.  0.
<mgrwt>
<rscale>  0 0.64311465E+04</rscale>
<asrwt>0</asrwt>
<pdfrwt beam="1">  1        2 0.41947142E+00 0.64311465E+04</pdfrwt>
<pdfrwt beam="2">  1       -2 0.58342860E+00 0.64311465E+04</pdfrwt>
<totfact> 0.10141442E-03</totfact>
</mgrwt>
</event>
<event>
10    1  0.8740161E-013  0.3614384E+04  0.7818608E-02  0.8087205E-01
          1   -1    0    0  501    0  0.00000000000E+00  0.00000000000E+00  0.32701215543E+04  0.32701215543E+04  0.00000000000E+00 0. -1.
         -1   -1    0    0    0  501 -0.00000000000E+00 -0.00000000000E+00 -0.99872243419E+03  0.99872243419E+03  0.00000000000E+00 0.  1.
    9900016    2    1    2    0    0 -0.15469391331E+03 -0.43963070517E+02  0.12548077838E+04  0.23930068365E+04  0.20312745227E+04 0.  0.
        -15    1    3    3    0    0  0.24946525176E+03  0.95941321189E+02  0.18400820606E+03  0.32449448200E+03  0.00000000000E+00 0.  1.
        -15    1    1    2    0    0 -0.86506192159E+02 -0.33165874360E+03 -0.13005321868E+03  0.36659880411E+03  0.00000000000E+00 0.  1.
         15    1    1    2    0    0  0.38738661872E+03 -0.41486676768E+02  0.94747691066E+03  0.10244520647E+04  0.00000000000E+00 0. -1.
         15    1    3    3    0    0 -0.63894911898E+03 -0.66704214442E+03  0.88044488792E+03  0.12760816587E+04  0.00000000000E+00 0. -1.
        -16    1    1    2    0    0 -0.14618651325E+03  0.41710849089E+03  0.19916764437E+03  0.48478628321E+03  0.00000000000E+00 0.  1.
         16    1    3    3    0    0  0.29346044700E+03  0.31247686488E+03  0.30490604737E+03  0.52604992421E+03  0.00000000000E+00 0. -1.
    9900018    1    3    3    0    0 -0.58670493094E+02  0.21466088784E+03 -0.11455135754E+03  0.26638077152E+03  0.91187600000E+02 0.  0.
<mgrwt>
<rscale>  0 0.36143845E+04</rscale>
<asrwt>0</asrwt>
<pdfrwt beam="1">  1        1 0.50309562E+00 0.36143845E+04</pdfrwt>
<pdfrwt beam="2">  1       -1 0.15364961E+00 0.36143845E+04</pdfrwt>
<totfact> 0.99280496E-02</totfact>
</mgrwt>
</event>
