<event>
11    1  0.4331023E-014  0.2509619E+04  0.7818608E-02  0.8587538E-01
         -1   -1    0    0    0  501 -0.00000000000E+00  0.00000000000E+00  0.12049193766E+04  0.12049193766E+04  0.00000000000E+00 0.  1.
          1   -1    0    0  501    0  0.00000000000E+00 -0.00000000000E+00 -0.30289306126E+04  0.30289306126E+04  0.00000000000E+00 0. -1.
    9900016    2    1    2    0    0 -0.62469091995E+02  0.47484176920E+03 -0.17917625646E+04  0.20196701234E+04  0.79954813881E+03 0.  0.
         23    2    3    3    0    0  0.14408454093E+03  0.14921704315E+03 -0.52988548983E+03  0.57443159053E+03  0.78529860310E+02 0.  0.
        -15    1    1    2    0    0 -0.86953489138E+03  0.24354448442E+03  0.38037241517E+02  0.90379847032E+03  0.00000000000E+00 0.  1.
        -15    1    4    4    0    0  0.64772439071E+02  0.18921071032E+02 -0.19768077751E+03  0.20888074490E+03  0.00000000000E+00 0. -1.
         15    1    4    4    0    0  0.79312101854E+02  0.13029597212E+03 -0.33220471232E+03  0.36555084563E+03  0.00000000000E+00 0.  1.
         15    1    1    2    0    0  0.17229735199E+03  0.92332267563E+02  0.15106125978E+02  0.19606075635E+03  0.00000000000E+00 0. -1.
        -16    1    3    3    0    0 -0.28160696435E+02 -0.15516185086E+03 -0.48433566130E+03  0.50936161771E+03  0.00000000000E+00 0.  1.
         16    1    1    2    0    0  0.75970663138E+03 -0.81071852118E+03 -0.85392038854E+02  0.11143206391E+04  0.00000000000E+00 0. -1.
    9900018    1    3    3    0    0 -0.17839293649E+03  0.48078657691E+03 -0.77754141348E+03  0.93587691520E+03  0.91187600000E+02 0.  0.
<mgrwt>
<rscale>  0 0.20413302E+04</rscale>
<asrwt>0</asrwt>
<pdfrwt beam="1">  1        1 0.46598932E+00 0.25096192E+04</pdfrwt>
<pdfrwt beam="2">  1       -1 0.18537221E+00 0.25096192E+04</pdfrwt>
<totfact> 0.93140630E-02</totfact>
</mgrwt>
</event>
<event>
10    1  0.4331023E-014  0.1216055E+04  0.7818608E-02  0.9214614E-01
         -2   -1    0    0    0  501 -0.00000000000E+00  0.00000000000E+00  0.87204523378E+03  0.87204523378E+03  0.00000000000E+00 0.  1.
          2   -1    0    0  501    0  0.00000000000E+00 -0.00000000000E+00 -0.11509718969E+04  0.11509718969E+04  0.00000000000E+00 0. -1.
    9900016    2    1    2    0    0  0.10074163855E+03 -0.35397609996E+03 -0.11673083802E+03  0.94457732012E+03  0.86206279821E+03 0.  0.
        -15    1    3    3    0    0 -0.40483534900E+02 -0.78068340104E+02 -0.71251963180E+02  0.11318314619E+03  0.00000000000E+00 0.  1.
        -15    1    1    2    0    0  0.88821317260E+02 -0.44012954044E+02  0.12046766427E+02  0.99857353784E+02  0.00000000000E+00 0.  1.
         15    1    1    2    0    0 -0.42744769384E+03  0.53451207704E+03 -0.82467837686E+02  0.68935885845E+03  0.00000000000E+00 0. -1.
         15    1    3    3    0    0 -0.43335517510E+02 -0.10218334606E+03  0.15518803426E+03  0.19079499277E+03  0.00000000000E+00 0. -1.
        -16    1    1    2    0    0  0.23788473803E+03 -0.13652302304E+03 -0.91774753879E+02  0.28922359838E+03  0.00000000000E+00 0.  1.
         16    1    3    3    0    0 -0.19276045423E+03 -0.47440269080E+02 -0.87889644078E+02  0.21709850617E+03  0.00000000000E+00 0. -1.
    9900018    1    3    3    0    0  0.37732114519E+03 -0.12628414472E+03 -0.11277726503E+03  0.42350067498E+03  0.91187600000E+02 0.  0.
<mgrwt>
<rscale>  0 0.10903853E+04</rscale>
<asrwt>0</asrwt>
<pdfrwt beam="1">  1        2 0.17707260E+00 0.12160551E+04</pdfrwt>
<pdfrwt beam="2">  1       -2 0.13416080E+00 0.12160551E+04</pdfrwt>
<totfact> 0.79120234E+00</totfact>
</mgrwt>
</event>
<event>
11    1  0.4331023E-014  0.1805904E+04  0.7818608E-02  0.9107874E-01
         -2   -1    0    0    0  501 -0.00000000000E+00  0.00000000000E+00  0.15419918549E+04  0.15419918549E+04  0.00000000000E+00 0. -1.
          2   -1    0    0  501    0  0.00000000000E+00 -0.00000000000E+00 -0.76135100478E+03  0.76135100478E+03  0.00000000000E+00 0.  1.
    9900016    2    1    2    0    0 -0.14289513474E+03 -0.36446799889E+03  0.51736392621E+03  0.90413738210E+03  0.62971662818E+03 0.  0.
         23    2    3    3    0    0  0.99357000897E+02  0.13870126659E+03  0.10568399412E+03  0.21034651056E+03  0.62981687089E+02 0.  0.
        -15    1    4    4    0    0  0.67893225774E+02  0.54615777928E+02  0.27711794770E+02  0.91434768409E+02  0.00000000000E+00 0.  1.
        -15    1    1    2    0    0  0.30593656076E+03  0.32526682076E+02  0.10905221165E+03  0.32641622068E+03  0.00000000000E+00 0. -1.
         15    1    4    4    0    0  0.31463775123E+02  0.84085488662E+02  0.77972199352E+02  0.11891174215E+03  0.00000000000E+00 0. -1.
         15    1    1    2    0    0 -0.57345371841E+01  0.39120605740E+02 -0.18511962563E+02  0.43657753814E+02  0.00000000000E+00 0.  1.
        -16    1    3    3    0    0 -0.24225213564E+03 -0.50316926548E+03  0.41167993209E+03  0.69379087154E+03  0.00000000000E+00 0.  1.
         16    1    1    2    0    0 -0.28651912820E+02  0.27266179579E+03 -0.37174881963E+03  0.46191186593E+03  0.00000000000E+00 0. -1.
    9900018    1    1    2    0    0 -0.12865497601E+03  0.20158915284E+02  0.54448549447E+03  0.56721963718E+03  0.91187600000E+02 0.  0.
<mgrwt>
<rscale>  0 0.12057089E+04</rscale>
<asrwt>0</asrwt>
<pdfrwt beam="1">  1        2 0.11713092E+00 0.18059041E+04</pdfrwt>
<pdfrwt beam="2">  1       -2 0.23722951E+00 0.18059041E+04</pdfrwt>
<totfact> 0.26475828E+00</totfact>
</mgrwt>
</event>
<event>
10    1  0.4331023E-014  0.3389596E+04  0.7818608E-02  0.8140465E-01
          1   -1    0    0  501    0  0.00000000000E+00  0.00000000000E+00  0.12609041428E+04  0.12609041428E+04  0.00000000000E+00 0. -1.
         -1   -1    0    0    0  501 -0.00000000000E+00 -0.00000000000E+00 -0.22780005533E+04  0.22780005533E+04  0.00000000000E+00 0.  1.
    9900016    2    1    2    0    0  0.96499121830E+02 -0.30749647855E+02  0.58947743101E+03  0.98565973273E+03  0.78344358169E+03 0.  0.
        -15    1    1    2    0    0 -0.20736145506E+03 -0.18377250813E+03 -0.79535294737E+03  0.84223358915E+03  0.00000000000E+00 0.  1.
        -15    1    3    3    0    0 -0.10403585460E+03  0.27314754742E+03  0.51504820156E+03  0.59220578487E+03  0.00000000000E+00 0.  1.
         15    1    3    3    0    0 -0.11985454199E+02 -0.59552631719E+01 -0.11369357265E+02  0.17560710590E+02  0.00000000000E+00 0. -1.
         15    1    1    2    0    0 -0.23027212547E+03 -0.21076408717E+03 -0.97327013513E+02  0.32698516751E+03  0.00000000000E+00 0. -1.
        -16    1    1    2    0    0  0.67173574718E+02  0.72560431148E+03 -0.27494412013E+03  0.77885054739E+03  0.00000000000E+00 0.  1.
         16    1    3    3    0    0  0.21252043063E+03 -0.29794193210E+03  0.85798586716E+02  0.37589323727E+03  0.00000000000E+00 0. -1.
    9900018    1    1    2    0    0  0.27396088399E+03 -0.30031806832E+03 -0.43894976045E+03  0.60517565938E+03  0.91187600000E+02 0.  0.
<mgrwt>
<rscale>  0 0.33895960E+04</rscale>
<asrwt>0</asrwt>
<pdfrwt beam="1">  1        1 0.19398525E+00 0.33895960E+04</pdfrwt>
<pdfrwt beam="2">  1       -1 0.35046162E+00 0.33895960E+04</pdfrwt>
<totfact> 0.12254102E-01</totfact>
</mgrwt>
</event>
<event>
 9    1  0.4331023E-014  0.2834992E+04  0.7818608E-02  0.8292486E-01
         -2   -1    0    0    0  501 -0.00000000000E+00  0.00000000000E+00  0.68395463264E+03  0.68395463264E+03  0.00000000000E+00 0. -1.
          2   -1    0    0  501    0  0.00000000000E+00 -0.00000000000E+00 -0.29377605352E+04  0.29377605352E+04  0.00000000000E+00 0.  1.
        -15    1    1    2    0    0 -0.36196757337E+02 -0.42418770976E+02 -0.29013011073E+02  0.62859463762E+02  0.00000000000E+00 0.  1.
        -15    1    1    2    0    0  0.15239907925E+03 -0.35881165631E+01 -0.59871693732E+03  0.61781900664E+03  0.00000000000E+00 0.  1.
         15    1    1    2    0    0 -0.82469972202E+03 -0.10211483465E+03 -0.15078236390E+03  0.84456639302E+03  0.00000000000E+00 0. -1.
         15    1    1    2    0    0  0.13320067973E+03  0.99703092731E+02  0.41140627261E+02  0.17139334583E+03  0.00000000000E+00 0. -1.
        -16    1    1    2    0    0 -0.19204130659E+03  0.20160558754E+03 -0.42817117971E+03  0.51073989026E+03  0.00000000000E+00 0.  1.
         16    1    1    2    0    0  0.13861842150E+03 -0.21990099286E+03 -0.38186384061E+03  0.46194318505E+03  0.00000000000E+00 0. -1.
    9900018    1    1    2    0    0  0.62871960546E+03  0.66714034780E+02 -0.70639919721E+03  0.95239388330E+03  0.91187600000E+02 0.  0.
<mgrwt>
<rscale>  0 0.28349920E+04</rscale>
<asrwt>0</asrwt>
<pdfrwt beam="1">  1        2 0.45196315E+00 0.28349920E+04</pdfrwt>
<pdfrwt beam="2">  1       -2 0.10522379E+00 0.28349920E+04</pdfrwt>
<totfact> 0.12076242E+00</totfact>
</mgrwt>
</event>
