<event>
10    1  0.1353650E-013  0.8572517E+03  0.7818608E-02  0.9480655E-01
         -2   -1    0    0    0  501 -0.00000000000E+00  0.00000000000E+00  0.19627958242E+03  0.19627958242E+03  0.00000000000E+00 0.  1.
          2   -1    0    0  501    0  0.00000000000E+00 -0.00000000000E+00 -0.93601246320E+03  0.93601246320E+03  0.00000000000E+00 0. -1.
    9900016    2    1    2    0    0 -0.51978917424E+02  0.59075130796E+02 -0.64465171768E+03  0.91616125696E+03  0.64620734498E+03 0.  0.
        -15    1    3    3    0    0  0.95468181771E+01  0.53279735509E+02 -0.27767728796E+02  0.60835176630E+02  0.00000000000E+00 0.  1.
        -15    1    3    3    0    0 -0.14417249564E+03 -0.84801986610E+02 -0.13749591202E+03  0.21652300399E+03  0.00000000000E+00 0.  1.
         15    1    3    3    0    0 -0.18397798738E+02 -0.81115678603E+02 -0.34621881323E+03  0.35606979506E+03  0.00000000000E+00 0. -1.
         15    1    3    3    0    0  0.13860512462E+03  0.15152183687E+03 -0.12115366890E+03  0.23842914903E+03  0.00000000000E+00 0. -1.
        -16    1    1    2    0    0 -0.29366562138E+02  0.25036098691E+02 -0.45625250712E+02  0.59756712694E+02  0.00000000000E+00 0.  1.
         16    1    3    3    0    0 -0.37560565843E+02  0.20191223629E+02 -0.12015594724E+02  0.44304132253E+02  0.00000000000E+00 0. -1.
    9900018    1    1    2    0    0  0.81345479562E+02 -0.84111229486E+02 -0.49455912380E+02  0.15637407597E+03  0.91187600000E+02 0.  0.
<mgrwt>
<rscale>  0 0.85725174E+03</rscale>
<asrwt>0</asrwt>
<pdfrwt beam="1">  1        2 0.14400192E+00 0.85725174E+03</pdfrwt>
<pdfrwt beam="2">  1       -2 0.30196858E-01 0.85725174E+03</pdfrwt>
<totfact> 0.28169181E+02</totfact>
</mgrwt>
</event>
<event>
10    1  0.1353650E-013  0.1659222E+04  0.7818608E-02  0.8784969E-01
         -2   -1    0    0    0  501 -0.00000000000E+00  0.00000000000E+00  0.71388815160E+03  0.71388815160E+03  0.00000000000E+00 0.  1.
          2   -1    0    0  501    0  0.00000000000E+00 -0.00000000000E+00 -0.96409332054E+03  0.96409332054E+03  0.00000000000E+00 0. -1.
    9900016    2    1    2    0    0  0.12475323914E+03  0.79181325418E+02 -0.50642408633E+03  0.98789284236E+03  0.83524479034E+03 0.  0.
        -15    1    3    3    0    0  0.10444251258E+02  0.28524444414E+02 -0.14153259244E+03  0.14475565977E+03  0.00000000000E+00 0. -1.
        -15    1    3    3    0    0 -0.87244461996E+01  0.17201934571E+02  0.25424856456E+01  0.19454735869E+02  0.00000000000E+00 0. -1.
         15    1    3    3    0    0 -0.26609466662E+03  0.15614932200E+03 -0.18926208919E+03  0.36195182106E+03  0.00000000000E+00 0.  1.
         15    1    3    3    0    0  0.17784553611E+02  0.20867371990E+02 -0.65644844596E+01  0.28192729863E+02  0.00000000000E+00 0.  1.
        -16    1    3    3    0    0  0.37134354709E+03 -0.14356174755E+03 -0.17160740589E+03  0.43353789579E+03  0.00000000000E+00 0.  1.
         16    1    1    2    0    0 -0.23558528704E+03 -0.21455146062E+03  0.34855936112E+03  0.47225669391E+03  0.00000000000E+00 0. -1.
    9900018    1    1    2    0    0  0.11083204790E+03  0.13537013520E+03 -0.92340443725E+02  0.21783193588E+03  0.91187600000E+02 0.  0.
<mgrwt>
<rscale>  0 0.16592225E+04</rscale>
<asrwt>0</asrwt>
<pdfrwt beam="1">  1        2 0.14832205E+00 0.16592225E+04</pdfrwt>
<pdfrwt beam="2">  1       -2 0.10982895E+00 0.16592225E+04</pdfrwt>
<totfact> 0.16733569E+01</totfact>
</mgrwt>
</event>
<event>
10    1  0.1353650E-013  0.8577136E+03  0.7818608E-02  0.9480042E-01
         -1   -1    0    0    0  501 -0.00000000000E+00  0.00000000000E+00  0.28219943928E+03  0.28219943928E+03  0.00000000000E+00 0. -1.
          1   -1    0    0  501    0  0.00000000000E+00 -0.00000000000E+00 -0.65173115171E+03  0.65173115171E+03  0.00000000000E+00 0.  1.
    9900016    2    1    2    0    0  0.12666394055E+03 -0.84343201268E+01 -0.48607777695E+02  0.58881167891E+03  0.57290626247E+03 0.  0.
        -15    1    3    3    0    0  0.21783498726E+01 -0.13584751310E+02  0.37751028776E+02  0.40179980711E+02  0.00000000000E+00 0.  1.
        -15    1    3    3    0    0 -0.24025140542E+02  0.91421329472E+01 -0.53268289182E+01  0.26251877632E+02  0.00000000000E+00 0. -1.
         15    1    3    3    0    0  0.57652510588E+02 -0.17997163978E+02  0.11580766020E+03  0.13061058169E+03  0.00000000000E+00 0.  1.
         15    1    3    3    0    0  0.78583084410E+01  0.29954247061E+02  0.24814376703E+02  0.39683286403E+02  0.00000000000E+00 0. -1.
        -16    1    3    3    0    0 -0.23964972061E+02  0.10989081321E+02 -0.20649239607E+03  0.20816865622E+03  0.00000000000E+00 0.  1.
         16    1    1    2    0    0 -0.12666394055E+03  0.84343201268E+01 -0.32092393473E+03  0.34511891208E+03  0.00000000000E+00 0. -1.
    9900018    1    3    3    0    0  0.10696488425E+03 -0.26937866169E+02 -0.15161618383E+02  0.14391729626E+03  0.91187600000E+02 0.  0.
<mgrwt>
<rscale>  0 0.85771362E+03</rscale>
<asrwt>0</asrwt>
<pdfrwt beam="1">  1        1 0.10026633E+00 0.85771362E+03</pdfrwt>
<pdfrwt beam="2">  1       -1 0.43415299E-01 0.85771362E+03</pdfrwt>
<totfact> 0.16025087E+02</totfact>
</mgrwt>
</event>
