<event>
10    1  0.2457966E-014  0.1877842E+04  0.7818608E-02  0.9074232E-01
          2   -1    0    0  501    0  0.00000000000E+00  0.00000000000E+00  0.22362871263E+04  0.22362871263E+04  0.00000000000E+00 0.  1.
         -2   -1    0    0    0  501 -0.00000000000E+00 -0.00000000000E+00 -0.71060399184E+03  0.71060399184E+03  0.00000000000E+00 0. -1.
        -24    2    1    2    0    0  0.24235111883E+03 -0.26338132159E+03  0.89525716458E+03  0.96605063431E+03  0.60536368791E+02 0.  0.
        -15    1    1    2    0    0 -0.60297633926E+03  0.59548529738E+02  0.58946780165E+02  0.60877024894E+03  0.00000000000E+00 0.  1.
        -15    1    1    2    0    0  0.26707680806E+03  0.24784985517E+03  0.12417753233E+03  0.38494107555E+03  0.00000000000E+00 0.  1.
         15    1    1    2    0    0  0.92125071333E+01  0.13051424907E+03  0.46149285308E+02  0.13873930962E+03  0.00000000000E+00 0. -1.
         15    1    3    3    0    0  0.17942654742E+03 -0.15267645751E+03  0.57217393319E+03  0.61877863281E+03  0.00000000000E+00 0. -1.
        -16    1    3    3    0    0  0.62924571417E+02 -0.11070486409E+03  0.32308323139E+03  0.34727200150E+03  0.00000000000E+00 0.  1.
         16    1    1    2    0    0 -0.13569598333E+03 -0.16544059034E+03 -0.14093456290E+03  0.25621580717E+03  0.00000000000E+00 0. -1.
    9900018    1    1    2    0    0  0.22003188856E+03 -0.90907220428E+01  0.54208693494E+03  0.59217404252E+03  0.91187600000E+02 0.  0.
<mgrwt>
<rscale>  0 0.12451476E+04</rscale>
<asrwt>0</asrwt>
<pdfrwt beam="1">  1        2 0.34404417E+00 0.18778424E+04</pdfrwt>
<pdfrwt beam="2">  1       -2 0.10932369E+00 0.18778424E+04</pdfrwt>
<totfact> 0.30360342E+00</totfact>
</mgrwt>
</event>
<event>
10    1  0.2457966E-014  0.2701192E+04  0.7818608E-02  0.8789395E-01
          2   -1    0    0  501    0  0.00000000000E+00  0.00000000000E+00  0.12664144005E+04  0.12664144005E+04  0.00000000000E+00 0. -1.
         -2   -1    0    0    0  501 -0.00000000000E+00 -0.00000000000E+00 -0.18754769094E+04  0.18754769094E+04  0.00000000000E+00 0.  1.
         23    2    1    2    0    0  0.92253802019E+02  0.36042894087E+03 -0.26278044184E+02  0.37854648475E+03  0.64707960180E+02 0.  0.
        -15    1    1    2    0    0  0.75243345144E+03  0.66008542146E+03  0.78717988456E+01  0.10009649483E+04  0.00000000000E+00 0.  1.
        -15    1    3    3    0    0  0.27605653313E+02  0.76208947013E+02  0.19823190516E+02  0.83443601204E+02  0.00000000000E+00 0. -1.
         15    1    1    2    0    0 -0.11546344432E+03 -0.53482242964E+02 -0.53289934523E+02  0.13795642214E+03  0.00000000000E+00 0. -1.
         15    1    3    3    0    0  0.64648148706E+02  0.28421999386E+03 -0.46101234700E+02  0.29510288355E+03  0.00000000000E+00 0.  1.
        -16    1    1    2    0    0 -0.43306461153E+03 -0.37195194006E+03 -0.44974289048E+03  0.72674746027E+03  0.00000000000E+00 0.  1.
         16    1    1    2    0    0 -0.13107825834E+03 -0.67511312052E+03 -0.51513474506E+02  0.68964691935E+03  0.00000000000E+00 0. -1.
    9900018    1    1    2    0    0 -0.16508093927E+03  0.80032941217E+02 -0.36109964005E+02  0.20802907509E+03  0.91187600000E+02 0.  0.
<mgrwt>
<rscale>  0 0.16517113E+04</rscale>
<asrwt>0</asrwt>
<pdfrwt beam="1">  1        2 0.19483298E+00 0.27011918E+04</pdfrwt>
<pdfrwt beam="2">  1       -2 0.28853491E+00 0.27011918E+04</pdfrwt>
<totfact> 0.55966973E-01</totfact>
</mgrwt>
</event>
<event>
12    1  0.2457966E-014  0.5723315E+04  0.7818608E-02  0.8417743E-01
         -2   -1    0    0    0  501 -0.00000000000E+00  0.00000000000E+00  0.21248356350E+04  0.21248356350E+04  0.00000000000E+00 0.  1.
          2   -1    0    0  501    0  0.00000000000E+00 -0.00000000000E+00 -0.42503192587E+04  0.42503192587E+04  0.00000000000E+00 0. -1.
    9900016    2    1    2    0    0 -0.11078612916E+04 -0.14193963349E+04  0.39245540251E+03  0.28119251415E+04  0.21238783303E+04 0.  0.
        -24    2    3    3    0    0 -0.10779431628E+04  0.23869883891E+03  0.13801473870E+01  0.11080722855E+04  0.94253313550E+02 0.  0.
         23    2    1    2    0    0 -0.53614419938E+02 -0.17111633220E+03  0.11787742507E+03  0.22787912213E+03  0.76671388341E+02 0.  0.
        -15    1    3    3    0    0 -0.29918128739E+02 -0.16580951738E+04  0.39107525513E+03  0.17038528560E+04  0.00000000000E+00 0.  1.
        -15    1    5    5    0    0  0.44684115278E+01 -0.15985758296E+02 -0.93136961114E+01  0.19033026694E+02  0.00000000000E+00 0.  1.
         15    1    5    5    0    0 -0.58082831466E+02 -0.15513057390E+03  0.12719112118E+03  0.20884609544E+03  0.00000000000E+00 0. -1.
         15    1    4    4    0    0 -0.23468354117E+03  0.81811167645E+02  0.26730347516E+02  0.24996788419E+03  0.00000000000E+00 0. -1.
        -16    1    4    4    0    0 -0.84325962165E+03  0.15688767127E+03 -0.25350200129E+02  0.85810440131E+03  0.00000000000E+00 0.  1.
         16    1    1    2    0    0  0.31939323947E+03  0.87262111873E+03 -0.10945124784E+04  0.14357706027E+04  0.00000000000E+00 0. -1.
    9900018    1    1    2    0    0  0.84208247203E+03  0.71789154836E+03 -0.15413039729E+04  0.18995800273E+04  0.91187600000E+02 0.  0.
<mgrwt>
<rscale>  0 0.24589910E+04</rscale>
<asrwt>0</asrwt>
<pdfrwt beam="1">  1        2 0.65389527E+00 0.57233147E+04</pdfrwt>
<pdfrwt beam="2">  1       -2 0.32689779E+00 0.57233147E+04</pdfrwt>
<totfact> 0.30779679E-03</totfact>
</mgrwt>
</event>
