<event>
11    1  0.9241199E-015  0.8773178E+03  0.7818608E-02  0.9454388E-01
         -2   -1    0    0    0  501 -0.00000000000E+00  0.00000000000E+00  0.32725183068E+03  0.32725183068E+03  0.00000000000E+00 0.  1.
          2   -1    0    0  501    0  0.00000000000E+00 -0.00000000000E+00 -0.58799253190E+03  0.58799253190E+03  0.00000000000E+00 0. -1.
    9900016    2    1    2    0    0  0.42461190574E+02 -0.14065133834E+03 -0.13894276856E+03  0.72440283649E+03  0.69560665961E+03 0.  0.
         24    2    3    3    0    0  0.23397941882E+02  0.12815376380E+03 -0.25658486321E+03  0.29860945168E+03  0.79755637699E+02 0.  0.
        -15    1    4    4    0    0 -0.84694478969E+00  0.41545874086E+02 -0.33649535914E+02  0.53470255622E+02  0.00000000000E+00 0.  1.
        -15    1    4    4    0    0  0.13520300521E+02  0.14944887835E+02 -0.17939777561E+02  0.26981175243E+02  0.00000000000E+00 0. -1.
         15    1    4    4    0    0 -0.39385685746E+01  0.31109103038E+02 -0.79547006122E+02  0.85504472381E+02  0.00000000000E+00 0.  1.
         15    1    3    3    0    0 -0.15185922662E+02 -0.74024553370E+02  0.18335509347E+03  0.19831625514E+03  0.00000000000E+00 0. -1.
        -16    1    1    2    0    0 -0.42461190574E+02  0.14065133834E+03 -0.12179793266E+03  0.19084152610E+03  0.00000000000E+00 0.  1.
         16    1    4    4    0    0  0.14663154726E+02  0.40553898839E+02 -0.12544854361E+03  0.13265354843E+03  0.00000000000E+00 0. -1.
    9900018    1    3    3    0    0  0.34249171353E+02 -0.19478054876E+03 -0.65712998824E+02  0.22747712967E+03  0.91187600000E+02 0.  0.
<mgrwt>
<rscale>  0 0.87731780E+03</rscale>
<asrwt>0</asrwt>
<pdfrwt beam="1">  1        2 0.90460389E-01 0.87731780E+03</pdfrwt>
<pdfrwt beam="2">  1       -2 0.50346436E-01 0.87731780E+03</pdfrwt>
<totfact> 0.19045200E+02</totfact>
</mgrwt>
</event>
<event>
11    1  0.9241199E-015  0.1039598E+04  0.7818608E-02  0.9266149E-01
         -2   -1    0    0    0  501 -0.00000000000E+00  0.00000000000E+00  0.25735559400E+03  0.25735559400E+03  0.00000000000E+00 0. -1.
          2   -1    0    0  501    0  0.00000000000E+00 -0.00000000000E+00 -0.10498747748E+04  0.10498747748E+04  0.00000000000E+00 0.  1.
    9900016    2    1    2    0    0  0.48486997406E+02 -0.96145486520E+00 -0.24184322494E+03  0.75442305907E+03  0.71296149497E+03 0.  0.
         24    2    3    3    0    0 -0.23457207124E+02  0.76256840613E+02 -0.36874425018E+03  0.38560626097E+03  0.79715244158E+02 0.  0.
        -15    1    4    4    0    0  0.78622626882E+01  0.14419624623E+02 -0.94703008501E+02  0.96116598816E+02  0.00000000000E+00 0. -1.
        -15    1    4    4    0    0  0.68769787299E+01  0.17592697379E+02 -0.70242794820E+02  0.72738202216E+02  0.00000000000E+00 0.  1.
         15    1    4    4    0    0 -0.15838160598E+02 -0.56169985875E+01 -0.74650546201E+02  0.76518638595E+02  0.00000000000E+00 0.  1.
         15    1    3    3    0    0  0.13170966296E+03 -0.14940792379E+03  0.20481604108E+02  0.20022402232E+03  0.00000000000E+00 0. -1.
        -16    1    1    2    0    0 -0.48486997406E+02  0.96145486520E+00 -0.55067595591E+03  0.55280730977E+03  0.00000000000E+00 0.  1.
         16    1    4    4    0    0 -0.22358287944E+02  0.49861517199E+02 -0.12914790066E+03  0.14023282135E+03  0.00000000000E+00 0. -1.
    9900018    1    3    3    0    0 -0.59765458429E+02  0.72189628307E+02  0.10641942114E+03  0.16859277578E+03  0.91187600000E+02 0.  0.
<mgrwt>
<rscale>  0 0.10395983E+04</rscale>
<asrwt>0</asrwt>
<pdfrwt beam="1">  1        2 0.16151920E+00 0.10395983E+04</pdfrwt>
<pdfrwt beam="2">  1       -2 0.39593168E-01 0.10395983E+04</pdfrwt>
<totfact> 0.14062026E+02</totfact>
</mgrwt>
</event>
<event>
11    1  0.9241199E-015  0.1134025E+04  0.7818608E-02  0.9172649E-01
          2   -1    0    0  501    0  0.00000000000E+00  0.00000000000E+00  0.13579557469E+04  0.13579557469E+04  0.00000000000E+00 0.  1.
         -2   -1    0    0    0  501 -0.00000000000E+00 -0.00000000000E+00 -0.23675526653E+03  0.23675526653E+03  0.00000000000E+00 0. -1.
    9900016    2    1    2    0    0 -0.26473660970E+03  0.20972308788E+03  0.75516649987E+03  0.10966647094E+04  0.71994985672E+03 0.  0.
         24    2    3    3    0    0 -0.15081788732E+03 -0.22993309736E+03  0.13719461827E+03  0.31738469751E+03  0.79343673586E+02 0.  0.
        -15    1    4    4    0    0 -0.56001541508E+01 -0.10572649983E+02 -0.27479922608E+01  0.12275753159E+02  0.00000000000E+00 0.  1.
        -15    1    4    4    0    0 -0.11319297024E+02 -0.66775603964E+02  0.31738397195E+02  0.74795946590E+02  0.00000000000E+00 0.  1.
         15    1    4    4    0    0 -0.13821067548E+02 -0.16170025571E+02  0.15342473896E+02  0.26227526387E+02  0.00000000000E+00 0. -1.
         15    1    3    3    0    0 -0.46350285579E+02  0.56087713213E+02  0.71119983509E+02  0.10174592179E+03  0.00000000000E+00 0. -1.
        -16    1    1    2    0    0  0.26473660970E+03 -0.20972308788E+03  0.36603398054E+03  0.49804630408E+03  0.00000000000E+00 0.  1.
         16    1    4    4    0    0 -0.12007736860E+03 -0.13641481784E+03  0.92861739434E+02  0.20408547138E+03  0.00000000000E+00 0. -1.
    9900018    1    3    3    0    0 -0.67568436797E+02  0.38356847202E+03  0.54685189810E+03  0.67753409009E+03  0.91187600000E+02 0.  0.
<mgrwt>
<rscale>  0 0.11340250E+04</rscale>
<asrwt>0</asrwt>
<pdfrwt beam="1">  1        2 0.20891626E+00 0.11340250E+04</pdfrwt>
<pdfrwt beam="2">  1       -2 0.36423888E-01 0.11340250E+04</pdfrwt>
<totfact> 0.10747331E+02</totfact>
</mgrwt>
</event>
<event>
11    1  0.9241199E-015  0.8962734E+03  0.7818608E-02  0.9430252E-01
         -1   -1    0    0    0  501 -0.00000000000E+00  0.00000000000E+00  0.48004693057E+03  0.48004693057E+03  0.00000000000E+00 0.  1.
          1   -1    0    0  501    0  0.00000000000E+00 -0.00000000000E+00 -0.41834768836E+03  0.41834768836E+03  0.00000000000E+00 0. -1.
    9900016    2    1    2    0    0 -0.31868901758E+02  0.69563460137E+01  0.20649432065E+03  0.74997079204E+03  0.72024458818E+03 0.  0.
        -24    2    3    3    0    0  0.11924951171E+03 -0.76648419096E+02  0.33844164623E+03  0.37528248717E+03  0.78732274691E+02 0.  0.
        -15    1    3    3    0    0 -0.59071959041E+01 -0.56682430698E+02 -0.14190412807E+03  0.15292015720E+03  0.00000000000E+00 0.  1.
        -15    1    4    4    0    0  0.19593121159E+02 -0.73760817075E+01  0.34942264883E+02  0.40734001194E+02  0.00000000000E+00 0.  1.
         15    1    4    4    0    0  0.20288005311E+02 -0.29221904352E+02  0.11484294453E+03  0.12022655598E+03  0.00000000000E+00 0. -1.
         15    1    4    4    0    0  0.18695911361E+01 -0.14520299955E+02  0.61641612521E+02  0.63356316780E+02  0.00000000000E+00 0. -1.
        -16    1    4    4    0    0  0.77498794104E+02 -0.25530133082E+02  0.12701482429E+03  0.15096561321E+03  0.00000000000E+00 0.  1.
         16    1    1    2    0    0  0.31868901758E+02 -0.69563460137E+01 -0.14479507844E+03  0.14842382689E+03  0.00000000000E+00 0. -1.
    9900018    1    3    3    0    0 -0.14521121756E+03  0.14028719581E+03  0.99568024958E+01  0.22176814768E+03  0.91187600000E+02 0.  0.
<mgrwt>
<rscale>  0 0.89627345E+03</rscale>
<asrwt>0</asrwt>
<pdfrwt beam="1">  1        1 0.64361183E-01 0.89627345E+03</pdfrwt>
<pdfrwt beam="2">  1       -1 0.73853374E-01 0.89627345E+03</pdfrwt>
<totfact> 0.10522453E+02</totfact>
</mgrwt>
</event>
<event>
11    1  0.9241199E-015  0.1053597E+04  0.7818608E-02  0.9251638E-01
         -2   -1    0    0    0  501 -0.00000000000E+00  0.00000000000E+00  0.50103978426E+03  0.50103978426E+03  0.00000000000E+00 0.  1.
          2   -1    0    0  501    0  0.00000000000E+00 -0.00000000000E+00 -0.55388140146E+03  0.55388140146E+03  0.00000000000E+00 0. -1.
    9900016    2    1    2    0    0 -0.55758828603E+02 -0.98605889468E+02  0.24149521654E+03  0.73953833885E+03  0.68975709247E+03 0.  0.
        -24    2    3    3    0    0  0.42041687019E+02 -0.21892011005E+03  0.16053519668E+03  0.28581131121E+03  0.78886235876E+02 0.  0.
        -15    1    4    4    0    0 -0.11425942437E+01 -0.27275639896E+02 -0.92507552873E+00  0.27315230515E+02  0.00000000000E+00 0.  1.
        -15    1    3    3    0    0  0.31195145504E+02  0.11745602995E+03 -0.13789195439E+03  0.18380219575E+03  0.00000000000E+00 0.  1.
         15    1    4    4    0    0 -0.47880519522E+01 -0.60859803350E+02  0.36681356672E+02  0.71220523956E+02  0.00000000000E+00 0. -1.
         15    1    4    4    0    0  0.80282662007E+01 -0.32087163331E+02  0.32644249371E+02  0.46472423283E+02  0.00000000000E+00 0. -1.
        -16    1    4    4    0    0  0.39944067015E+02 -0.98697503476E+02  0.92134666169E+02  0.14080313346E+03  0.00000000000E+00 0.  1.
         16    1    1    2    0    0  0.55758828603E+02  0.98605889468E+02 -0.29433683374E+03  0.31538284687E+03  0.00000000000E+00 0. -1.
    9900018    1    3    3    0    0 -0.12899566113E+03  0.28581906320E+01  0.21885197425E+03  0.26992483189E+03  0.91187600000E+02 0.  0.
<mgrwt>
<rscale>  0 0.10535969E+04</rscale>
<asrwt>0</asrwt>
<pdfrwt beam="1">  1        2 0.85212523E-01 0.10535969E+04</pdfrwt>
<pdfrwt beam="2">  1       -2 0.77083044E-01 0.10535969E+04</pdfrwt>
<totfact> 0.81707482E+01</totfact>
</mgrwt>
</event>
<event>
11    1  0.9241199E-015  0.8616146E+03  0.7818608E-02  0.9474879E-01
         -1   -1    0    0    0  501 -0.00000000000E+00  0.00000000000E+00  0.97913859228E+03  0.97913859228E+03  0.00000000000E+00 0.  1.
          1   -1    0    0  501    0  0.00000000000E+00 -0.00000000000E+00 -0.18954919745E+03  0.18954919745E+03  0.00000000000E+00 0. -1.
    9900016    2    1    2    0    0 -0.13410928909E+03  0.30184153898E+02  0.67432097059E+03  0.98929103894E+03  0.71069796946E+03 0.  0.
         24    2    3    3    0    0  0.87578119583E+02 -0.85168094128E+02  0.56380678301E+03  0.58250701288E+03  0.80701921894E+02 0.  0.
        -15    1    4    4    0    0  0.17761811974E+02  0.64746467029E+00  0.23511103675E+02  0.29473261969E+02  0.00000000000E+00 0. -1.
        -15    1    4    4    0    0 -0.30330402226E+01 -0.13733230704E+02  0.43197608325E+02  0.45429443355E+02  0.00000000000E+00 0.  1.
         15    1    4    4    0    0  0.80578593656E+01 -0.11383690077E+02  0.70141435258E+02  0.71514602966E+02  0.00000000000E+00 0.  1.
         15    1    3    3    0    0 -0.23500806250E+03  0.15031363025E+03  0.12757420852E+03  0.30675422663E+03  0.00000000000E+00 0. -1.
        -16    1    1    2    0    0  0.13410928909E+03 -0.30184153898E+02  0.11526842424E+03  0.17939675079E+03  0.00000000000E+00 0.  1.
         16    1    4    4    0    0  0.64791488466E+02 -0.60698638017E+02  0.42695663576E+03  0.43608970459E+03  0.00000000000E+00 0. -1.
    9900018    1    3    3    0    0  0.13320653818E+02 -0.34961382224E+02 -0.17060020948E+02  0.10002979943E+03  0.91187600000E+02 0.  0.
<mgrwt>
<rscale>  0 0.86161461E+03</rscale>
<asrwt>0</asrwt>
<pdfrwt beam="1">  1        1 0.29161416E-01 0.86161461E+03</pdfrwt>
<pdfrwt beam="2">  1       -1 0.15063670E+00 0.86161461E+03</pdfrwt>
<totfact> 0.55656780E+01</totfact>
</mgrwt>
</event>
<event>
11    1  0.9241199E-015  0.1221018E+04  0.7818608E-02  0.9094656E-01
          2   -1    0    0  501    0  0.00000000000E+00  0.00000000000E+00  0.86816635461E+03  0.86816635461E+03  0.00000000000E+00 0.  1.
         -2   -1    0    0    0  501 -0.00000000000E+00 -0.00000000000E+00 -0.42931988168E+03  0.42931988168E+03  0.00000000000E+00 0. -1.
    9900016    2    1    2    0    0 -0.14274627545E+03 -0.18538167754E+03 -0.50406570178E+02  0.75516584600E+03  0.71623443587E+03 0.  0.
         24    2    3    3    0    0  0.28496246650E+02  0.18316904865E+03  0.16195113785E+03  0.25863966576E+03  0.79393760445E+02 0.  0.
        -15    1    4    4    0    0 -0.52331936659E+00  0.19556626379E+02  0.26073660535E-01  0.19563644300E+02  0.00000000000E+00 0. -1.
        -15    1    4    4    0    0  0.17781256835E+02  0.17827557645E+02  0.24693284103E+02  0.35266885119E+02  0.00000000000E+00 0.  1.
         15    1    4    4    0    0  0.17410352001E+02  0.98668651589E+02  0.73259482198E+02  0.12411919632E+03  0.00000000000E+00 0.  1.
         15    1    3    3    0    0 -0.12588699454E+03 -0.17404064890E+03 -0.16760908993E+03  0.27245272965E+03  0.00000000000E+00 0. -1.
        -16    1    1    2    0    0  0.14274627545E+03  0.18538167754E+03  0.48925304311E+03  0.54232039029E+03  0.00000000000E+00 0.  1.
         16    1    4    4    0    0 -0.61720428189E+01  0.47116213035E+02  0.63972297887E+02  0.79689940019E+02  0.00000000000E+00 0. -1.
    9900018    1    3    3    0    0 -0.45355527551E+02 -0.19451007729E+03 -0.44748618097E+02  0.22407345060E+03  0.91187600000E+02 0.  0.
<mgrwt>
<rscale>  0 0.12210177E+04</rscale>
<asrwt>0</asrwt>
<pdfrwt beam="1">  1        2 0.13356405E+00 0.12210177E+04</pdfrwt>
<pdfrwt beam="2">  1       -2 0.66049213E-01 0.12210177E+04</pdfrwt>
<totfact> 0.64093326E+01</totfact>
</mgrwt>
</event>
<event>
11    1  0.9241199E-015  0.1017518E+04  0.7818608E-02  0.9289537E-01
         -1   -1    0    0    0  501 -0.00000000000E+00  0.00000000000E+00  0.10681345004E+04  0.10681345004E+04  0.00000000000E+00 0.  1.
          1   -1    0    0  501    0  0.00000000000E+00 -0.00000000000E+00 -0.24232524074E+03  0.24232524074E+03  0.00000000000E+00 0. -1.
    9900016    2    1    2    0    0 -0.21220829727E+02  0.16564282725E+03  0.87233987151E+03  0.11371018233E+04  0.71002523567E+03 0.  0.
        -24    2    3    3    0    0 -0.94554149974E+02  0.28553220875E+03  0.19328144845E+03  0.36569956228E+03  0.76872114759E+02 0.  0.
        -15    1    3    3    0    0  0.17732267122E+03 -0.73850435523E+02  0.23211356783E+03  0.30128711377E+03  0.00000000000E+00 0.  1.
        -15    1    4    4    0    0  0.98740088360E+01  0.29420130136E+02  0.18744564213E+02  0.36254638258E+02  0.00000000000E+00 0.  1.
         15    1    4    4    0    0 -0.80138275858E+01  0.52228526286E+02  0.26014208820E+02  0.58896344972E+02  0.00000000000E+00 0. -1.
         15    1    4    4    0    0 -0.73970940739E+01  0.10025328129E+02  0.49091634379E+01  0.13391194513E+02  0.00000000000E+00 0. -1.
        -16    1    4    4    0    0 -0.89017237150E+02  0.19385822420E+03  0.14361351198E+03  0.25715738454E+03  0.00000000000E+00 0.  1.
         16    1    1    2    0    0  0.21220829727E+02 -0.16564282725E+03 -0.46530611852E+02  0.17335791783E+03  0.00000000000E+00 0. -1.
    9900018    1    3    3    0    0 -0.10398935097E+03 -0.46038945970E+02  0.44694485523E+03  0.47011514724E+03  0.91187600000E+02 0.  0.
<mgrwt>
<rscale>  0 0.10175185E+04</rscale>
<asrwt>0</asrwt>
<pdfrwt beam="1">  1        1 0.37280807E-01 0.10175185E+04</pdfrwt>
<pdfrwt beam="2">  1       -1 0.16432838E+00 0.10175185E+04</pdfrwt>
<totfact> 0.31463381E+01</totfact>
</mgrwt>
</event>
<event>
11    1  0.9241199E-015  0.8083413E+03  0.7818608E-02  0.9548021E-01
          5   -1    0    0  501    0  0.00000000000E+00  0.00000000000E+00  0.30684220578E+03  0.30684220578E+03  0.00000000000E+00 0. -1.
         -5   -1    0    0    0  501 -0.00000000000E+00 -0.00000000000E+00 -0.53237106537E+03  0.53237106537E+03  0.00000000000E+00 0.  1.
    9900016    2    1    2    0    0  0.10901744131E+02 -0.20468792692E+02 -0.29763489706E+03  0.76346962364E+03  0.70268165963E+03 0.  0.
        -24    2    3    3    0    0  0.14579149312E+03  0.12875384090E+03  0.10507583075E+03  0.23477019233E+03  0.79015200974E+02 0.  0.
        -15    1    3    3    0    0 -0.81810923156E+02 -0.19716461525E+03 -0.18682293506E+03  0.28367185570E+03  0.00000000000E+00 0.  1.
        -15    1    4    4    0    0  0.45340592926E+02  0.21004662856E+02  0.22038166979E-01  0.49969647930E+02  0.00000000000E+00 0. -1.
         15    1    4    4    0    0  0.48159860147E+02  0.49276113355E+02  0.37847275248E+02  0.78612490868E+02  0.00000000000E+00 0.  1.
         15    1    4    4    0    0  0.17517562179E+02  0.84849997523E+01  0.26743434577E+02  0.33076751631E+02  0.00000000000E+00 0. -1.
        -16    1    4    4    0    0  0.34773477871E+02  0.49988064936E+02  0.40463082753E+02  0.73111301898E+02  0.00000000000E+00 0.  1.
         16    1    1    2    0    0 -0.10901744131E+02  0.20468792692E+02  0.72106037461E+02  0.75743647507E+02  0.00000000000E+00 0. -1.
    9900018    1    3    3    0    0 -0.53078825836E+02  0.47941981662E+02 -0.21588779275E+03  0.24502757561E+03  0.91187600000E+02 0.  0.
<mgrwt>
<rscale>  0 0.80834129E+03</rscale>
<asrwt>0</asrwt>
<pdfrwt beam="1">  1        5 0.47206494E-01 0.80834129E+03</pdfrwt>
<pdfrwt beam="2">  1       -5 0.81903240E-01 0.80834129E+03</pdfrwt>
<totfact> 0.53276341E+00</totfact>
</mgrwt>
</event>
<event>
11    1  0.9241199E-015  0.1037487E+04  0.7818608E-02  0.9268360E-01
          3   -1    0    0  501    0  0.00000000000E+00  0.00000000000E+00  0.49019066597E+03  0.49019066597E+03  0.00000000000E+00 0. -1.
         -3   -1    0    0    0  501 -0.00000000000E+00 -0.00000000000E+00 -0.54895901652E+03  0.54895901652E+03  0.00000000000E+00 0.  1.
    9900016    2    1    2    0    0  0.16517618283E+03  0.22194344109E+03 -0.49422120674E+02  0.76232949819E+03  0.70863365386E+03 0.  0.
        -24    2    3    3    0    0 -0.51609969992E+02 -0.14052332622E+03  0.65462208702E+02  0.18287076351E+03  0.82134165647E+02 0.  0.
        -15    1    4    4    0    0 -0.45614848616E+02 -0.31617335313E+02  0.17382385480E+02  0.58159415674E+02  0.00000000000E+00 0. -1.
        -15    1    3    3    0    0  0.24513575248E+03  0.39182082165E+03 -0.61711594505E+02  0.46628683696E+03  0.00000000000E+00 0.  1.
         15    1    4    4    0    0 -0.17118353657E+02 -0.48253857237E+02  0.18830825500E+02  0.54553393654E+02  0.00000000000E+00 0.  1.
         15    1    4    4    0    0  0.50253906456E+01 -0.53985611944E+02  0.28046729600E+02  0.61043590076E+02  0.00000000000E+00 0. -1.
        -16    1    4    4    0    0  0.60978416358E+01 -0.66665217208E+01  0.12022681212E+01  0.91143641086E+01  0.00000000000E+00 0.  1.
         16    1    1    2    0    0 -0.16517618283E+03 -0.22194344109E+03 -0.93462298730E+01  0.27682018429E+03  0.00000000000E+00 0. -1.
    9900018    1    3    3    0    0 -0.28349599662E+02 -0.29354054339E+02 -0.53172734871E+02  0.11317189772E+03  0.91187600000E+02 0.  0.
<mgrwt>
<rscale>  0 0.10374866E+04</rscale>
<asrwt>0</asrwt>
<pdfrwt beam="1">  1        3 0.75413949E-01 0.10374866E+04</pdfrwt>
<pdfrwt beam="2">  1       -3 0.84455233E-01 0.10374866E+04</pdfrwt>
<totfact> 0.55777807E+00</totfact>
</mgrwt>
</event>
<event>
11    1  0.9241199E-015  0.9609546E+03  0.7818608E-02  0.9352437E-01
         -2   -1    0    0    0  501 -0.00000000000E+00  0.00000000000E+00  0.11119019793E+04  0.11119019793E+04  0.00000000000E+00 0.  1.
          2   -1    0    0  501    0  0.00000000000E+00 -0.00000000000E+00 -0.20762481436E+03  0.20762481436E+03  0.00000000000E+00 0. -1.
    9900016    2    1    2    0    0  0.21013728739E+03 -0.64807641245E+02  0.56798827117E+03  0.91772095749E+03  0.68647168165E+03 0.  0.
         24    2    3    3    0    0  0.10636451322E+03 -0.72852670933E+02  0.43429254237E+03  0.46014443424E+03  0.80634773311E+02 0.  0.
        -15    1    4    4    0    0  0.16290255783E+02 -0.34884953206E+02  0.18853526707E+03  0.19242629582E+03  0.00000000000E+00 0.  1.
        -15    1    4    4    0    0  0.33288288815E+02  0.43172743437E+01  0.65444967608E+02  0.73551293770E+02  0.00000000000E+00 0. -1.
         15    1    3    3    0    0 -0.98938617781E+02  0.35521493907E+02 -0.91940468875E+02  0.13965556357E+03  0.00000000000E+00 0. -1.
         15    1    4    4    0    0  0.10559182968E+02 -0.12939031343E+02  0.53287915494E+02  0.55843681959E+02  0.00000000000E+00 0.  1.
        -16    1    1    2    0    0 -0.21013728739E+03  0.64807641245E+02  0.33628889378E+03  0.40180583619E+03  0.00000000000E+00 0.  1.
         16    1    4    4    0    0  0.46226785656E+02 -0.29345960727E+02  0.12702439219E+03  0.13832316268E+03  0.00000000000E+00 0. -1.
    9900018    1    3    3    0    0  0.20271139195E+03 -0.27476464220E+02  0.22563619767E+03  0.31792095969E+03  0.91187600000E+02 0.  0.
<mgrwt>
<rscale>  0 0.96095461E+03</rscale>
<asrwt>0</asrwt>
<pdfrwt beam="1">  1        2 0.31942280E-01 0.96095461E+03</pdfrwt>
<pdfrwt beam="2">  1       -2 0.17106184E+00 0.96095461E+03</pdfrwt>
<totfact> 0.34743805E+01</totfact>
</mgrwt>
</event>
<event>
11    1  0.9241199E-015  0.8492096E+03  0.7818608E-02  0.9491398E-01
         -1   -1    0    0    0  501 -0.00000000000E+00  0.00000000000E+00  0.75974820201E+03  0.75974820201E+03  0.00000000000E+00 0.  1.
          1   -1    0    0  501    0  0.00000000000E+00 -0.00000000000E+00 -0.23730131099E+03  0.23730131099E+03  0.00000000000E+00 0. -1.
    9900016    2    1    2    0    0  0.16712170552E+02 -0.11884971112E+03  0.42679384405E+03  0.84357620629E+03  0.71767909264E+03 0.  0.
         24    2    3    3    0    0  0.57051431993E+02  0.86002117766E+02  0.48229513386E+03  0.49962157141E+03  0.79761446311E+02 0.  0.
        -15    1    4    4    0    0 -0.43809641826E-02  0.51955457814E+02  0.17395739008E+03  0.18155038744E+03  0.00000000000E+00 0.  1.
        -15    1    4    4    0    0  0.15439606445E+02 -0.42343155069E+01  0.40931192414E+02  0.43950806448E+02  0.00000000000E+00 0.  1.
         15    1    3    3    0    0  0.90613335744E+02 -0.10951431006E+03 -0.68162128838E+02  0.15763957793E+03  0.00000000000E+00 0. -1.
         15    1    4    4    0    0  0.35563186245E+02  0.36824908183E+02  0.20078859960E+03  0.20721215169E+03  0.00000000000E+00 0. -1.
        -16    1    1    2    0    0 -0.16712170552E+02  0.11884971112E+03  0.95653046976E+02  0.15347330671E+03  0.00000000000E+00 0.  1.
         16    1    4    4    0    0  0.60530202680E+01  0.14560672762E+01  0.66617951770E+02  0.66908225834E+02  0.00000000000E+00 0. -1.
    9900018    1    3    3    0    0 -0.13095259719E+03 -0.95337518822E+02  0.12660839023E+02  0.18631505694E+03  0.91187600000E+02 0.  0.
<mgrwt>
<rscale>  0 0.84920962E+03</rscale>
<asrwt>0</asrwt>
<pdfrwt beam="1">  1        1 0.36507894E-01 0.84920962E+03</pdfrwt>
<pdfrwt beam="2">  1       -1 0.11688434E+00 0.84920962E+03</pdfrwt>
<totfact> 0.79415592E+01</totfact>
</mgrwt>
</event>
<event>
11    1  0.9241199E-015  0.9745884E+03  0.7818608E-02  0.9336863E-01
         -2   -1    0    0    0  501 -0.00000000000E+00  0.00000000000E+00  0.73973864313E+02  0.73973864313E+02  0.00000000000E+00 0.  1.
          2   -1    0    0  501    0  0.00000000000E+00 -0.00000000000E+00 -0.32099935934E+04  0.32099935934E+04  0.00000000000E+00 0. -1.
    9900016    2    1    2    0    0 -0.12524617598E+03  0.16767495559E+03 -0.21166177198E+04  0.22433032699E+04  0.71311814834E+03 0.  0.
        -24    2    3    3    0    0  0.21262406812E+03  0.48799385550E+02 -0.27379696354E+03  0.35913701169E+03  0.80151366445E+02 0.  0.
        -15    1    4    4    0    0  0.75539927318E+02  0.27767730853E+02 -0.91191887103E+02  0.12162766038E+03  0.00000000000E+00 0. -1.
        -15    1    3    3    0    0 -0.46073701322E+02 -0.73021826240E+01 -0.10136968361E+03  0.11158817401E+03  0.00000000000E+00 0.  1.
         15    1    4    4    0    0  0.47967182352E+02  0.18703891728E+02 -0.10397507412E+03  0.11602371390E+03  0.00000000000E+00 0. -1.
         15    1    4    4    0    0  0.78567954060E+01 -0.71854123319E+01 -0.11322920224E+02  0.15542454981E+02  0.00000000000E+00 0.  1.
        -16    1    4    4    0    0  0.81260163044E+02  0.95131753007E+01 -0.67307082093E+02  0.10594318242E+03  0.00000000000E+00 0.  1.
         16    1    1    2    0    0  0.12524617598E+03 -0.16767495559E+03 -0.10194020093E+04  0.10406641878E+04  0.00000000000E+00 0. -1.
    9900018    1    3    3    0    0 -0.29179654278E+03  0.12617775267E+03 -0.17414510727E+04  0.17725780842E+04  0.91187600000E+02 0.  0.
<mgrwt>
<rscale>  0 0.97458839E+03</rscale>
<asrwt>0</asrwt>
<pdfrwt beam="1">  1        2 0.49384510E+00 0.97458839E+03</pdfrwt>
<pdfrwt beam="2">  1       -2 0.11380596E-01 0.97458839E+03</pdfrwt>
<totfact> 0.73415171E+01</totfact>
</mgrwt>
</event>
<event>
11    1  0.9241199E-015  0.1033110E+04  0.7818608E-02  0.9272958E-01
          2   -1    0    0  501    0  0.00000000000E+00  0.00000000000E+00  0.10609243679E+04  0.10609243679E+04  0.00000000000E+00 0.  1.
         -2   -1    0    0    0  501 -0.00000000000E+00 -0.00000000000E+00 -0.25150612484E+03  0.25150612484E+03  0.00000000000E+00 0. -1.
    9900016    2    1    2    0    0 -0.30293953797E+02  0.12444998239E+03  0.90468993630E+03  0.11527989880E+04  0.70290547315E+03 0.  0.
        -24    2    3    3    0    0 -0.67017409100E+02  0.76330773476E+01 -0.89887145768E+02  0.13587013430E+03  0.76363587054E+02 0.  0.
        -15    1    3    3    0    0  0.51982232026E+02  0.82129472393E+02  0.29962560344E+03  0.31499667445E+03  0.00000000000E+00 0.  1.
        -15    1    4    4    0    0 -0.30040527598E+01  0.18324204467E+02 -0.12239943557E+02  0.22239986974E+02  0.00000000000E+00 0.  1.
         15    1    4    4    0    0 -0.49209420094E+02  0.30232964939E+01 -0.53228147500E+02  0.72553036008E+02  0.00000000000E+00 0. -1.
         15    1    4    4    0    0 -0.11864781410E+02 -0.20254652896E+02 -0.24467055877E+02  0.33906648686E+02  0.00000000000E+00 0. -1.
        -16    1    4    4    0    0 -0.29391548360E+01  0.65402292828E+01  0.48001166497E-01  0.71704626304E+01  0.00000000000E+00 0.  1.
         16    1    1    2    0    0  0.30293953797E+02 -0.12444998239E+03 -0.95271693269E+02  0.15963150470E+03  0.00000000000E+00 0. -1.
    9900018    1    3    3    0    0 -0.15258776724E+02  0.34687432650E+02  0.69495147863E+03  0.70193217927E+03  0.91187600000E+02 0.  0.
<mgrwt>
<rscale>  0 0.10331098E+04</rscale>
<asrwt>0</asrwt>
<pdfrwt beam="1">  1        2 0.16321913E+00 0.10331098E+04</pdfrwt>
<pdfrwt beam="2">  1       -2 0.38693250E-01 0.10331098E+04</pdfrwt>
<totfact> 0.14478507E+02</totfact>
</mgrwt>
</event>
<event>
11    1  0.9241199E-015  0.1091280E+04  0.7818608E-02  0.9213732E-01
          2   -1    0    0  501    0  0.00000000000E+00  0.00000000000E+00  0.56562566529E+02  0.56562566529E+02  0.00000000000E+00 0. -1.
         -2   -1    0    0    0  501 -0.00000000000E+00 -0.00000000000E+00 -0.52636088654E+04  0.52636088654E+04  0.00000000000E+00 0.  1.
    9900016    2    1    2    0    0 -0.17931287126E+03  0.20729232476E+03 -0.29810365876E+04  0.30773512322E+04  0.71301350332E+03 0.  0.
        -24    2    3    3    0    0  0.24280312669E+03  0.10062509901E+03 -0.85922655569E+03  0.90208705858E+03  0.80075079634E+02 0.  0.
        -15    1    4    4    0    0  0.88366230520E+02  0.71816852975E+01 -0.29307775322E+03  0.30619395280E+03  0.00000000000E+00 0. -1.
        -15    1    3    3    0    0 -0.30912983408E+03  0.11655439068E+03 -0.15858949605E+04  0.16199410501E+04  0.00000000000E+00 0.  1.
         15    1    4    4    0    0  0.25010876035E+02  0.11401962747E+02 -0.47418073605E+02  0.54808962578E+02  0.00000000000E+00 0. -1.
         15    1    4    4    0    0  0.12300626681E+02  0.12127386790E+02 -0.68459803253E+02  0.70605407644E+02  0.00000000000E+00 0.  1.
        -16    1    4    4    0    0  0.11712539345E+03  0.69914064175E+02 -0.45027092562E+03  0.47047873556E+03  0.00000000000E+00 0.  1.
         16    1    1    2    0    0  0.17931287126E+03 -0.20729232476E+03 -0.22260097113E+04  0.22428201998E+04  0.00000000000E+00 0. -1.
    9900018    1    3    3    0    0 -0.11298616387E+03 -0.98871649373E+01 -0.53591507142E+03  0.55532312344E+03  0.91187600000E+02 0.  0.
<mgrwt>
<rscale>  0 0.10912804E+04</rscale>
<asrwt>0</asrwt>
<pdfrwt beam="1">  1        2 0.87019302E-02 0.10912804E+04</pdfrwt>
<pdfrwt beam="2">  1       -2 0.80978626E+00 0.10912804E+04</pdfrwt>
<totfact> 0.58421802E-02</totfact>
</mgrwt>
</event>
<event>
11    1  0.9241199E-015  0.1072288E+04  0.7818608E-02  0.9232631E-01
         -2   -1    0    0    0  501 -0.00000000000E+00  0.00000000000E+00  0.16369535557E+03  0.16369535557E+03  0.00000000000E+00 0.  1.
          2   -1    0    0  501    0  0.00000000000E+00 -0.00000000000E+00 -0.17560082432E+04  0.17560082432E+04  0.00000000000E+00 0. -1.
    9900016    2    1    2    0    0  0.14259186106E+03 -0.24966582955E+03 -0.13132543104E+04  0.15190302221E+04  0.70721316905E+03 0.  0.
         24    2    3    3    0    0 -0.13864595330E+03  0.16431149835E+03 -0.29187244108E+03  0.37184954451E+03  0.82834733241E+02 0.  0.
        -15    1    4    4    0    0 -0.31450874405E+02  0.19396237137E+02 -0.26014311405E+02  0.45189776651E+02  0.00000000000E+00 0. -1.
        -15    1    4    4    0    0 -0.64926761621E+02  0.52754107447E+02 -0.15215541178E+03  0.17363683239E+03  0.00000000000E+00 0.  1.
         15    1    3    3    0    0  0.18091595190E+03 -0.25126849438E+03 -0.57322053693E+03  0.65149690857E+03  0.00000000000E+00 0. -1.
         15    1    4    4    0    0 -0.20089579621E+02  0.30634182840E+02 -0.34675343232E+02  0.50442281827E+02  0.00000000000E+00 0.  1.
        -16    1    1    2    0    0 -0.14259186106E+03  0.24966582955E+03 -0.27905857726E+03  0.40067337674E+03  0.00000000000E+00 0.  1.
         16    1    4    4    0    0 -0.22178737649E+02  0.61526970930E+02 -0.79027374663E+02  0.10258065364E+03  0.00000000000E+00 0. -1.
    9900018    1    3    3    0    0  0.10032186245E+03 -0.16270883353E+03 -0.44816133239E+03  0.49568376899E+03  0.91187600000E+02 0.  0.
<mgrwt>
<rscale>  0 0.10722880E+04</rscale>
<asrwt>0</asrwt>
<pdfrwt beam="1">  1        2 0.27015514E+00 0.10722880E+04</pdfrwt>
<pdfrwt beam="2">  1       -2 0.25183898E-01 0.10722880E+04</pdfrwt>
<totfact> 0.12855705E+02</totfact>
</mgrwt>
</event>
<event>
11    1  0.9241199E-015  0.1721129E+04  0.7818608E-02  0.8749404E-01
         -2   -1    0    0    0  501 -0.00000000000E+00  0.00000000000E+00  0.23974890554E+03  0.23974890554E+03  0.00000000000E+00 0.  1.
          2   -1    0    0  501    0  0.00000000000E+00 -0.00000000000E+00 -0.30889466475E+04  0.30889466475E+04  0.00000000000E+00 0. -1.
    9900016    2    1    2    0    0 -0.56889680633E+03 -0.31795153229E+03 -0.22440341621E+04  0.24393363952E+04  0.69995426677E+03 0.  0.
         24    2    3    3    0    0  0.35640853307E+02  0.62697710545E+02 -0.45521668915E+02  0.11912490421E+03  0.83169989356E+02 0.  0.
        -15    1    4    4    0    0  0.15234112365E+02  0.16111912163E+02 -0.12131724447E+02  0.25275494677E+02  0.00000000000E+00 0. -1.
        -15    1    4    4    0    0  0.13810573068E+02  0.13216008793E+02  0.13296362179E+01  0.19161491313E+02  0.00000000000E+00 0.  1.
         15    1    4    4    0    0  0.15519405744E+02  0.20172487762E+01 -0.38798640486E+02  0.41836058022E+02  0.00000000000E+00 0.  1.
         15    1    3    3    0    0 -0.95767519681E+02 -0.13911469395E+03 -0.57983328235E+03  0.60392959127E+03  0.00000000000E+00 0. -1.
        -16    1    1    2    0    0  0.56889680633E+03  0.31795153229E+03 -0.60516357994E+03  0.88935915784E+03  0.00000000000E+00 0.  1.
         16    1    4    4    0    0 -0.89232378687E+01  0.31352540813E+02  0.40790597993E+01  0.32851860196E+02  0.00000000000E+00 0. -1.
    9900018    1    3    3    0    0 -0.50877013996E+03 -0.24153454889E+03 -0.16186792108E+04  0.17162818998E+04  0.91187600000E+02 0.  0.
<mgrwt>
<rscale>  0 0.17211294E+04</rscale>
<asrwt>0</asrwt>
<pdfrwt beam="1">  1        2 0.47522255E+00 0.17211294E+04</pdfrwt>
<pdfrwt beam="2">  1       -2 0.36884448E-01 0.17211294E+04</pdfrwt>
<totfact> 0.10116970E+01</totfact>
</mgrwt>
</event>
<event>
11    1  0.9241199E-015  0.1363492E+04  0.7818608E-02  0.8980677E-01
          2   -1    0    0  501    0  0.00000000000E+00  0.00000000000E+00  0.12520054130E+04  0.12520054130E+04  0.00000000000E+00 0. -1.
         -2   -1    0    0    0  501 -0.00000000000E+00 -0.00000000000E+00 -0.37122669818E+03  0.37122669818E+03  0.00000000000E+00 0.  1.
    9900016    2    1    2    0    0 -0.21805517629E+02  0.13264805176E+03 -0.11375306254E+02  0.72100720378E+03  0.70827325523E+03 0.  0.
        -24    2    3    3    0    0 -0.18167676079E+03  0.16115036116E+03  0.81005111747E+02  0.26771991714E+03  0.78334166177E+02 0.  0.
        -15    1    3    3    0    0  0.24654270868E+03 -0.29904763091E+02  0.60183383746E+02  0.25553794579E+03  0.00000000000E+00 0.  1.
        -15    1    4    4    0    0 -0.47231610848E+02  0.12876909845E+02  0.22184631925E+02  0.53747537284E+02  0.00000000000E+00 0. -1.
         15    1    4    4    0    0 -0.11043468796E+02  0.15961431135E+02  0.16123168377E+02  0.25232559233E+02  0.00000000000E+00 0. -1.
         15    1    4    4    0    0 -0.66417724510E+01  0.21636726834E+02  0.90791364455E+01  0.24386303697E+02  0.00000000000E+00 0.  1.
        -16    1    4    4    0    0 -0.11675990869E+03  0.11067529334E+03  0.33618174999E+02  0.16435351692E+03  0.00000000000E+00 0.  1.
         16    1    1    2    0    0  0.21805517629E+02 -0.13264805176E+03  0.89215402112E+03  0.90222490746E+03  0.00000000000E+00 0. -1.
    9900018    1    3    3    0    0 -0.86671465519E+02  0.14024536915E+01 -0.15256380175E+03  0.19774934086E+03  0.91187600000E+02 0.  0.
<mgrwt>
<rscale>  0 0.13634923E+04</rscale>
<asrwt>0</asrwt>
<pdfrwt beam="1">  1        2 0.19261622E+00 0.13634923E+04</pdfrwt>
<pdfrwt beam="2">  1       -2 0.57111800E-01 0.13634923E+04</pdfrwt>
<totfact> 0.49460308E+01</totfact>
</mgrwt>
</event>
