<event>
12    1  0.8700990E-011  0.2878443E+04  0.7818608E-02  0.8279320E-01
          2   -1    0    0  501    0  0.00000000000E+00  0.00000000000E+00  0.85799964211E+03  0.85799964211E+03  0.00000000000E+00 0.  1.
         -2   -1    0    0    0  501 -0.00000000000E+00 -0.00000000000E+00 -0.24141714389E+04  0.24141714389E+04  0.00000000000E+00 0. -1.
    9900016    2    1    2    0    0 -0.54072010464E+02 -0.50034366853E+03 -0.86545765372E+03  0.24175638049E+04  0.22005295343E+04 0.  0.
         23    2    3    3    0    0 -0.18311377806E+03 -0.15735777655E+01 -0.21210123992E+03  0.30092010768E+03  0.10969431787E+03 0.  0.
        -24    2    3    3    0    0 -0.32064654598E+03 -0.65979259225E+03  0.28775119216E+03  0.79038289673E+03  0.61350652953E+02 0.  0.
        -15    1    4    4    0    0 -0.13016735934E+03  0.50102468381E+02 -0.13882765406E+03  0.19679155548E+03  0.00000000000E+00 0.  1.
        -15    1    3    3    0    0  0.13640463608E+03  0.39744122624E+03 -0.79210692707E+03  0.89665998961E+03  0.00000000000E+00 0.  1.
         15    1    4    4    0    0 -0.52946418720E+02 -0.51676046146E+02 -0.73273585856E+02  0.10412855221E+03  0.00000000000E+00 0. -1.
         15    1    5    5    0    0 -0.73767070621E+02 -0.20888937529E+03  0.10068736631E+03  0.24333988073E+03  0.00000000000E+00 0. -1.
        -16    1    5    5    0    0 -0.24687947536E+03 -0.45090321696E+03  0.18706382586E+03  0.54704301600E+03  0.00000000000E+00 0.  1.
         16    1    1    2    0    0  0.54072010464E+02  0.50034366853E+03 -0.69071414304E+03  0.85460727609E+03  0.00000000000E+00 0. -1.
    9900018    1    3    3    0    0  0.31328367749E+03 -0.23641872475E+03 -0.14900067890E+03  0.42960081087E+03  0.91187600000E+02 0.  0.
<mgrwt>
<rscale>  0 0.28784428E+04</rscale>
<asrwt>0</asrwt>
<pdfrwt beam="1">  1        2 0.13199995E+00 0.28784428E+04</pdfrwt>
<pdfrwt beam="2">  1       -2 0.37141098E+00 0.28784428E+04</pdfrwt>
<totfact> 0.30795993E-01</totfact>
</mgrwt>
</event>
<event>
11    1  0.8700990E-011  0.2845751E+04  0.7818608E-02  0.8289204E-01
          2   -1    0    0  501    0  0.00000000000E+00  0.00000000000E+00  0.23421454833E+04  0.23421454833E+04  0.00000000000E+00 0. -1.
         -2   -1    0    0    0  501 -0.00000000000E+00 -0.00000000000E+00 -0.86441014676E+03  0.86441014676E+03  0.00000000000E+00 0.  1.
    9900016    2    1    2    0    0 -0.10651504028E+03  0.28020072007E+03  0.70320925874E+03  0.23760446172E+04  0.22497170631E+04 0.  0.
        -24    2    3    3    0    0 -0.74970977205E+03 -0.10629433138E+03  0.51708968177E+03  0.92268643732E+03  0.10298201513E+03 0.  0.
        -15    1    3    3    0    0  0.13811779228E+03  0.12723066874E+03 -0.17600454686E+03  0.25737476203E+03  0.00000000000E+00 0.  1.
        -15    1    3    3    0    0  0.24467966466E+03  0.27136302681E+03  0.96241850712E+02  0.37784722368E+03  0.00000000000E+00 0.  1.
         15    1    4    4    0    0 -0.29354237555E+03  0.89304203140E+01  0.20038765351E+03  0.35553071644E+03  0.00000000000E+00 0. -1.
         15    1    3    3    0    0  0.43172060958E+03 -0.95637421025E+02 -0.42593975433E+02  0.44423355094E+03  0.00000000000E+00 0. -1.
        -16    1    4    4    0    0 -0.45616739650E+03 -0.11522475170E+03  0.31670202826E+03  0.56715572089E+03  0.00000000000E+00 0.  1.
         16    1    1    2    0    0  0.10651504028E+03 -0.28020072007E+03  0.77452607782E+03  0.83051101290E+03  0.00000000000E+00 0. -1.
    9900018    1    3    3    0    0 -0.17132333475E+03  0.83538776935E+02  0.30847624856E+03  0.37390264322E+03  0.91187600000E+02 0.  0.
<mgrwt>
<rscale>  0 0.28457507E+04</rscale>
<asrwt>0</asrwt>
<pdfrwt beam="1">  1        2 0.36033007E+00 0.28457507E+04</pdfrwt>
<pdfrwt beam="2">  1       -2 0.13298618E+00 0.28457507E+04</pdfrwt>
<totfact> 0.15244379E+00</totfact>
</mgrwt>
</event>
<event>
11    1  0.8700990E-011  0.2471542E+04  0.7818608E-02  0.8413195E-01
         -1   -1    0    0    0  501 -0.00000000000E+00  0.00000000000E+00  0.81592385368E+03  0.81592385368E+03  0.00000000000E+00 0.  1.
          1   -1    0    0  501    0  0.00000000000E+00 -0.00000000000E+00 -0.18716572032E+04  0.18716572032E+04  0.00000000000E+00 0. -1.
    9900016    2    1    2    0    0  0.27223458858E+02  0.14839472561E+03 -0.72673013619E+03  0.23256346165E+04  0.22040139672E+04 0.  0.
         23    2    3    3    0    0  0.95695560648E+02 -0.28142708886E+03 -0.26745845540E+03  0.41508113623E+03  0.11135294164E+03 0.  0.
        -15    1    4    4    0    0  0.20698575019E+02 -0.21029834165E+03 -0.15319272038E+03  0.26100159595E+03  0.00000000000E+00 0.  1.
        -15    1    3    3    0    0  0.41759917365E+03  0.12333775466E+03 -0.93011622455E+03  0.10269943830E+04  0.00000000000E+00 0.  1.
         15    1    3    3    0    0 -0.10335327426E+03  0.46876647864E+02  0.65339695169E+02  0.13095264480E+03  0.00000000000E+00 0. -1.
         15    1    4    4    0    0  0.74996985630E+02 -0.71128747216E+02 -0.11426573502E+03  0.15407954028E+03  0.00000000000E+00 0. -1.
        -16    1    3    3    0    0 -0.42590952411E+03  0.30000523639E+03  0.30016936207E+03  0.60125178629E+03  0.00000000000E+00 0.  1.
         16    1    1    2    0    0 -0.27223458858E+02 -0.14839472561E+03 -0.32900321335E+03  0.36194644037E+03  0.00000000000E+00 0. -1.
    9900018    1    3    3    0    0  0.43191522926E+02 -0.40397824439E+02  0.10533548652E+03  0.15135466622E+03  0.91187600000E+02 0.  0.
<mgrwt>
<rscale>  0 0.24715418E+04</rscale>
<asrwt>0</asrwt>
<pdfrwt beam="1">  1        1 0.28794726E+00 0.24715418E+04</pdfrwt>
<pdfrwt beam="2">  1       -1 0.12552675E+00 0.24715418E+04</pdfrwt>
<totfact> 0.17960053E+00</totfact>
</mgrwt>
</event>
<event>
11    1  0.8700990E-011  0.2919428E+04  0.7818608E-02  0.8267121E-01
          1   -1    0    0  501    0  0.00000000000E+00  0.00000000000E+00  0.16384239938E+04  0.16384239938E+04  0.00000000000E+00 0. -1.
         -1   -1    0    0    0  501 -0.00000000000E+00 -0.00000000000E+00 -0.13004963877E+04  0.13004963877E+04  0.00000000000E+00 0.  1.
    9900016    2    1    2    0    0 -0.17942654757E+03 -0.18347224755E+03  0.83506624973E+03  0.23794538655E+04  0.22132801686E+04 0.  0.
         24    2    3    3    0    0 -0.45465680417E+03 -0.85409258650E+03  0.85096717585E+03  0.12898906079E+04  0.59039733219E+02 0.  0.
        -15    1    3    3    0    0 -0.33304488752E+02  0.29930058673E+02 -0.14614982829E+01  0.44801041957E+02  0.00000000000E+00 0.  1.
        -15    1    4    4    0    0 -0.28721246404E+03 -0.51125010304E+03  0.54934362736E+03  0.80352105652E+03  0.00000000000E+00 0.  1.
         15    1    3    3    0    0  0.17528534311E+03  0.22373922487E+03 -0.24842370442E+03  0.37748977360E+03  0.00000000000E+00 0. -1.
         15    1    3    3    0    0  0.10002424639E+03  0.57188260740E+02  0.26936544601E+03  0.29297284949E+03  0.00000000000E+00 0. -1.
        -16    1    1    2    0    0  0.17942654757E+03  0.18347224755E+03 -0.49713864363E+03  0.55946651606E+03  0.00000000000E+00 0.  1.
         16    1    4    4    0    0 -0.16744434013E+03 -0.34284248347E+03  0.30162354849E+03  0.48636955138E+03  0.00000000000E+00 0. -1.
    9900018    1    3    3    0    0  0.33225155846E+02  0.35976279467E+03 -0.35381169425E+02  0.37429959251E+03  0.91187600000E+02 0.  0.
<mgrwt>
<rscale>  0 0.29194277E+04</rscale>
<asrwt>0</asrwt>
<pdfrwt beam="1">  1        1 0.25206523E+00 0.29194277E+04</pdfrwt>
<pdfrwt beam="2">  1       -1 0.20007637E+00 0.29194277E+04</pdfrwt>
<totfact> 0.67649722E-01</totfact>
</mgrwt>
</event>
<event>
12    1  0.8700990E-011  0.3293529E+04  0.7818608E-02  0.8164544E-01
          1   -1    0    0  501    0  0.00000000000E+00  0.00000000000E+00  0.62723174389E+03  0.62723174389E+03  0.00000000000E+00 0. -1.
         -1   -1    0    0    0  501 -0.00000000000E+00 -0.00000000000E+00 -0.43234941186E+04  0.43234941186E+04  0.00000000000E+00 0.  1.
    9900016    2    1    2    0    0  0.85012612629E+03  0.96756829703E+02 -0.22090511120E+04  0.32349538337E+04  0.22029396669E+04 0.  0.
         23    2    3    3    0    0 -0.31896106549E+02  0.24508916041E+03 -0.89581937910E+02  0.28579770212E+03  0.11211308921E+03 0.  0.
        -24    2    3    3    0    0  0.48707306797E+03  0.79689975538E+03 -0.10432050243E+04  0.14031608136E+04  0.91072238580E+02 0.  0.
        -15    1    4    4    0    0 -0.68644379836E+02  0.10466586308E+03 -0.28832316458E+02  0.12844569377E+03  0.00000000000E+00 0. -1.
        -15    1    3    3    0    0  0.17605957397E+03 -0.80099785992E+03 -0.89795807427E+03  0.12161098833E+04  0.00000000000E+00 0.  1.
         15    1    4    4    0    0  0.36748273288E+02  0.14042329734E+03 -0.60749621452E+02  0.15735200835E+03  0.00000000000E+00 0.  1.
         15    1    5    5    0    0  0.23634582633E+03  0.47035838319E+03 -0.56776560668E+03  0.77424423950E+03  0.00000000000E+00 0. -1.
        -16    1    5    5    0    0  0.25072724164E+03  0.32654137218E+03 -0.47543941758E+03  0.62891657414E+03  0.00000000000E+00 0.  1.
         16    1    1    2    0    0 -0.85012612629E+03 -0.96756829703E+02 -0.14872112627E+04  0.17157720288E+04  0.00000000000E+00 0. -1.
    9900018    1    3    3    0    0  0.21888959090E+03 -0.14423422617E+03 -0.17830607552E+03  0.32988543461E+03  0.91187600000E+02 0.  0.
<mgrwt>
<rscale>  0 0.32935287E+04</rscale>
<asrwt>0</asrwt>
<pdfrwt beam="1">  1        1 0.96497189E-01 0.32935287E+04</pdfrwt>
<pdfrwt beam="2">  1       -1 0.66515296E+00 0.32935287E+04</pdfrwt>
<totfact> 0.69122633E-03</totfact>
</mgrwt>
</event>
<event>
12    1  0.8700990E-011  0.2478708E+04  0.7818608E-02  0.8410610E-01
         -1   -1    0    0    0  501 -0.00000000000E+00  0.00000000000E+00  0.60596612544E+03  0.60596612544E+03  0.00000000000E+00 0.  1.
          1   -1    0    0  501    0  0.00000000000E+00 -0.00000000000E+00 -0.25347920009E+04  0.25347920009E+04  0.00000000000E+00 0. -1.
    9900016    2    1    2    0    0 -0.58634053400E+02 -0.87535746699E+02 -0.20293637173E+04  0.29951273714E+04  0.22003114359E+04 0.  0.
         23    2    3    3    0    0  0.22050845213E+03 -0.53931257445E+03 -0.79931325300E+03  0.99718289027E+03  0.12645161049E+03 0.  0.
         24    2    3    3    0    0 -0.50762219121E+03  0.62478319059E+03 -0.10036251603E+04  0.12907368384E+04  0.10345916822E+03 0.  0.
        -15    1    5    5    0    0 -0.24250946110E+03  0.22861237836E+03 -0.45387566119E+03  0.56309641633E+03  0.00000000000E+00 0.  1.
        -15    1    4    4    0    0  0.94807223808E+02 -0.94776327781E+02 -0.16934873173E+03  0.21598600634E+03  0.00000000000E+00 0.  1.
         15    1    4    4    0    0  0.12570122832E+03 -0.44453624667E+03 -0.62996452127E+03  0.78119688393E+03  0.00000000000E+00 0. -1.
         15    1    3    3    0    0  0.12349314530E+03 -0.16561661730E+03 -0.42040277962E+03  0.46842066348E+03  0.00000000000E+00 0. -1.
        -16    1    1    2    0    0  0.58634053400E+02  0.87535746699E+02  0.10053784177E+03  0.14563075498E+03  0.00000000000E+00 0.  1.
         16    1    5    5    0    0 -0.26511273010E+03  0.39617081222E+03 -0.54974949908E+03  0.72764042209E+03  0.00000000000E+00 0. -1.
    9900018    1    3    3    0    0  0.10498654038E+03 -0.73897455354E+01  0.19397747563E+03  0.23878697922E+03  0.91187600000E+02 0.  0.
<mgrwt>
<rscale>  0 0.24787078E+04</rscale>
<asrwt>0</asrwt>
<pdfrwt beam="1">  1        1 0.38996800E+00 0.24787078E+04</pdfrwt>
<pdfrwt beam="2">  1       -1 0.93225557E-01 0.24787078E+04</pdfrwt>
<totfact> 0.12735149E+00</totfact>
</mgrwt>
</event>
<event>
11    1  0.8700990E-011  0.3307460E+04  0.7818608E-02  0.8161000E-01
          2   -1    0    0  501    0  0.00000000000E+00  0.00000000000E+00  0.45991486520E+04  0.45991486520E+04  0.00000000000E+00 0.  1.
         -2   -1    0    0    0  501 -0.00000000000E+00 -0.00000000000E+00 -0.59463692891E+03  0.59463692891E+03  0.00000000000E+00 0. -1.
    9900016    2    1    2    0    0  0.29098992467E+03 -0.71522866068E+03  0.36800562403E+04  0.43562304880E+04  0.21994778834E+04 0.  0.
        -24    2    3    3    0    0  0.14896395391E+03 -0.56296279801E+03  0.28343490039E+04  0.28952218620E+04  0.98275038137E+02 0.  0.
        -15    1    3    3    0    0  0.45756812617E+02  0.15979490371E+03 -0.17326255185E+03  0.24009999797E+03  0.00000000000E+00 0.  1.
        -15    1    3    3    0    0  0.43839497079E+02 -0.86394086266E+02  0.15696021474E+03  0.18445148050E+03  0.00000000000E+00 0.  1.
         15    1    4    4    0    0  0.11000006204E+03 -0.23824389059E+03  0.13506056655E+04  0.13758618495E+04  0.00000000000E+00 0. -1.
         15    1    3    3    0    0  0.66763953931E+02 -0.26531349387E+03  0.13968830067E+03  0.30718316510E+03  0.00000000000E+00 0. -1.
        -16    1    4    4    0    0  0.38963891863E+02 -0.32471890743E+03  0.14837433383E+04  0.15193600125E+04  0.00000000000E+00 0.  1.
         16    1    1    2    0    0 -0.29098992467E+03  0.71522866068E+03  0.32445548279E+03  0.83755509290E+03  0.00000000000E+00 0. -1.
    9900018    1    3    3    0    0 -0.14334292862E+02  0.39646813763E+02  0.72232127288E+03  0.72927398243E+03  0.91187600000E+02 0.  0.
<mgrwt>
<rscale>  0 0.33074604E+04</rscale>
<asrwt>0</asrwt>
<pdfrwt beam="1">  1        2 0.70756131E+00 0.33074604E+04</pdfrwt>
<pdfrwt beam="2">  1       -2 0.91482607E-01 0.33074604E+04</pdfrwt>
<totfact> 0.82849906E-02</totfact>
</mgrwt>
</event>
<event>
12    1  0.8700990E-011  0.2952370E+04  0.7818608E-02  0.8257464E-01
          2   -1    0    0  501    0  0.00000000000E+00  0.00000000000E+00  0.19151739492E+04  0.19151739492E+04  0.00000000000E+00 0. -1.
         -2   -1    0    0    0  501 -0.00000000000E+00 -0.00000000000E+00 -0.11378191432E+04  0.11378191432E+04  0.00000000000E+00 0.  1.
    9900016    2    1    2    0    0 -0.27361297377E+02 -0.15566397980E+03 -0.58183365035E+02  0.22026379016E+04  0.21961895424E+04 0.  0.
         23    2    3    3    0    0  0.39447844725E+03  0.11922779645E+03  0.70893549109E+03  0.82759242651E+03  0.11176395259E+03 0.  0.
        -24    2    3    3    0    0 -0.57760410009E+03  0.19885186370E+03 -0.41291905301E+03  0.74011936616E+03  0.64077856409E+02 0.  0.
        -15    1    3    3    0    0  0.59262930812E+02 -0.22066901705E+03 -0.22709672864E+03  0.32214877652E+03  0.00000000000E+00 0.  1.
        -15    1    4    4    0    0  0.38602161442E+03  0.95088070789E+02  0.68770848702E+03  0.79435344220E+03  0.00000000000E+00 0.  1.
         15    1    5    5    0    0 -0.18250228503E+03  0.89370901126E+02 -0.15721578804E+03  0.25692614896E+03  0.00000000000E+00 0. -1.
         15    1    4    4    0    0  0.84568328261E+01  0.24139725661E+02  0.21227004065E+02  0.33238984311E+02  0.00000000000E+00 0. -1.
        -16    1    5    5    0    0 -0.39510181506E+03  0.10948096258E+03 -0.25570326497E+03  0.48319321720E+03  0.00000000000E+00 0.  1.
         16    1    1    2    0    0  0.27361297377E+02  0.15566397980E+03  0.83553817110E+03  0.85035519083E+03  0.00000000000E+00 0. -1.
    9900018    1    3    3    0    0  0.96501424654E+02 -0.25307462291E+03 -0.12710307447E+03  0.31277733238E+03  0.91187600000E+02 0.  0.
<mgrwt>
<rscale>  0 0.29523696E+04</rscale>
<asrwt>0</asrwt>
<pdfrwt beam="1">  1        2 0.29464214E+00 0.29523696E+04</pdfrwt>
<pdfrwt beam="2">  1       -2 0.17504910E+00 0.29523696E+04</pdfrwt>
<totfact> 0.12566393E+00</totfact>
</mgrwt>
</event>
<event>
12    1  0.8700990E-011  0.3176801E+04  0.7818608E-02  0.8194971E-01
          1   -1    0    0  501    0  0.00000000000E+00  0.00000000000E+00  0.15487406243E+04  0.15487406243E+04  0.00000000000E+00 0. -1.
         -1   -1    0    0    0  501 -0.00000000000E+00 -0.00000000000E+00 -0.16290763380E+04  0.16290763380E+04  0.00000000000E+00 0.  1.
    9900016    2    1    2    0    0  0.34040666391E+03 -0.70777765445E+03  0.19405782221E+03  0.23458808365E+04  0.22019701532E+04 0.  0.
         23    2    3    3    0    0  0.38704327319E+03 -0.39905559998E+03  0.10710928358E+03  0.57787304486E+03  0.11583173207E+03 0.  0.
        -24    2    3    3    0    0  0.38125182686E+03 -0.59135356405E+03 -0.15736639948E+03  0.72283374070E+03  0.51695645900E+02 0.  0.
        -15    1    3    3    0    0 -0.66490474689E+03  0.12908814494E+03  0.30409270227E+03  0.74245164366E+03  0.00000000000E+00 0.  1.
        -15    1    4    4    0    0  0.27223123158E+03 -0.20403832269E+03  0.44780355638E+02  0.34314247890E+03  0.00000000000E+00 0.  1.
         15    1    4    4    0    0  0.11481204161E+03 -0.19501727729E+03  0.62328927937E+02  0.23473056596E+03  0.00000000000E+00 0. -1.
         15    1    5    5    0    0  0.18272851374E+03 -0.31555168017E+03 -0.10100240959E+03  0.37837026751E+03  0.00000000000E+00 0. -1.
        -16    1    5    5    0    0  0.19852331312E+03 -0.27580188389E+03 -0.56363989889E+02  0.34446347319E+03  0.00000000000E+00 0.  1.
         16    1    1    2    0    0 -0.34040666391E+03  0.70777765445E+03 -0.27439353588E+03  0.83193612586E+03  0.00000000000E+00 0. -1.
    9900018    1    3    3    0    0  0.23701631075E+03  0.15354336464E+03 -0.59777764151E+02  0.30272240727E+03  0.91187600000E+02 0.  0.
<mgrwt>
<rscale>  0 0.31768014E+04</rscale>
<asrwt>0</asrwt>
<pdfrwt beam="1">  1        1 0.23826779E+00 0.31768014E+04</pdfrwt>
<pdfrwt beam="2">  1       -1 0.25062713E+00 0.31768014E+04</pdfrwt>
<totfact> 0.35043846E-01</totfact>
</mgrwt>
</event>
