<event>
10    1  0.3180730E-012  0.6622290E+04  0.7818608E-02  0.7617695E-01
          1   -1    0    0  501    0  0.00000000000E+00  0.00000000000E+00  0.38601562329E+04  0.38601562329E+04  0.00000000000E+00 0. -1.
         -1   -1    0    0    0  501 -0.00000000000E+00 -0.00000000000E+00 -0.28402167857E+04  0.28402167857E+04  0.00000000000E+00 0.  1.
         24    2    1    2    0    0  0.47271223561E+03  0.30047031796E+03  0.70648813731E+03  0.90509955387E+03  0.79626908669E+02 0.  0.
        -15    1    1    2    0    0  0.77716237004E+03 -0.52863019657E+03  0.20199385100E+02  0.94012725164E+03  0.00000000000E+00 0.  1.
        -15    1    3    3    0    0  0.59073581958E+02  0.12238020667E+02  0.95547296983E+02  0.11299886369E+03  0.00000000000E+00 0.  1.
         15    1    1    2    0    0  0.23712266289E+03 -0.57517207554E+03  0.10590813695E+04  0.12282928889E+04  0.00000000000E+00 0. -1.
         15    1    1    2    0    0 -0.45939577123E+03  0.14044789921E+02 -0.61826496758E+03  0.77038516398E+03  0.00000000000E+00 0. -1.
        -16    1    1    2    0    0 -0.11498733759E+04  0.15622179791E+04  0.28033225715E+03  0.19599285623E+04  0.00000000000E+00 0.  1.
         16    1    3    3    0    0  0.41363865365E+03  0.28823229730E+03  0.61094084033E+03  0.79210069018E+03  0.00000000000E+00 0. -1.
    9900018    1    1    2    0    0  0.12227187863E+03 -0.77293081492E+03 -0.42789673421E+03  0.89653959784E+03  0.91187600000E+02 0.  0.
<mgrwt>
<rscale>  0 0.66222898E+04</rscale>
<asrwt>0</asrwt>
<pdfrwt beam="1">  1        1 0.59387019E+00 0.66222898E+04</pdfrwt>
<pdfrwt beam="2">  1       -1 0.43695643E+00 0.66222898E+04</pdfrwt>
<totfact> 0.32196865E-04</totfact>
</mgrwt>
</event>
<event>
10    1  0.3180730E-012  0.3543677E+04  0.7818608E-02  0.8103516E-01
         -1   -1    0    0    0  501 -0.00000000000E+00  0.00000000000E+00  0.12829846990E+04  0.12829846990E+04  0.00000000000E+00 0.  1.
          1   -1    0    0  501    0  0.00000000000E+00 -0.00000000000E+00 -0.24469589051E+04  0.24469589051E+04  0.00000000000E+00 0. -1.
         24    2    1    2    0    0 -0.26036954209E+03 -0.15257210714E+03 -0.10123508059E+04  0.10592457137E+04  0.77953713442E+02 0.  0.
        -15    1    1    2    0    0 -0.47530307419E+03 -0.93689171090E+02 -0.58075857900E+02  0.48791749137E+03  0.00000000000E+00 0.  1.
        -15    1    3    3    0    0 -0.19057837945E+03 -0.13922607349E+03 -0.69309168980E+03  0.73217491675E+03  0.00000000000E+00 0.  1.
         15    1    1    2    0    0  0.77065398031E+03 -0.16452703574E+02  0.31242238471E+02  0.77146245941E+03  0.00000000000E+00 0. -1.
         15    1    1    2    0    0  0.92529623108E+02  0.16056836958E+03 -0.52521405118E+03  0.55695038560E+03  0.00000000000E+00 0. -1.
        -16    1    1    2    0    0  0.39400006444E+02  0.39822796477E+03  0.24860427031E+03  0.47110715941E+03  0.00000000000E+00 0.  1.
         16    1    3    3    0    0 -0.69791162647E+02 -0.13346033658E+02 -0.31925911609E+03  0.32707079693E+03  0.00000000000E+00 0. -1.
    9900018    1    1    2    0    0 -0.16691099358E+03 -0.29608235254E+03  0.15182000016E+03  0.38326039465E+03  0.91187600000E+02 0.  0.
<mgrwt>
<rscale>  0 0.35436765E+04</rscale>
<asrwt>0</asrwt>
<pdfrwt beam="1">  1        1 0.37645521E+00 0.35436765E+04</pdfrwt>
<pdfrwt beam="2">  1       -1 0.19738226E+00 0.35436765E+04</pdfrwt>
<totfact> 0.18804327E-01</totfact>
</mgrwt>
</event>
<event>
11    1  0.3180730E-012  0.3859026E+04  0.7818608E-02  0.8228308E-01
         -2   -1    0    0    0  501 -0.00000000000E+00  0.00000000000E+00  0.21924114752E+04  0.21924114752E+04  0.00000000000E+00 0. -1.
          2   -1    0    0  501    0  0.00000000000E+00 -0.00000000000E+00 -0.42853252827E+04  0.42853252827E+04  0.00000000000E+00 0.  1.
    9900016    2    1    2    0    0 -0.36408100366E+03 -0.44846165435E+03 -0.16856069151E+04  0.26981490698E+04  0.20260959745E+04 0.  0.
         24    2    3    3    0    0  0.47894795352E+03 -0.10635961100E+03 -0.17172998725E+04  0.17877996455E+04  0.80032565020E+02 0.  0.
        -15    1    4    4    0    0  0.27836513784E+03 -0.21916598217E+02 -0.93738435583E+03  0.97808839979E+03  0.00000000000E+00 0.  1.
        -15    1    1    2    0    0 -0.32807784050E+03  0.42918709373E+03 -0.85082124265E+02  0.54687804740E+03  0.00000000000E+00 0.  1.
         15    1    3    3    0    0 -0.84302895718E+03 -0.34210204336E+03  0.31692957369E+02  0.91034942427E+03  0.00000000000E+00 0. -1.
         15    1    1    2    0    0 -0.45607594183E+03  0.63713512017E+03  0.82947154087E+03  0.11410387650E+04  0.00000000000E+00 0. -1.
        -16    1    1    2    0    0  0.11970746123E+04 -0.19635978425E+03 -0.11288526352E+04  0.16570615753E+04  0.00000000000E+00 0.  1.
         16    1    4    4    0    0  0.20058281568E+03 -0.84443012782E+02 -0.77991551664E+03  0.80971124572E+03  0.00000000000E+00 0. -1.
    9900018    1    1    2    0    0 -0.48839826290E+02 -0.42150077530E+03 -0.22843673825E+02  0.43460930045E+03  0.91187600000E+02 0.  0.
<mgrwt>
<rscale>  0 0.30546040E+04</rscale>
<asrwt>0</asrwt>
<pdfrwt beam="1">  1        2 0.65928080E+00 0.38590265E+04</pdfrwt>
<pdfrwt beam="2">  1       -2 0.33729408E+00 0.38590265E+04</pdfrwt>
<totfact> 0.27186501E-03</totfact>
</mgrwt>
</event>
<event>
11    1  0.3180730E-012  0.4196654E+04  0.7818608E-02  0.7966009E-01
          2   -1    0    0  501    0  0.00000000000E+00  0.00000000000E+00  0.41570030424E+04  0.41570030424E+04  0.00000000000E+00 0. -1.
         -2   -1    0    0    0  501 -0.00000000000E+00 -0.00000000000E+00 -0.10591705916E+04  0.10591705916E+04  0.00000000000E+00 0.  1.
    9900016    2    1    2    0    0  0.64298870482E+03 -0.87931188275E+03  0.11687192022E+04  0.26581318557E+04  0.21244143963E+04 0.  0.
         24    2    3    3    0    0  0.29195894429E+03 -0.23366514196E+03 -0.55279153927E+03  0.67208737915E+03  0.79268755549E+02 0.  0.
        -15    1    1    2    0    0 -0.54761080187E+03  0.26744591496E+03  0.55334019474E+03  0.82315872034E+03  0.00000000000E+00 0.  1.
        -15    1    4    4    0    0  0.99437415793E+02 -0.62898207613E+02 -0.23797150858E+03  0.26547019245E+03  0.00000000000E+00 0.  1.
         15    1    3    3    0    0  0.27585776831E+03 -0.13068636598E+03  0.12198959734E+04  0.12575065092E+04  0.00000000000E+00 0. -1.
         15    1    1    2    0    0  0.21518455780E+01  0.31566499463E+03  0.13873631950E+04  0.14228231282E+04  0.00000000000E+00 0. -1.
        -16    1    1    2    0    0 -0.97529748529E+02  0.29620097316E+03 -0.11590141216E+02  0.31205992969E+03  0.00000000000E+00 0.  1.
         16    1    4    4    0    0  0.19252152849E+03 -0.17076693434E+03 -0.31482003069E+03  0.40661718670E+03  0.00000000000E+00 0. -1.
    9900018    1    3    3    0    0  0.75171992226E+02 -0.51496037481E+03  0.50161476807E+03  0.72853796743E+03  0.91187600000E+02 0.  0.
<mgrwt>
<rscale>  0 0.41966536E+04</rscale>
<asrwt>0</asrwt>
<pdfrwt beam="1">  1        2 0.63953892E+00 0.41966536E+04</pdfrwt>
<pdfrwt beam="2">  1       -2 0.16294932E+00 0.41966536E+04</pdfrwt>
<totfact> 0.46887894E-02</totfact>
</mgrwt>
</event>
<event>
11    1  0.3180730E-012  0.3861886E+04  0.7818608E-02  0.8307663E-01
         -2   -1    0    0    0  501 -0.00000000000E+00  0.00000000000E+00  0.20605827130E+04  0.20605827130E+04  0.00000000000E+00 0.  1.
          2   -1    0    0  501    0  0.00000000000E+00 -0.00000000000E+00 -0.32739386760E+04  0.32739386760E+04  0.00000000000E+00 0. -1.
    9900016    2    1    2    0    0  0.53438266709E+03 -0.55405390691E+03 -0.50474654607E+03  0.22828725608E+04  0.20890661757E+04 0.  0.
         24    2    3    3    0    0 -0.24895101654E+03  0.29361184645E+03 -0.68635842122E+03  0.79090831365E+03  0.79142613109E+02 0.  0.
        -15    1    1    2    0    0  0.33201031292E+03 -0.79830194034E+03 -0.73049547344E+03  0.11318747601E+04  0.00000000000E+00 0.  1.
        -15    1    4    4    0    0 -0.19782151597E+03  0.22272565211E+03 -0.45758304412E+03  0.54600577887E+03  0.00000000000E+00 0.  1.
         15    1    3    3    0    0  0.87139078811E+02 -0.38781970089E+01  0.36829897637E+03  0.37848698189E+03  0.00000000000E+00 0. -1.
         15    1    1    2    0    0 -0.15032176469E+03 -0.22593390502E+02 -0.30014177970E+03  0.33644045856E+03  0.00000000000E+00 0. -1.
        -16    1    1    2    0    0 -0.71607121532E+03  0.13749492378E+04  0.32202783626E+03  0.15833336096E+04  0.00000000000E+00 0.  1.
         16    1    4    4    0    0 -0.51129500572E+02  0.70886194331E+02 -0.22877537710E+03  0.24490253478E+03  0.00000000000E+00 0. -1.
    9900018    1    3    3    0    0  0.69619460482E+03 -0.84378755635E+03 -0.18668710122E+03  0.11134772652E+04  0.91187600000E+02 0.  0.
<mgrwt>
<rscale>  0 0.27858882E+04</rscale>
<asrwt>0</asrwt>
<pdfrwt beam="1">  1        2 0.50368287E+00 0.38618861E+04</pdfrwt>
<pdfrwt beam="2">  1       -2 0.31701272E+00 0.38618861E+04</pdfrwt>
<totfact> 0.22098937E-02</totfact>
</mgrwt>
</event>
<event>
11    1  0.3180730E-012  0.6523516E+04  0.7818608E-02  0.7628677E-01
         -2   -1    0    0    0  501 -0.00000000000E+00  0.00000000000E+00  0.20648670313E+04  0.20648670313E+04  0.00000000000E+00 0.  1.
          2   -1    0    0  501    0  0.00000000000E+00 -0.00000000000E+00 -0.51524214287E+04  0.51524214287E+04  0.00000000000E+00 0. -1.
    9900016    2    1    2    0    0  0.63730904307E+03  0.85824746686E+03 -0.25270740042E+04  0.34747415432E+04  0.21318945187E+04 0.  0.
         24    2    3    3    0    0  0.13759074857E+04  0.37651250703E+03 -0.19630794006E+04  0.24279912655E+04  0.81103483619E+02 0.  0.
        -15    1    1    2    0    0  0.80970670354E+02  0.56261207131E+03  0.15558750042E+03  0.58931830324E+03  0.00000000000E+00 0.  1.
        -15    1    4    4    0    0  0.91830845392E+03  0.28934148882E+03 -0.13060947903E+04  0.16226190295E+04  0.00000000000E+00 0.  1.
         15    1    3    3    0    0 -0.73859844266E+03  0.48173495984E+03 -0.56399460364E+03  0.10467502777E+04  0.00000000000E+00 0. -1.
         15    1    1    2    0    0  0.18423619262E+03 -0.57292736134E+02 -0.10896820275E+04  0.11066310828E+04  0.00000000000E+00 0. -1.
        -16    1    1    2    0    0 -0.99187614553E+03 -0.11491015965E+04  0.66987621674E+03  0.16592127389E+04  0.00000000000E+00 0.  1.
         16    1    4    4    0    0  0.45759903181E+03  0.87171018206E+02 -0.65698461021E+03  0.80537223592E+03  0.00000000000E+00 0. -1.
    9900018    1    1    2    0    0  0.89360239488E+02 -0.21446520555E+03 -0.29626208285E+03  0.38738479180E+03  0.91187600000E+02 0.  0.
<mgrwt>
<rscale>  0 0.65235160E+04</rscale>
<asrwt>0</asrwt>
<pdfrwt beam="1">  1        2 0.79268021E+00 0.65235160E+04</pdfrwt>
<pdfrwt beam="2">  1       -2 0.31767185E+00 0.65235160E+04</pdfrwt>
<totfact> 0.33529776E-04</totfact>
</mgrwt>
</event>
<event>
11    1  0.3180730E-012  0.8157178E+04  0.7818608E-02  0.7468601E-01
         -2   -1    0    0    0  501 -0.00000000000E+00  0.00000000000E+00  0.44568086201E+04  0.44568086201E+04  0.00000000000E+00 0.  1.
          2   -1    0    0  501    0  0.00000000000E+00 -0.00000000000E+00 -0.37324666531E+04  0.37324666531E+04  0.00000000000E+00 0. -1.
    9900016    2    1    2    0    0 -0.50234701203E+03  0.10717188501E+04  0.11379520108E+04  0.26734650215E+04  0.21098688651E+04 0.  0.
        -24    2    3    3    0    0 -0.97453288368E+02  0.99306492820E+03  0.72901267024E+03  0.12384159786E+04  0.80867593475E+02 0.  0.
        -15    1    3    3    0    0 -0.48918846781E+03 -0.36322772578E+03  0.67112290571E+03  0.90644673996E+03  0.00000000000E+00 0.  1.
        -15    1    1    2    0    0 -0.10515608560E+04  0.17888027174E+04  0.26699417250E+03  0.20920997308E+04  0.00000000000E+00 0.  1.
         15    1    1    2    0    0  0.33071484896E+03 -0.12938405804E+04 -0.50725247309E+03  0.14285310043E+04  0.00000000000E+00 0. -1.
         15    1    4    4    0    0 -0.16269202726E+02  0.41825702748E+03  0.34446755864E+03  0.54208996204E+03  0.00000000000E+00 0. -1.
        -16    1    4    4    0    0 -0.81184085643E+02  0.57480790073E+03  0.38454511160E+03  0.69632601657E+03  0.00000000000E+00 0.  1.
         16    1    1    2    0    0  0.12231930190E+04 -0.15666809870E+04 -0.17335174323E+03  0.19951795167E+04  0.00000000000E+00 0. -1.
    9900018    1    3    3    0    0  0.84294744148E+02  0.44188164763E+03 -0.26218356514E+03  0.52860230289E+03  0.91187600000E+02 0.  0.
<mgrwt>
<rscale>  0 0.81571783E+04</rscale>
<asrwt>0</asrwt>
<pdfrwt beam="1">  1        2 0.57422564E+00 0.81571783E+04</pdfrwt>
<pdfrwt beam="2">  1       -2 0.68566286E+00 0.81571783E+04</pdfrwt>
<totfact> 0.83188594E-05</totfact>
</mgrwt>
</event>
<event>
11    1  0.3180730E-012  0.6083489E+04  0.7818608E-02  0.7680136E-01
         -2   -1    0    0    0  501 -0.00000000000E+00  0.00000000000E+00  0.21533934584E+04  0.21533934584E+04  0.00000000000E+00 0.  1.
          2   -1    0    0  501    0  0.00000000000E+00 -0.00000000000E+00 -0.42965711284E+04  0.42965711284E+04  0.00000000000E+00 0. -1.
    9900016    2    1    2    0    0  0.62392348743E+03  0.16065804319E+03 -0.18047366554E+04  0.28671406958E+04  0.21326813755E+04 0.  0.
         24    2    3    3    0    0  0.90159399613E+03  0.20897057251E+03 -0.16128746208E+04  0.18611374788E+04  0.76991807549E+02 0.  0.
        -15    1    4    4    0    0  0.52151179542E+03  0.15491088296E+03 -0.90851124657E+03  0.10589450503E+04  0.00000000000E+00 0.  1.
        -15    1    1    2    0    0 -0.14079515886E+03 -0.52147074614E+03  0.41784757562E+03  0.68289941594E+03  0.00000000000E+00 0.  1.
         15    1    3    3    0    0 -0.31697731920E+03  0.32749121243E+03 -0.36166594864E+03  0.58183105238E+03  0.00000000000E+00 0. -1.
         15    1    1    2    0    0 -0.38728293795E+03  0.10996036068E+04 -0.14646142861E+04  0.18719538384E+04  0.00000000000E+00 0. -1.
        -16    1    1    2    0    0 -0.95845390618E+02 -0.73879090384E+03  0.70832569583E+03  0.10279706367E+04  0.00000000000E+00 0.  1.
         16    1    4    4    0    0  0.38008220071E+03  0.54059689551E+02 -0.70436337421E+03  0.80219242845E+03  0.00000000000E+00 0. -1.
    9900018    1    3    3    0    0  0.39306810492E+02 -0.37580374175E+03  0.16980391404E+03  0.42417216467E+03  0.91187600000E+02 0.  0.
<mgrwt>
<rscale>  0 0.60834885E+04</rscale>
<asrwt>0</asrwt>
<pdfrwt beam="1">  1        2 0.66101095E+00 0.60834885E+04</pdfrwt>
<pdfrwt beam="2">  1       -2 0.33129130E+00 0.60834885E+04</pdfrwt>
<totfact> 0.25806247E-03</totfact>
</mgrwt>
</event>
