<event>
12    1  0.5048252E-011  0.3107954E+04  0.7818608E-02  0.8213558E-01
          1   -1    0    0  501    0  0.00000000000E+00  0.00000000000E+00  0.48829667441E+03  0.48829667441E+03  0.00000000000E+00 0. -1.
         -1   -1    0    0    0  501 -0.00000000000E+00 -0.00000000000E+00 -0.49454469373E+04  0.49454469373E+04  0.00000000000E+00 0.  1.
        -24    2    1    2    0    0  0.27016294710E+03 -0.69498320492E+02 -0.10917022917E+04  0.11285705857E+04  0.63558152445E+02 0.  0.
    9900016    2    1    2    0    0  0.33238867008E+02 -0.24376606262E+03 -0.28509947837E+04  0.33845883828E+04  0.18074126670E+04 0.  0.
         24    2    4    4    0    0 -0.93456392079E+02 -0.83380325181E+03 -0.25958913020E+04  0.27293988227E+04  0.83691823863E+02 0.  0.
        -15    1    5    5    0    0 -0.68358434848E+02 -0.28107669542E+03 -0.84203482528E+03  0.89033680779E+03  0.00000000000E+00 0.  1.
        -15    1    1    2    0    0  0.73995732373E+02 -0.89034418375E+02 -0.30036120118E+03  0.32189959186E+03  0.00000000000E+00 0.  1.
         15    1    4    4    0    0  0.12669525909E+03  0.59003718919E+03 -0.25510348163E+03  0.65518956008E+03  0.00000000000E+00 0. -1.
         15    1    3    3    0    0  0.78866139743E+02  0.51630059173E+01 -0.25083713250E+03  0.26299390044E+03  0.00000000000E+00 0. -1.
        -16    1    3    3    0    0  0.19129680735E+03 -0.74661326409E+02 -0.84086515915E+03  0.86557668525E+03  0.00000000000E+00 0.  1.
         16    1    5    5    0    0 -0.25097957230E+02 -0.55272655639E+03 -0.17538564767E+04  0.18390620149E+04  0.00000000000E+00 0. -1.
    9900018    1    1    2    0    0 -0.37739754648E+03  0.40229880149E+03 -0.21409198644E+03  0.59868505144E+03  0.91187600000E+02 0.  0.
<mgrwt>
<rscale>  0 0.31079545E+04</rscale>
<asrwt>0</asrwt>
<pdfrwt beam="1">  1        1 0.75122565E-01 0.31079545E+04</pdfrwt>
<pdfrwt beam="2">  1       -1 0.76083799E+00 0.31079545E+04</pdfrwt>
<totfact> 0.43810707E-03</totfact>
</mgrwt>
</event>
<event>
12    1  0.5048252E-011  0.4434472E+04  0.7818608E-02  0.8611130E-01
          1   -1    0    0  501    0  0.00000000000E+00  0.00000000000E+00  0.20155772570E+04  0.20155772570E+04  0.00000000000E+00 0.  1.
         -1   -1    0    0    0  501 -0.00000000000E+00 -0.00000000000E+00 -0.26507224947E+04  0.26507224947E+04  0.00000000000E+00 0. -1.
        -24    2    1    2    0    0 -0.14969751744E+03  0.22291622198E+02  0.29226529491E+02  0.18233636041E+03  0.97396586977E+02 0.  0.
    9900016    2    1    2    0    0 -0.25758328949E+02  0.13331613161E+04  0.11777431343E+03  0.22559826435E+04  0.18159307014E+04 0.  0.
         24    2    4    4    0    0 -0.18622689490E+02 -0.32126445644E+03  0.45938341452E+03  0.56664184536E+03  0.80574213214E+02 0.  0.
        -15    1    5    5    0    0 -0.38174940955E+02 -0.14308319834E+03  0.25418201004E+03  0.29417447542E+03  0.00000000000E+00 0.  1.
        -15    1    1    2    0    0  0.17990073263E+03 -0.17029768602E+04 -0.74246581106E+03  0.18664806296E+04  0.00000000000E+00 0.  1.
         15    1    3    3    0    0 -0.13597557737E+03  0.40894199424E+02 -0.37776857331E+01  0.14204212086E+03  0.00000000000E+00 0. -1.
         15    1    4    4    0    0 -0.71356394585E+01  0.16544257725E+04 -0.34160910110E+03  0.16893407981E+04  0.00000000000E+00 0. -1.
        -16    1    3    3    0    0 -0.13721940065E+02 -0.18602577227E+02  0.33004215224E+02  0.40294239553E+02  0.00000000000E+00 0.  1.
         16    1    5    5    0    0  0.19552251465E+02 -0.17818125810E+03  0.20520140449E+03  0.27246736994E+03  0.00000000000E+00 0. -1.
    9900018    1    1    2    0    0 -0.44448862454E+01  0.34752392190E+03 -0.39680269581E+02  0.36150011825E+03  0.91187600000E+02 0.  0.
<mgrwt>
<rscale>  0 0.19903833E+04</rscale>
<asrwt>0</asrwt>
<pdfrwt beam="1">  1        1 0.31008881E+00 0.44344715E+04</pdfrwt>
<pdfrwt beam="2">  1       -1 0.40780346E+00 0.44344715E+04</pdfrwt>
<totfact> 0.13804026E-02</totfact>
</mgrwt>
</event>
<event>
11    1  0.5048252E-011  0.4672261E+04  0.7818608E-02  0.8407820E-01
          1   -1    0    0  501    0  0.00000000000E+00  0.00000000000E+00  0.17722906898E+04  0.17722906898E+04  0.00000000000E+00 0. -1.
         -1   -1    0    0    0  501 -0.00000000000E+00 -0.00000000000E+00 -0.36881718399E+04  0.36881718399E+04  0.00000000000E+00 0.  1.
    9900016    2    1    2    0    0  0.32795031113E+03  0.81715118283E+03 -0.24963783071E+04  0.32139908362E+04  0.18227849518E+04 0.  0.
        -24    2    3    3    0    0  0.23725911552E+03  0.17426259042E+02  0.24870710179E+03  0.35334777054E+03  0.80024134234E+02 0.  0.
        -15    1    3    3    0    0  0.90691195606E+02  0.79972492378E+03 -0.27450854089E+04  0.28606430656E+04  0.00000000000E+00 0.  1.
        -15    1    1    2    0    0 -0.89687133723E+02  0.11314821787E+03 -0.14091526284E+03  0.20175086732E+03  0.00000000000E+00 0.  1.
         15    1    4    4    0    0  0.11142286631E+03  0.46856151351E+02  0.13509126838E+03  0.18127383939E+03  0.00000000000E+00 0. -1.
         15    1    1    2    0    0 -0.14992334344E+03 -0.73401307431E+03  0.10869426672E+04  0.13201123301E+04  0.00000000000E+00 0. -1.
        -16    1    4    4    0    0  0.12583624922E+03 -0.29429892309E+02  0.11361583341E+03  0.17207393114E+03  0.00000000000E+00 0.  1.
         16    1    1    2    0    0 -0.18051466119E+03  0.14233135029E+03 -0.25983192652E+03  0.34692417936E+03  0.00000000000E+00 0. -1.
    9900018    1    1    2    0    0  0.92174827225E+02 -0.33861767667E+03 -0.10569832088E+03  0.37768431681E+03  0.91187600000E+02 0.  0.
<mgrwt>
<rscale>  0 0.24864745E+04</rscale>
<asrwt>0</asrwt>
<pdfrwt beam="1">  1        1 0.27266011E+00 0.46722613E+04</pdfrwt>
<pdfrwt beam="2">  1       -1 0.56741104E+00 0.46722613E+04</pdfrwt>
<totfact> 0.19179883E-03</totfact>
</mgrwt>
</event>
<event>
11    1  0.5048252E-011  0.4796472E+04  0.7818608E-02  0.8315867E-01
         -2   -1    0    0    0  501 -0.00000000000E+00  0.00000000000E+00  0.22084031114E+04  0.22084031114E+04  0.00000000000E+00 0.  1.
          2   -1    0    0  501    0  0.00000000000E+00 -0.00000000000E+00 -0.36238200246E+04  0.36238200246E+04  0.00000000000E+00 0. -1.
    9900016    2    1    2    0    0  0.16310852104E+02 -0.38242329755E+03 -0.14369357590E+04  0.23693718094E+04  0.18446204958E+04 0.  0.
         24    2    3    3    0    0  0.70681739937E+03 -0.73445314935E+03 -0.45673281516E+03  0.11197630229E+04  0.79070211464E+02 0.  0.
        -15    1    1    2    0    0  0.42989221194E+03  0.15165110753E+04  0.44737105163E+03  0.16385218990E+04  0.00000000000E+00 0.  1.
        -15    1    4    4    0    0  0.60290757481E+03 -0.58971098014E+03 -0.39408607649E+03  0.93089227064E+03  0.00000000000E+00 0.  1.
         15    1    3    3    0    0 -0.69050654727E+03  0.35202985181E+03 -0.98020294380E+03  0.12496087865E+04  0.00000000000E+00 0. -1.
         15    1    1    2    0    0 -0.15327233722E+03 -0.28515113411E+03  0.21498678317E+03  0.38861664346E+03  0.00000000000E+00 0. -1.
        -16    1    1    2    0    0 -0.13122134890E+03 -0.14154822052E+03  0.22885978819E+03  0.29938561053E+03  0.00000000000E+00 0.  1.
         16    1    4    4    0    0  0.10390982457E+03 -0.14474216921E+03 -0.62646738675E+02  0.18887075225E+03  0.00000000000E+00 0. -1.
    9900018    1    1    2    0    0 -0.16170937793E+03 -0.70738842316E+03 -0.86969877716E+03  0.11363271736E+04  0.91187600000E+02 0.  0.
<mgrwt>
<rscale>  0 0.27597731E+04</rscale>
<asrwt>0</asrwt>
<pdfrwt beam="1">  1        2 0.55751078E+00 0.47964724E+04</pdfrwt>
<pdfrwt beam="2">  1       -2 0.33975432E+00 0.47964724E+04</pdfrwt>
<totfact> 0.85747278E-03</totfact>
</mgrwt>
</event>
<event>
11    1  0.5048252E-011  0.3399458E+04  0.7818608E-02  0.8886411E-01
         -1   -1    0    0    0  501 -0.00000000000E+00  0.00000000000E+00  0.82729307046E+03  0.82729307046E+03  0.00000000000E+00 0.  1.
          1   -1    0    0  501    0  0.00000000000E+00 -0.00000000000E+00 -0.38742237603E+04  0.38742237603E+04  0.00000000000E+00 0. -1.
    9900016    2    1    2    0    0 -0.40627200227E+03  0.42832970470E+01 -0.18085922431E+04  0.25964706003E+04  0.18181249655E+04 0.  0.
         24    2    3    3    0    0 -0.97190004958E+03 -0.36306249606E+03 -0.15656624647E+04  0.18796073659E+04  0.72255202350E+02 0.  0.
        -15    1    1    2    0    0  0.59635436616E+03 -0.38788452462E+03  0.11053644091E+02  0.71148796021E+03  0.00000000000E+00 0.  1.
        -15    1    4    4    0    0 -0.52239896564E+03 -0.21878977007E+03 -0.90493307836E+03  0.10675549256E+04  0.00000000000E+00 0.  1.
         15    1    1    2    0    0 -0.47575310994E+02 -0.21012459205E+02 -0.23666134830E+03  0.24230874404E+03  0.00000000000E+00 0. -1.
         15    1    3    3    0    0  0.56562804731E+03  0.36734579310E+03 -0.24292977834E+03  0.71686323439E+03  0.00000000000E+00 0. -1.
        -16    1    1    2    0    0  0.47690975435E+02 -0.33998335902E+02 -0.79644460156E+02  0.98861296853E+02  0.00000000000E+00 0.  1.
         16    1    4    4    0    0 -0.44950108394E+03 -0.14427272599E+03 -0.66072938635E+03  0.81205244038E+03  0.00000000000E+00 0. -1.
    9900018    1    1    2    0    0 -0.19019802833E+03  0.43861202268E+03 -0.93308628243E+03  0.10523882293E+04  0.91187600000E+02 0.  0.
<mgrwt>
<rscale>  0 0.14970596E+04</rscale>
<asrwt>0</asrwt>
<pdfrwt beam="1">  1        1 0.59603443E+00 0.33994576E+04</pdfrwt>
<pdfrwt beam="2">  1       -1 0.12727586E+00 0.33994576E+04</pdfrwt>
<totfact> 0.53880794E-02</totfact>
</mgrwt>
</event>
<event>
12    1  0.5281433E-011  0.5564351E+04  0.7818608E-02  0.8242644E-01
         -2   -1    0    0    0  501 -0.00000000000E+00  0.00000000000E+00  0.33217599302E+04  0.33217599302E+04  0.00000000000E+00 0.  1.
          2   -1    0    0  501    0  0.00000000000E+00 -0.00000000000E+00 -0.27447919817E+04  0.27447919817E+04  0.00000000000E+00 0. -1.
         24    2    1    2    0    0 -0.61294945078E+02  0.46438673164E+03  0.88903914959E+02  0.48083756739E+03  0.62359869398E+02 0.  0.
    9900016    2    1    2    0    0  0.10672967597E+04  0.26108034284E+03  0.71970255625E+03  0.22637109918E+04  0.18436730638E+04 0.  0.
        -24    2    4    4    0    0 -0.32779294663E+03  0.21127992726E+03 -0.32943989809E+03  0.51744203784E+03  0.84428623993E+02 0.  0.
        -15    1    3    3    0    0 -0.58471960963E+02  0.30272203827E+03  0.81838394847E+02  0.31899392713E+03  0.00000000000E+00 0.  1.
        -15    1    4    4    0    0  0.13950897063E+04  0.49800415585E+02  0.10491424543E+04  0.17462689540E+04  0.00000000000E+00 0.  1.
         15    1    1    2    0    0 -0.16129955724E+04 -0.11983063773E+04 -0.98805417866E+03  0.22391837688E+04  0.00000000000E+00 0. -1.
         15    1    5    5    0    0 -0.21986549301E+03  0.13966664564E+03 -0.26921890234E+03  0.37460168753E+03  0.00000000000E+00 0. -1.
        -16    1    5    5    0    0 -0.10792745362E+03  0.71613281615E+02 -0.60220995751E+02  0.14284035032E+03  0.00000000000E+00 0.  1.
         16    1    3    3    0    0 -0.28229841158E+01  0.16166469337E+03  0.70655201121E+01  0.16184364027E+03  0.00000000000E+00 0. -1.
    9900018    1    1    2    0    0  0.60699375781E+03  0.47283930278E+03  0.75641565595E+03  0.10828195839E+04  0.91187600000E+02 0.  0.
<mgrwt>
<rscale>  0 0.30038084E+04</rscale>
<asrwt>0</asrwt>
<pdfrwt beam="1">  1        2 0.42227569E+00 0.55643507E+04</pdfrwt>
<pdfrwt beam="2">  1       -2 0.51103999E+00 0.55643507E+04</pdfrwt>
<totfact> 0.24390629E-03</totfact>
</mgrwt>
</event>
<event>
12    1  0.5048252E-011  0.3633295E+04  0.7818608E-02  0.8683523E-01
         -2   -1    0    0    0  501 -0.00000000000E+00  0.00000000000E+00  0.13532913262E+04  0.13532913262E+04  0.00000000000E+00 0.  1.
          2   -1    0    0  501    0  0.00000000000E+00 -0.00000000000E+00 -0.46143850608E+04  0.46143850608E+04  0.00000000000E+00 0. -1.
        -24    2    1    2    0    0 -0.19450877303E+03  0.12435170525E+03  0.61169016896E+03  0.65737605414E+03  0.68420789056E+02 0.  0.
    9900016    2    1    2    0    0  0.58859017749E+03  0.56928603076E+03 -0.18592745703E+04  0.27436127918E+04  0.18439046184E+04 0.  0.
         24    2    4    4    0    0  0.37059628038E+03  0.15669422960E+03  0.31657285925E+03  0.51828913665E+03  0.80688099075E+02 0.  0.
        -15    1    1    2    0    0  0.48220997770E+03 -0.35077630449E+03 -0.11044669786E+04  0.12551564784E+04  0.00000000000E+00 0.  1.
        -15    1    5    5    0    0  0.12286650538E+03  0.13413618259E+02  0.10847342423E+03  0.16444630450E+03  0.00000000000E+00 0.  1.
         15    1    3    3    0    0 -0.24348806969E+02  0.53777200001E+01  0.13719676420E+03  0.13944438454E+03  0.00000000000E+00 0. -1.
         15    1    4    4    0    0  0.21799389711E+03  0.41259180115E+03 -0.21758474295E+04  0.22253236551E+04  0.00000000000E+00 0. -1.
        -16    1    3    3    0    0 -0.17015996606E+03  0.11897398525E+03  0.47449340476E+03  0.51793166960E+03  0.00000000000E+00 0.  1.
         16    1    5    5    0    0  0.24772977500E+03  0.14328061134E+03  0.20809943502E+03  0.35384283215E+03  0.00000000000E+00 0. -1.
    9900018    1    1    2    0    0 -0.87629138216E+03 -0.34286143153E+03 -0.90904235472E+03  0.13115310628E+04  0.91187600000E+02 0.  0.
<mgrwt>
<rscale>  0 0.18434604E+04</rscale>
<asrwt>0</asrwt>
<pdfrwt beam="1">  1        2 0.70990539E+00 0.36332953E+04</pdfrwt>
<pdfrwt beam="2">  1       -2 0.20819867E+00 0.36332953E+04</pdfrwt>
<totfact> 0.86297775E-03</totfact>
</mgrwt>
</event>
<event>
11    1  0.5048252E-011  0.3613557E+04  0.7818608E-02  0.8087393E-01
          1   -1    0    0  501    0  0.00000000000E+00  0.00000000000E+00  0.31223571596E+04  0.31223571596E+04  0.00000000000E+00 0. -1.
         -1   -1    0    0    0  501 -0.00000000000E+00 -0.00000000000E+00 -0.10455076443E+04  0.10455076443E+04  0.00000000000E+00 0.  1.
    9900016    2    1    2    0    0 -0.23444922770E+03 -0.52766750591E+03  0.27638814846E+03  0.19545965146E+04  0.18467966020E+04 0.  0.
        -24    2    3    3    0    0  0.25260322685E+03  0.40292279103E+03  0.67655162584E+03  0.83060843508E+03  0.77673060099E+02 0.  0.
        -15    1    1    2    0    0  0.95411360845E+00  0.23869399027E+02  0.17629985618E+02  0.29689643575E+02  0.00000000000E+00 0. -1.
        -15    1    3    3    0    0 -0.48705245455E+03 -0.93059029694E+03 -0.40016347738E+03  0.11239880795E+04  0.00000000000E+00 0.  1.
         15    1    1    2    0    0  0.19593499205E+03  0.56243433099E+03  0.11027022724E+04  0.12532658135E+04  0.00000000000E+00 0.  1.
         15    1    4    4    0    0  0.16348767740E+03  0.18941137774E+03  0.33718382860E+03  0.41987834542E+03  0.00000000000E+00 0. -1.
        -16    1    4    4    0    0  0.89115549447E+02  0.21351141328E+03  0.33936779724E+03  0.41073008967E+03  0.00000000000E+00 0.  1.
         16    1    1    2    0    0  0.58730456083E+02  0.29543259538E+02  0.77039316772E+03  0.77319318642E+03  0.00000000000E+00 0. -1.
    9900018    1    1    2    0    0 -0.21170334038E+02 -0.88179483645E+02 -0.90264058896E+02  0.15711964582E+03  0.91187600000E+02 0.  0.
<mgrwt>
<rscale>  0 0.36135569E+04</rscale>
<asrwt>0</asrwt>
<pdfrwt beam="1">  1        1 0.48036264E+00 0.36135569E+04</pdfrwt>
<pdfrwt beam="2">  1       -1 0.16084733E+00 0.36135569E+04</pdfrwt>
<totfact> 0.11293886E-01</totfact>
</mgrwt>
</event>
