<event>
11    1  0.6990095E-018  0.1186229E+04  0.7818608E-02  0.9124996E-01
         -1   -1    0    0    0  501 -0.00000000000E+00  0.00000000000E+00  0.31279536143E+03  0.31279536143E+03  0.00000000000E+00 0.  1.
          1   -1    0    0  501    0  0.00000000000E+00 -0.00000000000E+00 -0.11246482683E+04  0.11246482683E+04  0.00000000000E+00 0. -1.
         23    2    1    2    0    0 -0.27026324663E+03 -0.94031509153E+02 -0.58747950328E+02  0.31624808745E+03  0.12115025362E+03 0.  0.
    9900016    2    1    2    0    0  0.24495512305E+03  0.75834920607E+02 -0.70507417216E+03  0.10639367159E+04  0.75437245418E+03 0.  0.
        -15    1    3    3    0    0 -0.14426184607E+03 -0.72400334364E+02  0.25114039523E+02  0.16335239095E+03  0.00000000000E+00 0.  1.
        -15    1    4    4    0    0  0.24656008484E+03 -0.53224335224E+02 -0.13296958842E+03  0.28514139780E+03  0.00000000000E+00 0.  1.
         15    1    4    4    0    0  0.14300352649E+03 -0.75091899391E+02 -0.22398651119E+03  0.27614988528E+03  0.00000000000E+00 0. -1.
         15    1    3    3    0    0 -0.12600140056E+03 -0.21631174789E+02 -0.83861989850E+02  0.15289569650E+03  0.00000000000E+00 0. -1.
        -16    1    1    2    0    0  0.25308123585E+02  0.18196588546E+02 -0.48030784380E+02  0.57258826413E+02  0.00000000000E+00 0.  1.
         16    1    4    4    0    0 -0.16450709524E+03  0.19078672806E+03 -0.31357132304E+03  0.40223020103E+03  0.00000000000E+00 0. -1.
    9900018    1    4    4    0    0  0.19898606959E+02  0.13364427162E+02 -0.34546749510E+02  0.10041523175E+03  0.91187600000E+02 0.  0.
<mgrwt>
<rscale>  0 0.11862289E+04</rscale>
<asrwt>0</asrwt>
<pdfrwt beam="1">  1        1 0.17302281E+00 0.11862289E+04</pdfrwt>
<pdfrwt beam="2">  1       -1 0.48122363E-01 0.11862289E+04</pdfrwt>
<totfact> 0.51938540E+01</totfact>
</mgrwt>
</event>
<event>
12    1  0.6990096E-018  0.1653949E+04  0.7818608E-02  0.8788074E-01
         -2   -1    0    0    0  501 -0.00000000000E+00  0.00000000000E+00  0.90515554854E+03  0.90515554854E+03  0.00000000000E+00 0.  1.
          2   -1    0    0  501    0  0.00000000000E+00 -0.00000000000E+00 -0.75554595967E+03  0.75554595967E+03  0.00000000000E+00 0. -1.
         23    2    1    2    0    0 -0.16333017477E+03 -0.11864530526E+03  0.71794280679E+02  0.24006299466E+03  0.10826988601E+03 0.  0.
    9900016    2    1    2    0    0  0.39674520825E+03  0.48186673477E+03  0.18495677464E+02  0.98482754156E+03  0.76153849948E+03 0.  0.
         23    2    4    4    0    0  0.57696288892E+02 -0.14073133899E+03 -0.11451262761E+03  0.21946235974E+03  0.10916232836E+03 0.  0.
        -15    1    3    3    0    0 -0.14677023900E+03 -0.12862740470E+03  0.34681593837E+02  0.19821535068E+03  0.00000000000E+00 0. -1.
        -15    1    5    5    0    0 -0.88869009441E+01 -0.20804165586E+02  0.17869928238E+02  0.28829232549E+02  0.00000000000E+00 0. -1.
         15    1    3    3    0    0 -0.16559935777E+02  0.99820994418E+01  0.37112686841E+02  0.41847643982E+02  0.00000000000E+00 0.  1.
         15    1    5    5    0    0  0.66583189836E+02 -0.11992717341E+03 -0.13238255584E+03  0.19063312719E+03  0.00000000000E+00 0.  1.
        -16    1    1    2    0    0 -0.23341503347E+03 -0.36322142951E+03  0.59319630722E+02  0.43581097198E+03  0.00000000000E+00 0.  1.
         16    1    4    4    0    0  0.29752960833E+03  0.50015028160E+03  0.16295068381E+03  0.60434021657E+03  0.00000000000E+00 0. -1.
    9900018    1    4    4    0    0  0.41519311026E+02  0.12244779217E+03 -0.29942378741E+02  0.16102496525E+03  0.91187600000E+02 0.  0.
<mgrwt>
<rscale>  0 0.16539488E+04</rscale>
<asrwt>0</asrwt>
<pdfrwt beam="1">  1        2 0.11623784E+00 0.16539488E+04</pdfrwt>
<pdfrwt beam="2">  1       -2 0.13925470E+00 0.16539488E+04</pdfrwt>
<totfact> 0.12912573E+01</totfact>
</mgrwt>
</event>
<event>
11    1  0.6990095E-018  0.1500220E+04  0.7818608E-02  0.8884307E-01
          1   -1    0    0  501    0  0.00000000000E+00  0.00000000000E+00  0.24150796333E+04  0.24150796333E+04  0.00000000000E+00 0. -1.
         -1   -1    0    0    0  501 -0.00000000000E+00 -0.00000000000E+00 -0.23297982234E+03  0.23297982234E+03  0.00000000000E+00 0.  1.
    9900016    2    1    2    0    0 -0.47764101906E+03  0.20023614126E+03  0.12451480165E+04  0.15412292338E+04  0.74616252436E+03 0.  0.
         23    2    3    3    0    0 -0.26824523988E+03  0.45997819737E+02  0.11441379923E+04  0.11786658099E+04  0.78294557599E+02 0.  0.
        -15    1    4    4    0    0 -0.79570503782E+02 -0.92791026639E+01  0.45641206408E+03  0.46338918747E+03  0.00000000000E+00 0.  1.
        -15    1    1    2    0    0  0.12526584668E+03 -0.23885573460E+02  0.10925427475E+03  0.16792423743E+03  0.00000000000E+00 0.  1.
         15    1    4    4    0    0 -0.18867473610E+03  0.55276922401E+02  0.68772592824E+03  0.71527662241E+03  0.00000000000E+00 0. -1.
         15    1    1    2    0    0  0.29819529602E+03 -0.21119042629E+03  0.60222249555E+03  0.70441022485E+03  0.00000000000E+00 0. -1.
        -16    1    3    3    0    0 -0.15276199867E+03  0.11589350668E+03 -0.24165601733E+02  0.19326538603E+03  0.00000000000E+00 0.  1.
         16    1    1    2    0    0  0.54179876359E+02  0.34839858492E+02  0.22547502408E+03  0.23449575950E+03  0.00000000000E+00 0. -1.
    9900018    1    3    3    0    0 -0.56633780505E+02  0.38344814844E+02  0.12517562595E+03  0.16929803793E+03  0.91187600000E+02 0.  0.
<mgrwt>
<rscale>  0 0.15002197E+04</rscale>
<asrwt>0</asrwt>
<pdfrwt beam="1">  1        1 0.37155070E+00 0.15002197E+04</pdfrwt>
<pdfrwt beam="2">  1       -1 0.35843051E-01 0.15002197E+04</pdfrwt>
<totfact> 0.11179696E+01</totfact>
</mgrwt>
</event>
