<event>
12    1  0.4549921E-010  0.2528287E+04  0.7818608E-02  0.8392977E-01
         -1   -1    0    0    0  501 -0.00000000000E+00  0.00000000000E+00  0.89976862991E+03  0.89976862991E+03  0.00000000000E+00 0.  1.
          1   -1    0    0  501    0  0.00000000000E+00 -0.00000000000E+00 -0.17760778126E+04  0.17760778126E+04  0.00000000000E+00 0. -1.
    9900016    2    1    2    0    0  0.16316647154E+01  0.29310328284E+03 -0.68809507650E+03  0.23275121971E+04  0.22040703248E+04 0.  0.
        -24    2    3    3    0    0  0.20977834802E+03 -0.43074069487E+03 -0.80937887743E+02  0.49468891939E+03  0.92853022469E+02 0.  0.
         23    2    3    3    0    0 -0.50762117621E+03  0.13418757827E+03 -0.17236513010E+03  0.56148581858E+03  0.99353015533E+02 0.  0.
        -15    1    3    3    0    0  0.13512451090E+03 -0.16574671616E+03 -0.44403693781E+03  0.49284826215E+03  0.00000000000E+00 0.  1.
        -15    1    5    5    0    0 -0.36502668554E+03  0.12118070804E+03 -0.16380214238E+03  0.41804352287E+03  0.00000000000E+00 0.  1.
         15    1    4    4    0    0  0.14943721424E+03 -0.37163171449E+03 -0.87391539598E+02  0.40997425944E+03  0.00000000000E+00 0. -1.
         15    1    5    5    0    0 -0.14259449066E+03  0.13006870224E+02 -0.85629877140E+01  0.14344229571E+03  0.00000000000E+00 0. -1.
        -16    1    4    4    0    0  0.60341133781E+02 -0.59108980378E+02  0.64536518550E+01  0.84714659945E+02  0.00000000000E+00 0.  1.
         16    1    1    2    0    0 -0.16316647154E+01 -0.29310328284E+03 -0.18821410616E+03  0.34833424537E+03  0.00000000000E+00 0. -1.
    9900018    1    3    3    0    0  0.16434998200E+03  0.75540311559E+03  0.92448791551E+01  0.77848919698E+03  0.91187600000E+02 0.  0.
<mgrwt>
<rscale>  0 0.25282872E+04</rscale>
<asrwt>0</asrwt>
<pdfrwt beam="1">  1        1 0.27324274E+00 0.25282872E+04</pdfrwt>
<pdfrwt beam="2">  1       -1 0.13842594E+00 0.25282872E+04</pdfrwt>
<totfact> 0.16182051E+00</totfact>
</mgrwt>
</event>
<event>
11    1  0.4549921E-010  0.2914977E+04  0.7818608E-02  0.8268435E-01
         -2   -1    0    0    0  501 -0.00000000000E+00  0.00000000000E+00  0.10533283080E+04  0.10533283080E+04  0.00000000000E+00 0. -1.
          2   -1    0    0  501    0  0.00000000000E+00 -0.00000000000E+00 -0.20167245921E+04  0.20167245921E+04  0.00000000000E+00 0.  1.
    9900016    2    1    2    0    0 -0.42814116996E+03  0.35416811453E+03 -0.44793910482E+03  0.23121373254E+04  0.21992247850E+04 0.  0.
         23    2    3    3    0    0 -0.13230813766E+03  0.35759028378E+02 -0.91122656972E+02  0.18758475479E+03  0.90003056687E+02 0.  0.
        -15    1    4    4    0    0 -0.73645054581E+02  0.17836274297E+02  0.23176898019E+01  0.75809619647E+02  0.00000000000E+00 0.  1.
        -15    1    3    3    0    0 -0.10020297804E+03  0.10026629729E+03 -0.43696523573E+02  0.14833527346E+03  0.00000000000E+00 0.  1.
         15    1    4    4    0    0 -0.58663083079E+02  0.17922754081E+02 -0.93440346773E+02  0.11177513514E+03  0.00000000000E+00 0. -1.
         15    1    3    3    0    0  0.54474781477E+03 -0.11567689504E+03 -0.46657764714E+03  0.72651636358E+03  0.00000000000E+00 0. -1.
        -16    1    1    2    0    0  0.42814116996E+03 -0.35416811453E+03 -0.51545717923E+03  0.75791557471E+03  0.00000000000E+00 0.  1.
         16    1    3    3    0    0 -0.50156164249E+03  0.26054858423E+03 -0.36094969430E+03  0.67062234363E+03  0.00000000000E+00 0. -1.
    9900018    1    3    3    0    0 -0.23881622653E+03  0.73271099672E+02  0.51440741717E+03  0.57907858994E+03  0.91187600000E+02 0.  0.
<mgrwt>
<rscale>  0 0.29149773E+04</rscale>
<asrwt>0</asrwt>
<pdfrwt beam="1">  1        2 0.31026532E+00 0.29149773E+04</pdfrwt>
<pdfrwt beam="2">  1       -2 0.16205051E+00 0.29149773E+04</pdfrwt>
<totfact> 0.13714815E+00</totfact>
</mgrwt>
</event>
<event>
12    1  0.4549921E-010  0.2972334E+04  0.7818608E-02  0.8251675E-01
         -4   -1    0    0    0  501 -0.00000000000E+00  0.00000000000E+00  0.54527222123E+03  0.54527222123E+03  0.00000000000E+00 0.  1.
          4   -1    0    0  501    0  0.00000000000E+00 -0.00000000000E+00 -0.40506237934E+04  0.40506237934E+04  0.00000000000E+00 0. -1.
    9900016    2    1    2    0    0  0.23912191658E+03  0.40824396049E+03 -0.20250447182E+04  0.30418204681E+04  0.22199151397E+04 0.  0.
        -24    2    3    3    0    0 -0.65817607177E+03 -0.27657582273E+03 -0.75595855759E+03  0.10440200873E+04  0.93886499266E+02 0.  0.
         23    2    3    3    0    0  0.10412255180E+03  0.31604540659E+03 -0.39970689881E+03  0.52817332494E+03  0.92061128636E+02 0.  0.
        -15    1    3    3    0    0  0.23814274242E+03 -0.35240977051E+02 -0.72268394359E+03  0.76172565570E+03  0.00000000000E+00 0.  1.
        -15    1    5    5    0    0  0.45828780348E+02  0.13945017413E+03 -0.24795753063E+03  0.28814851235E+03  0.00000000000E+00 0.  1.
         15    1    5    5    0    0  0.58293771453E+02  0.17659523246E+03 -0.15174936818E+03  0.24002481259E+03  0.00000000000E+00 0. -1.
         15    1    4    4    0    0 -0.70050913619E+02  0.25188635953E+00 -0.72778538096E+02  0.10101440270E+03  0.00000000000E+00 0. -1.
        -16    1    4    4    0    0 -0.58812515815E+03 -0.27682770909E+03 -0.68318001949E+03  0.94300568461E+03  0.00000000000E+00 0.  1.
         16    1    1    2    0    0 -0.23912191658E+03 -0.40824396049E+03 -0.14803068540E+04  0.15540755465E+04  0.00000000000E+00 0. -1.
    9900018    1    3    3    0    0  0.55503269413E+03  0.40401535369E+03 -0.14669531818E+03  0.70790140016E+03  0.91187600000E+02 0.  0.
<mgrwt>
<rscale>  0 0.29723342E+04</rscale>
<asrwt>0</asrwt>
<pdfrwt beam="1">  1        4 0.62317288E+00 0.29723342E+04</pdfrwt>
<pdfrwt beam="2">  1       -4 0.83888035E-01 0.29723342E+04</pdfrwt>
<totfact> 0.21822898E-04</totfact>
</mgrwt>
</event>
<event>
12    1  0.4549921E-010  0.2517687E+04  0.7818608E-02  0.8396711E-01
         -2   -1    0    0    0  501 -0.00000000000E+00  0.00000000000E+00  0.69242787893E+03  0.69242787893E+03  0.00000000000E+00 0.  1.
          2   -1    0    0  501    0  0.00000000000E+00 -0.00000000000E+00 -0.22885954004E+04  0.22885954004E+04  0.00000000000E+00 0. -1.
    9900016    2    1    2    0    0 -0.17095810913E+03  0.24446543404E+02 -0.11078837376E+04  0.24630991902E+04  0.21930861670E+04 0.  0.
        -24    2    3    3    0    0  0.80572467299E+03 -0.43791283688E+03 -0.31742100759E+03  0.97207802980E+03  0.56742387992E+02 0.  0.
         23    2    3    3    0    0 -0.12112457458E+03  0.83257671960E+02 -0.10679983995E+03  0.20527784031E+03  0.95549900055E+02 0.  0.
        -15    1    3    3    0    0 -0.78506722622E+03  0.25392910066E+03 -0.73812510312E+03  0.11070859071E+04  0.00000000000E+00 0.  1.
        -15    1    5    5    0    0 -0.34173280968E+02 -0.13379171910E+02 -0.53277354015E+02  0.64693831421E+02  0.00000000000E+00 0. -1.
         15    1    4    4    0    0  0.41831581239E+03 -0.24797444202E+03 -0.19120113703E+03  0.52252972891E+03  0.00000000000E+00 0. -1.
         15    1    5    5    0    0 -0.86951293608E+02  0.96636843870E+02 -0.53522485940E+02  0.14058400889E+03  0.00000000000E+00 0.  1.
        -16    1    4    4    0    0  0.38740886060E+03 -0.18993839486E+03 -0.12621987056E+03  0.44954830089E+03  0.00000000000E+00 0.  1.
         16    1    1    2    0    0  0.17095810913E+03 -0.24446543404E+02 -0.48828378387E+03  0.51792408918E+03  0.00000000000E+00 0. -1.
    9900018    1    3    3    0    0 -0.70490981324E+02  0.12517260767E+03  0.54462213061E+02  0.17865741295E+03  0.91187600000E+02 0.  0.
<mgrwt>
<rscale>  0 0.25176872E+04</rscale>
<asrwt>0</asrwt>
<pdfrwt beam="1">  1        2 0.35209160E+00 0.25176872E+04</pdfrwt>
<pdfrwt beam="2">  1       -2 0.10652737E+00 0.25176872E+04</pdfrwt>
<totfact> 0.29091654E+00</totfact>
</mgrwt>
</event>
<event>
12    1  0.4549921E-010  0.3027428E+04  0.7818608E-02  0.8235942E-01
          2   -1    0    0  501    0  0.00000000000E+00  0.00000000000E+00  0.30931748993E+04  0.30931748993E+04  0.00000000000E+00 0. -1.
         -2   -1    0    0    0  501 -0.00000000000E+00 -0.00000000000E+00 -0.74076986684E+03  0.74076986684E+03  0.00000000000E+00 0.  1.
    9900016    2    1    2    0    0 -0.10878388574E+03 -0.55520271948E+03  0.12390051055E+04  0.25850478966E+04  0.21971014958E+04 0.  0.
         24    2    3    3    0    0 -0.13928097078E+03 -0.81844166627E+03  0.83736132709E+03  0.11836235902E+04  0.10268817471E+03 0.  0.
         23    2    3    3    0    0  0.48379152910E+01  0.94198620001E+02  0.24297913707E+03  0.27708841277E+03  0.94033728000E+02 0.  0.
        -15    1    4    4    0    0 -0.74848797873E+02 -0.18265837009E+03  0.20528296568E+03  0.28479381789E+03  0.00000000000E+00 0.  1.
        -15    1    5    5    0    0  0.47956911368E+02  0.63103870856E+02  0.15972720174E+03  0.17831080405E+03  0.00000000000E+00 0.  1.
         15    1    5    5    0    0 -0.43118996077E+02  0.31094749145E+02  0.83251935334E+02  0.98777608717E+02  0.00000000000E+00 0. -1.
         15    1    3    3    0    0  0.45372531750E+03 -0.40571069460E+01 -0.23478239758E+03  0.51088736339E+03  0.00000000000E+00 0. -1.
        -16    1    1    2    0    0  0.10878388574E+03  0.55520271948E+03  0.11133999269E+04  0.12488968696E+04  0.00000000000E+00 0.  1.
         16    1    4    4    0    0 -0.64432172904E+02 -0.63578329618E+03  0.63207836141E+03  0.89882977230E+03  0.00000000000E+00 0. -1.
    9900018    1    3    3    0    0 -0.42806614776E+03  0.17309743373E+03  0.39344703896E+03  0.61344853027E+03  0.91187600000E+02 0.  0.
<mgrwt>
<rscale>  0 0.30274285E+04</rscale>
<asrwt>0</asrwt>
<pdfrwt beam="1">  1        2 0.47587306E+00 0.30274285E+04</pdfrwt>
<pdfrwt beam="2">  1       -2 0.11396460E+00 0.30274285E+04</pdfrwt>
<totfact> 0.78207250E-01</totfact>
</mgrwt>
</event>
<event>
12    1  0.4549921E-010  0.2858079E+04  0.7818608E-02  0.8285461E-01
          2   -1    0    0  501    0  0.00000000000E+00  0.00000000000E+00  0.12099830810E+04  0.12099830810E+04  0.00000000000E+00 0. -1.
         -2   -1    0    0    0  501 -0.00000000000E+00 -0.00000000000E+00 -0.16877543035E+04  0.16877543035E+04  0.00000000000E+00 0.  1.
    9900016    2    1    2    0    0 -0.14660779087E+03  0.54263717378E+03 -0.20959852024E+03  0.22749488611E+04  0.21944274502E+04 0.  0.
         24    2    3    3    0    0 -0.15114030029E+03  0.21071853372E+03 -0.10367643118E+04  0.10734630493E+04  0.10098014287E+03 0.  0.
         23    2    3    3    0    0 -0.12241958683E+02 -0.42971805163E+02  0.59960434170E+02  0.11727382708E+03  0.90340772969E+02 0.  0.
        -15    1    5    5    0    0 -0.83914240486E+01  0.20487105190E+02 -0.86203743441E+01  0.23758121358E+02  0.00000000000E+00 0.  1.
        -15    1    4    4    0    0 -0.70164560272E+02  0.24631939877E+02 -0.23977912421E+03  0.25104546677E+03  0.00000000000E+00 0.  1.
         15    1    5    5    0    0 -0.38505346340E+01 -0.63458910353E+02  0.68580808514E+02  0.93515705722E+02  0.00000000000E+00 0. -1.
         15    1    3    3    0    0 -0.74321745247E+02 -0.12578073607E+03  0.46042164428E+03  0.48304513858E+03  0.00000000000E+00 0. -1.
        -16    1    1    2    0    0  0.14660779087E+03 -0.54263717378E+03 -0.26817270223E+03  0.62278852345E+03  0.00000000000E+00 0.  1.
         16    1    4    4    0    0 -0.80975740015E+02  0.18608659384E+03 -0.79698518755E+03  0.82241758252E+03  0.00000000000E+00 0. -1.
    9900018    1    3    3    0    0  0.91096213343E+02  0.50067118130E+03  0.30678371307E+03  0.60116684611E+03  0.91187600000E+02 0.  0.
<mgrwt>
<rscale>  0 0.28580792E+04</rscale>
<asrwt>0</asrwt>
<pdfrwt beam="1">  1        2 0.18615124E+00 0.28580792E+04</pdfrwt>
<pdfrwt beam="2">  1       -2 0.25965451E+00 0.28580792E+04</pdfrwt>
<totfact> 0.90709174E-01</totfact>
</mgrwt>
</event>
<event>
12    1  0.4549921E-010  0.2911518E+04  0.7818608E-02  0.8269459E-01
         -2   -1    0    0    0  501 -0.00000000000E+00  0.00000000000E+00  0.18504391017E+04  0.18504391017E+04  0.00000000000E+00 0.  1.
          2   -1    0    0  501    0  0.00000000000E+00 -0.00000000000E+00 -0.11452602566E+04  0.11452602566E+04  0.00000000000E+00 0. -1.
    9900016    2    1    2    0    0  0.18431941205E+03 -0.54005114009E+03  0.32116973210E+03  0.23078826106E+04  0.22130393733E+04 0.  0.
         24    2    3    3    0    0 -0.48350820635E+03 -0.13403849630E+03 -0.34452849606E+03  0.61661652748E+03  0.98841050522E+02 0.  0.
         23    2    3    3    0    0 -0.65960529616E+02 -0.97701692003E+02  0.10930219025E+03  0.18374048176E+03  0.88978557851E+02 0.  0.
        -15    1    5    5    0    0 -0.14522243838E+02  0.93273814044E+01  0.46090159201E+02  0.49215834699E+02  0.00000000000E+00 0.  1.
        -15    1    4    4    0    0 -0.32771611639E+03 -0.12404777926E+03 -0.19784131410E+03  0.40240140413E+03  0.00000000000E+00 0.  1.
         15    1    3    3    0    0  0.83465039160E+03  0.19219259472E+03  0.20388781768E+03  0.88042575602E+03  0.00000000000E+00 0. -1.
         15    1    5    5    0    0 -0.51438285777E+02 -0.10702907341E+03  0.63212031053E+02  0.13452464706E+03  0.00000000000E+00 0. -1.
        -16    1    1    2    0    0 -0.18431941205E+03  0.54005114009E+03  0.38400911306E+03  0.68781674775E+03  0.00000000000E+00 0.  1.
         16    1    4    4    0    0 -0.15579208996E+03 -0.99907170381E+01 -0.14668718196E+03  0.21421512335E+03  0.00000000000E+00 0. -1.
    9900018    1    3    3    0    0 -0.10086224358E+03 -0.50050354651E+03  0.35250822023E+03  0.62709984530E+03  0.91187600000E+02 0.  0.
<mgrwt>
<rscale>  0 0.29115181E+04</rscale>
<asrwt>0</asrwt>
<pdfrwt beam="1">  1        2 0.17619389E+00 0.29115181E+04</pdfrwt>
<pdfrwt beam="2">  1       -2 0.28468294E+00 0.29115181E+04</pdfrwt>
<totfact> 0.69484042E-01</totfact>
</mgrwt>
</event>
<event>
12    1  0.4549921E-010  0.2417109E+04  0.7818608E-02  0.8433126E-01
         -2   -1    0    0    0  501 -0.00000000000E+00  0.00000000000E+00  0.84814750085E+03  0.84814750085E+03  0.00000000000E+00 0.  1.
          2   -1    0    0  501    0  0.00000000000E+00 -0.00000000000E+00 -0.17221104958E+04  0.17221104958E+04  0.00000000000E+00 0. -1.
    9900016    2    1    2    0    0 -0.54831694189E+02 -0.12547291009E+03 -0.60998976059E+03  0.22728830913E+04  0.21852139650E+04 0.  0.
        -24    2    3    3    0    0  0.16776821361E+03 -0.51807729022E+03 -0.10891589124E+04  0.12213033296E+04  0.93618557984E+02 0.  0.
         23    2    3    3    0    0 -0.17693668716E+03  0.30439078672E+03 -0.11105549438E+03  0.38141293518E+03  0.95823598258E+02 0.  0.
        -15    1    5    5    0    0 -0.12815977624E+03  0.13468086436E+03 -0.78736598496E+02  0.20189927046E+03  0.00000000000E+00 0.  1.
        -15    1    3    3    0    0  0.26418748124E+02  0.15002229912E+03  0.46171146469E+03  0.48619144081E+03  0.00000000000E+00 0.  1.
         15    1    5    5    0    0 -0.48776910921E+02  0.16970992237E+03 -0.32318895880E+02  0.17951366471E+03  0.00000000000E+00 0. -1.
         15    1    4    4    0    0  0.36869621949E+02 -0.52167704993E+02 -0.18587082552E+03  0.19654211316E+03  0.00000000000E+00 0. -1.
        -16    1    4    4    0    0  0.13089859166E+03 -0.46590958523E+03 -0.90328808689E+03  0.10247612165E+04  0.00000000000E+00 0.  1.
         16    1    1    2    0    0  0.54831694189E+02  0.12547291009E+03 -0.26397323433E+03  0.29737490529E+03  0.00000000000E+00 0. -1.
    9900018    1    3    3    0    0 -0.72081968762E+02 -0.61808705717E+02  0.12851318150E+03  0.18397538568E+03  0.91187600000E+02 0.  0.
<mgrwt>
<rscale>  0 0.24171088E+04</rscale>
<asrwt>0</asrwt>
<pdfrwt beam="1">  1        2 0.26494007E+00 0.24171088E+04</pdfrwt>
<pdfrwt beam="2">  1       -2 0.13048423E+00 0.24171088E+04</pdfrwt>
<totfact> 0.36833583E+00</totfact>
</mgrwt>
</event>
<event>
12    1  0.4549921E-010  0.2566576E+04  0.7818608E-02  0.8379644E-01
         -2   -1    0    0    0  501 -0.00000000000E+00  0.00000000000E+00  0.23934900945E+04  0.23934900945E+04  0.00000000000E+00 0.  1.
          2   -1    0    0  501    0  0.00000000000E+00 -0.00000000000E+00 -0.68804462502E+03  0.68804462502E+03  0.00000000000E+00 0. -1.
    9900016    2    1    2    0    0 -0.28111416221E+03 -0.19163824015E+03  0.14770090459E+04  0.26717377126E+04  0.22001991491E+04 0.  0.
         24    2    3    3    0    0 -0.22516842981E+03 -0.90220383408E+03  0.65101892419E+03  0.11389379035E+04  0.93173646087E+02 0.  0.
         23    2    3    3    0    0  0.34718058265E+01 -0.71787353128E+02 -0.39123973688E+02  0.12229433803E+03  0.90883124360E+02 0.  0.
        -15    1    4    4    0    0 -0.72618950485E+02 -0.17174284587E+03  0.10225366741E+03  0.21266153761E+03  0.00000000000E+00 0.  1.
        -15    1    5    5    0    0  0.33042413597E+02 -0.70805044077E+02 -0.67338143850E+01  0.78425121098E+02  0.00000000000E+00 0.  1.
         15    1    3    3    0    0  0.14225552291E+03  0.74850743466E+03  0.90506592712E+03  0.11830656558E+04  0.00000000000E+00 0. -1.
         15    1    5    5    0    0 -0.29570607771E+02 -0.98230905176E+00 -0.32390159303E+02  0.43869216937E+02  0.00000000000E+00 0. -1.
        -16    1    1    2    0    0  0.28111416221E+03  0.19163824015E+03  0.22843642364E+03  0.40979700698E+03  0.00000000000E+00 0.  1.
         16    1    4    4    0    0 -0.15254947933E+03 -0.73046098821E+03  0.54876525678E+03  0.92627636588E+03  0.00000000000E+00 0. -1.
    9900018    1    3    3    0    0 -0.20167306113E+03  0.33845512401E+02 -0.39951831758E+02  0.22743981523E+03  0.91187600000E+02 0.  0.
<mgrwt>
<rscale>  0 0.25665759E+04</rscale>
<asrwt>0</asrwt>
<pdfrwt beam="1">  1        2 0.10585302E+00 0.25665759E+04</pdfrwt>
<pdfrwt beam="2">  1       -2 0.36822924E+00 0.25665759E+04</pdfrwt>
<totfact> 0.44278900E-01</totfact>
</mgrwt>
</event>
<event>
12    1  0.4549921E-010  0.2888427E+04  0.7818608E-02  0.8276329E-01
         -1   -1    0    0    0  501 -0.00000000000E+00  0.00000000000E+00  0.82146139926E+03  0.82146139926E+03  0.00000000000E+00 0.  1.
          1   -1    0    0  501    0  0.00000000000E+00 -0.00000000000E+00 -0.25390763731E+04  0.25390763731E+04  0.00000000000E+00 0. -1.
    9900016    2    1    2    0    0 -0.25790408104E+03  0.30957593996E+03 -0.82025372788E+03  0.23768665959E+04  0.21941574372E+04 0.  0.
        -24    2    3    3    0    0  0.49814896427E+03 -0.25816202265E+03 -0.46628683011E+03  0.73203665029E+03  0.60450218227E+02 0.  0.
         23    2    3    3    0    0 -0.42372781438E+02 -0.19048075430E+03 -0.83590385339E+02  0.23212473943E+03  0.93894471436E+02 0.  0.
        -15    1    3    3    0    0 -0.69695597495E+03  0.81125310091E+03 -0.48394597191E+03  0.11739177691E+04  0.00000000000E+00 0.  1.
        -15    1    5    5    0    0 -0.12336139656E+02 -0.12680438787E+03 -0.62766277942E+01  0.12755755242E+03  0.00000000000E+00 0.  1.
         15    1    5    5    0    0 -0.30036641783E+02 -0.63676366437E+02 -0.77313757545E+02  0.10456718700E+03  0.00000000000E+00 0. -1.
         15    1    4    4    0    0  0.41559914702E+02 -0.27608922482E+02 -0.64841148594E+02  0.81815974367E+02  0.00000000000E+00 0. -1.
        -16    1    4    4    0    0  0.45658904957E+03 -0.23055310017E+03 -0.40144568152E+03  0.65022067592E+03  0.00000000000E+00 0.  1.
         16    1    1    2    0    0  0.25790408104E+03 -0.30957593996E+03 -0.89736124593E+03  0.98367117642E+03  0.00000000000E+00 0. -1.
    9900018    1    3    3    0    0 -0.16724288913E+02 -0.53034383995E+02  0.21356945948E+03  0.23878743716E+03  0.91187600000E+02 0.  0.
<mgrwt>
<rscale>  0 0.28884274E+04</rscale>
<asrwt>0</asrwt>
<pdfrwt beam="1">  1        1 0.39062713E+00 0.28884274E+04</pdfrwt>
<pdfrwt beam="2">  1       -1 0.12637868E+00 0.28884274E+04</pdfrwt>
<totfact> 0.59509755E-01</totfact>
</mgrwt>
</event>
<event>
12    1  0.4549921E-010  0.3260832E+04  0.7818608E-02  0.8172934E-01
         -1   -1    0    0    0  501 -0.00000000000E+00  0.00000000000E+00  0.86195092821E+03  0.86195092821E+03  0.00000000000E+00 0.  1.
          1   -1    0    0  501    0  0.00000000000E+00 -0.00000000000E+00 -0.30839993765E+04  0.30839993765E+04  0.00000000000E+00 0. -1.
    9900016    2    1    2    0    0 -0.26223128569E+03 -0.82891607304E+03 -0.13855008770E+04  0.27394350987E+04  0.21975042381E+04 0.  0.
        -24    2    3    3    0    0 -0.33897668301E+03 -0.22986627170E+02 -0.50946477188E+03  0.62017652684E+03  0.98137627867E+02 0.  0.
         23    2    3    3    0    0 -0.40230159564E+02  0.19025914413E+03  0.13453962918E+03  0.25084736420E+03  0.83704722939E+02 0.  0.
        -15    1    5    5    0    0 -0.60864131556E+02  0.14213695841E+03  0.12213437539E+03  0.19703848129E+03  0.00000000000E+00 0.  1.
        -15    1    3    3    0    0  0.25327888031E+03 -0.87498054328E+03 -0.12545935966E+04  0.15504019592E+04  0.00000000000E+00 0.  1.
         15    1    5    5    0    0  0.20633971992E+02  0.48122185719E+02  0.12405253788E+02  0.53808882911E+02  0.00000000000E+00 0. -1.
         15    1    4    4    0    0 -0.92139945899E+02  0.35982071853E+02 -0.16385029478E+03  0.19139330768E+03  0.00000000000E+00 0. -1.
        -16    1    4    4    0    0 -0.24683673711E+03 -0.58968699022E+02 -0.34561447709E+03  0.42878321916E+03  0.00000000000E+00 0.  1.
         16    1    1    2    0    0  0.26223128569E+03  0.82891607304E+03 -0.83654757133E+03  0.12065152061E+04  0.00000000000E+00 0. -1.
    9900018    1    3    3    0    0 -0.13630332342E+03 -0.12120804672E+03  0.24401786235E+03  0.31800924846E+03  0.91187600000E+02 0.  0.
<mgrwt>
<rscale>  0 0.32608319E+04</rscale>
<asrwt>0</asrwt>
<pdfrwt beam="1">  1        1 0.47446146E+00 0.32608319E+04</pdfrwt>
<pdfrwt beam="2">  1       -1 0.13260783E+00 0.32608319E+04</pdfrwt>
<totfact> 0.20794920E-01</totfact>
</mgrwt>
</event>
<event>
12    1  0.4549921E-010  0.2763630E+04  0.7818608E-02  0.8314649E-01
         -2   -1    0    0    0  501 -0.00000000000E+00  0.00000000000E+00  0.20417531625E+04  0.20417531625E+04  0.00000000000E+00 0.  1.
          2   -1    0    0  501    0  0.00000000000E+00 -0.00000000000E+00 -0.93518308759E+03  0.93518308759E+03  0.00000000000E+00 0. -1.
    9900016    2    1    2    0    0 -0.53690380365E+02 -0.45221323899E+03  0.68702305365E+03  0.23577438943E+04  0.22089762616E+04 0.  0.
         24    2    3    3    0    0  0.21555481485E+03 -0.33065025497E+03 -0.19677693654E+03  0.45080136745E+03  0.93312597360E+02 0.  0.
         23    2    3    3    0    0  0.33417286818E+03  0.10490587678E+03  0.48247845859E+03  0.60311572342E+03  0.91029467890E+02 0.  0.
        -15    1    4    4    0    0  0.41250390868E+02 -0.28076114673E+02 -0.54072100441E+02  0.73577544183E+02  0.00000000000E+00 0.  1.
        -15    1    5    5    0    0  0.18600687137E+02 -0.67874965688E+01  0.65285680170E+02  0.68222252286E+02  0.00000000000E+00 0. -1.
         15    1    3    3    0    0  0.64543560278E+02  0.13912990327E+03  0.50698154386E+03  0.52967281125E+03  0.00000000000E+00 0. -1.
         15    1    5    5    0    0  0.31557218104E+03  0.11169337335E+03  0.41719277842E+03  0.53489347114E+03  0.00000000000E+00 0.  1.
        -16    1    1    2    0    0  0.53690380365E+02  0.45221323899E+03  0.41954702129E+03  0.61919235585E+03  0.00000000000E+00 0.  1.
         16    1    4    4    0    0  0.17430442398E+03 -0.30257414029E+03 -0.14270483610E+03  0.37722382327E+03  0.00000000000E+00 0. -1.
    9900018    1    3    3    0    0 -0.66796162367E+03 -0.36559876407E+03 -0.10566001226E+03  0.77415399216E+03  0.91187600000E+02 0.  0.
<mgrwt>
<rscale>  0 0.27636302E+04</rscale>
<asrwt>0</asrwt>
<pdfrwt beam="1">  1        2 0.14387432E+00 0.27636302E+04</pdfrwt>
<pdfrwt beam="2">  1       -2 0.31411587E+00 0.27636302E+04</pdfrwt>
<totfact> 0.63092044E-01</totfact>
</mgrwt>
</event>
<event>
12    1  0.4549921E-010  0.3239868E+04  0.7818608E-02  0.8178367E-01
         -2   -1    0    0    0  501 -0.00000000000E+00  0.00000000000E+00  0.75242186659E+03  0.75242186659E+03  0.00000000000E+00 0. -1.
          2   -1    0    0  501    0  0.00000000000E+00 -0.00000000000E+00 -0.34876536615E+04  0.34876536615E+04  0.00000000000E+00 0.  1.
    9900016    2    1    2    0    0 -0.64918471309E+03 -0.30212586113E+02 -0.12527130619E+04  0.26213675909E+04  0.22090551010E+04 0.  0.
         24    2    3    3    0    0 -0.50178433605E+03 -0.18232271120E+03 -0.17060402044E+04  0.17889490159E+04  0.68820866532E+02 0.  0.
         23    2    3    3    0    0 -0.58690468048E+02  0.37599904131E+02  0.66621301591E+02  0.13287661241E+03  0.91430150769E+02 0.  0.
        -15    1    4    4    0    0 -0.35378827443E+03 -0.94919831471E+02 -0.11786670742E+04  0.12342738712E+04  0.00000000000E+00 0.  1.
        -15    1    5    5    0    0  0.23751196089E+02  0.15579257958E+02  0.85660416675E+01  0.29668327625E+02  0.00000000000E+00 0.  1.
         15    1    5    5    0    0 -0.82441664137E+02  0.22020646173E+02  0.58055259924E+02  0.10320828479E+03  0.00000000000E+00 0. -1.
         15    1    3    3    0    0 -0.10900277330E+03 -0.20213659064E+03  0.65226072584E+02  0.23873677221E+03  0.00000000000E+00 0. -1.
        -16    1    1    2    0    0  0.64918471309E+03  0.30212586113E+02 -0.14825187331E+04  0.16187079372E+04  0.00000000000E+00 0.  1.
         16    1    4    4    0    0 -0.14799606162E+03 -0.87402879729E+02 -0.52737313024E+03  0.55467514469E+03  0.00000000000E+00 0. -1.
    9900018    1    3    3    0    0  0.20292864309E+02  0.31664681159E+03  0.32147976834E+03  0.46080519038E+03  0.91187600000E+02 0.  0.
<mgrwt>
<rscale>  0 0.32398684E+04</rscale>
<asrwt>0</asrwt>
<pdfrwt beam="1">  1        2 0.53656210E+00 0.32398684E+04</pdfrwt>
<pdfrwt beam="2">  1       -2 0.11575721E+00 0.32398684E+04</pdfrwt>
<totfact> 0.40334581E-01</totfact>
</mgrwt>
</event>
<event>
11    1  0.4549921E-010  0.2886221E+04  0.7818608E-02  0.8276989E-01
         -1   -1    0    0    0  501 -0.00000000000E+00  0.00000000000E+00  0.21653267384E+04  0.21653267384E+04  0.00000000000E+00 0.  1.
          1   -1    0    0  501    0  0.00000000000E+00 -0.00000000000E+00 -0.96177970653E+03  0.96177970653E+03  0.00000000000E+00 0. -1.
    9900016    2    1    2    0    0 -0.36796463675E+03  0.20531177704E+03  0.14249603442E+04  0.26511077531E+04  0.21955203110E+04 0.  0.
         23    2    3    3    0    0 -0.34175177736E+03 -0.35788992644E+02  0.25774464275E+03  0.43919068761E+03  0.91547964998E+02 0.  0.
        -15    1    3    3    0    0 -0.12488557245E+03 -0.25966565859E+02  0.39073290615E+03  0.41102660826E+03  0.00000000000E+00 0.  1.
        -15    1    4    4    0    0 -0.74231537982E+02 -0.46967819309E+02  0.62212426532E+02  0.10764145715E+03  0.00000000000E+00 0.  1.
         15    1    4    4    0    0 -0.26752023938E+03  0.11178826664E+02  0.19553221622E+03  0.33154923046E+03  0.00000000000E+00 0. -1.
         15    1    3    3    0    0  0.14382111978E+03  0.14225065905E+03 -0.40820031696E+03  0.45557355418E+03  0.00000000000E+00 0. -1.
        -16    1    3    3    0    0  0.28865584712E+02  0.24071393944E+02 -0.70894078116E+02  0.80241038746E+02  0.00000000000E+00 0.  1.
         16    1    1    2    0    0  0.36796463675E+03 -0.20531177704E+03 -0.22141331242E+03  0.47599869181E+03  0.00000000000E+00 0. -1.
    9900018    1    3    3    0    0 -0.74013991435E+02  0.10074528255E+03  0.12555771904E+04  0.12650758643E+04  0.91187600000E+02 0.  0.
<mgrwt>
<rscale>  0 0.28862206E+04</rscale>
<asrwt>0</asrwt>
<pdfrwt beam="1">  1        1 0.14796611E+00 0.28862206E+04</pdfrwt>
<pdfrwt beam="2">  1       -1 0.33312719E+00 0.28862206E+04</pdfrwt>
<totfact> 0.27984233E-01</totfact>
</mgrwt>
</event>
<event>
12    1  0.4549921E-010  0.2466817E+04  0.7818608E-02  0.8414903E-01
          2   -1    0    0  501    0  0.00000000000E+00  0.00000000000E+00  0.19936345501E+04  0.19936345501E+04  0.00000000000E+00 0. -1.
         -2   -1    0    0    0  501 -0.00000000000E+00 -0.00000000000E+00 -0.76307705098E+03  0.76307705098E+03  0.00000000000E+00 0.  1.
    9900016    2    1    2    0    0 -0.62659854534E+02  0.24317012773E+03  0.10878460046E+04  0.24678785367E+04  0.22008992649E+04 0.  0.
         24    2    3    3    0    0 -0.33187374711E+03 -0.39978032662E+03 -0.31144041411E+03  0.60776528615E+03  0.49183512864E+02 0.  0.
         23    2    3    3    0    0  0.11487282999E+03  0.33270334983E+03  0.10737308990E+04  0.11331007547E+04  0.84451115017E+02 0.  0.
        -15    1    5    5    0    0  0.93656685264E+02  0.18414776505E+03  0.71495732236E+03  0.74420826847E+03  0.00000000000E+00 0. -1.
        -15    1    4    4    0    0 -0.93443354214E+02 -0.11108893522E+03 -0.11332345580E+03  0.18415921810E+03  0.00000000000E+00 0.  1.
         15    1    3    3    0    0 -0.35440851229E+01  0.34960976128E+03 -0.24996653947E+01  0.34963666004E+03  0.00000000000E+00 0. -1.
         15    1    5    5    0    0  0.21216144727E+02  0.14855558478E+03  0.35877357664E+03  0.38889248625E+03  0.00000000000E+00 0.  1.
        -16    1    1    2    0    0  0.62659854534E+02 -0.24317012773E+03  0.14271149458E+03  0.28883306437E+03  0.00000000000E+00 0.  1.
         16    1    4    4    0    0 -0.23843039290E+03 -0.28869139140E+03 -0.19811695831E+03  0.42360606806E+03  0.00000000000E+00 0. -1.
    9900018    1    3    3    0    0  0.15788514771E+03 -0.39362656753E+02  0.32805518508E+03  0.37737583583E+03  0.91187600000E+02 0.  0.
<mgrwt>
<rscale>  0 0.24668172E+04</rscale>
<asrwt>0</asrwt>
<pdfrwt beam="1">  1        2 0.30671301E+00 0.24668172E+04</pdfrwt>
<pdfrwt beam="2">  1       -2 0.11739647E+00 0.24668172E+04</pdfrwt>
<totfact> 0.33771177E+00</totfact>
</mgrwt>
</event>
