<event>
11    1  0.1596220E-012  0.1632659E+04  0.7818608E-02  0.9166076E-01
         -1   -1    0    0    0  501 -0.00000000000E+00  0.00000000000E+00  0.54714376399E+03  0.54714376399E+03  0.00000000000E+00 0.  1.
          1   -1    0    0  501    0  0.00000000000E+00 -0.00000000000E+00 -0.19272031696E+04  0.19272031696E+04  0.00000000000E+00 0. -1.
    9900016    2    1    2    0    0  0.33922878401E+03 -0.28167926987E+02 -0.47722949561E+03  0.93072584571E+03  0.72293361271E+03 0.  0.
         23    2    3    3    0    0 -0.62943693400E+02 -0.29518637536E+03 -0.21187365855E+03  0.37985809968E+03  0.91130806930E+02 0.  0.
        -15    1    1    2    0    0  0.40364870908E+02 -0.68991959691E+02  0.86782386744E+02  0.11798472763E+03  0.00000000000E+00 0.  1.
        -15    1    4    4    0    0 -0.14922842780E+02 -0.22067356400E+03 -0.11777435981E+03  0.25057995314E+03  0.00000000000E+00 0. -1.
         15    1    4    4    0    0 -0.48020850620E+02 -0.74512811353E+02 -0.94099298744E+02  0.12927814654E+03  0.00000000000E+00 0.  1.
         15    1    1    2    0    0  0.28255308834E+03 -0.11874077945E+03 -0.21966127591E+03  0.37707651289E+03  0.00000000000E+00 0. -1.
        -16    1    3    3    0    0  0.40217247741E+03  0.26701844837E+03 -0.26535583705E+03  0.55086774603E+03  0.00000000000E+00 0.  1.
         16    1    1    2    0    0 -0.20856041417E+03  0.27802212928E+02 -0.19360602333E+03  0.28592604231E+03  0.00000000000E+00 0. -1.
    9900018    1    1    2    0    0 -0.45358632909E+03  0.18809845320E+03 -0.57634499747E+03  0.76263380501E+03  0.91187600000E+02 0.  0.
<mgrwt>
<rscale>  0 0.11410549E+04</rscale>
<asrwt>0</asrwt>
<pdfrwt beam="1">  1        1 0.29649280E+00 0.16326594E+04</pdfrwt>
<pdfrwt beam="2">  1       -1 0.84175962E-01 0.16326594E+04</pdfrwt>
<totfact> 0.44345522E+00</totfact>
</mgrwt>
</event>
<event>
11    1  0.1596220E-012  0.3240263E+04  0.7818608E-02  0.8178264E-01
          2   -1    0    0  501    0  0.00000000000E+00  0.00000000000E+00  0.11307579093E+04  0.11307579093E+04  0.00000000000E+00 0. -1.
         -2   -1    0    0    0  501 -0.00000000000E+00 -0.00000000000E+00 -0.23212983390E+04  0.23212983390E+04  0.00000000000E+00 0.  1.
    9900016    2    1    2    0    0  0.41807765895E+03 -0.10548249311E+03 -0.10826570995E+04  0.13627699489E+04  0.70645598102E+03 0.  0.
         23    2    3    3    0    0  0.47271168990E+03 -0.42195053538E+02 -0.28559199387E+03  0.56133189137E+03  0.91071076607E+02 0.  0.
        -15    1    1    2    0    0  0.45448341796E+03  0.47866604001E+03 -0.31016532018E+03  0.72930026799E+03  0.00000000000E+00 0.  1.
        -15    1    4    4    0    0  0.32695199192E+03 -0.58715217956E+02 -0.16231572938E+03  0.36971810591E+03  0.00000000000E+00 0.  1.
         15    1    4    4    0    0  0.14575969798E+03  0.16520164418E+02 -0.12327626450E+03  0.19161378546E+03  0.00000000000E+00 0. -1.
         15    1    1    2    0    0 -0.24466503351E+03  0.34662025748E+02 -0.79139117966E+02  0.25947145246E+03  0.00000000000E+00 0. -1.
        -16    1    3    3    0    0 -0.54634030953E+02 -0.63287439569E+02 -0.79706510567E+03  0.80143805751E+03  0.00000000000E+00 0.  1.
         16    1    1    2    0    0 -0.71965309130E+03 -0.14089129392E+03  0.32238858175E+03  0.80105263632E+03  0.00000000000E+00 0. -1.
    9900018    1    1    2    0    0  0.91757047903E+02 -0.26695427873E+03 -0.40967473736E+02  0.29946194261E+03  0.91187600000E+02 0.  0.
<mgrwt>
<rscale>  0 0.32402632E+04</rscale>
<asrwt>0</asrwt>
<pdfrwt beam="1">  1        2 0.17396275E+00 0.32402632E+04</pdfrwt>
<pdfrwt beam="2">  1       -2 0.35712282E+00 0.32402632E+04</pdfrwt>
<totfact> 0.24540761E-01</totfact>
</mgrwt>
</event>
<event>
11    1  0.1596220E-012  0.1541318E+04  0.7818608E-02  0.9054172E-01
          2   -1    0    0  501    0  0.00000000000E+00  0.00000000000E+00  0.24638687128E+04  0.24638687128E+04  0.00000000000E+00 0. -1.
         -2   -1    0    0    0  501 -0.00000000000E+00 -0.00000000000E+00 -0.51390811689E+03  0.51390811689E+03  0.00000000000E+00 0.  1.
    9900016    2    1    2    0    0  0.15026328698E+03  0.14020402579E+03  0.62116346113E+03  0.96762042712E+03  0.71288780413E+03 0.  0.
         23    2    3    3    0    0  0.17341995134E+03 -0.25611130816E+03  0.16301913852E+03  0.36140405043E+03  0.91488613769E+02 0.  0.
        -15    1    1    2    0    0 -0.29727221830E+03  0.14850788197E+03  0.66945585450E+02  0.33897945983E+03  0.00000000000E+00 0.  1.
        -15    1    4    4    0    0  0.15937330706E+03 -0.22736850037E+03  0.10833270240E+03  0.29804741295E+03  0.00000000000E+00 0. -1.
         15    1    1    2    0    0  0.13478924247E+02  0.26969765164E+03  0.54483588546E+03  0.60808276310E+03  0.00000000000E+00 0. -1.
         15    1    4    4    0    0  0.14046644286E+02 -0.28742807798E+02  0.54686436128E+02  0.63356637476E+02  0.00000000000E+00 0.  1.
        -16    1    3    3    0    0 -0.23156664365E+02  0.39631533396E+03  0.45814432261E+03  0.60621637670E+03  0.00000000000E+00 0.  1.
         16    1    1    2    0    0 -0.10632219703E+03 -0.21420260023E+03  0.55479707139E+03  0.60414150160E+03  0.00000000000E+00 0. -1.
    9900018    1    1    2    0    0  0.23985220410E+03 -0.34420695917E+03  0.16221859251E+03  0.45895267807E+03  0.91187600000E+02 0.  0.
<mgrwt>
<rscale>  0 0.12694215E+04</rscale>
<asrwt>0</asrwt>
<pdfrwt beam="1">  1        2 0.37905672E+00 0.15413181E+04</pdfrwt>
<pdfrwt beam="2">  1       -2 0.79062789E-01 0.15413181E+04</pdfrwt>
<totfact> 0.49504930E+00</totfact>
</mgrwt>
</event>
<event>
11    1  0.1596220E-012  0.2205475E+04  0.7818608E-02  0.8914818E-01
         -2   -1    0    0    0  501 -0.00000000000E+00  0.00000000000E+00  0.11958217915E+04  0.11958217915E+04  0.00000000000E+00 0.  1.
          2   -1    0    0  501    0  0.00000000000E+00 -0.00000000000E+00 -0.14470175865E+04  0.14470175865E+04  0.00000000000E+00 0. -1.
    9900016    2    1    2    0    0 -0.28200303459E+03  0.28934452199E+03 -0.75013118950E+03  0.11052293028E+04  0.70398085654E+03 0.  0.
         23    2    3    3    0    0 -0.27576926034E+03  0.15406226299E+03 -0.86620410129E+03  0.92686711400E+03  0.94811582093E+02 0.  0.
        -15    1    1    2    0    0  0.12314971591E+02 -0.22960914736E+03 -0.51853857745E+02  0.23571347361E+03  0.00000000000E+00 0. -1.
        -15    1    4    4    0    0 -0.12008313268E+03  0.16939112443E+02 -0.28423644522E+03  0.30902629189E+03  0.00000000000E+00 0. -1.
         15    1    1    2    0    0  0.14738510697E+03 -0.11598131905E+03 -0.61397641988E+02  0.19734159867E+03  0.00000000000E+00 0.  1.
         15    1    4    4    0    0 -0.15568612766E+03  0.13712315055E+03 -0.58196765607E+03  0.61784082211E+03  0.00000000000E+00 0.  1.
        -16    1    3    3    0    0 -0.62337742437E+01  0.13528225900E+03  0.11607291179E+03  0.17836218880E+03  0.00000000000E+00 0.  1.
         16    1    1    2    0    0 -0.32231205829E+03  0.11257211168E+03  0.12665751038E+01  0.34140759725E+03  0.00000000000E+00 0. -1.
    9900018    1    1    2    0    0  0.44461501432E+03 -0.56326167254E+02  0.61092031908E+03  0.76314740564E+03  0.91187600000E+02 0.  0.
<mgrwt>
<rscale>  0 0.14551793E+04</rscale>
<asrwt>0</asrwt>
<pdfrwt beam="1">  1        2 0.22261809E+00 0.22054746E+04</pdfrwt>
<pdfrwt beam="2">  1       -2 0.18397258E+00 0.22054746E+04</pdfrwt>
<totfact> 0.20873319E+00</totfact>
</mgrwt>
</event>
<event>
11    1  0.1596220E-012  0.1616780E+04  0.7818608E-02  0.9330386E-01
         -2   -1    0    0    0  501 -0.00000000000E+00  0.00000000000E+00  0.52984586866E+03  0.52984586866E+03  0.00000000000E+00 0.  1.
          2   -1    0    0  501    0  0.00000000000E+00 -0.00000000000E+00 -0.17279400823E+04  0.17279400823E+04  0.00000000000E+00 0. -1.
    9900016    2    1    2    0    0 -0.67369114819E+02  0.25718236218E+03 -0.20005044400E+03  0.79695759908E+03  0.72418220742E+03 0.  0.
         23    2    3    3    0    0  0.22288044602E+03 -0.14009129738E+03 -0.83465685297E+02  0.29132613832E+03  0.92753077729E+02 0.  0.
        -15    1    4    4    0    0  0.14186940655E+03 -0.55959573072E+02 -0.89166341480E+01  0.15276749883E+03  0.00000000000E+00 0.  1.
        -15    1    1    2    0    0  0.15122032825E+02 -0.18755427343E+03  0.48538013419E+02  0.19432246424E+03  0.00000000000E+00 0.  1.
         15    1    4    4    0    0  0.81011039463E+02 -0.84131724313E+02 -0.74549051149E+02  0.13855863949E+03  0.00000000000E+00 0. -1.
         15    1    1    2    0    0  0.19460287162E+03 -0.22133270173E+03 -0.97223488737E+03  0.10159227917E+04  0.00000000000E+00 0. -1.
        -16    1    3    3    0    0 -0.29024956083E+03  0.39727365956E+03 -0.11658475870E+03  0.50563146076E+03  0.00000000000E+00 0.  1.
         16    1    1    2    0    0 -0.25914913099E+02 -0.19537492485E+01 -0.95174911944E+01  0.27676388776E+02  0.00000000000E+00 0. -1.
    9900018    1    1    2    0    0 -0.11644087653E+03  0.15365836224E+03 -0.64829404505E+02  0.22290670716E+03  0.91187600000E+02 0.  0.
<mgrwt>
<rscale>  0 0.98032983E+03</rscale>
<asrwt>0</asrwt>
<pdfrwt beam="1">  1        2 0.26583693E+00 0.16167796E+04</pdfrwt>
<pdfrwt beam="2">  1       -2 0.81514749E-01 0.16167796E+04</pdfrwt>
<totfact> 0.11928094E+01</totfact>
</mgrwt>
</event>
