<event>
12    1  0.5338014E-012  0.1809930E+04  0.7818608E-02  0.8701037E-01
          1   -1    0    0  501    0  0.00000000000E+00  0.00000000000E+00  0.13323927239E+04  0.13323927239E+04  0.00000000000E+00 0. -1.
         -1   -1    0    0    0  501 -0.00000000000E+00 -0.00000000000E+00 -0.61465469023E+03  0.61465469023E+03  0.00000000000E+00 0.  1.
         23    2    1    2    0    0 -0.10944044311E+03  0.22136408645E+03  0.56748911339E+03  0.62542778232E+03  0.90203922958E+02 0.  0.
    9900016    2    1    2    0    0  0.12058418224E+03 -0.41689260044E+03  0.13639681652E+03  0.72288681668E+03  0.56180180924E+03 0.  0.
         23    2    4    4    0    0 -0.15247813462E+03  0.18200136069E+02 -0.17330079118E+02  0.18669592092E+03  0.10475785772E+03 0.  0.
        -15    1    3    3    0    0 -0.20321426780E+01  0.83072428269E+02  0.24135496303E+03  0.25525942906E+03  0.00000000000E+00 0. -1.
        -15    1    5    5    0    0 -0.13357812994E+03  0.44140532063E+02  0.14581543543E+02  0.14143593879E+03  0.00000000000E+00 0.  1.
         15    1    3    3    0    0 -0.10740830043E+03  0.13829165819E+03  0.32613415036E+03  0.37016835326E+03  0.00000000000E+00 0.  1.
         15    1    5    5    0    0 -0.18900004681E+02 -0.25940395994E+02 -0.31911622661E+02  0.45259982126E+02  0.00000000000E+00 0. -1.
        -16    1    1    2    0    0 -0.16574244316E+03 -0.11450228340E+03 -0.97205475174E+02  0.22367439454E+03  0.00000000000E+00 0.  1.
         16    1    4    4    0    0  0.27306231686E+03 -0.43509273651E+03  0.15372689564E+03  0.53619089576E+03  0.00000000000E+00 0. -1.
    9900018    1    1    2    0    0  0.15459870403E+03  0.31003079738E+03  0.11105757891E+03  0.37505842057E+03  0.91187600000E+02 0.  0.
<mgrwt>
<rscale>  0 0.18099298E+04</rscale>
<asrwt>0</asrwt>
<pdfrwt beam="1">  1        1 0.20498350E+00 0.18099298E+04</pdfrwt>
<pdfrwt beam="2">  1       -1 0.94562260E-01 0.18099298E+04</pdfrwt>
<totfact> 0.87491869E+00</totfact>
</mgrwt>
</event>
<event>
12    1  0.5338014E-012  0.2369907E+04  0.7818608E-02  0.9023057E-01
          1   -1    0    0  501    0  0.00000000000E+00  0.00000000000E+00  0.21467379033E+04  0.21467379033E+04  0.00000000000E+00 0. -1.
         -1   -1    0    0    0  501 -0.00000000000E+00 -0.00000000000E+00 -0.84128452426E+03  0.84128452426E+03  0.00000000000E+00 0.  1.
         23    2    1    2    0    0 -0.50896034868E+02  0.19275582750E+03 -0.90040677000E+02  0.23777458565E+03  0.93189133847E+02 0.  0.
    9900016    2    1    2    0    0 -0.14386772664E+03 -0.15957449771E+03  0.26787221861E+03  0.70370503686E+03  0.61423392149E+03 0.  0.
         23    2    4    4    0    0 -0.31287912689E+03 -0.27857047237E+03  0.25552102340E+03  0.49663633468E+03  0.76562388951E+02 0.  0.
        -15    1    3    3    0    0  0.11101429472E+02  0.13057292967E+03 -0.41588996447E+02  0.13748518584E+03  0.00000000000E+00 0. -1.
        -15    1    5    5    0    0 -0.23241648781E+03 -0.24322865550E+03  0.21928764960E+03  0.40157773336E+03  0.00000000000E+00 0.  1.
         15    1    3    3    0    0 -0.61997464340E+02  0.62182897830E+02 -0.48451680553E+02  0.10028939982E+03  0.00000000000E+00 0.  1.
         15    1    5    5    0    0 -0.80462639084E+02 -0.35341816864E+02  0.36233373806E+02  0.95058601320E+02  0.00000000000E+00 0. -1.
        -16    1    4    4    0    0  0.16901140025E+03  0.11899597466E+03  0.12351195206E+02  0.20706870218E+03  0.00000000000E+00 0.  1.
         16    1    1    2    0    0  0.45316191310E+03 -0.66657751469E+03  0.10896570267E+04  0.13553721770E+04  0.00000000000E+00 0. -1.
    9900018    1    1    2    0    0 -0.25839815159E+03  0.63339618490E+03  0.37964810799E+02  0.69117062802E+03  0.91187600000E+02 0.  0.
<mgrwt>
<rscale>  0 0.13082392E+04</rscale>
<asrwt>0</asrwt>
<pdfrwt beam="1">  1        1 0.33026737E+00 0.23699071E+04</pdfrwt>
<pdfrwt beam="2">  1       -1 0.12942839E+00 0.23699071E+04</pdfrwt>
<totfact> 0.10810211E+00</totfact>
</mgrwt>
</event>
<event>
11    1  0.5338014E-012  0.1404648E+04  0.7818608E-02  0.8950461E-01
         -3   -1    0    0    0  501 -0.00000000000E+00  0.00000000000E+00  0.28616548093E+04  0.28616548093E+04  0.00000000000E+00 0.  1.
          3   -1    0    0  501    0  0.00000000000E+00 -0.00000000000E+00 -0.17236852853E+03  0.17236852853E+03  0.00000000000E+00 0. -1.
    9900016    2    1    2    0    0 -0.19327743411E+03  0.31848619001E+02  0.12603434927E+04  0.14234732897E+04  0.63201264698E+03 0.  0.
         23    2    3    3    0    0  0.32442535155E+02 -0.26285944705E+02  0.14495374034E+03  0.17473724965E+03  0.88193257107E+02 0.  0.
        -15    1    4    4    0    0  0.18452855978E+02 -0.27147422162E+02  0.15438978810E+03  0.15784073332E+03  0.00000000000E+00 0.  1.
        -15    1    3    3    0    0 -0.10234587524E+03  0.11620375689E+03  0.55293709094E+03  0.57421025577E+03  0.00000000000E+00 0.  1.
         15    1    4    4    0    0  0.13989679177E+02  0.86147745711E+00 -0.94360477586E+01  0.16896516333E+02  0.00000000000E+00 0. -1.
         15    1    3    3    0    0  0.67886792927E+02  0.62419897205E+02  0.35814946924E+03  0.36983226271E+03  0.00000000000E+00 0. -1.
        -16    1    3    3    0    0 -0.19126088695E+03 -0.12048909039E+03  0.20430319217E+03  0.30469352161E+03  0.00000000000E+00 0.  1.
         16    1    1    2    0    0  0.43731785619E+03 -0.11031396952E+03  0.70241708125E+03  0.83474896540E+03  0.00000000000E+00 0. -1.
    9900018    1    1    2    0    0 -0.24404042208E+03  0.78465350517E+02  0.72652570680E+03  0.77580108267E+03  0.91187600000E+02 0.  0.
<mgrwt>
<rscale>  0 0.14046483E+04</rscale>
<asrwt>0</asrwt>
<pdfrwt beam="1">  1        3 0.26518237E-01 0.14046483E+04</pdfrwt>
<pdfrwt beam="2">  1       -3 0.44025455E+00 0.14046483E+04</pdfrwt>
<totfact> 0.22533504E-01</totfact>
</mgrwt>
</event>
<event>
11    1  0.5338014E-012  0.1051024E+04  0.7818608E-02  0.9254288E-01
         -2   -1    0    0    0  501 -0.00000000000E+00  0.00000000000E+00  0.16797916590E+03  0.16797916590E+03  0.00000000000E+00 0.  1.
          2   -1    0    0  501    0  0.00000000000E+00 -0.00000000000E+00 -0.16440300186E+04  0.16440300186E+04  0.00000000000E+00 0. -1.
         23    2    1    2    0    0  0.58163838102E+02 -0.16705260007E+03 -0.51854221817E+03  0.55536455938E+03  0.90852399766E+02 0.  0.
    9900016    2    1    2    0    0 -0.57032505584E+02  0.17793816185E+03 -0.54750124275E+03  0.81155782799E+03  0.56916939589E+03 0.  0.
        -15    1    3    3    0    0 -0.92130255241E+01 -0.63512404797E+02 -0.27370585034E+03  0.28112914810E+03  0.00000000000E+00 0. -1.
        -15    1    4    4    0    0  0.17331326907E+03  0.51050421714E+02 -0.47811582182E+02  0.18689457505E+03  0.00000000000E+00 0. -1.
         15    1    3    3    0    0  0.67376863626E+02 -0.10354019527E+03 -0.24483636783E+03  0.27423541128E+03  0.00000000000E+00 0.  1.
         15    1    4    4    0    0  0.54401985574E+02 -0.33124872089E+01 -0.36570924183E+02  0.65635212360E+02  0.00000000000E+00 0.  1.
        -16    1    1    2    0    0 -0.13532181951E+02  0.46788732190E+02 -0.22795269948E+03  0.23309813085E+03  0.00000000000E+00 0.  1.
         16    1    4    4    0    0 -0.28474776023E+03  0.13020022735E+03 -0.46311873639E+03  0.55902804058E+03  0.00000000000E+00 0. -1.
    9900018    1    1    2    0    0  0.12400849434E+02 -0.57674293970E+02 -0.18205469233E+03  0.21198866631E+03  0.91187600000E+02 0.  0.
<mgrwt>
<rscale>  0 0.10510239E+04</rscale>
<asrwt>0</asrwt>
<pdfrwt beam="1">  1        2 0.25292769E+00 0.10510239E+04</pdfrwt>
<pdfrwt beam="2">  1       -2 0.25842949E-01 0.10510239E+04</pdfrwt>
<totfact> 0.14166635E+02</totfact>
</mgrwt>
</event>
