<event>
11    1  0.1098594E-015  0.4712173E+04  0.7818608E-02  0.7964826E-01
          2   -1    0    0  501    0  0.00000000000E+00  0.00000000000E+00  0.45473082976E+04  0.45473082976E+04  0.00000000000E+00 0. -1.
         -2   -1    0    0    0  501 -0.00000000000E+00 -0.00000000000E+00 -0.34043484994E+04  0.34043484994E+04  0.00000000000E+00 0.  1.
    9900016    2    1    2    0    0 -0.90570772704E+03  0.67085233013E+01 -0.98097849807E+03  0.26025457217E+04  0.22339592496E+04 0.  0.
        -24    2    3    3    0    0  0.46270854831E+03  0.13294650862E+03 -0.10424913192E+04  0.11510750827E+04  0.80073219981E+02 0.  0.
        -15    1    1    2    0    0 -0.96882532183E+03 -0.13079866728E+04  0.18278442180E+04  0.24475428752E+04  0.00000000000E+00 0.  1.
        -15    1    3    3    0    0 -0.13444266040E+04 -0.12800916820E+03  0.88425104706E+02  0.13533987734E+04  0.00000000000E+00 0.  1.
         15    1    1    2    0    0  0.54375636371E+03 -0.92380891952E+02 -0.56621679610E+03  0.79044713451E+03  0.00000000000E+00 0. -1.
         15    1    4    4    0    0  0.28815109116E+03  0.84360361986E+02 -0.73818448782E+03  0.79690906638E+03  0.00000000000E+00 0. -1.
        -16    1    4    4    0    0  0.17455745714E+03  0.48586146629E+02 -0.30430683137E+03  0.35416601631E+03  0.00000000000E+00 0.  1.
         16    1    1    2    0    0  0.13307766852E+04  0.13936590415E+04  0.86231087429E+03  0.21111210656E+04  0.00000000000E+00 0. -1.
    9900018    1    3    3    0    0 -0.23989671306E+02  0.17711828822E+01 -0.26912283587E+02  0.98071865588E+02  0.91187600000E+02 0.  0.
<mgrwt>
<rscale>  0 0.42028722E+04</rscale>
<asrwt>0</asrwt>
<pdfrwt beam="1">  1        2 0.69958589E+00 0.47121728E+04</pdfrwt>
<pdfrwt beam="2">  1       -2 0.52374592E+00 0.47121728E+04</pdfrwt>
<totfact> 0.89098046E-05</totfact>
</mgrwt>
</event>
<event>
11    1  0.1098594E-015  0.5171553E+04  0.7818608E-02  0.7802575E-01
         -2   -1    0    0    0  501 -0.00000000000E+00  0.00000000000E+00  0.15291301182E+04  0.15291301182E+04  0.00000000000E+00 0.  1.
          2   -1    0    0  501    0  0.00000000000E+00 -0.00000000000E+00 -0.43725777072E+04  0.43725777072E+04  0.00000000000E+00 0. -1.
    9900016    2    1    2    0    0 -0.10077649817E+04 -0.52695702070E+03 -0.19738721293E+04  0.31969926523E+04  0.22430597130E+04 0.  0.
        -24    2    3    3    0    0 -0.12347015630E+04 -0.96115273439E+03 -0.20185681092E+04  0.25552643478E+04  0.80350154086E+02 0.  0.
        -15    1    1    2    0    0 -0.42648269185E+03 -0.18711102633E+03 -0.20865767616E+03  0.51032935291E+03  0.00000000000E+00 0.  1.
        -15    1    3    3    0    0  0.22211211322E+03  0.44730892326E+03  0.13002162516E+03  0.51606655257E+03  0.00000000000E+00 0.  1.
         15    1    4    4    0    0 -0.23271790004E+03 -0.14910811781E+03 -0.38493805145E+03  0.47388622607E+03  0.00000000000E+00 0. -1.
         15    1    1    2    0    0  0.67313511724E+03  0.10502405172E+04 -0.51532927567E+03  0.13496963704E+04  0.00000000000E+00 0. -1.
        -16    1    4    4    0    0 -0.10019836630E+04 -0.81204461657E+03 -0.16336300577E+04  0.20813781217E+04  0.00000000000E+00 0.  1.
         16    1    1    2    0    0  0.76111255627E+03 -0.33617247014E+03 -0.14558850791E+03  0.84468944981E+03  0.00000000000E+00 0. -1.
    9900018    1    3    3    0    0  0.48244681481E+01 -0.13113209567E+02 -0.85325645256E+02  0.12566175190E+03  0.91187600000E+02 0.  0.
<mgrwt>
<rscale>  0 0.51715531E+04</rscale>
<asrwt>0</asrwt>
<pdfrwt beam="1">  1        2 0.67270426E+00 0.51715531E+04</pdfrwt>
<pdfrwt beam="2">  1       -2 0.23525079E+00 0.51715531E+04</pdfrwt>
<totfact> 0.91911783E-03</totfact>
</mgrwt>
</event>
<event>
11    1  0.1098594E-015  0.5986648E+04  0.7818608E-02  0.7692059E-01
         -2   -1    0    0    0  501 -0.00000000000E+00  0.00000000000E+00  0.33240640325E+04  0.33240640325E+04  0.00000000000E+00 0.  1.
          2   -1    0    0  501    0  0.00000000000E+00 -0.00000000000E+00 -0.26954922250E+04  0.26954922250E+04  0.00000000000E+00 0. -1.
    9900016    2    1    2    0    0 -0.15119092686E+03  0.41438586329E+03  0.12195315403E+04  0.25063165613E+04  0.21447123787E+04 0.  0.
        -24    2    3    3    0    0 -0.56579828642E+03 -0.74301746658E+03  0.70805028493E+03  0.11747405007E+04  0.80482180376E+02 0.  0.
        -15    1    3    3    0    0  0.41460735956E+03  0.11574033299E+04  0.51148125539E+03  0.13315760606E+04  0.00000000000E+00 0.  1.
        -15    1    1    2    0    0  0.12205022477E+04  0.71703669712E+03 -0.63674331170E+03  0.15521628158E+04  0.00000000000E+00 0.  1.
         15    1    4    4    0    0 -0.47938393088E+03 -0.57695489876E+03  0.56155467376E+03  0.93703231535E+03  0.00000000000E+00 0. -1.
         15    1    1    2    0    0 -0.13247199523E+03 -0.92411022194E+03 -0.36663802332E+02  0.93427660049E+03  0.00000000000E+00 0. -1.
        -16    1    4    4    0    0 -0.86414355540E+02 -0.16606256782E+03  0.14649561117E+03  0.23770818531E+03  0.00000000000E+00 0.  1.
         16    1    1    2    0    0 -0.86380772096E+03 -0.24484282706E+03  0.46964578483E+02  0.89906476985E+03  0.00000000000E+00 0. -1.
    9900018    1    1    2    0    0 -0.73031604672E+02  0.37530488592E+02  0.35482802703E+02  0.12773551008E+03  0.91187600000E+02 0.  0.
<mgrwt>
<rscale>  0 0.59866481E+04</rscale>
<asrwt>0</asrwt>
<pdfrwt beam="1">  1        2 0.41469111E+00 0.59866481E+04</pdfrwt>
<pdfrwt beam="2">  1       -2 0.51139447E+00 0.59866481E+04</pdfrwt>
<totfact> 0.25630117E-03</totfact>
</mgrwt>
</event>
<event>
11    1  0.1098594E-015  0.3377747E+04  0.7818608E-02  0.8201096E-01
         -2   -1    0    0    0  501 -0.00000000000E+00  0.00000000000E+00  0.51203300597E+04  0.51203300597E+04  0.00000000000E+00 0.  1.
          2   -1    0    0  501    0  0.00000000000E+00 -0.00000000000E+00 -0.17459002940E+04  0.17459002940E+04  0.00000000000E+00 0. -1.
    9900016    2    1    2    0    0 -0.87505658655E+03  0.58498951541E+02  0.14012856912E+04  0.27950422151E+04  0.22537775486E+04 0.  0.
        -24    2    3    3    0    0  0.16095522205E+03 -0.91009963838E+03  0.44114173294E+03  0.10270719467E+04  0.77992434253E+02 0.  0.
        -15    1    3    3    0    0 -0.95647152507E+03  0.95081317364E+03  0.94023334885E+03  0.16440566352E+04  0.00000000000E+00 0.  1.
        -15    1    1    2    0    0  0.62220503757E+03 -0.70500116657E+03  0.23433143560E+04  0.25249332515E+04  0.00000000000E+00 0.  1.
         15    1    4    4    0    0  0.14945348177E+03 -0.66191660644E+03  0.30818610636E+03  0.74528424996E+03  0.00000000000E+00 0. -1.
         15    1    1    2    0    0  0.21976111863E+02  0.90886859856E+03  0.14814220952E+03  0.92112496068E+03  0.00000000000E+00 0. -1.
        -16    1    4    4    0    0  0.11501740288E+02 -0.24818303194E+03  0.13295562658E+03  0.28178769670E+03  0.00000000000E+00 0.  1.
         16    1    1    2    0    0  0.23087543712E+03 -0.26236638353E+03 -0.51831249101E+03  0.62512992650E+03  0.00000000000E+00 0. -1.
    9900018    1    3    3    0    0 -0.79540283538E+02  0.17785416280E+02  0.19910609429E+02  0.12391363323E+03  0.91187600000E+02 0.  0.
<mgrwt>
<rscale>  0 0.31539129E+04</rscale>
<asrwt>0</asrwt>
<pdfrwt beam="1">  1        2 0.26860005E+00 0.33777465E+04</pdfrwt>
<pdfrwt beam="2">  1       -2 0.78774308E+00 0.33777465E+04</pdfrwt>
<totfact> 0.66658252E-04</totfact>
</mgrwt>
</event>
<event>
11    1  0.1246923E-015  0.3613028E+04  0.7818608E-02  0.8440023E-01
         -2   -1    0    0    0  501 -0.00000000000E+00  0.00000000000E+00  0.22688637151E+04  0.22688637151E+04  0.00000000000E+00 0.  1.
          2   -1    0    0  501    0  0.00000000000E+00 -0.00000000000E+00 -0.22278549599E+04  0.22278549599E+04  0.00000000000E+00 0. -1.
    9900016    2    1    2    0    0 -0.49554883593E+03  0.10196712007E+03 -0.55503045681E+03  0.23593808237E+04  0.22366611547E+04 0.  0.
         24    2    3    3    0    0 -0.70263606608E+02 -0.86977911499E+03 -0.75781345973E+03  0.11590216894E+04  0.87162798935E+02 0.  0.
        -15    1    4    4    0    0  0.91299204117E+01 -0.41287762203E+03 -0.34377554889E+03  0.53733873324E+03  0.00000000000E+00 0.  1.
        -15    1    1    2    0    0 -0.20389957246E+02 -0.30864841374E+03 -0.22089330149E+02  0.31010890372E+03  0.00000000000E+00 0.  1.
         15    1    1    2    0    0 -0.20437078020E+03  0.20500451886E+03 -0.45230543268E+03  0.53700509586E+03  0.00000000000E+00 0. -1.
         15    1    3    3    0    0 -0.42434579374E+03  0.99257406512E+03  0.22839547486E+03  0.11033753307E+04  0.00000000000E+00 0. -1.
        -16    1    1    2    0    0  0.72030957338E+03  0.16767748174E+01  0.10704339748E+04  0.12902238517E+04  0.00000000000E+00 0.  1.
         16    1    4    4    0    0 -0.79393527020E+02 -0.45690149296E+03 -0.41403791084E+03  0.62168295618E+03  0.00000000000E+00 0. -1.
    9900018    1    3    3    0    0 -0.93943558183E+00 -0.20827830062E+02 -0.25612471942E+02  0.96983803581E+02  0.91187600000E+02 0.  0.
<mgrwt>
<rscale>  0 0.23986120E+04</rscale>
<asrwt>0</asrwt>
<pdfrwt beam="1">  1        2 0.34274692E+00 0.36130283E+04</pdfrwt>
<pdfrwt beam="2">  1       -2 0.34905596E+00 0.36130283E+04</pdfrwt>
<totfact> 0.62052671E-02</totfact>
</mgrwt>
</event>
<event>
11    1  0.1098594E-015  0.3452992E+04  0.7818608E-02  0.8251771E-01
         -2   -1    0    0    0  501 -0.00000000000E+00  0.00000000000E+00  0.14421293878E+04  0.14421293878E+04  0.00000000000E+00 0.  1.
          2   -1    0    0  501    0  0.00000000000E+00 -0.00000000000E+00 -0.49626644104E+04  0.49626644104E+04  0.00000000000E+00 0. -1.
    9900016    2    1    2    0    0  0.25687792773E+03 -0.54719691162E+03 -0.62628756721E+03  0.23204479479E+04  0.21510071670E+04 0.  0.
        -24    2    3    3    0    0 -0.77401915134E+03 -0.85271039886E+03 -0.40449335636E+03  0.12225955214E+04  0.70030440779E+02 0.  0.
        -15    1    1    2    0    0 -0.66268268131E+03  0.34815373409E+03  0.16931644939E+03  0.76748121717E+03  0.00000000000E+00 0.  1.
        -15    1    3    3    0    0  0.10308970791E+04  0.30551348723E+03 -0.22179421085E+03  0.10978524266E+04  0.00000000000E+00 0.  1.
         15    1    1    2    0    0  0.29382810125E+03 -0.39322384651E+03 -0.16893868640E+04  0.17592577761E+04  0.00000000000E+00 0. -1.
         15    1    4    4    0    0 -0.62888791521E+03 -0.65671212242E+03 -0.33482986657E+03  0.96895916384E+03  0.00000000000E+00 0. -1.
        -16    1    4    4    0    0 -0.14513123613E+03 -0.19599827644E+03 -0.69663489787E+02  0.25363635756E+03  0.00000000000E+00 0.  1.
         16    1    1    2    0    0  0.12807231776E+03  0.58053124837E+03 -0.13246663438E+04  0.14519504025E+04  0.00000000000E+00 0. -1.
    9900018    1    1    2    0    0 -0.16095665422E+02  0.11735775672E+02 -0.49510696893E+02  0.10565645450E+03  0.91187600000E+02 0.  0.
<mgrwt>
<rscale>  0 0.29720037E+04</rscale>
<asrwt>0</asrwt>
<pdfrwt beam="1">  1        2 0.76348683E+00 0.34529923E+04</pdfrwt>
<pdfrwt beam="2">  1       -2 0.22186606E+00 0.34529923E+04</pdfrwt>
<totfact> 0.28651739E-03</totfact>
</mgrwt>
</event>
<event>
11    1  0.1098594E-015  0.3333919E+04  0.7818608E-02  0.8281842E-01
         -2   -1    0    0    0  501 -0.00000000000E+00  0.00000000000E+00  0.22992429401E+04  0.22992429401E+04  0.00000000000E+00 0.  1.
          2   -1    0    0  501    0  0.00000000000E+00 -0.00000000000E+00 -0.32331440192E+04  0.32331440192E+04  0.00000000000E+00 0. -1.
    9900016    2    1    2    0    0 -0.89595376022E+03 -0.10419979886E+03  0.23786970140E+03  0.23481303815E+04  0.21548882930E+04 0.  0.
        -24    2    3    3    0    0  0.65029194804E+03 -0.30033991475E+03  0.31786707213E+03  0.78744261174E+03  0.77088969069E+02 0.  0.
        -15    1    3    3    0    0 -0.15462457083E+04  0.19614011589E+03 -0.79997370732E+02  0.15606877698E+04  0.00000000000E+00 0.  1.
        -15    1    1    2    0    0  0.11917707624E+03 -0.10068213677E+04 -0.77790502424E+03  0.12779001012E+04  0.00000000000E+00 0.  1.
         15    1    4    4    0    0  0.27768094280E+03 -0.86727815113E+02  0.13167913555E+03  0.31932399635E+03  0.00000000000E+00 0. -1.
         15    1    1    2    0    0  0.78275329232E+03  0.19826409680E+03 -0.41992655381E+03  0.91013717609E+03  0.00000000000E+00 0. -1.
        -16    1    4    4    0    0  0.37261100525E+03 -0.21361209964E+03  0.18618793659E+03  0.46811861539E+03  0.00000000000E+00 0.  1.
         16    1    1    2    0    0  0.22162707396E+02  0.89822017977E+03  0.11291289648E+02  0.89856450529E+03  0.00000000000E+00 0. -1.
    9900018    1    1    2    0    0 -0.28139315731E+02  0.14536889973E+02  0.14769507950E+02  0.97654795165E+02  0.91187600000E+02 0.  0.
<mgrwt>
<rscale>  0 0.28700583E+04</rscale>
<asrwt>0</asrwt>
<pdfrwt beam="1">  1        2 0.49740677E+00 0.33339189E+04</pdfrwt>
<pdfrwt beam="2">  1       -2 0.35372968E+00 0.33339189E+04</pdfrwt>
<totfact> 0.14236975E-02</totfact>
</mgrwt>
</event>
<event>
11    1  0.1098594E-015  0.4297746E+04  0.7818608E-02  0.8116355E-01
         -2   -1    0    0    0  501 -0.00000000000E+00  0.00000000000E+00  0.25532418165E+04  0.25532418165E+04  0.00000000000E+00 0.  1.
          2   -1    0    0  501    0  0.00000000000E+00 -0.00000000000E+00 -0.39431379273E+04  0.39431379273E+04  0.00000000000E+00 0. -1.
    9900016    2    1    2    0    0 -0.60201470190E+03 -0.40149180605E+03 -0.14069619249E+03  0.22743751317E+04  0.21515969533E+04 0.  0.
         24    2    3    3    0    0  0.62011739459E+03 -0.76922071285E+03 -0.11352332507E+02  0.99158082070E+03  0.82810388134E+02 0.  0.
        -15    1    1    2    0    0  0.12308864810E+03 -0.69717870577E+03  0.84816795506E+03  0.11048066994E+04  0.00000000000E+00 0.  1.
        -15    1    4    4    0    0  0.25690035929E+03 -0.32260436410E+03 -0.45512677394E+02  0.41490092088E+03  0.00000000000E+00 0.  1.
         15    1    1    2    0    0 -0.48552299754E+03 -0.21993964816E+03 -0.57292209265E+03  0.78252524191E+03  0.00000000000E+00 0. -1.
         15    1    3    3    0    0 -0.12221320965E+04  0.36772890680E+03 -0.12934385998E+03  0.12827943110E+04  0.00000000000E+00 0. -1.
        -16    1    1    2    0    0  0.98236533772E+03  0.13445405830E+04 -0.14824077241E+04  0.22294312496E+04  0.00000000000E+00 0.  1.
         16    1    4    4    0    0  0.36321703530E+03 -0.44661634875E+03  0.34160344886E+02  0.57667989982E+03  0.00000000000E+00 0. -1.
    9900018    1    1    2    0    0 -0.17916286384E+02 -0.25930423048E+02 -0.42038056573E+02  0.10524142127E+03  0.91187600000E+02 0.  0.
<mgrwt>
<rscale>  0 0.34891977E+04</rscale>
<asrwt>0</asrwt>
<pdfrwt beam="1">  1        2 0.60663660E+00 0.42977464E+04</pdfrwt>
<pdfrwt beam="2">  1       -2 0.39280644E+00 0.42977464E+04</pdfrwt>
<totfact> 0.22642895E-03</totfact>
</mgrwt>
</event>
<event>
11    1  0.1098594E-015  0.4612463E+04  0.7818608E-02  0.7891238E-01
         -2   -1    0    0    0  501 -0.00000000000E+00  0.00000000000E+00  0.17748147497E+04  0.17748147497E+04  0.00000000000E+00 0.  1.
          2   -1    0    0  501    0  0.00000000000E+00 -0.00000000000E+00 -0.29967654868E+04  0.29967654868E+04  0.00000000000E+00 0. -1.
    9900016    2    1    2    0    0 -0.14578185091E+03 -0.11452987138E+04 -0.45896436307E+03  0.25628397925E+04  0.22415481309E+04 0.  0.
         24    2    3    3    0    0  0.99838818218E+03 -0.70801801276E+03 -0.31719643321E+03  0.12669474369E+04  0.80459690960E+02 0.  0.
        -15    1    4    4    0    0  0.80033229608E+03 -0.53749369016E+03 -0.27210290336E+03  0.10017341170E+04  0.00000000000E+00 0.  1.
        -15    1    1    2    0    0 -0.56744339531E+02  0.17329836200E+03  0.29237822525E+03  0.34458274615E+03  0.00000000000E+00 0.  1.
         15    1    3    3    0    0 -0.11129334254E+04 -0.38295619905E+03 -0.11948500390E+03  0.11830270183E+04  0.00000000000E+00 0. -1.
         15    1    1    2    0    0  0.14327540977E+03  0.62175614652E+03 -0.12894960499E+04  0.14387176969E+04  0.00000000000E+00 0. -1.
        -16    1    1    2    0    0  0.59250780668E+02  0.35024420530E+03  0.23413145060E+03  0.42544000108E+03  0.00000000000E+00 0.  1.
         16    1    4    4    0    0  0.19805588610E+03 -0.17052432260E+03 -0.45093529847E+02  0.26521331990E+03  0.00000000000E+00 0. -1.
    9900018    1    3    3    0    0 -0.31236607635E+02 -0.54324502005E+02 -0.22282925967E+02  0.11286533727E+03  0.91187600000E+02 0.  0.
<mgrwt>
<rscale>  0 0.46124629E+04</rscale>
<asrwt>0</asrwt>
<pdfrwt beam="1">  1        2 0.46104084E+00 0.46124629E+04</pdfrwt>
<pdfrwt beam="2">  1       -2 0.27304843E+00 0.46124629E+04</pdfrwt>
<totfact> 0.60957857E-02</totfact>
</mgrwt>
</event>
<event>
11    1  0.1098594E-015  0.3934179E+04  0.7818608E-02  0.8187962E-01
         -2   -1    0    0    0  501 -0.00000000000E+00  0.00000000000E+00  0.41027249640E+04  0.41027249640E+04  0.00000000000E+00 0.  1.
          2   -1    0    0  501    0  0.00000000000E+00 -0.00000000000E+00 -0.21412746010E+04  0.21412746010E+04  0.00000000000E+00 0. -1.
    9900016    2    1    2    0    0  0.80160158783E+03 -0.52370447530E+03  0.11272428283E+04  0.26176133766E+04  0.21597203320E+04 0.  0.
         24    2    3    3    0    0  0.79554570737E+03 -0.11738152987E+04  0.12871351979E+03  0.14260843018E+04  0.80087063189E+02 0.  0.
        -15    1    1    2    0    0 -0.38159551671E+03 -0.39654020893E+03 -0.15976307706E+03  0.57304756911E+03  0.00000000000E+00 0.  1.
        -15    1    4    4    0    0  0.16731379598E+03 -0.20283613202E+03  0.49127015312E+01  0.26298391094E+03  0.00000000000E+00 0.  1.
         15    1    3    3    0    0  0.60558804636E+01  0.65011082335E+03  0.99852930847E+03  0.11915290748E+04  0.00000000000E+00 0. -1.
         15    1    1    2    0    0  0.95749649812E+03  0.67003938657E+03 -0.64411697612E+02  0.11704277809E+04  0.00000000000E+00 0. -1.
        -16    1    1    2    0    0 -0.14248977965E+04  0.24841426199E+03  0.10319411667E+04  0.17767796564E+04  0.00000000000E+00 0.  1.
         16    1    4    4    0    0  0.62823191138E+03 -0.97097916663E+03  0.12380081826E+03  0.11631003908E+04  0.00000000000E+00 0. -1.
    9900018    1    1    2    0    0  0.47395227234E+02  0.17910356815E+01  0.26441142639E+02  0.10613118199E+03  0.91187600000E+02 0.  0.
<mgrwt>
<rscale>  0 0.32032401E+04</rscale>
<asrwt>0</asrwt>
<pdfrwt beam="1">  1        2 0.32942686E+00 0.39341786E+04</pdfrwt>
<pdfrwt beam="2">  1       -2 0.63118845E+00 0.39341786E+04</pdfrwt>
<totfact> 0.16216376E-03</totfact>
</mgrwt>
</event>
<event>
11    1  0.1098594E-015  0.2848978E+04  0.7818608E-02  0.8390249E-01
         -2   -1    0    0    0  501 -0.00000000000E+00  0.00000000000E+00  0.20715549808E+04  0.20715549808E+04  0.00000000000E+00 0.  1.
          2   -1    0    0  501    0  0.00000000000E+00 -0.00000000000E+00 -0.26260442195E+04  0.26260442195E+04  0.00000000000E+00 0. -1.
    9900016    2    1    2    0    0  0.83505340126E+03 -0.44954826261E+03 -0.37669942877E+03  0.24688575347E+04  0.22480985841E+04 0.  0.
         24    2    3    3    0    0 -0.64347790286E+03 -0.54221941270E+03  0.98792729521E+02  0.85159498144E+03  0.85955256012E+02 0.  0.
        -15    1    1    2    0    0  0.21812978836E+03 -0.85762571324E+02  0.37491456947E+03  0.44215015279E+03  0.00000000000E+00 0.  1.
        -15    1    4    4    0    0 -0.20164627839E+03 -0.19038125117E+03 -0.48334925851E+01  0.27736186659E+03  0.00000000000E+00 0.  1.
         15    1    1    2    0    0 -0.10942024696E+04  0.28166299019E+03 -0.83495308107E+03  0.14049055954E+04  0.00000000000E+00 0. -1.
         15    1    3    3    0    0  0.14395545308E+04  0.70219276495E+02 -0.41895756939E+03  0.15009241950E+04  0.00000000000E+00 0. -1.
        -16    1    1    2    0    0  0.41019279936E+02  0.25364784374E+03  0.28224870170E+03  0.38168591744E+03  0.00000000000E+00 0.  1.
         16    1    4    4    0    0 -0.44183162447E+03 -0.35183816153E+03  0.10362622211E+03  0.57423311485E+03  0.00000000000E+00 0. -1.
    9900018    1    3    3    0    0  0.38976773271E+02  0.22451873594E+02 -0.56534588900E+02  0.11633835833E+03  0.91187600000E+02 0.  0.
<mgrwt>
<rscale>  0 0.25360642E+04</rscale>
<asrwt>0</asrwt>
<pdfrwt beam="1">  1        2 0.40400680E+00 0.28489782E+04</pdfrwt>
<pdfrwt beam="2">  1       -2 0.31870077E+00 0.28489782E+04</pdfrwt>
<totfact> 0.59020900E-02</totfact>
</mgrwt>
</event>
<event>
11    1  0.1098594E-015  0.4702962E+04  0.7818608E-02  0.7876037E-01
          2   -1    0    0  501    0  0.00000000000E+00  0.00000000000E+00  0.17786923886E+04  0.17786923886E+04  0.00000000000E+00 0.  1.
         -2   -1    0    0    0  501 -0.00000000000E+00 -0.00000000000E+00 -0.31087238919E+04  0.31087238919E+04  0.00000000000E+00 0. -1.
    9900016    2    1    2    0    0  0.76502562892E+03  0.83721044468E+03 -0.74030348098E+03  0.26295697954E+04  0.22539748276E+04 0.  0.
        -24    2    3    3    0    0  0.85454145509E+03 -0.56632655682E+03 -0.20669068825E+03  0.10488166457E+04  0.79551544149E+02 0.  0.
        -15    1    1    2    0    0 -0.15345625253E+02  0.27625045509E+03  0.39426358176E+03  0.48165711253E+03  0.00000000000E+00 0.  1.
        -15    1    3    3    0    0 -0.18063735685E+03  0.13244084092E+04 -0.47613433326E+03  0.14189402356E+04  0.00000000000E+00 0.  1.
         15    1    1    2    0    0 -0.40096884583E+03 -0.58623363086E+03 -0.14361374645E+03  0.72461768778E+03  0.00000000000E+00 0. -1.
         15    1    4    4    0    0  0.29779226638E+03 -0.23267597815E+03 -0.51040654922E+02  0.38134432365E+03  0.00000000000E+00 0. -1.
        -16    1    4    4    0    0  0.55674918871E+03 -0.33365057867E+03 -0.15565003333E+03  0.66747232201E+03  0.00000000000E+00 0.  1.
         16    1    1    2    0    0 -0.34871115783E+03 -0.52722726891E+03 -0.84037785758E+03  0.10515716848E+04  0.00000000000E+00 0. -1.
    9900018    1    3    3    0    0  0.91121530685E+02  0.79128592328E+02 -0.57478459474E+02  0.16181291412E+03  0.91187600000E+02 0.  0.
<mgrwt>
<rscale>  0 0.47029623E+04</rscale>
<asrwt>0</asrwt>
<pdfrwt beam="1">  1        2 0.27364499E+00 0.47029623E+04</pdfrwt>
<pdfrwt beam="2">  1       -2 0.47826520E+00 0.47029623E+04</pdfrwt>
<totfact> 0.15029971E-02</totfact>
</mgrwt>
</event>
<event>
11    1  0.1098594E-015  0.3696689E+04  0.7818608E-02  0.8220480E-01
         -1   -1    0    0    0  501 -0.00000000000E+00  0.00000000000E+00  0.28352012034E+04  0.28352012034E+04  0.00000000000E+00 0.  1.
          1   -1    0    0  501    0  0.00000000000E+00 -0.00000000000E+00 -0.28626893720E+04  0.28626893720E+04  0.00000000000E+00 0. -1.
    9900016    2    1    2    0    0 -0.43015321453E+03  0.62299829000E+03  0.39325257301E+03  0.23113404033E+04  0.21481359865E+04 0.  0.
        -24    2    3    3    0    0  0.32059298380E+03  0.90411532468E+03  0.93650442597E+03  0.13429555536E+04  0.79276083730E+02 0.  0.
        -15    1    3    3    0    0 -0.75074619832E+03 -0.28111703468E+03 -0.54325185296E+03  0.96838484975E+03  0.00000000000E+00 0.  1.
        -15    1    1    2    0    0  0.73459160862E+03 -0.82218379466E+03  0.43267010371E+03  0.11844046784E+04  0.00000000000E+00 0.  1.
         15    1    1    2    0    0  0.31285007601E+03  0.60959757085E+03  0.28559112937E+03  0.74232517243E+03  0.00000000000E+00 0. -1.
         15    1    4    4    0    0  0.58129632391E+02  0.16636580084E+03  0.21696768624E+03  0.27952032256E+03  0.00000000000E+00 0. -1.
        -16    1    4    4    0    0  0.26246335141E+03  0.73774952384E+03  0.71953673973E+03  0.10634352310E+04  0.00000000000E+00 0.  1.
         16    1    1    2    0    0 -0.63577015110E+03 -0.43691523774E+03 -0.11219763148E+04  0.13615907833E+04  0.00000000000E+00 0. -1.
    9900018    1    1    2    0    0  0.18481681005E+02  0.26503171549E+02 -0.17025659794E+02  0.98229537921E+02  0.91187600000E+02 0.  0.
<mgrwt>
<rscale>  0 0.30827773E+04</rscale>
<asrwt>0</asrwt>
<pdfrwt beam="1">  1        1 0.44041375E+00 0.36966892E+04</pdfrwt>
<pdfrwt beam="2">  1       -1 0.43618480E+00 0.36966892E+04</pdfrwt>
<totfact> 0.22950415E-03</totfact>
</mgrwt>
</event>
<event>
11    1  0.1098594E-015  0.3399168E+04  0.7818608E-02  0.8310319E-01
          2   -1    0    0  501    0  0.00000000000E+00  0.00000000000E+00  0.25541842211E+04  0.25541842211E+04  0.00000000000E+00 0. -1.
         -2   -1    0    0    0  501 -0.00000000000E+00 -0.00000000000E+00 -0.27478669815E+04  0.27478669815E+04  0.00000000000E+00 0.  1.
    9900016    2    1    2    0    0 -0.59365280985E+03  0.72344240909E+02  0.54573861006E+03  0.23074925325E+04  0.21607947170E+04 0.  0.
        -24    2    3    3    0    0 -0.32857614559E+03 -0.22347752389E+03  0.13505348774E+04  0.14100109524E+04  0.79258713679E+02 0.  0.
        -15    1    1    2    0    0  0.86872883669E+02 -0.10472479935E+04 -0.66361792589E+03  0.12428451269E+04  0.00000000000E+00 0.  1.
        -15    1    3    3    0    0 -0.26507666426E+03  0.29582176480E+03 -0.80479626739E+03  0.89748158001E+03  0.00000000000E+00 0.  1.
         15    1    1    2    0    0  0.45519111332E+03 -0.87940835706E+02 -0.32766925295E+03  0.56771443487E+03  0.00000000000E+00 0. -1.
         15    1    4    4    0    0 -0.28096154868E+03 -0.17135819588E+03  0.10109685454E+04  0.10631840964E+04  0.00000000000E+00 0. -1.
        -16    1    4    4    0    0 -0.47614596911E+02 -0.52119328013E+02  0.33956633204E+03  0.34682685601E+03  0.00000000000E+00 0.  1.
         16    1    1    2    0    0  0.71342997424E+02  0.10605147554E+04  0.22053802437E+03  0.10855498100E+04  0.00000000000E+00 0. -1.
    9900018    1    1    2    0    0 -0.19754184561E+02  0.23298329000E+01  0.31327784007E+02  0.98449298492E+02  0.91187600000E+02 0.  0.
<mgrwt>
<rscale>  0 0.27774006E+04</rscale>
<asrwt>0</asrwt>
<pdfrwt beam="1">  1        2 0.39295142E+00 0.33991677E+04</pdfrwt>
<pdfrwt beam="2">  1       -2 0.42274877E+00 0.33991677E+04</pdfrwt>
<totfact> 0.13323883E-02</totfact>
</mgrwt>
</event>
<event>
11    1  0.1098594E-015  0.6425180E+04  0.7818608E-02  0.7639809E-01
         -2   -1    0    0    0  501 -0.00000000000E+00  0.00000000000E+00  0.25925473543E+04  0.25925473543E+04  0.00000000000E+00 0.  1.
          2   -1    0    0  501    0  0.00000000000E+00 -0.00000000000E+00 -0.39809236178E+04  0.39809236178E+04  0.00000000000E+00 0. -1.
    9900016    2    1    2    0    0  0.10017541600E+04  0.62404395100E+03 -0.52123382605E+03  0.25050961847E+04  0.21472959609E+04 0.  0.
         24    2    3    3    0    0  0.15612851614E+04  0.90247654420E+03 -0.52573324056E+03  0.18801002686E+04  0.79412290304E+02 0.  0.
        -15    1    1    2    0    0 -0.10320312356E+04 -0.92079699623E+02  0.46929572981E+03  0.11374557681E+04  0.00000000000E+00 0.  1.
        -15    1    4    4    0    0  0.49548705360E+03  0.24418583610E+03 -0.16254326946E+03  0.57580765650E+03  0.00000000000E+00 0.  1.
         15    1    3    3    0    0 -0.55953100138E+03 -0.27843259320E+03  0.44994145045E+01  0.62499591614E+03  0.00000000000E+00 0. -1.
         15    1    1    2    0    0  0.72047272470E+03  0.22482378046E+03  0.37468084807E+03  0.84262234554E+03  0.00000000000E+00 0. -1.
        -16    1    1    2    0    0 -0.70870914025E+03 -0.73191180769E+03 -0.17117289894E+04  0.19919788335E+04  0.00000000000E+00 0.  1.
         16    1    4    4    0    0  0.10657981078E+04  0.65829070810E+03 -0.36318997110E+03  0.13042926121E+04  0.00000000000E+00 0. -1.
    9900018    1    1    2    0    0  0.18513491204E+02 -0.24876224141E+02  0.60997406952E+00  0.96317840228E+02  0.91187600000E+02 0.  0.
<mgrwt>
<rscale>  0 0.64251795E+04</rscale>
<asrwt>0</asrwt>
<pdfrwt beam="1">  1        2 0.61244979E+00 0.64251795E+04</pdfrwt>
<pdfrwt beam="2">  1       -2 0.39885344E+00 0.64251795E+04</pdfrwt>
<totfact> 0.17368335E-03</totfact>
</mgrwt>
</event>
<event>
11    1  0.1098594E-015  0.4372500E+04  0.7818608E-02  0.8131017E-01
          2   -1    0    0  501    0  0.00000000000E+00  0.00000000000E+00  0.39460852053E+04  0.39460852053E+04  0.00000000000E+00 0.  1.
         -2   -1    0    0    0  501 -0.00000000000E+00 -0.00000000000E+00 -0.23014250475E+04  0.23014250475E+04  0.00000000000E+00 0. -1.
    9900016    2    1    2    0    0  0.16674114295E+03  0.44627772188E+03 -0.80232890797E+03  0.24315079434E+04  0.22453357852E+04 0.  0.
         24    2    3    3    0    0  0.88868991719E+03 -0.48675225971E+03 -0.44542090034E+03  0.11096776161E+04  0.79291247728E+02 0.  0.
        -15    1    4    4    0    0  0.17667597540E+03 -0.11280445784E+03 -0.61178058799E+02  0.21836208661E+03  0.00000000000E+00 0.  1.
        -15    1    1    2    0    0  0.19843757287E+03 -0.20216694456E+03  0.84281840701E+03  0.88915229910E+03  0.00000000000E+00 0.  1.
         15    1    3    3    0    0 -0.75927646746E+03  0.87148436164E+03 -0.31140236981E+03  0.11970618959E+04  0.00000000000E+00 0. -1.
         15    1    1    2    0    0  0.27731602436E+03 -0.73526631401E+03 -0.31317056648E+03  0.84592939043E+03  0.00000000000E+00 0. -1.
        -16    1    1    2    0    0 -0.64249474018E+03  0.49115553669E+03  0.19173412252E+04  0.20809206199E+04  0.00000000000E+00 0.  1.
         16    1    4    4    0    0  0.71201394179E+03 -0.37394780187E+03 -0.38424284155E+03  0.89131552949E+03  0.00000000000E+00 0. -1.
    9900018    1    3    3    0    0  0.37327693229E+02  0.61545619958E+02 -0.45505637818E+02  0.12476843144E+03  0.91187600000E+02 0.  0.
<mgrwt>
<rscale>  0 0.34282095E+04</rscale>
<asrwt>0</asrwt>
<pdfrwt beam="1">  1        2 0.60709003E+00 0.43725003E+04</pdfrwt>
<pdfrwt beam="2">  1       -2 0.35406539E+00 0.43725003E+04</pdfrwt>
<totfact> 0.40096985E-03</totfact>
</mgrwt>
</event>
<event>
11    1  0.1098594E-015  0.2831682E+04  0.7818608E-02  0.8606683E-01
         -2   -1    0    0    0  501 -0.00000000000E+00  0.00000000000E+00  0.18806765228E+04  0.18806765228E+04  0.00000000000E+00 0. -1.
          2   -1    0    0  501    0  0.00000000000E+00 -0.00000000000E+00 -0.19618519509E+04  0.19618519509E+04  0.00000000000E+00 0.  1.
    9900016    2    1    2    0    0  0.28792828392E+03  0.15540086298E+02 -0.78732417103E+03  0.23990066901E+04  0.22477120719E+04 0.  0.
        -24    2    3    3    0    0 -0.87178919769E+03  0.12078974426E+03 -0.74826184060E+03  0.11581122881E+04  0.81986109652E+02 0.  0.
        -15    1    1    2    0    0  0.72526135748E+02  0.18569357103E+03 -0.82289374886E+02  0.21567031300E+03  0.00000000000E+00 0.  1.
        -15    1    3    3    0    0  0.11422882224E+04 -0.86454100757E+02 -0.36724107231E+02  0.11461436884E+04  0.00000000000E+00 0.  1.
         15    1    1    2    0    0 -0.36292072669E+02  0.18563773242E+03  0.68760794914E+03  0.71315017630E+03  0.00000000000E+00 0. -1.
         15    1    4    4    0    0 -0.31335649926E+03  0.31234206736E+02 -0.21943604654E+03  0.38382294072E+03  0.00000000000E+00 0. -1.
        -16    1    4    4    0    0 -0.55843269843E+03  0.89555537524E+02 -0.52882579406E+03  0.77428934737E+03  0.00000000000E+00 0.  1.
         16    1    1    2    0    0 -0.32416234700E+03 -0.38687138975E+03  0.10083016873E+03  0.51470129429E+03  0.00000000000E+00 0. -1.
    9900018    1    3    3    0    0  0.17429259252E+02 -0.18795557205E+02 -0.23382231924E+01  0.94750713613E+02  0.91187600000E+02 0.  0.
<mgrwt>
<rscale>  0 0.19998665E+04</rscale>
<asrwt>0</asrwt>
<pdfrwt beam="1">  1        2 0.30182337E+00 0.28316815E+04</pdfrwt>
<pdfrwt beam="2">  1       -2 0.28933485E+00 0.28316815E+04</pdfrwt>
<totfact> 0.21787150E-01</totfact>
</mgrwt>
</event>
<event>
11    1  0.1098594E-015  0.3010957E+04  0.7818608E-02  0.8240609E-01
         -2   -1    0    0    0  501 -0.00000000000E+00  0.00000000000E+00  0.85513211643E+03  0.85513211643E+03  0.00000000000E+00 0. -1.
          2   -1    0    0  501    0  0.00000000000E+00 -0.00000000000E+00 -0.26504274535E+04  0.26504274535E+04  0.00000000000E+00 0.  1.
    9900016    2    1    2    0    0  0.24793275180E+03 -0.10098157090E+03 -0.17987355269E+04  0.28846290541E+04  0.22391889954E+04 0.  0.
        -24    2    3    3    0    0  0.79990821484E+02 -0.96831079233E+03 -0.19250210809E+03  0.99373780585E+03  0.80208747078E+02 0.  0.
        -15    1    3    3    0    0  0.13730651391E+03  0.87525350240E+03 -0.15295737965E+04  0.17676305528E+04  0.00000000000E+00 0.  1.
        -15    1    1    2    0    0 -0.30674926281E+03  0.14883021341E+02 -0.11742063008E+03  0.32879206031E+03  0.00000000000E+00 0.  1.
         15    1    1    2    0    0  0.96391726987E+02  0.11572195271E+03 -0.11841555548E+02  0.15107335241E+03  0.00000000000E+00 0. -1.
         15    1    4    4    0    0 -0.11527086370E+02 -0.18983786559E+03 -0.54558963315E+02  0.19785845802E+03  0.00000000000E+00 0. -1.
        -16    1    4    4    0    0  0.91517907854E+02 -0.77847292673E+03 -0.13794314478E+03  0.79587934783E+03  0.00000000000E+00 0.  1.
         16    1    1    2    0    0 -0.37575215979E+02 -0.29623403149E+02  0.13270237542E+03  0.14106510310E+03  0.00000000000E+00 0. -1.
    9900018    1    3    3    0    0  0.30635416402E+02 -0.79242809814E+01 -0.76659622327E+02  0.12326069550E+03  0.91187600000E+02 0.  0.
<mgrwt>
<rscale>  0 0.30109571E+04</rscale>
<asrwt>0</asrwt>
<pdfrwt beam="1">  1        2 0.40775806E+00 0.30109571E+04</pdfrwt>
<pdfrwt beam="2">  1       -2 0.13155879E+00 0.30109571E+04</pdfrwt>
<totfact> 0.10237545E+00</totfact>
</mgrwt>
</event>
<event>
11    1  0.1098594E-015  0.2872045E+04  0.7818608E-02  0.8455539E-01
          2   -1    0    0  501    0  0.00000000000E+00  0.00000000000E+00  0.24276801889E+04  0.24276801889E+04  0.00000000000E+00 0.  1.
         -2   -1    0    0    0  501 -0.00000000000E+00 -0.00000000000E+00 -0.18236616561E+04  0.18236616561E+04  0.00000000000E+00 0. -1.
    9900016    2    1    2    0    0  0.33646237140E+03  0.17046512499E+03  0.56961117958E+03  0.22610205528E+04  0.21553402882E+04 0.  0.
         24    2    3    3    0    0  0.92257952345E+03 -0.68240820161E+03  0.35687753448E+03  0.12045254837E+04  0.81768793674E+02 0.  0.
        -15    1    1    2    0    0 -0.32800719393E+02 -0.38186457198E+03  0.29544249591E+03  0.48392427808E+03  0.00000000000E+00 0.  1.
        -15    1    4    4    0    0  0.67636151623E+03 -0.48691425433E+03  0.29525749064E+03  0.88415348073E+03  0.00000000000E+00 0.  1.
         15    1    1    2    0    0 -0.18932317932E+02  0.74368019533E+03 -0.34797683667E+03  0.82128347387E+03  0.00000000000E+00 0. -1.
         15    1    3    3    0    0 -0.58611715205E+03  0.85287332660E+03  0.21273364510E+03  0.10564950690E+04  0.00000000000E+00 0. -1.
        -16    1    1    2    0    0 -0.26058434960E+03 -0.52312730837E+03  0.66995615357E+02  0.58826422337E+03  0.00000000000E+00 0.  1.
         16    1    4    4    0    0  0.24621800722E+03 -0.19549394729E+03  0.61620043844E+02  0.32037200301E+03  0.00000000000E+00 0. -1.
    9900018    1    1    2    0    0 -0.24144984482E+02 -0.91534399730E+01  0.19946078595E+02  0.96849316900E+02  0.91187600000E+02 0.  0.
<mgrwt>
<rscale>  0 0.23576284E+04</rscale>
<asrwt>0</asrwt>
<pdfrwt beam="1">  1        2 0.37348926E+00 0.28720453E+04</pdfrwt>
<pdfrwt beam="2">  1       -2 0.28056333E+00 0.28720453E+04</pdfrwt>
<totfact> 0.13304960E-01</totfact>
</mgrwt>
</event>
<event>
11    1  0.1098594E-015  0.3460955E+04  0.7818608E-02  0.8439551E-01
         -2   -1    0    0    0  501 -0.00000000000E+00  0.00000000000E+00  0.25967288524E+04  0.25967288524E+04  0.00000000000E+00 0. -1.
          2   -1    0    0  501    0  0.00000000000E+00 -0.00000000000E+00 -0.18458821831E+04  0.18458821831E+04  0.00000000000E+00 0.  1.
    9900016    2    1    2    0    0  0.23948979528E+03 -0.27692542035E+02  0.10725563563E+04  0.25031274578E+04  0.22488102841E+04 0.  0.
         24    2    3    3    0    0  0.13851339616E+03 -0.82236098495E+03  0.12787273614E+04  0.15286923926E+04  0.79329792723E+02 0.  0.
        -15    1    1    2    0    0 -0.38778812344E+03 -0.24670212110E+02 -0.88124651619E+03  0.96311145271E+03  0.00000000000E+00 0.  1.
        -15    1    4    4    0    0  0.51749212948E+02 -0.47692401357E+03  0.68366609101E+03  0.83518490154E+03  0.00000000000E+00 0.  1.
         15    1    3    3    0    0  0.11997216960E+03  0.78606007410E+03 -0.29239286333E+03  0.84721741490E+03  0.00000000000E+00 0. -1.
         15    1    1    2    0    0  0.34895348766E+03  0.58192237976E+02  0.66229559866E+03  0.75085972932E+03  0.00000000000E+00 0. -1.
        -16    1    1    2    0    0 -0.20065515950E+03 -0.58294838311E+01 -0.10275876944E+03  0.22551239570E+03  0.00000000000E+00 0.  1.
         16    1    4    4    0    0  0.86764183212E+02 -0.34543697138E+03  0.59506127039E+03  0.69350749109E+03  0.00000000000E+00 0. -1.
    9900018    1    3    3    0    0 -0.18995770478E+02  0.86083688161E+01  0.86221858255E+02  0.12721765029E+03  0.91187600000E+02 0.  0.
<mgrwt>
<rscale>  0 0.23998730E+04</rscale>
<asrwt>0</asrwt>
<pdfrwt beam="1">  1        2 0.28398187E+00 0.34609555E+04</pdfrwt>
<pdfrwt beam="2">  1       -2 0.39949675E+00 0.34609555E+04</pdfrwt>
<totfact> 0.48650298E-02</totfact>
</mgrwt>
</event>
<event>
11    1  0.1098594E-015  0.4035844E+04  0.7818608E-02  0.8067500E-01
          2   -1    0    0  501    0  0.00000000000E+00  0.00000000000E+00  0.30887379047E+04  0.30887379047E+04  0.00000000000E+00 0. -1.
         -2   -1    0    0    0  501 -0.00000000000E+00 -0.00000000000E+00 -0.40012688775E+04  0.40012688775E+04  0.00000000000E+00 0.  1.
    9900016    2    1    2    0    0 -0.13170206587E+04 -0.49536909752E+03 -0.11055110309E+04  0.28832365826E+04  0.22607442566E+04 0.  0.
        -24    2    3    3    0    0 -0.17277363919E+04 -0.44175849884E+03 -0.13144347522E+04  0.22166836163E+04  0.75656630971E+02 0.  0.
        -15    1    1    2    0    0  0.11944871892E+04  0.74929766517E+03  0.89226972639E+03  0.16686497238E+04  0.00000000000E+00 0.  1.
        -15    1    3    3    0    0  0.41702230493E+03 -0.28190801381E+02  0.31563638425E+03  0.52376392693E+03  0.00000000000E+00 0.  1.
         15    1    4    4    0    0 -0.76806179627E+03 -0.17993891414E+03 -0.62372645641E+03  0.10056498536E+04  0.00000000000E+00 0. -1.
         15    1    1    2    0    0 -0.68843347677E+03  0.79764383751E+03 -0.58524379276E+03  0.12052745083E+04  0.00000000000E+00 0. -1.
        -16    1    4    4    0    0 -0.95967459564E+03 -0.26181958470E+03 -0.69070829584E+03  0.12110337627E+04  0.00000000000E+00 0.  1.
         16    1    1    2    0    0  0.81096694628E+03 -0.10515724052E+04 -0.11404587558E+03  0.13328459675E+04  0.00000000000E+00 0. -1.
    9900018    1    3    3    0    0 -0.63065717017E+01 -0.25419797302E+02 -0.10671266290E+03  0.14278903935E+03  0.91187600000E+02 0.  0.
<mgrwt>
<rscale>  0 0.37020854E+04</rscale>
<asrwt>0</asrwt>
<pdfrwt beam="1">  1        2 0.47519045E+00 0.40358435E+04</pdfrwt>
<pdfrwt beam="2">  1       -2 0.61557982E+00 0.40358435E+04</pdfrwt>
<totfact> 0.49039019E-04</totfact>
</mgrwt>
</event>
<event>
11    1  0.1098594E-015  0.3072952E+04  0.7818608E-02  0.8483259E-01
          2   -1    0    0  501    0  0.00000000000E+00  0.00000000000E+00  0.25313232953E+04  0.25313232953E+04  0.00000000000E+00 0. -1.
         -2   -1    0    0    0  501 -0.00000000000E+00 -0.00000000000E+00 -0.17309050631E+04  0.17309050631E+04  0.00000000000E+00 0.  1.
    9900016    2    1    2    0    0 -0.21034245217E+03  0.82602823981E+03  0.10842463862E+04  0.26344375790E+04  0.22445722380E+04 0.  0.
        -24    2    3    3    0    0  0.74507996275E+03  0.35005523933E+03 -0.25717392645E+03  0.86609417647E+03  0.79359136803E+02 0.  0.
        -15    1    3    3    0    0 -0.91993019368E+03  0.48183930316E+03  0.12947758648E+04  0.16597846894E+04  0.00000000000E+00 0.  1.
        -15    1    1    2    0    0  0.62904785755E+03 -0.42628351682E+03 -0.42259102837E+03  0.86948376699E+03  0.00000000000E+00 0.  1.
         15    1    4    4    0    0  0.50181985339E+03  0.21344713797E+03 -0.13670037497E+03  0.56220088801E+03  0.00000000000E+00 0. -1.
         15    1    1    2    0    0  0.20816019090E+02  0.56996750727E+02  0.10777120057E+03  0.12367929462E+03  0.00000000000E+00 0. -1.
        -16    1    4    4    0    0  0.24326010937E+03  0.13660810136E+03 -0.12047355149E+03  0.30389328847E+03  0.00000000000E+00 0.  1.
         16    1    1    2    0    0 -0.43952142448E+03 -0.45674147372E+03  0.30991673851E+02  0.63462771783E+03  0.00000000000E+00 0. -1.
    9900018    1    3    3    0    0 -0.35492221239E+02 -0.58663026784E+01  0.46644447879E+02  0.10855871309E+03  0.91187600000E+02 0.  0.
<mgrwt>
<rscale>  0 0.22865107E+04</rscale>
<asrwt>0</asrwt>
<pdfrwt beam="1">  1        2 0.38943435E+00 0.30729517E+04</pdfrwt>
<pdfrwt beam="2">  1       -2 0.26629309E+00 0.30729517E+04</pdfrwt>
<totfact> 0.13998946E-01</totfact>
</mgrwt>
</event>
<event>
11    1  0.1098594E-015  0.3254578E+04  0.7818608E-02  0.8364508E-01
         -2   -1    0    0    0  501 -0.00000000000E+00  0.00000000000E+00  0.30599533172E+04  0.30599533172E+04  0.00000000000E+00 0.  1.
          2   -1    0    0  501    0  0.00000000000E+00 -0.00000000000E+00 -0.20543406205E+04  0.20543406205E+04  0.00000000000E+00 0. -1.
    9900016    2    1    2    0    0 -0.13625952022E+03 -0.55934364861E+02  0.19990258374E+04  0.30146734904E+04  0.22517674492E+04 0.  0.
        -24    2    3    3    0    0  0.97779840333E+03  0.86979730646E+02  0.12077844364E+04  0.15585098590E+04  0.80960142510E+02 0.  0.
        -15    1    3    3    0    0 -0.11157357457E+04 -0.10133850043E+03  0.74746468465E+03  0.13467884766E+04  0.00000000000E+00 0.  1.
        -15    1    1    2    0    0 -0.27049012844E+03  0.53771299862E+03  0.20233832265E+03  0.63501257884E+03  0.00000000000E+00 0.  1.
         15    1    1    2    0    0  0.22634114379E+03 -0.28699044992E+02 -0.81375144426E+03  0.84513038142E+03  0.00000000000E+00 0. -1.
         15    1    4    4    0    0  0.71881160037E+03  0.31363539217E+02  0.85819851860E+03  0.11199011053E+04  0.00000000000E+00 0. -1.
        -16    1    4    4    0    0  0.25898680296E+03  0.55616191429E+02  0.34958591781E+03  0.43860875366E+03  0.00000000000E+00 0.  1.
         16    1    1    2    0    0  0.18040850487E+03 -0.45307958877E+03 -0.38200001910E+03  0.61947748707E+03  0.00000000000E+00 0. -1.
    9900018    1    3    3    0    0  0.16778221762E+01 -0.41575595072E+02  0.43776716331E+02  0.10937515476E+03  0.91187600000E+02 0.  0.
<mgrwt>
<rscale>  0 0.26109006E+04</rscale>
<asrwt>0</asrwt>
<pdfrwt beam="1">  1        2 0.31605240E+00 0.32545784E+04</pdfrwt>
<pdfrwt beam="2">  1       -2 0.47076205E+00 0.32545784E+04</pdfrwt>
<totfact> 0.12567073E-02</totfact>
</mgrwt>
</event>
<event>
11    1  0.1098594E-015  0.4160181E+04  0.7818608E-02  0.8102983E-01
          1   -1    0    0  501    0  0.00000000000E+00  0.00000000000E+00  0.41172866978E+04  0.41172866978E+04  0.00000000000E+00 0. -1.
         -1   -1    0    0    0  501 -0.00000000000E+00 -0.00000000000E+00 -0.29169977539E+04  0.29169977539E+04  0.00000000000E+00 0.  1.
    9900016    2    1    2    0    0 -0.10100875710E+04  0.12022889907E+04  0.32272935989E+03  0.26796310571E+04  0.21472057760E+04 0.  0.
        -24    2    3    3    0    0 -0.10372913156E+04  0.64275308660E+03 -0.77460900207E+03  0.14475710130E+04  0.79611103674E+02 0.  0.
        -15    1    1    2    0    0  0.43760171550E+03 -0.10363021488E+04 -0.14009434989E+04  0.17966802977E+04  0.00000000000E+00 0.  1.
        -15    1    3    3    0    0  0.27203744634E+02  0.55953590407E+03  0.10973383620E+04  0.12320600441E+04  0.00000000000E+00 0.  1.
         15    1    1    2    0    0  0.16711397371E+03 -0.23435943330E+03  0.49989109500E+03  0.57683839249E+03  0.00000000000E+00 0. -1.
         15    1    4    4    0    0 -0.84519203015E+03  0.55384268234E+03 -0.62141143526E+03  0.11862729266E+04  0.00000000000E+00 0. -1.
        -16    1    4    4    0    0 -0.19209928544E+03  0.88910404254E+02 -0.15319756681E+03  0.26129808635E+03  0.00000000000E+00 0.  1.
         16    1    1    2    0    0  0.41948849354E+03 -0.30459871705E+02  0.17961983581E+04  0.18447837113E+04  0.00000000000E+00 0. -1.
    9900018    1    1    2    0    0 -0.14116611780E+02  0.98832463173E+02 -0.17586370223E+02  0.13635099309E+03  0.91187600000E+02 0.  0.
<mgrwt>
<rscale>  0 0.35459622E+04</rscale>
<asrwt>0</asrwt>
<pdfrwt beam="1">  1        1 0.63342872E+00 0.41601805E+04</pdfrwt>
<pdfrwt beam="2">  1       -1 0.44876889E+00 0.41601805E+04</pdfrwt>
<totfact> 0.17766287E-04</totfact>
</mgrwt>
</event>
<event>
11    1  0.1098594E-015  0.3968949E+04  0.7818608E-02  0.8167417E-01
          2   -1    0    0  501    0  0.00000000000E+00  0.00000000000E+00  0.33995802372E+04  0.33995802372E+04  0.00000000000E+00 0. -1.
         -2   -1    0    0    0  501 -0.00000000000E+00 -0.00000000000E+00 -0.25040175508E+04  0.25040175508E+04  0.00000000000E+00 0.  1.
    9900016    2    1    2    0    0 -0.19272471553E+03 -0.66285082747E+01 -0.46350894651E+02  0.22529337101E+04  0.22441869672E+04 0.  0.
         24    2    3    3    0    0  0.15499864232E+03 -0.15992493259E+03  0.10121476146E+04  0.10395171349E+04  0.80947617041E+02 0.  0.
        -15    1    4    4    0    0  0.28465906475E+02 -0.82446938006E+02  0.32223518446E+03  0.33383127404E+03  0.00000000000E+00 0.  1.
        -15    1    1    2    0    0  0.10669512252E+03 -0.22352285625E+03  0.12040508810E+03  0.27539735234E+03  0.00000000000E+00 0.  1.
         15    1    3    3    0    0 -0.35004906213E+03  0.14989739655E+03 -0.10554975033E+04  0.11220866967E+04  0.00000000000E+00 0. -1.
         15    1    1    2    0    0 -0.15832500368E+04  0.23838368014E+03  0.32565382823E+03  0.16338781698E+04  0.00000000000E+00 0. -1.
        -16    1    1    2    0    0  0.16692796298E+04 -0.82323156141E+01  0.49585466467E+03  0.17413885557E+04  0.00000000000E+00 0.  1.
         16    1    4    4    0    0  0.12653273584E+03 -0.77477994584E+02  0.68991243017E+03  0.70568586084E+03  0.00000000000E+00 0. -1.
    9900018    1    3    3    0    0  0.23257042798E+01  0.33990277652E+01 -0.30010059906E+01  0.91329878577E+02  0.91187600000E+02 0.  0.
<mgrwt>
<rscale>  0 0.32822888E+04</rscale>
<asrwt>0</asrwt>
<pdfrwt beam="1">  1        2 0.52301234E+00 0.39689491E+04</pdfrwt>
<pdfrwt beam="2">  1       -2 0.38523347E+00 0.39689491E+04</pdfrwt>
<totfact> 0.65838996E-03</totfact>
</mgrwt>
</event>
<event>
11    1  0.1098594E-015  0.2974934E+04  0.7818608E-02  0.8342265E-01
          2   -1    0    0  501    0  0.00000000000E+00  0.00000000000E+00  0.24182611962E+04  0.24182611962E+04  0.00000000000E+00 0.  1.
         -2   -1    0    0    0  501 -0.00000000000E+00 -0.00000000000E+00 -0.26014183142E+04  0.26014183142E+04  0.00000000000E+00 0. -1.
    9900016    2    1    2    0    0 -0.50215471560E+02  0.62607779674E+03 -0.44118255444E+03  0.23656272900E+04  0.22376450630E+04 0.  0.
        -24    2    3    3    0    0  0.30976598043E+02 -0.78902912364E+03  0.78333223635E+02  0.79673510343E+03  0.71583681976E+02 0.  0.
        -15    1    3    3    0    0 -0.11037251069E+03  0.13686563227E+04 -0.49576637707E+03  0.14598583909E+04  0.00000000000E+00 0.  1.
        -15    1    1    2    0    0 -0.10219993333E+04 -0.79468364743E+02  0.72853590238E+03  0.12576018525E+04  0.00000000000E+00 0.  1.
         15    1    4    4    0    0  0.22726849517E+02 -0.61859607367E+03  0.31604438523E+02  0.61981969361E+03  0.00000000000E+00 0. -1.
         15    1    1    2    0    0  0.64618281516E+03 -0.54643757188E+02 -0.34179271802E+03  0.73304872477E+03  0.00000000000E+00 0. -1.
        -16    1    4    4    0    0  0.82497485258E+01 -0.17043304997E+03  0.46728785111E+02  0.17691540982E+03  0.00000000000E+00 0.  1.
         16    1    1    2    0    0  0.42603198975E+03 -0.49196567481E+03 -0.12871774796E+03  0.66340164314E+03  0.00000000000E+00 0. -1.
    9900018    1    3    3    0    0  0.29180441086E+02  0.46450597651E+02 -0.23749401005E+02  0.10903379571E+03  0.91187600000E+02 0.  0.
<mgrwt>
<rscale>  0 0.26777375E+04</rscale>
<asrwt>0</asrwt>
<pdfrwt beam="1">  1        2 0.37204018E+00 0.29749336E+04</pdfrwt>
<pdfrwt beam="2">  1       -2 0.40021820E+00 0.29749336E+04</pdfrwt>
<totfact> 0.23267292E-02</totfact>
</mgrwt>
</event>
<event>
11    1  0.1098594E-015  0.2995421E+04  0.7818608E-02  0.8455700E-01
         -2   -1    0    0    0  501 -0.00000000000E+00  0.00000000000E+00  0.14135610735E+04  0.14135610735E+04  0.00000000000E+00 0.  1.
          2   -1    0    0  501    0  0.00000000000E+00 -0.00000000000E+00 -0.34654474930E+04  0.34654474930E+04  0.00000000000E+00 0. -1.
    9900016    2    1    2    0    0  0.51588366010E+01  0.16255273397E+02 -0.89238855881E+03  0.24180291977E+04  0.22472687898E+04 0.  0.
         24    2    3    3    0    0 -0.91934227948E+03  0.23176588360E+03  0.94249515512E+02  0.95570223606E+03  0.74686954663E+02 0.  0.
        -15    1    4    4    0    0 -0.69415109767E+03  0.20070085035E+03  0.91573112819E+02  0.72836269312E+03  0.00000000000E+00 0.  1.
        -15    1    1    2    0    0  0.22961187703E+03  0.90060164452E+02  0.65448090472E+02  0.25517817274E+03  0.00000000000E+00 0.  1.
         15    1    1    2    0    0 -0.17676151223E+03  0.48921851153E+03 -0.14699183621E+04  0.15592432060E+04  0.00000000000E+00 0. -1.
         15    1    3    3    0    0  0.94096279815E+03 -0.17311757837E+03 -0.96350090527E+03  0.13578345547E+04  0.00000000000E+00 0. -1.
        -16    1    1    2    0    0 -0.58009201400E+02 -0.59553394938E+03  0.24497241100E+03  0.64655799002E+03  0.00000000000E+00 0.  1.
         16    1    4    4    0    0 -0.22519118181E+03  0.31065033243E+02  0.26764026927E+01  0.22733954295E+03  0.00000000000E+00 0. -1.
    9900018    1    3    3    0    0 -0.16461682066E+02 -0.42393031832E+02 -0.23137169055E+02  0.10449240695E+03  0.91187600000E+02 0.  0.
<mgrwt>
<rscale>  0 0.23572096E+04</rscale>
<asrwt>0</asrwt>
<pdfrwt beam="1">  1        2 0.53314576E+00 0.29954210E+04</pdfrwt>
<pdfrwt beam="2">  1       -2 0.21747094E+00 0.29954210E+04</pdfrwt>
<totfact> 0.72420207E-02</totfact>
</mgrwt>
</event>
<event>
11    1  0.1098594E-015  0.4936840E+04  0.7818608E-02  0.7838325E-01
         -2   -1    0    0    0  501 -0.00000000000E+00  0.00000000000E+00  0.28352143685E+04  0.28352143685E+04  0.00000000000E+00 0.  1.
          2   -1    0    0  501    0  0.00000000000E+00 -0.00000000000E+00 -0.21490784710E+04  0.21490784710E+04  0.00000000000E+00 0. -1.
    9900016    2    1    2    0    0 -0.63599499433E+03 -0.46777006011E+02  0.27962065992E+03  0.23477053431E+04  0.22420648839E+04 0.  0.
        -24    2    3    3    0    0  0.17001403583E+03  0.21316823012E+03  0.10743050440E+04  0.11112127206E+04  0.79479030388E+02 0.  0.
        -15    1    1    2    0    0  0.13262025080E+04  0.15766966329E+03  0.79395000703E+03  0.15537147192E+04  0.00000000000E+00 0.  1.
        -15    1    3    3    0    0 -0.73243562960E+03 -0.26333338891E+03 -0.80384831952E+03  0.11189184716E+04  0.00000000000E+00 0.  1.
         15    1    1    2    0    0  0.65184155546E+02 -0.49302331662E+02 -0.31050385119E+03  0.32107995211E+03  0.00000000000E+00 0. -1.
         15    1    4    4    0    0  0.13257373016E+03  0.17790690786E+03  0.72645636135E+03  0.75958245552E+03  0.00000000000E+00 0. -1.
        -16    1    4    4    0    0  0.37440305674E+02  0.35261322263E+02  0.34784868264E+03  0.35163026512E+03  0.00000000000E+00 0.  1.
         16    1    1    2    0    0 -0.75539166925E+03 -0.61590325622E+02 -0.76930918318E+02  0.76179282510E+03  0.00000000000E+00 0. -1.
    9900018    1    3    3    0    0 -0.73573400556E+02  0.33881527706E+01  0.91639354488E+01  0.11757415088E+03  0.91187600000E+02 0.  0.
<mgrwt>
<rscale>  0 0.49368403E+04</rscale>
<asrwt>0</asrwt>
<pdfrwt beam="1">  1        2 0.33062746E+00 0.49368403E+04</pdfrwt>
<pdfrwt beam="2">  1       -2 0.43618683E+00 0.49368403E+04</pdfrwt>
<totfact> 0.17322096E-02</totfact>
</mgrwt>
</event>
<event>
11    1  0.1098594E-015  0.3450912E+04  0.7818608E-02  0.8268835E-01
          2   -1    0    0  501    0  0.00000000000E+00  0.00000000000E+00  0.22386816321E+04  0.22386816321E+04  0.00000000000E+00 0.  1.
         -2   -1    0    0    0  501 -0.00000000000E+00 -0.00000000000E+00 -0.33709014636E+04  0.33709014636E+04  0.00000000000E+00 0. -1.
    9900016    2    1    2    0    0  0.11188724008E+04  0.23615797142E+03 -0.91556397312E+02  0.25288190705E+04  0.22536408944E+04 0.  0.
         24    2    3    3    0    0  0.50414539962E+03 -0.86360088191E+03 -0.54505425278E+03  0.11416336909E+04  0.79210344284E+02 0.  0.
        -15    1    4    4    0    0  0.28245966333E+03 -0.49511125927E+03 -0.26627821336E+03  0.62914442489E+03  0.00000000000E+00 0.  1.
        -15    1    1    2    0    0 -0.90426352453E+03 -0.61444121273E+03 -0.39359477572E+03  0.11619584214E+04  0.00000000000E+00 0.  1.
         15    1    3    3    0    0  0.56777566474E+03  0.10565990214E+04  0.40820601964E+03  0.12670449290E+04  0.00000000000E+00 0. -1.
         15    1    1    2    0    0  0.43074315695E+03 -0.24767957071E+03 -0.86150843462E+03  0.99452582668E+03  0.00000000000E+00 0. -1.
        -16    1    1    2    0    0 -0.64535203321E+03  0.62596281202E+03  0.21443977614E+03  0.92427977712E+03  0.00000000000E+00 0.  1.
         16    1    4    4    0    0  0.22168573629E+03 -0.36848962264E+03 -0.27877603941E+03  0.51248926605E+03  0.00000000000E+00 0. -1.
    9900018    1    3    3    0    0  0.46951336429E+02  0.43159831876E+02  0.45291835826E+02  0.12014045058E+03  0.91187600000E+02 0.  0.
<mgrwt>
<rscale>  0 0.29136239E+04</rscale>
<asrwt>0</asrwt>
<pdfrwt beam="1">  1        2 0.34441256E+00 0.34509117E+04</pdfrwt>
<pdfrwt beam="2">  1       -2 0.51860022E+00 0.34509117E+04</pdfrwt>
<totfact> 0.48581329E-03</totfact>
</mgrwt>
</event>
<event>
11    1  0.1098594E-015  0.4138714E+04  0.7818608E-02  0.7977134E-01
          1   -1    0    0  501    0  0.00000000000E+00  0.00000000000E+00  0.39123105375E+04  0.39123105375E+04  0.00000000000E+00 0. -1.
         -1   -1    0    0    0  501 -0.00000000000E+00 -0.00000000000E+00 -0.10945548837E+04  0.10945548837E+04  0.00000000000E+00 0.  1.
    9900016    2    1    2    0    0 -0.87369164680E+03 -0.14538589542E+03  0.14663083087E+04  0.27507840004E+04  0.21522728471E+04 0.  0.
        -24    2    3    3    0    0 -0.76400594931E+03  0.12903623601E+03  0.19968924005E+04  0.21434472430E+04  0.80195909612E+02 0.  0.
        -15    1    3    3    0    0 -0.10968569749E+03 -0.27442213144E+03 -0.53058409173E+03  0.60733675737E+03  0.00000000000E+00 0.  1.
        -15    1    1    2    0    0  0.74911721163E+03 -0.49680041410E+03  0.61454835076E+03  0.10888787461E+04  0.00000000000E+00 0.  1.
         15    1    4    4    0    0 -0.12088139270E+03 -0.15890653988E+01  0.36698359836E+03  0.38638296765E+03  0.00000000000E+00 0. -1.
         15    1    1    2    0    0  0.20451913746E+03  0.42582358182E+03  0.60871254340E+03  0.77050941650E+03  0.00000000000E+00 0. -1.
        -16    1    4    4    0    0 -0.64312455661E+03  0.13062530141E+03  0.16299088021E+04  0.17570642754E+04  0.00000000000E+00 0.  1.
         16    1    1    2    0    0  0.25611641193E+02  0.22993333995E+03  0.51812812708E+02  0.23708619644E+03  0.00000000000E+00 0. -1.
    9900018    1    1    2    0    0 -0.10555634347E+03 -0.13570612250E+02  0.76373638201E+02  0.15960706178E+03  0.91187600000E+02 0.  0.
<mgrwt>
<rscale>  0 0.41387141E+04</rscale>
<asrwt>0</asrwt>
<pdfrwt beam="1">  1        1 0.60189392E+00 0.41387141E+04</pdfrwt>
<pdfrwt beam="2">  1       -1 0.16839306E+00 0.41387141E+04</pdfrwt>
<totfact> 0.22319330E-02</totfact>
</mgrwt>
</event>
<event>
11    1  0.1098594E-015  0.5733156E+04  0.7818608E-02  0.8161315E-01
         -2   -1    0    0    0  501 -0.00000000000E+00  0.00000000000E+00  0.41784071579E+04  0.41784071579E+04  0.00000000000E+00 0. -1.
          2   -1    0    0  501    0  0.00000000000E+00 -0.00000000000E+00 -0.24259334600E+04  0.24259334600E+04  0.00000000000E+00 0.  1.
    9900016    2    1    2    0    0 -0.19577674851E+04  0.34020054676E+02 -0.47868556269E+03  0.29452629608E+04  0.21474224435E+04 0.  0.
         24    2    3    3    0    0  0.22003401247E+03 -0.14190988411E+03 -0.69731935837E+03  0.74945526376E+03  0.82918773367E+02 0.  0.
        -15    1    4    4    0    0  0.19328939279E+03 -0.88408659833E+02 -0.50088948662E+03  0.54412053656E+03  0.00000000000E+00 0.  1.
        -15    1    1    2    0    0  0.18901088407E+04  0.53125326498E+03  0.20753889690E+04  0.28569180657E+04  0.00000000000E+00 0.  1.
         15    1    1    2    0    0  0.25517969721E+03 -0.30358985673E+03  0.14992680927E+03  0.42398293257E+03  0.00000000000E+00 0. -1.
         15    1    3    3    0    0 -0.21778014975E+04  0.17592993878E+03  0.21863379567E+03  0.21958076971E+04  0.00000000000E+00 0. -1.
        -16    1    1    2    0    0 -0.78631304338E+02 -0.21451790288E+03  0.39798688111E+01  0.22850963225E+03  0.00000000000E+00 0.  1.
         16    1    4    4    0    0  0.26744619675E+02 -0.53501224275E+02 -0.19642987175E+03  0.20533472721E+03  0.00000000000E+00 0. -1.
    9900018    1    1    2    0    0 -0.10888974854E+03 -0.47165560051E+02  0.18636134057E+01  0.14966702656E+03  0.91187600000E+02 0.  0.
<mgrwt>
<rscale>  0 0.33062192E+04</rscale>
<asrwt>0</asrwt>
<pdfrwt beam="1">  1        2 0.37322053E+00 0.57331561E+04</pdfrwt>
<pdfrwt beam="2">  1       -2 0.64283187E+00 0.57331561E+04</pdfrwt>
<totfact> 0.93442528E-04</totfact>
</mgrwt>
</event>
