<event>
12    1  0.8025086E-015  0.2634097E+04  0.7818608E-02  0.9005172E-01
         -1   -1    0    0    0  501 -0.00000000000E+00  0.00000000000E+00  0.13063200922E+04  0.13063200922E+04  0.00000000000E+00 0.  1.
          1   -1    0    0  501    0  0.00000000000E+00 -0.00000000000E+00 -0.15525436431E+04  0.15525436431E+04  0.00000000000E+00 0. -1.
         23    2    1    2    0    0  0.44380441112E+02  0.13802897173E+03 -0.14165664433E+03  0.22269225953E+03  0.92215058319E+02 0.  0.
    9900016    2    1    2    0    0 -0.15613383251E+03 -0.32198507561E+03 -0.35736440742E+03  0.23041545409E+04  0.22479694540E+04 0.  0.
         24    2    4    4    0    0  0.22232531459E+03  0.44839552402E+03  0.72060198703E+03  0.88126934646E+03  0.82953877697E+02 0.  0.
        -15    1    3    3    0    0  0.45349085084E+02  0.22218038770E+02 -0.70651632812E+02  0.86843733129E+02  0.00000000000E+00 0. -1.
        -15    1    5    5    0    0  0.68485575084E+02  0.16971746754E+03  0.20032656230E+03  0.27133931588E+03  0.00000000000E+00 0.  1.
         15    1    3    3    0    0 -0.96864397228E+00  0.11581093296E+03 -0.71005011521E+02  0.13584852640E+03  0.00000000000E+00 0.  1.
         15    1    4    4    0    0 -0.33394265219E+03 -0.73833737360E+03 -0.10165781146E+04  0.13000349362E+04  0.00000000000E+00 0. -1.
        -16    1    1    2    0    0  0.11175339140E+03  0.18395610388E+03  0.25279750080E+03  0.33201693489E+03  0.00000000000E+00 0.  1.
         16    1    5    5    0    0  0.15383973951E+03  0.27867805649E+03  0.52027542474E+03  0.60993003058E+03  0.00000000000E+00 0. -1.
    9900018    1    4    4    0    0 -0.44516494912E+02 -0.32043226029E+02 -0.61388279824E+02  0.12285025823E+03  0.91187600000E+02 0.  0.
<mgrwt>
<rscale>  0 0.13312143E+04</rscale>
<asrwt>0</asrwt>
<pdfrwt beam="1">  1        1 0.23885287E+00 0.26340968E+04</pdfrwt>
<pdfrwt beam="2">  1       -1 0.20097232E+00 0.26340968E+04</pdfrwt>
<totfact> 0.77741553E-01</totfact>
</mgrwt>
</event>
<event>
12    1  0.8025086E-015  0.3326909E+04  0.7818608E-02  0.8156082E-01
         -2   -1    0    0    0  501 -0.00000000000E+00  0.00000000000E+00  0.26329387218E+04  0.26329387218E+04  0.00000000000E+00 0.  1.
          2   -1    0    0  501    0  0.00000000000E+00 -0.00000000000E+00 -0.10509479735E+04  0.10509479735E+04  0.00000000000E+00 0. -1.
         23    2    1    2    0    0  0.36893079698E+03 -0.56572202076E+02 -0.12031018217E+03  0.40257557714E+03  0.91006639156E+02 0.  0.
    9900016    2    1    2    0    0 -0.39001961762E+03  0.86900335786E+02  0.18029346803E+04  0.28327647344E+04  0.21480958100E+04 0.  0.
        -24    2    4    4    0    0  0.30721761943E+03 -0.31886454617E+03 -0.32626461303E+03  0.55586453136E+03  0.80495434781E+02 0.  0.
        -15    1    3    3    0    0  0.10882240658E+03 -0.10814921941E+02  0.66114630509E+01  0.10955815877E+03  0.00000000000E+00 0. -1.
        -15    1    4    4    0    0 -0.69723723704E+03  0.40576488196E+03  0.21291992933E+04  0.22769002031E+04  0.00000000000E+00 0.  1.
         15    1    3    3    0    0  0.26010839040E+03 -0.45757280134E+02 -0.12692164522E+03  0.29301741837E+03  0.00000000000E+00 0.  1.
         15    1    5    5    0    0  0.10672059153E+03 -0.78872216305E+02 -0.13493455243E+03  0.18925497246E+03  0.00000000000E+00 0. -1.
        -16    1    5    5    0    0  0.20049702789E+03 -0.23999232987E+03 -0.19133006060E+03  0.36660955890E+03  0.00000000000E+00 0.  1.
         16    1    1    2    0    0  0.95297997288E+02 -0.34187371072E+02 -0.24336732983E+03  0.26358706694E+03  0.00000000000E+00 0. -1.
    9900018    1    1    2    0    0 -0.74209176646E+02  0.38592373613E+01  0.14273358003E+03  0.18495931680E+03  0.91187600000E+02 0.  0.
<mgrwt>
<rscale>  0 0.33269094E+04</rscale>
<asrwt>0</asrwt>
<pdfrwt beam="1">  1        2 0.16168430E+00 0.33269094E+04</pdfrwt>
<pdfrwt beam="2">  1       -2 0.40506750E+00 0.33269094E+04</pdfrwt>
<totfact> 0.13382732E-01</totfact>
</mgrwt>
</event>
<event>
12    1  0.8025086E-015  0.3491062E+04  0.7818608E-02  0.8755688E-01
         -2   -1    0    0    0  501 -0.00000000000E+00  0.00000000000E+00  0.95432951979E+03  0.95432951979E+03  0.00000000000E+00 0.  1.
          2   -1    0    0  501    0  0.00000000000E+00 -0.00000000000E+00 -0.35916580533E+04  0.35916580533E+04  0.00000000000E+00 0. -1.
         23    2    1    2    0    0  0.13523216819E+02 -0.17869125274E+03 -0.70952387356E+02  0.21311349275E+03  0.90937771712E+02 0.  0.
    9900016    2    1    2    0    0 -0.39942217088E+03  0.56752005520E+03 -0.28667019405E+04  0.37081329955E+04  0.22473658387E+04 0.  0.
         24    2    4    4    0    0 -0.10162022621E+04 -0.21439807299E+03 -0.63121459121E+03  0.12179756609E+04  0.79995495432E+02 0.  0.
        -15    1    3    3    0    0  0.58825118064E+01 -0.87820627055E+02  0.13230490714E+02  0.89006249028E+02  0.00000000000E+00 0. -1.
        -15    1    5    5    0    0 -0.30062418475E+03 -0.29184736508E+02 -0.19951642682E+03  0.36198543323E+03  0.00000000000E+00 0.  1.
         15    1    3    3    0    0  0.76407050123E+01 -0.90870625683E+02 -0.84182878070E+02  0.12410724373E+03  0.00000000000E+00 0.  1.
         15    1    4    4    0    0  0.65941397629E+03  0.72450353401E+03 -0.20366013651E+04  0.22599728501E+04  0.00000000000E+00 0. -1.
        -16    1    1    2    0    0  0.38589895406E+03 -0.38882880247E+03  0.30032579431E+03  0.62474108485E+03  0.00000000000E+00 0.  1.
         16    1    5    5    0    0 -0.71557807735E+03 -0.18521333649E+03 -0.43169816439E+03  0.85599022771E+03  0.00000000000E+00 0. -1.
    9900018    1    4    4    0    0 -0.42633885070E+02  0.57414594184E+02 -0.19888598413E+03  0.23018448440E+03  0.91187600000E+02 0.  0.
<mgrwt>
<rscale>  0 0.17099882E+04</rscale>
<asrwt>0</asrwt>
<pdfrwt beam="1">  1        2 0.55256278E+00 0.34910616E+04</pdfrwt>
<pdfrwt beam="2">  1       -2 0.14681992E+00 0.34910616E+04</pdfrwt>
<totfact> 0.18096660E-01</totfact>
</mgrwt>
</event>
<event>
12    1  0.8025086E-015  0.3718894E+04  0.7818608E-02  0.8636535E-01
          2   -1    0    0  501    0  0.00000000000E+00  0.00000000000E+00  0.20572914475E+04  0.20572914475E+04  0.00000000000E+00 0. -1.
         -2   -1    0    0    0  501 -0.00000000000E+00 -0.00000000000E+00 -0.21514159684E+04  0.21514159684E+04  0.00000000000E+00 0.  1.
         23    2    1    2    0    0 -0.24975749705E+03 -0.56737773226E+02 -0.39169616786E+03  0.47792762781E+03  0.96906899969E+02 0.  0.
    9900016    2    1    2    0    0 -0.60781949812E+03  0.37406563884E+03  0.89131554461E+03  0.24423136884E+04  0.21589541699E+04 0.  0.
         24    2    4    4    0    0 -0.35561032309E+03 -0.35505320879E+03 -0.58558411092E+03  0.77604349587E+03  0.82542556090E+02 0.  0.
        -15    1    3    3    0    0 -0.19626298386E+03 -0.65118823449E+02 -0.23966681372E+03  0.31654352244E+03  0.00000000000E+00 0.  1.
        -15    1    5    5    0    0 -0.30998152014E+03 -0.27648098037E+03 -0.44573406324E+03  0.60926934148E+03  0.00000000000E+00 0.  1.
         15    1    3    3    0    0 -0.53494513192E+02  0.83810502229E+01 -0.15202935414E+03  0.16138410537E+03  0.00000000000E+00 0. -1.
         15    1    4    4    0    0 -0.25220917503E+03  0.72911884763E+03  0.14768996555E+04  0.16662701925E+04  0.00000000000E+00 0. -1.
        -16    1    1    2    0    0  0.91536052301E+03 -0.33071426541E+03 -0.64562966676E+03  0.11679445531E+04  0.00000000000E+00 0.  1.
         16    1    5    5    0    0 -0.45628802946E+02 -0.78572228412E+02 -0.13985004768E+03  0.16677415439E+03  0.00000000000E+00 0. -1.
    9900018    1    1    2    0    0 -0.57783527834E+02  0.13386399795E+02  0.51885769132E+02  0.12052154671E+03  0.91187600000E+02 0.  0.
<mgrwt>
<rscale>  0 0.19372468E+04</rscale>
<asrwt>0</asrwt>
<pdfrwt beam="1">  1        2 0.31650638E+00 0.37188935E+04</pdfrwt>
<pdfrwt beam="2">  1       -2 0.33098707E+00 0.37188935E+04</pdfrwt>
<totfact> 0.10076016E-01</totfact>
</mgrwt>
</event>
<event>
12    1  0.8025086E-015  0.3191930E+04  0.7818608E-02  0.8190952E-01
          3   -1    0    0  501    0  0.00000000000E+00  0.00000000000E+00  0.97674241232E+03  0.97674241232E+03  0.00000000000E+00 0. -1.
         -3   -1    0    0    0  501 -0.00000000000E+00 -0.00000000000E+00 -0.26077546347E+04  0.26077546347E+04  0.00000000000E+00 0.  1.
         23    2    1    2    0    0  0.10375688428E+03  0.31878695150E+03 -0.54552997496E+03  0.64733565036E+03  0.95130852867E+02 0.  0.
    9900016    2    1    2    0    0 -0.36934978060E+03 -0.59076799947E+03 -0.86432706110E+03  0.24973627001E+04  0.22370366778E+04 0.  0.
         24    2    4    4    0    0  0.58387169787E+03  0.50656788976E+03 -0.57584337549E+03  0.96723027474E+03  0.80135040829E+02 0.  0.
        -15    1    3    3    0    0 -0.29397697930E+01  0.11307243078E+03 -0.13704327656E+03  0.17769320893E+03  0.00000000000E+00 0. -1.
        -15    1    5    5    0    0  0.32404040830E+03  0.33207056512E+03 -0.33388177205E+03  0.57162057707E+03  0.00000000000E+00 0.  1.
         15    1    4    4    0    0 -0.91809742622E+03 -0.10438873351E+04 -0.25132173194E+03  0.14127159181E+04  0.00000000000E+00 0. -1.
         15    1    3    3    0    0  0.10669665407E+03  0.20571452072E+03 -0.40848669840E+03  0.46964244143E+03  0.00000000000E+00 0.  1.
        -16    1    1    2    0    0  0.26559289632E+03  0.27198104797E+03 -0.22115518636E+03  0.43979869655E+03  0.00000000000E+00 0.  1.
         16    1    5    5    0    0  0.25983128957E+03  0.17449732464E+03 -0.24196160344E+03  0.39560969767E+03  0.00000000000E+00 0. -1.
    9900018    1    4    4    0    0 -0.35124052249E+02 -0.53448554147E+02 -0.37161953671E+02  0.11741650728E+03  0.91187600000E+02 0.  0.
<mgrwt>
<rscale>  0 0.31919302E+04</rscale>
<asrwt>0</asrwt>
<pdfrwt beam="1">  1        3 0.15026806E+00 0.31919302E+04</pdfrwt>
<pdfrwt beam="2">  1       -3 0.40119302E+00 0.31919302E+04</pdfrwt>
<totfact> 0.73235504E-03</totfact>
</mgrwt>
</event>
<event>
12    1  0.8025086E-015  0.2437528E+04  0.7818608E-02  0.8982114E-01
         -2   -1    0    0    0  501 -0.00000000000E+00  0.00000000000E+00  0.11746639056E+04  0.11746639056E+04  0.00000000000E+00 0.  1.
          2   -1    0    0  501    0  0.00000000000E+00 -0.00000000000E+00 -0.23468790159E+04  0.23468790159E+04  0.00000000000E+00 0. -1.
         23    2    1    2    0    0 -0.19877228855E+02 -0.21795502611E+03  0.50822375146E+03  0.56089829953E+03  0.91738886203E+02 0.  0.
    9900016    2    1    2    0    0  0.12465124013E+03  0.26851460692E+03 -0.14445511452E+04  0.26069012521E+04  0.21497832684E+04 0.  0.
        -24    2    4    4    0    0 -0.87702892120E+03 -0.39861256411E+03 -0.63436589852E+03  0.11561008034E+04  0.77956843871E+02 0.  0.
        -15    1    4    4    0    0  0.10016801613E+04  0.66712717103E+03 -0.81018524668E+03  0.14508004487E+04  0.00000000000E+00 0.  1.
        -15    1    3    3    0    0  0.17499306194E+02 -0.43475836664E+02  0.19364826193E+03  0.19923860931E+03  0.00000000000E+00 0.  1.
         15    1    5    5    0    0 -0.49574978527E+03 -0.25358448493E+03 -0.33168931256E+03  0.64814407400E+03  0.00000000000E+00 0. -1.
         15    1    3    3    0    0 -0.37376535050E+02 -0.17447918945E+03  0.31457548952E+03  0.36165969022E+03  0.00000000000E+00 0. -1.
        -16    1    5    5    0    0 -0.38127913593E+03 -0.14502807918E+03 -0.30267658596E+03  0.50795672939E+03  0.00000000000E+00 0.  1.
         16    1    1    2    0    0 -0.12009832080E+03 -0.60942716060E+02 -0.22201204538E+03  0.25966703602E+03  0.00000000000E+00 0. -1.
    9900018    1    1    2    0    0  0.15324309525E+02  0.10383135256E+02 -0.13875671209E+02  0.94076333928E+02  0.91187600000E+02 0.  0.
<mgrwt>
<rscale>  0 0.13615723E+04</rscale>
<asrwt>0</asrwt>
<pdfrwt beam="1">  1        2 0.36105831E+00 0.24375278E+04</pdfrwt>
<pdfrwt beam="2">  1       -2 0.18071753E+00 0.24375278E+04</pdfrwt>
<totfact> 0.66750539E-01</totfact>
</mgrwt>
</event>
<event>
12    1  0.8025087E-015  0.2476765E+04  0.7818608E-02  0.8961668E-01
          2   -1    0    0  501    0  0.00000000000E+00  0.00000000000E+00  0.32551467672E+04  0.32551467672E+04  0.00000000000E+00 0. -1.
         -2   -1    0    0    0  501 -0.00000000000E+00 -0.00000000000E+00 -0.74219016192E+03  0.74219016192E+03  0.00000000000E+00 0.  1.
         23    2    1    2    0    0  0.14767318293E+03 -0.17365770405E+03 -0.20543239821E+03  0.31983715060E+03  0.90160776054E+02 0.  0.
    9900016    2    1    2    0    0 -0.30032974823E+03  0.13766840240E+03  0.24507423373E+04  0.32829027643E+04  0.21592040222E+04 0.  0.
         24    2    4    4    0    0  0.46965734296E+03 -0.75073448954E+03  0.54218351736E+03  0.10413103419E+04  0.78638210137E+02 0.  0.
        -15    1    5    5    0    0  0.93724054613E+02 -0.13906599499E+03  0.68388063235E+02  0.18110901846E+03  0.00000000000E+00 0.  1.
        -15    1    3    3    0    0  0.56591087238E+02 -0.70252367755E+02 -0.14178203944E+03  0.16804788912E+03  0.00000000000E+00 0.  1.
         15    1    4    4    0    0 -0.76998709119E+03  0.88840289194E+03  0.19085588199E+04  0.22415924224E+04  0.00000000000E+00 0. -1.
         15    1    3    3    0    0  0.91082095696E+02 -0.10340533630E+03 -0.63650358772E+02  0.15178926149E+03  0.00000000000E+00 0. -1.
        -16    1    1    2    0    0  0.18626306912E+03  0.21901599344E+02  0.14260588859E+03  0.23560570967E+03  0.00000000000E+00 0.  1.
         16    1    5    5    0    0  0.37593328835E+03 -0.61166849455E+03  0.47379545413E+03  0.86020132345E+03  0.00000000000E+00 0. -1.
    9900018    1    1    2    0    0 -0.33606503820E+02  0.14087702308E+02  0.12504077760E+03  0.15899130451E+03  0.91187600000E+02 0.  0.
<mgrwt>
<rscale>  0 0.13892068E+04</rscale>
<asrwt>0</asrwt>
<pdfrwt beam="1">  1        2 0.50079180E+00 0.24767652E+04</pdfrwt>
<pdfrwt beam="2">  1       -2 0.11418310E+00 0.24767652E+04</pdfrwt>
<totfact> 0.62960362E-01</totfact>
</mgrwt>
</event>
<event>
12    1  0.8025086E-015  0.2738068E+04  0.7818608E-02  0.8779337E-01
          2   -1    0    0  501    0  0.00000000000E+00  0.00000000000E+00  0.15534197911E+04  0.15534197911E+04  0.00000000000E+00 0.  1.
         -2   -1    0    0    0  501 -0.00000000000E+00 -0.00000000000E+00 -0.16686214746E+04  0.16686214746E+04  0.00000000000E+00 0. -1.
         23    2    1    2    0    0 -0.36472474346E+03  0.46082078435E+02  0.25959748816E+03  0.45844034588E+03  0.87344137884E+02 0.  0.
    9900016    2    1    2    0    0  0.12317847187E+03 -0.22983765276E+03 -0.46330521952E+02  0.21666890165E+04  0.21504410000E+04 0.  0.
         24    2    4    4    0    0  0.78709676254E+03  0.44878911810E+03 -0.57882739382E+03  0.10781695131E+04  0.80469627631E+02 0.  0.
        -15    1    3    3    0    0 -0.18297756496E+03 -0.16172033989E+02  0.10306125564E+03  0.21062750622E+03  0.00000000000E+00 0.  1.
        -15    1    5    5    0    0  0.44100151872E+03  0.24816122730E+03 -0.37024841337E+03  0.62701692310E+03  0.00000000000E+00 0.  1.
         15    1    3    3    0    0 -0.18174717849E+03  0.62254112424E+02  0.15653623252E+03  0.24781283965E+03  0.00000000000E+00 0. -1.
         15    1    4    4    0    0 -0.66391829066E+03 -0.67862677085E+03  0.53249687187E+03  0.10885195034E+04  0.00000000000E+00 0. -1.
        -16    1    1    2    0    0  0.25482810523E+03  0.21118859446E+03 -0.36622469871E+03  0.49361778290E+03  0.00000000000E+00 0.  1.
         16    1    5    5    0    0  0.34609524382E+03  0.20062789079E+03 -0.20857898045E+03  0.45115258998E+03  0.00000000000E+00 0. -1.
    9900018    1    1    2    0    0 -0.13281833649E+02 -0.27433020138E+02  0.37756048963E+02  0.10329412048E+03  0.91187600000E+02 0.  0.
<mgrwt>
<rscale>  0 0.16688424E+04</rscale>
<asrwt>0</asrwt>
<pdfrwt beam="1">  1        2 0.23898766E+00 0.27380679E+04</pdfrwt>
<pdfrwt beam="2">  1       -2 0.25671100E+00 0.27380679E+04</pdfrwt>
<totfact> 0.59559278E-01</totfact>
</mgrwt>
</event>
