<event>
13    1  0.2389550E-009  0.4940879E+04  0.7818608E-02  0.7837692E-01
         -2   -1    0    0    0  501 -0.00000000000E+00  0.00000000000E+00  0.20666201050E+04  0.20666201050E+04  0.00000000000E+00 0.  1.
          2   -1    0    0  501    0  0.00000000000E+00 -0.00000000000E+00 -0.29531659545E+04  0.29531659545E+04  0.00000000000E+00 0. -1.
    9900016    2    1    2    0    0  0.40521242246E+03 -0.43677485285E+03  0.11657422394E+03  0.22529142918E+04  0.21695768889E+04 0.  0.
         23    2    3    3    0    0 -0.71421635591E+03  0.31084653686E+03  0.39291237713E+03  0.87871586828E+03  0.10502794174E+03 0.  0.
    9900016    2    1    2    0    0 -0.32590336973E+03  0.18910592644E+03 -0.10878871845E+04  0.24785482264E+04  0.21949325108E+04 0.  0.
        -24    2    5    5    0    0 -0.65209073251E+03  0.10029863393E+04 -0.10613354549E+04  0.16013341610E+04  0.81450764764E+02 0.  0.
        -15    1    4    4    0    0 -0.54899347162E+02 -0.41599798428E+01  0.22343519506E+02  0.59417813954E+02  0.00000000000E+00 0.  1.
        -15    1    5    5    0    0  0.32618736277E+03 -0.81388041291E+03 -0.26551729518E+02  0.87721406537E+03  0.00000000000E+00 0.  1.
         15    1    4    4    0    0 -0.65931700874E+03  0.31500651670E+03  0.37056885763E+03  0.81929805433E+03  0.00000000000E+00 0. -1.
         15    1    6    6    0    0 -0.30375723680E+03  0.42525520498E+03 -0.50796632636E+03  0.72879368616E+03  0.00000000000E+00 0. -1.
        -16    1    6    6    0    0 -0.34833349571E+03  0.57773113436E+03 -0.55336912858E+03  0.87254047489E+03  0.00000000000E+00 0.  1.
         16    1    3    3    0    0  0.11194287784E+04 -0.74762138971E+03 -0.27633815319E+03  0.13741984235E+04  0.00000000000E+00 0. -1.
    9900018    1    1    2    0    0 -0.79309052726E+02  0.24766892641E+03  0.84767110991E+02  0.28832354127E+03  0.91187600000E+02 0.  0.
<mgrwt>
<rscale>  0 0.49408793E+04</rscale>
<asrwt>0</asrwt>
<pdfrwt beam="1">  1        2 0.45433322E+00 0.49408793E+04</pdfrwt>
<pdfrwt beam="2">  1       -2 0.31794156E+00 0.49408793E+04</pdfrwt>
<totfact> 0.33574206E-02</totfact>
</mgrwt>
</event>
<event>
13    1  0.2389550E-009  0.5110068E+04  0.7818608E-02  0.7811749E-01
          1   -1    0    0  501    0  0.00000000000E+00  0.00000000000E+00  0.41517161556E+04  0.41517161556E+04  0.00000000000E+00 0. -1.
         -1   -1    0    0    0  501 -0.00000000000E+00 -0.00000000000E+00 -0.15724094584E+04  0.15724094584E+04  0.00000000000E+00 0.  1.
    9900016    2    1    2    0    0  0.57204812429E+03  0.95481305686E+03  0.87169515734E+03  0.26201227991E+04  0.22059655494E+04 0.  0.
         23    2    3    3    0    0 -0.19887340929E+03 -0.19288293179E+03  0.11710218454E+04  0.12055124077E+04  0.72204877316E+02 0.  0.
    9900016    2    1    2    0    0 -0.43920787552E+03 -0.83379784989E+03  0.15822065274E+04  0.28666574809E+04  0.21968671342E+04 0.  0.
         24    2    5    5    0    0 -0.64520855269E+03  0.49210168359E+03  0.31463284749E+02  0.81598674759E+03  0.79914269679E+02 0.  0.
        -15    1    4    4    0    0 -0.13035746981E+03 -0.79761093136E+02  0.68292939122E+03  0.69981958769E+03  0.00000000000E+00 0.  1.
        -15    1    6    6    0    0 -0.35773795333E+03  0.27532905929E+03 -0.22199593262E+02  0.45196831314E+03  0.00000000000E+00 0.  1.
         15    1    4    4    0    0 -0.68515939471E+02 -0.11312183865E+03  0.48809245421E+03  0.50569282000E+03  0.00000000000E+00 0. -1.
         15    1    5    5    0    0  0.20600067718E+03 -0.13258995335E+04  0.15507432426E+04  0.20506707333E+04  0.00000000000E+00 0. -1.
        -16    1    3    3    0    0  0.77092153357E+03  0.11476959887E+04 -0.29932668810E+03  0.14146103914E+04  0.00000000000E+00 0.  1.
         16    1    6    6    0    0 -0.28747059936E+03  0.21677262430E+03  0.53662878011E+02  0.36401843445E+03  0.00000000000E+00 0. -1.
    9900018    1    1    2    0    0 -0.13284024877E+03 -0.12101520697E+03  0.12540501248E+03  0.23734533398E+03  0.91187600000E+02 0.  0.
<mgrwt>
<rscale>  0 0.51100676E+04</rscale>
<asrwt>0</asrwt>
<pdfrwt beam="1">  1        1 0.63872556E+00 0.51100676E+04</pdfrwt>
<pdfrwt beam="2">  1       -1 0.24190915E+00 0.51100676E+04</pdfrwt>
<totfact> 0.39335388E-03</totfact>
</mgrwt>
</event>
<event>
12    1  0.2389550E-009  0.5729287E+04  0.7818608E-02  0.7724904E-01
         -2   -1    0    0    0  501 -0.00000000000E+00  0.00000000000E+00  0.46293548286E+04  0.46293548286E+04  0.00000000000E+00 0. -1.
          2   -1    0    0  501    0  0.00000000000E+00 -0.00000000000E+00 -0.17726408922E+04  0.17726408922E+04  0.00000000000E+00 0.  1.
    9900016    2    1    2    0    0 -0.76360756028E+03 -0.10739719958E+04  0.25167706832E+04  0.35948142414E+04  0.22027352098E+04 0.  0.
    9900016    2    1    2    0    0  0.59914294763E+03  0.93530700033E+03  0.51288715314E+03  0.25164903018E+04  0.21990677003E+04 0.  0.
         24    2    4    4    0    0 -0.76053082605E+03  0.36282528023E+03 -0.21283318479E+03  0.87237409560E+03  0.75427294645E+02 0.  0.
        -15    1    5    5    0    0 -0.19636702770E+03  0.99513082965E+02 -0.89763810539E+02  0.23774020470E+03  0.00000000000E+00 0.  1.
        -15    1    3    3    0    0 -0.83595706052E+02  0.22486239806E+03  0.10146152460E+04  0.10425907335E+04  0.00000000000E+00 0.  1.
         15    1    3    3    0    0 -0.47605070583E+03  0.10797584736E+03  0.86761654317E+03  0.99551068508E+03  0.00000000000E+00 0. -1.
         15    1    4    4    0    0  0.13596737737E+04  0.57248172009E+03  0.72572033794E+03  0.16441162062E+04  0.00000000000E+00 0. -1.
        -16    1    3    3    0    0 -0.20396114841E+03 -0.14068102412E+04  0.63453889405E+03  0.15567128228E+04  0.00000000000E+00 0.  1.
         16    1    5    5    0    0 -0.56416379835E+03  0.26331219727E+03 -0.12306937425E+03  0.63463389090E+03  0.00000000000E+00 0. -1.
    9900018    1    1    2    0    0  0.16446461266E+03  0.13866499544E+03 -0.17294390002E+03  0.29069117758E+03  0.91187600000E+02 0.  0.
<mgrwt>
<rscale>  0 0.57292875E+04</rscale>
<asrwt>0</asrwt>
<pdfrwt beam="1">  1        2 0.27271399E+00 0.57292875E+04</pdfrwt>
<pdfrwt beam="2">  1       -2 0.71220843E+00 0.57292875E+04</pdfrwt>
<totfact> 0.12792831E-03</totfact>
</mgrwt>
</event>
<event>
13    1  0.2389550E-009  0.5248724E+04  0.7818608E-02  0.7791244E-01
          1   -1    0    0  501    0  0.00000000000E+00  0.00000000000E+00  0.30986168025E+04  0.30986168025E+04  0.00000000000E+00 0. -1.
         -1   -1    0    0    0  501 -0.00000000000E+00 -0.00000000000E+00 -0.22226939740E+04  0.22226939740E+04  0.00000000000E+00 0.  1.
    9900016    2    1    2    0    0 -0.37640420295E+02 -0.85756789920E+03 -0.60372484490E+03  0.24288919336E+04  0.21904777638E+04 0.  0.
         23    2    3    3    0    0 -0.51265136963E+03  0.36702906596E+02 -0.11601309347E+04  0.12734944207E+04  0.10828538112E+03 0.  0.
    9900016    2    1    2    0    0  0.32554933706E+02  0.89164606085E+03  0.13578200968E+04  0.27363921783E+04  0.22018342846E+04 0.  0.
         24    2    5    5    0    0  0.24400637741E+03  0.15714487111E+04  0.12324139580E+04  0.20135021064E+04  0.79727065552E+02 0.  0.
        -15    1    6    6    0    0  0.13941837953E+03  0.98381580526E+03  0.72370582806E+03  0.12292604072E+04  0.00000000000E+00 0.  1.
        -15    1    4    4    0    0 -0.18607234719E+03  0.10016806113E+02 -0.55350668981E+03  0.58403160057E+03  0.00000000000E+00 0. -1.
         15    1    5    5    0    0 -0.21145144370E+03 -0.67980265027E+03  0.12540613882E+03  0.72289007187E+03  0.00000000000E+00 0. -1.
         15    1    4    4    0    0 -0.32657902244E+03  0.26686100483E+02 -0.60662424486E+03  0.68946282011E+03  0.00000000000E+00 0.  1.
        -16    1    3    3    0    0  0.47501094934E+03 -0.89427080579E+03  0.55640608977E+03  0.11553975129E+04  0.00000000000E+00 0.  1.
         16    1    6    6    0    0  0.10458799788E+03  0.58763290585E+03  0.50870812989E+03  0.78424169920E+03  0.00000000000E+00 0. -1.
    9900018    1    1    2    0    0  0.50854865883E+01 -0.34078161655E+02  0.12182757656E+03  0.15602666465E+03  0.91187600000E+02 0.  0.
<mgrwt>
<rscale>  0 0.52487244E+04</rscale>
<asrwt>0</asrwt>
<pdfrwt beam="1">  1        1 0.47671027E+00 0.52487244E+04</pdfrwt>
<pdfrwt beam="2">  1       -1 0.34195292E+00 0.52487244E+04</pdfrwt>
<totfact> 0.62893155E-03</totfact>
</mgrwt>
</event>
<event>
12    1  0.2389550E-009  0.5754103E+04  0.7818608E-02  0.7721661E-01
          2   -1    0    0  501    0  0.00000000000E+00  0.00000000000E+00  0.30304116790E+04  0.30304116790E+04  0.00000000000E+00 0.  1.
         -2   -1    0    0    0  501 -0.00000000000E+00 -0.00000000000E+00 -0.27314521736E+04  0.27314521736E+04  0.00000000000E+00 0. -1.
    9900016    2    1    2    0    0  0.97008051568E+02 -0.45024423502E+03  0.30167741325E+03  0.22685177583E+04  0.22006892386E+04 0.  0.
    9900016    2    1    2    0    0 -0.51873764437E+03 -0.40569820517E+03 -0.59688380835E+03  0.23655865428E+04  0.21922704289E+04 0.  0.
        -24    2    4    4    0    0 -0.13108150379E+04 -0.35022857422E+03  0.21233846550E+02  0.13593395987E+04  0.80356396677E+02 0.  0.
        -15    1    3    3    0    0 -0.61949854688E+03  0.35565110107E+03  0.56571526817E+03  0.91120794549E+03  0.00000000000E+00 0.  1.
        -15    1    4    4    0    0  0.79207739352E+03 -0.55469630945E+02 -0.61811765490E+03  0.10062469441E+04  0.00000000000E+00 0.  1.
         15    1    3    3    0    0  0.20048599686E+01  0.77561413965E+02  0.13277830459E+03  0.15378514418E+03  0.00000000000E+00 0. -1.
         15    1    5    5    0    0 -0.40848137278E+03 -0.12278045800E+03 -0.28225790799E+02  0.42746785615E+03  0.00000000000E+00 0. -1.
        -16    1    5    5    0    0 -0.90233366510E+03 -0.22744811622E+03  0.49459637349E+02  0.93187174250E+03  0.00000000000E+00 0.  1.
         16    1    3    3    0    0  0.71450173848E+03 -0.88345675006E+03 -0.39681615952E+03  0.12035246686E+04  0.00000000000E+00 0. -1.
    9900018    1    1    2    0    0  0.42172959280E+03  0.85594244019E+03  0.59416590053E+03  0.11277595515E+04  0.91187600000E+02 0.  0.
<mgrwt>
<rscale>  0 0.57541027E+04</rscale>
<asrwt>0</asrwt>
<pdfrwt beam="1">  1        2 0.46621718E+00 0.57541027E+04</pdfrwt>
<pdfrwt beam="2">  1       -2 0.42022341E+00 0.57541027E+04</pdfrwt>
<totfact> 0.62555971E-03</totfact>
</mgrwt>
</event>
<event>
13    1  0.2389550E-009  0.5025089E+04  0.7818608E-02  0.7824649E-01
         -2   -1    0    0    0  501 -0.00000000000E+00  0.00000000000E+00  0.22160902228E+04  0.22160902228E+04  0.00000000000E+00 0.  1.
          2   -1    0    0  501    0  0.00000000000E+00 -0.00000000000E+00 -0.28486564743E+04  0.28486564743E+04  0.00000000000E+00 0. -1.
    9900016    2    1    2    0    0 -0.13120396113E+03 -0.65990626146E+03 -0.11064814771E+04  0.25562515506E+04  0.22039577985E+04 0.  0.
         23    2    3    3    0    0  0.73096906559E+02  0.30457555425E+03  0.53988660548E+03  0.63726955993E+03  0.12855162092E+03 0.  0.
    9900016    2    1    2    0    0  0.62155058665E+02  0.48008377414E+03  0.42004493980E+03  0.22886746197E+04  0.21971003805E+04 0.  0.
        -24    2    5    5    0    0  0.51572414479E+03 -0.94261821275E+02  0.11430431313E+04  0.12599257856E+04  0.77515809341E+02 0.  0.
        -15    1    5    5    0    0 -0.45356908612E+03  0.57434559541E+03 -0.72299819151E+03  0.10287488342E+04  0.00000000000E+00 0.  1.
        -15    1    4    4    0    0  0.10356805571E+03  0.27164200611E+03  0.43514899024E+03  0.52332625135E+03  0.00000000000E+00 0.  1.
         15    1    6    6    0    0  0.35770904458E+02 -0.17089486493E+01  0.13434808258E+03  0.13903915062E+03  0.00000000000E+00 0. -1.
         15    1    4    4    0    0 -0.30471149152E+02  0.32933548143E+02  0.10473761524E+03  0.11394330858E+03  0.00000000000E+00 0. -1.
        -16    1    6    6    0    0  0.47995324033E+03 -0.92552872626E+02  0.10086950487E+04  0.11208866350E+04  0.00000000000E+00 0.  1.
         16    1    3    3    0    0 -0.20430086769E+03 -0.96448181571E+03 -0.16463680826E+04  0.19189819907E+04  0.00000000000E+00 0. -1.
    9900018    1    1    2    0    0  0.69048902466E+02  0.17982248732E+03  0.53870285800E+02  0.21982052671E+03  0.91187600000E+02 0.  0.
<mgrwt>
<rscale>  0 0.50250890E+04</rscale>
<asrwt>0</asrwt>
<pdfrwt beam="1">  1        2 0.43825484E+00 0.50250890E+04</pdfrwt>
<pdfrwt beam="2">  1       -2 0.34093696E+00 0.50250890E+04</pdfrwt>
<totfact> 0.27836854E-02</totfact>
</mgrwt>
</event>
<event>
13    1  0.2389550E-009  0.5122200E+04  0.7818608E-02  0.7809928E-01
          2   -1    0    0  501    0  0.00000000000E+00  0.00000000000E+00  0.25054553911E+04  0.25054553911E+04  0.00000000000E+00 0. -1.
         -2   -1    0    0    0  501 -0.00000000000E+00 -0.00000000000E+00 -0.26179800149E+04  0.26179800149E+04  0.00000000000E+00 0.  1.
    9900016    2    1    2    0    0 -0.57020700676E+03 -0.54755349750E+03  0.64222591462E+03  0.24104711531E+04  0.21847119241E+04 0.  0.
         23    2    3    3    0    0  0.17856140675E+03  0.29276842780E+03 -0.62153521516E+03  0.71816879584E+03  0.10891679092E+03 0.  0.
    9900016    2    1    2    0    0  0.45295642120E+03  0.36667525152E+03 -0.42945412363E+03  0.23122179796E+04  0.21959737889E+04 0.  0.
        -24    2    5    5    0    0 -0.37199709353E+03 -0.75426314614E+03  0.33245183532E+02  0.84554083669E+03  0.80866142846E+02 0.  0.
        -15    1    4    4    0    0  0.34315558918E+02  0.54450159856E+02 -0.22174171344E+03  0.23089340608E+03  0.00000000000E+00 0.  1.
        -15    1    5    5    0    0  0.82495351474E+03  0.11209383977E+04 -0.46269930717E+03  0.14666771430E+04  0.00000000000E+00 0.  1.
         15    1    6    6    0    0 -0.28926571256E+03 -0.53761221248E+03  0.53012357860E+02  0.61279021986E+03  0.00000000000E+00 0. -1.
         15    1    4    4    0    0  0.14424584783E+03  0.23831826794E+03 -0.39979350172E+03  0.48727538976E+03  0.00000000000E+00 0. -1.
        -16    1    6    6    0    0 -0.82731380975E+02 -0.21665093366E+03 -0.19767174328E+02  0.23275061683E+03  0.00000000000E+00 0.  1.
         16    1    3    3    0    0 -0.74876841351E+03 -0.84032192530E+03  0.12637611298E+04  0.16923023572E+04  0.00000000000E+00 0. -1.
    9900018    1    1    2    0    0  0.11725058555E+03  0.18087824598E+03 -0.32529641475E+03  0.40074627325E+03  0.91187600000E+02 0.  0.
<mgrwt>
<rscale>  0 0.51221996E+04</rscale>
<asrwt>0</asrwt>
<pdfrwt beam="1">  1        2 0.38545468E+00 0.51221996E+04</pdfrwt>
<pdfrwt beam="2">  1       -2 0.40276616E+00 0.51221996E+04</pdfrwt>
<totfact> 0.17754571E-02</totfact>
</mgrwt>
</event>
<event>
12    1  0.2389550E-009  0.5853921E+04  0.7818608E-02  0.7708782E-01
          2   -1    0    0  501    0  0.00000000000E+00  0.00000000000E+00  0.39357503503E+04  0.39357503503E+04  0.00000000000E+00 0. -1.
         -2   -1    0    0    0  501 -0.00000000000E+00 -0.00000000000E+00 -0.21767380756E+04  0.21767380756E+04  0.00000000000E+00 0.  1.
    9900016    2    1    2    0    0 -0.30258184410E+03  0.12751525397E+04  0.74695317840E+03  0.26689613266E+04  0.22017824007E+04 0.  0.
    9900016    2    1    2    0    0 -0.16093684097E+02 -0.24887380187E+03  0.66637219599E+03  0.23110003881E+04  0.21987436673E+04 0.  0.
         24    2    4    4    0    0  0.86719962638E+03  0.53048274902E+03  0.17434372561E+03  0.10344050249E+04  0.78427557887E+02 0.  0.
        -15    1    3    3    0    0  0.30478717889E+03 -0.26446368598E+03  0.24992081290E+03  0.47465427244E+03  0.00000000000E+00 0.  1.
        -15    1    5    5    0    0  0.21982060899E+03  0.16364070988E+03  0.22387167581E+02  0.27495557339E+03  0.00000000000E+00 0.  1.
         15    1    4    4    0    0 -0.88329331048E+03 -0.77935655089E+03  0.49202847038E+03  0.12765953632E+04  0.00000000000E+00 0. -1.
         15    1    3    3    0    0  0.16873889910E+03 -0.18037401845E+03  0.19076857896E+02  0.24773277762E+03  0.00000000000E+00 0. -1.
        -16    1    3    3    0    0 -0.77610792209E+03  0.17199902442E+04  0.47795550760E+03  0.19465742765E+04  0.00000000000E+00 0.  1.
         16    1    5    5    0    0  0.64737901740E+03  0.36684203914E+03  0.15195655803E+03  0.75944945150E+03  0.00000000000E+00 0. -1.
    9900018    1    1    2    0    0  0.31867552820E+03 -0.10262787379E+04  0.34568690031E+03  0.11325267112E+04  0.91187600000E+02 0.  0.
<mgrwt>
<rscale>  0 0.58539210E+04</rscale>
<asrwt>0</asrwt>
<pdfrwt beam="1">  1        2 0.60550005E+00 0.58539210E+04</pdfrwt>
<pdfrwt beam="2">  1       -2 0.33488278E+00 0.58539210E+04</pdfrwt>
<totfact> 0.50511597E-03</totfact>
</mgrwt>
</event>
<event>
12    1  0.3474281E-009  0.6732234E+04  0.7818608E-02  0.7605699E-01
         -2   -1    0    0    0  501 -0.00000000000E+00  0.00000000000E+00  0.28849649467E+04  0.28849649467E+04  0.00000000000E+00 0.  1.
          2   -1    0    0  501    0  0.00000000000E+00 -0.00000000000E+00 -0.39275155543E+04  0.39275155543E+04  0.00000000000E+00 0. -1.
    9900016    2    1    2    0    0 -0.11844831959E+04 -0.13536951807E+04  0.11551137586E+04  0.30612371261E+04  0.21912083112E+04 0.  0.
    9900016    2    1    2    0    0  0.11549943039E+04  0.12749949391E+04 -0.17766042894E+04  0.33123013635E+04  0.22034957646E+04 0.  0.
         24    2    4    4    0    0  0.66968770936E+03  0.10779675458E+04  0.18238507011E+03  0.12844992047E+04  0.78601750331E+02 0.  0.
        -15    1    5    5    0    0  0.15830618191E+03  0.21375747916E+03  0.62071771471E+02  0.27314101109E+03  0.00000000000E+00 0.  1.
        -15    1    3    3    0    0 -0.38032208634E+03  0.13348892465E+03 -0.47675518576E+02  0.40587822981E+03  0.00000000000E+00 0. -1.
         15    1    3    3    0    0 -0.32042952817E+03  0.20081171554E+03 -0.18143245734E+03  0.41942599371E+03  0.00000000000E+00 0.  1.
         15    1    4    4    0    0  0.48530659451E+03  0.19702739326E+03 -0.19589893595E+04  0.20278021588E+04  0.00000000000E+00 0. -1.
        -16    1    3    3    0    0 -0.48373158136E+03 -0.16879958209E+04  0.13842217345E+04  0.22359329025E+04  0.00000000000E+00 0.  1.
         16    1    5    5    0    0  0.51138152745E+03  0.86421006669E+03  0.12031329864E+03  0.10113581936E+04  0.00000000000E+00 0. -1.
    9900018    1    1    2    0    0  0.29488892002E+02  0.78700241640E+02 -0.42106007680E+03  0.43894201150E+03  0.91187600000E+02 0.  0.
<mgrwt>
<rscale>  0 0.67322343E+04</rscale>
<asrwt>0</asrwt>
<pdfrwt beam="1">  1        2 0.60423316E+00 0.67322343E+04</pdfrwt>
<pdfrwt beam="2">  1       -2 0.44384076E+00 0.67322343E+04</pdfrwt>
<totfact> 0.94866768E-04</totfact>
</mgrwt>
</event>
<event>
13    1  0.2389550E-009  0.6041285E+04  0.7818608E-02  0.7685304E-01
         -1   -1    0    0    0  501 -0.00000000000E+00  0.00000000000E+00  0.23139266471E+04  0.23139266471E+04  0.00000000000E+00 0.  1.
          1   -1    0    0  501    0  0.00000000000E+00 -0.00000000000E+00 -0.39432029047E+04  0.39432029047E+04  0.00000000000E+00 0. -1.
    9900016    2    1    2    0    0  0.43877162553E+03  0.13945150621E+04 -0.25760953123E+03  0.26567062313E+04  0.22033003724E+04 0.  0.
         23    2    3    3    0    0  0.19431857383E+02  0.36018200158E+03 -0.11614071749E+04  0.12205513295E+04  0.10377981893E+03 0.  0.
    9900016    2    1    2    0    0  0.15078184956E+03 -0.52499786096E+03 -0.80708840120E+03  0.24043057148E+04  0.21979391172E+04 0.  0.
         24    2    5    5    0    0 -0.88417899089E+03  0.30249976171E+03 -0.28581281897E+03  0.98035891478E+03  0.78332882825E+02 0.  0.
        -15    1    4    4    0    0  0.34134495201E+02  0.32253758160E+02 -0.13549139893E+03  0.14339939980E+03  0.00000000000E+00 0.  1.
        -15    1    6    6    0    0 -0.49496556089E+03  0.20605834932E+03 -0.14553354069E+03  0.55554564282E+03  0.00000000000E+00 0.  1.
         15    1    5    5    0    0  0.10349608405E+04 -0.82749762266E+03 -0.52127558223E+03  0.14239468001E+04  0.00000000000E+00 0. -1.
         15    1    4    4    0    0 -0.14702637817E+02  0.32792824342E+03 -0.10259157759E+04  0.10771519297E+04  0.00000000000E+00 0. -1.
        -16    1    3    3    0    0  0.41933976814E+03  0.10343330605E+04  0.90379764364E+03  0.14361549018E+04  0.00000000000E+00 0.  1.
         16    1    6    6    0    0 -0.38921343000E+03  0.96441412389E+02 -0.14027927828E+03  0.42481327196E+03  0.00000000000E+00 0. -1.
    9900018    1    1    2    0    0 -0.58955347509E+03 -0.86951720114E+03 -0.56457832512E+03  0.11961176057E+04  0.91187600000E+02 0.  0.
<mgrwt>
<rscale>  0 0.60412854E+04</rscale>
<asrwt>0</asrwt>
<pdfrwt beam="1">  1        1 0.60664660E+00 0.60412854E+04</pdfrwt>
<pdfrwt beam="2">  1       -1 0.35598872E+00 0.60412854E+04</pdfrwt>
<totfact> 0.10123742E-03</totfact>
</mgrwt>
</event>
<event>
13    1  0.2389550E-009  0.6916061E+04  0.7818608E-02  0.7586154E-01
         -2   -1    0    0    0  501 -0.00000000000E+00  0.00000000000E+00  0.31895898353E+04  0.31895898353E+04  0.00000000000E+00 0.  1.
          2   -1    0    0  501    0  0.00000000000E+00 -0.00000000000E+00 -0.37490636525E+04  0.37490636525E+04  0.00000000000E+00 0. -1.
    9900016    2    1    2    0    0 -0.17245410561E+04 -0.11967090377E+04 -0.10336720711E+04  0.31784367020E+04  0.21512386067E+04 0.  0.
         23    2    3    3    0    0 -0.21901496763E+03 -0.11132020349E+03  0.63077391502E+03  0.68543486385E+03  0.10763585350E+03 0.  0.
    9900016    2    1    2    0    0  0.81775576770E+03  0.21119706044E+03  0.53620806171E+03  0.24164706002E+04  0.21996550599E+04 0.  0.
         24    2    5    5    0    0 -0.69996090181E+02 -0.23768410822E+03 -0.74801570012E+03  0.79202351422E+03  0.79878479607E+02 0.  0.
        -15    1    6    6    0    0 -0.68653592926E+02 -0.13106647175E+03 -0.35036012032E+03  0.38032085106E+03  0.00000000000E+00 0.  1.
        -15    1    4    4    0    0 -0.13241818061E+03 -0.12022728885E+03  0.46463377123E+03  0.49786917650E+03  0.00000000000E+00 0.  1.
         15    1    5    5    0    0  0.88775185788E+03  0.44888116866E+03  0.12842237618E+04  0.16244470860E+04  0.00000000000E+00 0. -1.
         15    1    4    4    0    0 -0.86596787027E+02  0.89070853645E+01  0.16614014378E+03  0.18756568734E+03  0.00000000000E+00 0. -1.
        -16    1    3    3    0    0 -0.15055260884E+04 -0.10853888343E+04 -0.16644459861E+04  0.24930018382E+04  0.00000000000E+00 0.  1.
         16    1    6    6    0    0 -0.13424972551E+01 -0.10661763647E+03 -0.39765557981E+03  0.41170266316E+03  0.00000000000E+00 0. -1.
    9900018    1    1    2    0    0  0.90678528837E+03  0.98551197731E+03 -0.62009807859E+02  0.13437461856E+04  0.91187600000E+02 0.  0.
<mgrwt>
<rscale>  0 0.69160611E+04</rscale>
<asrwt>0</asrwt>
<pdfrwt beam="1">  1        2 0.57677902E+00 0.69160611E+04</pdfrwt>
<pdfrwt beam="2">  1       -2 0.49070613E+00 0.69160611E+04</pdfrwt>
<totfact> 0.64103319E-04</totfact>
</mgrwt>
</event>
<event>
12    1  0.2389550E-009  0.6283852E+04  0.7818608E-02  0.7656170E-01
          2   -1    0    0  501    0  0.00000000000E+00  0.00000000000E+00  0.32900650511E+04  0.32900650511E+04  0.00000000000E+00 0. -1.
         -2   -1    0    0    0  501 -0.00000000000E+00 -0.00000000000E+00 -0.30004568351E+04  0.30004568351E+04  0.00000000000E+00 0.  1.
    9900016    2    1    2    0    0 -0.15698568924E+04  0.71237901068E+03 -0.37553220938E+03  0.28166890780E+04  0.21956271096E+04 0.  0.
    9900016    2    1    2    0    0  0.12487199305E+04 -0.11975352186E+04  0.38605863889E+03  0.28221370844E+04  0.21959108329E+04 0.  0.
        -24    2    4    4    0    0  0.89806851298E+03  0.17112208457E+03 -0.60307155957E+03  0.10974464514E+04  0.69882658235E+02 0.  0.
        -15    1    4    4    0    0  0.35065141751E+03 -0.13686573031E+04  0.98913019846E+03  0.17246906330E+04  0.00000000000E+00 0.  1.
        -15    1    3    3    0    0  0.17002395264E+03  0.29972328556E+03  0.30393833866E+03  0.45947873301E+03  0.00000000000E+00 0. -1.
         15    1    5    5    0    0  0.14105392470E+03  0.21991480545E+02 -0.65434571984E+02  0.15703986151E+03  0.00000000000E+00 0. -1.
         15    1    3    3    0    0  0.17294916640E+03  0.20662241961E+03  0.91534862420E+02  0.28457489257E+03  0.00000000000E+00 0.  1.
        -16    1    5    5    0    0  0.75701458827E+03  0.14913060403E+03 -0.53763698758E+03  0.94040658990E+03  0.00000000000E+00 0.  1.
         16    1    3    3    0    0 -0.19128300115E+04  0.20603330550E+03 -0.77100541045E+03  0.20726354524E+04  0.00000000000E+00 0. -1.
    9900018    1    1    2    0    0  0.32113696196E+03  0.48515620789E+03  0.27908178650E+03  0.65169572374E+03  0.91187600000E+02 0.  0.
<mgrwt>
<rscale>  0 0.62838517E+04</rscale>
<asrwt>0</asrwt>
<pdfrwt beam="1">  1        2 0.50616385E+00 0.62838517E+04</pdfrwt>
<pdfrwt beam="2">  1       -2 0.46160874E+00 0.62838517E+04</pdfrwt>
<totfact> 0.21790977E-03</totfact>
</mgrwt>
</event>
<event>
13    1  0.2389550E-009  0.5227547E+04  0.7818608E-02  0.7794334E-01
          2   -1    0    0  501    0  0.00000000000E+00  0.00000000000E+00  0.43196963470E+04  0.43196963470E+04  0.00000000000E+00 0. -1.
         -2   -1    0    0    0  501 -0.00000000000E+00 -0.00000000000E+00 -0.15815490053E+04  0.15815490053E+04  0.00000000000E+00 0.  1.
    9900016    2    1    2    0    0 -0.58071917990E+03  0.61912502862E+02  0.14181898923E+03  0.23020533161E+04  0.22222216182E+04 0.  0.
         23    2    3    3    0    0  0.55403392378E+03 -0.27422034814E+02  0.80615888369E+03  0.98410310406E+03  0.10421716260E+03 0.  0.
    9900016    2    1    2    0    0  0.43759329324E+03  0.97909997948E+02  0.24538224299E+04  0.33259680116E+04  0.21999419172E+04 0.  0.
         24    2    5    5    0    0 -0.51083471796E+03 -0.36664920222E+03  0.21285682374E+04  0.22209244683E+04  0.79492177276E+02 0.  0.
        -15    1    6    6    0    0 -0.21290325213E+03 -0.12411556676E+03  0.94281690755E+03  0.97449278594E+03  0.00000000000E+00 0.  1.
        -15    1    4    4    0    0  0.13953055173E+03 -0.52416312585E+02  0.22156329148E+03  0.26703283847E+03  0.00000000000E+00 0.  1.
         15    1    5    5    0    0  0.94842801120E+03  0.46455920017E+03  0.32525419249E+03  0.11050435433E+04  0.00000000000E+00 0. -1.
         15    1    4    4    0    0  0.41450337205E+03  0.24994277771E+02  0.58459559222E+03  0.71707026560E+03  0.00000000000E+00 0. -1.
        -16    1    3    3    0    0 -0.11347531037E+04  0.89334537676E+02 -0.66433989446E+03  0.13179502120E+04  0.00000000000E+00 0.  1.
         16    1    6    6    0    0 -0.29793146583E+03 -0.24253363547E+03  0.11857513298E+04  0.12464316824E+04  0.00000000000E+00 0. -1.
    9900018    1    1    2    0    0  0.14312588666E+03 -0.15982250081E+03  0.14250592261E+03  0.27322402451E+03  0.91187600000E+02 0.  0.
<mgrwt>
<rscale>  0 0.52275468E+04</rscale>
<asrwt>0</asrwt>
<pdfrwt beam="1">  1        2 0.66456866E+00 0.52275468E+04</pdfrwt>
<pdfrwt beam="2">  1       -2 0.24331523E+00 0.52275468E+04</pdfrwt>
<totfact> 0.91249642E-03</totfact>
</mgrwt>
</event>
<event>
12    1  0.2389550E-009  0.5922666E+04  0.7818608E-02  0.7700065E-01
         -1   -1    0    0    0  501 -0.00000000000E+00  0.00000000000E+00  0.42018813141E+04  0.42018813141E+04  0.00000000000E+00 0.  1.
          1   -1    0    0  501    0  0.00000000000E+00 -0.00000000000E+00 -0.20870397665E+04  0.20870397665E+04  0.00000000000E+00 0. -1.
    9900016    2    1    2    0    0 -0.36296513748E+02  0.11417472045E+04  0.86274138161E+02  0.24791671646E+04  0.21986183132E+04 0.  0.
    9900016    2    1    2    0    0 -0.36256630316E+02 -0.14261154652E+04  0.22335402726E+04  0.34403512638E+04  0.21936715355E+04 0.  0.
         24    2    4    4    0    0  0.75304709131E+03  0.22112038033E+03  0.72360990274E+03  0.10704829093E+04  0.79675739757E+02 0.  0.
        -15    1    5    5    0    0  0.49127171738E+03  0.15093040571E+03  0.52335097608E+03  0.73350128277E+03  0.00000000000E+00 0.  1.
        -15    1    3    3    0    0  0.49456424396E+02 -0.16060058366E+03 -0.26166863507E+03  0.31098064243E+03  0.00000000000E+00 0.  1.
         15    1    3    3    0    0  0.18999468326E+03 -0.33107755881E+03 -0.19013308082E+03  0.42645154242E+03  0.00000000000E+00 0. -1.
         15    1    4    4    0    0 -0.78930372162E+03 -0.16472358455E+04  0.15099303699E+04  0.23698683545E+04  0.00000000000E+00 0. -1.
        -16    1    3    3    0    0 -0.27574762140E+03  0.16334253470E+04  0.53807585406E+03  0.17417349797E+04  0.00000000000E+00 0.  1.
         16    1    5    5    0    0  0.26177537393E+03  0.70189974620E+02  0.20025892666E+03  0.33698162656E+03  0.00000000000E+00 0. -1.
    9900018    1    1    2    0    0  0.72553144064E+02  0.28436826070E+03 -0.20497286318E+03  0.36940265219E+03  0.91187600000E+02 0.  0.
<mgrwt>
<rscale>  0 0.59226661E+04</rscale>
<asrwt>0</asrwt>
<pdfrwt beam="1">  1        1 0.32108304E+00 0.59226661E+04</pdfrwt>
<pdfrwt beam="2">  1       -1 0.64644328E+00 0.59226661E+04</pdfrwt>
<totfact> 0.53641292E-04</totfact>
</mgrwt>
</event>
<event>
13    1  0.2389550E-009  0.5441714E+04  0.7818608E-02  0.7763761E-01
         -2   -1    0    0    0  501 -0.00000000000E+00  0.00000000000E+00  0.26899798468E+04  0.26899798468E+04  0.00000000000E+00 0.  1.
          2   -1    0    0  501    0  0.00000000000E+00 -0.00000000000E+00 -0.27520888625E+04  0.27520888625E+04  0.00000000000E+00 0. -1.
    9900016    2    1    2    0    0  0.92808642470E+03 -0.46324907653E+03 -0.99929828387E+02  0.24379754040E+04  0.22040403765E+04 0.  0.
         23    2    3    3    0    0  0.18587173518E+03  0.34213254657E+03  0.88196567372E+03  0.96704339296E+03  0.75541332332E+02 0.  0.
    9900016    2    1    2    0    0 -0.98148167275E+03 -0.53330578427E+02  0.23229170735E+03  0.24420971311E+04  0.22234496927E+04 0.  0.
         24    2    5    5    0    0  0.43053963704E+03 -0.34858710638E+03 -0.56362006791E+03  0.79453646438E+03  0.82117370183E+02 0.  0.
        -15    1    4    4    0    0  0.63308865282E+01  0.69280540638E+02  0.17262014156E+03  0.18611175865E+03  0.00000000000E+00 0.  1.
        -15    1    6    6    0    0  0.35164412303E+03 -0.31448013170E+03 -0.44900657930E+03  0.65127432833E+03  0.00000000000E+00 0.  1.
         15    1    5    5    0    0 -0.14120213098E+04  0.29525652795E+03  0.79591177526E+03  0.16475606667E+04  0.00000000000E+00 0. -1.
         15    1    4    4    0    0  0.17954084865E+03  0.27285200593E+03  0.70934553215E+03  0.78093163431E+03  0.00000000000E+00 0. -1.
        -16    1    3    3    0    0  0.74221468953E+03 -0.80538162309E+03 -0.98189550210E+03  0.14709320111E+04  0.00000000000E+00 0.  1.
         16    1    6    6    0    0  0.78895514008E+02 -0.34106974677E+02 -0.11461348862E+03  0.14326213605E+03  0.00000000000E+00 0. -1.
    9900018    1    1    2    0    0  0.53395248045E+02  0.51657965495E+03 -0.19447089466E+03  0.56199617408E+03  0.91187600000E+02 0.  0.
<mgrwt>
<rscale>  0 0.54417143E+04</rscale>
<asrwt>0</asrwt>
<pdfrwt beam="1">  1        2 0.42339829E+00 0.54417143E+04</pdfrwt>
<pdfrwt beam="2">  1       -2 0.41384305E+00 0.54417143E+04</pdfrwt>
<totfact> 0.10476355E-02</totfact>
</mgrwt>
</event>
<event>
13    1  0.2389550E-009  0.5596581E+04  0.7818608E-02  0.7742538E-01
         -2   -1    0    0    0  501 -0.00000000000E+00  0.00000000000E+00  0.20633266770E+04  0.20633266770E+04  0.00000000000E+00 0.  1.
          2   -1    0    0  501    0  0.00000000000E+00 -0.00000000000E+00 -0.37950505549E+04  0.37950505549E+04  0.00000000000E+00 0. -1.
    9900016    2    1    2    0    0 -0.26626837841E+03  0.10494573579E+04 -0.30400406605E+03  0.24658535875E+04  0.21944830479E+04 0.  0.
         23    2    3    3    0    0 -0.16597153846E+03 -0.36482612138E+03  0.64006767344E+03  0.76246617853E+03  0.10499236350E+03 0.  0.
    9900016    2    1    2    0    0  0.68897240741E+03 -0.56905367595E+03 -0.13801482874E+04  0.27444151487E+04  0.21973848432E+04 0.  0.
         24    2    5    5    0    0  0.10805398873E+04 -0.22909404347E+03 -0.17753463927E+04  0.20924341786E+04  0.79846407783E+02 0.  0.
        -15    1    4    4    0    0 -0.84656714948E+02 -0.29495733894E+03  0.46246745771E+03  0.55501598231E+03  0.00000000000E+00 0. -1.
        -15    1    6    6    0    0  0.24914289442E+03 -0.19371837924E+02 -0.41282559537E+03  0.48256856729E+03  0.00000000000E+00 0.  1.
         15    1    5    5    0    0 -0.39156747985E+03 -0.33995963248E+03  0.39519810530E+03  0.65198097014E+03  0.00000000000E+00 0. -1.
         15    1    4    4    0    0 -0.81314823509E+02 -0.69868782442E+02  0.17760021573E+03  0.20745019621E+03  0.00000000000E+00 0.  1.
        -16    1    3    3    0    0 -0.10029683995E+03  0.14142834793E+04 -0.94407173949E+03  0.17033874090E+04  0.00000000000E+00 0.  1.
         16    1    6    6    0    0  0.83139699284E+03 -0.20972220555E+03 -0.13625207973E+04  0.16098656113E+04  0.00000000000E+00 0. -1.
    9900018    1    1    2    0    0 -0.42270402901E+03 -0.48040368196E+03 -0.47571524343E+02  0.64810849562E+03  0.91187600000E+02 0.  0.
<mgrwt>
<rscale>  0 0.55965808E+04</rscale>
<asrwt>0</asrwt>
<pdfrwt beam="1">  1        2 0.58385393E+00 0.55965808E+04</pdfrwt>
<pdfrwt beam="2">  1       -2 0.31743488E+00 0.55965808E+04</pdfrwt>
<totfact> 0.85125186E-03</totfact>
</mgrwt>
</event>
<event>
13    1  0.2389550E-009  0.5309713E+04  0.7818608E-02  0.7782429E-01
         -2   -1    0    0    0  501 -0.00000000000E+00  0.00000000000E+00  0.16053358927E+04  0.16053358927E+04  0.00000000000E+00 0.  1.
          2   -1    0    0  501    0  0.00000000000E+00 -0.00000000000E+00 -0.43905225148E+04  0.43905225148E+04  0.00000000000E+00 0. -1.
    9900016    2    1    2    0    0 -0.28070226931E+03 -0.11017014906E+04 -0.15415408934E+04  0.29141097073E+04  0.21961664605E+04 0.  0.
         23    2    3    3    0    0  0.16799547098E+03 -0.41836094890E+03  0.51989674412E+03  0.69649633000E+03  0.10754604275E+03 0.  0.
    9900016    2    1    2    0    0  0.27022752113E+03  0.76071993577E+03 -0.13697006587E+04  0.27068044846E+04  0.21906603775E+04 0.  0.
        -24    2    5    5    0    0 -0.48941523946E+03  0.60918492751E+02 -0.15761276862E+04  0.16535280247E+04  0.82085965185E+02 0.  0.
        -15    1    4    4    0    0  0.76608927249E+02 -0.30445032590E+03  0.31358147771E+03  0.44372544646E+03  0.00000000000E+00 0.  1.
        -15    1    5    5    0    0  0.75964276059E+03  0.69980144302E+03  0.20642702755E+03  0.10532764599E+04  0.00000000000E+00 0.  1.
         15    1    4    4    0    0  0.91386543727E+02 -0.11391062300E+03  0.20631526641E+03  0.25277088353E+03  0.00000000000E+00 0. -1.
         15    1    6    6    0    0 -0.24873605374E+03  0.40605833260E+02 -0.67242759410E+03  0.71810676604E+03  0.00000000000E+00 0. -1.
        -16    1    6    6    0    0 -0.24067918572E+03  0.20312659491E+02 -0.90370009212E+03  0.93542125861E+03  0.00000000000E+00 0.  1.
         16    1    3    3    0    0 -0.44869774029E+03 -0.68334054165E+03 -0.20614376375E+04  0.22176133773E+04  0.00000000000E+00 0. -1.
    9900018    1    1    2    0    0  0.10474748184E+02  0.34098155478E+03  0.12605492993E+03  0.37494421559E+03  0.91187600000E+02 0.  0.
<mgrwt>
<rscale>  0 0.53097131E+04</rscale>
<asrwt>0</asrwt>
<pdfrwt beam="1">  1        2 0.67546501E+00 0.53097131E+04</pdfrwt>
<pdfrwt beam="2">  1       -2 0.24697475E+00 0.53097131E+04</pdfrwt>
<totfact> 0.73982678E-03</totfact>
</mgrwt>
</event>
<event>
13    1  0.2389550E-009  0.5563492E+04  0.7818608E-02  0.7747013E-01
         -1   -1    0    0    0  501 -0.00000000000E+00  0.00000000000E+00  0.21202776872E+04  0.21202776872E+04  0.00000000000E+00 0.  1.
          1   -1    0    0  501    0  0.00000000000E+00 -0.00000000000E+00 -0.36495740437E+04  0.36495740437E+04  0.00000000000E+00 0. -1.
    9900016    2    1    2    0    0  0.14760402167E+04 -0.42974929931E+02 -0.99696088233E+03  0.28379281464E+04  0.22089281558E+04 0.  0.
         23    2    3    3    0    0 -0.54169922679E+03  0.25236979906E+03 -0.14112187383E+03  0.62637634304E+03  0.12370679879E+03 0.  0.
    9900016    2    1    2    0    0 -0.10822389885E+04 -0.97393326546E+02 -0.44020302407E+03  0.24942179510E+04  0.22015035309E+04 0.  0.
        -24    2    5    5    0    0  0.10440592235E+02  0.46191787276E+03 -0.10304905294E+04  0.11321544346E+04  0.79911234774E+02 0.  0.
        -15    1    4    4    0    0 -0.16255495203E+03  0.37518515011E+02  0.45356129612E+01  0.16689015304E+03  0.00000000000E+00 0.  1.
        -15    1    5    5    0    0 -0.10926795807E+04 -0.55931119931E+03  0.59028750531E+03  0.13620635164E+04  0.00000000000E+00 0.  1.
         15    1    6    6    0    0 -0.23853170358E+02  0.18479799811E+03 -0.34786898001E+03  0.39462906773E+03  0.00000000000E+00 0. -1.
         15    1    4    4    0    0 -0.37914427476E+03  0.21485128405E+03 -0.14565748679E+03  0.45948619000E+03  0.00000000000E+00 0. -1.
        -16    1    6    6    0    0  0.34293762592E+02  0.27711987465E+03 -0.68262154938E+03  0.73752536685E+03  0.00000000000E+00 0.  1.
         16    1    3    3    0    0  0.20177394435E+04 -0.29534472899E+03 -0.85583900850E+03  0.22115518034E+04  0.00000000000E+00 0. -1.
    9900018    1    1    2    0    0 -0.39380122818E+03  0.14036825648E+03 -0.92132450094E+02  0.43770563339E+03  0.91187600000E+02 0.  0.
<mgrwt>
<rscale>  0 0.55634919E+04</rscale>
<asrwt>0</asrwt>
<pdfrwt beam="1">  1        1 0.56147292E+00 0.55634919E+04</pdfrwt>
<pdfrwt beam="2">  1       -1 0.32619657E+00 0.55634919E+04</pdfrwt>
<totfact> 0.29163406E-03</totfact>
</mgrwt>
</event>
<event>
13    1  0.2709735E-009  0.4984429E+04  0.7818608E-02  0.7830914E-01
         -2   -1    0    0    0  501 -0.00000000000E+00  0.00000000000E+00  0.23620666962E+04  0.23620666962E+04  0.00000000000E+00 0.  1.
          2   -1    0    0  501    0  0.00000000000E+00 -0.00000000000E+00 -0.26295333542E+04  0.26295333542E+04  0.00000000000E+00 0. -1.
    9900016    2    1    2    0    0  0.41473273684E+03  0.47099111200E+03  0.23223968188E+03  0.22960836900E+04  0.21964127962E+04 0.  0.
         23    2    3    3    0    0 -0.45146385868E+02  0.41153131366E+03  0.11720835796E+04  0.12480708909E+04  0.11182492018E+03 0.  0.
    9900016    2    1    2    0    0 -0.32143476751E+03 -0.63590753401E+03 -0.68226198257E+03  0.24170497045E+04  0.22065695456E+04 0.  0.
        -24    2    5    5    0    0  0.47766968107E+03 -0.11003640797E+03 -0.12218115520E+04  0.13187682748E+04  0.77781481155E+02 0.  0.
        -15    1    5    5    0    0 -0.79910444858E+03 -0.52587112604E+03  0.53954956943E+03  0.10982814297E+04  0.00000000000E+00 0.  1.
        -15    1    4    4    0    0 -0.47432566582E+02  0.18168068722E+03  0.67105435836E+03  0.69682972981E+03  0.00000000000E+00 0.  1.
         15    1    6    6    0    0  0.17114008636E+03 -0.74811736491E+02 -0.42099265578E+03  0.46056545822E+03  0.00000000000E+00 0. -1.
         15    1    4    4    0    0  0.22861807140E+01  0.22985062644E+03  0.50102922125E+03  0.55124116106E+03  0.00000000000E+00 0. -1.
        -16    1    6    6    0    0  0.30652959471E+03 -0.35224671476E+02 -0.80081889622E+03  0.85820281662E+03  0.00000000000E+00 0.  1.
         16    1    3    3    0    0  0.45987912271E+03  0.59459798338E+02 -0.93984389773E+03  0.10480127992E+04  0.00000000000E+00 0. -1.
    9900018    1    1    2    0    0 -0.93297969328E+02  0.16491642201E+03  0.18255564266E+03  0.27846665580E+03  0.91187600000E+02 0.  0.
<mgrwt>
<rscale>  0 0.49844290E+04</rscale>
<asrwt>0</asrwt>
<pdfrwt beam="1">  1        2 0.40454359E+00 0.49844290E+04</pdfrwt>
<pdfrwt beam="2">  1       -2 0.36339488E+00 0.49844290E+04</pdfrwt>
<totfact> 0.27271654E-02</totfact>
</mgrwt>
</event>
<event>
13    1  0.2389550E-009  0.6591741E+04  0.7818608E-02  0.7621070E-01
          2   -1    0    0  501    0  0.00000000000E+00  0.00000000000E+00  0.41865202224E+04  0.41865202224E+04  0.00000000000E+00 0. -1.
         -2   -1    0    0    0  501 -0.00000000000E+00 -0.00000000000E+00 -0.25946996554E+04  0.25946996554E+04  0.00000000000E+00 0.  1.
    9900016    2    1    2    0    0  0.91108261861E+03  0.38358637991E+03 -0.77154251756E+03  0.25320526412E+04  0.21997278633E+04 0.  0.
         23    2    3    3    0    0 -0.41594543985E+03  0.62952973254E+03  0.28995525786E+03  0.81500018776E+03  0.10408151324E+03 0.  0.
    9900016    2    1    2    0    0 -0.65783493053E+03 -0.42791290837E+03  0.28546051167E+04  0.36872658705E+04  0.21980225145E+04 0.  0.
        -24    2    5    5    0    0 -0.91368826852E+03  0.68913101537E+03  0.17710915674E+04  0.21101642030E+04  0.79371373285E+02 0.  0.
        -15    1    5    5    0    0  0.25585333800E+03 -0.11170439237E+04  0.10835135493E+04  0.15771016675E+04  0.00000000000E+00 0.  1.
        -15    1    4    4    0    0 -0.34013063958E+03  0.56793872119E+03  0.27191629513E+03  0.71566871845E+03  0.00000000000E+00 0. -1.
         15    1    6    6    0    0 -0.24010230644E+03  0.15039096197E+03  0.48293168184E+03  0.55990139161E+03  0.00000000000E+00 0. -1.
         15    1    4    4    0    0 -0.75814800267E+02  0.61591011355E+02  0.18038962733E+02  0.99331469313E+02  0.00000000000E+00 0.  1.
        -16    1    6    6    0    0 -0.67358596209E+03  0.53874005339E+03  0.12881598856E+04  0.15502628114E+04  0.00000000000E+00 0.  1.
         16    1    3    3    0    0  0.13270280585E+04 -0.24594335263E+03 -0.10614977754E+04  0.17170524534E+04  0.00000000000E+00 0. -1.
    9900018    1    1    2    0    0 -0.25324768808E+03  0.44326528455E+02 -0.49124203221E+03  0.56190136611E+03  0.91187600000E+02 0.  0.
<mgrwt>
<rscale>  0 0.65917411E+04</rscale>
<asrwt>0</asrwt>
<pdfrwt beam="1">  1        2 0.64408003E+00 0.65917411E+04</pdfrwt>
<pdfrwt beam="2">  1       -2 0.39918456E+00 0.65917411E+04</pdfrwt>
<totfact> 0.11471662E-03</totfact>
</mgrwt>
</event>
<event>
13    1  0.2389550E-009  0.4890688E+04  0.7818608E-02  0.7845594E-01
          1   -1    0    0  501    0  0.00000000000E+00  0.00000000000E+00  0.29174584373E+04  0.29174584373E+04  0.00000000000E+00 0. -1.
         -1   -1    0    0    0  501 -0.00000000000E+00 -0.00000000000E+00 -0.20496286225E+04  0.20496286225E+04  0.00000000000E+00 0.  1.
    9900016    2    1    2    0    0 -0.57125200477E+03 -0.21824208767E+02  0.96203326769E+03  0.24689530683E+04  0.22007762485E+04 0.  0.
         23    2    3    3    0    0  0.47899163354E+03  0.42586368037E+03 -0.34339939405E+03  0.73471243323E+03  0.10529176824E+03 0.  0.
    9900016    2    1    2    0    0  0.58135674979E+03  0.15650663792E+03 -0.21722022381E+03  0.22939532703E+04  0.22028542808E+04 0.  0.
        -24    2    5    5    0    0  0.57681206570E+03 -0.27423985585E+03  0.89429333535E+03  0.11018854919E+04  0.80445073951E+02 0.  0.
        -15    1    5    5    0    0  0.45446840938E+01  0.43074649376E+03 -0.11115135592E+04  0.11920677784E+04  0.00000000000E+00 0.  1.
        -15    1    4    4    0    0  0.20430642633E+02  0.47056688488E+02 -0.81328344232E+01  0.51941179094E+02  0.00000000000E+00 0.  1.
         15    1    4    4    0    0  0.45856099090E+03  0.37880699188E+03 -0.33526655963E+03  0.68277125414E+03  0.00000000000E+00 0. -1.
         15    1    6    6    0    0  0.38034282191E+03 -0.22059597765E+03  0.59325417858E+03  0.73842654878E+03  0.00000000000E+00 0. -1.
        -16    1    6    6    0    0  0.19646924379E+03 -0.53643878191E+02  0.30103915677E+03  0.36345894312E+03  0.00000000000E+00 0.  1.
         16    1    3    3    0    0 -0.10502436383E+04 -0.44768788913E+03  0.13054326617E+04  0.17342406350E+04  0.00000000000E+00 0. -1.
    9900018    1    1    2    0    0 -0.10104745017E+02 -0.13468242915E+03  0.12301677100E+03  0.20418072126E+03  0.91187600000E+02 0.  0.
<mgrwt>
<rscale>  0 0.48906876E+04</rscale>
<asrwt>0</asrwt>
<pdfrwt beam="1">  1        1 0.44883976E+00 0.48906876E+04</pdfrwt>
<pdfrwt beam="2">  1       -1 0.31532748E+00 0.48906876E+04</pdfrwt>
<totfact> 0.13120213E-02</totfact>
</mgrwt>
</event>
<event>
12    1  0.2389550E-009  0.5548476E+04  0.7818608E-02  0.7749054E-01
          2   -1    0    0  501    0  0.00000000000E+00  0.00000000000E+00  0.29065571932E+04  0.29065571932E+04  0.00000000000E+00 0. -1.
         -2   -1    0    0    0  501 -0.00000000000E+00 -0.00000000000E+00 -0.26479424429E+04  0.26479424429E+04  0.00000000000E+00 0.  1.
    9900016    2    1    2    0    0  0.48208748306E+03 -0.12687140567E+04  0.56445458864E+03  0.26451789774E+04  0.21991632821E+04 0.  0.
    9900016    2    1    2    0    0 -0.61385962498E+03  0.90093791303E+03 -0.91579248984E+02  0.24545174400E+04  0.21972155884E+04 0.  0.
         24    2    4    4    0    0  0.77427711257E+03 -0.33837937537E+02 -0.17057041336E+02  0.77932101795E+03  0.80001583096E+02 0.  0.
        -15    1    3    3    0    0  0.86942043467E+02 -0.23966510106E+02  0.42345607062E+03  0.43295306474E+03  0.00000000000E+00 0. -1.
        -15    1    5    5    0    0  0.12046452253E+03 -0.31110299811E+02  0.10991179206E+02  0.12490139296E+03  0.00000000000E+00 0.  1.
         15    1    3    3    0    0  0.30159482119E+03  0.49574242728E+02  0.72678695305E+03  0.78843916495E+03  0.00000000000E+00 0.  1.
         15    1    4    4    0    0 -0.13881367375E+04  0.93477585057E+03 -0.74522207648E+02  0.16751964220E+04  0.00000000000E+00 0. -1.
        -16    1    3    3    0    0  0.93550618397E+02 -0.12943217893E+04 -0.58578843502E+03  0.14237867477E+04  0.00000000000E+00 0.  1.
         16    1    5    5    0    0  0.65381259004E+03 -0.27276377267E+01 -0.28048220542E+02  0.65441962499E+03  0.00000000000E+00 0. -1.
    9900018    1    1    2    0    0  0.13177214192E+03  0.36777614363E+03 -0.21426058931E+03  0.45480321870E+03  0.91187600000E+02 0.  0.
<mgrwt>
<rscale>  0 0.55484759E+04</rscale>
<asrwt>0</asrwt>
<pdfrwt beam="1">  1        2 0.44716265E+00 0.55484759E+04</pdfrwt>
<pdfrwt beam="2">  1       -2 0.40737576E+00 0.55484759E+04</pdfrwt>
<totfact> 0.92239434E-03</totfact>
</mgrwt>
</event>
<event>
13    1  0.2389550E-009  0.5564980E+04  0.7818608E-02  0.7746811E-01
          1   -1    0    0  501    0  0.00000000000E+00  0.00000000000E+00  0.17315513838E+04  0.17315513838E+04  0.00000000000E+00 0. -1.
         -1   -1    0    0    0  501 -0.00000000000E+00 -0.00000000000E+00 -0.44712790041E+04  0.44712790041E+04  0.00000000000E+00 0.  1.
    9900016    2    1    2    0    0 -0.38638584727E+02 -0.22608280835E+03 -0.26512877357E+03  0.22390455829E+04  0.22114306409E+04 0.  0.
         23    2    3    3    0    0  0.11074066159E+03  0.43548039759E+03  0.82920892831E+03  0.95158488823E+03  0.12656888207E+03 0.  0.
    9900016    2    1    2    0    0 -0.78242843278E+02  0.21260168915E+03 -0.28197167715E+04  0.35879330135E+04  0.22070657483E+04 0.  0.
         24    2    5    5    0    0  0.37581605311E+03  0.90188076270E+03 -0.45023289362E+03  0.10788038877E+04  0.80508097083E+02 0.  0.
        -15    1    6    6    0    0  0.30094577769E+03  0.62732056094E+03 -0.31827107296E+03  0.76511170634E+03  0.00000000000E+00 0.  1.
        -15    1    4    4    0    0  0.10402180081E+02  0.17987128009E+03  0.43812086184E+03  0.47372119684E+03  0.00000000000E+00 0.  1.
         15    1    4    4    0    0  0.10033848151E+03  0.25560911750E+03  0.39108806647E+03  0.47786369140E+03  0.00000000000E+00 0. -1.
         15    1    5    5    0    0 -0.45405889639E+03 -0.68927907355E+03 -0.23694838778E+04  0.25091291258E+04  0.00000000000E+00 0. -1.
        -16    1    3    3    0    0 -0.14937924632E+03 -0.66156320594E+03 -0.10943377019E+04  0.12874606947E+04  0.00000000000E+00 0.  1.
         16    1    6    6    0    0  0.74870275418E+02  0.27456020176E+03 -0.13196182066E+03  0.31369218135E+03  0.00000000000E+00 0. -1.
    9900018    1    1    2    0    0  0.11688142801E+03  0.13481119200E+02  0.34511792468E+03  0.37585179143E+03  0.91187600000E+02 0.  0.
<mgrwt>
<rscale>  0 0.55649795E+04</rscale>
<asrwt>0</asrwt>
<pdfrwt beam="1">  1        1 0.26639252E+00 0.55649795E+04</pdfrwt>
<pdfrwt beam="2">  1       -1 0.68788907E+00 0.55649795E+04</pdfrwt>
<totfact> 0.70001659E-04</totfact>
</mgrwt>
</event>
<event>
12    1  0.2389550E-009  0.5309863E+04  0.7818608E-02  0.7782408E-01
          2   -1    0    0  501    0  0.00000000000E+00  0.00000000000E+00  0.44262137428E+04  0.44262137428E+04  0.00000000000E+00 0. -1.
         -2   -1    0    0    0  501 -0.00000000000E+00 -0.00000000000E+00 -0.15924808600E+04  0.15924808600E+04  0.00000000000E+00 0.  1.
    9900016    2    1    2    0    0  0.10216915948E+04 -0.39179955023E+03  0.99316275962E+03  0.26510029852E+04  0.22009279765E+04 0.  0.
    9900016    2    1    2    0    0 -0.49173602398E+03  0.37508705232E+03  0.14438922939E+04  0.26992601003E+04  0.21951504547E+04 0.  0.
         24    2    4    4    0    0  0.60485917416E+03 -0.24854806658E+03  0.12634742480E+04  0.14249004724E+04  0.79645582761E+02 0.  0.
        -15    1    3    3    0    0 -0.30625978401E+03 -0.56061973102E+02 -0.16891574236E+02  0.31180655127E+03  0.00000000000E+00 0.  1.
        -15    1    5    5    0    0  0.17738457494E+03 -0.70844497572E+02  0.45121900804E+03  0.48998247263E+03  0.00000000000E+00 0.  1.
         15    1    3    3    0    0 -0.37518771099E+03 -0.11460066685E+03  0.17688508084E+03  0.43033412965E+03  0.00000000000E+00 0. -1.
         15    1    4    4    0    0 -0.10965951981E+04  0.62363511890E+03  0.18041804587E+03  0.12743596280E+04  0.00000000000E+00 0. -1.
        -16    1    3    3    0    0  0.17031390898E+04 -0.22113691028E+03  0.83316925302E+03  0.19088623043E+04  0.00000000000E+00 0.  1.
         16    1    5    5    0    0  0.42747459922E+03 -0.17770356901E+03  0.81225523994E+03  0.93491799974E+03  0.00000000000E+00 0. -1.
    9900018    1    1    2    0    0 -0.52995557085E+03  0.16712497914E+02  0.39667782929E+03  0.66843151729E+03  0.91187600000E+02 0.  0.
<mgrwt>
<rscale>  0 0.53098628E+04</rscale>
<asrwt>0</asrwt>
<pdfrwt beam="1">  1        2 0.68095595E+00 0.53098628E+04</pdfrwt>
<pdfrwt beam="2">  1       -2 0.24499706E+00 0.53098628E+04</pdfrwt>
<totfact> 0.70387401E-03</totfact>
</mgrwt>
</event>
<event>
13    1  0.2389550E-009  0.6227120E+04  0.7818608E-02  0.7662862E-01
         -2   -1    0    0    0  501 -0.00000000000E+00  0.00000000000E+00  0.22130285268E+04  0.22130285268E+04  0.00000000000E+00 0. -1.
          2   -1    0    0  501    0  0.00000000000E+00 -0.00000000000E+00 -0.43805388459E+04  0.43805388459E+04  0.00000000000E+00 0.  1.
    9900016    2    1    2    0    0  0.21457389346E+03  0.54743332137E+03 -0.14371176614E+03  0.22764518962E+04  0.21945056315E+04 0.  0.
         23    2    3    3    0    0 -0.55189416785E+03 -0.83170959473E+02  0.74937778626E+03  0.94125752957E+03  0.11355214409E+03 0.  0.
    9900016    2    1    2    0    0 -0.86960469334E+03  0.55442429192E+03 -0.84076619019E+03  0.25703938907E+04  0.21991903848E+04 0.  0.
        -24    2    5    5    0    0 -0.44029611984E+03 -0.40062175675E+02 -0.15113583365E+04  0.15767068987E+04  0.79592536464E+02 0.  0.
        -15    1    5    5    0    0 -0.42930857349E+03  0.59448646760E+03  0.67059214633E+03  0.99368699204E+03  0.00000000000E+00 0.  1.
        -15    1    4    4    0    0 -0.12860848902E+03 -0.63050388928E+02  0.15214913694E+03  0.20896137170E+03  0.00000000000E+00 0.  1.
         15    1    6    6    0    0 -0.32463814736E+03 -0.44276142266E+02 -0.99575384012E+03  0.10482728717E+04  0.00000000000E+00 0. -1.
         15    1    4    4    0    0 -0.42328567883E+03 -0.20120570545E+02  0.59722864932E+03  0.73229615787E+03  0.00000000000E+00 0. -1.
        -16    1    6    6    0    0 -0.11565797249E+03  0.42139665914E+01 -0.51560449639E+03  0.52843402693E+03  0.00000000000E+00 0.  1.
         16    1    3    3    0    0  0.76646806131E+03  0.63060428084E+03 -0.89308955240E+03  0.13351943666E+04  0.00000000000E+00 0. -1.
    9900018    1    1    2    0    0  0.65503079987E+03 -0.11018576133E+04 -0.11830323628E+04  0.17467215859E+04  0.91187600000E+02 0.  0.
<mgrwt>
<rscale>  0 0.62271205E+04</rscale>
<asrwt>0</asrwt>
<pdfrwt beam="1">  1        2 0.67392905E+00 0.62271205E+04</pdfrwt>
<pdfrwt beam="2">  1       -2 0.34046593E+00 0.62271205E+04</pdfrwt>
<totfact> 0.18715830E-03</totfact>
</mgrwt>
</event>
<event>
12    1  0.2389550E-009  0.5819387E+04  0.7818608E-02  0.7713208E-01
          2   -1    0    0  501    0  0.00000000000E+00  0.00000000000E+00  0.53304148905E+04  0.53304148905E+04  0.00000000000E+00 0. -1.
         -2   -1    0    0    0  501 -0.00000000000E+00 -0.00000000000E+00 -0.15883033868E+04  0.15883033868E+04  0.00000000000E+00 0.  1.
    9900016    2    1    2    0    0 -0.52376372913E+03  0.83115616477E+03  0.64716580787E+03  0.24984775238E+04  0.22041817846E+04 0.  0.
    9900016    2    1    2    0    0  0.72064892224E+03 -0.12770176718E+04  0.27319752933E+04  0.38057336712E+04  0.22067647745E+04 0.  0.
         24    2    4    4    0    0 -0.36839907441E+03  0.42101048224E+03  0.27888655377E+03  0.62973469217E+03  0.76291339313E+02 0.  0.
        -15    1    3    3    0    0 -0.13577599122E+02 -0.12881602335E+02 -0.28207206363E+02  0.33851637589E+02  0.00000000000E+00 0.  1.
        -15    1    5    5    0    0 -0.23742208552E+03  0.29478924595E+03  0.15168190714E+03  0.40777119464E+03  0.00000000000E+00 0.  1.
         15    1    3    3    0    0  0.28541321880E+03 -0.37377338900E+03 -0.43031405624E+03  0.63744602814E+03  0.00000000000E+00 0. -1.
         15    1    4    4    0    0  0.10890479967E+04 -0.16980281541E+04  0.24530887395E+04  0.31759989791E+04  0.00000000000E+00 0. -1.
        -16    1    3    3    0    0 -0.79559934881E+03  0.12178111561E+04  0.11056870705E+04  0.18271798580E+04  0.00000000000E+00 0.  1.
         16    1    5    5    0    0 -0.13097698889E+03  0.12622123629E+03  0.12720464663E+03  0.22196349753E+03  0.00000000000E+00 0. -1.
    9900018    1    1    2    0    0 -0.19688519311E+03  0.44586150704E+03  0.36297040254E+03  0.61450708233E+03  0.91187600000E+02 0.  0.
<mgrwt>
<rscale>  0 0.58193869E+04</rscale>
<asrwt>0</asrwt>
<pdfrwt beam="1">  1        2 0.82006382E+00 0.58193869E+04</pdfrwt>
<pdfrwt beam="2">  1       -2 0.24435437E+00 0.58193869E+04</pdfrwt>
<totfact> 0.53885450E-04</totfact>
</mgrwt>
</event>
<event>
13    1  0.2389550E-009  0.5635294E+04  0.7818608E-02  0.7737342E-01
          1   -1    0    0  501    0  0.00000000000E+00  0.00000000000E+00  0.29608663255E+04  0.29608663255E+04  0.00000000000E+00 0. -1.
         -1   -1    0    0    0  501 -0.00000000000E+00 -0.00000000000E+00 -0.26813551732E+04  0.26813551732E+04  0.00000000000E+00 0.  1.
    9900016    2    1    2    0    0 -0.79813535300E+03  0.89428453097E+03 -0.38120683519E+03  0.25329011231E+04  0.21985232735E+04 0.  0.
         23    2    3    3    0    0  0.17706212138E+03  0.12584678123E+03  0.79292563083E+03  0.82407294650E+03  0.56362735483E+02 0.  0.
    9900016    2    1    2    0    0  0.53878663551E+03 -0.19616038537E+03  0.66699391190E+03  0.23589913509E+04  0.21888785666E+04 0.  0.
         24    2    5    5    0    0  0.83775247368E+03  0.82444719150E+03  0.51258843969E+03  0.12843465499E+04  0.72503606976E+02 0.  0.
        -15    1    4    4    0    0  0.13173808392E+03  0.11141193283E+03  0.54613097554E+03  0.57273605088E+03  0.00000000000E+00 0.  1.
        -15    1    6    6    0    0  0.56533304655E+03  0.51922925967E+03  0.35844309195E+03  0.84716109907E+03  0.00000000000E+00 0.  1.
         15    1    5    5    0    0 -0.29896583817E+03 -0.10206075769E+04  0.15440547222E+03  0.10746448010E+04  0.00000000000E+00 0. -1.
         15    1    4    4    0    0  0.45324037460E+02  0.14434848393E+02  0.24679465529E+03  0.25133689562E+03  0.00000000000E+00 0. -1.
        -16    1    3    3    0    0 -0.97519747437E+03  0.76843774974E+03 -0.11741324660E+04  0.17088281766E+04  0.00000000000E+00 0.  1.
         16    1    6    6    0    0  0.27241942712E+03  0.30521793184E+03  0.15414534773E+03  0.43718545083E+03  0.00000000000E+00 0. -1.
    9900018    1    1    2    0    0  0.25934871749E+03 -0.69812414560E+03 -0.62759244064E+01  0.75032902486E+03  0.91187600000E+02 0.  0.
<mgrwt>
<rscale>  0 0.56352939E+04</rscale>
<asrwt>0</asrwt>
<pdfrwt beam="1">  1        1 0.45551790E+00 0.56352939E+04</pdfrwt>
<pdfrwt beam="2">  1       -1 0.41251618E+00 0.56352939E+04</pdfrwt>
<totfact> 0.25770096E-03</totfact>
</mgrwt>
</event>
<event>
13    1  0.2389550E-009  0.7391069E+04  0.7818608E-02  0.7538396E-01
          2   -1    0    0  501    0  0.00000000000E+00  0.00000000000E+00  0.46334937592E+04  0.46334937592E+04  0.00000000000E+00 0. -1.
         -2   -1    0    0    0  501 -0.00000000000E+00 -0.00000000000E+00 -0.29474466453E+04  0.29474466453E+04  0.00000000000E+00 0.  1.
    9900016    2    1    2    0    0  0.24216557443E+04 -0.27121107608E+03  0.12770124037E+04  0.35228116371E+04  0.22003338747E+04 0.  0.
         23    2    3    3    0    0  0.22631685360E+03  0.71241836544E+03 -0.78030858592E+02  0.76180059664E+03  0.12446721862E+03 0.  0.
    9900016    2    1    2    0    0 -0.13758291658E+04 -0.47556054824E+03  0.67901975294E+03  0.27418354136E+04  0.22220553283E+04 0.  0.
        -24    2    5    5    0    0  0.44527779662E+03  0.28990002327E+03  0.53918699278E+03  0.76145321423E+03  0.82304584459E+02 0.  0.
        -15    1    4    4    0    0  0.24065251942E+03  0.68257831229E+03 -0.66767328047E+02  0.72683193629E+03  0.00000000000E+00 0. -1.
        -15    1    5    5    0    0 -0.18211069624E+04 -0.76546057151E+03  0.13983276016E+03  0.19803821994E+04  0.00000000000E+00 0.  1.
         15    1    4    4    0    0 -0.14335665822E+02  0.29840053145E+02 -0.11263530544E+02  0.34968660349E+02  0.00000000000E+00 0.  1.
         15    1    6    6    0    0  0.32384883327E+03  0.24084325900E+03  0.44078225707E+03  0.59763913891E+03  0.00000000000E+00 0. -1.
        -16    1    6    6    0    0  0.12142896335E+03  0.49056764277E+02  0.98404735706E+02  0.16381407531E+03  0.00000000000E+00 0.  1.
         16    1    3    3    0    0  0.21953388907E+04 -0.98362944152E+03  0.13550432622E+04  0.27610110405E+04  0.00000000000E+00 0. -1.
    9900018    1    1    2    0    0 -0.10458265785E+04  0.74677162432E+03 -0.26998504265E+03  0.13162933537E+04  0.91187600000E+02 0.  0.
<mgrwt>
<rscale>  0 0.73910691E+04</rscale>
<asrwt>0</asrwt>
<pdfrwt beam="1">  1        2 0.71284519E+00 0.73910691E+04</pdfrwt>
<pdfrwt beam="2">  1       -2 0.45345333E+00 0.73910691E+04</pdfrwt>
<totfact> 0.17836008E-04</totfact>
</mgrwt>
</event>
<event>
13    1  0.2389550E-009  0.5261921E+04  0.7818608E-02  0.7789326E-01
          1   -1    0    0  501    0  0.00000000000E+00  0.00000000000E+00  0.28720557455E+04  0.28720557455E+04  0.00000000000E+00 0. -1.
         -1   -1    0    0    0  501 -0.00000000000E+00 -0.00000000000E+00 -0.24101040498E+04  0.24101040498E+04  0.00000000000E+00 0.  1.
    9900016    2    1    2    0    0 -0.31496359965E+02 -0.49067164253E+03 -0.94052973661E+03  0.24424724758E+04  0.21998465692E+04 0.  0.
         23    2    3    3    0    0 -0.10030231896E+03  0.46732377019E+02  0.69895021147E+03  0.71579015401E+03  0.10760890394E+03 0.  0.
    9900016    2    1    2    0    0 -0.37897709271E+02  0.56797076614E+03  0.11230899869E+04  0.25279735894E+04  0.21920976991E+04 0.  0.
         24    2    5    5    0    0  0.91595400319E+03  0.81371044886E+03  0.35244658486E+03  0.12773288220E+04  0.79081564322E+02 0.  0.
        -15    1    6    6    0    0  0.48859415668E+03  0.41506710379E+03  0.22269129948E+03  0.67867250236E+03  0.00000000000E+00 0.  1.
        -15    1    4    4    0    0 -0.77354235701E+02  0.80091833393E+02  0.56443073319E+03  0.57530898840E+03  0.00000000000E+00 0.  1.
         15    1    4    4    0    0 -0.22948083260E+02 -0.33359456375E+02  0.13451947828E+03  0.14048116561E+03  0.00000000000E+00 0. -1.
         15    1    5    5    0    0 -0.95385171246E+03 -0.24573968272E+03  0.77064340205E+03  0.12506447674E+04  0.00000000000E+00 0. -1.
        -16    1    3    3    0    0  0.68805958996E+02 -0.53740401955E+03 -0.16394799481E+04  0.17266823218E+04  0.00000000000E+00 0.  1.
         16    1    6    6    0    0  0.42735984651E+03  0.39864334507E+03  0.12975528538E+03  0.59865631965E+03  0.00000000000E+00 0. -1.
    9900018    1    1    2    0    0  0.69394069235E+02 -0.77299123615E+02  0.27939144539E+03  0.31171373006E+03  0.91187600000E+02 0.  0.
<mgrwt>
<rscale>  0 0.52619210E+04</rscale>
<asrwt>0</asrwt>
<pdfrwt beam="1">  1        1 0.44185473E+00 0.52619210E+04</pdfrwt>
<pdfrwt beam="2">  1       -1 0.37078524E+00 0.52619210E+04</pdfrwt>
<totfact> 0.59088092E-03</totfact>
</mgrwt>
</event>
<event>
13    1  0.2389550E-009  0.7230628E+04  0.7818608E-02  0.7554107E-01
          1   -1    0    0  501    0  0.00000000000E+00  0.00000000000E+00  0.24950073254E+04  0.24950073254E+04  0.00000000000E+00 0.  1.
         -1   -1    0    0    0  501 -0.00000000000E+00 -0.00000000000E+00 -0.52386596251E+04  0.52386596251E+04  0.00000000000E+00 0. -1.
    9900016    2    1    2    0    0 -0.13980806156E+04 -0.15244352485E+04 -0.21722926088E+04  0.37187343074E+04  0.21980894969E+04 0.  0.
         23    2    3    3    0    0  0.96003025700E+02 -0.13784547608E+03  0.39810080962E+03  0.43821004298E+03  0.72978290775E+02 0.  0.
    9900016    2    1    2    0    0  0.11304130074E+03  0.11905624605E+04 -0.87348680474E+03  0.26502374205E+04  0.21978539258E+04 0.  0.
        -24    2    5    5    0    0  0.79043872291E+03  0.13046516131E+04 -0.11479671794E+04  0.19104921412E+04  0.72404214067E+02 0.  0.
        -15    1    5    5    0    0 -0.67739742217E+03 -0.11408915260E+03  0.27448037464E+03  0.73974527938E+03  0.00000000000E+00 0.  1.
        -15    1    4    4    0    0  0.81983962975E+02 -0.10244814788E+03  0.22061335842E+03  0.25668511274E+03  0.00000000000E+00 0. -1.
         15    1    6    6    0    0  0.45395746528E+03  0.72216781149E+03 -0.60029207603E+03  0.10430504805E+04  0.00000000000E+00 0. -1.
         15    1    4    4    0    0  0.14019062725E+02 -0.35397328208E+02  0.17748745120E+03  0.18152493024E+03  0.00000000000E+00 0.  1.
        -16    1    6    6    0    0  0.33648125763E+03  0.58248380164E+03 -0.54767510335E+03  0.86744166072E+03  0.00000000000E+00 0.  1.
         16    1    3    3    0    0 -0.14940836413E+04 -0.13865897724E+04 -0.25703934184E+04  0.32805242644E+04  0.00000000000E+00 0. -1.
    9900018    1    1    2    0    0  0.12850393148E+04  0.33387278800E+03  0.30212711382E+03  0.13646952226E+04  0.91187600000E+02 0.  0.
<mgrwt>
<rscale>  0 0.72306277E+04</rscale>
<asrwt>0</asrwt>
<pdfrwt beam="1">  1        1 0.38384728E+00 0.72306277E+04</pdfrwt>
<pdfrwt beam="2">  1       -1 0.80594763E+00 0.72306277E+04</pdfrwt>
<totfact> 0.53872601E-05</totfact>
</mgrwt>
</event>
<event>
12    1  0.2389550E-009  0.7921703E+04  0.7818608E-02  0.7489193E-01
          2   -1    0    0  501    0  0.00000000000E+00  0.00000000000E+00  0.31214571429E+04  0.31214571429E+04  0.00000000000E+00 0. -1.
         -2   -1    0    0    0  501 -0.00000000000E+00 -0.00000000000E+00 -0.50259680462E+04  0.50259680462E+04  0.00000000000E+00 0.  1.
    9900016    2    1    2    0    0 -0.10011755641E+04  0.14422533090E+04  0.17395266039E+04  0.33080487051E+04  0.21988147517E+04 0.  0.
    9900016    2    1    2    0    0  0.72601981615E+03 -0.94557475103E+03 -0.23848461033E+04  0.34550793895E+04  0.21974681495E+04 0.  0.
        -24    2    4    4    0    0 -0.21497751626E+02  0.63070252691E+03 -0.11618280608E+04  0.13245382133E+04  0.79430504351E+02 0.  0.
        -15    1    3    3    0    0  0.52490730542E+03  0.40939293986E+03  0.66362364958E+03  0.93996096024E+03  0.00000000000E+00 0. -1.
        -15    1    4    4    0    0  0.74751756777E+03 -0.15762772779E+04 -0.12230180425E+04  0.21305411762E+04  0.00000000000E+00 0.  1.
         15    1    3    3    0    0  0.10360397244E+03  0.28923557895E+03  0.24732295059E+03  0.39441050331E+03  0.00000000000E+00 0.  1.
         15    1    5    5    0    0 -0.26026478523E+02  0.25943754444E+03 -0.40741150530E+03  0.48370378508E+03  0.00000000000E+00 0. -1.
        -16    1    5    5    0    0  0.45287268976E+01  0.37126498247E+03 -0.75441655548E+03  0.84083442826E+03  0.00000000000E+00 0.  1.
         16    1    3    3    0    0 -0.16296868419E+04  0.74362479021E+03  0.82858000368E+03  0.19736772416E+04  0.00000000000E+00 0. -1.
    9900018    1    1    2    0    0  0.27515574794E+03 -0.49667855799E+03 -0.12591914039E+04  0.13842970944E+04  0.91187600000E+02 0.  0.
<mgrwt>
<rscale>  0 0.79217028E+04</rscale>
<asrwt>0</asrwt>
<pdfrwt beam="1">  1        2 0.48022418E+00 0.79217028E+04</pdfrwt>
<pdfrwt beam="2">  1       -2 0.77322585E+00 0.79217028E+04</pdfrwt>
<totfact> 0.95626260E-05</totfact>
</mgrwt>
</event>
<event>
13    1  0.2389550E-009  0.6639040E+04  0.7818608E-02  0.7615852E-01
          2   -1    0    0  501    0  0.00000000000E+00  0.00000000000E+00  0.29430596544E+04  0.29430596544E+04  0.00000000000E+00 0. -1.
         -2   -1    0    0    0  501 -0.00000000000E+00 -0.00000000000E+00 -0.37441350190E+04  0.37441350190E+04  0.00000000000E+00 0.  1.
    9900016    2    1    2    0    0 -0.21893141627E+03  0.46274404687E+03 -0.25983759876E+04  0.34494521724E+04  0.22102261194E+04 0.  0.
         23    2    3    3    0    0  0.40711512614E+03 -0.40740361827E+02  0.24928002591E+03  0.49063896538E+03  0.10575235231E+03 0.  0.
    9900016    2    1    2    0    0  0.55113499831E+03 -0.26274780139E+03  0.16202168031E+04  0.28018163882E+04  0.22027905916E+04 0.  0.
         24    2    5    5    0    0  0.22543555892E+03  0.59115574627E+03  0.17649220543E+04  0.18765212984E+04  0.78077001696E+02 0.  0.
        -15    1    6    6    0    0  0.78347487016E+02  0.11524301063E+03  0.38851251802E+03  0.41274841838E+03  0.00000000000E+00 0.  1.
        -15    1    4    4    0    0  0.15164761996E+03  0.33957281879E+02  0.10854827132E+03  0.18955955486E+03  0.00000000000E+00 0.  1.
         15    1    4    4    0    0  0.25546750618E+03 -0.74697643706E+02  0.14073175458E+03  0.30107941051E+03  0.00000000000E+00 0. -1.
         15    1    5    5    0    0  0.32569943939E+03 -0.85390354766E+03 -0.14470525112E+03  0.92529508981E+03  0.00000000000E+00 0. -1.
        -16    1    3    3    0    0 -0.62604654241E+03  0.50348440870E+03 -0.28476560135E+04  0.29588132070E+04  0.00000000000E+00 0.  1.
         16    1    6    6    0    0  0.14708807190E+03  0.47591273564E+03  0.13764095363E+04  0.14637728800E+04  0.00000000000E+00 0. -1.
    9900018    1    1    2    0    0 -0.33220358204E+03 -0.19999624548E+03  0.17708381986E+03  0.43592611275E+03  0.91187600000E+02 0.  0.
<mgrwt>
<rscale>  0 0.66390399E+04</rscale>
<asrwt>0</asrwt>
<pdfrwt beam="1">  1        2 0.45277841E+00 0.66390399E+04</pdfrwt>
<pdfrwt beam="2">  1       -2 0.57602077E+00 0.66390399E+04</pdfrwt>
<totfact> 0.79456817E-04</totfact>
</mgrwt>
</event>
<event>
13    1  0.2389550E-009  0.5663307E+04  0.7818608E-02  0.7733609E-01
          2   -1    0    0  501    0  0.00000000000E+00  0.00000000000E+00  0.33691376224E+04  0.33691376224E+04  0.00000000000E+00 0.  1.
         -2   -1    0    0    0  501 -0.00000000000E+00 -0.00000000000E+00 -0.23799149272E+04  0.23799149272E+04  0.00000000000E+00 0. -1.
    9900016    2    1    2    0    0  0.98052435389E+03  0.11758786799E+04  0.54976920286E+03  0.27563677220E+04  0.22251287971E+04 0.  0.
         23    2    3    3    0    0 -0.67906825439E+03  0.30012846598E+03  0.45549690771E+03  0.87751878489E+03  0.10654104699E+03 0.  0.
    9900016    2    1    2    0    0 -0.66003018966E+03 -0.11411664298E+04  0.18137873309E+03  0.25697909764E+04  0.21984145983E+04 0.  0.
         24    2    5    5    0    0  0.33925879824E+03 -0.12337008237E+04  0.67732876505E+03  0.14503681208E+04  0.87630903762E+02 0.  0.
        -15    1    4    4    0    0 -0.59481100536E+03  0.29753477215E+03  0.39223527927E+03  0.77212407490E+03  0.00000000000E+00 0.  1.
        -15    1    6    6    0    0  0.29406537321E+03 -0.97507784466E+03  0.56634663481E+03  0.11653324666E+04  0.00000000000E+00 0.  1.
         15    1    5    5    0    0 -0.99928898790E+03  0.92534393970E+02 -0.49595003196E+03  0.11194228556E+04  0.00000000000E+00 0. -1.
         15    1    4    4    0    0 -0.84257249022E+02  0.25936938318E+01  0.63261628434E+02  0.10539470998E+03  0.00000000000E+00 0. -1.
        -16    1    3    3    0    0  0.16595926083E+04  0.87575021394E+03  0.94272295150E+02  0.18788489371E+04  0.00000000000E+00 0.  1.
         16    1    6    6    0    0  0.45193425033E+02 -0.25862297907E+03  0.11098213024E+03  0.28503565426E+03  0.00000000000E+00 0. -1.
    9900018    1    1    2    0    0 -0.32049416423E+03 -0.34712250173E+02  0.25807475928E+03  0.42289385121E+03  0.91187600000E+02 0.  0.
<mgrwt>
<rscale>  0 0.56633068E+04</rscale>
<asrwt>0</asrwt>
<pdfrwt beam="1">  1        2 0.51832887E+00 0.56633068E+04</pdfrwt>
<pdfrwt beam="2">  1       -2 0.36614076E+00 0.56633068E+04</pdfrwt>
<totfact> 0.84852239E-03</totfact>
</mgrwt>
</event>
<event>
13    1  0.2389550E-009  0.6177908E+04  0.7818608E-02  0.7668726E-01
         -2   -1    0    0    0  501 -0.00000000000E+00  0.00000000000E+00  0.33871793261E+04  0.33871793261E+04  0.00000000000E+00 0.  1.
          2   -1    0    0  501    0  0.00000000000E+00 -0.00000000000E+00 -0.28169860957E+04  0.28169860957E+04  0.00000000000E+00 0. -1.
    9900016    2    1    2    0    0 -0.74365513290E+03 -0.77114302291E+03 -0.90565706891E+03  0.26406838740E+04  0.22372554788E+04 0.  0.
         23    2    3    3    0    0 -0.14202904735E+03  0.38905370618E+03  0.54111072904E+03  0.69103071044E+03  0.11483721134E+03 0.  0.
    9900016    2    1    2    0    0  0.43625823361E+03  0.20561175730E+03  0.36839361220E+03  0.22793110146E+04  0.21970314988E+04 0.  0.
         24    2    5    5    0    0  0.12476454003E+04  0.50298230906E+03  0.42570475086E+03  0.14132492697E+04  0.80241605023E+02 0.  0.
        -15    1    4    4    0    0 -0.14538054323E+03  0.25507763811E+03  0.40275307522E+03  0.49840760770E+03  0.00000000000E+00 0. -1.
        -15    1    6    6    0    0  0.64684017272E+03  0.21757597311E+03  0.21336453422E+03  0.71502862711E+03  0.00000000000E+00 0.  1.
         15    1    4    4    0    0  0.33514958804E+01  0.13397606806E+03  0.13835765382E+03  0.19262310274E+03  0.00000000000E+00 0.  1.
         15    1    5    5    0    0 -0.81138716672E+03 -0.29737055176E+03 -0.57311138660E+02  0.86606174491E+03  0.00000000000E+00 0. -1.
        -16    1    3    3    0    0 -0.60162608555E+03 -0.11601967291E+04 -0.14467677980E+04  0.19496531636E+04  0.00000000000E+00 0.  1.
         16    1    6    6    0    0  0.60080522762E+03  0.28540633595E+03  0.21234021664E+03  0.69822064259E+03  0.00000000000E+00 0. -1.
    9900018    1    1    2    0    0  0.30739689929E+03  0.56553126561E+03  0.11074566871E+04  0.12841705332E+04  0.91187600000E+02 0.  0.
<mgrwt>
<rscale>  0 0.61779081E+04</rscale>
<asrwt>0</asrwt>
<pdfrwt beam="1">  1        2 0.43338248E+00 0.61779081E+04</pdfrwt>
<pdfrwt beam="2">  1       -2 0.52110451E+00 0.61779081E+04</pdfrwt>
<totfact> 0.18740322E-03</totfact>
</mgrwt>
</event>
<event>
13    1  0.2389550E-009  0.5313064E+04  0.7818608E-02  0.7781949E-01
          2   -1    0    0  501    0  0.00000000000E+00  0.00000000000E+00  0.26655566544E+04  0.26655566544E+04  0.00000000000E+00 0. -1.
         -2   -1    0    0    0  501 -0.00000000000E+00 -0.00000000000E+00 -0.26475376006E+04  0.26475376006E+04  0.00000000000E+00 0.  1.
    9900016    2    1    2    0    0  0.29316008371E+03  0.96588449691E+03 -0.80107702225E+03  0.25428370492E+04  0.21921268593E+04 0.  0.
         23    2    3    3    0    0 -0.20845409678E+03 -0.63435618742E+03  0.16941457062E+02  0.67694818159E+03  0.11004973694E+03 0.  0.
    9900016    2    1    2    0    0 -0.10042553846E+03 -0.73132559651E+03  0.79407293162E+03  0.24522857938E+04  0.21995980034E+04 0.  0.
         24    2    5    5    0    0 -0.74662928243E+02  0.49360782809E+03  0.10816329503E+04  0.11937881294E+04  0.77311175630E+02 0.  0.
        -15    1    4    4    0    0 -0.14594048701E+03 -0.53050510924E+03  0.46522406435E+02  0.55217626803E+03  0.00000000000E+00 0. -1.
        -15    1    6    6    0    0 -0.74590372444E+02  0.24799347090E+03  0.58394997095E+03  0.63879734958E+03  0.00000000000E+00 0.  1.
         15    1    5    5    0    0 -0.25762610216E+02 -0.12249334246E+04 -0.28756001872E+03  0.12584976643E+04  0.00000000000E+00 0. -1.
         15    1    4    4    0    0 -0.62513609770E+02 -0.10385107819E+03 -0.29580949373E+02  0.12477191356E+03  0.00000000000E+00 0.  1.
        -16    1    3    3    0    0  0.50161418049E+03  0.16002406843E+04 -0.81801847932E+03  0.18658888676E+04  0.00000000000E+00 0.  1.
         16    1    6    6    0    0 -0.72555799259E-01  0.24561435719E+03  0.49768297940E+03  0.55499077984E+03  0.00000000000E+00 0. -1.
    9900018    1    1    2    0    0 -0.19273454525E+03 -0.23455890040E+03  0.25023144468E+02  0.31797141199E+03  0.91187600000E+02 0.  0.
<mgrwt>
<rscale>  0 0.53130637E+04</rscale>
<asrwt>0</asrwt>
<pdfrwt beam="1">  1        2 0.41008564E+00 0.53130637E+04</pdfrwt>
<pdfrwt beam="2">  1       -2 0.40731347E+00 0.53130637E+04</pdfrwt>
<totfact> 0.13155435E-02</totfact>
</mgrwt>
</event>
<event>
13    1  0.2389550E-009  0.6693658E+04  0.7818608E-02  0.7609881E-01
         -2   -1    0    0    0  501 -0.00000000000E+00  0.00000000000E+00  0.30281203146E+04  0.30281203146E+04  0.00000000000E+00 0.  1.
          2   -1    0    0  501    0  0.00000000000E+00 -0.00000000000E+00 -0.36990820862E+04  0.36990820862E+04  0.00000000000E+00 0. -1.
    9900016    2    1    2    0    0  0.35546851167E+03 -0.11565278880E+04  0.97347522378E+02  0.25073071348E+04  0.21939001594E+04 0.  0.
         23    2    3    3    0    0 -0.21642444095E+03  0.22699449819E+03  0.79091158665E+03  0.85738990848E+03  0.10587859279E+03 0.  0.
    9900016    2    1    2    0    0  0.65098658486E+03  0.97944365232E+02 -0.13281466447E+04  0.26529606873E+04  0.22001932339E+04 0.  0.
         24    2    5    5    0    0 -0.77612600029E+03  0.28302499237E+03 -0.29225235908E+03  0.87983290282E+03  0.78865587330E+02 0.  0.
        -15    1    4    4    0    0 -0.63178121170E+02  0.67971021565E+02  0.12410792359E+03  0.15496551702E+03  0.00000000000E+00 0.  1.
        -15    1    6    6    0    0 -0.36867247385E+03  0.13810841816E+03 -0.18093187388E+03  0.43327782211E+03  0.00000000000E+00 0.  1.
         15    1    4    4    0    0 -0.15324631978E+03  0.15902347662E+03  0.66680366306E+03  0.70242439146E+03  0.00000000000E+00 0. -1.
         15    1    5    5    0    0  0.14271125852E+04 -0.18508062714E+03 -0.10358942856E+04  0.17731277845E+04  0.00000000000E+00 0. -1.
        -16    1    3    3    0    0  0.57189295263E+03 -0.13835223862E+04 -0.69356406427E+03  0.16499172263E+04  0.00000000000E+00 0.  1.
         16    1    6    6    0    0 -0.40745352644E+03  0.14491657421E+03 -0.11132048521E+03  0.44655508071E+03  0.00000000000E+00 0. -1.
    9900018    1    1    2    0    0 -0.10064550965E+04  0.10585835228E+04  0.55983735068E+03  0.15669345786E+04  0.91187600000E+02 0.  0.
<mgrwt>
<rscale>  0 0.66936584E+04</rscale>
<asrwt>0</asrwt>
<pdfrwt beam="1">  1        2 0.56908955E+00 0.66936584E+04</pdfrwt>
<pdfrwt beam="2">  1       -2 0.46586466E+00 0.66936584E+04</pdfrwt>
<totfact> 0.10228830E-03</totfact>
</mgrwt>
</event>
<event>
12    1  0.2389550E-009  0.5127602E+04  0.7818608E-02  0.7809119E-01
          1   -1    0    0  501    0  0.00000000000E+00  0.00000000000E+00  0.15773719193E+04  0.15773719193E+04  0.00000000000E+00 0. -1.
         -1   -1    0    0    0  501 -0.00000000000E+00 -0.00000000000E+00 -0.41671061353E+04  0.41671061353E+04  0.00000000000E+00 0.  1.
    9900016    2    1    2    0    0  0.47691425632E+03  0.91452658202E+03 -0.10146731712E+04  0.26681698673E+04  0.22418212952E+04 0.  0.
    9900016    2    1    2    0    0 -0.37040697065E+03 -0.69913146425E+03 -0.15645741986E+04  0.28190845278E+04  0.22075685773E+04 0.  0.
         24    2    4    4    0    0 -0.41649972854E+03 -0.10895797703E+04  0.37195774719E+02  0.11697690729E+04  0.79498796547E+02 0.  0.
        -15    1    3    3    0    0 -0.45722144696E+02  0.11670332867E+02  0.62714973184E+01  0.47602971162E+02  0.00000000000E+00 0. -1.
        -15    1    5    5    0    0 -0.38096196217E+03 -0.91913896340E+03  0.25947761489E+02  0.99529982266E+03  0.00000000000E+00 0.  1.
         15    1    4    4    0    0  0.46092757884E+02  0.39044830603E+03 -0.16017699733E+04  0.16493154548E+04  0.00000000000E+00 0. -1.
         15    1    3    3    0    0 -0.69515450354E+03  0.80850268124E+03 -0.62706498909E+02  0.10681050858E+04  0.00000000000E+00 0.  1.
        -16    1    3    3    0    0  0.12177909046E+04  0.94353567912E+02 -0.95823816956E+03  0.15524618104E+04  0.00000000000E+00 0.  1.
         16    1    5    5    0    0 -0.35537766368E+02 -0.17044080689E+03  0.11248013231E+02  0.17446925028E+03  0.00000000000E+00 0. -1.
    9900018    1    1    2    0    0 -0.10650728567E+03 -0.21539511777E+03 -0.10486846232E+02  0.25722365949E+03  0.91187600000E+02 0.  0.
<mgrwt>
<rscale>  0 0.51276022E+04</rscale>
<asrwt>0</asrwt>
<pdfrwt beam="1">  1        1 0.24267261E+00 0.51276022E+04</pdfrwt>
<pdfrwt beam="2">  1       -1 0.64109324E+00 0.51276022E+04</pdfrwt>
<totfact> 0.13111406E-03</totfact>
</mgrwt>
</event>
<event>
13    1  0.2389550E-009  0.5515941E+04  0.7818608E-02  0.7753499E-01
         -1   -1    0    0    0  501 -0.00000000000E+00  0.00000000000E+00  0.16929925368E+04  0.16929925368E+04  0.00000000000E+00 0.  1.
          1   -1    0    0  501    0  0.00000000000E+00 -0.00000000000E+00 -0.44928738581E+04  0.44928738581E+04  0.00000000000E+00 0. -1.
    9900016    2    1    2    0    0 -0.73788697441E+03  0.12403180035E+02 -0.26229698730E+04  0.34983548502E+04  0.21940566715E+04 0.  0.
         23    2    3    3    0    0  0.15734229068E+03 -0.17905661150E+03  0.31927986080E+03  0.41697110507E+03  0.12291218977E+03 0.  0.
    9900016    2    1    2    0    0  0.82200254220E+03  0.17188074150E+03 -0.38291306562E+03  0.23845464688E+04  0.21986833054E+04 0.  0.
        -24    2    5    5    0    0  0.80454937265E+03  0.90419818179E+03 -0.88061696564E+03  0.14989378540E+04  0.80339312245E+02 0.  0.
        -15    1    5    5    0    0  0.17453169556E+02 -0.73231744029E+03  0.49770390001E+03  0.88560861478E+03  0.00000000000E+00 0.  1.
        -15    1    4    4    0    0  0.18513528016E+01 -0.63427963040E+02  0.13680428065E+03  0.15080432754E+03  0.00000000000E+00 0.  1.
         15    1    6    6    0    0  0.43103148176E+03  0.43066923477E+03 -0.46524433373E+03  0.76662664845E+03  0.00000000000E+00 0. -1.
         15    1    4    4    0    0  0.15549093788E+03 -0.11562864846E+03  0.18247558016E+03  0.26616677753E+03  0.00000000000E+00 0. -1.
        -16    1    6    6    0    0  0.37351789089E+03  0.47352894702E+03 -0.41537263191E+03  0.73231120558E+03  0.00000000000E+00 0.  1.
         16    1    3    3    0    0 -0.89522926509E+03  0.19145979153E+03 -0.29422497338E+04  0.30813837452E+04  0.00000000000E+00 0. -1.
    9900018    1    1    2    0    0 -0.84115567793E+02 -0.18428392153E+03  0.20600161729E+03  0.30296507588E+03  0.91187600000E+02 0.  0.
<mgrwt>
<rscale>  0 0.55159412E+04</rscale>
<asrwt>0</asrwt>
<pdfrwt beam="1">  1        1 0.69121135E+00 0.55159412E+04</pdfrwt>
<pdfrwt beam="2">  1       -1 0.26046039E+00 0.55159412E+04</pdfrwt>
<totfact> 0.13425069E-03</totfact>
</mgrwt>
</event>
<event>
13    1  0.2389550E-009  0.5311098E+04  0.7818608E-02  0.7782231E-01
         -1   -1    0    0    0  501 -0.00000000000E+00  0.00000000000E+00  0.21646430667E+04  0.21646430667E+04  0.00000000000E+00 0.  1.
          1   -1    0    0  501    0  0.00000000000E+00 -0.00000000000E+00 -0.32577846593E+04  0.32577846593E+04  0.00000000000E+00 0. -1.
    9900016    2    1    2    0    0 -0.47801107713E+03  0.55926262856E+03 -0.60786811423E+03  0.23996598573E+04  0.22017253482E+04 0.  0.
         23    2    3    3    0    0 -0.27245122537E+03 -0.57336721190E+03  0.49242937868E+03  0.80725294294E+03  0.78682850748E+02 0.  0.
    9900016    2    1    2    0    0  0.55819230654E+03 -0.56047168040E+03  0.17964647541E+03  0.23468505551E+04  0.22022096894E+04 0.  0.
         24    2    5    5    0    0  0.11529035809E+04 -0.67423466401E+03 -0.50746290253E+03  0.14310215243E+04  0.80777203590E+02 0.  0.
        -15    1    6    6    0    0  0.49130439533E+03 -0.33359268098E+03 -0.22105922733E+03  0.63366494906E+03  0.00000000000E+00 0.  1.
        -15    1    4    4    0    0 -0.29058469745E+02 -0.48346479650E+02  0.18829216815E+02  0.59466933369E+02  0.00000000000E+00 0.  1.
         15    1    5    5    0    0 -0.59471127438E+03  0.11376298361E+03  0.68710937794E+03  0.91582903075E+03  0.00000000000E+00 0. -1.
         15    1    4    4    0    0 -0.24339275562E+03 -0.52502073225E+03  0.47360016187E+03  0.74778600957E+03  0.00000000000E+00 0. -1.
        -16    1    3    3    0    0 -0.20555985176E+03  0.11326298405E+04 -0.11002974929E+04  0.15924069144E+04  0.00000000000E+00 0.  1.
         16    1    6    6    0    0  0.66159918559E+03 -0.34064198303E+03 -0.28640367519E+03  0.79735657528E+03  0.00000000000E+00 0. -1.
    9900018    1    1    2    0    0 -0.80181229418E+02  0.12090518316E+01 -0.66491995386E+03  0.67591731358E+03  0.91187600000E+02 0.  0.
<mgrwt>
<rscale>  0 0.53110982E+04</rscale>
<asrwt>0</asrwt>
<pdfrwt beam="1">  1        1 0.50119764E+00 0.53110982E+04</pdfrwt>
<pdfrwt beam="2">  1       -1 0.33302201E+00 0.53110982E+04</pdfrwt>
<totfact> 0.54454699E-03</totfact>
</mgrwt>
</event>
<event>
12    1  0.2389550E-009  0.4908936E+04  0.7818608E-02  0.7842710E-01
          1   -1    0    0  501    0  0.00000000000E+00  0.00000000000E+00  0.30951418051E+04  0.30951418051E+04  0.00000000000E+00 0. -1.
         -1   -1    0    0    0  501 -0.00000000000E+00 -0.00000000000E+00 -0.19464097312E+04  0.19464097312E+04  0.00000000000E+00 0.  1.
    9900016    2    1    2    0    0  0.60251360950E+03  0.58442871576E+03  0.65632990692E+03  0.24435398940E+04  0.21989858329E+04 0.  0.
    9900016    2    1    2    0    0 -0.61028241301E+03 -0.63681640475E+03  0.29752141268E+03  0.23764298041E+04  0.21865314692E+04 0.  0.
         24    2    4    4    0    0 -0.11794596960E+04  0.33581640504E+03  0.10840456744E+03  0.12337388821E+04  0.80388099224E+02 0.  0.
        -15    1    5    5    0    0 -0.74052671800E+03  0.23391869294E+03  0.36668018955E+02  0.77745888546E+03  0.00000000000E+00 0.  1.
        -15    1    3    3    0    0 -0.12763515800E+02  0.16728478074E+03  0.96701237182E+03  0.98145811549E+03  0.00000000000E+00 0. -1.
         15    1    4    4    0    0  0.56917728300E+03 -0.97263280979E+03  0.18911684525E+03  0.11426909220E+04  0.00000000000E+00 0. -1.
         15    1    3    3    0    0 -0.13563447678E+03  0.98357612918E+02  0.36577652522E+03  0.40232250460E+03  0.00000000000E+00 0.  1.
        -16    1    3    3    0    0  0.75091160208E+03  0.31878632210E+03 -0.67645899012E+03  0.10597592739E+04  0.00000000000E+00 0.  1.
         16    1    5    5    0    0 -0.43893297801E+03  0.10189771210E+03  0.71736548482E+02  0.45627999661E+03  0.00000000000E+00 0. -1.
    9900018    1    1    2    0    0  0.77688035095E+01  0.52387688987E+02  0.19488075420E+03  0.22158183819E+03  0.91187600000E+02 0.  0.
<mgrwt>
<rscale>  0 0.49089364E+04</rscale>
<asrwt>0</asrwt>
<pdfrwt beam="1">  1        1 0.47617566E+00 0.49089364E+04</pdfrwt>
<pdfrwt beam="2">  1       -1 0.29944765E+00 0.49089364E+04</pdfrwt>
<totfact> 0.12318376E-02</totfact>
</mgrwt>
</event>
<event>
12    1  0.2389550E-009  0.5541399E+04  0.7818608E-02  0.7750018E-01
         -1   -1    0    0    0  501 -0.00000000000E+00  0.00000000000E+00  0.21973561694E+04  0.21973561694E+04  0.00000000000E+00 0.  1.
          1   -1    0    0  501    0  0.00000000000E+00 -0.00000000000E+00 -0.34936423603E+04  0.34936423603E+04  0.00000000000E+00 0. -1.
    9900016    2    1    2    0    0  0.25536734548E+03  0.74380432417E+03  0.53301469282E+03  0.24064018594E+04  0.22109291920E+04 0.  0.
    9900016    2    1    2    0    0  0.14672057331E+03 -0.61493047592E+03 -0.13670688484E+04  0.26519381558E+04  0.21827121498E+04 0.  0.
        -24    2    4    4    0    0 -0.39068550718E+03 -0.10531222785E+04 -0.15675636124E+04  0.19301241205E+04  0.80135776582E+02 0.  0.
        -15    1    3    3    0    0  0.17528404993E+03 -0.19458456515E+03  0.20376799153E+03  0.33182683063E+03  0.00000000000E+00 0.  1.
        -15    1    4    4    0    0  0.53740608049E+03  0.43819180255E+03  0.20049476394E+03  0.72181403529E+03  0.00000000000E+00 0.  1.
         15    1    3    3    0    0  0.36985182619E+03 -0.26110331452E+03  0.65691940156E+03  0.79781477445E+03  0.00000000000E+00 0. -1.
         15    1    5    5    0    0 -0.15152363129E+03 -0.42680046877E+03 -0.56626492889E+03  0.72510276559E+03  0.00000000000E+00 0. -1.
        -16    1    5    5    0    0 -0.23916187589E+03 -0.62632180971E+03 -0.10012986835E+04  0.12050213549E+04  0.00000000000E+00 0.  1.
         16    1    3    3    0    0 -0.28976853064E+03  0.11994922038E+04 -0.32767270027E+03  0.12767602543E+04  0.00000000000E+00 0. -1.
    9900018    1    1    2    0    0 -0.40208791879E+03 -0.12887384824E+03 -0.46223203528E+03  0.63265851455E+03  0.91187600000E+02 0.  0.
<mgrwt>
<rscale>  0 0.55413993E+04</rscale>
<asrwt>0</asrwt>
<pdfrwt beam="1">  1        1 0.53748344E+00 0.55413993E+04</pdfrwt>
<pdfrwt beam="2">  1       -1 0.33805480E+00 0.55413993E+04</pdfrwt>
<totfact> 0.32563431E-03</totfact>
</mgrwt>
</event>
<event>
13    1  0.2389550E-009  0.7993078E+04  0.7818608E-02  0.7482876E-01
          2   -1    0    0  501    0  0.00000000000E+00  0.00000000000E+00  0.33298925082E+04  0.33298925082E+04  0.00000000000E+00 0. -1.
         -2   -1    0    0    0  501 -0.00000000000E+00 -0.00000000000E+00 -0.47966480664E+04  0.47966480664E+04  0.00000000000E+00 0.  1.
    9900016    2    1    2    0    0  0.72196865699E+02 -0.48362790802E+03 -0.37173955293E+04  0.43475188462E+04  0.22006322401E+04 0.  0.
         23    2    3    3    0    0 -0.73558679880E+03 -0.31488558508E+03 -0.33470833361E+04  0.34430192383E+04  0.10570594352E+03 0.  0.
    9900016    2    1    2    0    0  0.37208153127E+02  0.79186061132E+03  0.11158977218E+04  0.25945674202E+04  0.22041154003E+04 0.  0.
        -24    2    5    5    0    0 -0.14287807983E+03  0.42440292503E+02  0.16488512281E+04  0.16574968223E+04  0.79812402388E+02 0.  0.
        -15    1    4    4    0    0 -0.67773594419E+03 -0.25962280973E+03 -0.30697208051E+04  0.31543487180E+04  0.00000000000E+00 0. -1.
        -15    1    5    5    0    0  0.18008623295E+03  0.74942031882E+03 -0.53295350626E+03  0.93707059787E+03  0.00000000000E+00 0.  1.
         15    1    4    4    0    0 -0.57850854614E+02 -0.55262775348E+02 -0.27736253102E+03  0.28867052038E+03  0.00000000000E+00 0.  1.
         15    1    6    6    0    0 -0.29203867881E+02  0.21155815279E+02  0.15345489435E+03  0.15763514526E+03  0.00000000000E+00 0. -1.
        -16    1    6    6    0    0 -0.11367421194E+03  0.21284477225E+02  0.14953963337E+04  0.14998616771E+04  0.00000000000E+00 0.  1.
         16    1    3    3    0    0  0.80778366450E+03 -0.16874232294E+03 -0.37031219315E+03  0.90449960784E+03  0.00000000000E+00 0. -1.
    9900018    1    1    2    0    0 -0.10940501883E+03 -0.30823270330E+03  0.11347422493E+04  0.11844543082E+04  0.91187600000E+02 0.  0.
<mgrwt>
<rscale>  0 0.79930776E+04</rscale>
<asrwt>0</asrwt>
<pdfrwt beam="1">  1        2 0.51229115E+00 0.79930776E+04</pdfrwt>
<pdfrwt beam="2">  1       -2 0.73794586E+00 0.79930776E+04</pdfrwt>
<totfact> 0.10220699E-04</totfact>
</mgrwt>
</event>
<event>
13    1  0.2389550E-009  0.5732949E+04  0.7818608E-02  0.7724424E-01
          2   -1    0    0  501    0  0.00000000000E+00  0.00000000000E+00  0.33532019578E+04  0.33532019578E+04  0.00000000000E+00 0. -1.
         -2   -1    0    0    0  501 -0.00000000000E+00 -0.00000000000E+00 -0.24503973563E+04  0.24503973563E+04  0.00000000000E+00 0.  1.
    9900016    2    1    2    0    0  0.96368772369E+03  0.16434433330E+03  0.39112101217E+03  0.24475641340E+04  0.22095002727E+04 0.  0.
         23    2    3    3    0    0 -0.19920089650E+03 -0.40447215107E+03 -0.64173453117E+03  0.79146851199E+03  0.10639773881E+03 0.  0.
    9900016    2    1    2    0    0 -0.97117965812E+03 -0.89874213018E+03  0.28952499353E+03  0.25833348028E+04  0.21997424023E+04 0.  0.
         24    2    5    5    0    0  0.47742328847E+03  0.39364440728E+03  0.11755660769E+03  0.63441546506E+03  0.75990200281E+02 0.  0.
        -15    1    4    4    0    0 -0.20520456502E+03 -0.33467474206E+03 -0.55862106795E+03  0.68276906347E+03  0.00000000000E+00 0.  1.
        -15    1    6    6    0    0  0.17574400306E+03  0.99194122928E+02  0.42351098949E+02  0.20620146512E+03  0.00000000000E+00 0.  1.
         15    1    4    4    0    0  0.60036685234E+01 -0.69797409004E+02 -0.83113463225E+02  0.10869944852E+03  0.00000000000E+00 0. -1.
         15    1    5    5    0    0 -0.14486029466E+04 -0.12923865375E+04  0.17196838584E+03  0.19489193377E+04  0.00000000000E+00 0. -1.
        -16    1    3    3    0    0  0.11628886202E+04  0.56881648437E+03  0.10328555433E+04  0.16560956220E+04  0.00000000000E+00 0.  1.
         16    1    6    6    0    0  0.30167928541E+03  0.29445028435E+03  0.75205508742E+02  0.42821399994E+03  0.00000000000E+00 0. -1.
    9900018    1    1    2    0    0  0.74919344377E+01  0.73439779688E+03  0.22215859574E+03  0.77270037737E+03  0.91187600000E+02 0.  0.
<mgrwt>
<rscale>  0 0.57329494E+04</rscale>
<asrwt>0</asrwt>
<pdfrwt beam="1">  1        2 0.51587723E+00 0.57329494E+04</pdfrwt>
<pdfrwt beam="2">  1       -2 0.37698421E+00 0.57329494E+04</pdfrwt>
<totfact> 0.73735804E-03</totfact>
</mgrwt>
</event>
<event>
13    1  0.2389550E-009  0.6136298E+04  0.7818608E-02  0.7673729E-01
         -2   -1    0    0    0  501 -0.00000000000E+00  0.00000000000E+00  0.30089586449E+04  0.30089586449E+04  0.00000000000E+00 0.  1.
          2   -1    0    0  501    0  0.00000000000E+00 -0.00000000000E+00 -0.31285034881E+04  0.31285034881E+04  0.00000000000E+00 0. -1.
    9900016    2    1    2    0    0  0.54110056294E+02 -0.11276994889E+04  0.92400674305E+03  0.26374011151E+04  0.21971486398E+04 0.  0.
         23    2    3    3    0    0 -0.10786103752E+03  0.40954009989E+03  0.99834871134E+03  0.10898653589E+04  0.10839397679E+03 0.  0.
    9900016    2    1    2    0    0 -0.14997943694E+03  0.77280259913E+03  0.36940671587E+02  0.23551062422E+04  0.22193339339E+04 0.  0.
         24    2    5    5    0    0  0.93338422548E+03  0.83276727539E+02  0.39787869203E+03  0.10211650864E+04  0.79558496533E+02 0.  0.
        -15    1    6    6    0    0  0.34292375893E+03  0.34899768763E+02  0.10531257539E+03  0.36042396817E+03  0.00000000000E+00 0.  1.
        -15    1    4    4    0    0  0.16594364896E+02  0.11257708099E+03  0.22420840573E+03  0.25143265760E+03  0.00000000000E+00 0.  1.
         15    1    4    4    0    0 -0.12445540242E+03  0.29696301890E+03  0.77414030561E+03  0.83843270127E+03  0.00000000000E+00 0. -1.
         15    1    5    5    0    0 -0.10833636624E+04  0.68952587159E+03 -0.36093802045E+03  0.13339411558E+04  0.00000000000E+00 0. -1.
        -16    1    3    3    0    0  0.16197109382E+03 -0.15372395888E+04 -0.74341968289E+02  0.15475357563E+04  0.00000000000E+00 0.  1.
         16    1    6    6    0    0  0.59046046656E+03  0.48376958776E+02  0.29256611665E+03  0.66074111823E+03  0.00000000000E+00 0. -1.
    9900018    1    1    2    0    0  0.95869380642E+02  0.35489688981E+03 -0.10804922579E+04  0.11449547756E+04  0.91187600000E+02 0.  0.
<mgrwt>
<rscale>  0 0.61362978E+04</rscale>
<asrwt>0</asrwt>
<pdfrwt beam="1">  1        2 0.48130823E+00 0.61362978E+04</pdfrwt>
<pdfrwt beam="2">  1       -2 0.46291671E+00 0.61362978E+04</pdfrwt>
<totfact> 0.27575922E-03</totfact>
</mgrwt>
</event>
<event>
13    1  0.2389550E-009  0.5383577E+04  0.7818608E-02  0.7771915E-01
          1   -1    0    0  501    0  0.00000000000E+00  0.00000000000E+00  0.32201130346E+04  0.32201130346E+04  0.00000000000E+00 0. -1.
         -1   -1    0    0    0  501 -0.00000000000E+00 -0.00000000000E+00 -0.22501461058E+04  0.22501461058E+04  0.00000000000E+00 0.  1.
    9900016    2    1    2    0    0  0.70758726376E+03  0.50275845862E+03  0.24430933782E+03  0.23876982948E+04  0.22108754580E+04 0.  0.
         23    2    3    3    0    0  0.27502630507E+03 -0.87524002394E+03  0.13896363045E+02  0.92513925673E+03  0.11834258507E+03 0.  0.
    9900016    2    1    2    0    0 -0.16440437462E+03  0.65452545082E+02  0.66492812563E+03  0.22888892245E+04  0.21830189270E+04 0.  0.
        -24    2    5    5    0    0 -0.75130359275E+03 -0.78673793969E+03  0.64805191890E+02  0.10927174767E+04  0.80113025293E+02 0.  0.
        -15    1    5    5    0    0  0.58689921813E+03  0.85219048478E+03  0.60012293374E+03  0.11961717478E+04  0.00000000000E+00 0.  1.
        -15    1    4    4    0    0  0.24485090594E+03 -0.79444741305E+03  0.47262926028E+02  0.83266586481E+03  0.00000000000E+00 0.  1.
         15    1    6    6    0    0 -0.44017002530E+03 -0.41042711327E+03  0.55056392911E+02  0.60434367117E+03  0.00000000000E+00 0. -1.
         15    1    4    4    0    0  0.30175399128E+02 -0.80792610890E+02 -0.33366562983E+02  0.92473391915E+02  0.00000000000E+00 0. -1.
        -16    1    6    6    0    0 -0.31113356745E+03 -0.37631082642E+03  0.97487989788E+01  0.48837380556E+03  0.00000000000E+00 0.  1.
         16    1    3    3    0    0  0.43256095869E+03  0.13779984826E+04  0.23041297478E+03  0.14625590381E+04  0.00000000000E+00 0. -1.
    9900018    1    1    2    0    0 -0.54318288913E+03 -0.56821100370E+03  0.60729465270E+02  0.79367162109E+03  0.91187600000E+02 0.  0.
<mgrwt>
<rscale>  0 0.53835768E+04</rscale>
<asrwt>0</asrwt>
<pdfrwt beam="1">  1        1 0.49540201E+00 0.53835768E+04</pdfrwt>
<pdfrwt beam="2">  1       -1 0.34617632E+00 0.53835768E+04</pdfrwt>
<totfact> 0.47351947E-03</totfact>
</mgrwt>
</event>
<event>
12    1  0.2389550E-009  0.5609900E+04  0.7818608E-02  0.7740745E-01
          2   -1    0    0  501    0  0.00000000000E+00  0.00000000000E+00  0.27369547357E+04  0.27369547357E+04  0.00000000000E+00 0. -1.
         -2   -1    0    0    0  501 -0.00000000000E+00 -0.00000000000E+00 -0.28746341738E+04  0.28746341738E+04  0.00000000000E+00 0.  1.
    9900016    2    1    2    0    0  0.59342226578E+03 -0.88791349288E+03 -0.10188546192E+04  0.26477004837E+04  0.21981157294E+04 0.  0.
    9900016    2    1    2    0    0 -0.24024982416E+03  0.75091582817E+03  0.10312558359E+04  0.25463497869E+04  0.21906195651E+04 0.  0.
         24    2    4    4    0    0  0.77275095608E+03  0.93603530428E+03  0.22135045298E+03  0.12362404286E+04  0.77383740740E+02 0.  0.
        -15    1    5    5    0    0  0.14722249376E+03  0.17397269262E+03  0.11212260330E+02  0.22818123329E+03  0.00000000000E+00 0.  1.
        -15    1    3    3    0    0 -0.52375060788E+03  0.13504117562E+03  0.59845374484E+02  0.54418038113E+03  0.00000000000E+00 0.  1.
         15    1    4    4    0    0 -0.10130007802E+04 -0.18511947611E+03  0.80990538296E+03  0.13101093582E+04  0.00000000000E+00 0. -1.
         15    1    3    3    0    0 -0.15904319688E+03 -0.29620728175E+02 -0.41216105294E+01  0.16183050913E+03  0.00000000000E+00 0. -1.
        -16    1    3    3    0    0  0.12762160705E+04 -0.99333394033E+03 -0.10745783831E+04  0.19416895934E+04  0.00000000000E+00 0.  1.
         16    1    5    5    0    0  0.62552846233E+03  0.76206261167E+03  0.21013819265E+03  0.10080591953E+04  0.00000000000E+00 0. -1.
    9900018    1    1    2    0    0 -0.35317244162E+03  0.13699766471E+03 -0.15008065486E+03  0.41753863895E+03  0.91187600000E+02 0.  0.
<mgrwt>
<rscale>  0 0.56098997E+04</rscale>
<asrwt>0</asrwt>
<pdfrwt beam="1">  1        2 0.42106996E+00 0.56098997E+04</pdfrwt>
<pdfrwt beam="2">  1       -2 0.44225141E+00 0.56098997E+04</pdfrwt>
<totfact> 0.68619984E-03</totfact>
</mgrwt>
</event>
<event>
12    1  0.2389550E-009  0.6284471E+04  0.7818608E-02  0.7656098E-01
         -1   -1    0    0    0  501 -0.00000000000E+00  0.00000000000E+00  0.29183705378E+04  0.29183705378E+04  0.00000000000E+00 0.  1.
          1   -1    0    0  501    0  0.00000000000E+00 -0.00000000000E+00 -0.33832724003E+04  0.33832724003E+04  0.00000000000E+00 0. -1.
    9900016    2    1    2    0    0 -0.60632142172E+03 -0.40013486903E+03  0.10175309600E+04  0.25329729995E+04  0.22029183784E+04 0.  0.
    9900016    2    1    2    0    0  0.38266387598E+03 -0.12991257186E+03 -0.19894995588E+04  0.29963974214E+04  0.22038557335E+04 0.  0.
         24    2    4    4    0    0 -0.65681040255E+03  0.47088437999E+03 -0.19062176551E+03  0.83366186927E+03  0.74319920505E+02 0.  0.
        -15    1    5    5    0    0 -0.50835071804E+03  0.39789006209E+03 -0.16446801405E+03  0.66617316194E+03  0.00000000000E+00 0.  1.
        -15    1    3    3    0    0 -0.10365913375E+03  0.33285756407E+03  0.52280433677E+02  0.35252321585E+03  0.00000000000E+00 0. -1.
         15    1    4    4    0    0  0.10394742785E+04 -0.60079695185E+03 -0.17988777933E+04  0.21627355521E+04  0.00000000000E+00 0. -1.
         15    1    3    3    0    0  0.18378061905E+03  0.43680986445E+03 -0.63466586615E+02  0.47812778756E+03  0.00000000000E+00 0.  1.
        -16    1    3    3    0    0 -0.68644290701E+03 -0.11698022976E+04  0.10287171130E+04  0.17023219961E+04  0.00000000000E+00 0.  1.
         16    1    5    5    0    0 -0.14845968451E+03  0.72994317900E+02 -0.26153751460E+02  0.16748870734E+03  0.00000000000E+00 0. -1.
    9900018    1    1    2    0    0  0.22365754574E+03  0.53004744089E+03  0.50706673635E+03  0.77227251723E+03  0.91187600000E+02 0.  0.
<mgrwt>
<rscale>  0 0.62844705E+04</rscale>
<asrwt>0</asrwt>
<pdfrwt beam="1">  1        1 0.52050344E+00 0.62844705E+04</pdfrwt>
<pdfrwt beam="2">  1       -1 0.44898009E+00 0.62844705E+04</pdfrwt>
<totfact> 0.66517980E-04</totfact>
</mgrwt>
</event>
<event>
13    1  0.2389550E-009  0.6068510E+04  0.7818608E-02  0.7681965E-01
          2   -1    0    0  501    0  0.00000000000E+00  0.00000000000E+00  0.38543639594E+04  0.38543639594E+04  0.00000000000E+00 0. -1.
         -2   -1    0    0    0  501 -0.00000000000E+00 -0.00000000000E+00 -0.23886441821E+04  0.23886441821E+04  0.00000000000E+00 0.  1.
    9900016    2    1    2    0    0  0.20763330083E+03 -0.11013310781E+04  0.56753899128E+03  0.25318913767E+04  0.21982565150E+04 0.  0.
         23    2    3    3    0    0  0.54153956101E+03  0.15350618714E+02 -0.64562216345E+03  0.84956222048E+03  0.10689832030E+03 0.  0.
    9900016    2    1    2    0    0  0.11651991284E+03  0.17849565789E+04  0.75445086777E+03  0.29356216977E+04  0.22020517164E+04 0.  0.
         24    2    5    5    0    0 -0.84251794810E+03  0.72833552761E+03  0.98651368875E+03  0.14899195093E+04  0.79635120476E+02 0.  0.
        -15    1    6    6    0    0 -0.37694223307E+03  0.32882341453E+03  0.49611353986E+03  0.70451325711E+03  0.00000000000E+00 0.  1.
        -15    1    4    4    0    0  0.35214000072E+02 -0.94691697648E+01 -0.91722143018E+02  0.98704825095E+02  0.00000000000E+00 0. -1.
         15    1    4    4    0    0  0.50632556094E+03  0.24819788479E+02 -0.55390002044E+03  0.75085739538E+03  0.00000000000E+00 0.  1.
         15    1    5    5    0    0  0.95903786095E+03  0.10566210513E+04 -0.23206282098E+03  0.14457021884E+04  0.00000000000E+00 0. -1.
        -16    1    3    3    0    0 -0.33390626018E+03 -0.11166816968E+04  0.12131611547E+04  0.16823291563E+04  0.00000000000E+00 0.  1.
         16    1    6    6    0    0 -0.46557571503E+03  0.39951211307E+03  0.49040014889E+03  0.78540625217E+03  0.00000000000E+00 0. -1.
    9900018    1    1    2    0    0 -0.32415321368E+03 -0.68362550075E+03  0.14372991832E+03  0.77549506706E+03  0.91187600000E+02 0.  0.
<mgrwt>
<rscale>  0 0.60685102E+04</rscale>
<asrwt>0</asrwt>
<pdfrwt beam="1">  1        2 0.59297907E+00 0.60685102E+04</pdfrwt>
<pdfrwt beam="2">  1       -2 0.36748372E+00 0.60685102E+04</pdfrwt>
<totfact> 0.35850847E-03</totfact>
</mgrwt>
</event>
<event>
12    1  0.2389550E-009  0.4923085E+04  0.7818608E-02  0.7840483E-01
          2   -1    0    0  501    0  0.00000000000E+00  0.00000000000E+00  0.39364131138E+04  0.39364131138E+04  0.00000000000E+00 0. -1.
         -2   -1    0    0    0  501 -0.00000000000E+00 -0.00000000000E+00 -0.15392674443E+04  0.15392674443E+04  0.00000000000E+00 0.  1.
    9900016    2    1    2    0    0 -0.51523566611E+03  0.35668605748E+03  0.16933902139E+04  0.28490868996E+04  0.22038677388E+04 0.  0.
    9900016    2    1    2    0    0  0.30687177791E+03 -0.17350581255E+03  0.55506024697E+03  0.22988804370E+04  0.22028356341E+04 0.  0.
        -24    2    4    4    0    0  0.16763502784E+03 -0.11506587167E+04 -0.25688873763E+01  0.11652292905E+04  0.75071401286E+02 0.  0.
        -15    1    3    3    0    0 -0.44654570763E+03 -0.20680918450E+03  0.13417929243E+04  0.14291890566E+04  0.00000000000E+00 0.  1.
        -15    1    4    4    0    0  0.13923675007E+03  0.97715290414E+03  0.55762913435E+03  0.11336511466E+04  0.00000000000E+00 0.  1.
         15    1    5    5    0    0  0.14183454926E+03 -0.73001795557E+03  0.66073269314E+01  0.74369813203E+03  0.00000000000E+00 0. -1.
         15    1    3    3    0    0 -0.11081300035E+03 -0.11771008107E+03  0.65379133788E+03  0.67348221782E+03  0.00000000000E+00 0. -1.
        -16    1    5    5    0    0  0.25800478586E+02 -0.42064076112E+03 -0.91762143078E+01  0.42153115842E+03  0.00000000000E+00 0.  1.
         16    1    3    3    0    0  0.42123041866E+02  0.68120532304E+03 -0.30219404827E+03  0.74641562524E+03  0.00000000000E+00 0. -1.
    9900018    1    1    2    0    0  0.20836388820E+03 -0.18318024493E+03  0.14869520857E+03  0.32771322141E+03  0.91187600000E+02 0.  0.
<mgrwt>
<rscale>  0 0.49230854E+04</rscale>
<asrwt>0</asrwt>
<pdfrwt beam="1">  1        2 0.60560202E+00 0.49230854E+04</pdfrwt>
<pdfrwt beam="2">  1       -2 0.23681038E+00 0.49230854E+04</pdfrwt>
<totfact> 0.21758387E-02</totfact>
</mgrwt>
</event>
<event>
13    1  0.2389550E-009  0.6094216E+04  0.7818608E-02  0.7678829E-01
          1   -1    0    0  501    0  0.00000000000E+00  0.00000000000E+00  0.33372130657E+04  0.33372130657E+04  0.00000000000E+00 0. -1.
         -1   -1    0    0    0  501 -0.00000000000E+00 -0.00000000000E+00 -0.27822223018E+04  0.27822223018E+04  0.00000000000E+00 0.  1.
    9900016    2    1    2    0    0  0.67156817491E+03 -0.13039219858E+04  0.10707050831E+04  0.28554262333E+04  0.22035955255E+04 0.  0.
         23    2    3    3    0    0  0.25992147433E+03 -0.12959069344E+03  0.15052138124E+04  0.15373576364E+04  0.11596102932E+03 0.  0.
    9900016    2    1    2    0    0 -0.36585914264E+03  0.42409573811E+03 -0.53859576356E+03  0.23278515740E+04  0.21943330300E+04 0.  0.
         24    2    5    5    0    0 -0.11390775934E+03  0.10346109462E+04 -0.10589346326E+04  0.14870419299E+04  0.80971338841E+02 0.  0.
        -15    1    6    6    0    0 -0.82531168517E+01  0.10653084768E+03 -0.76349389745E+02  0.13132465404E+03  0.00000000000E+00 0.  1.
        -15    1    4    4    0    0  0.20362975581E+03 -0.14972725143E+03  0.12379715645E+04  0.12635097633E+04  0.00000000000E+00 0. -1.
         15    1    5    5    0    0 -0.25195138330E+03 -0.61051520804E+03  0.52033886906E+03  0.84080964401E+03  0.00000000000E+00 0. -1.
         15    1    4    4    0    0  0.56291718512E+02  0.20136557994E+02  0.26724224788E+03  0.27384787308E+03  0.00000000000E+00 0.  1.
        -16    1    3    3    0    0  0.41164670058E+03 -0.11743312924E+04 -0.43450872930E+03  0.13180685970E+04  0.00000000000E+00 0.  1.
         16    1    6    6    0    0 -0.10565464249E+03  0.92808009847E+03 -0.98258524288E+03  0.13557172759E+04  0.00000000000E+00 0. -1.
    9900018    1    1    2    0    0 -0.30570903227E+03  0.87982624773E+03  0.22881444301E+02  0.93615756019E+03  0.91187600000E+02 0.  0.
<mgrwt>
<rscale>  0 0.60942165E+04</rscale>
<asrwt>0</asrwt>
<pdfrwt beam="1">  1        1 0.51341740E+00 0.60942165E+04</pdfrwt>
<pdfrwt beam="2">  1       -1 0.42803420E+00 0.60942165E+04</pdfrwt>
<totfact> 0.10198155E-03</totfact>
</mgrwt>
</event>
<event>
13    1  0.2389550E-009  0.6733230E+04  0.7818608E-02  0.7605591E-01
          2   -1    0    0  501    0  0.00000000000E+00  0.00000000000E+00  0.34944021644E+04  0.34944021644E+04  0.00000000000E+00 0. -1.
         -2   -1    0    0    0  501 -0.00000000000E+00 -0.00000000000E+00 -0.32435011420E+04  0.32435011420E+04  0.00000000000E+00 0.  1.
    9900016    2    1    2    0    0  0.15747902958E+03  0.89111428638E+03 -0.45612374402E+03  0.24363274587E+04  0.22155717772E+04 0.  0.
         23    2    3    3    0    0 -0.12204162436E+03 -0.69232018075E+03  0.13360674768E+03  0.72367496603E+03  0.10795046401E+03 0.  0.
    9900016    2    1    2    0    0 -0.14852130189E+04 -0.90443390325E+02  0.61259621137E+03  0.27455606291E+04  0.22245879015E+04 0.  0.
         24    2    5    5    0    0 -0.16708079964E+04 -0.84175932043E+03  0.61713683988E+03  0.19716473654E+04  0.79858247735E+02 0.  0.
        -15    1    4    4    0    0 -0.13266209125E+03 -0.68575071981E+03  0.12851974908E+03  0.71019054210E+03  0.00000000000E+00 0.  1.
        -15    1    6    6    0    0 -0.31693962290E+03 -0.19466635217E+03  0.11613726349E+03  0.38965828261E+03  0.00000000000E+00 0.  1.
         15    1    5    5    0    0  0.18559497752E+03  0.75131593010E+03 -0.45406285109E+01  0.77391326375E+03  0.00000000000E+00 0. -1.
         15    1    4    4    0    0  0.10620466894E+02 -0.65694609383E+01  0.50869985973E+01  0.13484423933E+02  0.00000000000E+00 0. -1.
        -16    1    3    3    0    0  0.27952065393E+03  0.15834344671E+04 -0.58973049170E+03  0.17126524926E+04  0.00000000000E+00 0.  1.
         16    1    6    6    0    0 -0.13538683735E+04 -0.64709296825E+03  0.50099957640E+03  0.15819890827E+04  0.00000000000E+00 0. -1.
    9900018    1    1    2    0    0  0.13277339893E+04 -0.80067089605E+03  0.94428554974E+02  0.15560152186E+04  0.91187600000E+02 0.  0.
<mgrwt>
<rscale>  0 0.67332303E+04</rscale>
<asrwt>0</asrwt>
<pdfrwt beam="1">  1        2 0.53760033E+00 0.67332303E+04</pdfrwt>
<pdfrwt beam="2">  1       -2 0.49900017E+00 0.67332303E+04</pdfrwt>
<totfact> 0.88375823E-04</totfact>
</mgrwt>
</event>
<event>
13    1  0.2389550E-009  0.5056154E+04  0.7818608E-02  0.7819903E-01
          2   -1    0    0  501    0  0.00000000000E+00  0.00000000000E+00  0.35157040335E+04  0.35157040335E+04  0.00000000000E+00 0. -1.
         -2   -1    0    0    0  501 -0.00000000000E+00 -0.00000000000E+00 -0.18178925179E+04  0.18178925179E+04  0.00000000000E+00 0.  1.
    9900016    2    1    2    0    0  0.20946168795E+03  0.12334890146E+02  0.41200654085E+03  0.22460942390E+04  0.21979908081E+04 0.  0.
         23    2    3    3    0    0  0.41732107764E+03 -0.34755617911E+03 -0.79539299012E+03  0.96916795491E+03  0.10809410995E+03 0.  0.
    9900016    2    1    2    0    0 -0.30744941527E+03  0.15375428620E+03  0.15766179156E+04  0.27268438117E+04  0.21981327526E+04 0.  0.
        -24    2    5    5    0    0  0.71161087312E+03  0.70180287949E+03  0.40834954374E+03  0.10825530464E+04  0.79084967089E+02 0.  0.
        -15    1    4    4    0    0  0.11512671497E+03 -0.50213872340E+02 -0.23521180668E+03  0.26664618406E+03  0.00000000000E+00 0. -1.
        -15    1    5    5    0    0 -0.10190602884E+04 -0.54804859329E+03  0.11682683719E+04  0.16442907653E+04  0.00000000000E+00 0.  1.
         15    1    4    4    0    0  0.30219436268E+03 -0.29734230677E+03 -0.56018118344E+03  0.70252177085E+03  0.00000000000E+00 0.  1.
         15    1    6    6    0    0  0.29081692863E+03  0.34129161351E+03  0.17570630272E+03  0.48158816041E+03  0.00000000000E+00 0. -1.
        -16    1    6    6    0    0  0.42079394448E+03  0.36051126599E+03  0.23264324102E+03  0.60096488600E+03  0.00000000000E+00 0.  1.
         16    1    3    3    0    0 -0.20785938969E+03  0.35989106926E+03  0.12073995310E+04  0.12769262841E+04  0.00000000000E+00 0. -1.
    9900018    1    1    2    0    0  0.97987727315E+02 -0.16608917634E+03 -0.29081294082E+03  0.36065850072E+03  0.91187600000E+02 0.  0.
<mgrwt>
<rscale>  0 0.50561535E+04</rscale>
<asrwt>0</asrwt>
<pdfrwt beam="1">  1        2 0.54087754E+00 0.50561535E+04</pdfrwt>
<pdfrwt beam="2">  1       -2 0.27967577E+00 0.50561535E+04</pdfrwt>
<totfact> 0.24252746E-02</totfact>
</mgrwt>
</event>
<event>
13    1  0.2389550E-009  0.5377483E+04  0.7818608E-02  0.7772776E-01
         -2   -1    0    0    0  501 -0.00000000000E+00  0.00000000000E+00  0.17179199272E+04  0.17179199272E+04  0.00000000000E+00 0. -1.
          2   -1    0    0  501    0  0.00000000000E+00 -0.00000000000E+00 -0.42081890335E+04  0.42081890335E+04  0.00000000000E+00 0.  1.
    9900016    2    1    2    0    0  0.62887052674E+03  0.46696673601E+03 -0.16931463245E+04  0.28850085273E+04  0.22006802709E+04 0.  0.
         23    2    3    3    0    0 -0.38910941126E+03  0.33136428194E+03  0.32779339656E+03  0.61810126502E+03  0.11572485350E+03 0.  0.
    9900016    2    1    2    0    0 -0.15146760257E+03 -0.60028523924E+03 -0.26931219739E+03  0.23113151453E+04  0.22105121213E+04 0.  0.
        -24    2    5    5    0    0 -0.33139538352E+03 -0.12502784131E+04  0.40492101103E+03  0.13576613550E+04  0.79147453591E+02 0.  0.
        -15    1    5    5    0    0  0.17992778094E+03  0.64999317382E+03 -0.67423320842E+03  0.95365379028E+03  0.00000000000E+00 0.  1.
        -15    1    4    4    0    0 -0.12813968349E+03  0.48314468306E+02  0.62383064609E+02  0.15048492643E+03  0.00000000000E+00 0. -1.
         15    1    6    6    0    0 -0.12095210622E+03 -0.44034317240E+03  0.10376993928E+03  0.46829448190E+03  0.00000000000E+00 0. -1.
         15    1    4    4    0    0 -0.26096972777E+03  0.28304981364E+03  0.26541033195E+03  0.46761633859E+03  0.00000000000E+00 0.  1.
        -16    1    6    6    0    0 -0.21044327729E+03 -0.80993524067E+03  0.30115107175E+03  0.88936687315E+03  0.00000000000E+00 0.  1.
         16    1    3    3    0    0  0.10179799380E+04  0.13560245407E+03 -0.20209397211E+04  0.22669072623E+04  0.00000000000E+00 0. -1.
    9900018    1    1    2    0    0 -0.47740292417E+03  0.13331850323E+03 -0.52781058433E+03  0.72978528803E+03  0.91187600000E+02 0.  0.
<mgrwt>
<rscale>  0 0.53774834E+04</rscale>
<asrwt>0</asrwt>
<pdfrwt beam="1">  1        2 0.64741369E+00 0.53774834E+04</pdfrwt>
<pdfrwt beam="2">  1       -2 0.26429538E+00 0.53774834E+04</pdfrwt>
<totfact> 0.84303656E-03</totfact>
</mgrwt>
</event>
<event>
13    1  0.2389550E-009  0.5416537E+04  0.7818608E-02  0.7767279E-01
         -2   -1    0    0    0  501 -0.00000000000E+00  0.00000000000E+00  0.21062950872E+04  0.21062950872E+04  0.00000000000E+00 0.  1.
          2   -1    0    0  501    0  0.00000000000E+00 -0.00000000000E+00 -0.34822844820E+04  0.34822844820E+04  0.00000000000E+00 0. -1.
    9900016    2    1    2    0    0  0.12657967071E+04 -0.42874505611E+03 -0.43470277938E+03  0.26099705628E+04  0.21992990259E+04 0.  0.
         23    2    3    3    0    0  0.11772531067E+04  0.25151362138E+03  0.61515176159E+03  0.13558627545E+04  0.10376965059E+03 0.  0.
    9900016    2    1    2    0    0 -0.13671125067E+04  0.30880534800E+03 -0.99347866125E+03  0.27896920594E+04  0.21979591868E+04 0.  0.
         24    2    5    5    0    0 -0.17054210124E+04  0.89663078069E+03 -0.74991096529E+03  0.20690558079E+04  0.78853624737E+02 0.  0.
        -15    1    4    4    0    0  0.38515300242E+02 -0.10181013308E+02  0.21867494144E+02  0.45445227306E+02  0.00000000000E+00 0.  1.
        -15    1    6    6    0    0 -0.10704551266E+04  0.51976042742E+03 -0.46733150420E+03  0.12784458591E+04  0.00000000000E+00 0.  1.
         15    1    5    5    0    0  0.33830850570E+03 -0.58782543269E+03 -0.24356769596E+03  0.72063625142E+03  0.00000000000E+00 0. -1.
         15    1    4    4    0    0  0.11387378065E+04  0.26169463469E+03  0.59328426745E+03  0.13104175272E+04  0.00000000000E+00 0. -1.
        -16    1    3    3    0    0  0.88543600378E+02 -0.68025867749E+03 -0.10498545410E+04  0.12541078082E+04  0.00000000000E+00 0.  1.
         16    1    6    6    0    0 -0.63496588582E+03  0.37687035327E+03 -0.28257946109E+03  0.79060994881E+03  0.00000000000E+00 0. -1.
    9900018    1    1    2    0    0  0.10131579962E+03  0.11993970811E+03  0.52192045840E+02  0.18891694704E+03  0.91187600000E+02 0.  0.
<mgrwt>
<rscale>  0 0.54165372E+04</rscale>
<asrwt>0</asrwt>
<pdfrwt beam="1">  1        2 0.53573607E+00 0.54165372E+04</pdfrwt>
<pdfrwt beam="2">  1       -2 0.32404540E+00 0.54165372E+04</pdfrwt>
<totfact> 0.13292607E-02</totfact>
</mgrwt>
</event>
<event>
13    1  0.2389550E-009  0.5429415E+04  0.7818608E-02  0.7765477E-01
          2   -1    0    0  501    0  0.00000000000E+00  0.00000000000E+00  0.29439250755E+04  0.29439250755E+04  0.00000000000E+00 0. -1.
         -2   -1    0    0    0  501 -0.00000000000E+00 -0.00000000000E+00 -0.25033374550E+04  0.25033374550E+04  0.00000000000E+00 0.  1.
    9900016    2    1    2    0    0  0.33551307171E+03  0.37557397009E+03 -0.11158364855E+04  0.25191503532E+04  0.22016817689E+04 0.  0.
         23    2    3    3    0    0 -0.11166919272E+03 -0.14881782983E+03  0.61766243340E+03  0.65368064313E+03  0.10571067347E+03 0.  0.
    9900016    2    1    2    0    0 -0.16797467235E+03 -0.29953407519E+03  0.12348417522E+04  0.25465606481E+04  0.22005001314E+04 0.  0.
         24    2    5    5    0    0  0.74781638861E+03  0.54432535650E+03  0.80497189096E+03  0.12291540649E+04  0.85560067383E+02 0.  0.
        -15    1    4    4    0    0 -0.11118193013E+03 -0.10038256065E+03  0.33591949842E+03  0.36780428150E+03  0.00000000000E+00 0. -1.
        -15    1    6    6    0    0  0.53163021715E+03  0.40625496718E+03  0.62693833926E+03  0.91691082848E+03  0.00000000000E+00 0.  1.
         15    1    4    4    0    0 -0.48726258708E+00 -0.48435269185E+02  0.28174293498E+03  0.28587636163E+03  0.00000000000E+00 0.  1.
         15    1    5    5    0    0 -0.91579106095E+03 -0.84385943170E+03  0.42986986128E+03  0.13174065832E+04  0.00000000000E+00 0. -1.
        -16    1    3    3    0    0  0.44718226443E+03  0.52439179992E+03 -0.17334989189E+04  0.18654697101E+04  0.00000000000E+00 0.  1.
         16    1    6    6    0    0  0.21618617146E+03  0.13807038932E+03  0.17803355170E+03  0.31224323638E+03  0.00000000000E+00 0. -1.
    9900018    1    1    2    0    0 -0.16753839936E+03 -0.76039894892E+02  0.32158235375E+03  0.38155152930E+03  0.91187600000E+02 0.  0.
<mgrwt>
<rscale>  0 0.54294154E+04</rscale>
<asrwt>0</asrwt>
<pdfrwt beam="1">  1        2 0.45291155E+00 0.54294154E+04</pdfrwt>
<pdfrwt beam="2">  1       -2 0.38512884E+00 0.54294154E+04</pdfrwt>
<totfact> 0.12322439E-02</totfact>
</mgrwt>
</event>
<event>
13    1  0.2389550E-009  0.4939319E+04  0.7818608E-02  0.7837937E-01
          2   -1    0    0  501    0  0.00000000000E+00  0.00000000000E+00  0.23560238636E+04  0.23560238636E+04  0.00000000000E+00 0.  1.
         -2   -1    0    0    0  501 -0.00000000000E+00 -0.00000000000E+00 -0.25887758139E+04  0.25887758139E+04  0.00000000000E+00 0. -1.
    9900016    2    1    2    0    0  0.83317058947E+03 -0.73888481431E+02  0.26603285735E+03  0.23204529998E+04  0.21480446700E+04 0.  0.
         23    2    3    3    0    0 -0.25489305277E+03  0.86994912929E+02 -0.76452405928E+03  0.81319936668E+03  0.65250207103E+02 0.  0.
    9900016    2    1    2    0    0 -0.90753253336E+03 -0.31980089136E+02 -0.57504605931E+03  0.24486514590E+04  0.22001313534E+04 0.  0.
         24    2    5    5    0    0 -0.74616481611E+03  0.75084954810E+03 -0.10709449600E+04  0.15080253373E+04  0.81733309269E+02 0.  0.
        -15    1    6    6    0    0 -0.46840413093E+03  0.47006709317E+03 -0.72670480243E+03  0.98410638237E+03  0.00000000000E+00 0.  1.
        -15    1    4    4    0    0 -0.57272718215E+02  0.14630985914E+02 -0.10019584464E+03  0.11633330256E+03  0.00000000000E+00 0.  1.
         15    1    4    4    0    0 -0.19762033455E+03  0.72363927015E+02 -0.66432821464E+03  0.69686606412E+03  0.00000000000E+00 0. -1.
         15    1    5    5    0    0 -0.16136771725E+03 -0.78282963724E+03  0.49589890074E+03  0.94062612172E+03  0.00000000000E+00 0. -1.
        -16    1    3    3    0    0  0.10880636422E+04 -0.16088339436E+03  0.10305569166E+04  0.15072536331E+04  0.00000000000E+00 0.  1.
         16    1    6    6    0    0 -0.27776068518E+03  0.28078245493E+03 -0.34424015762E+03  0.52391895494E+03  0.00000000000E+00 0. -1.
    9900018    1    1    2    0    0  0.74361943891E+02  0.10586857057E+03  0.76261251649E+02  0.17569521857E+03  0.91187600000E+02 0.  0.
<mgrwt>
<rscale>  0 0.49393188E+04</rscale>
<asrwt>0</asrwt>
<pdfrwt beam="1">  1        2 0.36246521E+00 0.49393188E+04</pdfrwt>
<pdfrwt beam="2">  1       -2 0.39827321E+00 0.49393188E+04</pdfrwt>
<totfact> 0.23490405E-02</totfact>
</mgrwt>
</event>
<event>
13    1  0.2389550E-009  0.5175268E+04  0.7818608E-02  0.7802025E-01
         -2   -1    0    0    0  501 -0.00000000000E+00  0.00000000000E+00  0.20663465929E+04  0.20663465929E+04  0.00000000000E+00 0.  1.
          2   -1    0    0  501    0  0.00000000000E+00 -0.00000000000E+00 -0.32404294274E+04  0.32404294274E+04  0.00000000000E+00 0. -1.
    9900016    2    1    2    0    0  0.63223413119E+03 -0.32525244627E+03 -0.14320592831E+04  0.27160967997E+04  0.21956499914E+04 0.  0.
         23    2    3    3    0    0 -0.25503113518E+03 -0.13901568914E+02  0.49776927147E+03  0.56937435099E+03  0.10572970453E+03 0.  0.
    9900016    2    1    2    0    0 -0.38466281819E+03  0.28401160396E+03  0.42334884191E+02  0.22474463189E+04  0.21955852612E+04 0.  0.
        -24    2    5    5    0    0 -0.71783454570E+03 -0.81059045713E+03 -0.11937479773E+03  0.10918914334E+04  0.75054886045E+02 0.  0.
        -15    1    5    5    0    0  0.33317172751E+03  0.10946020611E+04  0.16170968192E+03  0.11555548855E+04  0.00000000000E+00 0.  1.
        -15    1    4    4    0    0 -0.10435197550E+03  0.19525534654E+02  0.11423457107E+03  0.15594908951E+03  0.00000000000E+00 0.  1.
         15    1    6    6    0    0 -0.68721287281E+03 -0.78279496529E+03 -0.10066430699E+03  0.10465002594E+04  0.00000000000E+00 0. -1.
         15    1    4    4    0    0 -0.15067915968E+03 -0.33427103568E+02  0.38353470040E+03  0.41342526148E+03  0.00000000000E+00 0. -1.
        -16    1    6    6    0    0 -0.30621672891E+02 -0.27795491843E+02 -0.18710490742E+02  0.45391174046E+02  0.00000000000E+00 0.  1.
         16    1    3    3    0    0  0.88726526636E+03 -0.31135087736E+03 -0.19298285546E+04  0.21467224487E+04  0.00000000000E+00 0. -1.
    9900018    1    1    2    0    0 -0.24757131300E+03  0.41240842311E+02  0.21564156442E+03  0.34323290168E+03  0.91187600000E+02 0.  0.
<mgrwt>
<rscale>  0 0.51752682E+04</rscale>
<asrwt>0</asrwt>
<pdfrwt beam="1">  1        2 0.49852760E+00 0.51752682E+04</pdfrwt>
<pdfrwt beam="2">  1       -2 0.31789948E+00 0.51752682E+04</pdfrwt>
<totfact> 0.21585660E-02</totfact>
</mgrwt>
</event>
<event>
13    1  0.2389550E-009  0.5762120E+04  0.7818608E-02  0.7720616E-01
          1   -1    0    0  501    0  0.00000000000E+00  0.00000000000E+00  0.36738953873E+04  0.36738953873E+04  0.00000000000E+00 0. -1.
         -1   -1    0    0    0  501 -0.00000000000E+00 -0.00000000000E+00 -0.22593201246E+04  0.22593201246E+04  0.00000000000E+00 0.  1.
    9900016    2    1    2    0    0 -0.72309641008E+03  0.60265612591E+03 -0.28787033248E+03  0.24063692622E+04  0.21958326150E+04 0.  0.
         23    2    3    3    0    0  0.71250834560E+02 -0.40428498734E+03  0.68181743903E+03  0.79850971455E+03  0.64959307693E+02 0.  0.
    9900016    2    1    2    0    0  0.60111745673E+03 -0.44089292917E+03  0.59591957915E+03  0.23982359540E+04  0.22001560796E+04 0.  0.
         24    2    5    5    0    0  0.14117883138E+04 -0.23146626545E+03  0.12688617376E+03  0.14385281332E+04  0.80871590207E+02 0.  0.
        -15    1    6    6    0    0  0.11703635947E+04 -0.22252493116E+03  0.10592784189E+03  0.11960305166E+04  0.00000000000E+00 0.  1.
        -15    1    4    4    0    0  0.36717739416E+02 -0.34021100715E+03  0.57852062980E+03  0.67214421137E+03  0.00000000000E+00 0.  1.
         15    1    4    4    0    0  0.34533095143E+02 -0.64073980192E+02  0.10329680923E+03  0.12636550318E+03  0.00000000000E+00 0. -1.
         15    1    5    5    0    0 -0.81067085704E+03 -0.20942666372E+03  0.46903340539E+03  0.95970782080E+03  0.00000000000E+00 0. -1.
        -16    1    3    3    0    0 -0.79434724464E+03  0.10069411133E+04 -0.96968777151E+03  0.16078595476E+04  0.00000000000E+00 0.  1.
         16    1    6    6    0    0  0.24142471902E+03 -0.89413342933E+01  0.20958331869E+02  0.24249761666E+03  0.00000000000E+00 0. -1.
    9900018    1    1    2    0    0  0.12197895335E+03 -0.16176319674E+03  0.11065260161E+04  0.11286102957E+04  0.91187600000E+02 0.  0.
<mgrwt>
<rscale>  0 0.57621197E+04</rscale>
<asrwt>0</asrwt>
<pdfrwt beam="1">  1        1 0.56521468E+00 0.57621197E+04</pdfrwt>
<pdfrwt beam="2">  1       -1 0.34758771E+00 0.57621197E+04</pdfrwt>
<totfact> 0.19838225E-03</totfact>
</mgrwt>
</event>
