<event>
11    1  0.2286683E-010  0.3453001E+04  0.7818608E-02  0.8449356E-01
          1   -1    0    0  501    0  0.00000000000E+00  0.00000000000E+00  0.32826930783E+04  0.32826930783E+04  0.00000000000E+00 0. -1.
         -1   -1    0    0    0  501 -0.00000000000E+00 -0.00000000000E+00 -0.14354985500E+04  0.14354985500E+04  0.00000000000E+00 0.  1.
    9900016    2    1    2    0    0 -0.16399336675E+03 -0.66295260041E+03  0.26639447376E+02  0.21329093982E+04  0.20204437299E+04 0.  0.
         24    2    3    3    0    0  0.58452472427E+03 -0.85969094988E+03  0.45998482358E+03  0.11396363215E+04  0.80294612006E+02 0.  0.
        -15    1    1    2    0    0 -0.17265604281E+03  0.18909137317E+03  0.29461703281E+03  0.39033940686E+03  0.00000000000E+00 0.  1.
        -15    1    4    4    0    0  0.24284355417E+03 -0.42742424441E+03  0.20949008426E+03  0.53436932164E+03  0.00000000000E+00 0.  1.
         15    1    3    3    0    0 -0.10841389145E+03  0.22004603116E+03 -0.94038593402E+02  0.26271102896E+03  0.00000000000E+00 0. -1.
         15    1    1    2    0    0 -0.69190611314E+02 -0.50936205041E+03  0.50216997853E+03  0.71861792799E+03  0.00000000000E+00 0. -1.
        -16    1    1    2    0    0  0.40584002087E+03  0.98322327764E+03  0.10237680696E+04  0.14763248953E+04  0.00000000000E+00 0.  1.
         16    1    4    4    0    0  0.34168117010E+03 -0.43226670547E+03  0.25049473932E+03  0.60526699983E+03  0.00000000000E+00 0. -1.
    9900018    1    3    3    0    0 -0.64010419956E+03 -0.23307681688E+02 -0.33930678280E+03  0.73056204772E+03  0.91187600000E+02 0.  0.
<mgrwt>
<rscale>  0 0.23738571E+04</rscale>
<asrwt>0</asrwt>
<pdfrwt beam="1">  1        1 0.50502970E+00 0.34530010E+04</pdfrwt>
<pdfrwt beam="2">  1       -1 0.22084593E+00 0.34530010E+04</pdfrwt>
<totfact> 0.31844958E-02</totfact>
</mgrwt>
</event>
<event>
11    1  0.2286683E-010  0.2834681E+04  0.7818608E-02  0.8729150E-01
          1   -1    0    0  501    0  0.00000000000E+00  0.00000000000E+00  0.23084426596E+04  0.23084426596E+04  0.00000000000E+00 0. -1.
         -1   -1    0    0    0  501 -0.00000000000E+00 -0.00000000000E+00 -0.12204246245E+04  0.12204246245E+04  0.00000000000E+00 0.  1.
    9900016    2    1    2    0    0 -0.41069935150E+03 -0.23222071029E+03  0.11973014213E+04  0.24031388558E+04  0.20295184777E+04 0.  0.
        -24    2    3    3    0    0  0.52511003605E+03  0.51240061749E+03  0.13641903866E+03  0.75080120607E+03  0.82446068121E+02 0.  0.
        -15    1    3    3    0    0 -0.38184229644E+03 -0.68829310914E+02  0.31092761257E+03  0.49720920511E+03  0.00000000000E+00 0.  1.
        -15    1    1    2    0    0 -0.19826903348E+03  0.10310268547E+03 -0.71493877467E+02  0.23463194136E+03  0.00000000000E+00 0.  1.
         15    1    1    2    0    0  0.64675560606E+01 -0.19541290705E+03 -0.65476086408E+02  0.20619202558E+03  0.00000000000E+00 0. -1.
         15    1    4    4    0    0  0.15765444655E+03  0.20811914998E+03  0.54913624377E+02  0.26680331941E+03  0.00000000000E+00 0. -1.
        -16    1    4    4    0    0  0.36745558951E+03  0.30428146751E+03  0.81505414281E+02  0.48399788666E+03  0.00000000000E+00 0.  1.
         16    1    1    2    0    0  0.60250082892E+03  0.32453093186E+03  0.27686577687E+02  0.68490446135E+03  0.00000000000E+00 0. -1.
    9900018    1    3    3    0    0 -0.55396709112E+03 -0.67579201687E+03  0.74995477004E+03  0.11551284446E+04  0.91187600000E+02 0.  0.
<mgrwt>
<rscale>  0 0.17576519E+04</rscale>
<asrwt>0</asrwt>
<pdfrwt beam="1">  1        1 0.35514503E+00 0.28346809E+04</pdfrwt>
<pdfrwt beam="2">  1       -1 0.18775763E+00 0.28346809E+04</pdfrwt>
<totfact> 0.28571998E-01</totfact>
</mgrwt>
</event>
<event>
11    1  0.2497310E-010  0.5551265E+04  0.7818608E-02  0.7748674E-01
         -1   -1    0    0    0  501 -0.00000000000E+00  0.00000000000E+00  0.36205337513E+04  0.36205337513E+04  0.00000000000E+00 0.  1.
          1   -1    0    0  501    0  0.00000000000E+00 -0.00000000000E+00 -0.21279001784E+04  0.21279001784E+04  0.00000000000E+00 0. -1.
    9900016    2    1    2    0    0  0.11578939542E+04 -0.10498816349E+03 -0.21924235102E+03  0.23599486982E+04  0.20419475326E+04 0.  0.
        -24    2    3    3    0    0  0.16195145791E+03  0.32412210587E+03 -0.85874927184E+03  0.93536535285E+03  0.78578732460E+02 0.  0.
        -15    1    3    3    0    0  0.42254291493E+03 -0.13633149605E+03  0.63437848373E+03  0.77431573172E+03  0.00000000000E+00 0.  1.
        -15    1    1    2    0    0 -0.13495409010E+04  0.99354310641E+03  0.15491877612E+04  0.22821856339E+04  0.00000000000E+00 0.  1.
         15    1    1    2    0    0  0.20628560841E+03 -0.12101702834E+02  0.94063014806E+02  0.22704196573E+03  0.00000000000E+00 0. -1.
         15    1    4    4    0    0  0.21106490526E+02  0.54659918986E+02 -0.22422857388E+03  0.23175772701E+03  0.00000000000E+00 0. -1.
        -16    1    4    4    0    0  0.14084496739E+03  0.26946218688E+03 -0.63452069796E+03  0.70360762584E+03  0.00000000000E+00 0.  1.
         16    1    1    2    0    0 -0.14638661610E+02 -0.87645324008E+03  0.68625147936E+02  0.87925763198E+03  0.00000000000E+00 0. -1.
    9900018    1    3    3    0    0  0.57339958139E+03 -0.29277877331E+03  0.51284370858E+01  0.65026761360E+03  0.91187600000E+02 0.  0.
<mgrwt>
<rscale>  0 0.55512645E+04</rscale>
<asrwt>0</asrwt>
<pdfrwt beam="1">  1        1 0.32736926E+00 0.55512645E+04</pdfrwt>
<pdfrwt beam="2">  1       -1 0.55700519E+00 0.55512645E+04</pdfrwt>
<totfact> 0.11812620E-03</totfact>
</mgrwt>
</event>
<event>
11    1  0.2286683E-010  0.4115443E+04  0.7818608E-02  0.8188249E-01
          2   -1    0    0  501    0  0.00000000000E+00  0.00000000000E+00  0.23166485667E+04  0.23166485667E+04  0.00000000000E+00 0. -1.
         -2   -1    0    0    0  501 -0.00000000000E+00 -0.00000000000E+00 -0.35157014553E+04  0.35157014553E+04  0.00000000000E+00 0.  1.
    9900016    2    1    2    0    0 -0.10715381240E+03 -0.84434657974E+03 -0.85652495473E+03  0.23484860422E+04  0.20142861282E+04 0.  0.
        -24    2    3    3    0    0  0.63917454516E+03  0.34151366592E+03 -0.52492392365E+03  0.89819334169E+03  0.77656102520E+02 0.  0.
        -15    1    1    2    0    0  0.63756413300E+03 -0.11247537415E+04  0.25564181307E+03  0.13179194737E+04  0.00000000000E+00 0.  1.
        -15    1    3    3    0    0 -0.31947126208E+03 -0.61243536581E+03 -0.14356979456E+03  0.70551488326E+03  0.00000000000E+00 0.  1.
         15    1    1    2    0    0 -0.82587639946E+02  0.10439908899E+03 -0.14215436496E+03  0.19475048532E+03  0.00000000000E+00 0. -1.
         15    1    4    4    0    0  0.54765717925E+03  0.25985348057E+03 -0.43808729919E+03  0.74791222684E+03  0.00000000000E+00 0. -1.
        -16    1    4    4    0    0  0.91517365904E+02  0.81660185347E+02 -0.86836624458E+02  0.15028111485E+03  0.00000000000E+00 0.  1.
         16    1    1    2    0    0 -0.44782268065E+03  0.18647012322E+04 -0.45601538189E+03  0.19711940207E+04  0.00000000000E+00 0. -1.
    9900018    1    3    3    0    0 -0.42685709547E+03 -0.57342487985E+03 -0.18803123653E+03  0.74477781727E+03  0.91187600000E+02 0.  0.
<mgrwt>
<rscale>  0 0.32021531E+04</rscale>
<asrwt>0</asrwt>
<pdfrwt beam="1">  1        2 0.35640748E+00 0.41154433E+04</pdfrwt>
<pdfrwt beam="2">  1       -2 0.54087714E+00 0.41154433E+04</pdfrwt>
<totfact> 0.31539605E-03</totfact>
</mgrwt>
</event>
<event>
11    1  0.2286683E-010  0.3671760E+04  0.7818608E-02  0.8337690E-01
          2   -1    0    0  501    0  0.00000000000E+00  0.00000000000E+00  0.21308589946E+04  0.21308589946E+04  0.00000000000E+00 0. -1.
         -2   -1    0    0    0  501 -0.00000000000E+00 -0.00000000000E+00 -0.26712754324E+04  0.26712754324E+04  0.00000000000E+00 0.  1.
    9900016    2    1    2    0    0 -0.58393320928E+01  0.40359691779E+03 -0.11686459845E+04  0.23711179833E+04  0.20232504749E+04 0.  0.
        -24    2    3    3    0    0 -0.33326938776E+03  0.60639425929E+03 -0.15949546078E+04  0.17404780203E+04  0.81246880725E+02 0.  0.
        -15    1    3    3    0    0  0.91337117834E+02  0.32423480504E+02  0.18610112051E+03  0.20982701980E+03  0.00000000000E+00 0.  1.
        -15    1    1    2    0    0 -0.21251455282E+03  0.54048694733E+03 -0.16509566278E+03  0.60377574749E+03  0.00000000000E+00 0.  1.
         15    1    4    4    0    0 -0.16804948336E+03  0.25122303010E+03 -0.77175546457E+03  0.82883058390E+03  0.00000000000E+00 0. -1.
         15    1    1    2    0    0  0.14945948186E+03  0.32332219894E+03  0.29916666569E+03  0.46516241777E+03  0.00000000000E+00 0. -1.
        -16    1    4    4    0    0 -0.16521990441E+03  0.35517122919E+03 -0.82319914325E+03  0.91164743640E+03  0.00000000000E+00 0.  1.
         16    1    1    2    0    0  0.68894403050E+02 -0.12674060641E+04  0.49415854382E+03  0.13620782784E+04  0.00000000000E+00 0. -1.
    9900018    1    3    3    0    0  0.23609293784E+03 -0.23522082201E+03  0.24020750282E+03  0.42081294325E+03  0.91187600000E+02 0.  0.
<mgrwt>
<rscale>  0 0.26917397E+04</rscale>
<asrwt>0</asrwt>
<pdfrwt beam="1">  1        2 0.32782446E+00 0.36717599E+04</pdfrwt>
<pdfrwt beam="2">  1       -2 0.41096545E+00 0.36717599E+04</pdfrwt>
<totfact> 0.27742454E-02</totfact>
</mgrwt>
</event>
<event>
11    1  0.2286683E-010  0.3814992E+04  0.7818608E-02  0.8535841E-01
         -2   -1    0    0    0  501 -0.00000000000E+00  0.00000000000E+00  0.20259527118E+04  0.20259527118E+04  0.00000000000E+00 0.  1.
          2   -1    0    0  501    0  0.00000000000E+00 -0.00000000000E+00 -0.23512389341E+04  0.23512389341E+04  0.00000000000E+00 0. -1.
    9900016    2    1    2    0    0  0.91911840583E+03  0.80472233045E+02 -0.10682056721E+04  0.24672891825E+04  0.20236595880E+04 0.  0.
         24    2    3    3    0    0  0.93921963142E+03 -0.15510661730E+03 -0.14841907525E+04  0.17651162016E+04  0.81372208504E+02 0.  0.
        -15    1    1    2    0    0 -0.26213994861E+03 -0.11955051956E+03 -0.22235194169E+03  0.36393689749E+03  0.00000000000E+00 0.  1.
        -15    1    4    4    0    0  0.59313030587E+03 -0.10059172365E+03 -0.10088987898E+04  0.11746484677E+04  0.00000000000E+00 0.  1.
         15    1    1    2    0    0  0.46455490565E+02 -0.65370379805E+02 -0.18045828414E+03  0.19747554653E+03  0.00000000000E+00 0. -1.
         15    1    3    3    0    0  0.13069865404E+03  0.17193941666E+03  0.46134408429E+03  0.50939539189E+03  0.00000000000E+00 0. -1.
        -16    1    1    2    0    0 -0.70343394779E+03  0.10444866632E+03  0.11457296756E+04  0.13484900194E+04  0.00000000000E+00 0.  1.
         16    1    4    4    0    0  0.34608932555E+03 -0.54514893647E+02 -0.47529196276E+03  0.59046773388E+03  0.00000000000E+00 0. -1.
    9900018    1    3    3    0    0 -0.15079987962E+03  0.63639433683E+02 -0.45359003851E+02  0.19277758905E+03  0.91187600000E+02 0.  0.
<mgrwt>
<rscale>  0 0.21586439E+04</rscale>
<asrwt>0</asrwt>
<pdfrwt beam="1">  1        2 0.36172907E+00 0.38149916E+04</pdfrwt>
<pdfrwt beam="2">  1       -2 0.31168503E+00 0.38149916E+04</pdfrwt>
<totfact> 0.89680259E-02</totfact>
</mgrwt>
</event>
<event>
11    1  0.2286683E-010  0.4564873E+04  0.7818608E-02  0.8248138E-01
          2   -1    0    0  501    0  0.00000000000E+00  0.00000000000E+00  0.21615660419E+04  0.21615660419E+04  0.00000000000E+00 0. -1.
         -2   -1    0    0    0  501 -0.00000000000E+00 -0.00000000000E+00 -0.39021961013E+04  0.39021961013E+04  0.00000000000E+00 0.  1.
    9900016    2    1    2    0    0  0.28157562931E+03 -0.44857836513E+03  0.62085624578E+03  0.21757233685E+04  0.20168793503E+04 0.  0.
         24    2    3    3    0    0  0.68552862160E+03  0.20045317269E+03  0.45023636133E+03  0.84815419069E+03  0.80757567161E+02 0.  0.
        -15    1    4    4    0    0  0.34871031726E+03  0.12969909214E+03  0.19803982067E+03  0.42147421088E+03  0.00000000000E+00 0.  1.
        -15    1    1    2    0    0 -0.72673188452E+02 -0.11190218993E+03  0.18380379244E+03  0.22712843623E+03  0.00000000000E+00 0.  1.
         15    1    3    3    0    0 -0.44329405143E+03 -0.64678912086E+03 -0.30525023603E+03  0.84144131673E+03  0.00000000000E+00 0. -1.
         15    1    1    2    0    0  0.29530419072E+03  0.60772606626E+03  0.32254015557E+03  0.74871068419E+03  0.00000000000E+00 0. -1.
        -16    1    1    2    0    0 -0.50420663158E+03 -0.47245511207E+02 -0.28678302531E+04  0.29121996543E+04  0.00000000000E+00 0.  1.
         16    1    4    4    0    0  0.33681830434E+03  0.70754080542E+02  0.25219654066E+03  0.42667997981E+03  0.00000000000E+00 0. -1.
    9900018    1    3    3    0    0  0.39341059140E+02 -0.22424169503E+01  0.47587012048E+03  0.48612786109E+03  0.91187600000E+02 0.  0.
<mgrwt>
<rscale>  0 0.29846140E+04</rscale>
<asrwt>0</asrwt>
<pdfrwt beam="1">  1        2 0.33254862E+00 0.45648733E+04</pdfrwt>
<pdfrwt beam="2">  1       -2 0.60033786E+00 0.45648733E+04</pdfrwt>
<totfact> 0.20009637E-03</totfact>
</mgrwt>
</event>
<event>
11    1  0.2286683E-010  0.4621060E+04  0.7818608E-02  0.7889779E-01
         -2   -1    0    0    0  501 -0.00000000000E+00  0.00000000000E+00  0.22969069725E+04  0.22969069725E+04  0.00000000000E+00 0.  1.
          2   -1    0    0  501    0  0.00000000000E+00 -0.00000000000E+00 -0.23242341947E+04  0.23242341947E+04  0.00000000000E+00 0. -1.
    9900016    2    1    2    0    0 -0.48784046974E+03  0.11687892654E+04 -0.73802275133E+02  0.23818378113E+04  0.20158491791E+04 0.  0.
        -24    2    3    3    0    0 -0.88543030540E+03  0.59011546934E+03 -0.65681449760E+03  0.12532529363E+04  0.83752881866E+02 0.  0.
        -15    1    1    2    0    0  0.41562142897E+03 -0.12850946823E+04  0.35399861746E+03  0.13962537505E+04  0.00000000000E+00 0.  1.
        -15    1    3    3    0    0  0.11536299978E+03  0.55195493252E+03  0.60862588536E+03  0.82969171237E+03  0.00000000000E+00 0.  1.
         15    1    4    4    0    0 -0.37608645310E+03  0.22217469145E+03 -0.23003075418E+03  0.49367677846E+03  0.00000000000E+00 0. -1.
         15    1    1    2    0    0  0.38521702106E+03 -0.71962233360E+02 -0.47624994208E+02  0.39476430490E+03  0.00000000000E+00 0. -1.
        -16    1    4    4    0    0 -0.50934385230E+03  0.36794077789E+03 -0.42678374342E+03  0.75957615784E+03  0.00000000000E+00 0.  1.
         16    1    1    2    0    0 -0.31299798030E+03  0.18826765026E+03 -0.25989857023E+03  0.44828530046E+03  0.00000000000E+00 0. -1.
    9900018    1    3    3    0    0  0.28222683588E+03  0.26718863520E+02 -0.25613662899E+02  0.29889316265E+03  0.91187600000E+02 0.  0.
<mgrwt>
<rscale>  0 0.46210604E+04</rscale>
<asrwt>0</asrwt>
<pdfrwt beam="1">  1        2 0.35757449E+00 0.46210604E+04</pdfrwt>
<pdfrwt beam="2">  1       -2 0.35337031E+00 0.46210604E+04</pdfrwt>
<totfact> 0.48822001E-02</totfact>
</mgrwt>
</event>
<event>
11    1  0.2286683E-010  0.3345110E+04  0.7818608E-02  0.8623885E-01
          2   -1    0    0  501    0  0.00000000000E+00  0.00000000000E+00  0.14543012309E+04  0.14543012309E+04  0.00000000000E+00 0. -1.
         -2   -1    0    0    0  501 -0.00000000000E+00 -0.00000000000E+00 -0.24092013303E+04  0.24092013303E+04  0.00000000000E+00 0.  1.
    9900016    2    1    2    0    0 -0.19900802293E+03  0.94454846140E+03 -0.59211433660E+03  0.23281245875E+04  0.20341555295E+04 0.  0.
         24    2    3    3    0    0  0.74493373621E+03 -0.26005620581E+02 -0.30082219666E+03  0.80776262111E+03  0.79899276714E+02 0.  0.
        -15    1    4    4    0    0  0.50572926042E+03 -0.36046799633E+02 -0.16888533413E+03  0.53440032999E+03  0.00000000000E+00 0.  1.
        -15    1    1    2    0    0 -0.74189847292E+02 -0.51812719779E+02 -0.20346225239E+03  0.22267819723E+03  0.00000000000E+00 0.  1.
         15    1    3    3    0    0 -0.57994647876E+03  0.95011222345E+03 -0.17372980474E+03  0.11266025033E+04  0.00000000000E+00 0. -1.
         15    1    1    2    0    0 -0.14140863653E+03  0.11805332173E+03  0.68768380803E+02  0.19662675163E+03  0.00000000000E+00 0. -1.
        -16    1    1    2    0    0  0.41460650675E+03 -0.10107890634E+04 -0.22809189120E+03  0.11160730249E+04  0.00000000000E+00 0.  1.
         16    1    4    4    0    0  0.23920447579E+03  0.10041179052E+02 -0.13193686252E+03  0.27336229112E+03  0.00000000000E+00 0. -1.
    9900018    1    3    3    0    0 -0.36399528037E+03  0.20441858540E+02 -0.11756233520E+03  0.39375946308E+03  0.91187600000E+02 0.  0.
<mgrwt>
<rscale>  0 0.19634862E+04</rscale>
<asrwt>0</asrwt>
<pdfrwt beam="1">  1        2 0.22373865E+00 0.33451097E+04</pdfrwt>
<pdfrwt beam="2">  1       -2 0.37064635E+00 0.33451097E+04</pdfrwt>
<totfact> 0.12712566E-01</totfact>
</mgrwt>
</event>
<event>
11    1  0.2286683E-010  0.4954779E+04  0.7818608E-02  0.7835521E-01
         -1   -1    0    0    0  501 -0.00000000000E+00  0.00000000000E+00  0.20547045298E+04  0.20547045298E+04  0.00000000000E+00 0.  1.
          1   -1    0    0  501    0  0.00000000000E+00 -0.00000000000E+00 -0.29870271753E+04  0.29870271753E+04  0.00000000000E+00 0. -1.
    9900016    2    1    2    0    0 -0.59318122581E+03 -0.71624374928E+03 -0.10020230017E+04  0.24396746526E+04  0.20206665335E+04 0.  0.
         24    2    3    3    0    0 -0.11765617784E+03 -0.41507396060E+03  0.33105744821E+03  0.55013814696E+03  0.83208039102E+02 0.  0.
        -15    1    4    4    0    0 -0.51279612199E+02 -0.15359331204E+03  0.75981768334E+02  0.17886792125E+03  0.00000000000E+00 0.  1.
        -15    1    1    2    0    0 -0.19011277509E+03 -0.11892749113E+02  0.17203889002E+03  0.25667427688E+03  0.00000000000E+00 0.  1.
         15    1    3    3    0    0  0.36613565085E+03  0.88510695900E+02 -0.57880420268E+03  0.69058219145E+03  0.00000000000E+00 0. -1.
         15    1    1    2    0    0  0.45398876755E+03 -0.19356539356E+03 -0.93701774936E+03  0.10590446758E+04  0.00000000000E+00 0. -1.
        -16    1    1    2    0    0  0.32930523335E+03  0.92170189196E+03  0.83467921555E+03  0.12863380999E+04  0.00000000000E+00 0.  1.
         16    1    4    4    0    0 -0.66376565644E+02 -0.26148064855E+03  0.25507567988E+03  0.37127022571E+03  0.00000000000E+00 0. -1.
    9900018    1    3    3    0    0 -0.84166069882E+03 -0.38968048458E+03 -0.75427624720E+03  0.11989543142E+04  0.91187600000E+02 0.  0.
<mgrwt>
<rscale>  0 0.49547788E+04</rscale>
<asrwt>0</asrwt>
<pdfrwt beam="1">  1        1 0.45954264E+00 0.49547788E+04</pdfrwt>
<pdfrwt beam="2">  1       -1 0.31610839E+00 0.49547788E+04</pdfrwt>
<totfact> 0.11484546E-02</totfact>
</mgrwt>
</event>
<event>
11    1  0.2286683E-010  0.5923572E+04  0.7818608E-02  0.7865077E-01
          1   -1    0    0  501    0  0.00000000000E+00  0.00000000000E+00  0.37683428708E+04  0.37683428708E+04  0.00000000000E+00 0. -1.
         -1   -1    0    0    0  501 -0.00000000000E+00 -0.00000000000E+00 -0.49097072729E+04  0.49097072729E+04  0.00000000000E+00 0.  1.
    9900016    2    1    2    0    0  0.22012653181E+04 -0.12122948682E+04 -0.15249222966E+04  0.35675647088E+04  0.20216087883E+04 0.  0.
         24    2    3    3    0    0  0.80942825409E+02 -0.99139065522E+03 -0.66604684943E+03  0.11996705103E+04  0.78636857685E+02 0.  0.
        -15    1    1    2    0    0 -0.35879734553E+03  0.17978930565E+03  0.64409957739E+03  0.75889656421E+03  0.00000000000E+00 0.  1.
        -15    1    4    4    0    0  0.44328256270E+02 -0.83093953155E+03 -0.53468686348E+03  0.98909834767E+03  0.00000000000E+00 0.  1.
         15    1    3    3    0    0  0.12313235059E+04 -0.81586500767E+02 -0.20288437667E+03  0.12505902620E+04  0.00000000000E+00 0. -1.
         15    1    1    2    0    0 -0.10590011035E+04 -0.14178881768E+04 -0.16185478576E+03  0.17771007824E+04  0.00000000000E+00 0. -1.
        -16    1    1    2    0    0 -0.78346686906E+03  0.24503937393E+04 -0.98686897182E+02  0.25744880882E+04  0.00000000000E+00 0.  1.
         16    1    4    4    0    0  0.36614569139E+02 -0.16045112367E+03 -0.13135998595E+03  0.21057216261E+03  0.00000000000E+00 0. -1.
    9900018    1    3    3    0    0  0.88899898685E+03 -0.13931771217E+03 -0.65599107051E+03  0.11173039365E+04  0.91187600000E+02 0.  0.
<mgrwt>
<rscale>  0 0.47695294E+04</rscale>
<asrwt>0</asrwt>
<pdfrwt beam="1">  1        1 0.57974506E+00 0.59235720E+04</pdfrwt>
<pdfrwt beam="2">  1       -1 0.75533958E+00 0.59235720E+04</pdfrwt>
<totfact> 0.11460762E-05</totfact>
</mgrwt>
</event>
<event>
11    1  0.2286683E-010  0.2951583E+04  0.7818608E-02  0.8375583E-01
          1   -1    0    0  501    0  0.00000000000E+00  0.00000000000E+00  0.16198731661E+04  0.16198731661E+04  0.00000000000E+00 0. -1.
         -1   -1    0    0    0  501 -0.00000000000E+00 -0.00000000000E+00 -0.39659793723E+04  0.39659793723E+04  0.00000000000E+00 0.  1.
    9900016    2    1    2    0    0  0.40024786731E+02 -0.41203241757E+02 -0.19004182642E+04  0.27728233732E+04  0.20183310406E+04 0.  0.
         24    2    3    3    0    0  0.47565449304E+02  0.60508521583E+03 -0.17683298958E+04  0.18712645982E+04  0.79056850588E+02 0.  0.
        -15    1    4    4    0    0  0.18267791088E+02  0.30477199765E+03 -0.76969959479E+03  0.82804417090E+03  0.00000000000E+00 0.  1.
        -15    1    1    2    0    0 -0.41025104200E+03 -0.70939105790E+02  0.64793662062E+02  0.42135079546E+03  0.00000000000E+00 0.  1.
         15    1    3    3    0    0 -0.44453769749E+02 -0.74832537972E+03 -0.12150240932E+03  0.75942731518E+03  0.00000000000E+00 0. -1.
         15    1    1    2    0    0  0.12660353588E+04  0.29971124427E+03  0.78353751289E+02  0.13033846977E+04  0.00000000000E+00 0. -1.
        -16    1    1    2    0    0 -0.89580910357E+03 -0.18756889672E+03 -0.58883535524E+03  0.10882936721E+04  0.00000000000E+00 0.  1.
         16    1    4    4    0    0  0.29297658216E+02  0.30031321818E+03 -0.99863030099E+03  0.10432204273E+04  0.00000000000E+00 0. -1.
    9900018    1    3    3    0    0  0.36913107175E+02  0.10203692214E+03 -0.10585959144E+02  0.14213145987E+03  0.91187600000E+02 0.  0.
<mgrwt>
<rscale>  0 0.25783781E+04</rscale>
<asrwt>0</asrwt>
<pdfrwt beam="1">  1        1 0.24921126E+00 0.29515828E+04</pdfrwt>
<pdfrwt beam="2">  1       -1 0.61015067E+00 0.29515828E+04</pdfrwt>
<totfact> 0.17466180E-03</totfact>
</mgrwt>
</event>
<event>
11    1  0.2286683E-010  0.4033132E+04  0.7818608E-02  0.7997896E-01
          1   -1    0    0  501    0  0.00000000000E+00  0.00000000000E+00  0.18966048901E+04  0.18966048901E+04  0.00000000000E+00 0. -1.
         -1   -1    0    0    0  501 -0.00000000000E+00 -0.00000000000E+00 -0.21441145363E+04  0.21441145363E+04  0.00000000000E+00 0.  1.
    9900016    2    1    2    0    0 -0.78133035763E+03 -0.29832171119E+03 -0.52807054825E+03  0.22416056428E+04  0.20115825568E+04 0.  0.
         24    2    3    3    0    0 -0.33644618181E+02  0.68509319029E+03 -0.21018277915E+03  0.72184985137E+03  0.80036039178E+02 0.  0.
        -15    1    1    2    0    0 -0.29028876335E+03  0.10207873567E+03 -0.26897712314E+03  0.40870077951E+03  0.00000000000E+00 0.  1.
        -15    1    4    4    0    0  0.14034034928E+02  0.44846294615E+03 -0.14976830501E+03  0.47301851273E+03  0.00000000000E+00 0.  1.
         15    1    1    2    0    0  0.83461992201E+03  0.36599777680E+03  0.19599527400E+03  0.93217966845E+03  0.00000000000E+00 0. -1.
         15    1    3    3    0    0 -0.41033280279E+03 -0.10493256929E+04 -0.19468816436E+03  0.11433988368E+04  0.00000000000E+00 0. -1.
        -16    1    1    2    0    0  0.23699919896E+03 -0.16975480128E+03  0.35354275119E+03  0.45823333552E+03  0.00000000000E+00 0.  1.
         16    1    4    4    0    0 -0.47678653108E+02  0.23663024414E+03 -0.60414474143E+02  0.24883133864E+03  0.00000000000E+00 0. -1.
    9900018    1    3    3    0    0 -0.33735293665E+03  0.65910791377E+02 -0.12319960473E+03  0.37635695462E+03  0.91187600000E+02 0.  0.
<mgrwt>
<rscale>  0 0.40331318E+04</rscale>
<asrwt>0</asrwt>
<pdfrwt beam="1">  1        1 0.29178537E+00 0.40331318E+04</pdfrwt>
<pdfrwt beam="2">  1       -1 0.32986377E+00 0.40331318E+04</pdfrwt>
<totfact> 0.57660618E-02</totfact>
</mgrwt>
</event>
<event>
11    1  0.2286683E-010  0.3119375E+04  0.7818608E-02  0.8386612E-01
          1   -1    0    0  501    0  0.00000000000E+00  0.00000000000E+00  0.16100792000E+04  0.16100792000E+04  0.00000000000E+00 0. -1.
         -1   -1    0    0    0  501 -0.00000000000E+00 -0.00000000000E+00 -0.31512376272E+04  0.31512376272E+04  0.00000000000E+00 0.  1.
    9900016    2    1    2    0    0 -0.84028833322E+03 -0.19863302998E+03 -0.55678178740E+03  0.22180564179E+04  0.19657641646E+04 0.  0.
        -24    2    3    3    0    0 -0.86181208819E+03  0.26044870268E+03 -0.90868048830E+03  0.12817173439E+04  0.80904374866E+02 0.  0.
        -15    1    1    2    0    0  0.93613681012E+02 -0.50398951297E+03  0.13576592778E+03  0.53028420456E+03  0.00000000000E+00 0.  1.
        -15    1    3    3    0    0 -0.11822909724E+03 -0.48903080829E+03 -0.44622344636E+02  0.50509445110E+03  0.00000000000E+00 0.  1.
         15    1    4    4    0    0 -0.20627049864E+03  0.66576566954E+02 -0.26939034790E+03  0.34576164828E+03  0.00000000000E+00 0. -1.
         15    1    1    2    0    0  0.65131615837E+03 -0.24697752387E+03 -0.63409859958E+03  0.94196160720E+03  0.00000000000E+00 0. -1.
        -16    1    4    4    0    0 -0.65554158956E+03  0.19387213573E+03 -0.63929014040E+03  0.93595569567E+03  0.00000000000E+00 0.  1.
         16    1    1    2    0    0  0.95358493840E+02  0.94960006682E+03 -0.48604396796E+03  0.10710145975E+04  0.00000000000E+00 0. -1.
    9900018    1    3    3    0    0  0.13975285221E+03  0.29949075632E+02  0.39652104553E+03  0.43124462289E+03  0.91187600000E+02 0.  0.
<mgrwt>
<rscale>  0 0.25464783E+04</rscale>
<asrwt>0</asrwt>
<pdfrwt beam="1">  1        1 0.24770450E+00 0.31193754E+04</pdfrwt>
<pdfrwt beam="2">  1       -1 0.48480578E+00 0.31193754E+04</pdfrwt>
<totfact> 0.83344316E-03</totfact>
</mgrwt>
</event>
<event>
11    1  0.2286683E-010  0.3266821E+04  0.7818608E-02  0.8358078E-01
          2   -1    0    0  501    0  0.00000000000E+00  0.00000000000E+00  0.22283273347E+04  0.22283273347E+04  0.00000000000E+00 0. -1.
         -2   -1    0    0    0  501 -0.00000000000E+00 -0.00000000000E+00 -0.27838240671E+04  0.27838240671E+04  0.00000000000E+00 0.  1.
    9900016    2    1    2    0    0  0.26929860089E+03  0.26479373460E+03  0.64629453146E+02  0.20800775811E+04  0.20444824085E+04 0.  0.
        -24    2    3    3    0    0  0.75821285303E+03 -0.54404117517E+00 -0.61151790321E+03  0.97711580183E+03  0.76903301341E+02 0.  0.
        -15    1    3    3    0    0 -0.30774014060E+03  0.63963079619E+02 -0.53949085427E+02  0.31891342636E+03  0.00000000000E+00 0.  1.
        -15    1    1    2    0    0  0.68027974254E+03 -0.42804875787E+03 -0.11585584184E+04  0.14100581109E+04  0.00000000000E+00 0.  1.
         15    1    1    2    0    0  0.20179079547E+03  0.17944298737E+03  0.13503164722E+03  0.30191531363E+03  0.00000000000E+00 0. -1.
         15    1    4    4    0    0  0.40929100777E+03 -0.23833765551E+02 -0.29108379396E+03  0.50280906171E+03  0.00000000000E+00 0. -1.
        -16    1    4    4    0    0  0.34892184526E+03  0.23289724376E+02 -0.32043410924E+03  0.47430674012E+03  0.00000000000E+00 0.  1.
         16    1    1    2    0    0 -0.11513691389E+04 -0.16187964100E+02  0.40340058575E+03  0.12201003962E+04  0.00000000000E+00 0. -1.
    9900018    1    3    3    0    0 -0.18117411154E+03  0.20137469616E+03  0.73009644178E+03  0.78404835287E+03  0.91187600000E+02 0.  0.
<mgrwt>
<rscale>  0 0.26300102E+04</rscale>
<asrwt>0</asrwt>
<pdfrwt beam="1">  1        2 0.34281959E+00 0.32668215E+04</pdfrwt>
<pdfrwt beam="2">  1       -2 0.42828062E+00 0.32668215E+04</pdfrwt>
<totfact> 0.19136205E-02</totfact>
</mgrwt>
</event>
