<event>
11    1  0.1117492E-012  0.2574818E+04  0.7818608E-02  0.8376806E-01
          2   -1    0    0  501    0  0.00000000000E+00  0.00000000000E+00  0.46729497093E+04  0.46729497093E+04  0.00000000000E+00 0. -1.
         -2   -1    0    0    0  501 -0.00000000000E+00 -0.00000000000E+00 -0.35468431861E+03  0.35468431861E+03  0.00000000000E+00 0.  1.
    9900016    2    1    2    0    0  0.57368547140E+03  0.12806389376E+03  0.16496444728E+04  0.18902350328E+04  0.71143953478E+03 0.  0.
         23    2    3    3    0    0  0.23197350075E+03  0.37421039072E+03  0.69668144931E+03  0.83228375553E+03  0.11612961010E+03 0.  0.
        -15    1    1    2    0    0 -0.49971664069E+03 -0.61145124045E+03  0.59887001077E+03  0.99107750970E+03  0.00000000000E+00 0.  1.
        -15    1    4    4    0    0  0.16605315440E+03  0.23969013171E+03  0.55059710249E+03  0.62304267799E+03  0.00000000000E+00 0.  1.
         15    1    1    2    0    0  0.76282193714E+02  0.32407553272E+02  0.47711972024E+03  0.48426485525E+03  0.00000000000E+00 0. -1.
         15    1    4    4    0    0  0.65920346357E+02  0.13452025901E+03  0.14608434682E+03  0.20924107754E+03  0.00000000000E+00 0. -1.
        -16    1    3    3    0    0  0.12573933373E+03 -0.77693499737E+02  0.18041883191E+03  0.23323296263E+03  0.00000000000E+00 0.  1.
         16    1    1    2    0    0 -0.15025102442E+03  0.45097979342E+03  0.15926311868E+04  0.16620566301E+04  0.00000000000E+00 0. -1.
    9900018    1    3    3    0    0  0.21597263692E+03 -0.16845299722E+03  0.77254419163E+03  0.82471831469E+03  0.91187600000E+02 0.  0.
<mgrwt>
<rscale>  0 0.25748180E+04</rscale>
<asrwt>0</asrwt>
<pdfrwt beam="1">  1        2 0.71891530E+00 0.25748180E+04</pdfrwt>
<pdfrwt beam="2">  1       -2 0.54566821E-01 0.25748180E+04</pdfrwt>
<totfact> 0.23107111E-01</totfact>
</mgrwt>
</event>
<event>
11    1  0.1117492E-012  0.1837841E+04  0.7818608E-02  0.8686431E-01
          2   -1    0    0  501    0  0.00000000000E+00  0.00000000000E+00  0.17021084811E+04  0.17021084811E+04  0.00000000000E+00 0. -1.
         -2   -1    0    0    0  501 -0.00000000000E+00 -0.00000000000E+00 -0.49609917882E+03  0.49609917882E+03  0.00000000000E+00 0.  1.
    9900016    2    1    2    0    0  0.24246168039E+03 -0.14247232401E+03  0.61830835648E+03  0.96562096180E+03  0.68631813950E+03 0.  0.
         23    2    3    3    0    0  0.25858817932E+03  0.10923632035E+03  0.27844468087E+03  0.40902027793E+03  0.10471736858E+03 0.  0.
        -15    1    1    2    0    0 -0.87413419493E+02  0.35078273250E+03 -0.84555818359E+02  0.37126717838E+03  0.00000000000E+00 0.  1.
        -15    1    4    4    0    0  0.23399457391E+03  0.91500854522E+02  0.28291186159E+03  0.37837149526E+03  0.00000000000E+00 0. -1.
         15    1    1    2    0    0  0.96016047961E+02 -0.54164144467E+02  0.51637752667E+03  0.52801381238E+03  0.00000000000E+00 0. -1.
         15    1    4    4    0    0  0.24593605406E+02  0.17735465829E+02 -0.44671807225E+01  0.30648782662E+02  0.00000000000E+00 0.  1.
        -16    1    3    3    0    0 -0.12424594235E+03 -0.40483979542E+01  0.20816571606E+03  0.24245908740E+03  0.00000000000E+00 0.  1.
         16    1    1    2    0    0 -0.25106430886E+03 -0.15414626402E+03  0.15587923753E+03  0.33330570740E+03  0.00000000000E+00 0. -1.
    9900018    1    3    3    0    0  0.10811944343E+03 -0.24766024640E+03  0.13169795954E+03  0.31414159648E+03  0.91187600000E+02 0.  0.
<mgrwt>
<rscale>  0 0.18378407E+04</rscale>
<asrwt>0</asrwt>
<pdfrwt beam="1">  1        2 0.26186284E+00 0.18378407E+04</pdfrwt>
<pdfrwt beam="2">  1       -2 0.76322951E-01 0.18378407E+04</pdfrwt>
<totfact> 0.14137622E+01</totfact>
</mgrwt>
</event>
<event>
11    1  0.1117492E-012  0.3667164E+04  0.7818608E-02  0.8075278E-01
          2   -1    0    0  501    0  0.00000000000E+00  0.00000000000E+00  0.24213997834E+04  0.24213997834E+04  0.00000000000E+00 0. -1.
         -2   -1    0    0    0  501 -0.00000000000E+00 -0.00000000000E+00 -0.13884622416E+04  0.13884622416E+04  0.00000000000E+00 0.  1.
    9900016    2    1    2    0    0  0.40168778252E+03  0.46864726458E+02  0.50971266742E+03  0.96111940659E+03  0.70738542053E+03 0.  0.
         23    2    3    3    0    0  0.17880491485E+03  0.83477822051E+02 -0.12440942183E+03  0.24373506931E+03  0.70635227921E+02 0.  0.
        -15    1    4    4    0    0  0.84882684556E+02  0.22738994252E+02 -0.18716302840E+02  0.89846713846E+02  0.00000000000E+00 0.  1.
        -15    1    1    2    0    0 -0.67108843273E+03  0.11149563202E+04  0.48680459919E+03  0.13894121053E+04  0.00000000000E+00 0.  1.
         15    1    4    4    0    0  0.93922230291E+02  0.60738827800E+02 -0.10569311899E+03  0.15388835546E+03  0.00000000000E+00 0. -1.
         15    1    1    2    0    0 -0.20022036952E+03 -0.32352526785E+03  0.27479382990E+03  0.46932765128E+03  0.00000000000E+00 0. -1.
        -16    1    3    3    0    0  0.43856087871E+02  0.82920704031E+02  0.25804643233E+03  0.27456722463E+03  0.00000000000E+00 0.  1.
         16    1    1    2    0    0  0.46962101974E+03 -0.83829577878E+03 -0.23837355474E+03  0.99000286186E+03  0.00000000000E+00 0. -1.
    9900018    1    3    3    0    0  0.17902677980E+03 -0.11953379962E+03  0.37607565692E+03  0.44281711265E+03  0.91187600000E+02 0.  0.
<mgrwt>
<rscale>  0 0.36671636E+04</rscale>
<asrwt>0</asrwt>
<pdfrwt beam="1">  1        2 0.37252305E+00 0.36671636E+04</pdfrwt>
<pdfrwt beam="2">  1       -2 0.21360957E+00 0.36671636E+04</pdfrwt>
<totfact> 0.34003707E-01</totfact>
</mgrwt>
</event>
<event>
11    1  0.1117492E-012  0.1380463E+04  0.7818608E-02  0.8968083E-01
          1   -1    0    0  501    0  0.00000000000E+00  0.00000000000E+00  0.33854042412E+03  0.33854042412E+03  0.00000000000E+00 0. -1.
         -1   -1    0    0    0  501 -0.00000000000E+00 -0.00000000000E+00 -0.14072747671E+04  0.14072747671E+04  0.00000000000E+00 0.  1.
    9900016    2    1    2    0    0  0.34491143582E+03 -0.91163593968E+02 -0.10418002900E+04  0.13053944455E+04  0.70102219275E+03 0.  0.
         23    2    3    3    0    0  0.14114575959E+02 -0.22652585339E+03 -0.37640810894E+03  0.44627883082E+03  0.77256370964E+02 0.  0.
        -15    1    4    4    0    0 -0.10787452488E+02 -0.95475217691E+02 -0.22400663308E+03  0.24374342655E+03  0.00000000000E+00 0.  1.
        -15    1    1    2    0    0 -0.16903533852E+03 -0.53914479009E+02 -0.22825498950E+02  0.17888745098E+03  0.00000000000E+00 0.  1.
         15    1    4    4    0    0  0.24902028446E+02 -0.13105063569E+03 -0.15240147587E+03  0.20253540427E+03  0.00000000000E+00 0. -1.
         15    1    1    2    0    0 -0.12223942405E+03  0.11564686612E+03  0.54428774228E+02  0.17685916968E+03  0.00000000000E+00 0. -1.
        -16    1    1    2    0    0 -0.53636673245E+02  0.29431206856E+02 -0.58537328269E+02  0.84674125059E+02  0.00000000000E+00 0.  1.
         16    1    3    3    0    0  0.35651857479E+03  0.18486566263E+03 -0.62884608336E+03  0.74614221429E+03  0.00000000000E+00 0. -1.
    9900018    1    3    3    0    0 -0.25721714933E+02 -0.49503403215E+02 -0.36546097702E+02  0.11297340041E+03  0.91187600000E+02 0.  0.
<mgrwt>
<rscale>  0 0.13804628E+04</rscale>
<asrwt>0</asrwt>
<pdfrwt beam="1">  1        1 0.52083143E-01 0.13804628E+04</pdfrwt>
<pdfrwt beam="2">  1       -1 0.21650381E+00 0.13804628E+04</pdfrwt>
<totfact> 0.84902210E+00</totfact>
</mgrwt>
</event>
<event>
11    1  0.1117492E-012  0.1476661E+04  0.7818608E-02  0.9250592E-01
         -2   -1    0    0    0  501 -0.00000000000E+00  0.00000000000E+00  0.22089839868E+04  0.22089839868E+04  0.00000000000E+00 0. -1.
          2   -1    0    0  501    0  0.00000000000E+00 -0.00000000000E+00 -0.40489702727E+03  0.40489702727E+03  0.00000000000E+00 0.  1.
    9900016    2    1    2    0    0  0.11850593789E+03 -0.34533422461E+03  0.78964664484E+03  0.11255194645E+04  0.71410983560E+03 0.  0.
         23    2    3    3    0    0  0.24032549523E+03  0.10759748760E+02  0.40576411631E+03  0.47550568193E+03  0.59908426833E+02 0.  0.
        -15    1    1    2    0    0  0.10985540267E+02 -0.12707756614E+03  0.53983958045E+02  0.13850508163E+03  0.00000000000E+00 0. -1.
        -15    1    4    4    0    0  0.22971519645E+03 -0.36253816334E+01  0.38208051833E+03  0.44583375529E+03  0.00000000000E+00 0. -1.
         15    1    1    2    0    0  0.11354818489E+03 -0.14419164418E+03  0.52670415564E+03  0.55776490398E+03  0.00000000000E+00 0.  1.
         15    1    4    4    0    0  0.10610298776E+02  0.14385130393E+02  0.23683597988E+02  0.29671926635E+02  0.00000000000E+00 0.  1.
        -16    1    3    3    0    0 -0.80661589110E+02 -0.30788214688E+03  0.82457694240E+02  0.32878105126E+03  0.00000000000E+00 0.  1.
         16    1    1    2    0    0 -0.24303966305E+03  0.61660343492E+03  0.43375220098E+03  0.79209156392E+03  0.00000000000E+00 0. -1.
    9900018    1    3    3    0    0 -0.41157968229E+02 -0.48211826482E+02  0.30142483428E+03  0.32123273133E+03  0.91187600000E+02 0.  0.
<mgrwt>
<rscale>  0 0.10546148E+04</rscale>
<asrwt>0</asrwt>
<pdfrwt beam="1">  1        2 0.62291852E-01 0.14766609E+04</pdfrwt>
<pdfrwt beam="2">  1       -2 0.33984368E+00 0.14766609E+04</pdfrwt>
<totfact> 0.13678621E+00</totfact>
</mgrwt>
</event>
<event>
11    1  0.1117492E-012  0.1038641E+04  0.7818608E-02  0.9267151E-01
          2   -1    0    0  501    0  0.00000000000E+00  0.00000000000E+00  0.89523629241E+03  0.89523629241E+03  0.00000000000E+00 0. -1.
         -2   -1    0    0    0  501 -0.00000000000E+00 -0.00000000000E+00 -0.30125415083E+03  0.30125415083E+03  0.00000000000E+00 0.  1.
    9900016    2    1    2    0    0 -0.10043665023E+02 -0.62051753616E+02  0.39258853602E+03  0.82036436915E+03  0.71757971280E+03 0.  0.
         23    2    3    3    0    0  0.67431098056E+02 -0.75279520278E+02 -0.16437884599E+03  0.20749147955E+03  0.76278109040E+02 0.  0.
        -15    1    4    4    0    0  0.74805423213E+02 -0.40526397631E+02 -0.14189962210E+03  0.16545012239E+03  0.00000000000E+00 0.  1.
        -15    1    1    2    0    0  0.43504532645E+02  0.57407180950E+02  0.38257004412E+02  0.81558734492E+02  0.00000000000E+00 0.  1.
         15    1    1    2    0    0 -0.45103089421E+02 -0.35983547708E+02  0.21789000727E+03  0.22539999922E+03  0.00000000000E+00 0. -1.
         15    1    4    4    0    0 -0.73743251571E+01 -0.34753122647E+02 -0.22479223895E+02  0.42041357163E+02  0.00000000000E+00 0. -1.
        -16    1    1    2    0    0  0.11642221800E+02  0.40628120374E+02 -0.54753406123E+02  0.69167340383E+02  0.00000000000E+00 0.  1.
         16    1    3    3    0    0 -0.12748812215E+03  0.17270401699E+02  0.42925956849E+03  0.44812416271E+03  0.00000000000E+00 0. -1.
    9900018    1    3    3    0    0  0.50013359067E+02 -0.40426350376E+01  0.12770781353E+03  0.16474872689E+03  0.91187600000E+02 0.  0.
<mgrwt>
<rscale>  0 0.10386407E+04</rscale>
<asrwt>0</asrwt>
<pdfrwt beam="1">  1        2 0.13772866E+00 0.10386407E+04</pdfrwt>
<pdfrwt beam="2">  1       -2 0.46346793E-01 0.10386407E+04</pdfrwt>
<totfact> 0.12986848E+02</totfact>
</mgrwt>
</event>
<event>
11    1  0.1117492E-012  0.1245162E+04  0.7818608E-02  0.9462212E-01
         -1   -1    0    0    0  501 -0.00000000000E+00  0.00000000000E+00  0.16410851449E+04  0.16410851449E+04  0.00000000000E+00 0.  1.
          1   -1    0    0  501    0  0.00000000000E+00 -0.00000000000E+00 -0.46174522958E+03  0.46174522958E+03  0.00000000000E+00 0. -1.
    9900016    2    1    2    0    0  0.19825554947E+03 -0.27581691620E+03  0.55501347655E+03  0.96159060053E+03  0.70798043032E+03 0.  0.
         23    2    3    3    0    0  0.16107859522E+03 -0.43271846033E+03  0.38176463974E+03  0.60861307723E+03  0.10711702884E+03 0.  0.
        -15    1    1    2    0    0 -0.82542621110E+02  0.41826438377E+02  0.56958592156E+02  0.10866009602E+03  0.00000000000E+00 0.  1.
        -15    1    4    4    0    0  0.55850100518E+02 -0.12289940366E+03  0.53740353485E+02  0.14529804796E+03  0.00000000000E+00 0.  1.
         15    1    4    4    0    0  0.10522849471E+03 -0.30981905667E+03  0.32802428626E+03  0.46331502927E+03  0.00000000000E+00 0. -1.
         15    1    1    2    0    0  0.79919468336E+02 -0.10481440615E+03 -0.15961956780E+03  0.20700625010E+03  0.00000000000E+00 0. -1.
        -16    1    1    2    0    0 -0.19563239670E+03  0.33880488397E+03  0.72698741441E+03  0.82557342784E+03  0.00000000000E+00 0.  1.
         16    1    3    3    0    0 -0.54603715270E+02  0.13731835179E+02  0.14802126605E+03  0.15836800251E+03  0.00000000000E+00 0. -1.
    9900018    1    3    3    0    0  0.91780669519E+02  0.14316970895E+03  0.25227570761E+02  0.19460952078E+03  0.91187600000E+02 0.  0.
<mgrwt>
<rscale>  0 0.87128011E+03</rscale>
<asrwt>0</asrwt>
<pdfrwt beam="1">  1        1 0.71037729E-01 0.12451622E+04</pdfrwt>
<pdfrwt beam="2">  1       -1 0.25247463E+00 0.12451622E+04</pdfrwt>
<totfact> 0.32689721E+00</totfact>
</mgrwt>
</event>
