<event>
11    1  0.2370949E-011  0.2382262E+04  0.7818608E-02  0.8880581E-01
          2   -1    0    0  501    0  0.00000000000E+00  0.00000000000E+00  0.88181099991E+03  0.88181099991E+03  0.00000000000E+00 0. -1.
         -2   -1    0    0    0  501 -0.00000000000E+00 -0.00000000000E+00 -0.21699976616E+04  0.21699976616E+04  0.00000000000E+00 0.  1.
    9900016    2    1    2    0    0  0.75582659831E+03 -0.16629078788E+03 -0.12641088170E+04  0.16455356254E+04  0.71476564016E+03 0.  0.
         23    2    3    3    0    0  0.31741989058E+03 -0.15059707098E+03 -0.31434457441E+03  0.48002276240E+03  0.90412810155E+02 0.  0.
        -15    1    1    2    0    0  0.16255175202E+03 -0.23480956584E+03 -0.14285425190E+03  0.31932106348E+03  0.00000000000E+00 0.  1.
        -15    1    4    4    0    0  0.12872525608E+03 -0.90902077710E+02 -0.18760284029E+03  0.24500654067E+03  0.00000000000E+00 0. -1.
         15    1    1    2    0    0 -0.40437094608E+02  0.78516581002E+02 -0.92675597555E+02  0.12801866463E+03  0.00000000000E+00 0. -1.
         15    1    4    4    0    0  0.18869463450E+03 -0.59694993266E+02 -0.12674173412E+03  0.23501622173E+03  0.00000000000E+00 0.  1.
        -16    1    3    3    0    0  0.13363363672E+01 -0.76385927292E+02 -0.57326251367E+03  0.57833079225E+03  0.00000000000E+00 0.  1.
         16    1    1    2    0    0 -0.87794125571E+03  0.32258377272E+03  0.21145200476E+03  0.95893330802E+03  0.00000000000E+00 0. -1.
    9900018    1    3    3    0    0  0.43707037136E+03  0.60692210386E+02 -0.37650172892E+03  0.58718207074E+03  0.91187600000E+02 0.  0.
<mgrwt>
<rscale>  0 0.15058359E+04</rscale>
<asrwt>0</asrwt>
<pdfrwt beam="1">  1        2 0.13566323E+00 0.23822620E+04</pdfrwt>
<pdfrwt beam="2">  1       -2 0.33384579E+00 0.23822620E+04</pdfrwt>
<totfact> 0.52805520E-01</totfact>
</mgrwt>
</event>
<event>
11    1  0.2370949E-011  0.1501806E+04  0.7818608E-02  0.8883253E-01
          4   -1    0    0  501    0  0.00000000000E+00  0.00000000000E+00  0.10516843327E+04  0.10516843327E+04  0.00000000000E+00 0. -1.
         -4   -1    0    0    0  501 -0.00000000000E+00 -0.00000000000E+00 -0.53614521624E+03  0.53614521624E+03  0.00000000000E+00 0.  1.
    9900016    2    1    2    0    0  0.12276881844E+03  0.22015881523E+03  0.62574402073E+03  0.10056625235E+04  0.74582802645E+03 0.  0.
         23    2    3    3    0    0  0.11334592486E+02 -0.27561024903E+02  0.14750364882E+03  0.17846623668E+03  0.95941587109E+02 0.  0.
        -15    1    1    2    0    0 -0.14751363639E+02 -0.23613539272E+02  0.10402156844E+03  0.10768327942E+03  0.00000000000E+00 0. -1.
        -15    1    4    4    0    0  0.14663067413E+02  0.34808993000E+02  0.61560620891E+02  0.72224522041E+02  0.00000000000E+00 0.  1.
         15    1    4    4    0    0 -0.33284749269E+01 -0.62370017903E+02  0.85943027930E+02  0.10624171463E+03  0.00000000000E+00 0.  1.
         15    1    1    2    0    0 -0.23301632191E+03 -0.13506766967E+03 -0.79813642502E+02  0.28090941457E+03  0.00000000000E+00 0. -1.
        -16    1    3    3    0    0  0.84150759359E+02  0.43707262049E+03  0.23072252514E+03  0.50134490073E+03  0.00000000000E+00 0.  1.
         16    1    1    2    0    0  0.12499886711E+03 -0.61477606285E+02 -0.13441283022E+03  0.19357433141E+03  0.00000000000E+00 0. -1.
    9900018    1    3    3    0    0  0.27283466595E+02 -0.18935278035E+03  0.24751784677E+03  0.32585138613E+03  0.91187600000E+02 0.  0.
<mgrwt>
<rscale>  0 0.15018063E+04</rscale>
<asrwt>0</asrwt>
<pdfrwt beam="1">  1        4 0.16179759E+00 0.15018063E+04</pdfrwt>
<pdfrwt beam="2">  1       -4 0.82483880E-01 0.15018063E+04</pdfrwt>
<totfact> 0.60653057E-01</totfact>
</mgrwt>
</event>
<event>
11    1  0.2370949E-011  0.1401584E+04  0.7818608E-02  0.9089584E-01
          2   -1    0    0  501    0  0.00000000000E+00  0.00000000000E+00  0.17402815657E+04  0.17402815657E+04  0.00000000000E+00 0. -1.
         -2   -1    0    0    0  501 -0.00000000000E+00 -0.00000000000E+00 -0.73501382773E+03  0.73501382773E+03  0.00000000000E+00 0.  1.
    9900016    2    1    2    0    0  0.79665745426E+02 -0.33042315008E+03  0.15105202442E+03  0.84770744801E+03  0.76175134672E+03 0.  0.
         23    2    3    3    0    0 -0.63030608620E+02 -0.36477726229E+03 -0.20417710739E+03  0.43248632480E+03  0.91218535688E+02 0.  0.
        -15    1    1    2    0    0  0.53322816564E+03  0.15124657508E+03  0.16568189791E+03  0.57849658115E+03  0.00000000000E+00 0.  1.
        -15    1    4    4    0    0 -0.75183630214E+02 -0.18909337420E+03 -0.12949859122E+03  0.24120275195E+03  0.00000000000E+00 0.  1.
         15    1    1    2    0    0 -0.53851233891E+03  0.13328995813E+03  0.26168046580E+03  0.61338276653E+03  0.00000000000E+00 0. -1.
         15    1    4    4    0    0  0.12153021594E+02 -0.17568388808E+03 -0.74678516173E+02  0.19128357285E+03  0.00000000000E+00 0. -1.
        -16    1    3    3    0    0  0.98373237900E+02  0.58477672163E+01  0.23819011550E+03  0.25777125798E+03  0.00000000000E+00 0.  1.
         16    1    1    2    0    0 -0.74381572156E+02  0.45886616871E+02  0.42685334986E+03  0.43570859777E+03  0.00000000000E+00 0. -1.
    9900018    1    3    3    0    0  0.44323116147E+02  0.28506344992E+02  0.11703901631E+03  0.15744986524E+03  0.91187600000E+02 0.  0.
<mgrwt>
<rscale>  0 0.12269562E+04</rscale>
<asrwt>0</asrwt>
<pdfrwt beam="1">  1        2 0.26773563E+00 0.14015836E+04</pdfrwt>
<pdfrwt beam="2">  1       -2 0.11307905E+00 0.14015836E+04</pdfrwt>
<totfact> 0.54885510E+00</totfact>
</mgrwt>
</event>
<event>
11    1  0.2370949E-011  0.4514063E+04  0.7818608E-02  0.7908179E-01
          2   -1    0    0  501    0  0.00000000000E+00  0.00000000000E+00  0.18991543903E+04  0.18991543903E+04  0.00000000000E+00 0. -1.
         -2   -1    0    0    0  501 -0.00000000000E+00 -0.00000000000E+00 -0.26823472533E+04  0.26823472533E+04  0.00000000000E+00 0.  1.
    9900016    2    1    2    0    0 -0.35539539418E+03  0.26444193085E+03 -0.81925143582E+03  0.11693551251E+04  0.70709481159E+03 0.  0.
         23    2    3    3    0    0 -0.24696639043E+03  0.34705087500E+03 -0.28627930445E+03  0.52099642336E+03  0.89692391878E+02 0.  0.
        -15    1    1    2    0    0 -0.37934272264E+03 -0.21838265311E+03  0.74542871038E+03  0.86443961423E+03  0.00000000000E+00 0.  1.
        -15    1    4    4    0    0 -0.12778823374E+03  0.25302061075E+03 -0.18356311573E+03  0.33770501862E+03  0.00000000000E+00 0.  1.
         15    1    4    4    0    0 -0.11917815668E+03  0.94030264252E+02 -0.10271618872E+03  0.18329140474E+03  0.00000000000E+00 0. -1.
         15    1    1    2    0    0 -0.29506882488E+03 -0.96401926154E+03 -0.26772921537E+02  0.10085214610E+04  0.00000000000E+00 0. -1.
        -16    1    1    2    0    0  0.10298069417E+04  0.91795998380E+03 -0.68259721605E+03  0.15391854431E+04  0.00000000000E+00 0.  1.
         16    1    3    3    0    0 -0.13682262702E+03 -0.10280060694E+03 -0.52293541011E+03  0.55022707967E+03  0.00000000000E+00 0. -1.
    9900018    1    3    3    0    0  0.28393623262E+02  0.20191662782E+02 -0.10036721257E+02  0.98131622096E+02  0.91187600000E+02 0.  0.
<mgrwt>
<rscale>  0 0.45140632E+04</rscale>
<asrwt>0</asrwt>
<pdfrwt beam="1">  1        2 0.29217760E+00 0.45140632E+04</pdfrwt>
<pdfrwt beam="2">  1       -2 0.41266880E+00 0.45140632E+04</pdfrwt>
<totfact> 0.35272534E-02</totfact>
</mgrwt>
</event>
<event>
11    1  0.2370949E-011  0.2391093E+04  0.7818608E-02  0.8646028E-01
         -2   -1    0    0    0  501 -0.00000000000E+00  0.00000000000E+00  0.16958956775E+04  0.16958956775E+04  0.00000000000E+00 0.  1.
          2   -1    0    0  501    0  0.00000000000E+00 -0.00000000000E+00 -0.37401788414E+04  0.37401788414E+04  0.00000000000E+00 0. -1.
    9900016    2    1    2    0    0 -0.51068257265E+03  0.14323565219E+03 -0.13020760853E+03  0.89276947921E+03  0.70623663146E+03 0.  0.
         23    2    3    3    0    0 -0.11393333671E+03  0.22131861887E+03  0.14802472107E+03  0.30300944353E+03  0.89110428937E+02 0.  0.
        -15    1    1    2    0    0 -0.45083216004E+03 -0.18226927994E+03 -0.84300591691E+03  0.97320640302E+03  0.00000000000E+00 0.  1.
        -15    1    4    4    0    0 -0.75022406162E+02  0.17853685801E+03  0.15029071593E+03  0.24513480045E+03  0.00000000000E+00 0.  1.
         15    1    1    2    0    0 -0.39295600573E+03 -0.82510231015E+02 -0.19235955292E+04  0.19650552462E+04  0.00000000000E+00 0. -1.
         15    1    4    4    0    0 -0.38910930553E+02  0.42781760859E+02 -0.22659948662E+01  0.57874643078E+02  0.00000000000E+00 0. -1.
        -16    1    1    2    0    0  0.13544707384E+04  0.12154385877E+03  0.85252589082E+03  0.16050433905E+04  0.00000000000E+00 0.  1.
         16    1    3    3    0    0 -0.20525885861E+03 -0.14434177002E+03 -0.23947748992E+02  0.25206991152E+03  0.00000000000E+00 0. -1.
    9900018    1    3    3    0    0 -0.19149037732E+03  0.66258803334E+02 -0.25428458061E+03  0.33769012416E+03  0.91187600000E+02 0.  0.
<mgrwt>
<rscale>  0 0.19178370E+04</rscale>
<asrwt>0</asrwt>
<pdfrwt beam="1">  1        2 0.57541212E+00 0.23910929E+04</pdfrwt>
<pdfrwt beam="2">  1       -2 0.26090703E+00 0.23910929E+04</pdfrwt>
<totfact> 0.25596306E-02</totfact>
</mgrwt>
</event>
<event>
11    1  0.2370949E-011  0.2627654E+04  0.7818608E-02  0.8358868E-01
          2   -1    0    0  501    0  0.00000000000E+00  0.00000000000E+00  0.17357650004E+04  0.17357650004E+04  0.00000000000E+00 0. -1.
         -2   -1    0    0    0  501 -0.00000000000E+00 -0.00000000000E+00 -0.99445539209E+03  0.99445539209E+03  0.00000000000E+00 0.  1.
    9900016    2    1    2    0    0  0.18421033279E+03  0.39472711131E+03 -0.61366905549E+02  0.82089322644E+03  0.69307781165E+03 0.  0.
         23    2    3    3    0    0  0.22259205399E+03  0.23534528837E+03 -0.18025251132E+03  0.38217601704E+03  0.92913469998E+02 0.  0.
        -15    1    1    2    0    0  0.17599484347E+03  0.41959631654E+03 -0.14411675482E+03  0.47728910819E+03  0.00000000000E+00 0.  1.
        -15    1    4    4    0    0  0.15051146394E+03  0.17746146296E+03 -0.17200234152E+03  0.28936322693E+03  0.00000000000E+00 0. -1.
         15    1    4    4    0    0  0.72080590055E+02  0.57883825405E+02 -0.82501698052E+01  0.92812790110E+02  0.00000000000E+00 0.  1.
         15    1    1    2    0    0 -0.34522212776E+03 -0.10225048584E+03  0.27611162485E+03  0.45373021580E+03  0.00000000000E+00 0. -1.
        -16    1    3    3    0    0 -0.14408223984E+03  0.64952237498E+02 -0.80727912216E+02  0.17746966165E+03  0.00000000000E+00 0.  1.
         16    1    1    2    0    0 -0.14983048494E+02 -0.71207294201E+03  0.67068164382E+03  0.97830784206E+03  0.00000000000E+00 0. -1.
    9900018    1    3    3    0    0  0.10570051864E+03  0.94429585440E+02  0.19961351799E+03  0.26124754775E+03  0.91187600000E+02 0.  0.
<mgrwt>
<rscale>  0 0.26276536E+04</rscale>
<asrwt>0</asrwt>
<pdfrwt beam="1">  1        2 0.26704077E+00 0.26276536E+04</pdfrwt>
<pdfrwt beam="2">  1       -2 0.15299314E+00 0.26276536E+04</pdfrwt>
<totfact> 0.23505270E+00</totfact>
</mgrwt>
</event>
