<event>
12    1  0.9067098E-017  0.2911019E+04  0.7818608E-02  0.8269607E-01
         -2   -1    0    0    0  501 -0.00000000000E+00  0.00000000000E+00  0.10964098661E+04  0.10964098661E+04  0.00000000000E+00 0.  1.
          2   -1    0    0  501    0  0.00000000000E+00 -0.00000000000E+00 -0.19322220118E+04  0.19322220118E+04  0.00000000000E+00 0. -1.
        -24    2    1    2    0    0 -0.10679191235E+03  0.97253203054E+02  0.86886882294E+02  0.18660528040E+03  0.80059367423E+02 0.  0.
    9900016    2    1    2    0    0  0.19632279168E+03 -0.78399339724E+02 -0.10911720807E+04  0.24166849074E+04  0.21459311119E+04 0.  0.
         23    2    4    4    0    0  0.50185718332E+03 -0.23191277636E+03  0.52323123887E+03  0.76646803746E+03  0.89767225882E+02 0.  0.
        -15    1    1    2    0    0 -0.91188251677E+02 -0.61478269662E+02  0.26435334506E+03  0.28631724700E+03  0.00000000000E+00 0.  1.
        -15    1    5    5    0    0  0.42402972263E+03 -0.22004957603E+03  0.41617181795E+03  0.63357872726E+03  0.00000000000E+00 0. -1.
         15    1    5    5    0    0  0.77827460686E+02 -0.11863200334E+02  0.10705942092E+03  0.13288931020E+03  0.00000000000E+00 0.  1.
         15    1    3    3    0    0 -0.31185275363E+02  0.32385460801E-01 -0.67314113802E+01  0.31903516223E+02  0.00000000000E+00 0. -1.
        -16    1    3    3    0    0 -0.75606636987E+02  0.97220817594E+02  0.93618293674E+02  0.15470176418E+03  0.00000000000E+00 0.  1.
         16    1    4    4    0    0 -0.30553439164E+03  0.15351343664E+03 -0.16144033195E+04  0.16502168699E+04  0.00000000000E+00 0. -1.
    9900018    1    1    2    0    0  0.16573723491E+01  0.42624406331E+02 -0.95880292427E+02  0.13902444306E+03  0.91187600000E+02 0.  0.
<mgrwt>
<rscale>  0 0.29110186E+04</rscale>
<asrwt>0</asrwt>
<pdfrwt beam="1">  1        2 0.29726492E+00 0.29110186E+04</pdfrwt>
<pdfrwt beam="2">  1       -2 0.16867844E+00 0.29110186E+04</pdfrwt>
<totfact> 0.13687503E+00</totfact>
</mgrwt>
</event>
<event>
12    1  0.9067098E-017  0.6904290E+04  0.7818608E-02  0.8124775E-01
          2   -1    0    0  501    0  0.00000000000E+00  0.00000000000E+00  0.47624093631E+04  0.47624093631E+04  0.00000000000E+00 0.  1.
         -2   -1    0    0    0  501 -0.00000000000E+00 -0.00000000000E+00 -0.33313585078E+04  0.33313585078E+04  0.00000000000E+00 0. -1.
         24    2    1    2    0    0 -0.28000949930E+03  0.31860706451E+03 -0.73921046257E+03  0.85641653572E+03  0.84269765787E+02 0.  0.
    9900016    2    1    2    0    0 -0.18491711394E+04  0.11468269501E+04  0.31782568278E+04  0.44630114152E+04  0.22544419427E+04 0.  0.
         23    2    4    4    0    0  0.15147697463E+02 -0.19639724734E+03 -0.23687745081E+03  0.32094772662E+03  0.89973246116E+02 0.  0.
        -15    1    5    5    0    0  0.82096990636E+01 -0.30008431824E+02 -0.10202048120E+03  0.10665872549E+03  0.00000000000E+00 0.  1.
        -15    1    3    3    0    0 -0.24967895590E+02  0.19846301174E+02 -0.11110369866E+03  0.11559110405E+03  0.00000000000E+00 0.  1.
         15    1    1    2    0    0  0.21291806387E+04 -0.14654340146E+04 -0.10079955100E+04  0.27743399200E+04  0.00000000000E+00 0. -1.
         15    1    5    5    0    0  0.69379983996E+01 -0.16638881552E+03 -0.13485696961E+03  0.21428900112E+03  0.00000000000E+00 0. -1.
        -16    1    4    4    0    0 -0.17070839167E+04  0.12947436136E+04  0.32444523016E+04  0.38880544313E+04  0.00000000000E+00 0.  1.
         16    1    3    3    0    0 -0.25504160370E+03  0.29876076334E+03 -0.62810676391E+03  0.74082543167E+03  0.00000000000E+00 0. -1.
    9900018    1    4    4    0    0 -0.15723492013E+03  0.48480583911E+02  0.17068197697E+03  0.25400925727E+03  0.91187600000E+02 0.  0.
<mgrwt>
<rscale>  0 0.34540173E+04</rscale>
<asrwt>0</asrwt>
<pdfrwt beam="1">  1        2 0.73267837E+00 0.69042900E+04</pdfrwt>
<pdfrwt beam="2">  1       -2 0.51251669E+00 0.69042900E+04</pdfrwt>
<totfact> 0.54865494E-05</totfact>
</mgrwt>
</event>
<event>
12    1  0.9067098E-017  0.4740204E+04  0.7818608E-02  0.7869883E-01
          2   -1    0    0  501    0  0.00000000000E+00  0.00000000000E+00  0.24038025808E+04  0.24038025808E+04  0.00000000000E+00 0. -1.
         -2   -1    0    0    0  501 -0.00000000000E+00 -0.00000000000E+00 -0.23368737590E+04  0.23368737590E+04  0.00000000000E+00 0.  1.
        -24    2    1    2    0    0 -0.42651573812E+03 -0.10596707528E+04 -0.25956449702E+03  0.11740494538E+04  0.78743968088E+02 0.  0.
    9900016    2    1    2    0    0  0.82737226870E+03  0.68810093957E+02  0.94397264253E+02  0.23030545805E+04  0.21461290402E+04 0.  0.
         23    2    4    4    0    0  0.10122250161E+03  0.47982142671E+03 -0.88527238580E+03  0.10162071058E+04  0.92168804101E+02 0.  0.
        -15    1    5    5    0    0  0.48474771511E+02  0.37540945982E+03 -0.62215309962E+03  0.72825582412E+03  0.00000000000E+00 0. -1.
        -15    1    1    2    0    0 -0.43772514627E+03  0.10288741460E+04  0.27216923992E+03  0.11507655744E+04  0.00000000000E+00 0.  1.
         15    1    3    3    0    0 -0.22355325026E+03 -0.64945782594E+03 -0.17211461778E+03  0.70809248339E+03  0.00000000000E+00 0. -1.
         15    1    5    5    0    0  0.52747730100E+02  0.10441196689E+03 -0.26311928617E+03  0.28795128167E+03  0.00000000000E+00 0.  1.
        -16    1    3    3    0    0 -0.20296248786E+03 -0.41021292690E+03 -0.87449879243E+02  0.46595697039E+03  0.00000000000E+00 0.  1.
         16    1    4    4    0    0  0.72614976708E+03 -0.41101133276E+03  0.97966965005E+03  0.12868474747E+04  0.00000000000E+00 0. -1.
    9900018    1    1    2    0    0  0.36868615696E+02 -0.38013487112E+02 -0.40073185277E+02  0.11280673117E+03  0.91187600000E+02 0.  0.
<mgrwt>
<rscale>  0 0.47402039E+04</rscale>
<asrwt>0</asrwt>
<pdfrwt beam="1">  1        2 0.36981578E+00 0.47402039E+04</pdfrwt>
<pdfrwt beam="2">  1       -2 0.35951904E+00 0.47402039E+04</pdfrwt>
<totfact> 0.39814784E-02</totfact>
</mgrwt>
</event>
<event>
12    1  0.9067098E-017  0.6632912E+04  0.7818608E-02  0.8067192E-01
          2   -1    0    0  501    0  0.00000000000E+00  0.00000000000E+00  0.45507731349E+04  0.45507731349E+04  0.00000000000E+00 0. -1.
         -2   -1    0    0    0  501 -0.00000000000E+00 -0.00000000000E+00 -0.33340571894E+04  0.33340571894E+04  0.00000000000E+00 0.  1.
        -24    2    1    2    0    0  0.63986006248E+03  0.70036050977E+01 -0.72829956015E+03  0.97262330796E+03  0.78140257364E+02 0.  0.
    9900016    2    1    2    0    0  0.10331705161E+04  0.11419222615E+04  0.30910381940E+04  0.40664131135E+04  0.21470376629E+04 0.  0.
         23    2    4    4    0    0 -0.76037106656E+01 -0.35565211242E+03 -0.10881339614E+03  0.38334507237E+03  0.92557267937E+02 0.  0.
        -15    1    5    5    0    0  0.42463349119E+02 -0.16553235454E+03 -0.54678696448E+02  0.17942646478E+03  0.00000000000E+00 0. -1.
        -15    1    1    2    0    0 -0.17459155781E+04 -0.12184596461E+04 -0.14067223899E+04  0.25518097494E+04  0.00000000000E+00 0.  1.
         15    1    5    5    0    0 -0.50067059785E+02 -0.19011975788E+03 -0.54134699688E+02  0.20391860759E+03  0.00000000000E+00 0.  1.
         15    1    3    3    0    0  0.60036214745E+03  0.73217432813E+01 -0.64963062418E+03  0.88459497166E+03  0.00000000000E+00 0. -1.
        -16    1    3    3    0    0  0.39497915025E+02 -0.31813818353E+00 -0.78668935976E+02  0.88028336295E+02  0.00000000000E+00 0.  1.
         16    1    4    4    0    0  0.10407742267E+04  0.14975743739E+04  0.31998515901E+04  0.36830680411E+04  0.00000000000E+00 0. -1.
    9900018    1    1    2    0    0  0.72884999572E+02  0.69533779475E+02  0.26069970156E+03  0.29398415338E+03  0.91187600000E+02 0.  0.
<mgrwt>
<rscale>  0 0.37034754E+04</rscale>
<asrwt>0</asrwt>
<pdfrwt beam="1">  1        2 0.70011894E+00 0.66329119E+04</pdfrwt>
<pdfrwt beam="2">  1       -2 0.51293187E+00 0.66329119E+04</pdfrwt>
<totfact> 0.93130471E-05</totfact>
</mgrwt>
</event>
<event>
12    1  0.9067098E-017  0.4843414E+04  0.7818608E-02  0.8218925E-01
          2   -1    0    0  501    0  0.00000000000E+00  0.00000000000E+00  0.41755585582E+04  0.41755585582E+04  0.00000000000E+00 0. -1.
         -2   -1    0    0    0  501 -0.00000000000E+00 -0.00000000000E+00 -0.22320082103E+04  0.22320082103E+04  0.00000000000E+00 0.  1.
        -24    2    1    2    0    0  0.35592743002E+03  0.71298614441E+03 -0.53874425399E+03  0.96510000786E+03  0.78352258435E+02 0.  0.
    9900016    2    1    2    0    0 -0.89569075780E+03  0.80608324912E+03  0.25045788005E+04  0.35106631495E+04  0.21447164482E+04 0.  0.
         23    2    4    4    0    0  0.30254999231E+03  0.23570305393E+03  0.20806253491E+04  0.21175188672E+04  0.88271637664E+02 0.  0.
        -15    1    1    2    0    0  0.66438017079E+03 -0.15715577020E+04 -0.16619226333E+03  0.17142970835E+04  0.00000000000E+00 0.  1.
        -15    1    5    5    0    0  0.40486493917E+02  0.58910909197E+02  0.25974278794E+03  0.26939927115E+03  0.00000000000E+00 0. -1.
         15    1    3    3    0    0  0.80732179559E+02  0.17520947717E+03 -0.91830405662E+02  0.21365595969E+03  0.00000000000E+00 0. -1.
         15    1    5    5    0    0  0.26206349839E+03  0.17679214474E+03  0.18208825612E+04  0.18481195961E+04  0.00000000000E+00 0.  1.
        -16    1    3    3    0    0  0.27519525046E+03  0.53777666724E+03 -0.44691384833E+03  0.75144404817E+03  0.00000000000E+00 0.  1.
         16    1    4    4    0    0 -0.11982407501E+04  0.57038019519E+03  0.42395345134E+03  0.13931442823E+04  0.00000000000E+00 0. -1.
    9900018    1    1    2    0    0 -0.12461684301E+03  0.52488308434E+02  0.14390806472E+03  0.21750652765E+03  0.91187600000E+02 0.  0.
<mgrwt>
<rscale>  0 0.30884143E+04</rscale>
<asrwt>0</asrwt>
<pdfrwt beam="1">  1        2 0.64239362E+00 0.48434139E+04</pdfrwt>
<pdfrwt beam="2">  1       -2 0.34338588E+00 0.48434139E+04</pdfrwt>
<totfact> 0.29363615E-03</totfact>
</mgrwt>
</event>
<event>
11    1  0.9067098E-017  0.4725516E+04  0.7818608E-02  0.8534077E-01
         -2   -1    0    0    0  501 -0.00000000000E+00  0.00000000000E+00  0.20663754494E+04  0.20663754494E+04  0.00000000000E+00 0.  1.
          2   -1    0    0  501    0  0.00000000000E+00 -0.00000000000E+00 -0.30770137328E+04  0.30770137328E+04  0.00000000000E+00 0. -1.
    9900016    2    1    2    0    0 -0.94702695466E+03  0.96561229035E+03 -0.19024619064E+04  0.31834454810E+04  0.21646470098E+04 0.  0.
         23    2    3    3    0    0  0.24487539644E+03 -0.83239699955E+02  0.33920842912E+03  0.43648213848E+03  0.92528327537E+02 0.  0.
        -15    1    4    4    0    0  0.19863056466E+03 -0.10088177643E+03  0.29805334905E+03  0.37211158665E+03  0.00000000000E+00 0.  1.
        -15    1    1    2    0    0  0.10084227953E+04 -0.85450505967E+03  0.80419573688E+03  0.15471994746E+04  0.00000000000E+00 0.  1.
         15    1    4    4    0    0  0.46244831778E+02  0.17642076472E+02  0.41155080063E+02  0.64370551834E+02  0.00000000000E+00 0. -1.
         15    1    1    2    0    0 -0.56919371637E+02 -0.14766969717E+03  0.91435788734E+02  0.18277488282E+03  0.00000000000E+00 0. -1.
        -16    1    1    2    0    0  0.18762704452E+02 -0.22420909302E+02  0.83647243144E+02  0.88609240702E+02  0.00000000000E+00 0.  1.
         16    1    3    3    0    0 -0.11919023511E+04  0.10488519903E+04 -0.22416703355E+04  0.27469633425E+04  0.00000000000E+00 0. -1.
    9900018    1    1    2    0    0 -0.23239173426E+02  0.58983375790E+02 -0.87455145757E+02  0.14136010298E+03  0.91187600000E+02 0.  0.
<mgrwt>
<rscale>  0 0.21627907E+04</rscale>
<asrwt>0</asrwt>
<pdfrwt beam="1">  1        2 0.47338672E+00 0.47255157E+04</pdfrwt>
<pdfrwt beam="2">  1       -2 0.31790392E+00 0.47255157E+04</pdfrwt>
<totfact> 0.28214864E-02</totfact>
</mgrwt>
</event>
<event>
12    1  0.9067098E-017  0.2934795E+04  0.7818608E-02  0.8262600E-01
          2   -1    0    0  501    0  0.00000000000E+00  0.00000000000E+00  0.28768397460E+04  0.28768397460E+04  0.00000000000E+00 0. -1.
         -2   -1    0    0    0  501 -0.00000000000E+00 -0.00000000000E+00 -0.74847937735E+03  0.74847937735E+03  0.00000000000E+00 0.  1.
        -24    2    1    2    0    0 -0.12172207832E+03 -0.26648549340E+03  0.86128827914E+02  0.31616070617E+03  0.81906254850E+02 0.  0.
    9900016    2    1    2    0    0  0.26396515778E+03  0.41248815940E+03  0.17652541771E+04  0.28269966079E+04  0.21531287526E+04 0.  0.
         23    2    4    4    0    0 -0.50430327219E+02 -0.33856964731E+03 -0.38782319631E+03  0.52511161382E+03  0.90347946245E+02 0.  0.
        -15    1    5    5    0    0 -0.51544560644E+02 -0.26010118089E+03 -0.34681608361E+03  0.43656713330E+03  0.00000000000E+00 0. -1.
        -15    1    1    2    0    0 -0.20789347287E+03 -0.18218874904E+03  0.20099708817E+03  0.34177809437E+03  0.00000000000E+00 0.  1.
         15    1    3    3    0    0 -0.66588980990E+02 -0.83845373021E+02  0.56642959771E+00  0.10707221773E+03  0.00000000000E+00 0. -1.
         15    1    5    5    0    0  0.11142334250E+01 -0.78468466413E+02 -0.41007112708E+02  0.88544480517E+02  0.00000000000E+00 0.  1.
        -16    1    3    3    0    0 -0.55133097330E+02 -0.18264012038E+03  0.85562398316E+02  0.20908848844E+03  0.00000000000E+00 0.  1.
         16    1    4    4    0    0  0.31439548500E+03  0.75105780671E+03  0.21530773734E+04  0.23018849941E+04  0.00000000000E+00 0. -1.
    9900018    1    1    2    0    0  0.65650393410E+02  0.36186083036E+02  0.75980275462E+02  0.14038371492E+03  0.91187600000E+02 0.  0.
<mgrwt>
<rscale>  0 0.29347949E+04</rscale>
<asrwt>0</asrwt>
<pdfrwt beam="1">  1        2 0.44259073E+00 0.29347949E+04</pdfrwt>
<pdfrwt beam="2">  1       -2 0.11515067E+00 0.29347949E+04</pdfrwt>
<totfact> 0.10496177E+00</totfact>
</mgrwt>
</event>
