<event>
10    1  0.1038955E-011  0.3296469E+04  0.7818608E-02  0.8406925E-01
          2   -1    0    0  501    0  0.00000000000E+00  0.00000000000E+00  0.36450305751E+04  0.36450305751E+04  0.00000000000E+00 0. -1.
         -2   -1    0    0    0  501 -0.00000000000E+00 -0.00000000000E+00 -0.13453539384E+04  0.13453539384E+04  0.00000000000E+00 0.  1.
    9900016    2    1    2    0    0  0.95052889281E+02 -0.10266120555E+03  0.79289418712E+03  0.20019975359E+04  0.18329589649E+04 0.  0.
        -15    1    1    2    0    0 -0.38609786060E+03 -0.20148598543E+03  0.34088613704E+03  0.55305652398E+03  0.00000000000E+00 0.  1.
        -15    1    3    3    0    0  0.30089851345E+03  0.24671326583E+03  0.26736298525E+03  0.47211261031E+03  0.00000000000E+00 0.  1.
         15    1    3    3    0    0 -0.59784066789E+03 -0.66370804681E+03  0.15746413170E+03  0.90703736878E+03  0.00000000000E+00 0. -1.
         15    1    1    2    0    0 -0.10960745696E+02 -0.52814805140E+03 -0.11790134464E+03  0.54125892991E+03  0.00000000000E+00 0. -1.
        -16    1    1    2    0    0  0.43645743516E+03  0.95442960328E+03  0.13213102220E+04  0.16873919708E+04  0.00000000000E+00 0.  1.
         16    1    3    3    0    0  0.39199504373E+03  0.31433357543E+03  0.36806707016E+03  0.62284755686E+03  0.00000000000E+00 0. -1.
    9900018    1    1    2    0    0 -0.13445171814E+03 -0.12213436089E+03 -0.37512564829E+02  0.20667955278E+03  0.91187600000E+02 0.  0.
<mgrwt>
<rscale>  0 0.24889729E+04</rscale>
<asrwt>0</asrwt>
<pdfrwt beam="1">  1        2 0.56077393E+00 0.32964686E+04</pdfrwt>
<pdfrwt beam="2">  1       -2 0.20697753E+00 0.32964686E+04</pdfrwt>
<totfact> 0.61854052E-02</totfact>
</mgrwt>
</event>
<event>
11    1  0.1038955E-011  0.2983681E+04  0.7818608E-02  0.8571827E-01
         -1   -1    0    0    0  501 -0.00000000000E+00  0.00000000000E+00  0.14688771324E+04  0.14688771324E+04  0.00000000000E+00 0.  1.
          1   -1    0    0  501    0  0.00000000000E+00 -0.00000000000E+00 -0.31220382188E+04  0.31220382188E+04  0.00000000000E+00 0. -1.
    9900016    2    1    2    0    0  0.18392984244E+03  0.50586050394E+03 -0.12921067580E+04  0.23162972453E+04  0.18455264880E+04 0.  0.
         24    2    3    3    0    0  0.52861284925E+03 -0.56436447394E+03 -0.70541650178E+03  0.10480727639E+04  0.53900589731E+02 0.  0.
        -15    1    1    2    0    0 -0.24662809681E+03 -0.72340994563E+02  0.50367194499E+02  0.26190741095E+03  0.00000000000E+00 0.  1.
        -15    1    4    4    0    0  0.48682672995E+03 -0.51362595501E+03 -0.66377327394E+03  0.97026122557E+03  0.00000000000E+00 0.  1.
         15    1    3    3    0    0 -0.34468300681E+03  0.10702249779E+04 -0.58669025626E+03  0.12682244814E+04  0.00000000000E+00 0. -1.
         15    1    1    2    0    0 -0.28909033950E+03  0.24998551607E+03  0.49315056042E+03  0.62390981550E+03  0.00000000000E+00 0. -1.
        -16    1    1    2    0    0  0.51212437658E+03 -0.65237042016E+03 -0.57286767416E+03  0.10079860685E+04  0.00000000000E+00 0.  1.
         16    1    4    4    0    0  0.41786119296E+02 -0.50738518927E+02 -0.41643227839E+02  0.77811538306E+02  0.00000000000E+00 0. -1.
    9900018    1    1    2    0    0 -0.16033578271E+03 -0.31134605285E+02 -0.33170440910E+03  0.38081481100E+03  0.91187600000E+02 0.  0.
<mgrwt>
<rscale>  0 0.20761411E+04</rscale>
<asrwt>0</asrwt>
<pdfrwt beam="1">  1        1 0.48031357E+00 0.29836813E+04</pdfrwt>
<pdfrwt beam="2">  1       -1 0.22598110E+00 0.29836813E+04</pdfrwt>
<totfact> 0.40072238E-02</totfact>
</mgrwt>
</event>
<event>
10    1  0.1038955E-011  0.2671669E+04  0.7818608E-02  0.8593369E-01
         -2   -1    0    0    0  501 -0.00000000000E+00  0.00000000000E+00  0.90794847511E+03  0.90794847511E+03  0.00000000000E+00 0.  1.
          2   -1    0    0  501    0  0.00000000000E+00 -0.00000000000E+00 -0.34961188570E+04  0.34961188570E+04  0.00000000000E+00 0. -1.
    9900016    2    1    2    0    0  0.12214434760E+03  0.13050588088E+03 -0.13343904965E+04  0.22712054486E+04  0.18291596885E+04 0.  0.
        -15    1    1    2    0    0 -0.11470025521E+03 -0.20756374782E+03 -0.45333832795E+03  0.51161948511E+03  0.00000000000E+00 0.  1.
        -15    1    3    3    0    0  0.60392330349E+03 -0.36240482302E+03 -0.12562673142E+04  0.14402319872E+04  0.00000000000E+00 0.  1.
         15    1    1    2    0    0  0.54156496825E+03 -0.19453598866E+03 -0.27940101240E+03  0.63968882392E+03  0.00000000000E+00 0. -1.
         15    1    3    3    0    0 -0.52023979751E+03  0.49149550806E+03  0.29880751152E+02  0.71631706713E+03  0.00000000000E+00 0. -1.
        -16    1    1    2    0    0 -0.55245992777E+03  0.39308494413E+03 -0.45036846132E+03  0.81397757711E+03  0.00000000000E+00 0.  1.
         16    1    3    3    0    0  0.38460841629E+02  0.14151958419E+01 -0.10800393342E+03  0.11465639429E+03  0.00000000000E+00 0. -1.
    9900018    1    1    2    0    0  0.34508671236E+01 -0.12149108852E+03 -0.70672083773E+02  0.16757599737E+03  0.91187600000E+02 0.  0.
<mgrwt>
<rscale>  0 0.20285905E+04</rscale>
<asrwt>0</asrwt>
<pdfrwt beam="1">  1        2 0.53786445E+00 0.26716693E+04</pdfrwt>
<pdfrwt beam="2">  1       -2 0.13968438E+00 0.26716693E+04</pdfrwt>
<totfact> 0.25384396E-01</totfact>
</mgrwt>
</event>
<event>
10    1  0.1038955E-011  0.3406545E+04  0.7818608E-02  0.8311729E-01
          1   -1    0    0  501    0  0.00000000000E+00  0.00000000000E+00  0.45051629522E+04  0.45051629522E+04  0.00000000000E+00 0. -1.
         -1   -1    0    0    0  501 -0.00000000000E+00 -0.00000000000E+00 -0.13961324275E+04  0.13961324275E+04  0.00000000000E+00 0.  1.
    9900016    2    1    2    0    0 -0.76209813554E+03 -0.29557124325E+03  0.17304416850E+04  0.26545488909E+04  0.18395775224E+04 0.  0.
        -15    1    3    3    0    0 -0.10473520453E+04 -0.42740664334E+03  0.94611345207E+03  0.14747045161E+04  0.00000000000E+00 0.  1.
        -15    1    1    2    0    0  0.60350447165E+03 -0.63296973899E+02  0.55328725140E+03  0.82118873395E+03  0.00000000000E+00 0.  1.
         15    1    3    3    0    0  0.56384308816E+03  0.18700341999E+03  0.48146112623E+03  0.76465294299E+03  0.00000000000E+00 0. -1.
         15    1    1    2    0    0 -0.67183068807E+03  0.57530359744E+03  0.10002567015E+04  0.13352318793E+04  0.00000000000E+00 0. -1.
        -16    1    1    2    0    0  0.77332235226E+03 -0.31336971050E+03 -0.31211251905E+03  0.89086601715E+03  0.00000000000E+00 0.  1.
         16    1    3    3    0    0 -0.27858917844E+03 -0.55168019897E+02  0.30286710669E+03  0.41519143184E+03  0.00000000000E+00 0. -1.
    9900018    1    1    2    0    0  0.57101999709E+02  0.96934330212E+02  0.13715740587E+03  0.19945985843E+03  0.91187600000E+02 0.  0.
<mgrwt>
<rscale>  0 0.27729074E+04</rscale>
<asrwt>0</asrwt>
<pdfrwt beam="1">  1        1 0.69310198E+00 0.34065450E+04</pdfrwt>
<pdfrwt beam="2">  1       -1 0.21478961E+00 0.34065450E+04</pdfrwt>
<totfact> 0.29815911E-03</totfact>
</mgrwt>
</event>
