<event>
11    1  0.3922844E-011  0.3415323E+04  0.7818608E-02  0.8393246E-01
         -2   -1    0    0    0  501 -0.00000000000E+00  0.00000000000E+00  0.11173911307E+04  0.11173911307E+04  0.00000000000E+00 0.  1.
          2   -1    0    0  501    0  0.00000000000E+00 -0.00000000000E+00 -0.44102928103E+04  0.44102928103E+04  0.00000000000E+00 0. -1.
    9900016    2    1    2    0    0 -0.33713713064E+03  0.35810960552E+03 -0.69867228306E+03  0.23614870563E+04  0.22014936346E+04 0.  0.
        -24    2    3    3    0    0 -0.43145318009E+03 -0.70576818521E+03 -0.81978496309E+03  0.11673245284E+04  0.79615268551E+02 0.  0.
        -15    1    1    2    0    0  0.58277897612E+03 -0.25867751345E+03 -0.22293907075E+03  0.67546074663E+03  0.00000000000E+00 0.  1.
        -15    1    3    3    0    0 -0.18121644708E+03  0.36851133029E+03 -0.70528078547E+02  0.41667038664E+03  0.00000000000E+00 0.  1.
         15    1    4    4    0    0 -0.27328670644E+03 -0.41340792059E+03 -0.44110173759E+03  0.66344741739E+03  0.00000000000E+00 0. -1.
         15    1    1    2    0    0  0.87791063773E+02  0.24322769258E+03 -0.55032580689E+03  0.60805055304E+03  0.00000000000E+00 0. -1.
        -16    1    4    4    0    0 -0.15816647365E+03 -0.29236026462E+03 -0.37868322549E+03  0.50387711099E+03  0.00000000000E+00 0.  1.
         16    1    1    2    0    0 -0.33343290925E+03 -0.34265978466E+03 -0.18209645189E+04  0.18826855850E+04  0.00000000000E+00 0. -1.
    9900018    1    3    3    0    0  0.27553249653E+03  0.69536646045E+03  0.19164075858E+03  0.77749214125E+03  0.91187600000E+02 0.  0.
<mgrwt>
<rscale>  0 0.25275207E+04</rscale>
<asrwt>0</asrwt>
<pdfrwt beam="1">  1        2 0.67850660E+00 0.34153231E+04</pdfrwt>
<pdfrwt beam="2">  1       -2 0.17190632E+00 0.34153231E+04</pdfrwt>
<totfact> 0.24825768E-02</totfact>
</mgrwt>
</event>
<event>
11    1  0.3922844E-011  0.4296309E+04  0.7818608E-02  0.8189819E-01
         -2   -1    0    0    0  501 -0.00000000000E+00  0.00000000000E+00  0.30086955039E+04  0.30086955039E+04  0.00000000000E+00 0.  1.
          2   -1    0    0  501    0  0.00000000000E+00 -0.00000000000E+00 -0.36422479716E+04  0.36422479716E+04  0.00000000000E+00 0. -1.
    9900016    2    1    2    0    0 -0.51246874885E+03  0.42204387732E+03  0.31809926720E+02  0.22811968050E+04  0.21822240349E+04 0.  0.
        -24    2    3    3    0    0  0.22927796425E+03  0.35293859631E+03  0.86878020904E+03  0.96858235076E+03  0.78985320984E+02 0.  0.
        -15    1    3    3    0    0 -0.57811658702E+03 -0.49716693527E+02 -0.90984211022E+03  0.10791214961E+04  0.00000000000E+00 0.  1.
        -15    1    1    2    0    0 -0.51713031877E+03 -0.32787030922E+03  0.14234668115E+04  0.15495742866E+04  0.00000000000E+00 0.  1.
         15    1    4    4    0    0  0.10049595489E+03  0.87932515082E+02  0.26447405875E+03  0.29627367738E+03  0.00000000000E+00 0. -1.
         15    1    1    2    0    0 -0.34397719631E+03 -0.84249784970E+02 -0.44076185060E+02  0.35687679658E+03  0.00000000000E+00 0. -1.
        -16    1    4    4    0    0  0.12878200936E+03  0.26500608123E+03  0.60430615029E+03  0.67230867338E+03  0.00000000000E+00 0.  1.
         16    1    1    2    0    0  0.13735762639E+04 -0.99237831217E+01 -0.20447530208E+04  0.24632955873E+04  0.00000000000E+00 0. -1.
    9900018    1    3    3    0    0 -0.16363012607E+03  0.11882197453E+03  0.72871827897E+02  0.23349295811E+03  0.91187600000E+02 0.  0.
<mgrwt>
<rscale>  0 0.31962077E+04</rscale>
<asrwt>0</asrwt>
<pdfrwt beam="1">  1        2 0.56034584E+00 0.42963087E+04</pdfrwt>
<pdfrwt beam="2">  1       -2 0.46287623E+00 0.42963087E+04</pdfrwt>
<totfact> 0.13180546E-03</totfact>
</mgrwt>
</event>
<event>
11    1  0.3922844E-011  0.3922586E+04  0.7818608E-02  0.8424545E-01
          2   -1    0    0  501    0  0.00000000000E+00  0.00000000000E+00  0.35073451057E+04  0.35073451057E+04  0.00000000000E+00 0. -1.
         -2   -1    0    0    0  501 -0.00000000000E+00 -0.00000000000E+00 -0.20746174917E+04  0.20746174917E+04  0.00000000000E+00 0.  1.
    9900016    2    1    2    0    0  0.12941195172E+03  0.38315720392E+03 -0.13376867278E+02  0.22369069339E+04  0.22000038169E+04 0.  0.
        -24    2    3    3    0    0  0.40292169585E+03 -0.33160966459E+03  0.54068382879E+03  0.75565775183E+03  0.79804589736E+02 0.  0.
        -15    1    1    2    0    0 -0.75453879653E+02 -0.49710392908E+03 -0.62373405576E+03  0.80115527620E+03  0.00000000000E+00 0.  1.
        -15    1    3    3    0    0  0.39878382870E+03  0.27637900324E+03  0.27408499389E+02  0.48596823075E+03  0.00000000000E+00 0.  1.
         15    1    1    2    0    0  0.73900047989E+00  0.46485326207E+02 -0.23392509385E+03  0.23850027507E+03  0.00000000000E+00 0. -1.
         15    1    4    4    0    0  0.18829282106E+03 -0.19989048914E+03  0.25385337406E+03  0.37396781899E+03  0.00000000000E+00 0. -1.
        -16    1    4    4    0    0  0.21462887479E+03 -0.13171917545E+03  0.28683045472E+03  0.38168993284E+03  0.00000000000E+00 0.  1.
         16    1    1    2    0    0 -0.54697072551E+02  0.67461398955E+02  0.23037636309E+04  0.23054001122E+04  0.00000000000E+00 0. -1.
    9900018    1    3    3    0    0 -0.67229357283E+03  0.43838786527E+03 -0.58146919545E+03  0.99528095136E+03  0.91187600000E+02 0.  0.
<mgrwt>
<rscale>  0 0.24403641E+04</rscale>
<asrwt>0</asrwt>
<pdfrwt beam="1">  1        2 0.53959155E+00 0.39225861E+04</pdfrwt>
<pdfrwt beam="2">  1       -2 0.31917192E+00 0.39225861E+04</pdfrwt>
<totfact> 0.14714596E-02</totfact>
</mgrwt>
</event>
<event>
11    1  0.3922844E-011  0.2967700E+04  0.7818608E-02  0.8504772E-01
          2   -1    0    0  501    0  0.00000000000E+00  0.00000000000E+00  0.43762840536E+04  0.43762840536E+04  0.00000000000E+00 0.  1.
         -2   -1    0    0    0  501 -0.00000000000E+00 -0.00000000000E+00 -0.14453151413E+04  0.14453151413E+04  0.00000000000E+00 0. -1.
    9900016    2    1    2    0    0  0.89320953350E+03 -0.18451590123E+03  0.33734379245E+04  0.41228408389E+04  0.21876617115E+04 0.  0.
         24    2    3    3    0    0  0.78895338840E+03  0.87483485888E+03  0.23077867801E+04  0.25923354289E+04  0.80868252782E+02 0.  0.
        -15    1    4    4    0    0  0.44349238110E+03  0.44907623444E+03  0.12972373165E+04  0.14426294091E+04  0.00000000000E+00 0.  1.
        -15    1    1    2    0    0 -0.12824306174E+03 -0.64350972643E+02  0.11051264578E+03  0.18110873927E+03  0.00000000000E+00 0.  1.
         15    1    3    3    0    0  0.12527805156E+03 -0.72846090245E+03  0.60217737675E+03  0.95339785487E+03  0.00000000000E+00 0. -1.
         15    1    1    2    0    0 -0.56485143343E+03 -0.19959530277E+03 -0.77430003518E+03  0.97899743167E+03  0.00000000000E+00 0. -1.
        -16    1    1    2    0    0 -0.20011503833E+03  0.44846217665E+03  0.22131837714E+03  0.53865218510E+03  0.00000000000E+00 0.  1.
         16    1    4    4    0    0  0.34546100731E+03  0.42575862444E+03  0.10105494636E+04  0.11497060199E+04  0.00000000000E+00 0. -1.
    9900018    1    3    3    0    0 -0.21021906467E+02 -0.33088985766E+03  0.46347376767E+03  0.57710755511E+03  0.91187600000E+02 0.  0.
<mgrwt>
<rscale>  0 0.22331096E+04</rscale>
<asrwt>0</asrwt>
<pdfrwt beam="1">  1        2 0.67327447E+00 0.29677002E+04</pdfrwt>
<pdfrwt beam="2">  1       -2 0.22235618E+00 0.29677002E+04</pdfrwt>
<totfact> 0.12564956E-02</totfact>
</mgrwt>
</event>
<event>
11    1  0.3922844E-011  0.6283244E+04  0.7818608E-02  0.7656242E-01
         -2   -1    0    0    0  501 -0.00000000000E+00  0.00000000000E+00  0.20501983992E+04  0.20501983992E+04  0.00000000000E+00 0. -1.
          2   -1    0    0  501    0  0.00000000000E+00 -0.00000000000E+00 -0.48140645436E+04  0.48140645436E+04  0.00000000000E+00 0.  1.
    9900016    2    1    2    0    0 -0.76001295568E+03 -0.11880638948E+04 -0.15080782208E+04  0.30125329338E+04  0.21936132854E+04 0.  0.
        -24    2    3    3    0    0  0.29540295388E+03 -0.11821260890E+04 -0.23900879465E+03  0.12441826772E+04  0.78615106864E+02 0.  0.
        -15    1    3    3    0    0 -0.11003515300E+04 -0.49132900538E+02 -0.12302492393E+04  0.16512724555E+04  0.00000000000E+00 0.  1.
        -15    1    1    2    0    0 -0.62256815112E+03 -0.59067683771E+02 -0.13408991169E+04  0.14795575473E+04  0.00000000000E+00 0.  1.
         15    1    4    4    0    0  0.12270835769E+03 -0.62722359633E+03 -0.14682927477E+03  0.65576338474E+03  0.00000000000E+00 0. -1.
         15    1    1    2    0    0  0.74560000258E+03  0.13237084306E+04 -0.39628057292E+03  0.15700833307E+04  0.00000000000E+00 0. -1.
        -16    1    4    4    0    0  0.17269459619E+03 -0.55490249262E+03 -0.92179519874E+02  0.58841929247E+03  0.00000000000E+00 0.  1.
         16    1    1    2    0    0  0.63698110422E+03 -0.76576852018E+02  0.48139176627E+03  0.80208913098E+03  0.00000000000E+00 0. -1.
    9900018    1    3    3    0    0  0.44935620441E+02  0.43195094701E+02 -0.38820186790E+02  0.11707780100E+03  0.91187600000E+02 0.  0.
<mgrwt>
<rscale>  0 0.62832436E+04</rscale>
<asrwt>0</asrwt>
<pdfrwt beam="1">  1        2 0.74062532E+00 0.62832436E+04</pdfrwt>
<pdfrwt beam="2">  1       -2 0.31541514E+00 0.62832436E+04</pdfrwt>
<totfact> 0.94831967E-04</totfact>
</mgrwt>
</event>
<event>
11    1  0.3922844E-011  0.3049066E+04  0.7818608E-02  0.8559926E-01
          3   -1    0    0  501    0  0.00000000000E+00  0.00000000000E+00  0.34183204869E+04  0.34183204869E+04  0.00000000000E+00 0. -1.
         -3   -1    0    0    0  501 -0.00000000000E+00 -0.00000000000E+00 -0.22711239782E+04  0.22711239782E+04  0.00000000000E+00 0.  1.
    9900016    2    1    2    0    0  0.56935530772E+03  0.72673973476E+03  0.20171898262E+04  0.31243743433E+04  0.22000782109E+04 0.  0.
        -24    2    3    3    0    0 -0.59024381979E+03  0.31649083259E+03  0.13681285482E+04  0.15253551466E+04  0.79864791200E+02 0.  0.
        -15    1    1    2    0    0  0.17697121811E+03 -0.39962622013E+03 -0.91863221145E+03  0.10173028398E+04  0.00000000000E+00 0. -1.
        -15    1    3    3    0    0  0.61995276924E+03  0.39496527500E+03 -0.18926251837E+02  0.73532115947E+03  0.00000000000E+00 0.  1.
         15    1    4    4    0    0 -0.32364119163E+03  0.19860308806E+03  0.84739325881E+03  0.92858071409E+03  0.00000000000E+00 0. -1.
         15    1    1    2    0    0 -0.91244152145E+02 -0.23531122072E+03 -0.58167144444E+03  0.63406508749E+03  0.00000000000E+00 0.  1.
        -16    1    4    4    0    0 -0.26660262817E+03  0.11788774453E+03  0.52073528944E+03  0.59677443253E+03  0.00000000000E+00 0.  1.
         16    1    1    2    0    0 -0.65508237368E+03 -0.91802293908E+02  0.63031033840E+03  0.91370219447E+03  0.00000000000E+00 0. -1.
    9900018    1    3    3    0    0  0.53964635827E+03  0.15283627171E+02  0.66798752975E+03  0.86369803725E+03  0.91187600000E+02 0.  0.
<mgrwt>
<rscale>  0 0.21029938E+04</rscale>
<asrwt>0</asrwt>
<pdfrwt beam="1">  1        3 0.52589546E+00 0.30490663E+04</pdfrwt>
<pdfrwt beam="2">  1       -3 0.34940369E+00 0.30490663E+04</pdfrwt>
<totfact> 0.10451055E-04</totfact>
</mgrwt>
</event>
<event>
11    1  0.3922844E-011  0.6954913E+04  0.7818608E-02  0.7582103E-01
         -2   -1    0    0    0  501 -0.00000000000E+00  0.00000000000E+00  0.32339415894E+04  0.32339415894E+04  0.00000000000E+00 0. -1.
          2   -1    0    0  501    0  0.00000000000E+00 -0.00000000000E+00 -0.37393084125E+04  0.37393084125E+04  0.00000000000E+00 0.  1.
    9900016    2    1    2    0    0  0.73401912045E+03  0.71736326354E+03  0.51800797960E+03  0.24787140174E+04  0.21959728577E+04 0.  0.
        -24    2    3    3    0    0  0.40921773707E+03  0.33103188673E+03  0.12756778327E+04  0.13820981219E+04  0.76157857846E+02 0.  0.
        -15    1    3    3    0    0  0.21261331493E+03  0.48351415031E+03 -0.75620656674E+03  0.92240919706E+03  0.00000000000E+00 0.  1.
        -15    1    1    2    0    0  0.59503693670E+03  0.37049798965E+03 -0.16431536751E+04  0.17864186845E+04  0.00000000000E+00 0.  1.
         15    1    1    2    0    0 -0.84660261867E+03 -0.14496070792E+04 -0.19984136760E+03  0.16905718708E+04  0.00000000000E+00 0. -1.
         15    1    4    4    0    0  0.10967407860E+03  0.81915754328E+02  0.25182952201E+03  0.28662990507E+03  0.00000000000E+00 0. -1.
        -16    1    4    4    0    0  0.29954365848E+03  0.24911613240E+03  0.10238483107E+04  0.10954682168E+04  0.00000000000E+00 0.  1.
         16    1    1    2    0    0 -0.48245343848E+03  0.36174582606E+03  0.81962023989E+03  0.10175454293E+04  0.00000000000E+00 0. -1.
    9900018    1    3    3    0    0  0.11218806845E+03 -0.97182773499E+02 -0.14632863666E+01  0.17420669840E+03  0.91187600000E+02 0.  0.
<mgrwt>
<rscale>  0 0.69549134E+04</rscale>
<asrwt>0</asrwt>
<pdfrwt beam="1">  1        2 0.57527821E+00 0.69549134E+04</pdfrwt>
<pdfrwt beam="2">  1       -2 0.49752948E+00 0.69549134E+04</pdfrwt>
<totfact> 0.58977592E-04</totfact>
</mgrwt>
</event>
<event>
11    1  0.3922844E-011  0.3472123E+04  0.7818608E-02  0.8358985E-01
         -1   -1    0    0    0  501 -0.00000000000E+00  0.00000000000E+00  0.18373135855E+04  0.18373135855E+04  0.00000000000E+00 0.  1.
          1   -1    0    0  501    0  0.00000000000E+00 -0.00000000000E+00 -0.29033219997E+04  0.29033219997E+04  0.00000000000E+00 0. -1.
    9900016    2    1    2    0    0  0.28831581398E+02 -0.91997795978E+03 -0.52030337388E+03  0.24303129220E+04  0.21882674863E+04 0.  0.
         24    2    3    3    0    0  0.63555920407E+03 -0.77954372619E+03 -0.74905953517E+03  0.12566173053E+04  0.79830707421E+02 0.  0.
        -15    1    4    4    0    0  0.35717523684E+03 -0.48890406972E+03 -0.47759670635E+03  0.77116791499E+03  0.00000000000E+00 0.  1.
        -15    1    1    2    0    0 -0.37441737308E+03  0.11258932559E+03  0.61901620263E+02  0.39584913299E+03  0.00000000000E+00 0.  1.
         15    1    1    2    0    0 -0.63894723001E+03  0.33980356415E+03 -0.19988859989E+03  0.75078324256E+03  0.00000000000E+00 0. -1.
         15    1    3    3    0    0 -0.14654836534E+03  0.40535999669E+03  0.69868342308E+02  0.43666318320E+03  0.00000000000E+00 0. -1.
        -16    1    1    2    0    0  0.98453302168E+03  0.46758507003E+03 -0.40771806075E+03  0.11636902876E+04  0.00000000000E+00 0.  1.
         16    1    4    4    0    0  0.27838396723E+03 -0.29063965647E+03 -0.27146282882E+03  0.48544939031E+03  0.00000000000E+00 0. -1.
    9900018    1    3    3    0    0 -0.46017925732E+03 -0.54579423028E+03  0.15888781899E+03  0.73703243355E+03  0.91187600000E+02 0.  0.
<mgrwt>
<rscale>  0 0.26273045E+04</rscale>
<asrwt>0</asrwt>
<pdfrwt beam="1">  1        1 0.44666492E+00 0.34721226E+04</pdfrwt>
<pdfrwt beam="2">  1       -1 0.28266363E+00 0.34721226E+04</pdfrwt>
<totfact> 0.23715586E-02</totfact>
</mgrwt>
</event>
<event>
11    1  0.3922844E-011  0.4890417E+04  0.7818608E-02  0.7845637E-01
          2   -1    0    0  501    0  0.00000000000E+00  0.00000000000E+00  0.33874558738E+04  0.33874558738E+04  0.00000000000E+00 0. -1.
         -2   -1    0    0    0  501 -0.00000000000E+00 -0.00000000000E+00 -0.17650542972E+04  0.17650542972E+04  0.00000000000E+00 0.  1.
    9900016    2    1    2    0    0  0.66589457889E+03 -0.45088381684E+03  0.17741143931E+02  0.23393354792E+04  0.21966938635E+04 0.  0.
        -24    2    3    3    0    0 -0.31158116571E+03 -0.16727170636E+03 -0.52125634567E+03  0.63494989903E+03  0.79940914399E+02 0.  0.
        -15    1    3    3    0    0  0.12279917768E+04 -0.29566587483E+03  0.20944869704E+03  0.12803323280E+04  0.00000000000E+00 0.  1.
        -15    1    1    2    0    0  0.50284822680E+03  0.78202544746E+03  0.34382369081E+03  0.99127941068E+03  0.00000000000E+00 0.  1.
         15    1    1    2    0    0 -0.34039548854E+03 -0.24314756013E+03  0.17526460535E+03  0.45354989418E+03  0.00000000000E+00 0. -1.
         15    1    4    4    0    0 -0.15057971696E+03 -0.91483372490E+02 -0.32743922420E+03  0.37183316708E+03  0.00000000000E+00 0. -1.
        -16    1    4    4    0    0 -0.16100144875E+03 -0.75788333867E+02 -0.19381712148E+03  0.26311673194E+03  0.00000000000E+00 0.  1.
         16    1    1    2    0    0 -0.82834731715E+03 -0.87994070485E+02  0.10855721365E+04  0.13683453869E+04  0.00000000000E+00 0. -1.
    9900018    1    3    3    0    0 -0.25051603222E+03  0.12053764344E+02  0.32954879257E+03  0.42405325221E+03  0.91187600000E+02 0.  0.
<mgrwt>
<rscale>  0 0.48904166E+04</rscale>
<asrwt>0</asrwt>
<pdfrwt beam="1">  1        2 0.52114706E+00 0.48904166E+04</pdfrwt>
<pdfrwt beam="2">  1       -2 0.27154681E+00 0.48904166E+04</pdfrwt>
<totfact> 0.33812881E-02</totfact>
</mgrwt>
</event>
<event>
11    1  0.3922844E-011  0.2967397E+04  0.7818608E-02  0.8369227E-01
          2   -1    0    0  501    0  0.00000000000E+00  0.00000000000E+00  0.29219637074E+04  0.29219637074E+04  0.00000000000E+00 0. -1.
         -2   -1    0    0    0  501 -0.00000000000E+00 -0.00000000000E+00 -0.27421111697E+04  0.27421111697E+04  0.00000000000E+00 0.  1.
    9900016    2    1    2    0    0  0.26394549003E+03  0.28430273309E+02 -0.97829238911E+03  0.24278178610E+04  0.22060752629E+04 0.  0.
         24    2    3    3    0    0 -0.80438608575E+03  0.50996154790E+03 -0.41461605942E+03  0.10418240334E+04  0.79956766344E+02 0.  0.
        -15    1    4    4    0    0 -0.56906648538E+03  0.31669572471E+03 -0.28330276930E+03  0.71020652343E+03  0.00000000000E+00 0.  1.
        -15    1    1    2    0    0  0.65367235111E+03 -0.13058079136E+03 -0.46511723910E+02  0.66820822064E+03  0.00000000000E+00 0.  1.
         15    1    1    2    0    0 -0.21536097823E+03  0.33275212352E+03  0.16554768547E+04  0.17022655325E+04  0.00000000000E+00 0. -1.
         15    1    3    3    0    0  0.80853247979E+03 -0.52054013653E+03 -0.54952051049E+03  0.11075466564E+04  0.00000000000E+00 0. -1.
        -16    1    1    2    0    0 -0.70225686291E+03 -0.23060160548E+03 -0.45082020402E+03  0.86578326290E+03  0.00000000000E+00 0.  1.
         16    1    4    4    0    0 -0.23531960037E+03  0.19326582320E+03 -0.13131329012E+03  0.33161750993E+03  0.00000000000E+00 0. -1.
    9900018    1    3    3    0    0  0.25979909600E+03  0.39008861933E+02 -0.14155819205E+02  0.27844717129E+03  0.91187600000E+02 0.  0.
<mgrwt>
<rscale>  0 0.25969814E+04</rscale>
<asrwt>0</asrwt>
<pdfrwt beam="1">  1        2 0.44953288E+00 0.29673971E+04</pdfrwt>
<pdfrwt beam="2">  1       -2 0.42186326E+00 0.29673971E+04</pdfrwt>
<totfact> 0.83114609E-03</totfact>
</mgrwt>
</event>
<event>
11    1  0.3922844E-011  0.3236920E+04  0.7818608E-02  0.8469364E-01
          2   -1    0    0  501    0  0.00000000000E+00  0.00000000000E+00  0.26881235024E+04  0.26881235024E+04  0.00000000000E+00 0. -1.
         -2   -1    0    0    0  501 -0.00000000000E+00 -0.00000000000E+00 -0.25565309415E+04  0.25565309415E+04  0.00000000000E+00 0.  1.
    9900016    2    1    2    0    0 -0.21688158383E+02  0.58609155700E+03  0.26297475601E+03  0.22831322987E+04  0.21907906522E+04 0.  0.
        -24    2    3    3    0    0  0.27047514072E+03  0.88326254821E+03 -0.27751271557E+03  0.96847436232E+03  0.87291192868E+02 0.  0.
        -15    1    3    3    0    0 -0.54389939988E+03 -0.43700750845E+03  0.68679924098E+03  0.97902774069E+03  0.00000000000E+00 0.  1.
        -15    1    1    2    0    0  0.12491014352E+03 -0.70308728545E+03 -0.11119522778E+04  0.13215037431E+04  0.00000000000E+00 0.  1.
         15    1    4    4    0    0  0.93327888006E+02  0.45383252689E+03 -0.13867255021E+03  0.48363636477E+03  0.00000000000E+00 0. -1.
         15    1    1    2    0    0  0.11623626989E+03  0.72611238225E+02 -0.30537873926E+03  0.33472292534E+03  0.00000000000E+00 0. -1.
        -16    1    4    4    0    0  0.17714725272E+03  0.42943002132E+03 -0.13884016536E+03  0.48483799756E+03  0.00000000000E+00 0.  1.
         16    1    1    2    0    0 -0.21945825502E+03  0.44384490224E+02  0.12859488220E+04  0.13052954767E+04  0.00000000000E+00 0. -1.
    9900018    1    3    3    0    0  0.25173610078E+03  0.13983651723E+03 -0.14631176941E+03  0.33563019567E+03  0.91187600000E+02 0.  0.
<mgrwt>
<rscale>  0 0.23218286E+04</rscale>
<asrwt>0</asrwt>
<pdfrwt beam="1">  1        2 0.41355746E+00 0.32369198E+04</pdfrwt>
<pdfrwt beam="2">  1       -2 0.39331245E+00 0.32369198E+04</pdfrwt>
<totfact> 0.17542210E-02</totfact>
</mgrwt>
</event>
<event>
11    1  0.3922844E-011  0.3728946E+04  0.7818608E-02  0.8204876E-01
         -2   -1    0    0    0  501 -0.00000000000E+00  0.00000000000E+00  0.47925936287E+04  0.47925936287E+04  0.00000000000E+00 0.  1.
          2   -1    0    0  501    0  0.00000000000E+00 -0.00000000000E+00 -0.20621298627E+04  0.20621298627E+04  0.00000000000E+00 0. -1.
    9900016    2    1    2    0    0 -0.57235435397E+02 -0.29501455982E+03  0.17157789631E+04  0.28039441704E+04  0.21972473632E+04 0.  0.
        -24    2    3    3    0    0 -0.50171642315E+03 -0.21645327785E+03  0.12122827456E+04  0.13322120633E+04  0.81167330846E+02 0.  0.
        -15    1    3    3    0    0  0.50972301090E+03  0.28291410059E+03  0.80075277157E+03  0.99048621259E+03  0.00000000000E+00 0.  1.
        -15    1    1    2    0    0 -0.15691654714E+04  0.31942855958E+03 -0.23510533543E+03  0.16185145659E+04  0.00000000000E+00 0.  1.
         15    1    4    4    0    0 -0.33394276033E+03 -0.10423315260E+03  0.80141647172E+03  0.87444306757E+03  0.00000000000E+00 0. -1.
         15    1    1    2    0    0  0.13748267312E+03  0.14709160035E+03 -0.24390732733E+03  0.31627236463E+03  0.00000000000E+00 0. -1.
        -16    1    4    4    0    0 -0.16777366282E+03 -0.11222012525E+03  0.41086627384E+03  0.45776899570E+03  0.00000000000E+00 0.  1.
         16    1    1    2    0    0  0.14889182337E+04 -0.17150560011E+03  0.14936974657E+04  0.21159923904E+04  0.00000000000E+00 0. -1.
    9900018    1    3    3    0    0 -0.65242023154E+02 -0.36147538256E+03 -0.29725655397E+03  0.48124589459E+03  0.91187600000E+02 0.  0.
<mgrwt>
<rscale>  0 0.31398866E+04</rscale>
<asrwt>0</asrwt>
<pdfrwt beam="1">  1        2 0.31725075E+00 0.37289458E+04</pdfrwt>
<pdfrwt beam="2">  1       -2 0.73732209E+00 0.37289458E+04</pdfrwt>
<totfact> 0.75738485E-04</totfact>
</mgrwt>
</event>
<event>
11    1  0.3922844E-011  0.3657895E+04  0.7818608E-02  0.8212228E-01
         -2   -1    0    0    0  501 -0.00000000000E+00  0.00000000000E+00  0.44510254566E+04  0.44510254566E+04  0.00000000000E+00 0. -1.
          2   -1    0    0  501    0  0.00000000000E+00 -0.00000000000E+00 -0.18372593551E+04  0.18372593551E+04  0.00000000000E+00 0.  1.
    9900016    2    1    2    0    0  0.24218289471E+03  0.19529977815E+03  0.62537892455E+03  0.22971220045E+04  0.21883500968E+04 0.  0.
        -24    2    3    3    0    0  0.33497113570E+03  0.41931555924E+03  0.12583871505E+04  0.13705156572E+04  0.82120314953E+02 0.  0.
        -15    1    1    2    0    0  0.12656662602E+04 -0.34823593114E+03  0.45841420175E+03  0.13904398319E+04  0.00000000000E+00 0.  1.
        -15    1    3    3    0    0 -0.25517218478E+03 -0.20218073686E+02 -0.22962565522E+02  0.25699979339E+03  0.00000000000E+00 0.  1.
         15    1    1    2    0    0 -0.41279684219E+03  0.29010273969E+03 -0.20491405920E+03  0.54456460054E+03  0.00000000000E+00 0. -1.
         15    1    4    4    0    0  0.25302097292E+03  0.33916123427E+03  0.10608564757E+04  0.11421323993E+04  0.00000000000E+00 0. -1.
        -16    1    4    4    0    0  0.81950162777E+02  0.80154324964E+02  0.19753067483E+03  0.22838325790E+03  0.00000000000E+00 0.  1.
         16    1    1    2    0    0 -0.10950523127E+04 -0.13716658671E+03  0.17348870343E+04  0.20561583747E+04  0.00000000000E+00 0. -1.
    9900018    1    3    3    0    0  0.16238394379E+03 -0.20379770740E+03 -0.61004566046E+03  0.66960655386E+03  0.91187600000E+02 0.  0.
<mgrwt>
<rscale>  0 0.31128206E+04</rscale>
<asrwt>0</asrwt>
<pdfrwt beam="1">  1        2 0.28265529E+00 0.36578948E+04</pdfrwt>
<pdfrwt beam="2">  1       -2 0.68477315E+00 0.36578948E+04</pdfrwt>
<totfact> 0.16160667E-03</totfact>
</mgrwt>
</event>
<event>
11    1  0.3922844E-011  0.3466147E+04  0.7818608E-02  0.8121860E-01
         -1   -1    0    0    0  501 -0.00000000000E+00  0.00000000000E+00  0.94496583676E+03  0.94496583676E+03  0.00000000000E+00 0.  1.
          1   -1    0    0  501    0  0.00000000000E+00 -0.00000000000E+00 -0.31784682765E+04  0.31784682765E+04  0.00000000000E+00 0. -1.
    9900016    2    1    2    0    0  0.33598208820E+03 -0.99717939589E+02 -0.15434295107E+04  0.27119501277E+04  0.22021969053E+04 0.  0.
         24    2    3    3    0    0  0.13762277390E+03 -0.42215881393E+02  0.45976055983E+03  0.48797589359E+03  0.77578939221E+02 0.  0.
        -15    1    4    4    0    0  0.56344699167E+02 -0.14717526451E+02  0.30960072232E+03  0.31503005884E+03  0.00000000000E+00 0.  1.
        -15    1    1    2    0    0 -0.70967559836E+02  0.37188547356E+03 -0.27710516663E+03  0.46917211486E+03  0.00000000000E+00 0.  1.
         15    1    3    3    0    0 -0.11594249286E+03 -0.39181643667E+03 -0.14127645838E+04  0.14706687428E+04  0.00000000000E+00 0. -1.
         15    1    1    2    0    0 -0.46317613611E+03  0.51101032572E+02 -0.19670347885E+03  0.50580204347E+03  0.00000000000E+00 0. -1.
        -16    1    1    2    0    0  0.19816160774E+03 -0.32326856654E+03 -0.21626428365E+03  0.43650982724E+03  0.00000000000E+00 0.  1.
         16    1    4    4    0    0  0.81278074736E+02 -0.27498354942E+02  0.15015983750E+03  0.17294583475E+03  0.00000000000E+00 0. -1.
    9900018    1    3    3    0    0  0.31430180716E+03  0.33431437847E+03 -0.59042548668E+03  0.75330549139E+03  0.91187600000E+02 0.  0.
<mgrwt>
<rscale>  0 0.34661471E+04</rscale>
<asrwt>0</asrwt>
<pdfrwt beam="1">  1        1 0.48899512E+00 0.34661471E+04</pdfrwt>
<pdfrwt beam="2">  1       -1 0.14537936E+00 0.34661471E+04</pdfrwt>
<totfact> 0.13681435E-01</totfact>
</mgrwt>
</event>
<event>
11    1  0.3922844E-011  0.3706630E+04  0.7818608E-02  0.8356004E-01
         -2   -1    0    0    0  501 -0.00000000000E+00  0.00000000000E+00  0.37790001607E+04  0.37790001607E+04  0.00000000000E+00 0. -1.
          2   -1    0    0  501    0  0.00000000000E+00 -0.00000000000E+00 -0.18662811932E+04  0.18662811932E+04  0.00000000000E+00 0.  1.
    9900016    2    1    2    0    0  0.64909115309E+03  0.13354521240E+04  0.46766669157E+03  0.26950669569E+04  0.21999822880E+04 0.  0.
        -24    2    3    3    0    0  0.57952112084E+03  0.46506101274E+03  0.94111453540E+03  0.12017921218E+04  0.80506273734E+02 0.  0.
        -15    1    3    3    0    0 -0.31788524587E+03  0.10029051028E+03 -0.52828567006E+03  0.62465587741E+03  0.00000000000E+00 0.  1.
        -15    1    1    2    0    0 -0.77123211153E+02 -0.71791113535E+03  0.12314184480E+04  0.14274928308E+04  0.00000000000E+00 0. -1.
         15    1    1    2    0    0  0.22298555384E+03 -0.26496658065E+02  0.45123981952E+03  0.50402579778E+03  0.00000000000E+00 0.  1.
         15    1    4    4    0    0  0.50445504193E+03  0.37479766960E+03  0.76338853182E+03  0.98879231034E+03  0.00000000000E+00 0. -1.
        -16    1    4    4    0    0  0.75066078911E+02  0.90263343136E+02  0.17772600358E+03  0.21299981142E+03  0.00000000000E+00 0.  1.
         16    1    1    2    0    0 -0.79495349579E+03 -0.59104433060E+03 -0.23760599154E+03  0.10186957683E+04  0.00000000000E+00 0. -1.
    9900018    1    3    3    0    0  0.38745527812E+03  0.77010060100E+03  0.54837826230E+02  0.86861895776E+03  0.91187600000E+02 0.  0.
<mgrwt>
<rscale>  0 0.26362104E+04</rscale>
<asrwt>0</asrwt>
<pdfrwt beam="1">  1        2 0.28712018E+00 0.37066300E+04</pdfrwt>
<pdfrwt beam="2">  1       -2 0.58138464E+00 0.37066300E+04</pdfrwt>
<totfact> 0.36908887E-03</totfact>
</mgrwt>
</event>
<event>
11    1  0.3922844E-011  0.5118994E+04  0.7818608E-02  0.7810409E-01
          2   -1    0    0  501    0  0.00000000000E+00  0.00000000000E+00  0.20451719098E+04  0.20451719098E+04  0.00000000000E+00 0.  1.
         -2   -1    0    0    0  501 -0.00000000000E+00 -0.00000000000E+00 -0.32031653760E+04  0.32031653760E+04  0.00000000000E+00 0. -1.
    9900016    2    1    2    0    0 -0.25400207800E+03 -0.15068890023E+03 -0.19271269259E+04  0.29380212111E+04  0.21979368162E+04 0.  0.
         24    2    3    3    0    0 -0.55101261964E+03  0.11836041699E+03 -0.15468734682E+04  0.16482733186E+04  0.79770363418E+02 0.  0.
        -15    1    1    2    0    0 -0.17501802521E+03 -0.48173228291E+02  0.25810129395E+03  0.31554436616E+03  0.00000000000E+00 0.  1.
        -15    1    4    4    0    0 -0.16100468983E+03  0.27836859726E+01 -0.49239079710E+03  0.51805304373E+03  0.00000000000E+00 0.  1.
         15    1    3    3    0    0 -0.11315318656E+03  0.38562036323E+03  0.42959199994E+02  0.40416853049E+03  0.00000000000E+00 0. -1.
         15    1    1    2    0    0  0.43191027985E+03  0.35321233999E+03 -0.63103119572E+03  0.84232168257E+03  0.00000000000E+00 0. -1.
        -16    1    1    2    0    0 -0.28901766339E+01 -0.15435021148E+03  0.11420633614E+04  0.11524500260E+04  0.00000000000E+00 0.  1.
         16    1    4    4    0    0 -0.39000792981E+03  0.11557673102E+03 -0.10544826711E+04  0.11302202748E+04  0.00000000000E+00 0. -1.
    9900018    1    3    3    0    0  0.41016372821E+03 -0.65466968046E+03 -0.42321265772E+03  0.88557936205E+03  0.91187600000E+02 0.  0.
<mgrwt>
<rscale>  0 0.51189936E+04</rscale>
<asrwt>0</asrwt>
<pdfrwt beam="1">  1        2 0.31464183E+00 0.51189936E+04</pdfrwt>
<pdfrwt beam="2">  1       -2 0.49279467E+00 0.51189936E+04</pdfrwt>
<totfact> 0.83769314E-03</totfact>
</mgrwt>
</event>
<event>
11    1  0.3922844E-011  0.4195641E+04  0.7818608E-02  0.8114065E-01
          2   -1    0    0  501    0  0.00000000000E+00  0.00000000000E+00  0.19441326298E+04  0.19441326298E+04  0.00000000000E+00 0.  1.
         -2   -1    0    0    0  501 -0.00000000000E+00 -0.00000000000E+00 -0.49872210228E+04  0.49872210228E+04  0.00000000000E+00 0. -1.
    9900016    2    1    2    0    0 -0.12049322981E+04 -0.12451195723E+03 -0.82071283804E+03  0.26477192665E+04  0.22066904362E+04 0.  0.
         24    2    3    3    0    0 -0.21852483177E+03 -0.41363724662E+03 -0.83130500374E+03  0.95761822053E+03  0.84355042279E+02 0.  0.
        -15    1    4    4    0    0 -0.12044099616E+03 -0.30115827951E+03 -0.60658126546E+03  0.68785403574E+03  0.00000000000E+00 0.  1.
        -15    1    1    2    0    0  0.10814555829E+03  0.82171377628E+03  0.36024948131E+03  0.90370829403E+03  0.00000000000E+00 0.  1.
         15    1    1    2    0    0 -0.55530754061E+02  0.38755693035E+03 -0.12536276489E+04  0.13133416620E+04  0.00000000000E+00 0. -1.
         15    1    3    3    0    0 -0.71403155403E+03 -0.23360390173E+03 -0.50207933085E+03  0.90360140412E+03  0.00000000000E+00 0. -1.
        -16    1    1    2    0    0  0.11523174939E+04 -0.10847587494E+04 -0.13289973873E+04  0.20665844301E+04  0.00000000000E+00 0.  1.
         16    1    4    4    0    0 -0.98083835615E+02 -0.11247896711E+03 -0.22472373828E+03  0.26976418479E+03  0.00000000000E+00 0. -1.
    9900018    1    3    3    0    0 -0.27237591234E+03  0.52272919113E+03  0.51267149654E+03  0.78649964186E+03  0.91187600000E+02 0.  0.
<mgrwt>
<rscale>  0 0.34988379E+04</rscale>
<asrwt>0</asrwt>
<pdfrwt beam="1">  1        2 0.29909733E+00 0.41956412E+04</pdfrwt>
<pdfrwt beam="2">  1       -2 0.76726476E+00 0.41956412E+04</pdfrwt>
<totfact> 0.62570625E-04</totfact>
</mgrwt>
</event>
<event>
11    1  0.3922844E-011  0.3734920E+04  0.7818608E-02  0.8253141E-01
         -2   -1    0    0    0  501 -0.00000000000E+00  0.00000000000E+00  0.26013067141E+04  0.26013067141E+04  0.00000000000E+00 0.  1.
          2   -1    0    0  501    0  0.00000000000E+00 -0.00000000000E+00 -0.29492473058E+04  0.29492473058E+04  0.00000000000E+00 0. -1.
    9900016    2    1    2    0    0 -0.49159316207E+03  0.43614978866E+03 -0.32340837578E+03  0.23131435914E+04  0.21941170939E+04 0.  0.
        -24    2    3    3    0    0  0.28074577176E+03  0.64456454002E+03 -0.82636873719E+03  0.10880949932E+04  0.82363765409E+02 0.  0.
        -15    1    1    2    0    0 -0.48435827665E+03 -0.18667040670E+03  0.98016205827E+03  0.11091286857E+04  0.00000000000E+00 0.  1.
        -15    1    3    3    0    0 -0.61913362942E+03  0.17933943741E+03  0.46854609938E+03  0.79688426521E+03  0.00000000000E+00 0.  1.
         15    1    1    2    0    0 -0.40322445617E+03 -0.28863304302E+03 -0.24206455652E+03  0.55180997190E+03  0.00000000000E+00 0. -1.
         15    1    4    4    0    0  0.12909478194E+03  0.20038950948E+03 -0.26825997988E+03  0.35886604052E+03  0.00000000000E+00 0. -1.
        -16    1    4    4    0    0  0.15165098983E+03  0.44417503055E+03 -0.55810875731E+03  0.72922895271E+03  0.00000000000E+00 0.  1.
         16    1    1    2    0    0  0.13791758949E+04  0.39153661057E+02 -0.76262971763E+03  0.15764717709E+04  0.00000000000E+00 0. -1.
    9900018    1    3    3    0    0 -0.15320530441E+03 -0.38775418878E+03  0.34414262025E+02  0.42816433298E+03  0.91187600000E+02 0.  0.
<mgrwt>
<rscale>  0 0.29672659E+04</rscale>
<asrwt>0</asrwt>
<pdfrwt beam="1">  1        2 0.45373036E+00 0.37349202E+04</pdfrwt>
<pdfrwt beam="2">  1       -2 0.40020103E+00 0.37349202E+04</pdfrwt>
<totfact> 0.10558646E-02</totfact>
</mgrwt>
</event>
<event>
11    1  0.3922844E-011  0.4059517E+04  0.7818608E-02  0.8243866E-01
          2   -1    0    0  501    0  0.00000000000E+00  0.00000000000E+00  0.32128949918E+04  0.32128949918E+04  0.00000000000E+00 0.  1.
         -2   -1    0    0    0  501 -0.00000000000E+00 -0.00000000000E+00 -0.22811013314E+04  0.22811013314E+04  0.00000000000E+00 0. -1.
    9900016    2    1    2    0    0  0.60558562492E+03 -0.12992191606E+04 -0.13744728465E+03  0.26591301312E+04  0.22354813625E+04 0.  0.
         24    2    3    3    0    0  0.66607259371E+03 -0.42304714757E+03  0.90998906090E+03  0.12069318359E+04  0.77348408991E+02 0.  0.
        -15    1    4    4    0    0  0.52329349074E+03 -0.35429785804E+03  0.68805284387E+03  0.93422682771E+03  0.00000000000E+00 0.  1.
        -15    1    1    2    0    0 -0.42004000997E+03  0.40873883291E+02  0.15607503488E+03  0.44995966577E+03  0.00000000000E+00 0.  1.
         15    1    1    2    0    0  0.24306749315E+03  0.60214993494E+03 -0.46553613667E+03  0.79899326964E+03  0.00000000000E+00 0. -1.
         15    1    3    3    0    0  0.33159706803E+01 -0.78881706375E+03 -0.10467723345E+04  0.13107157114E+04  0.00000000000E+00 0. -1.
        -16    1    1    2    0    0 -0.42861310810E+03  0.65619534235E+03  0.13787020469E+04  0.15859132567E+04  0.00000000000E+00 0.  1.
         16    1    4    4    0    0  0.14277910297E+03 -0.68749289526E+02  0.22193621703E+03  0.27270500817E+03  0.00000000000E+00 0. -1.
    9900018    1    3    3    0    0 -0.63802939469E+02 -0.87354949266E+02 -0.66401105138E+00  0.14148258391E+03  0.91187600000E+02 0.  0.
<mgrwt>
<rscale>  0 0.29995270E+04</rscale>
<asrwt>0</asrwt>
<pdfrwt beam="1">  1        2 0.49429154E+00 0.40595172E+04</pdfrwt>
<pdfrwt beam="2">  1       -2 0.35093867E+00 0.40595172E+04</pdfrwt>
<totfact> 0.14639985E-02</totfact>
</mgrwt>
</event>
<event>
11    1  0.3922844E-011  0.4287449E+04  0.7818608E-02  0.8245070E-01
         -2   -1    0    0    0  501 -0.00000000000E+00  0.00000000000E+00  0.37660607604E+04  0.37660607604E+04  0.00000000000E+00 0.  1.
          2   -1    0    0  501    0  0.00000000000E+00 -0.00000000000E+00 -0.18810561135E+04  0.18810561135E+04  0.00000000000E+00 0. -1.
    9900016    2    1    2    0    0  0.18880030993E+03 -0.14849063521E+04  0.10971418045E+04  0.28771958994E+04  0.21986231312E+04 0.  0.
         24    2    3    3    0    0 -0.55970264575E+03 -0.76725789730E+03  0.13427675038E+04  0.16465308822E+04  0.78023357664E+02 0.  0.
        -15    1    1    2    0    0 -0.54789090210E+03  0.13358066184E+03  0.25240860342E+03  0.61784976888E+03  0.00000000000E+00 0. -1.
        -15    1    4    4    0    0 -0.34981054628E+03 -0.41576589297E+03  0.78114791256E+03  0.95153599898E+03  0.00000000000E+00 0.  1.
         15    1    3    3    0    0  0.57795260385E+03 -0.18461935199E+03  0.14315787572E+02  0.60689246099E+03  0.00000000000E+00 0. -1.
         15    1    1    2    0    0 -0.41240412487E+03 -0.80510346214E+02 -0.50657350079E+02  0.42323190472E+03  0.00000000000E+00 0.  1.
        -16    1    1    2    0    0  0.77149471704E+03  0.14318360364E+04  0.58611158905E+03  0.17288393009E+04  0.00000000000E+00 0.  1.
         16    1    4    4    0    0 -0.20989209947E+03 -0.35149200432E+03  0.56161959121E+03  0.69499488326E+03  0.00000000000E+00 0. -1.
    9900018    1    3    3    0    0  0.17055035183E+03 -0.53302910277E+03 -0.25994148686E+03  0.62377255622E+03  0.91187600000E+02 0.  0.
<mgrwt>
<rscale>  0 0.29953145E+04</rscale>
<asrwt>0</asrwt>
<pdfrwt beam="1">  1        2 0.28939325E+00 0.42874489E+04</pdfrwt>
<pdfrwt beam="2">  1       -2 0.57939396E+00 0.42874489E+04</pdfrwt>
<totfact> 0.35982501E-03</totfact>
</mgrwt>
</event>
<event>
11    1  0.3922844E-011  0.5827993E+04  0.7818608E-02  0.7712102E-01
         -2   -1    0    0    0  501 -0.00000000000E+00  0.00000000000E+00  0.18793595109E+04  0.18793595109E+04  0.00000000000E+00 0.  1.
          2   -1    0    0  501    0  0.00000000000E+00 -0.00000000000E+00 -0.45182285574E+04  0.45182285574E+04  0.00000000000E+00 0. -1.
    9900016    2    1    2    0    0  0.16921683534E+04  0.35189934326E+03 -0.10711726304E+04  0.29948037970E+04  0.21986750770E+04 0.  0.
        -24    2    3    3    0    0  0.75133002070E+03 -0.12639004406E+03 -0.14333132603E+04  0.16248520237E+04  0.72704563724E+02 0.  0.
        -15    1    1    2    0    0 -0.59443539564E+03 -0.34759927309E+03  0.93412436300E+02  0.69491335971E+03  0.00000000000E+00 0.  1.
        -15    1    3    3    0    0  0.39850835783E+03  0.31434642052E+03 -0.21938916494E+03  0.55295043995E+03  0.00000000000E+00 0.  1.
         15    1    1    2    0    0 -0.92952961597E+03  0.84887195486E+03 -0.11103438001E+04  0.16785327692E+04  0.00000000000E+00 0. -1.
         15    1    4    4    0    0  0.53731064596E+03 -0.72372647811E+02 -0.10756690720E+04  0.12045764745E+04  0.00000000000E+00 0. -1.
        -16    1    4    4    0    0  0.21401937474E+03 -0.54017396250E+02 -0.35764418827E+03  0.42027554921E+03  0.00000000000E+00 0.  1.
         16    1    1    2    0    0 -0.16820334181E+03 -0.85317202503E+03 -0.55076505234E+03  0.10293381424E+04  0.00000000000E+00 0. -1.
    9900018    1    3    3    0    0  0.54232997489E+03  0.16394296680E+03  0.58152979482E+03  0.81700133334E+03  0.91187600000E+02 0.  0.
<mgrwt>
<rscale>  0 0.58279931E+04</rscale>
<asrwt>0</asrwt>
<pdfrwt beam="1">  1        2 0.69511208E+00 0.58279931E+04</pdfrwt>
<pdfrwt beam="2">  1       -2 0.28913224E+00 0.58279931E+04</pdfrwt>
<totfact> 0.29487268E-03</totfact>
</mgrwt>
</event>
<event>
11    1  0.3922844E-011  0.3388917E+04  0.7818608E-02  0.8437357E-01
          2   -1    0    0  501    0  0.00000000000E+00  0.00000000000E+00  0.38835520835E+04  0.38835520835E+04  0.00000000000E+00 0. -1.
         -2   -1    0    0    0  501 -0.00000000000E+00 -0.00000000000E+00 -0.13944351094E+04  0.13944351094E+04  0.00000000000E+00 0.  1.
    9900016    2    1    2    0    0  0.32030899538E+03  0.57923644090E+03  0.23410104984E+04  0.32810378293E+04  0.22015372758E+04 0.  0.
        -24    2    3    3    0    0  0.35198447016E+03  0.30302179789E+03 -0.24968110552E+03  0.53350036380E+03  0.81035217615E+02 0.  0.
        -15    1    1    2    0    0 -0.53392778575E+03  0.45394404045E+03 -0.32354938702E+03  0.77189913726E+03  0.00000000000E+00 0.  1.
        -15    1    3    3    0    0  0.74442533668E+02  0.41854054223E+03  0.54046398309E+03  0.68761849403E+03  0.00000000000E+00 0.  1.
         15    1    1    2    0    0  0.11949349857E+03 -0.30325510936E+02  0.47194593338E+02  0.13200629703E+03  0.00000000000E+00 0. -1.
         15    1    4    4    0    0  0.18635022369E+03  0.21136999676E+03 -0.15981837211E+03  0.32395307293E+03  0.00000000000E+00 0. -1.
        -16    1    4    4    0    0  0.16563424647E+03  0.91651801127E+02 -0.89862733414E+02  0.20954729087E+03  0.00000000000E+00 0.  1.
         16    1    1    2    0    0  0.94125291805E+02 -0.10028549704E+04  0.42446126942E+03  0.10930439293E+04  0.00000000000E+00 0. -1.
    9900018    1    3    3    0    0 -0.10611800845E+03 -0.14232589921E+03  0.20502276208E+04  0.20599189714E+04  0.91187600000E+02 0.  0.
<mgrwt>
<rscale>  0 0.24057417E+04</rscale>
<asrwt>0</asrwt>
<pdfrwt beam="1">  1        2 0.59746955E+00 0.33889168E+04</pdfrwt>
<pdfrwt beam="2">  1       -2 0.21452848E+00 0.33889168E+04</pdfrwt>
<totfact> 0.36145609E-02</totfact>
</mgrwt>
</event>
<event>
11    1  0.3922844E-011  0.5252129E+04  0.7818608E-02  0.7790749E-01
          2   -1    0    0  501    0  0.00000000000E+00  0.00000000000E+00  0.48632689144E+04  0.48632689144E+04  0.00000000000E+00 0. -1.
         -2   -1    0    0    0  501 -0.00000000000E+00 -0.00000000000E+00 -0.14180205960E+04  0.14180205960E+04  0.00000000000E+00 0.  1.
    9900016    2    1    2    0    0  0.70811796334E+03 -0.53859994264E+03  0.13979186631E+04  0.27552105968E+04  0.22012468957E+04 0.  0.
         24    2    3    3    0    0  0.40462275904E+02 -0.52876384209E+03  0.26774575684E+03  0.59982504944E+03  0.82909005235E+02 0.  0.
        -15    1    1    2    0    0  0.31384156104E+03  0.38407540964E+03  0.21216761010E+03  0.53946783083E+03  0.00000000000E+00 0.  1.
        -15    1    4    4    0    0  0.18529547219E+02 -0.37560534855E+03  0.14783197685E+03  0.40407550700E+03  0.00000000000E+00 0.  1.
         15    1    1    2    0    0 -0.11507093374E+04 -0.75947156019E+03  0.14042661211E+04  0.19679665569E+04  0.00000000000E+00 0. -1.
         15    1    3    3    0    0  0.34981523711E+03 -0.63866441232E+03 -0.99765875740E+02  0.73499398749E+03  0.00000000000E+00 0. -1.
        -16    1    1    2    0    0  0.12874981301E+03  0.91399609319E+03  0.43089592404E+03  0.10186445259E+04  0.00000000000E+00 0.  1.
         16    1    4    4    0    0  0.21932728684E+02 -0.15315849355E+03  0.11991377999E+03  0.19574954244E+03  0.00000000000E+00 0. -1.
    9900018    1    3    3    0    0  0.31784045033E+03  0.62882831178E+03  0.12299387820E+04  0.14203915599E+04  0.91187600000E+02 0.  0.
<mgrwt>
<rscale>  0 0.52521293E+04</rscale>
<asrwt>0</asrwt>
<pdfrwt beam="1">  1        2 0.74819521E+00 0.52521293E+04</pdfrwt>
<pdfrwt beam="2">  1       -2 0.21815702E+00 0.52521293E+04</pdfrwt>
<totfact> 0.35901634E-03</totfact>
</mgrwt>
</event>
<event>
11    1  0.3922844E-011  0.4173589E+04  0.7818608E-02  0.8126876E-01
          2   -1    0    0  501    0  0.00000000000E+00  0.00000000000E+00  0.37320595518E+04  0.37320595518E+04  0.00000000000E+00 0. -1.
         -2   -1    0    0    0  501 -0.00000000000E+00 -0.00000000000E+00 -0.26983790072E+04  0.26983790072E+04  0.00000000000E+00 0.  1.
    9900016    2    1    2    0    0  0.49330647755E+03  0.70115293018E+03 -0.46803942565E+03  0.24112420894E+04  0.22045545576E+04 0.  0.
        -24    2    3    3    0    0  0.57621041791E+03 -0.19560940734E+03 -0.51323544258E+03  0.80001865112E+03  0.79609903073E+02 0.  0.
        -15    1    1    2    0    0 -0.83194343882E+03  0.42988296755E+03 -0.70191186849E+03  0.11703031754E+04  0.00000000000E+00 0.  1.
        -15    1    3    3    0    0  0.32256087299E+03  0.36485466131E+03  0.57471440834E+03  0.75330013395E+03  0.00000000000E+00 0.  1.
         15    1    4    4    0    0  0.12767368086E+03 -0.48628572880E+02 -0.74574344605E+02  0.15564909173E+03  0.00000000000E+00 0. -1.
         15    1    1    2    0    0  0.41129972482E+03 -0.67522047905E+03  0.23201243521E+03  0.82396597567E+03  0.00000000000E+00 0. -1.
        -16    1    4    4    0    0  0.44853673705E+03 -0.14698083446E+03 -0.43866109797E+03  0.64436955938E+03  0.00000000000E+00 0.  1.
         16    1    1    2    0    0 -0.72662763550E+02 -0.45581541867E+03  0.19716194035E+04  0.20249273186E+04  0.00000000000E+00 0. -1.
    9900018    1    3    3    0    0 -0.40546481335E+03  0.53190767620E+03 -0.52951839141E+03  0.85792330432E+03  0.91187600000E+02 0.  0.
<mgrwt>
<rscale>  0 0.34453025E+04</rscale>
<asrwt>0</asrwt>
<pdfrwt beam="1">  1        2 0.57416301E+00 0.41735891E+04</pdfrwt>
<pdfrwt beam="2">  1       -2 0.41513523E+00 0.41735891E+04</pdfrwt>
<totfact> 0.23697072E-03</totfact>
</mgrwt>
</event>
<event>
11    1  0.3922844E-011  0.3338313E+04  0.7818608E-02  0.8393583E-01
          1   -1    0    0  501    0  0.00000000000E+00  0.00000000000E+00  0.30786340808E+04  0.30786340808E+04  0.00000000000E+00 0. -1.
         -1   -1    0    0    0  501 -0.00000000000E+00 -0.00000000000E+00 -0.19823506935E+04  0.19823506935E+04  0.00000000000E+00 0.  1.
    9900016    2    1    2    0    0 -0.12938853884E+04 -0.19480004617E+03 -0.76967908859E+02  0.25737098085E+04  0.22149428126E+04 0.  0.
        -24    2    3    3    0    0 -0.96059718791E+03 -0.90437088272E+02 -0.43715910254E+03  0.10622188150E+04  0.79214301902E+02 0.  0.
        -15    1    1    2    0    0  0.41593879359E+03  0.69192212197E+03  0.11309239159E+04  0.13895143779E+04  0.00000000000E+00 0.  1.
        -15    1    3    3    0    0 -0.89269373584E+03 -0.50221403658E+02  0.16232667427E+03  0.90872121389E+03  0.00000000000E+00 0.  1.
         15    1    4    4    0    0 -0.61136282414E+03 -0.29738539490E+02 -0.24782813820E+03  0.66035420008E+03  0.00000000000E+00 0. -1.
         15    1    1    2    0    0  0.25821751832E+03 -0.60609508108E+02  0.18898345080E+03  0.32567551937E+03  0.00000000000E+00 0. -1.
        -16    1    4    4    0    0 -0.34923436376E+03 -0.60698548783E+02 -0.18933096434E+03  0.40186461491E+03  0.00000000000E+00 0.  1.
         16    1    1    2    0    0  0.61972907651E+03 -0.43651256769E+03 -0.14665607053E+03  0.77208506853E+03  0.00000000000E+00 0. -1.
    9900018    1    3    3    0    0  0.55940553532E+03 -0.54141554239E+02  0.19786451941E+03  0.60276977967E+03  0.91187600000E+02 0.  0.
<mgrwt>
<rscale>  0 0.25265643E+04</rscale>
<asrwt>0</asrwt>
<pdfrwt beam="1">  1        1 0.47363601E+00 0.33383133E+04</pdfrwt>
<pdfrwt beam="2">  1       -1 0.30497703E+00 0.33383133E+04</pdfrwt>
<totfact> 0.12663055E-02</totfact>
</mgrwt>
</event>
<event>
11    1  0.3922844E-011  0.3177201E+04  0.7818608E-02  0.8457676E-01
          2   -1    0    0  501    0  0.00000000000E+00  0.00000000000E+00  0.33440061410E+04  0.33440061410E+04  0.00000000000E+00 0. -1.
         -2   -1    0    0    0  501 -0.00000000000E+00 -0.00000000000E+00 -0.14998787021E+04  0.14998787021E+04  0.00000000000E+00 0.  1.
    9900016    2    1    2    0    0 -0.73586509903E+03 -0.33183102704E+03  0.81025487138E+03  0.24661762188E+04  0.21849262943E+04 0.  0.
        -24    2    3    3    0    0  0.18228041065E+03 -0.10789337445E+02 -0.62766409892E+03  0.65841703641E+03  0.78792225838E+02 0.  0.
        -15    1    3    3    0    0 -0.12067794399E+03  0.12784947971E+03  0.21985430220E+03  0.28150412044E+03  0.00000000000E+00 0.  1.
        -15    1    1    2    0    0  0.29707115744E+03  0.36024692249E+03 -0.51880700466E+03  0.69798984651E+03  0.00000000000E+00 0.  1.
         15    1    4    4    0    0  0.23782549020E+02 -0.28966402713E+02 -0.15846553251E+03  0.16283730260E+03  0.00000000000E+00 0. -1.
         15    1    1    2    0    0  0.18455208370E+03 -0.13010921873E+03  0.20655997789E+03  0.30603088874E+03  0.00000000000E+00 0. -1.
        -16    1    4    4    0    0  0.15849786163E+03  0.18177065268E+02 -0.46919856641E+03  0.49557973381E+03  0.00000000000E+00 0.  1.
         16    1    1    2    0    0  0.25424185789E+03  0.10169332329E+03  0.13461195943E+04  0.13736878890E+04  0.00000000000E+00 0. -1.
    9900018    1    3    3    0    0 -0.79746756569E+03 -0.44889116931E+03  0.12180646681E+04  0.15262550620E+04  0.91187600000E+02 0.  0.
<mgrwt>
<rscale>  0 0.23520527E+04</rscale>
<asrwt>0</asrwt>
<pdfrwt beam="1">  1        2 0.51446248E+00 0.31772009E+04</pdfrwt>
<pdfrwt beam="2">  1       -2 0.23075057E+00 0.31772009E+04</pdfrwt>
<totfact> 0.71346788E-02</totfact>
</mgrwt>
</event>
<event>
11    1  0.3922844E-011  0.4261220E+04  0.7818608E-02  0.8030007E-01
         -2   -1    0    0    0  501 -0.00000000000E+00  0.00000000000E+00  0.32596944631E+04  0.32596944631E+04  0.00000000000E+00 0.  1.
          2   -1    0    0  501    0  0.00000000000E+00 -0.00000000000E+00 -0.48472646290E+04  0.48472646290E+04  0.00000000000E+00 0. -1.
    9900016    2    1    2    0    0 -0.72777532082E+03 -0.66697480912E+03 -0.13020386427E+03  0.24172123653E+04  0.22026007943E+04 0.  0.
        -24    2    3    3    0    0 -0.99247267514E+03 -0.82394085625E+02 -0.45849211642E+03  0.10994076222E+04  0.81800383193E+02 0.  0.
        -15    1    3    3    0    0  0.21368429563E+03 -0.23397923064E+03  0.71706872051E+03  0.78396097384E+03  0.00000000000E+00 0.  1.
        -15    1    1    2    0    0  0.50021114952E+03  0.32086041105E+03  0.20003912589E+04  0.20867984536E+04  0.00000000000E+00 0.  1.
         15    1    1    2    0    0 -0.32819325910E+03 -0.38565370997E+02 -0.95634643902E+03  0.10118283523E+04  0.00000000000E+00 0. -1.
         15    1    4    4    0    0 -0.40971139284E+03 -0.68594778984E+02 -0.21387484719E+03  0.46723775467E+03  0.00000000000E+00 0. -1.
        -16    1    4    4    0    0 -0.58276128230E+03 -0.13799306641E+02 -0.24461726923E+03  0.63216986753E+03  0.00000000000E+00 0.  1.
         16    1    1    2    0    0  0.55575743041E+03  0.38467976907E+03 -0.25014111215E+04  0.25911199210E+04  0.00000000000E+00 0. -1.
    9900018    1    3    3    0    0  0.51013058694E+02 -0.35060149286E+03 -0.38878046836E+03  0.53384376921E+03  0.91187600000E+02 0.  0.
<mgrwt>
<rscale>  0 0.38761534E+04</rscale>
<asrwt>0</asrwt>
<pdfrwt beam="1">  1        2 0.74573302E+00 0.42612199E+04</pdfrwt>
<pdfrwt beam="2">  1       -2 0.50149145E+00 0.42612199E+04</pdfrwt>
<totfact> 0.58969372E-05</totfact>
</mgrwt>
</event>
<event>
11    1  0.3922844E-011  0.3386611E+04  0.7818608E-02  0.8319837E-01
          2   -1    0    0  501    0  0.00000000000E+00  0.00000000000E+00  0.31208726234E+04  0.31208726234E+04  0.00000000000E+00 0. -1.
         -2   -1    0    0    0  501 -0.00000000000E+00 -0.00000000000E+00 -0.19255718249E+04  0.19255718249E+04  0.00000000000E+00 0.  1.
    9900016    2    1    2    0    0  0.30320742346E+03 -0.62806906815E+02  0.55606388913E+03  0.22837738738E+04  0.21932935528E+04 0.  0.
         24    2    3    3    0    0  0.17229373556E+03 -0.70033491094E+02 -0.76242861528E+03  0.78886224560E+03  0.80102608820E+02 0.  0.
        -15    1    1    2    0    0 -0.32985363074E+03  0.31275936767E+03  0.81948415417E+02  0.46188459876E+03  0.00000000000E+00 0.  1.
        -15    1    4    4    0    0  0.10076765938E+03 -0.73211052806E+02 -0.57236246794E+03  0.58575828986E+03  0.00000000000E+00 0.  1.
         15    1    1    2    0    0  0.82270932066E+03  0.57557113221E+03 -0.45705653341E+02  0.10050978864E+04  0.00000000000E+00 0. -1.
         15    1    3    3    0    0  0.32012996723E+03  0.22348829179E+03  0.88067543113E+03  0.96333764978E+03  0.00000000000E+00 0. -1.
        -16    1    1    2    0    0 -0.79606311338E+03 -0.82552359307E+03  0.60299414733E+03  0.12956880894E+04  0.00000000000E+00 0.  1.
         16    1    4    4    0    0  0.71526076177E+02  0.31775617116E+01 -0.19006614734E+03  0.20310395574E+03  0.00000000000E+00 0. -1.
    9900018    1    3    3    0    0 -0.18921627932E+03 -0.21626170752E+03  0.43781707329E+03  0.53157397844E+03  0.91187600000E+02 0.  0.
<mgrwt>
<rscale>  0 0.27472428E+04</rscale>
<asrwt>0</asrwt>
<pdfrwt beam="1">  1        2 0.48013425E+00 0.33866108E+04</pdfrwt>
<pdfrwt beam="2">  1       -2 0.29624182E+00 0.33866108E+04</pdfrwt>
<totfact> 0.38681760E-02</totfact>
</mgrwt>
</event>
<event>
11    1  0.3922844E-011  0.5471604E+04  0.7818608E-02  0.7759609E-01
          2   -1    0    0  501    0  0.00000000000E+00  0.00000000000E+00  0.35132080512E+04  0.35132080512E+04  0.00000000000E+00 0.  1.
         -2   -1    0    0    0  501 -0.00000000000E+00 -0.00000000000E+00 -0.21304211753E+04  0.21304211753E+04  0.00000000000E+00 0. -1.
    9900016    2    1    2    0    0  0.28142317220E+02 -0.89703633933E+03  0.57487883311E+02  0.23815071594E+04  0.22051769338E+04 0.  0.
        -24    2    3    3    0    0  0.71167989997E+03 -0.54931722054E+03 -0.32159134071E+03  0.95814486998E+03  0.79893132655E+02 0.  0.
        -15    1    1    2    0    0  0.76154108479E+03 -0.34647565054E+03  0.14729207463E+04  0.16939556443E+04  0.00000000000E+00 0.  1.
        -15    1    3    3    0    0 -0.85241279237E+03 -0.50721799700E+03  0.53710375897E+03  0.11279885252E+04  0.00000000000E+00 0.  1.
         15    1    1    2    0    0 -0.58386710190E+03  0.49755339925E+03  0.52409561186E+02  0.76889982435E+03  0.00000000000E+00 0. -1.
         15    1    4    4    0    0  0.51961897832E+03 -0.35576108585E+03 -0.23244432741E+03  0.67126760548E+03  0.00000000000E+00 0. -1.
        -16    1    4    4    0    0  0.19206092166E+03 -0.19355613469E+03 -0.89147013308E+02  0.28687726450E+03  0.00000000000E+00 0.  1.
         16    1    1    2    0    0 -0.20581630011E+03  0.74595859062E+03 -0.20003131481E+03  0.79926659834E+03  0.00000000000E+00 0. -1.
    9900018    1    3    3    0    0  0.16887520961E+03  0.15949887820E+03 -0.15802453494E+03  0.29537376425E+03  0.91187600000E+02 0.  0.
<mgrwt>
<rscale>  0 0.54716041E+04</rscale>
<asrwt>0</asrwt>
<pdfrwt beam="1">  1        2 0.54049355E+00 0.54716041E+04</pdfrwt>
<pdfrwt beam="2">  1       -2 0.32775710E+00 0.54716041E+04</pdfrwt>
<totfact> 0.11939387E-02</totfact>
</mgrwt>
</event>
<event>
11    1  0.3922844E-011  0.5113351E+04  0.7818608E-02  0.7811256E-01
         -1   -1    0    0    0  501 -0.00000000000E+00  0.00000000000E+00  0.27561643505E+04  0.27561643505E+04  0.00000000000E+00 0.  1.
          1   -1    0    0  501    0  0.00000000000E+00 -0.00000000000E+00 -0.23716256149E+04  0.23716256149E+04  0.00000000000E+00 0. -1.
    9900016    2    1    2    0    0 -0.10022694344E+03  0.32364034196E+03  0.13292024769E+03  0.22444855931E+04  0.22147819925E+04 0.  0.
        -24    2    3    3    0    0  0.26872321433E+03  0.50179801073E+01 -0.65819312224E+03  0.71532111001E+03  0.78922482367E+02 0.  0.
        -15    1    3    3    0    0 -0.25559160521E+03  0.26995281380E+02  0.10698706866E+04  0.11003086384E+04  0.00000000000E+00 0.  1.
        -15    1    1    2    0    0 -0.63588995516E+03  0.50782243215E+03  0.95017405583E+03  0.12510277351E+04  0.00000000000E+00 0.  1.
         15    1    1    2    0    0 -0.13428089481E+03 -0.26266194140E+03 -0.48977002145E+03  0.57174935775E+03  0.00000000000E+00 0. -1.
         15    1    4    4    0    0  0.17538542036E+03 -0.16474779747E+02 -0.33857525009E+03  0.38166040405E+03  0.00000000000E+00 0. -1.
        -16    1    4    4    0    0  0.93337793964E+02  0.21492759854E+02 -0.31961787215E+03  0.33366070596E+03  0.00000000000E+00 0.  1.
         16    1    1    2    0    0  0.87039779341E+03 -0.56880083271E+03 -0.20878554643E+03  0.10605272795E+04  0.00000000000E+00 0. -1.
    9900018    1    3    3    0    0 -0.11335855255E+03  0.29162708047E+03 -0.27875731662E+03  0.42885584462E+03  0.91187600000E+02 0.  0.
<mgrwt>
<rscale>  0 0.51133511E+04</rscale>
<asrwt>0</asrwt>
<pdfrwt beam="1">  1        1 0.36486548E+00 0.51133511E+04</pdfrwt>
<pdfrwt beam="2">  1       -1 0.42402529E+00 0.51133511E+04</pdfrwt>
<totfact> 0.58228816E-03</totfact>
</mgrwt>
</event>
<event>
11    1  0.3922844E-011  0.5324046E+04  0.7818608E-02  0.7780376E-01
          2   -1    0    0  501    0  0.00000000000E+00  0.00000000000E+00  0.25548885581E+04  0.25548885581E+04  0.00000000000E+00 0. -1.
         -2   -1    0    0    0  501 -0.00000000000E+00 -0.00000000000E+00 -0.27736495676E+04  0.27736495676E+04  0.00000000000E+00 0.  1.
    9900016    2    1    2    0    0  0.77208718144E+03  0.68744979583E+03  0.22289755345E+03  0.24377378440E+04  0.21964008375E+04 0.  0.
        -24    2    3    3    0    0  0.11422900393E+04  0.48797818161E+01  0.14391087822E+02  0.11452824808E+04  0.81329646269E+02 0.  0.
        -15    1    3    3    0    0 -0.47112385908E+03 -0.33249605457E+02 -0.12879465409E+03  0.48954191831E+03  0.00000000000E+00 0.  1.
        -15    1    1    2    0    0 -0.10692369719E+04 -0.72099097553E+03 -0.56593068773E+03  0.14083228437E+04  0.00000000000E+00 0.  1.
         15    1    1    2    0    0 -0.27074850159E+03  0.50761613593E+03  0.39154706075E+03  0.69590803512E+03  0.00000000000E+00 0. -1.
         15    1    4    4    0    0  0.11221003649E+04  0.12701161289E+02  0.21841438443E+02  0.11223847811E+04  0.00000000000E+00 0. -1.
        -16    1    4    4    0    0  0.20189674401E+02 -0.78213794731E+01 -0.74503506211E+01  0.22897699746E+02  0.00000000000E+00 0.  1.
         16    1    1    2    0    0  0.56789829202E+03 -0.47407495623E+03 -0.26727493598E+03  0.78656940292E+03  0.00000000000E+00 0. -1.
    9900018    1    3    3    0    0  0.10092100122E+03  0.71581961947E+03  0.33730111972E+03  0.80291344482E+03  0.91187600000E+02 0.  0.
<mgrwt>
<rscale>  0 0.53240457E+04</rscale>
<asrwt>0</asrwt>
<pdfrwt beam="1">  1        2 0.39305978E+00 0.53240457E+04</pdfrwt>
<pdfrwt beam="2">  1       -2 0.42671532E+00 0.53240457E+04</pdfrwt>
<totfact> 0.11383686E-02</totfact>
</mgrwt>
</event>
<event>
11    1  0.3922844E-011  0.5265820E+04  0.7818608E-02  0.7788761E-01
         -2   -1    0    0    0  501 -0.00000000000E+00  0.00000000000E+00  0.34567779643E+04  0.34567779643E+04  0.00000000000E+00 0.  1.
          2   -1    0    0  501    0  0.00000000000E+00 -0.00000000000E+00 -0.20053981414E+04  0.20053981414E+04  0.00000000000E+00 0. -1.
    9900016    2    1    2    0    0  0.31634212737E+03 -0.77612115233E+03  0.87504510246E+03  0.25135321261E+04  0.22022042215E+04 0.  0.
         24    2    3    3    0    0  0.97391222717E+03 -0.82691577955E+03  0.55206716827E+03  0.13944130993E+04  0.85527776262E+02 0.  0.
        -15    1    1    2    0    0 -0.23846426417E+03  0.32645636839E+03  0.89817655045E+02  0.41413304252E+03  0.00000000000E+00 0.  1.
        -15    1    4    4    0    0  0.10925826027E+03 -0.72873909331E+02  0.34355911432E+02  0.13575088489E+03  0.00000000000E+00 0.  1.
         15    1    3    3    0    0 -0.44707453240E+03  0.30839121591E+03  0.49394392462E+03  0.73413989147E+03  0.00000000000E+00 0. -1.
         15    1    1    2    0    0  0.75581306596E+02 -0.10101354669E+04  0.10836715717E+03  0.10187392385E+04  0.00000000000E+00 0. -1.
        -16    1    1    2    0    0 -0.15345916980E+03  0.14598002508E+04  0.37814990823E+03  0.15157716986E+04  0.00000000000E+00 0.  1.
         16    1    4    4    0    0  0.86465396691E+03 -0.75404187022E+03  0.51771125684E+03  0.12586622144E+04  0.00000000000E+00 0. -1.
    9900018    1    3    3    0    0 -0.21049556741E+03 -0.25759658869E+03 -0.17096599043E+03  0.38497913538E+03  0.91187600000E+02 0.  0.
<mgrwt>
<rscale>  0 0.52658204E+04</rscale>
<asrwt>0</asrwt>
<pdfrwt beam="1">  1        2 0.30852279E+00 0.52658204E+04</pdfrwt>
<pdfrwt beam="2">  1       -2 0.53181199E+00 0.52658204E+04</pdfrwt>
<totfact> 0.51139591E-03</totfact>
</mgrwt>
</event>
<event>
11    1  0.5259137E-011  0.4973541E+04  0.7818608E-02  0.7832602E-01
         -2   -1    0    0    0  501 -0.00000000000E+00  0.00000000000E+00  0.18404399398E+04  0.18404399398E+04  0.00000000000E+00 0. -1.
          2   -1    0    0  501    0  0.00000000000E+00 -0.00000000000E+00 -0.33600815509E+04  0.33600815509E+04  0.00000000000E+00 0.  1.
    9900016    2    1    2    0    0  0.17112760220E+03  0.36637563288E+03 -0.41344610068E+03  0.22781604888E+04  0.22035339285E+04 0.  0.
         24    2    3    3    0    0  0.99113685352E+03  0.14216780550E+03 -0.68798051062E+03  0.12173844107E+04  0.78381587156E+02 0.  0.
        -15    1    4    4    0    0  0.14004631504E+03  0.11730809798E+02 -0.12943271746E+03  0.19105865749E+03  0.00000000000E+00 0.  1.
        -15    1    1    2    0    0 -0.47670288820E+03 -0.13822501267E+03 -0.54045957024E+03  0.73379039569E+03  0.00000000000E+00 0.  1.
         15    1    3    3    0    0 -0.62322517644E+03  0.17082999576E+03 -0.70192089648E+02  0.65001495171E+03  0.00000000000E+00 0. -1.
         15    1    1    2    0    0  0.41712139588E+02 -0.20016339941E+03  0.78542495506E+03  0.81160190308E+03  0.00000000000E+00 0. -1.
        -16    1    1    2    0    0  0.26386314641E+03 -0.27987220793E+02 -0.13511608952E+04  0.13769687031E+04  0.00000000000E+00 0.  1.
         16    1    4    4    0    0  0.85109053848E+03  0.13043699570E+03 -0.55854779316E+03  0.10263257532E+04  0.00000000000E+00 0. -1.
    9900018    1    3    3    0    0 -0.19678407488E+03  0.53377831619E+02  0.34472649959E+03  0.41076112638E+03  0.91187600000E+02 0.  0.
<mgrwt>
<rscale>  0 0.49735413E+04</rscale>
<asrwt>0</asrwt>
<pdfrwt beam="1">  1        2 0.51693563E+00 0.49735413E+04</pdfrwt>
<pdfrwt beam="2">  1       -2 0.28314460E+00 0.49735413E+04</pdfrwt>
<totfact> 0.29790975E-02</totfact>
</mgrwt>
</event>
<event>
11    1  0.3922844E-011  0.5457656E+04  0.7818608E-02  0.7761543E-01
         -2   -1    0    0    0  501 -0.00000000000E+00  0.00000000000E+00  0.25989466164E+04  0.25989466164E+04  0.00000000000E+00 0. -1.
          2   -1    0    0  501    0  0.00000000000E+00 -0.00000000000E+00 -0.28651998757E+04  0.28651998757E+04  0.00000000000E+00 0.  1.
    9900016    2    1    2    0    0 -0.20966821248E+03  0.34139977513E+03 -0.18569296943E+03  0.22358897531E+04  0.21918500275E+04 0.  0.
        -24    2    3    3    0    0 -0.13180287136E+03 -0.46032530056E+03  0.41421709820E+03  0.63711486714E+03  0.71191082699E+02 0.  0.
        -15    1    3    3    0    0  0.38531640797E+03  0.85119450074E+03 -0.15291661009E+03  0.94677574006E+03  0.00000000000E+00 0.  1.
        -15    1    1    2    0    0 -0.96131449447E+03 -0.49461358411E+03  0.95266776575E+03  0.14409524721E+04  0.00000000000E+00 0.  1.
         15    1    1    2    0    0  0.52087514543E+03 -0.16902477722E+03 -0.89413854935E+03  0.10485056213E+04  0.00000000000E+00 0. -1.
         15    1    4    4    0    0 -0.72871297216E+02 -0.30039035638E+03  0.22418758687E+03  0.38184377207E+03  0.00000000000E+00 0. -1.
        -16    1    4    4    0    0 -0.58931574148E+02 -0.15993494418E+03  0.19002951133E+03  0.25527109507E+03  0.00000000000E+00 0.  1.
         16    1    1    2    0    0  0.65010756153E+03  0.32223858621E+03 -0.13908950628E+03  0.73879864561E+03  0.00000000000E+00 0. -1.
    9900018    1    3    3    0    0 -0.46318174909E+03 -0.49469425050E+02 -0.44699345755E+03  0.65199914585E+03  0.91187600000E+02 0.  0.
<mgrwt>
<rscale>  0 0.54576557E+04</rscale>
<asrwt>0</asrwt>
<pdfrwt beam="1">  1        2 0.44079998E+00 0.54576557E+04</pdfrwt>
<pdfrwt beam="2">  1       -2 0.39983794E+00 0.54576557E+04</pdfrwt>
<totfact> 0.11034028E-02</totfact>
</mgrwt>
</event>
<event>
11    1  0.3922844E-011  0.3115514E+04  0.7818608E-02  0.8367406E-01
         -2   -1    0    0    0  501 -0.00000000000E+00  0.00000000000E+00  0.12942535103E+04  0.12942535103E+04  0.00000000000E+00 0.  1.
          2   -1    0    0  501    0  0.00000000000E+00 -0.00000000000E+00 -0.41507371482E+04  0.41507371482E+04  0.00000000000E+00 0. -1.
    9900016    2    1    2    0    0  0.18239864322E+02  0.23562009881E+03 -0.12016980828E+04  0.25172470228E+04  0.21992282210E+04 0.  0.
        -24    2    3    3    0    0 -0.11804497451E+02 -0.24112876322E+03 -0.16702617283E+04  0.16894133324E+04  0.77850755366E+02 0.  0.
        -15    1    3    3    0    0 -0.11904103723E+03  0.47700239356E+03  0.41958391402E+03  0.64633792471E+03  0.00000000000E+00 0.  1.
        -15    1    1    2    0    0 -0.58924274979E+03  0.80681884117E+03 -0.42609763494E+03  0.10861504754E+04  0.00000000000E+00 0.  1.
         15    1    4    4    0    0 -0.22201309315E+02 -0.17522668158E+02 -0.13617700043E+03  0.13908313155E+03  0.00000000000E+00 0. -1.
         15    1    1    2    0    0 -0.86069499140E+02 -0.42941535839E+03 -0.60852873757E+03  0.74974177765E+03  0.00000000000E+00 0. -1.
        -16    1    4    4    0    0  0.10396811863E+02 -0.22360609507E+03 -0.15340847279E+04  0.15503302009E+04  0.00000000000E+00 0.  1.
         16    1    1    2    0    0  0.65707238461E+03 -0.61302358158E+03 -0.62015918256E+03  0.10918513827E+04  0.00000000000E+00 0. -1.
    9900018    1    3    3    0    0  0.14908539901E+03 -0.25353152950E+00  0.48979731496E+02  0.18149576570E+03  0.91187600000E+02 0.  0.
<mgrwt>
<rscale>  0 0.26023422E+04</rscale>
<asrwt>0</asrwt>
<pdfrwt beam="1">  1        2 0.63857495E+00 0.31155140E+04</pdfrwt>
<pdfrwt beam="2">  1       -2 0.19911592E+00 0.31155140E+04</pdfrwt>
<totfact> 0.28082270E-02</totfact>
</mgrwt>
</event>
<event>
11    1  0.3922844E-011  0.3922298E+04  0.7818608E-02  0.8178285E-01
         -2   -1    0    0    0  501 -0.00000000000E+00  0.00000000000E+00  0.19545041995E+04  0.19545041995E+04  0.00000000000E+00 0.  1.
          2   -1    0    0  501    0  0.00000000000E+00 -0.00000000000E+00 -0.45028419359E+04  0.45028419359E+04  0.00000000000E+00 0. -1.
    9900016    2    1    2    0    0  0.60571003663E+03  0.18683781596E+03 -0.25562583842E+04  0.34295264136E+04  0.21966796483E+04 0.  0.
        -24    2    3    3    0    0  0.11026990536E+04  0.65212081997E+02 -0.17712719473E+04  0.20890192734E+04  0.79996217006E+02 0.  0.
        -15    1    3    3    0    0 -0.51453720360E+03 -0.23466606735E+03 -0.11660320504E+03  0.57741926230E+03  0.00000000000E+00 0.  1.
        -15    1    1    2    0    0 -0.68598047885E+03  0.10130231003E+04 -0.56161738322E+03  0.13461794473E+04  0.00000000000E+00 0.  1.
         15    1    4    4    0    0  0.57202957267E+03  0.64902569938E+02 -0.87407633659E+03  0.10466325132E+04  0.00000000000E+00 0. -1.
         15    1    1    2    0    0 -0.10629179736E+03 -0.19720690763E+02  0.47048562148E+03  0.48274586674E+03  0.00000000000E+00 0. -1.
        -16    1    4    4    0    0  0.53066948091E+03  0.30951205860E+00 -0.89719561076E+03  0.10423867601E+04  0.00000000000E+00 0.  1.
         16    1    1    2    0    0  0.18656223959E+03 -0.11801402255E+04  0.99052409532E+02  0.11988944077E+04  0.00000000000E+00 0. -1.
    9900018    1    3    3    0    0  0.17548186644E+02  0.35629180131E+03 -0.66838323177E+03  0.76308787793E+03  0.91187600000E+02 0.  0.
<mgrwt>
<rscale>  0 0.32401823E+04</rscale>
<asrwt>0</asrwt>
<pdfrwt beam="1">  1        2 0.69274491E+00 0.39222976E+04</pdfrwt>
<pdfrwt beam="2">  1       -2 0.30069295E+00 0.39222976E+04</pdfrwt>
<totfact> 0.28618817E-03</totfact>
</mgrwt>
</event>
<event>
11    1  0.3922844E-011  0.3533762E+04  0.7818608E-02  0.8105835E-01
          2   -1    0    0  501    0  0.00000000000E+00  0.00000000000E+00  0.33224393295E+04  0.33224393295E+04  0.00000000000E+00 0.  1.
         -2   -1    0    0    0  501 -0.00000000000E+00 -0.00000000000E+00 -0.93963130999E+03  0.93963130999E+03  0.00000000000E+00 0. -1.
    9900016    2    1    2    0    0 -0.25387265336E+02 -0.15532888897E+03  0.96339439412E+03  0.24106684755E+04  0.22041828788E+04 0.  0.
         24    2    3    3    0    0  0.21918994862E+03 -0.79158835528E+03 -0.19318481007E+03  0.84762086501E+03  0.80525785766E+02 0.  0.
        -15    1    4    4    0    0  0.36689011968E+02 -0.55867745289E+02 -0.23446686003E+02  0.70831035906E+02  0.00000000000E+00 0.  1.
        -15    1    1    2    0    0  0.30919856623E+03  0.15501209267E+03  0.27607362881E+03  0.44254847278E+03  0.00000000000E+00 0.  1.
         15    1    1    2    0    0 -0.36944659402E+03  0.10898475965E+03  0.16209616908E+03  0.41790385461E+03  0.00000000000E+00 0. -1.
         15    1    3    3    0    0 -0.21693645646E+03  0.49563294610E+03  0.17759065759E+03  0.56943119432E+03  0.00000000000E+00 0. -1.
        -16    1    1    2    0    0  0.85635293129E+02 -0.10866796335E+03  0.98124382753E+03  0.99094983665E+03  0.00000000000E+00 0.  1.
         16    1    4    4    0    0  0.18250093666E+03 -0.73572060999E+03 -0.16973812407E+03  0.77678982911E+03  0.00000000000E+00 0. -1.
    9900018    1    3    3    0    0 -0.27640757504E+02  0.14062652020E+03  0.97898854660E+03  0.99361641615E+03  0.91187600000E+02 0.  0.
<mgrwt>
<rscale>  0 0.35337617E+04</rscale>
<asrwt>0</asrwt>
<pdfrwt beam="1">  1        2 0.51114451E+00 0.35337617E+04</pdfrwt>
<pdfrwt beam="2">  1       -2 0.14455867E+00 0.35337617E+04</pdfrwt>
<totfact> 0.29086975E-01</totfact>
</mgrwt>
</event>
<event>
11    1  0.3922844E-011  0.3891671E+04  0.7818608E-02  0.8262694E-01
          2   -1    0    0  501    0  0.00000000000E+00  0.00000000000E+00  0.30927185104E+04  0.30927185104E+04  0.00000000000E+00 0.  1.
         -2   -1    0    0    0  501 -0.00000000000E+00 -0.00000000000E+00 -0.22147002191E+04  0.22147002191E+04  0.00000000000E+00 0. -1.
    9900016    2    1    2    0    0 -0.12264516519E+04 -0.11110006554E+04  0.79796154962E+03  0.28712390361E+04  0.22065277829E+04 0.  0.
        -24    2    3    3    0    0 -0.11488113087E+04 -0.79050983915E+03  0.56574683629E+03  0.15069339914E+04  0.78149490606E+02 0.  0.
        -15    1    1    2    0    0 -0.15845969697E+03  0.73223575960E+03  0.57369045040E+02  0.75137865988E+03  0.00000000000E+00 0.  1.
        -15    1    3    3    0    0  0.38104910595E+03 -0.18734011920E+03  0.61369611192E+03  0.74626916002E+03  0.00000000000E+00 0.  1.
         15    1    1    2    0    0  0.25239031810E+03  0.38333043829E+03 -0.24614959933E+03  0.52080007953E+03  0.00000000000E+00 0. -1.
         15    1    4    4    0    0 -0.15843209836E+03 -0.14225273164E+03  0.92888873627E+02  0.23230349178E+03  0.00000000000E+00 0. -1.
        -16    1    4    4    0    0 -0.99037921039E+03 -0.64825710751E+03  0.47285796267E+03  0.12746304997E+04  0.00000000000E+00 0.  1.
         16    1    1    2    0    0  0.11325210307E+04 -0.45655424482E+01  0.26883729604E+03  0.11640009540E+04  0.00000000000E+00 0. -1.
    9900018    1    3    3    0    0 -0.45868944905E+03 -0.13315069709E+03 -0.38148139859E+03  0.61803588462E+03  0.91187600000E+02 0.  0.
<mgrwt>
<rscale>  0 0.29344746E+04</rscale>
<asrwt>0</asrwt>
<pdfrwt beam="1">  1        2 0.47580285E+00 0.38916708E+04</pdfrwt>
<pdfrwt beam="2">  1       -2 0.34072311E+00 0.38916708E+04</pdfrwt>
<totfact> 0.20596108E-02</totfact>
</mgrwt>
</event>
<event>
11    1  0.3922844E-011  0.5689038E+04  0.7818608E-02  0.7730200E-01
         -2   -1    0    0    0  501 -0.00000000000E+00  0.00000000000E+00  0.18777889816E+04  0.18777889816E+04  0.00000000000E+00 0.  1.
          2   -1    0    0  501    0  0.00000000000E+00 -0.00000000000E+00 -0.43089443339E+04  0.43089443339E+04  0.00000000000E+00 0. -1.
    9900016    2    1    2    0    0 -0.21900708218E+03 -0.31019239327E+03 -0.48638915085E+03  0.22993243777E+04  0.22149796309E+04 0.  0.
         24    2    3    3    0    0  0.59203469500E+03 -0.46962361933E+02  0.12251897335E+03  0.61168717379E+03  0.80248091725E+02 0.  0.
        -15    1    1    2    0    0 -0.48618933867E+03  0.51213254640E+03 -0.26367412357E+03  0.75377971686E+03  0.00000000000E+00 0.  1.
        -15    1    4    4    0    0  0.58845029131E+02  0.16559237567E+02  0.24481996472E+02  0.65850694404E+02  0.00000000000E+00 0.  1.
         15    1    1    2    0    0  0.13209402429E+04 -0.52839784353E+03 -0.19263797808E+04  0.23947915288E+04  0.00000000000E+00 0. -1.
         15    1    3    3    0    0 -0.48142461735E+02 -0.43369232584E+03 -0.76930972073E+03  0.88444568885E+03  0.00000000000E+00 0. -1.
        -16    1    1    2    0    0 -0.61574382206E+03  0.32645769040E+03  0.24528770299E+03  0.73883769209E+03  0.00000000000E+00 0.  1.
         16    1    4    4    0    0  0.53318966587E+03 -0.63521599500E+02  0.98036976883E+02  0.54583647939E+03  0.00000000000E+00 0. -1.
    9900018    1    3    3    0    0 -0.76289931544E+03  0.17046229451E+03  0.16040159653E+03  0.80319151509E+03  0.91187600000E+02 0.  0.
<mgrwt>
<rscale>  0 0.56890379E+04</rscale>
<asrwt>0</asrwt>
<pdfrwt beam="1">  1        2 0.66291451E+00 0.56890379E+04</pdfrwt>
<pdfrwt beam="2">  1       -2 0.28889061E+00 0.56890379E+04</pdfrwt>
<totfact> 0.47300805E-03</totfact>
</mgrwt>
</event>
<event>
11    1  0.3922844E-011  0.4062805E+04  0.7818608E-02  0.8146226E-01
         -2   -1    0    0    0  501 -0.00000000000E+00  0.00000000000E+00  0.48025791248E+04  0.48025791248E+04  0.00000000000E+00 0.  1.
          2   -1    0    0  501    0  0.00000000000E+00 -0.00000000000E+00 -0.19141073202E+04  0.19141073202E+04  0.00000000000E+00 0. -1.
    9900016    2    1    2    0    0  0.14227600315E+03  0.61929377948E+03  0.58656489971E+03  0.23650013089E+04  0.22012281943E+04 0.  0.
        -24    2    3    3    0    0 -0.61945947530E+03 -0.34577827696E+03  0.36864252335E+03  0.80346478338E+03  0.79785272811E+02 0.  0.
        -15    1    3    3    0    0  0.57420355336E+02  0.77796153899E+03 -0.45225835199E+02  0.78138763077E+03  0.00000000000E+00 0.  1.
        -15    1    1    2    0    0  0.42553517521E+03  0.33369494918E+03  0.16255663270E+04  0.17131545137E+04  0.00000000000E+00 0.  1.
         15    1    4    4    0    0 -0.21246548414E+03 -0.16041518825E+03  0.15161638203E+03  0.30636929003E+03  0.00000000000E+00 0. -1.
         15    1    1    2    0    0  0.56403533516E+03  0.38228889900E+03 -0.15793192255E+03  0.69944488973E+03  0.00000000000E+00 0. -1.
        -16    1    4    4    0    0 -0.40699399117E+03 -0.18536308871E+03  0.21702614132E+03  0.49709549336E+03  0.00000000000E+00 0.  1.
         16    1    1    2    0    0 -0.11318465135E+04 -0.13352776277E+04  0.83427250047E+03  0.19390857325E+04  0.00000000000E+00 0. -1.
    9900018    1    3    3    0    0  0.70431512312E+03  0.18711051745E+03  0.26314821155E+03  0.78014889478E+03  0.91187600000E+02 0.  0.
<mgrwt>
<rscale>  0 0.33663069E+04</rscale>
<asrwt>0</asrwt>
<pdfrwt beam="1">  1        2 0.29447805E+00 0.40628052E+04</pdfrwt>
<pdfrwt beam="2">  1       -2 0.73885832E+00 0.40628052E+04</pdfrwt>
<totfact> 0.88914382E-04</totfact>
</mgrwt>
</event>
<event>
11    1  0.3922844E-011  0.4153416E+04  0.7818608E-02  0.8236960E-01
         -2   -1    0    0    0  501 -0.00000000000E+00  0.00000000000E+00  0.32701185719E+04  0.32701185719E+04  0.00000000000E+00 0.  1.
          2   -1    0    0  501    0  0.00000000000E+00 -0.00000000000E+00 -0.28244940797E+04  0.28244940797E+04  0.00000000000E+00 0. -1.
    9900016    2    1    2    0    0  0.10614305651E+04  0.87205329747E+02 -0.24925439961E+03  0.24600252958E+04  0.22034874827E+04 0.  0.
         24    2    3    3    0    0  0.45358160424E+03 -0.51886102013E+01  0.28063757493E+03  0.53932102553E+03  0.79665091069E+02 0.  0.
        -15    1    4    4    0    0  0.83528758553E+02 -0.29144280350E+02  0.38784133811E+02  0.96595298115E+02  0.00000000000E+00 0.  1.
        -15    1    1    2    0    0  0.26906566711E+02 -0.25156550401E+03 -0.17157554287E+03  0.30569156522E+03  0.00000000000E+00 0.  1.
         15    1    3    3    0    0  0.71731686389E+03  0.78093862073E+03 -0.35158667331E+02  0.10609640637E+04  0.00000000000E+00 0. -1.
         15    1    1    2    0    0 -0.57988140122E+03  0.69403391016E+03 -0.98496802845E+03  0.13372013779E+04  0.00000000000E+00 0. -1.
        -16    1    1    2    0    0 -0.50845573062E+03 -0.52967373590E+03  0.18514224631E+04  0.19916944126E+04  0.00000000000E+00 0.  1.
         16    1    4    4    0    0  0.37005284569E+03  0.23955670149E+02  0.24185344112E+03  0.44272572741E+03  0.00000000000E+00 0. -1.
    9900018    1    3    3    0    0 -0.10946790300E+03 -0.68854468078E+03 -0.49473330721E+03  0.85974020662E+03  0.91187600000E+02 0.  0.
<mgrwt>
<rscale>  0 0.30238237E+04</rscale>
<asrwt>0</asrwt>
<pdfrwt beam="1">  1        2 0.43453755E+00 0.41534162E+04</pdfrwt>
<pdfrwt beam="2">  1       -2 0.50309516E+00 0.41534162E+04</pdfrwt>
<totfact> 0.25957305E-03</totfact>
</mgrwt>
</event>
<event>
11    1  0.3922844E-011  0.4062915E+04  0.7818608E-02  0.8113263E-01
          2   -1    0    0  501    0  0.00000000000E+00  0.00000000000E+00  0.42110678023E+04  0.42110678023E+04  0.00000000000E+00 0.  1.
         -2   -1    0    0    0  501 -0.00000000000E+00 -0.00000000000E+00 -0.26001629869E+04  0.26001629869E+04  0.00000000000E+00 0. -1.
    9900016    2    1    2    0    0  0.10397996319E+04 -0.10427813828E+04  0.18033334523E+04  0.32049225251E+04  0.22024850885E+04 0.  0.
         24    2    3    3    0    0 -0.39344010027E+03  0.62555011999E+02  0.67882221609E+03  0.79122394363E+03  0.80792857887E+02 0.  0.
        -15    1    4    4    0    0 -0.10425578640E+03  0.51348460580E+02  0.17163735947E+03  0.20728076748E+03  0.00000000000E+00 0.  1.
        -15    1    1    2    0    0 -0.26697796773E+02  0.13170729382E+03  0.29862102779E+03  0.32746618427E+03  0.00000000000E+00 0.  1.
         15    1    3    3    0    0 -0.11065773784E+03 -0.21734905852E+03 -0.85634266710E+02  0.25849366689E+03  0.00000000000E+00 0. -1.
         15    1    1    2    0    0 -0.18176292515E+04 -0.12502524676E+03 -0.69757952432E+03  0.19509035345E+04  0.00000000000E+00 0. -1.
        -16    1    1    2    0    0  0.80452741634E+03  0.10360993357E+04  0.20652985956E+03  0.13279385453E+04  0.00000000000E+00 0.  1.
         16    1    4    4    0    0 -0.28918431387E+03  0.11206551420E+02  0.50718485662E+03  0.58394317615E+03  0.00000000000E+00 0. -1.
    9900018    1    3    3    0    0  0.15438974701E+04 -0.88798733626E+03  0.12101455029E+04  0.21552049146E+04  0.91187600000E+02 0.  0.
<mgrwt>
<rscale>  0 0.35022225E+04</rscale>
<asrwt>0</asrwt>
<pdfrwt beam="1">  1        2 0.64785659E+00 0.40629151E+04</pdfrwt>
<pdfrwt beam="2">  1       -2 0.40002507E+00 0.40629151E+04</pdfrwt>
<totfact> 0.12243218E-03</totfact>
</mgrwt>
</event>
<event>
11    1  0.3922844E-011  0.4444362E+04  0.7818608E-02  0.8191849E-01
          2   -1    0    0  501    0  0.00000000000E+00  0.00000000000E+00  0.32748290012E+04  0.32748290012E+04  0.00000000000E+00 0. -1.
         -2   -1    0    0    0  501 -0.00000000000E+00 -0.00000000000E+00 -0.29950669107E+04  0.29950669107E+04  0.00000000000E+00 0.  1.
    9900016    2    1    2    0    0  0.16228023059E+03 -0.18661206364E+04 -0.49573053035E+01  0.28926559277E+04  0.22042442328E+04 0.  0.
         24    2    3    3    0    0 -0.59500856680E+03 -0.12596157360E+04  0.52909876256E+03  0.14925448345E+04  0.84128386412E+02 0.  0.
        -15    1    4    4    0    0 -0.25178858412E+03 -0.43843142631E+03  0.19324064993E+03  0.54125923129E+03  0.00000000000E+00 0.  1.
        -15    1    1    2    0    0  0.39443565028E+03  0.39076244399E+03  0.20140834221E+03  0.59062686203E+03  0.00000000000E+00 0.  1.
         15    1    1    2    0    0  0.19460383556E+03  0.36063219808E+03  0.10524463066E+04  0.11294111136E+04  0.00000000000E+00 0. -1.
         15    1    3    3    0    0 -0.66458640458E+02  0.12767837029E+03 -0.19458097641E+03  0.24203362063E+03  0.00000000000E+00 0. -1.
        -16    1    1    2    0    0 -0.75131971643E+03  0.11147259943E+04 -0.96913525308E+03  0.16572020087E+04  0.00000000000E+00 0.  1.
         16    1    4    4    0    0 -0.34321998268E+03 -0.82118430967E+03  0.33585811264E+03  0.95128560317E+03  0.00000000000E+00 0. -1.
    9900018    1    3    3    0    0  0.82374743785E+03 -0.73418327071E+03 -0.33947509145E+03  0.11580774726E+04  0.91187600000E+02 0.  0.
<mgrwt>
<rscale>  0 0.31885432E+04</rscale>
<asrwt>0</asrwt>
<pdfrwt beam="1">  1        2 0.50381985E+00 0.44443617E+04</pdfrwt>
<pdfrwt beam="2">  1       -2 0.46077952E+00 0.44443617E+04</pdfrwt>
<totfact> 0.24517585E-03</totfact>
</mgrwt>
</event>
<event>
11    1  0.3922844E-011  0.5129277E+04  0.7818608E-02  0.7808869E-01
         -2   -1    0    0    0  501 -0.00000000000E+00  0.00000000000E+00  0.20216648597E+04  0.20216648597E+04  0.00000000000E+00 0.  1.
          2   -1    0    0  501    0  0.00000000000E+00 -0.00000000000E+00 -0.32534424612E+04  0.32534424612E+04  0.00000000000E+00 0. -1.
    9900016    2    1    2    0    0 -0.33444902004E+03  0.12118045935E+04 -0.79955534863E+03  0.26584775956E+04  0.22017919636E+04 0.  0.
        -24    2    3    3    0    0 -0.76458068180E+03  0.65330131511E+02  0.44990948231E+03  0.89303538944E+03  0.79006451962E+02 0.  0.
        -15    1    1    2    0    0 -0.20831014167E+03  0.13640245597E+03  0.36261369386E+03  0.43987206787E+03  0.00000000000E+00 0.  1.
        -15    1    3    3    0    0  0.30811545416E+03  0.65989671822E+03 -0.83811860841E+03  0.11103340099E+04  0.00000000000E+00 0.  1.
         15    1    1    2    0    0  0.52696564057E+03  0.13318282850E+03 -0.25001107688E+03  0.59827751982E+03  0.00000000000E+00 0. -1.
         15    1    4    4    0    0 -0.38035291924E+03  0.10009163083E+02  0.26037401204E+03  0.46104571646E+03  0.00000000000E+00 0. -1.
        -16    1    4    4    0    0 -0.38422776256E+03  0.55320968427E+02  0.18953547027E+03  0.43198967297E+03  0.00000000000E+00 0.  1.
         16    1    1    2    0    0  0.15793521141E+02 -0.14813898780E+04 -0.54482486986E+03  0.15784801376E+04  0.00000000000E+00 0. -1.
    9900018    1    3    3    0    0  0.12201620760E+03  0.48657774378E+03 -0.41134622253E+03  0.65510819629E+03  0.91187600000E+02 0.  0.
<mgrwt>
<rscale>  0 0.51292769E+04</rscale>
<asrwt>0</asrwt>
<pdfrwt beam="1">  1        2 0.50052961E+00 0.51292769E+04</pdfrwt>
<pdfrwt beam="2">  1       -2 0.31102536E+00 0.51292769E+04</pdfrwt>
<totfact> 0.23415072E-02</totfact>
</mgrwt>
</event>
<event>
11    1  0.3922844E-011  0.4181851E+04  0.7818608E-02  0.7968833E-01
          2   -1    0    0  501    0  0.00000000000E+00  0.00000000000E+00  0.20883150865E+04  0.20883150865E+04  0.00000000000E+00 0.  1.
         -2   -1    0    0    0  501 -0.00000000000E+00 -0.00000000000E+00 -0.20935395916E+04  0.20935395916E+04  0.00000000000E+00 0. -1.
    9900016    2    1    2    0    0 -0.11696661239E+03  0.26549250451E+03  0.43512775233E+03  0.22565274370E+04  0.21950882567E+04 0.  0.
        -24    2    3    3    0    0 -0.27906554958E+03  0.10312959638E+04 -0.19911121047E+03  0.10896418833E+04  0.78900023694E+02 0.  0.
        -15    1    1    2    0    0 -0.48211022696E+03 -0.13301148484E+03  0.55398932417E+03  0.74634207796E+03  0.00000000000E+00 0.  1.
        -15    1    3    3    0    0  0.43279173871E+02 -0.68721499896E+03  0.22554698523E+03  0.72457503699E+03  0.00000000000E+00 0.  1.
         15    1    1    2    0    0  0.13860948508E+03 -0.73825965113E+02 -0.36164536130E+03  0.39427177153E+03  0.00000000000E+00 0. -1.
         15    1    4    4    0    0 -0.53846424993E+02  0.28853308071E+03 -0.28002905732E+02  0.29484731452E+03  0.00000000000E+00 0. -1.
        -16    1    4    4    0    0 -0.22521912458E+03  0.74276288308E+03 -0.17110830474E+03  0.79479456875E+03  0.00000000000E+00 0.  1.
         16    1    1    2    0    0  0.46046735427E+03 -0.58655054558E+02 -0.63269622028E+03  0.78471339158E+03  0.00000000000E+00 0. -1.
    9900018    1    3    3    0    0  0.11881976331E+03 -0.78588460320E+02  0.40869197758E+03  0.44231051670E+03  0.91187600000E+02 0.  0.
<mgrwt>
<rscale>  0 0.41818514E+04</rscale>
<asrwt>0</asrwt>
<pdfrwt beam="1">  1        2 0.32127925E+00 0.41818514E+04</pdfrwt>
<pdfrwt beam="2">  1       -2 0.32208301E+00 0.41818514E+04</pdfrwt>
<totfact> 0.10778372E-01</totfact>
</mgrwt>
</event>
