<event>
11    1  0.6455967E-017  0.4551402E+04  0.7818608E-02  0.8352152E-01
         -2   -1    0    0    0  501 -0.00000000000E+00  0.00000000000E+00  0.17416907060E+04  0.17416907060E+04  0.00000000000E+00 0.  1.
          2   -1    0    0  501    0  0.00000000000E+00 -0.00000000000E+00 -0.37266753270E+04  0.37266753270E+04  0.00000000000E+00 0. -1.
    9900016    2    1    2    0    0 -0.38647025102E+03 -0.35822832518E+03  0.74787484662E+03  0.23436705441E+04  0.21577275188E+04 0.  0.
        -24    2    3    3    0    0 -0.31276162434E+03  0.24361265200E+03 -0.68165446987E+03  0.79086676056E+03  0.60419026828E+02 0.  0.
        -15    1    3    3    0    0 -0.73708626682E+02 -0.60184097718E+03  0.14295293165E+04  0.15528037835E+04  0.00000000000E+00 0.  1.
        -15    1    1    2    0    0  0.79525616501E+02  0.10689334091E+03 -0.68001085119E+02  0.14958160846E+03  0.00000000000E+00 0.  1.
         15    1    4    4    0    0 -0.16276913885E+03  0.91312773496E+02 -0.33988699756E+03  0.38775634911E+03  0.00000000000E+00 0. -1.
         15    1    1    2    0    0  0.42727405142E+02  0.38315321964E+03 -0.30064763835E+03  0.48889776367E+03  0.00000000000E+00 0. -1.
        -16    1    4    4    0    0 -0.14999248549E+03  0.15229987850E+03 -0.34176747231E+03  0.40311041145E+03  0.00000000000E+00 0.  1.
         16    1    1    2    0    0  0.29820133496E+03 -0.13821397189E+03 -0.23659557338E+04  0.23886761338E+04  0.00000000000E+00 0. -1.
    9900018    1    1    2    0    0 -0.33984105589E+02  0.63957365191E+01  0.17449896118E+01  0.97539982883E+02  0.91187600000E+02 0.  0.
<mgrwt>
<rscale>  0 0.26477740E+04</rscale>
<asrwt>0</asrwt>
<pdfrwt beam="1">  1        2 0.57333466E+00 0.45514024E+04</pdfrwt>
<pdfrwt beam="2">  1       -2 0.26795242E+00 0.45514024E+04</pdfrwt>
<totfact> 0.20534368E-02</totfact>
</mgrwt>
</event>
<event>
11    1  0.6455967E-017  0.3385128E+04  0.7818608E-02  0.8811179E-01
          2   -1    0    0  501    0  0.00000000000E+00  0.00000000000E+00  0.26715580997E+04  0.26715580997E+04  0.00000000000E+00 0.  1.
         -2   -1    0    0    0  501 -0.00000000000E+00 -0.00000000000E+00 -0.11864798124E+04  0.11864798124E+04  0.00000000000E+00 0. -1.
         23    2    1    2    0    0  0.13960329316E+03 -0.20072013658E+02  0.66727873130E+02  0.18777774571E+03  0.10447922060E+03 0.  0.
    9900016    2    1    2    0    0  0.38794514177E+03 -0.63411161393E+03  0.12938000359E+04  0.26152566476E+04  0.21478011611E+04 0.  0.
        -15    1    4    4    0    0  0.15050768428E+03 -0.14219470064E+04  0.98200920872E+03  0.17346261666E+04  0.00000000000E+00 0.  1.
        -15    1    3    3    0    0  0.78639589358E+02  0.15425833023E+02  0.83006301843E+02  0.11537845329E+03  0.00000000000E+00 0.  1.
         15    1    3    3    0    0  0.60963703807E+02 -0.35497846681E+02 -0.16278428713E+02  0.72399292415E+02  0.00000000000E+00 0. -1.
         15    1    4    4    0    0  0.24038489737E+02  0.77400101700E+02  0.42130999268E+02  0.91343559331E+02  0.00000000000E+00 0. -1.
        -16    1    4    4    0    0  0.21339896776E+03  0.71043529074E+03  0.26965982796E+03  0.78928692159E+03  0.00000000000E+00 0.  1.
         16    1    1    2    0    0 -0.60186240817E+03  0.69191585514E+03  0.69280530883E+02  0.91966608121E+03  0.00000000000E+00 0. -1.
    9900018    1    1    2    0    0  0.74313973235E+02 -0.37732227551E+02  0.55269847263E+02  0.13533743763E+03  0.91187600000E+02 0.  0.
<mgrwt>
<rscale>  0 0.16153403E+04</rscale>
<asrwt>0</asrwt>
<pdfrwt beam="1">  1        2 0.41100894E+00 0.33851280E+04</pdfrwt>
<pdfrwt beam="2">  1       -2 0.18253536E+00 0.33851280E+04</pdfrwt>
<totfact> 0.39629438E-01</totfact>
</mgrwt>
</event>
<event>
11    1  0.6455967E-017  0.3413596E+04  0.7818608E-02  0.8541101E-01
          2   -1    0    0  501    0  0.00000000000E+00  0.00000000000E+00  0.26831057296E+04  0.26831057296E+04  0.00000000000E+00 0. -1.
         -2   -1    0    0    0  501 -0.00000000000E+00 -0.00000000000E+00 -0.17207564232E+04  0.17207564232E+04  0.00000000000E+00 0.  1.
         23    2    1    2    0    0 -0.43733885187E+03  0.29938526335E+03 -0.46129281952E+03  0.70529527855E+03  0.61266282227E+02 0.  0.
    9900016    2    1    2    0    0 -0.52142115963E+03  0.22949712336E+03  0.10244805539E+04  0.25331196214E+04  0.22455702295E+04 0.  0.
        -15    1    4    4    0    0 -0.78368822027E+03  0.16148188819E+02  0.15144653550E+04  0.17052956641E+04  0.00000000000E+00 0.  1.
        -15    1    3    3    0    0 -0.30356297712E+02  0.34036953558E+02 -0.58622670403E+02  0.74274063464E+02  0.00000000000E+00 0. -1.
         15    1    4    4    0    0 -0.10767262436E+03  0.35208760551E+02 -0.44318237123E+02  0.12164356538E+03  0.00000000000E+00 0. -1.
         15    1    3    3    0    0 -0.40698255415E+03  0.26534830979E+03 -0.40267014911E+03  0.63102121508E+03  0.00000000000E+00 0.  1.
        -16    1    4    4    0    0  0.34079698369E+03  0.16790464379E+03 -0.47244402125E+03  0.60624904677E+03  0.00000000000E+00 0.  1.
         16    1    1    2    0    0  0.95876001149E+03 -0.52888238671E+03  0.39916157195E+03  0.11654472528E+04  0.00000000000E+00 0. -1.
    9900018    1    4    4    0    0  0.29142701311E+02  0.10235530199E+02  0.26777457284E+02  0.99931345085E+02  0.91187600000E+02 0.  0.
<mgrwt>
<rscale>  0 0.21463379E+04</rscale>
<asrwt>0</asrwt>
<pdfrwt beam="1">  1        2 0.41278549E+00 0.34135963E+04</pdfrwt>
<pdfrwt beam="2">  1       -2 0.26473176E+00 0.34135963E+04</pdfrwt>
<totfact> 0.11393505E-01</totfact>
</mgrwt>
</event>
<event>
12    1  0.6455967E-017  0.2588289E+04  0.7818608E-02  0.8876081E-01
          2   -1    0    0  501    0  0.00000000000E+00  0.00000000000E+00  0.19215250741E+04  0.19215250741E+04  0.00000000000E+00 0. -1.
         -2   -1    0    0    0  501 -0.00000000000E+00 -0.00000000000E+00 -0.11123960027E+04  0.11123960027E+04  0.00000000000E+00 0.  1.
         23    2    1    2    0    0 -0.29038417888E+03  0.50676525011E+02 -0.51498071712E+02  0.30629997802E+03  0.65395287393E+02 0.  0.
    9900016    2    1    2    0    0  0.87310685491E+02 -0.25755267434E+03  0.81717401929E+03  0.23319910759E+04  0.21671300063E+04 0.  0.
        -24    2    4    4    0    0  0.10629820497E+04  0.92820400153E+01  0.61708945246E+02  0.10695082626E+04  0.10011461281E+03 0.  0.
        -15    1    3    3    0    0 -0.19461395927E+03  0.66503178419E+01 -0.49302462746E+02  0.20087198088E+03  0.00000000000E+00 0. -1.
        -15    1    4    4    0    0 -0.97567136417E+03 -0.26683471435E+03  0.75546507404E+03  0.12624828132E+04  0.00000000000E+00 0.  1.
         15    1    3    3    0    0 -0.95770219613E+02  0.44026207169E+02 -0.21956089660E+01  0.10542799714E+03  0.00000000000E+00 0.  1.
         15    1    5    5    0    0  0.27664871881E+03 -0.40521871910E+02  0.66905053644E+01  0.27968070828E+03  0.00000000000E+00 0. -1.
        -16    1    5    5    0    0  0.78633333085E+03  0.49803911925E+02  0.55018439882E+02  0.78982755433E+03  0.00000000000E+00 0.  1.
         16    1    1    2    0    0  0.18957507432E+03  0.21744475245E+03 -0.98038313633E+01  0.28864691975E+03  0.00000000000E+00 0. -1.
    9900018    1    1    2    0    0  0.13498419072E+02 -0.10568603127E+02  0.53256955249E+02  0.10698310318E+03  0.91187600000E+02 0.  0.
<mgrwt>
<rscale>  0 0.15126540E+04</rscale>
<asrwt>0</asrwt>
<pdfrwt beam="1">  1        2 0.29561924E+00 0.25882886E+04</pdfrwt>
<pdfrwt beam="2">  1       -2 0.17113785E+00 0.25882886E+04</pdfrwt>
<totfact> 0.13529378E+00</totfact>
</mgrwt>
</event>
<event>
11    1  0.6455967E-017  0.2557380E+04  0.7818608E-02  0.9130945E-01
          2   -1    0    0  501    0  0.00000000000E+00  0.00000000000E+00  0.14879884852E+04  0.14879884852E+04  0.00000000000E+00 0. -1.
         -2   -1    0    0    0  501 -0.00000000000E+00 -0.00000000000E+00 -0.12109621802E+04  0.12109621802E+04  0.00000000000E+00 0.  1.
         23    2    1    2    0    0  0.15892975685E+02  0.19139482836E+02  0.65130869202E+02  0.13280730356E+03  0.11303469943E+03 0.  0.
    9900016    2    1    2    0    0 -0.14690287171E+03  0.15857091971E+03  0.25195282313E+02  0.21621511122E+04  0.21511711786E+04 0.  0.
        -15    1    3    3    0    0  0.32811946022E+02  0.61274399575E+02  0.47055437293E+02  0.83936821620E+02  0.00000000000E+00 0.  1.
        -15    1    4    4    0    0 -0.40859162513E+03  0.10281383014E+04  0.25182323511E+03  0.11346499128E+04  0.00000000000E+00 0.  1.
         15    1    4    4    0    0  0.16184818710E+01 -0.58481462422E+03 -0.26082650103E+03  0.64034461645E+03  0.00000000000E+00 0. -1.
         15    1    3    3    0    0 -0.16918970337E+02 -0.42134916739E+02  0.18075431910E+02  0.48870481935E+02  0.00000000000E+00 0. -1.
        -16    1    4    4    0    0  0.26007027156E+03 -0.28475275747E+03  0.34198548233E+02  0.38715658297E+03  0.00000000000E+00 0.  1.
         16    1    1    2    0    0  0.93678423916E+02 -0.22242322620E+03  0.16830713851E+03  0.29423635318E+03  0.00000000000E+00 0. -1.
    9900018    1    1    2    0    0  0.37331472105E+02  0.44712823647E+02  0.18393014881E+02  0.10975589642E+03  0.91187600000E+02 0.  0.
<mgrwt>
<rscale>  0 0.11795526E+04</rscale>
<asrwt>0</asrwt>
<pdfrwt beam="1">  1        2 0.22892131E+00 0.25573799E+04</pdfrwt>
<pdfrwt beam="2">  1       -2 0.18630187E+00 0.25573799E+04</pdfrwt>
<totfact> 0.18706899E+00</totfact>
</mgrwt>
</event>
<event>
12    1  0.6455967E-017  0.2487604E+04  0.7818608E-02  0.9104602E-01
          2   -1    0    0  501    0  0.00000000000E+00  0.00000000000E+00  0.23561068582E+04  0.23561068582E+04  0.00000000000E+00 0. -1.
         -2   -1    0    0    0  501 -0.00000000000E+00 -0.00000000000E+00 -0.76424133397E+03  0.76424133397E+03  0.00000000000E+00 0.  1.
         23    2    1    2    0    0 -0.32147306673E+02 -0.56661434895E+02 -0.40735310435E+02  0.14485545695E+03  0.12279971645E+03 0.  0.
    9900016    2    1    2    0    0  0.76425958110E+02 -0.13285953692E+03  0.14193381101E+04  0.25747122681E+04  0.21426922338E+04 0.  0.
        -24    2    4    4    0    0 -0.69398837421E+03 -0.80851986636E+03  0.43068336827E+03  0.11508115262E+04  0.59621868475E+02 0.  0.
        -15    1    4    4    0    0  0.77041433232E+03  0.67566032945E+03  0.98865474186E+03  0.14239007419E+04  0.00000000000E+00 0.  1.
        -15    1    3    3    0    0 -0.57186128069E+02 -0.81497443575E+02 -0.13869209888E+02  0.10052085125E+03  0.00000000000E+00 0.  1.
         15    1    3    3    0    0  0.25038821396E+02  0.24836008680E+02 -0.26866100547E+02  0.44334605701E+02  0.00000000000E+00 0. -1.
         15    1    5    5    0    0 -0.45587431675E+03 -0.53605334986E+03  0.31446715612E+03  0.77075558956E+03  0.00000000000E+00 0. -1.
        -16    1    5    5    0    0 -0.23811405746E+03 -0.27246651650E+03  0.11621621215E+03  0.38005593660E+03  0.00000000000E+00 0.  1.
         16    1    1    2    0    0  0.23783093837E+02  0.21823945998E+03  0.11562605337E+03  0.24811989373E+03  0.00000000000E+00 0. -1.
    9900018    1    1    2    0    0 -0.68061745274E+02 -0.28718488171E+02  0.97636671204E+02  0.15266057346E+03  0.91187600000E+02 0.  0.
<mgrwt>
<rscale>  0 0.12094760E+04</rscale>
<asrwt>0</asrwt>
<pdfrwt beam="1">  1        2 0.36247798E+00 0.24876036E+04</pdfrwt>
<pdfrwt beam="2">  1       -2 0.11757559E+00 0.24876036E+04</pdfrwt>
<totfact> 0.20873172E+00</totfact>
</mgrwt>
</event>
<event>
12    1  0.6455967E-017  0.3876385E+04  0.7818608E-02  0.8770413E-01
          2   -1    0    0  501    0  0.00000000000E+00  0.00000000000E+00  0.26648167657E+04  0.26648167657E+04  0.00000000000E+00 0. -1.
         -2   -1    0    0    0  501 -0.00000000000E+00 -0.00000000000E+00 -0.15388281400E+04  0.15388281400E+04  0.00000000000E+00 0.  1.
         23    2    1    2    0    0  0.38518584977E+02  0.51319213755E+02 -0.58956899692E+02  0.15019519354E+03  0.12233289440E+03 0.  0.
    9900016    2    1    2    0    0 -0.22459545172E+03  0.49986645652E+02 -0.50622018764E+03  0.22207888888E+04  0.21500471224E+04 0.  0.
        -24    2    4    4    0    0 -0.58287036785E+03 -0.70788935859E+02 -0.12524627014E+04  0.13842331249E+04  0.51861224570E+02 0.  0.
        -15    1    4    4    0    0  0.35827491613E+03  0.12077558151E+03  0.74624251377E+03  0.83655576382E+03  0.00000000000E+00 0.  1.
        -15    1    3    3    0    0  0.77678959513E+02  0.13965852845E+02 -0.14693467597E+02  0.80280531804E+02  0.00000000000E+00 0.  1.
         15    1    3    3    0    0 -0.39160374536E+02  0.37353360910E+02 -0.44263432096E+02  0.69914661738E+02  0.00000000000E+00 0. -1.
         15    1    5    5    0    0 -0.16904755739E+03 -0.32144704830E+02 -0.41662907298E+03  0.45076617349E+03  0.00000000000E+00 0. -1.
        -16    1    5    5    0    0 -0.41382281046E+03 -0.38644231028E+02 -0.83583362843E+03  0.93346695146E+03  0.00000000000E+00 0.  1.
         16    1    1    2    0    0  0.17087348551E+03 -0.15308711414E+03  0.17097581598E+04  0.17250815568E+04  0.00000000000E+00 0. -1.
    9900018    1    1    2    0    0  0.15203381223E+02  0.51781254732E+02 -0.18592446811E+02  0.10757926666E+03  0.91187600000E+02 0.  0.
<mgrwt>
<rscale>  0 0.16842249E+04</rscale>
<asrwt>0</asrwt>
<pdfrwt beam="1">  1        2 0.40997181E+00 0.38763847E+04</pdfrwt>
<pdfrwt beam="2">  1       -2 0.23674279E+00 0.38763847E+04</pdfrwt>
<totfact> 0.17117779E-01</totfact>
</mgrwt>
</event>
<event>
12    1  0.6455967E-017  0.3495535E+04  0.7818608E-02  0.8723117E-01
         -2   -1    0    0    0  501 -0.00000000000E+00  0.00000000000E+00  0.29518644704E+04  0.29518644704E+04  0.00000000000E+00 0.  1.
          2   -1    0    0  501    0  0.00000000000E+00 -0.00000000000E+00 -0.11828204631E+04  0.11828204631E+04  0.00000000000E+00 0. -1.
         23    2    1    2    0    0  0.11954028560E+03 -0.14994488646E+03  0.32049560278E+02  0.23136353496E+03  0.12541356442E+03 0.  0.
    9900016    2    1    2    0    0 -0.43301261245E+03 -0.40156332078E+03  0.19960175965E+04  0.30037812387E+04  0.21656090278E+04 0.  0.
        -24    2    4    4    0    0 -0.68063802085E+03 -0.11858803004E+04  0.92481493467E+03  0.16532455634E+04  0.91422247767E+02 0.  0.
        -15    1    3    3    0    0  0.10706706681E+03 -0.16534961293E+03  0.51484491272E+02  0.20360379204E+03  0.00000000000E+00 0.  1.
        -15    1    4    4    0    0  0.24762540840E+03  0.78431697961E+03  0.10712026618E+04  0.13505356752E+04  0.00000000000E+00 0.  1.
         15    1    3    3    0    0  0.12473218787E+02  0.15404726469E+02 -0.19434930993E+02  0.27759742924E+02  0.00000000000E+00 0. -1.
         15    1    5    5    0    0 -0.10633085933E+03 -0.25277304668E+03  0.20265316214E+03  0.34098206536E+03  0.00000000000E+00 0. -1.
        -16    1    5    5    0    0 -0.57430716152E+03 -0.93310725371E+03  0.72216177253E+03  0.13122634981E+04  0.00000000000E+00 0.  1.
         16    1    1    2    0    0  0.33933621258E+03  0.55246049789E+03 -0.37559900280E+03  0.74929051629E+03  0.00000000000E+00 0. -1.
    9900018    1    1    2    0    0 -0.25863885722E+02 -0.95229065335E+00  0.11657585327E+03  0.15024964360E+03  0.91187600000E+02 0.  0.
<mgrwt>
<rscale>  0 0.17687122E+04</rscale>
<asrwt>0</asrwt>
<pdfrwt beam="1">  1        2 0.18197238E+00 0.34955355E+04</pdfrwt>
<pdfrwt beam="2">  1       -2 0.45413299E+00 0.34955355E+04</pdfrwt>
<totfact> 0.51496285E-02</totfact>
</mgrwt>
</event>
<event>
11    1  0.6455967E-017  0.3647944E+04  0.7818608E-02  0.8609320E-01
         -1   -1    0    0    0  501 -0.00000000000E+00  0.00000000000E+00  0.17201589377E+04  0.17201589377E+04  0.00000000000E+00 0.  1.
          1   -1    0    0  501    0  0.00000000000E+00 -0.00000000000E+00 -0.22991731716E+04  0.22991731716E+04  0.00000000000E+00 0. -1.
         23    2    1    2    0    0  0.19656372870E+03 -0.23250038829E+03 -0.55165460867E+00  0.32580862847E+03  0.11600529328E+03 0.  0.
    9900016    2    1    2    0    0 -0.89311288855E+03  0.44793501723E+02  0.43557342630E+03  0.24490623010E+04  0.22379733812E+04 0.  0.
        -15    1    3    3    0    0  0.18088817034E+03 -0.24375489221E+03  0.10211874190E+02  0.30371246273E+03  0.00000000000E+00 0.  1.
        -15    1    4    4    0    0 -0.12123133694E+04  0.74818450003E+02  0.99352285944E+03  0.15692001715E+04  0.00000000000E+00 0.  1.
         15    1    4    4    0    0  0.17006069738E+03 -0.15847484421E+03 -0.34795155288E+03  0.41845573266E+03  0.00000000000E+00 0. -1.
         15    1    3    3    0    0  0.15675558357E+02  0.11254503917E+02 -0.10763528798E+02  0.22096165740E+02  0.00000000000E+00 0. -1.
        -16    1    4    4    0    0  0.22425724224E+03  0.12319096941E+03 -0.22685474741E+03  0.34195087669E+03  0.00000000000E+00 0.  1.
         16    1    1    2    0    0  0.69654915985E+03  0.18770688657E+03 -0.10140360056E+04  0.12444611798E+04  0.00000000000E+00 0. -1.
    9900018    1    4    4    0    0 -0.75117458762E+02  0.52589265189E+01  0.16856867150E+02  0.11945552010E+03  0.91187600000E+02 0.  0.
<mgrwt>
<rscale>  0 0.19942363E+04</rscale>
<asrwt>0</asrwt>
<pdfrwt beam="1">  1        1 0.35371895E+00 0.36479442E+04</pdfrwt>
<pdfrwt beam="2">  1       -1 0.26463984E+00 0.36479442E+04</pdfrwt>
<totfact> 0.83113698E-02</totfact>
</mgrwt>
</event>
