<event>
12    1  0.3050220E-011  0.5379682E+04  0.7818608E-02  0.7772465E-01
         -2   -1    0    0    0  501 -0.00000000000E+00  0.00000000000E+00  0.17529365064E+04  0.17529365064E+04  0.00000000000E+00 0.  1.
          2   -1    0    0  501    0  0.00000000000E+00 -0.00000000000E+00 -0.41274998496E+04  0.41274998496E+04  0.00000000000E+00 0. -1.
    9900016    2    1    2    0    0 -0.11597815964E+04  0.22508252645E+03 -0.15155305380E+04  0.28006880334E+04  0.20374653749E+04 0.  0.
    9900016    2    1    2    0    0  0.78660143297E+03  0.19175103987E+03 -0.94065291194E+03  0.25070436198E+04  0.21782859167E+04 0.  0.
        -24    2    4    4    0    0  0.47785315287E+03  0.10290771659E+04 -0.11205165463E+04  0.15966637712E+04  0.80214827500E+02 0.  0.
        -15    1    3    3    0    0 -0.54110895842E+02  0.74002521738E+02  0.26063538146E+02  0.95308290789E+02  0.00000000000E+00 0.  1.
        -15    1    4    4    0    0  0.30874828010E+03 -0.83732612602E+03  0.17986363438E+03  0.91037984861E+03  0.00000000000E+00 0.  1.
         15    1    5    5    0    0  0.27582653077E+03  0.62076975360E+03 -0.72309270923E+03  0.99211815234E+03  0.00000000000E+00 0. -1.
         15    1    3    3    0    0 -0.64511772362E+03  0.89187809831E+03 -0.22099865030E+03  0.11227038002E+04  0.00000000000E+00 0. -1.
        -16    1    5    5    0    0  0.20202662211E+03  0.40830741229E+03 -0.39742383709E+03  0.60454561884E+03  0.00000000000E+00 0.  1.
         16    1    3    3    0    0 -0.46055297697E+03 -0.74079809360E+03 -0.13205954258E+04  0.15826759424E+04  0.00000000000E+00 0. -1.
    9900018    1    1    2    0    0  0.37318016347E+03 -0.41683356632E+03  0.81620106688E+02  0.57270470282E+03  0.91187600000E+02 0.  0.
<mgrwt>
<rscale>  0 0.53796822E+04</rscale>
<asrwt>0</asrwt>
<pdfrwt beam="1">  1        2 0.63499997E+00 0.53796822E+04</pdfrwt>
<pdfrwt beam="2">  1       -2 0.26968254E+00 0.53796822E+04</pdfrwt>
<totfact> 0.91719826E-03</totfact>
</mgrwt>
</event>
<event>
12    1  0.3050220E-011  0.4246368E+04  0.7818608E-02  0.8437827E-01
         -1   -1    0    0    0  501 -0.00000000000E+00  0.00000000000E+00  0.30070032926E+04  0.30070032926E+04  0.00000000000E+00 0.  1.
          1   -1    0    0  501    0  0.00000000000E+00 -0.00000000000E+00 -0.18512680503E+04  0.18512680503E+04  0.00000000000E+00 0. -1.
         23    2    1    2    0    0  0.37705781154E+03 -0.19404244751E+03  0.29128201247E+03  0.52480610989E+03  0.10368788507E+03 0.  0.
    9900016    2    1    2    0    0  0.46203319111E+03  0.29631534715E+03  0.23488198468E+03  0.22884928335E+04  0.22092425054E+04 0.  0.
        -24    2    4    4    0    0  0.90768718369E+03 -0.21566103207E+03 -0.67424935563E+03  0.11539237136E+04  0.80759141873E+02 0.  0.
        -15    1    4    4    0    0 -0.44565399258E+03  0.51197637923E+03  0.90913134031E+03  0.11345691199E+04  0.00000000000E+00 0.  1.
        -15    1    3    3    0    0  0.25636847839E+03 -0.78061081989E+02  0.16038135315E+03  0.31231475737E+03  0.00000000000E+00 0.  1.
         15    1    5    5    0    0  0.49279085328E+03 -0.82260172708E+02 -0.33321010250E+03  0.60053187550E+03  0.00000000000E+00 0. -1.
         15    1    3    3    0    0  0.12068933315E+03 -0.11598136552E+03  0.13090065932E+03  0.21249135252E+03  0.00000000000E+00 0. -1.
        -16    1    5    5    0    0  0.41489633040E+03 -0.13340085936E+03 -0.34103925314E+03  0.55339183807E+03  0.00000000000E+00 0.  1.
         16    1    1    2    0    0 -0.64437559925E+03  0.20237793821E+03 -0.50975193380E+03  0.84618188162E+03  0.00000000000E+00 0. -1.
    9900018    1    1    2    0    0 -0.19471540340E+03 -0.30465083785E+03  0.11393231789E+04  0.11987905178E+04  0.91187600000E+02 0.  0.
<mgrwt>
<rscale>  0 0.24044836E+04</rscale>
<asrwt>0</asrwt>
<pdfrwt beam="1">  1        1 0.28481047E+00 0.42463680E+04</pdfrwt>
<pdfrwt beam="2">  1       -1 0.46261589E+00 0.42463680E+04</pdfrwt>
<totfact> 0.75314010E-03</totfact>
</mgrwt>
</event>
<event>
13    1  0.3153632E-011  0.6202810E+04  0.7818608E-02  0.7665752E-01
         -1   -1    0    0    0  501 -0.00000000000E+00  0.00000000000E+00  0.28205898104E+04  0.28205898104E+04  0.00000000000E+00 0.  1.
          1   -1    0    0  501    0  0.00000000000E+00 -0.00000000000E+00 -0.34101781363E+04  0.34101781363E+04  0.00000000000E+00 0. -1.
    9900016    2    1    2    0    0 -0.12034171559E+04  0.76338255162E+03 -0.82120960238E+03  0.28675389744E+04  0.23489207708E+04 0.  0.
         23    2    3    3    0    0  0.22013514047E+02  0.13782520544E+03  0.75344054211E+03  0.77648053480E+03  0.12557463270E+03 0.  0.
    9900016    2    1    2    0    0  0.15458437458E+04 -0.44511647874E+03  0.53845040275E+03  0.27966528046E+04  0.22234155049E+04 0.  0.
        -24    2    5    5    0    0 -0.14694314770E+03 -0.47498694949E+02 -0.66147999706E+03  0.68396249765E+03  0.80003106160E+02 0.  0.
        -15    1    5    5    0    0  0.16927868935E+04 -0.39761778380E+03  0.11999303998E+04  0.21126903070E+04  0.00000000000E+00 0.  1.
        -15    1    4    4    0    0  0.71124009842E+02  0.10125865934E+03  0.56304074339E+03  0.57647794371E+03  0.00000000000E+00 0. -1.
         15    1    6    6    0    0 -0.64790214017E+02 -0.10368171267E+02 -0.13834901612E+03  0.15311995647E+03  0.00000000000E+00 0. -1.
         15    1    4    4    0    0 -0.49110495795E+02  0.36566546100E+02  0.19039979872E+03  0.20000259109E+03  0.00000000000E+00 0.  1.
        -16    1    6    6    0    0 -0.82152933684E+02 -0.37130523683E+02 -0.52313098094E+03  0.53084254118E+03  0.00000000000E+00 0.  1.
         16    1    3    3    0    0 -0.12254306699E+04  0.62555734618E+03 -0.15746501445E+04  0.20910584396E+04  0.00000000000E+00 0. -1.
    9900018    1    1    2    0    0 -0.34242658997E+03 -0.31826607288E+03 -0.30682912629E+03  0.56657616769E+03  0.91187600000E+02 0.  0.
<mgrwt>
<rscale>  0 0.62028102E+04</rscale>
<asrwt>0</asrwt>
<pdfrwt beam="1">  1        1 0.52464279E+00 0.62028102E+04</pdfrwt>
<pdfrwt beam="2">  1       -1 0.43393689E+00 0.62028102E+04</pdfrwt>
<totfact> 0.80911194E-04</totfact>
</mgrwt>
</event>
<event>
12    1  0.3050220E-011  0.4637950E+04  0.7818608E-02  0.8600146E-01
         -2   -1    0    0    0  501 -0.00000000000E+00  0.00000000000E+00  0.22840084907E+04  0.22840084907E+04  0.00000000000E+00 0.  1.
          2   -1    0    0  501    0  0.00000000000E+00 -0.00000000000E+00 -0.28602803493E+04  0.28602803493E+04  0.00000000000E+00 0. -1.
         23    2    1    2    0    0 -0.11894814028E+03 -0.24608136620E+02  0.37512512965E+03  0.40976301548E+03  0.11150177352E+03 0.  0.
    9900016    2    1    2    0    0  0.10890246947E+04  0.64091324765E+03  0.24257187434E+03  0.25557262041E+04  0.22082007924E+04 0.  0.
        -24    2    4    4    0    0  0.21065463512E+03 -0.52955271710E+03 -0.62892580629E+03  0.85248437055E+03  0.79877886384E+02 0.  0.
        -15    1    3    3    0    0 -0.55689265765E+01 -0.48023626972E+02  0.93205420133E+02  0.10499777156E+03  0.00000000000E+00 0.  1.
        -15    1    4    4    0    0  0.87837005962E+03  0.11704659648E+04  0.87149768063E+03  0.17032418336E+04  0.00000000000E+00 0.  1.
         15    1    5    5    0    0  0.27681757627E+02 -0.12350289785E+03 -0.18066269118E+03  0.22058615883E+03  0.00000000000E+00 0. -1.
         15    1    3    3    0    0 -0.11337921370E+03  0.23415490352E+02  0.28191970951E+03  0.30476524392E+03  0.00000000000E+00 0. -1.
        -16    1    5    5    0    0  0.18297287749E+03 -0.40604981925E+03 -0.44826311511E+03  0.63189821172E+03  0.00000000000E+00 0.  1.
         16    1    1    2    0    0 -0.31199945212E+03  0.25148425679E+03 -0.98864735597E+03  0.10667762577E+04  0.00000000000E+00 0. -1.
    9900018    1    1    2    0    0 -0.65807710234E+03 -0.86778936782E+03 -0.20532150661E+03  0.11120233626E+04  0.91187600000E+02 0.  0.
<mgrwt>
<rscale>  0 0.20139071E+04</rscale>
<asrwt>0</asrwt>
<pdfrwt beam="1">  1        2 0.44004313E+00 0.46379498E+04</pdfrwt>
<pdfrwt beam="2">  1       -2 0.35138592E+00 0.46379498E+04</pdfrwt>
<totfact> 0.23853889E-02</totfact>
</mgrwt>
</event>
<event>
12    1  0.3050220E-011  0.4097163E+04  0.7818608E-02  0.8337706E-01
         -2   -1    0    0    0  501 -0.00000000000E+00  0.00000000000E+00  0.18917056717E+04  0.18917056717E+04  0.00000000000E+00 0.  1.
          2   -1    0    0  501    0  0.00000000000E+00 -0.00000000000E+00 -0.31697506661E+04  0.31697506661E+04  0.00000000000E+00 0. -1.
         23    2    1    2    0    0  0.14978376010E+03 -0.74433860046E+03 -0.43491199875E+03  0.87844129643E+03  0.77688723046E+02 0.  0.
    9900016    2    1    2    0    0  0.61078547610E+03  0.29665746504E+03 -0.15788633519E+04  0.27894029848E+04  0.21970195672E+04 0.  0.
         24    2    4    4    0    0 -0.50396378152E+01 -0.31954418416E+03  0.46321407807E+03  0.56926216199E+03  0.85780203877E+02 0.  0.
        -15    1    5    5    0    0  0.16587453340E+02 -0.10653434896E+02  0.16415208071E+02  0.25653427439E+02  0.00000000000E+00 0.  1.
        -15    1    3    3    0    0 -0.85668593126E+00 -0.43078761079E+02 -0.43965593510E+02  0.61558809115E+02  0.00000000000E+00 0.  1.
         15    1    3    3    0    0  0.15064044603E+03 -0.70125983938E+03 -0.39094640524E+03  0.81688248732E+03  0.00000000000E+00 0. -1.
         15    1    4    4    0    0  0.61582511391E+03  0.61620164920E+03 -0.20420774299E+04  0.22201408229E+04  0.00000000000E+00 0. -1.
        -16    1    1    2    0    0 -0.84542459125E+03  0.45509964027E+03  0.80316691218E+03  0.12517729470E+04  0.00000000000E+00 0.  1.
         16    1    5    5    0    0 -0.21627091155E+02 -0.30889074926E+03  0.44679887000E+03  0.54360873456E+03  0.00000000000E+00 0. -1.
    9900018    1    1    2    0    0  0.84855355046E+02 -0.74185048468E+01 -0.67436555932E+02  0.14183910943E+03  0.91187600000E+02 0.  0.
<mgrwt>
<rscale>  0 0.26916921E+04</rscale>
<asrwt>0</asrwt>
<pdfrwt beam="1">  1        2 0.48765395E+00 0.40971626E+04</pdfrwt>
<pdfrwt beam="2">  1       -2 0.29103164E+00 0.40971626E+04</pdfrwt>
<totfact> 0.37217625E-02</totfact>
</mgrwt>
</event>
<event>
13    1  0.3050220E-011  0.4880018E+04  0.7818608E-02  0.7847287E-01
         -2   -1    0    0    0  501 -0.00000000000E+00  0.00000000000E+00  0.20515590281E+04  0.20515590281E+04  0.00000000000E+00 0.  1.
          2   -1    0    0  501    0  0.00000000000E+00 -0.00000000000E+00 -0.29020090283E+04  0.29020090283E+04  0.00000000000E+00 0. -1.
    9900016    2    1    2    0    0 -0.55903773567E+03 -0.10755393104E+03  0.40563261545E+02  0.23600662356E+04  0.22900166419E+04 0.  0.
         23    2    3    3    0    0 -0.49473334871E+03 -0.48498684506E+02  0.11446129957E+04  0.12525697833E+04  0.10806916050E+03 0.  0.
    9900016    2    1    2    0    0  0.59725259951E+03 -0.17926295406E+02 -0.86462449504E+03  0.24315845320E+04  0.21927142538E+04 0.  0.
        -24    2    5    5    0    0 -0.31528074188E+03  0.28837204966E+03 -0.13032028879E+04  0.13738100844E+04  0.80349210182E+02 0.  0.
        -15    1    5    5    0    0  0.91253334139E+03 -0.30629834506E+03  0.43857839288E+03  0.10577744476E+04  0.00000000000E+00 0.  1.
        -15    1    4    4    0    0 -0.34196380392E+03 -0.83425126853E+02  0.79598571840E+03  0.87034031211E+03  0.00000000000E+00 0.  1.
         15    1    4    4    0    0 -0.15276954478E+03  0.34926442348E+02  0.34862727727E+03  0.38222947119E+03  0.00000000000E+00 0. -1.
         15    1    6    6    0    0 -0.54504748808E+02  0.33789631656E+02 -0.29144468436E+03  0.29841667328E+03  0.00000000000E+00 0. -1.
        -16    1    6    6    0    0 -0.26077599307E+03  0.25458241800E+03 -0.10117582036E+04  0.10753934111E+04  0.00000000000E+00 0.  1.
         16    1    3    3    0    0 -0.64304386967E+02 -0.59055246530E+02 -0.11040497341E+04  0.11074964523E+04  0.00000000000E+00 0. -1.
    9900018    1    1    2    0    0 -0.38214863838E+02  0.12548022644E+03 -0.26388766677E+02  0.16191728891E+03  0.91187600000E+02 0.  0.
<mgrwt>
<rscale>  0 0.48800175E+04</rscale>
<asrwt>0</asrwt>
<pdfrwt beam="1">  1        2 0.44646293E+00 0.48800175E+04</pdfrwt>
<pdfrwt beam="2">  1       -2 0.31562447E+00 0.48800175E+04</pdfrwt>
<totfact> 0.37505506E-02</totfact>
</mgrwt>
</event>
<event>
13    1  0.3050220E-011  0.5551291E+04  0.7818608E-02  0.7748671E-01
         -1   -1    0    0    0  501 -0.00000000000E+00  0.00000000000E+00  0.30065744189E+04  0.30065744189E+04  0.00000000000E+00 0.  1.
          1   -1    0    0  501    0  0.00000000000E+00 -0.00000000000E+00 -0.25624533174E+04  0.25624533174E+04  0.00000000000E+00 0. -1.
    9900016    2    1    2    0    0 -0.18400240384E+03 -0.59597148469E+03 -0.61957112477E+03  0.22633019221E+04  0.20855762553E+04 0.  0.
         23    2    3    3    0    0 -0.27548489111E+03  0.28964369276E+03 -0.11528864379E+04  0.12254635381E+04  0.11326230845E+03 0.  0.
    9900016    2    1    2    0    0  0.61158989271E+03 -0.11690961314E+03  0.88718625222E+03  0.24510328531E+04  0.21983522344E+04 0.  0.
        -24    2    5    5    0    0 -0.35624565758E+03  0.51671024379E+03 -0.37815376924E+03  0.73660433454E+03  0.75400450207E+02 0.  0.
        -15    1    5    5    0    0  0.96783555029E+03 -0.63361985693E+03  0.12653400215E+04  0.17144285186E+04  0.00000000000E+00 0.  1.
        -15    1    4    4    0    0 -0.94543562961E+02  0.10713595350E+03 -0.58389315070E+03  0.60112212509E+03  0.00000000000E+00 0.  1.
         15    1    4    4    0    0 -0.18094132815E+03  0.18250773926E+03 -0.56899328724E+03  0.62434141305E+03  0.00000000000E+00 0. -1.
         15    1    6    6    0    0 -0.21223594674E+03  0.26087024915E+03 -0.23272926149E+03  0.40897468520E+03  0.00000000000E+00 0. -1.
        -16    1    6    6    0    0 -0.14400971084E+03  0.25583999463E+03 -0.14542450775E+03  0.32762964934E+03  0.00000000000E+00 0.  1.
         16    1    3    3    0    0  0.91482487267E+02 -0.88561517745E+03  0.53331531317E+03  0.10378383840E+04  0.00000000000E+00 0. -1.
    9900018    1    1    2    0    0 -0.42758748886E+03  0.71288109783E+03  0.17650597409E+03  0.85469296099E+03  0.91187600000E+02 0.  0.
<mgrwt>
<rscale>  0 0.55512905E+04</rscale>
<asrwt>0</asrwt>
<pdfrwt beam="1">  1        1 0.39422358E+00 0.55512905E+04</pdfrwt>
<pdfrwt beam="2">  1       -1 0.46254991E+00 0.55512905E+04</pdfrwt>
<totfact> 0.22582959E-03</totfact>
</mgrwt>
</event>
<event>
12    1  0.3050220E-011  0.4286425E+04  0.7818608E-02  0.8278169E-01
         -2   -1    0    0    0  501 -0.00000000000E+00  0.00000000000E+00  0.21096417340E+04  0.21096417340E+04  0.00000000000E+00 0.  1.
          2   -1    0    0  501    0  0.00000000000E+00 -0.00000000000E+00 -0.31623398682E+04  0.31623398682E+04  0.00000000000E+00 0. -1.
         23    2    1    2    0    0 -0.77237382075E+03 -0.39588931950E+03 -0.11080710679E+03  0.88329149172E+03  0.12097922198E+03 0.  0.
    9900016    2    1    2    0    0  0.42650868582E+02  0.34207546614E+03 -0.32411119954E+03  0.22362737891E+04  0.21856435366E+04 0.  0.
        -24    2    4    4    0    0 -0.74577064654E+03  0.18981135838E+03 -0.94505324586E+03  0.12212063682E+04  0.77570272964E+02 0.  0.
        -15    1    3    3    0    0 -0.22867944065E+02 -0.20010634790E+02 -0.26977225206E+02  0.40634210344E+02  0.00000000000E+00 0.  1.
        -15    1    4    4    0    0  0.78842151512E+03  0.15226410775E+03  0.62094204632E+03  0.10150674209E+04  0.00000000000E+00 0.  1.
         15    1    5    5    0    0 -0.25315953464E+03  0.98953439066E+02 -0.35775293391E+03  0.44929800222E+03  0.00000000000E+00 0. -1.
         15    1    3    3    0    0 -0.74950587669E+03 -0.37587868471E+03 -0.83829881587E+02  0.84265728138E+03  0.00000000000E+00 0. -1.
        -16    1    5    5    0    0 -0.49261111190E+03  0.90857919318E+02 -0.58730031195E+03  0.77190836599E+03  0.00000000000E+00 0.  1.
         16    1    1    2    0    0  0.11763803779E+04 -0.37020826343E+03  0.56646497657E+02  0.12345581305E+04  0.00000000000E+00 0. -1.
    9900018    1    1    2    0    0 -0.44665742577E+03  0.42402211679E+03 -0.67442632558E+03  0.91785819087E+03  0.91187600000E+02 0.  0.
<mgrwt>
<rscale>  0 0.28822812E+04</rscale>
<asrwt>0</asrwt>
<pdfrwt beam="1">  1        2 0.48651382E+00 0.42864253E+04</pdfrwt>
<pdfrwt beam="2">  1       -2 0.32456027E+00 0.42864253E+04</pdfrwt>
<totfact> 0.22993556E-02</totfact>
</mgrwt>
</event>
