<event>
12    1  0.1015858E-009  0.1603237E+04  0.7818608E-02  0.8818562E-01
          3   -1    0    0  501    0  0.00000000000E+00  0.00000000000E+00  0.13340034986E+04  0.13340034986E+04  0.00000000000E+00 0. -1.
         -3   -1    0    0    0  501 -0.00000000000E+00 -0.00000000000E+00 -0.48170178067E+03  0.48170178067E+03  0.00000000000E+00 0.  1.
    9900016    2    1    2    0    0 -0.20833300863E+03 -0.29189288018E+02  0.82528241283E+03  0.10779659412E+04  0.66080621403E+03 0.  0.
         25    2    3    3    0    0 -0.29614989425E+03  0.21166280372E+03  0.68503023001E+03  0.78574648554E+03  0.12500088471E+03 0.  0.
         23    2    4    4    0    0 -0.23432069433E+03  0.15559753172E+03  0.56926562345E+03  0.64139118171E+03  0.90567755113E+02 0.  0.
        -15    1    5    5    0    0 -0.12236666003E+02 -0.85777306870E+01  0.11029896033E+02  0.18573423623E+02  0.00000000000E+00 0.  1.
        -15    1    4    4    0    0 -0.51256489014E+02  0.34456558413E+02  0.76667292588E+02  0.98449763009E+02  0.00000000000E+00 0. -1.
         15    1    4    4    0    0 -0.10572710905E+02  0.21608713583E+02  0.39097313971E+02  0.45905540824E+02  0.00000000000E+00 0.  1.
         15    1    5    5    0    0 -0.22208402832E+03  0.16417526241E+03  0.55823572741E+03  0.62281775809E+03  0.00000000000E+00 0. -1.
        -16    1    1    2    0    0  0.12002725088E+03  0.23008990366E+03 -0.25847934681E+03  0.36627786918E+03  0.00000000000E+00 0.  1.
         16    1    3    3    0    0  0.87816885617E+02 -0.24085209174E+03  0.14025218282E+03  0.29221945568E+03  0.00000000000E+00 0. -1.
    9900018    1    1    2    0    0  0.88305757753E+02 -0.20090061565E+03  0.28549865196E+03  0.37146146891E+03  0.91187600000E+02 0.  0.
<mgrwt>
<rscale>  0 0.16032366E+04</rscale>
<asrwt>0</asrwt>
<pdfrwt beam="1">  1        3 0.20523131E+00 0.16032366E+04</pdfrwt>
<pdfrwt beam="2">  1       -3 0.74107967E-01 0.16032366E+04</pdfrwt>
<totfact> 0.59078910E-01</totfact>
</mgrwt>
</event>
<event>
12    1  0.1015858E-009  0.1703761E+04  0.7818608E-02  0.8759222E-01
          1   -1    0    0  501    0  0.00000000000E+00  0.00000000000E+00  0.72212554791E+03  0.72212554791E+03  0.00000000000E+00 0. -1.
         -1   -1    0    0    0  501 -0.00000000000E+00 -0.00000000000E+00 -0.10049500486E+04  0.10049500486E+04  0.00000000000E+00 0.  1.
    9900016    2    1    2    0    0  0.13521930431E+03  0.97294152193E+02 -0.30198702072E+03  0.79032149013E+03  0.71109878693E+03 0.  0.
         25    2    3    3    0    0  0.13183314653E+03 -0.47782140036E+01  0.20453475254E+03  0.27360634541E+03  0.12499262937E+03 0.  0.
         23    2    4    4    0    0  0.12891739192E+03  0.11968083096E+02  0.19005429485E+03  0.24606391632E+03  0.87543628968E+02 0.  0.
        -15    1    5    5    0    0 -0.12311948460E+02  0.80819068060E+01  0.22540594768E+02  0.26925447164E+02  0.00000000000E+00 0.  1.
        -15    1    4    4    0    0  0.77272171503E+01 -0.67972414757E+01  0.13489944436E+01  0.10379410512E+02  0.00000000000E+00 0.  1.
         15    1    5    5    0    0  0.14122934038E+03  0.38861762900E+01  0.16751370008E+03  0.21913846916E+03  0.00000000000E+00 0. -1.
         15    1    4    4    0    0 -0.48114625357E+01 -0.99490556239E+01  0.13131463244E+02  0.17163018571E+02  0.00000000000E+00 0. -1.
        -16    1    3    3    0    0  0.33861577804E+01  0.10207236620E+03 -0.50652177326E+03  0.51671514473E+03  0.00000000000E+00 0.  1.
         16    1    1    2    0    0 -0.29296642876E+03  0.55534335874E+02  0.39322379052E+03  0.49349603876E+03  0.00000000000E+00 0. -1.
    9900018    1    1    2    0    0  0.15774712445E+03 -0.15282848807E+03 -0.37406127045E+03  0.44325806759E+03  0.91187600000E+02 0.  0.
<mgrwt>
<rscale>  0 0.17037607E+04</rscale>
<asrwt>0</asrwt>
<pdfrwt beam="1">  1        1 0.11109624E+00 0.17037607E+04</pdfrwt>
<pdfrwt beam="2">  1       -1 0.15460770E+00 0.17037607E+04</pdfrwt>
<totfact> 0.79412019E+00</totfact>
</mgrwt>
</event>
<event>
12    1  0.1015858E-009  0.1583135E+04  0.7818608E-02  0.8830976E-01
         -2   -1    0    0    0  501 -0.00000000000E+00  0.00000000000E+00  0.82568184027E+03  0.82568184027E+03  0.00000000000E+00 0.  1.
          2   -1    0    0  501    0  0.00000000000E+00 -0.00000000000E+00 -0.75886242594E+03  0.75886242594E+03  0.00000000000E+00 0. -1.
    9900016    2    1    2    0    0  0.51211649497E+02  0.37931762156E+03  0.29199941154E+02  0.76656661848E+03  0.66352637698E+03 0.  0.
         25    2    3    3    0    0 -0.17060138019E+03  0.11378312256E+03 -0.23133295367E+03  0.33345349287E+03  0.12499946620E+03 0.  0.
         23    2    4    4    0    0 -0.92615475487E+02  0.60242536742E+02 -0.16429327150E+03  0.21417154194E+03  0.81672399154E+02 0.  0.
        -15    1    5    5    0    0 -0.24586107396E+02  0.12446127390E+02  0.26365928522E+01  0.27682745271E+02  0.00000000000E+00 0. -1.
        -15    1    4    4    0    0 -0.36606336432E+02  0.18353267460E+02 -0.13770569615E+02  0.43202949911E+02  0.00000000000E+00 0.  1.
         15    1    5    5    0    0 -0.68029368091E+02  0.47796409352E+02 -0.16692986435E+03  0.18648879667E+03  0.00000000000E+00 0.  1.
         15    1    4    4    0    0 -0.41379568271E+02  0.35187318362E+02 -0.53269112552E+02  0.76079001018E+02  0.00000000000E+00 0. -1.
        -16    1    1    2    0    0  0.68621962104E+00 -0.57165648622E+03  0.11962307495E+03  0.58403877371E+03  0.00000000000E+00 0.  1.
         16    1    3    3    0    0  0.22181302969E+03  0.26553449899E+03  0.26053289482E+03  0.43311312561E+03  0.00000000000E+00 0. -1.
    9900018    1    1    2    0    0 -0.51897869118E+02  0.19233886466E+03 -0.82003601773E+02  0.23393887402E+03  0.91187600000E+02 0.  0.
<mgrwt>
<rscale>  0 0.15831348E+04</rscale>
<asrwt>0</asrwt>
<pdfrwt beam="1">  1        2 0.11674807E+00 0.15831348E+04</pdfrwt>
<pdfrwt beam="2">  1       -2 0.12702797E+00 0.15831348E+04</pdfrwt>
<totfact> 0.16324190E+01</totfact>
</mgrwt>
</event>
<event>
12    1  0.1015858E-009  0.1370138E+04  0.7818608E-02  0.8975723E-01
         -2   -1    0    0    0  501 -0.00000000000E+00  0.00000000000E+00  0.10980841200E+04  0.10980841200E+04  0.00000000000E+00 0.  1.
          2   -1    0    0  501    0  0.00000000000E+00 -0.00000000000E+00 -0.42739826435E+03  0.42739826435E+03  0.00000000000E+00 0. -1.
    9900016    2    1    2    0    0  0.63404794474E+02 -0.29087807058E+03  0.37921301395E+03  0.85923688088E+03  0.71123504386E+03 0.  0.
         25    2    3    3    0    0  0.13656685211E+03 -0.90364055188E+02  0.54907552137E+03  0.58645156516E+03  0.12500137016E+03 0.  0.
         23    2    4    4    0    0  0.70537701979E+02 -0.59944751150E+02  0.33329384080E+03  0.35728450489E+03  0.89434291652E+02 0.  0.
        -15    1    5    5    0    0  0.20810905230E+02 -0.73790700065E+02  0.21323237143E+03  0.22659701105E+03  0.00000000000E+00 0.  1.
        -15    1    4    4    0    0  0.38962980537E+02 -0.24397771383E+02  0.16527855605E+03  0.17155280875E+03  0.00000000000E+00 0.  1.
         15    1    4    4    0    0  0.27066169598E+02 -0.60215326548E+01  0.50503124517E+02  0.57614251520E+02  0.00000000000E+00 0. -1.
         15    1    5    5    0    0  0.49726796749E+02  0.13845948915E+02  0.12006146938E+03  0.13068749384E+03  0.00000000000E+00 0. -1.
        -16    1    1    2    0    0  0.30242440081E+02 -0.11982805514E+03  0.18466616649E+03  0.22220477274E+03  0.00000000000E+00 0.  1.
         16    1    3    3    0    0 -0.73162057640E+02 -0.20051401540E+03 -0.16986250742E+03  0.27278531573E+03  0.00000000000E+00 0. -1.
    9900018    1    1    2    0    0 -0.93647234556E+02  0.41070612573E+03  0.10680667517E+03  0.44404073068E+03  0.91187600000E+02 0.  0.
<mgrwt>
<rscale>  0 0.13701376E+04</rscale>
<asrwt>0</asrwt>
<pdfrwt beam="1">  1        2 0.65753580E-01 0.13701376E+04</pdfrwt>
<pdfrwt beam="2">  1       -2 0.16893602E+00 0.13701376E+04</pdfrwt>
<totfact> 0.15586726E+01</totfact>
</mgrwt>
</event>
<event>
12    1  0.1015858E-009  0.1987772E+04  0.7818608E-02  0.8612359E-01
          2   -1    0    0  501    0  0.00000000000E+00  0.00000000000E+00  0.14371555753E+04  0.14371555753E+04  0.00000000000E+00 0. -1.
         -2   -1    0    0    0  501 -0.00000000000E+00 -0.00000000000E+00 -0.68733664263E+03  0.68733664263E+03  0.00000000000E+00 0.  1.
    9900016    2    1    2    0    0  0.16184768472E+03 -0.16599840295E+03  0.80964052831E+02  0.74700649786E+03  0.70548804891E+03 0.  0.
         25    2    3    3    0    0  0.22285501449E+03  0.81200877607E+02 -0.22425205934E+03  0.34953165121E+03  0.12500179627E+03 0.  0.
         23    2    4    4    0    0  0.17996359043E+03  0.54662200706E+02 -0.20997365901E+03  0.29564453592E+03  0.89117361236E+02 0.  0.
        -15    1    5    5    0    0  0.98073486509E+02  0.75296341199E+02 -0.12732458805E+03  0.17748098060E+03  0.00000000000E+00 0. -1.
        -15    1    4    4    0    0  0.35212935834E+02  0.15974087847E+02 -0.84191789558E+01  0.39572779873E+02  0.00000000000E+00 0. -1.
         15    1    4    4    0    0  0.76784882252E+01  0.10564589054E+02 -0.58592213749E+01  0.14314335417E+02  0.00000000000E+00 0.  1.
         15    1    5    5    0    0  0.81890103921E+02 -0.20634140492E+02 -0.82649070957E+02  0.11816355531E+03  0.00000000000E+00 0.  1.
        -16    1    1    2    0    0  0.88691341558E+02  0.28831223996E+03 -0.26321930027E+03  0.40034298022E+03  0.00000000000E+00 0.  1.
         16    1    3    3    0    0 -0.61007329768E+02 -0.24719928056E+03  0.30521611217E+03  0.39747484665E+03  0.00000000000E+00 0. -1.
    9900018    1    1    2    0    0 -0.25053902628E+03 -0.12231383701E+03  0.93207418015E+03  0.97714273988E+03  0.91187600000E+02 0.  0.
<mgrwt>
<rscale>  0 0.19877723E+04</rscale>
<asrwt>0</asrwt>
<pdfrwt beam="1">  1        2 0.22110086E+00 0.19877723E+04</pdfrwt>
<pdfrwt beam="2">  1       -2 0.10574410E+00 0.19877723E+04</pdfrwt>
<totfact> 0.92630760E+00</totfact>
</mgrwt>
</event>
<event>
12    1  0.1015858E-009  0.1039450E+04  0.7818608E-02  0.9266304E-01
          1   -1    0    0  501    0  0.00000000000E+00  0.00000000000E+00  0.67421050327E+03  0.67421050327E+03  0.00000000000E+00 0. -1.
         -1   -1    0    0    0  501 -0.00000000000E+00 -0.00000000000E+00 -0.40063762930E+03  0.40063762930E+03  0.00000000000E+00 0.  1.
    9900016    2    1    2    0    0  0.39622763850E+02 -0.78811889168E+02  0.28492485163E+03  0.75428822947E+03  0.69281114652E+03 0.  0.
         25    2    3    3    0    0  0.89144287434E+02  0.12216520034E+03 -0.16671974050E+03  0.25747135233E+03  0.12499994096E+03 0.  0.
         23    2    4    4    0    0  0.47304475571E+02  0.60929775663E+02 -0.10961009083E+03  0.15923539561E+03  0.85973183223E+02 0.  0.
        -15    1    5    5    0    0  0.56734508273E+02  0.12568854290E+02 -0.87948804060E+02  0.10541239331E+03  0.00000000000E+00 0. -1.
        -15    1    4    4    0    0  0.37695285862E+02  0.38252161712E+02 -0.51078121128E+02  0.74115699483E+02  0.00000000000E+00 0.  1.
         15    1    4    4    0    0  0.41445260015E+01  0.22983262966E+02 -0.60315285449E+01  0.24120257232E+02  0.00000000000E+00 0. -1.
         15    1    5    5    0    0 -0.94300327021E+01  0.48360921374E+02 -0.21661286768E+02  0.53823002307E+02  0.00000000000E+00 0.  1.
        -16    1    1    2    0    0  0.21550854862E+02  0.11667253134E+03 -0.11474658187E+03  0.16505664775E+03  0.00000000000E+00 0.  1.
         16    1    3    3    0    0 -0.49521523584E+02 -0.20097708951E+03  0.45164459213E+03  0.49681687714E+03  0.00000000000E+00 0. -1.
    9900018    1    1    2    0    0 -0.61173618712E+02 -0.37860642176E+02  0.10339460420E+03  0.15550325535E+03  0.91187600000E+02 0.  0.
<mgrwt>
<rscale>  0 0.10394500E+04</rscale>
<asrwt>0</asrwt>
<pdfrwt beam="1">  1        1 0.10372469E+00 0.10394500E+04</pdfrwt>
<pdfrwt beam="2">  1       -1 0.61636558E-01 0.10394500E+04</pdfrwt>
<totfact> 0.77023394E+01</totfact>
</mgrwt>
</event>
<event>
12    1  0.1015858E-009  0.2353663E+04  0.7818608E-02  0.8457058E-01
          2   -1    0    0  501    0  0.00000000000E+00  0.00000000000E+00  0.25045307881E+04  0.25045307881E+04  0.00000000000E+00 0. -1.
         -2   -1    0    0    0  501 -0.00000000000E+00 -0.00000000000E+00 -0.55297097204E+03  0.55297097204E+03  0.00000000000E+00 0.  1.
    9900016    2    1    2    0    0 -0.76345550331E+02 -0.52493677628E+03  0.10066805302E+04  0.13115150040E+04  0.65213392327E+03 0.  0.
         25    2    3    3    0    0 -0.37428928148E+02  0.24539063848E+02 -0.31311050057E+02  0.13641299870E+03  0.12500013616E+03 0.  0.
         23    2    4    4    0    0 -0.61545607326E+02  0.16517331224E+02 -0.26725856540E+02  0.10874163739E+03  0.83963017355E+02 0.  0.
        -15    1    5    5    0    0 -0.23268046286E+02  0.12480619195E+02  0.30142908880E+02  0.40071970119E+02  0.00000000000E+00 0.  1.
        -15    1    4    4    0    0  0.89057541197E+01  0.58669597741E+01 -0.60119968518E+01  0.12242458069E+02  0.00000000000E+00 0.  1.
         15    1    5    5    0    0 -0.38277561041E+02  0.40367120294E+01 -0.56868765420E+02  0.68669667275E+02  0.00000000000E+00 0. -1.
         15    1    4    4    0    0  0.15210925059E+02  0.21547728503E+01  0.14268033341E+01  0.15428903232E+02  0.00000000000E+00 0. -1.
        -16    1    1    2    0    0  0.37676649385E+02  0.92034608153E+03  0.27404824580E+03  0.96101970881E+03  0.00000000000E+00 0.  1.
         16    1    3    3    0    0 -0.38916622184E+02 -0.54947584013E+03  0.10379915802E+04  0.11751020053E+04  0.00000000000E+00 0. -1.
    9900018    1    1    2    0    0  0.38668900947E+02 -0.39540930525E+03  0.67083104009E+03  0.78496704728E+03  0.91187600000E+02 0.  0.
<mgrwt>
<rscale>  0 0.23536634E+04</rscale>
<asrwt>0</asrwt>
<pdfrwt beam="1">  1        2 0.38531242E+00 0.23536634E+04</pdfrwt>
<pdfrwt beam="2">  1       -2 0.85072459E-01 0.23536634E+04</pdfrwt>
<totfact> 0.37556734E+00</totfact>
</mgrwt>
</event>
<event>
12    1  0.1015858E-009  0.1884423E+04  0.7818608E-02  0.8662649E-01
         -1   -1    0    0    0  501 -0.00000000000E+00  0.00000000000E+00  0.51973260404E+03  0.51973260404E+03  0.00000000000E+00 0.  1.
          1   -1    0    0  501    0  0.00000000000E+00 -0.00000000000E+00 -0.17081146468E+04  0.17081146468E+04  0.00000000000E+00 0. -1.
    9900016    2    1    2    0    0  0.12784951913E+03 -0.33244992008E+02 -0.97403269512E+03  0.12123670457E+04  0.70967840137E+03 0.  0.
         25    2    3    3    0    0  0.35341295782E+03  0.11517084703E+02 -0.89297712505E+03  0.96853818398E+03  0.12499882389E+03 0.  0.
         23    2    4    4    0    0  0.30470562861E+03  0.89989165012E+01 -0.70509726399E+03  0.77354743531E+03  0.91032864311E+02 0.  0.
        -15    1    5    5    0    0  0.28490926332E+03 -0.11110209356E+02 -0.67241406745E+03  0.73036799162E+03  0.00000000000E+00 0. -1.
        -15    1    4    4    0    0  0.25190553374E+02 -0.79257906002E+01 -0.91413986873E+02  0.95151979127E+02  0.00000000000E+00 0.  1.
         15    1    4    4    0    0  0.23516775829E+02  0.10443958802E+02 -0.96465874181E+02  0.99838769535E+02  0.00000000000E+00 0. -1.
         15    1    5    5    0    0  0.19796365298E+02  0.20109125857E+02 -0.32683196544E+02  0.43179443698E+02  0.00000000000E+00 0.  1.
        -16    1    1    2    0    0  0.24010536640E+03  0.17992069370E+03  0.25558876611E+03  0.39414167549E+03  0.00000000000E+00 0.  1.
         16    1    3    3    0    0 -0.22556343868E+03 -0.44762076711E+02 -0.81055570074E+02  0.24382886175E+03  0.00000000000E+00 0. -1.
    9900018    1    1    2    0    0 -0.36795488553E+03 -0.14667570169E+03 -0.46993811380E+03  0.62133852967E+03  0.91187600000E+02 0.  0.
<mgrwt>
<rscale>  0 0.18844234E+04</rscale>
<asrwt>0</asrwt>
<pdfrwt beam="1">  1        1 0.26278687E+00 0.18844234E+04</pdfrwt>
<pdfrwt beam="2">  1       -1 0.79958863E-01 0.18844234E+04</pdfrwt>
<totfact> 0.68836765E+00</totfact>
</mgrwt>
</event>
<event>
12    1  0.1015858E-009  0.1665875E+04  0.7818608E-02  0.8781070E-01
          2   -1    0    0  501    0  0.00000000000E+00  0.00000000000E+00  0.12215702927E+04  0.12215702927E+04  0.00000000000E+00 0. -1.
         -2   -1    0    0    0  501 -0.00000000000E+00 -0.00000000000E+00 -0.56794545143E+03  0.56794545143E+03  0.00000000000E+00 0.  1.
    9900016    2    1    2    0    0  0.22284305327E+03 -0.14313195337E+03  0.26375118177E+03  0.77329310759E+03  0.67695772534E+03 0.  0.
         25    2    3    3    0    0  0.11853670742E+03  0.15316580577E+03  0.37489252906E+03  0.44008960381E+03  0.12499494382E+03 0.  0.
         23    2    4    4    0    0  0.61202234740E+02  0.86570570650E+02  0.21304521185E+03  0.25450453672E+03  0.90244776460E+02 0.  0.
        -15    1    5    5    0    0  0.63186195232E+02  0.24137963339E+02  0.64947050793E+02  0.93772362393E+02  0.00000000000E+00 0. -1.
        -15    1    4    4    0    0  0.21409290474E+02  0.35094962812E+02  0.94059801308E+02  0.10265115857E+03  0.00000000000E+00 0. -1.
         15    1    5    5    0    0 -0.19839604924E+01  0.62432607311E+02  0.14809816106E+03  0.16073217433E+03  0.00000000000E+00 0.  1.
         15    1    4    4    0    0  0.35925182202E+02  0.31500272309E+02  0.67787515894E+02  0.82933908523E+02  0.00000000000E+00 0.  1.
        -16    1    3    3    0    0  0.10430634586E+03 -0.29629775914E+03 -0.11114134728E+03  0.33320350378E+03  0.00000000000E+00 0.  1.
         16    1    1    2    0    0 -0.56487246219E+02  0.40878592051E+03  0.52082703340E+03  0.66449795825E+03  0.00000000000E+00 0. -1.
    9900018    1    1    2    0    0 -0.16635580705E+03 -0.26565396715E+03 -0.13095337389E+03  0.35172467831E+03  0.91187600000E+02 0.  0.
<mgrwt>
<rscale>  0 0.16658755E+04</rscale>
<asrwt>0</asrwt>
<pdfrwt beam="1">  1        2 0.18793389E+00 0.16658755E+04</pdfrwt>
<pdfrwt beam="2">  1       -2 0.87376224E-01 0.16658755E+04</pdfrwt>
<totfact> 0.19849384E+01</totfact>
</mgrwt>
</event>
<event>
12    1  0.1015858E-009  0.1039518E+04  0.7818608E-02  0.9266234E-01
         -1   -1    0    0    0  501 -0.00000000000E+00  0.00000000000E+00  0.28524403758E+03  0.28524403758E+03  0.00000000000E+00 0.  1.
          1   -1    0    0  501    0  0.00000000000E+00 -0.00000000000E+00 -0.94708144121E+03  0.94708144121E+03  0.00000000000E+00 0. -1.
    9900016    2    1    2    0    0  0.10909020655E+00  0.15762040320E+03 -0.28798125166E+03  0.77190739579E+03  0.69861550438E+03 0.  0.
         25    2    3    3    0    0  0.12064062651E+02 -0.17209249568E+03  0.12212377011E+03  0.24556183825E+03  0.12500013002E+03 0.  0.
         23    2    4    4    0    0 -0.95063227686E+01 -0.13032840832E+03  0.92805019590E+02  0.18405233320E+03  0.90479972973E+02 0.  0.
        -15    1    5    5    0    0 -0.15429016716E+02 -0.11507131822E+03  0.31072564816E+02  0.12018721695E+03  0.00000000000E+00 0. -1.
        -15    1    4    4    0    0  0.20391527713E+02 -0.31775414613E+02  0.89638129751E+01  0.38805171296E+02  0.00000000000E+00 0.  1.
         15    1    4    4    0    0  0.11788577067E+01 -0.99886727478E+01  0.20354937548E+02  0.22704333757E+02  0.00000000000E+00 0. -1.
         15    1    5    5    0    0  0.59226939475E+01 -0.15257090098E+02  0.61732454774E+02  0.63865116255E+02  0.00000000000E+00 0.  1.
        -16    1    1    2    0    0  0.52192997611E+02 -0.35304143944E+02 -0.11859338170E+02  0.64118136912E+02  0.00000000000E+00 0.  1.
         16    1    3    3    0    0 -0.11954972444E+02  0.32971289888E+03 -0.41010502177E+03  0.52634555753E+03  0.00000000000E+00 0. -1.
    9900018    1    1    2    0    0 -0.52302087818E+02 -0.12231625926E+03 -0.36199681381E+03  0.39629994609E+03  0.91187600000E+02 0.  0.
<mgrwt>
<rscale>  0 0.10395178E+04</rscale>
<asrwt>0</asrwt>
<pdfrwt beam="1">  1        1 0.14570484E+00 0.10395178E+04</pdfrwt>
<pdfrwt beam="2">  1       -1 0.43883698E-01 0.10395178E+04</pdfrwt>
<totfact> 0.85493663E+01</totfact>
</mgrwt>
</event>
<event>
12    1  0.1015858E-009  0.1260140E+04  0.7818608E-02  0.9061786E-01
          2   -1    0    0  501    0  0.00000000000E+00  0.00000000000E+00  0.74507521272E+03  0.74507521272E+03  0.00000000000E+00 0. -1.
         -2   -1    0    0    0  501 -0.00000000000E+00 -0.00000000000E+00 -0.53281628396E+03  0.53281628396E+03  0.00000000000E+00 0.  1.
    9900016    2    1    2    0    0 -0.22880488328E+03  0.16834106935E+03  0.88177150775E+02  0.76823007965E+03  0.70831621125E+03 0.  0.
         25    2    3    3    0    0 -0.10518942367E+03  0.30991423714E+03  0.31675639489E+03  0.47230405083E+03  0.12499941398E+03 0.  0.
         23    2    4    4    0    0 -0.84815329017E+02  0.23604995954E+03  0.24433975889E+03  0.36021090867E+03  0.84479331887E+02 0.  0.
        -15    1    5    5    0    0 -0.28395694843E+02  0.55358409673E+02  0.17232839015E+02  0.64558808444E+02  0.00000000000E+00 0. -1.
        -15    1    4    4    0    0 -0.17133075585E+02  0.16882686122E+02  0.39387429069E+02  0.46151239836E+02  0.00000000000E+00 0.  1.
         15    1    4    4    0    0 -0.32410190636E+01  0.56981591475E+02  0.33029206931E+02  0.65941902323E+02  0.00000000000E+00 0. -1.
         15    1    5    5    0    0 -0.56419634174E+02  0.18069154987E+03  0.22710691988E+03  0.29565210023E+03  0.00000000000E+00 0.  1.
        -16    1    3    3    0    0 -0.12361545961E+03 -0.14157316779E+03 -0.22857924412E+03  0.29592602882E+03  0.00000000000E+00 0.  1.
         16    1    1    2    0    0  0.26604774221E+03  0.20060742384E+02  0.13041278273E+03  0.29697024837E+03  0.00000000000E+00 0. -1.
    9900018    1    1    2    0    0 -0.37242858933E+02 -0.18840181173E+03 -0.63310047483E+01  0.21269116865E+03  0.91187600000E+02 0.  0.
<mgrwt>
<rscale>  0 0.12601400E+04</rscale>
<asrwt>0</asrwt>
<pdfrwt beam="1">  1        2 0.11462696E+00 0.12601400E+04</pdfrwt>
<pdfrwt beam="2">  1       -2 0.81971736E-01 0.12601400E+04</pdfrwt>
<totfact> 0.48658069E+01</totfact>
</mgrwt>
</event>
<event>
12    1  0.1015858E-009  0.1844003E+04  0.7818608E-02  0.8683243E-01
         -2   -1    0    0    0  501 -0.00000000000E+00  0.00000000000E+00  0.51798427018E+03  0.51798427018E+03  0.00000000000E+00 0. -1.
          2   -1    0    0  501    0  0.00000000000E+00 -0.00000000000E+00 -0.16411434014E+04  0.16411434014E+04  0.00000000000E+00 0.  1.
    9900016    2    1    2    0    0  0.19169453823E+03  0.82657935803E+02  0.95019065909E+02  0.74599086743E+03  0.70985535221E+03 0.  0.
         25    2    3    3    0    0  0.40218314744E+03 -0.90607720953E+02 -0.55849547582E+02  0.43440174541E+03  0.12499864509E+03 0.  0.
         23    2    4    4    0    0  0.36227305914E+03 -0.76111057233E+02 -0.44077256594E+02  0.38453122514E+03  0.94269805084E+02 0.  0.
        -15    1    5    5    0    0  0.29826559717E+03 -0.94482395842E+02 -0.53047989596E+02  0.31733795673E+03  0.00000000000E+00 0.  1.
        -15    1    4    4    0    0  0.27496573249E+02 -0.13263331818E+02 -0.18501041699E+02  0.35696863381E+02  0.00000000000E+00 0. -1.
         15    1    4    4    0    0  0.12413515051E+02 -0.12333319016E+01  0.67287507103E+01  0.14173656889E+02  0.00000000000E+00 0.  1.
         15    1    5    5    0    0  0.64007461968E+02  0.18371338609E+02  0.89707330025E+01  0.67193268416E+02  0.00000000000E+00 0. -1.
        -16    1    3    3    0    0 -0.21048860921E+03  0.17326565676E+03  0.15086861349E+03  0.31158912201E+03  0.00000000000E+00 0.  1.
         16    1    1    2    0    0  0.79083453005E+02 -0.10433874877E+03  0.28469365301E+02  0.13398235628E+03  0.00000000000E+00 0. -1.
    9900018    1    1    2    0    0 -0.27077799123E+03  0.21680812971E+02 -0.12466475624E+04  0.12791544478E+04  0.91187600000E+02 0.  0.
<mgrwt>
<rscale>  0 0.18440027E+04</rscale>
<asrwt>0</asrwt>
<pdfrwt beam="1">  1        2 0.25248360E+00 0.18440027E+04</pdfrwt>
<pdfrwt beam="2">  1       -2 0.79689889E-01 0.18440027E+04</pdfrwt>
<totfact> 0.13873707E+01</totfact>
</mgrwt>
</event>
