<event>
10    1  0.2543702E-016  0.4247029E+04  0.7818608E-02  0.8102891E-01
         -2   -1    0    0    0  501 -0.00000000000E+00  0.00000000000E+00  0.43358510292E+04  0.43358510292E+04  0.00000000000E+00 0.  1.
          2   -1    0    0  501    0  0.00000000000E+00 -0.00000000000E+00 -0.25664354381E+04  0.25664354381E+04  0.00000000000E+00 0. -1.
    9900016    2    1    2    0    0 -0.13890360370E+03  0.47948261120E+03  0.37336141876E+03  0.22383523106E+04  0.21497963931E+04 0.  0.
        -15    1    1    2    0    0 -0.47108991567E+03  0.14755320362E+04 -0.48963547353E+02  0.15496831700E+04  0.00000000000E+00 0.  1.
        -15    1    3    3    0    0  0.35458675089E+03 -0.11576390353E+03 -0.71182299247E+03  0.80363238977E+03  0.00000000000E+00 0.  1.
         15    1    3    3    0    0 -0.41207918808E+03  0.55649788582E+03  0.52933269406E+03  0.87160326708E+03  0.00000000000E+00 0. -1.
         15    1    1    2    0    0  0.16626874673E+03 -0.36271172015E+03 -0.39668318408E+03  0.56263899315E+03  0.00000000000E+00 0. -1.
        -16    1    3    3    0    0 -0.81411166504E+02  0.38748628906E+02  0.55585171717E+03  0.56311665377E+03  0.00000000000E+00 0.  1.
         16    1    1    2    0    0  0.48524153171E+03 -0.15815052885E+04  0.17934119107E+04  0.24398656936E+04  0.00000000000E+00 0. -1.
    9900018    1    1    2    0    0 -0.41516759075E+02 -0.10797638747E+02  0.48288993104E+02  0.11174629987E+03  0.91187600000E+02 0.  0.
<mgrwt>
<rscale>  0 0.35463551E+04</rscale>
<asrwt>0</asrwt>
<pdfrwt beam="1">  1        2 0.39483622E+00 0.42470292E+04</pdfrwt>
<pdfrwt beam="2">  1       -2 0.66705401E+00 0.42470292E+04</pdfrwt>
<totfact> 0.67870090E-04</totfact>
</mgrwt>
</event>
<event>
10    1  0.2543702E-016  0.2989528E+04  0.7818608E-02  0.8419454E-01
          2   -1    0    0  501    0  0.00000000000E+00  0.00000000000E+00  0.29723425459E+04  0.29723425459E+04  0.00000000000E+00 0. -1.
         -2   -1    0    0    0  501 -0.00000000000E+00 -0.00000000000E+00 -0.16761722454E+04  0.16761722454E+04  0.00000000000E+00 0.  1.
    9900016    2    1    2    0    0  0.31065224079E+03 -0.38697826516E+03  0.37499838395E+03  0.22380546322E+04  0.21498855217E+04 0.  0.
        -15    1    1    2    0    0 -0.62337928066E+03  0.63865784345E+03  0.26169975883E+03  0.93003888754E+03  0.00000000000E+00 0.  1.
        -15    1    3    3    0    0  0.10178909415E+04 -0.59613842741E+03  0.75494596179E+03  0.14005093354E+04  0.00000000000E+00 0.  1.
         15    1    1    2    0    0  0.41593152190E+03 -0.50451532186E+03 -0.50362379315E+02  0.65579807118E+03  0.00000000000E+00 0. -1.
         15    1    3    3    0    0 -0.27978088091E+03  0.26743486745E+02 -0.15947604851E+03  0.32314882864E+03  0.00000000000E+00 0. -1.
        -16    1    3    3    0    0 -0.42745781978E+03  0.18241667550E+03 -0.22047152932E+03  0.51439646814E+03  0.00000000000E+00 0.  1.
         16    1    1    2    0    0 -0.14764695357E+03  0.23471544081E+03  0.64703128456E+03  0.70394633620E+03  0.00000000000E+00 0. -1.
    9900018    1    1    2    0    0  0.44442471540E+02  0.18120302769E+02  0.62803252415E+02  0.12067686421E+03  0.91187600000E+02 0.  0.
<mgrwt>
<rscale>  0 0.24542880E+04</rscale>
<asrwt>0</asrwt>
<pdfrwt beam="1">  1        2 0.45728347E+00 0.29895283E+04</pdfrwt>
<pdfrwt beam="2">  1       -2 0.25787265E+00 0.29895283E+04</pdfrwt>
<totfact> 0.85427504E-02</totfact>
</mgrwt>
</event>
<event>
11    1  0.2543702E-016  0.3725019E+04  0.7818608E-02  0.8234651E-01
          2   -1    0    0  501    0  0.00000000000E+00  0.00000000000E+00  0.49757982996E+04  0.49757982996E+04  0.00000000000E+00 0. -1.
         -2   -1    0    0    0  501 -0.00000000000E+00 -0.00000000000E+00 -0.18854921441E+04  0.18854921441E+04  0.00000000000E+00 0.  1.
    9900016    2    1    2    0    0  0.45803430659E+03  0.12243839007E+04  0.24500744702E+04  0.35165405087E+04  0.21573782416E+04 0.  0.
         24    2    3    3    0    0  0.95150150528E+03  0.16161866356E+04  0.16538626948E+04  0.25011723732E+04  0.56454156758E+02 0.  0.
        -15    1    4    4    0    0  0.50983899428E+03  0.87919932465E+03  0.93257008004E+03  0.13793528217E+04  0.00000000000E+00 0.  1.
        -15    1    1    2    0    0 -0.24572015512E+03 -0.23861817709E+03 -0.42199428267E+03  0.54350363723E+03  0.00000000000E+00 0.  1.
         15    1    3    3    0    0 -0.49346719869E+03 -0.39180273486E+03  0.79621177540E+03  0.10153681355E+04  0.00000000000E+00 0. -1.
         15    1    1    2    0    0 -0.11083065618E+04 -0.33733004568E+03 -0.55435757578E+02  0.11598310730E+04  0.00000000000E+00 0. -1.
        -16    1    1    2    0    0  0.84848919096E+03 -0.68754788894E+03  0.10179932677E+04  0.14929723038E+04  0.00000000000E+00 0.  1.
         16    1    4    4    0    0  0.44166251100E+03  0.73698731095E+03  0.72129261471E+03  0.11218195515E+04  0.00000000000E+00 0. -1.
    9900018    1    1    2    0    0  0.47503219372E+02  0.39112210963E+02  0.99668457921E+02  0.14844292100E+03  0.91187600000E+02 0.  0.
<mgrwt>
<rscale>  0 0.30320025E+04</rscale>
<asrwt>0</asrwt>
<pdfrwt beam="1">  1        2 0.76550743E+00 0.37250189E+04</pdfrwt>
<pdfrwt beam="2">  1       -2 0.29007572E+00 0.37250189E+04</pdfrwt>
<totfact> 0.10081222E-03</totfact>
</mgrwt>
</event>
<event>
11    1  0.2543702E-016  0.3455495E+04  0.7818608E-02  0.8504453E-01
          2   -1    0    0  501    0  0.00000000000E+00  0.00000000000E+00  0.20320310983E+04  0.20320310983E+04  0.00000000000E+00 0. -1.
         -2   -1    0    0    0  501 -0.00000000000E+00 -0.00000000000E+00 -0.20329803070E+04  0.20329803070E+04  0.00000000000E+00 0.  1.
    9900016    2    1    2    0    0  0.62931894601E+03  0.91160830683E+02  0.37368530336E+03  0.23579986803E+04  0.22396795390E+04 0.  0.
         24    2    3    3    0    0  0.13504311099E+03  0.97346140300E+03  0.68802030264E+03  0.12012304058E+04  0.60982013787E+02 0.  0.
        -15    1    1    2    0    0 -0.66518855077E+02 -0.96848315690E+02  0.10315607041E+03  0.15635066100E+03  0.00000000000E+00 0.  1.
        -15    1    4    4    0    0  0.13936498936E+03  0.86776086795E+03  0.61517851724E+03  0.10727889505E+04  0.00000000000E+00 0.  1.
         15    1    1    2    0    0  0.42847622890E+03  0.14257068480E+03 -0.24882863239E+02  0.45225815170E+03  0.00000000000E+00 0. -1.
         15    1    3    3    0    0  0.47040501026E+03 -0.88298808207E+03 -0.34397640908E+03  0.10579549124E+04  0.00000000000E+00 0. -1.
        -16    1    1    2    0    0 -0.99127631983E+03 -0.13688319979E+03 -0.45290771924E+03  0.10984039124E+04  0.00000000000E+00 0.  1.
         16    1    4    4    0    0 -0.43218783701E+01  0.10570053505E+03  0.72841785401E+02  0.12844145531E+03  0.00000000000E+00 0. -1.
    9900018    1    3    3    0    0  0.23870824761E+02  0.68750975675E+00  0.29641409801E+02  0.98813362017E+02  0.91187600000E+02 0.  0.
<mgrwt>
<rscale>  0 0.22338900E+04</rscale>
<asrwt>0</asrwt>
<pdfrwt beam="1">  1        2 0.31262017E+00 0.34554946E+04</pdfrwt>
<pdfrwt beam="2">  1       -2 0.31276620E+00 0.34554946E+04</pdfrwt>
<totfact> 0.13735591E-01</totfact>
</mgrwt>
</event>
<event>
11    1  0.2543702E-016  0.4215319E+04  0.7818608E-02  0.7962465E-01
         -2   -1    0    0    0  501 -0.00000000000E+00  0.00000000000E+00  0.19398338683E+04  0.19398338683E+04  0.00000000000E+00 0. -1.
          2   -1    0    0  501    0  0.00000000000E+00 -0.00000000000E+00 -0.22900046915E+04  0.22900046915E+04  0.00000000000E+00 0.  1.
    9900016    2    1    2    0    0 -0.11040806236E+03 -0.25156480925E+03  0.47630949406E+03  0.23174716442E+04  0.22512950260E+04 0.  0.
         24    2    3    3    0    0  0.36290314203E+03  0.85195630625E+03  0.41248855597E+03  0.10181119207E+04  0.94216962383E+02 0.  0.
        -15    1    1    2    0    0 -0.33003305506E+03  0.26452381364E+03  0.12820472321E+03  0.44196279987E+03  0.00000000000E+00 0.  1.
        -15    1    4    4    0    0  0.16092320166E+03  0.32101898871E+03  0.20404312999E+03  0.41301702972E+03  0.00000000000E+00 0.  1.
         15    1    3    3    0    0 -0.42816136180E+03 -0.11055264917E+04  0.13023512173E+02  0.11856140129E+04  0.00000000000E+00 0. -1.
         15    1    1    2    0    0  0.19591976402E+03 -0.25988214173E+03  0.11539596759E+03  0.34531074536E+03  0.00000000000E+00 0. -1.
        -16    1    1    2    0    0  0.24452135340E+03  0.24692313734E+03 -0.10700810081E+04  0.11250933703E+04  0.00000000000E+00 0.  1.
         16    1    4    4    0    0  0.20197994037E+03  0.53093731754E+03  0.20844542598E+03  0.60509489097E+03  0.00000000000E+00 0. -1.
    9900018    1    3    3    0    0 -0.45149842594E+02  0.20053762311E+01  0.50797425920E+02  0.11374571066E+03  0.91187600000E+02 0.  0.
<mgrwt>
<rscale>  0 0.42153190E+04</rscale>
<asrwt>0</asrwt>
<pdfrwt beam="1">  1        2 0.35230842E+00 0.42153190E+04</pdfrwt>
<pdfrwt beam="2">  1       -2 0.29843598E+00 0.42153190E+04</pdfrwt>
<totfact> 0.11571360E-01</totfact>
</mgrwt>
</event>
<event>
11    1  0.2543702E-016  0.3505434E+04  0.7818608E-02  0.8216309E-01
         -2   -1    0    0    0  501 -0.00000000000E+00  0.00000000000E+00  0.19409700448E+04  0.19409700448E+04  0.00000000000E+00 0.  1.
          2   -1    0    0  501    0  0.00000000000E+00 -0.00000000000E+00 -0.41605174527E+04  0.41605174527E+04  0.00000000000E+00 0. -1.
    9900016    2    1    2    0    0  0.26050369237E+02 -0.27302891866E+03 -0.87599949611E+03  0.23334664157E+04  0.21453361004E+04 0.  0.
        -24    2    3    3    0    0 -0.57639684444E+03  0.70645271621E+03 -0.44419747218E+02  0.91436395387E+03  0.52721567439E+02 0.  0.
        -15    1    3    3    0    0  0.60244721368E+03 -0.97948163486E+03 -0.83157974889E+03  0.14191024618E+04  0.00000000000E+00 0.  1.
        -15    1    1    2    0    0  0.62947492163E+03  0.91336377844E+02  0.23163165858E+03  0.67693000830E+03  0.00000000000E+00 0.  1.
         15    1    1    2    0    0 -0.19486522860E+03  0.13183343159E+04 -0.72653176002E+03  0.15178360333E+04  0.00000000000E+00 0. -1.
         15    1    4    4    0    0 -0.23204500492E+03  0.25380625747E+03 -0.35892205463E-01  0.34389315481E+03  0.00000000000E+00 0. -1.
        -16    1    4    4    0    0 -0.34435183952E+03  0.45264645874E+03 -0.44383855013E+02  0.57047079906E+03  0.00000000000E+00 0.  1.
         16    1    1    2    0    0 -0.40636455501E+03 -0.11465210333E+04 -0.75730384073E+03  0.14328823185E+04  0.00000000000E+00 0. -1.
    9900018    1    1    2    0    0 -0.54295507259E+02  0.98792582475E+01 -0.91343969582E+02  0.14037272180E+03  0.91187600000E+02 0.  0.
<mgrwt>
<rscale>  0 0.30979217E+04</rscale>
<asrwt>0</asrwt>
<pdfrwt beam="1">  1        2 0.64007960E+00 0.35054335E+04</pdfrwt>
<pdfrwt beam="2">  1       -2 0.29861078E+00 0.35054335E+04</pdfrwt>
<totfact> 0.62816013E-03</totfact>
</mgrwt>
</event>
