<event>
11    1  0.1155020E-011  0.6386757E+04  0.7818608E-02  0.7644214E-01
          2   -1    0    0  501    0  0.00000000000E+00  0.00000000000E+00  0.37036729074E+04  0.37036729074E+04  0.00000000000E+00 0. -1.
         -2   -1    0    0    0  501 -0.00000000000E+00 -0.00000000000E+00 -0.27533925502E+04  0.27533925502E+04  0.00000000000E+00 0.  1.
    9900016    2    1    2    0    0  0.29535913877E+03 -0.28195653041E+03  0.26113396735E+03  0.20819086156E+04  0.20247014666E+04 0.  0.
        -24    2    3    3    0    0  0.47312798763E+03 -0.32853519798E+03 -0.80893648863E+03  0.99617286662E+03  0.78718921278E+02 0.  0.
        -15    1    3    3    0    0 -0.17776884887E+03  0.46578667574E+02  0.10700704560E+04  0.10857357490E+04  0.00000000000E+00 0.  1.
        -15    1    1    2    0    0  0.55404464117E+03 -0.99800542561E+03 -0.99810296589E+03  0.15163079583E+04  0.00000000000E+00 0.  1.
         15    1    4    4    0    0  0.19765311698E+03 -0.90956016658E+02 -0.29953120403E+03  0.37021438898E+03  0.00000000000E+00 0. -1.
         15    1    1    2    0    0 -0.10097168961E+04  0.73466087309E+02  0.71799735380E+03  0.12411469198E+04  0.00000000000E+00 0. -1.
        -16    1    4    4    0    0  0.27547487065E+03 -0.23757918132E+03 -0.50940528460E+03  0.62595847765E+03  0.00000000000E+00 0.  1.
         16    1    1    2    0    0  0.11925625323E+03  0.11803829657E+04  0.84756158148E+03  0.14580420550E+04  0.00000000000E+00 0. -1.
    9900018    1    1    2    0    0  0.41056862983E+02  0.26112902980E+02  0.12169042042E+03  0.15965990892E+03  0.91187600000E+02 0.  0.
<mgrwt>
<rscale>  0 0.63867567E+04</rscale>
<asrwt>0</asrwt>
<pdfrwt beam="1">  1        2 0.56979583E+00 0.63867567E+04</pdfrwt>
<pdfrwt beam="2">  1       -2 0.42359885E+00 0.63867567E+04</pdfrwt>
<totfact> 0.19664621E-03</totfact>
</mgrwt>
</event>
<event>
11    1  0.1155020E-011  0.3959443E+04  0.7818608E-02  0.8228190E-01
          2   -1    0    0  501    0  0.00000000000E+00  0.00000000000E+00  0.32846404311E+04  0.32846404311E+04  0.00000000000E+00 0. -1.
         -2   -1    0    0    0  501 -0.00000000000E+00 -0.00000000000E+00 -0.22070979063E+04  0.22070979063E+04  0.00000000000E+00 0.  1.
    9900016    2    1    2    0    0 -0.29497496387E+03 -0.38698365280E+03 -0.42855156791E+03  0.21241163464E+04  0.20227326146E+04 0.  0.
        -24    2    3    3    0    0 -0.11344019087E+04 -0.47675995110E+03 -0.31170781885E+03  0.12718547427E+04  0.79277871075E+02 0.  0.
        -15    1    3    3    0    0  0.83942694484E+03  0.89776298293E+02 -0.11684374906E+03  0.85226160370E+03  0.00000000000E+00 0.  1.
        -15    1    1    2    0    0 -0.10010867425E+04 -0.58313076975E+02  0.11317473434E+03  0.10091499400E+04  0.00000000000E+00 0.  1.
         15    1    4    4    0    0 -0.36347448984E+03 -0.17815992762E+03 -0.13245824375E+03  0.42591061376E+03  0.00000000000E+00 0. -1.
         15    1    1    2    0    0 -0.13837841467E+03  0.24621922814E+03  0.39025637574E+03  0.48173907124E+03  0.00000000000E+00 0. -1.
        -16    1    4    4    0    0 -0.77092741886E+03 -0.29860002348E+03 -0.17924957510E+03  0.84594412898E+03  0.00000000000E+00 0.  1.
         16    1    1    2    0    0  0.13671612263E+04  0.33470815586E+03  0.85883762600E+03  0.16488667127E+04  0.00000000000E+00 0. -1.
    9900018    1    1    2    0    0  0.67278894765E+02 -0.13563065422E+03  0.14382535665E+03  0.22786626704E+03  0.91187600000E+02 0.  0.
<mgrwt>
<rscale>  0 0.30550251E+04</rscale>
<asrwt>0</asrwt>
<pdfrwt beam="1">  1        2 0.50532930E+00 0.39594433E+04</pdfrwt>
<pdfrwt beam="2">  1       -2 0.33955352E+00 0.39594433E+04</pdfrwt>
<totfact> 0.15576609E-02</totfact>
</mgrwt>
</event>
<event>
11    1  0.1155020E-011  0.4637232E+04  0.7818608E-02  0.8166629E-01
         -2   -1    0    0    0  501 -0.00000000000E+00  0.00000000000E+00  0.42330824871E+04  0.42330824871E+04  0.00000000000E+00 0.  1.
          2   -1    0    0  501    0  0.00000000000E+00 -0.00000000000E+00 -0.20913275658E+04  0.20913275658E+04  0.00000000000E+00 0. -1.
    9900016    2    1    2    0    0 -0.86473454001E+02  0.36200907228E+03  0.13539207397E+04  0.24580115422E+04  0.20174714733E+04 0.  0.
         24    2    3    3    0    0  0.85740352697E+03  0.43258704355E+03  0.11307397549E+04  0.14855431586E+04  0.77419147536E+02 0.  0.
        -15    1    4    4    0    0  0.49303725461E+03  0.28984524422E+03  0.65594093554E+03  0.87026117398E+03  0.00000000000E+00 0.  1.
        -15    1    1    2    0    0  0.72487143394E+02  0.98526643167E+02 -0.11410487047E+03  0.16727763400E+03  0.00000000000E+00 0.  1.
         15    1    1    2    0    0 -0.43177890179E+03 -0.66271070806E+03  0.11400199932E+04  0.13875388598E+04  0.00000000000E+00 0. -1.
         15    1    3    3    0    0 -0.94387698097E+03 -0.70577971272E+02  0.22318098480E+03  0.97246838366E+03  0.00000000000E+00 0. -1.
        -16    1    1    2    0    0  0.97387010825E+03  0.80530296723E+03  0.35222103865E+03  0.13118671872E+04  0.00000000000E+00 0.  1.
         16    1    4    4    0    0  0.36436627236E+03  0.14274179933E+03  0.47479881934E+03  0.61528198459E+03  0.00000000000E+00 0. -1.
    9900018    1    1    2    0    0 -0.52810489585E+03 -0.60312797462E+03 -0.59030197977E+03  0.99971482959E+03  0.91187600000E+02 0.  0.
<mgrwt>
<rscale>  0 0.32853666E+04</rscale>
<asrwt>0</asrwt>
<pdfrwt beam="1">  1        2 0.32174270E+00 0.46372324E+04</pdfrwt>
<pdfrwt beam="2">  1       -2 0.65124346E+00 0.46372324E+04</pdfrwt>
<totfact> 0.14310312E-03</totfact>
</mgrwt>
</event>
<event>
11    1  0.1155020E-011  0.5366496E+04  0.7818608E-02  0.7964079E-01
         -2   -1    0    0    0  501 -0.00000000000E+00  0.00000000000E+00  0.34846711156E+04  0.34846711156E+04  0.00000000000E+00 0. -1.
          2   -1    0    0  501    0  0.00000000000E+00 -0.00000000000E+00 -0.39381757128E+04  0.39381757128E+04  0.00000000000E+00 0.  1.
    9900016    2    1    2    0    0  0.12435499429E+04 -0.11178229816E+04  0.62633134803E+03  0.26905856144E+04  0.20127134203E+04 0.  0.
         24    2    3    3    0    0 -0.19134905455E+03  0.68235606378E+02 -0.47831561933E+03  0.52588816920E+03  0.80634832110E+02 0.  0.
        -15    1    1    2    0    0  0.10467037808E+03  0.76957347647E+03 -0.27279049739E+03  0.82317305544E+03  0.00000000000E+00 0.  1.
        -15    1    4    4    0    0 -0.52257771519E+02  0.59482832267E+02 -0.17715648030E+03  0.19404509922E+03  0.00000000000E+00 0.  1.
         15    1    3    3    0    0  0.14348989974E+04 -0.11860585880E+04  0.11046469674E+04  0.21646974452E+04  0.00000000000E+00 0. -1.
         15    1    1    2    0    0  0.41316936060E+03 -0.10716699658E+04  0.36584758147E+03  0.12054168943E+04  0.00000000000E+00 0. -1.
        -16    1    1    2    0    0 -0.18330046242E+04  0.13497668092E+04 -0.11873099329E+04  0.25673880245E+04  0.00000000000E+00 0.  1.
         16    1    4    4    0    0 -0.13909128304E+03  0.87527741117E+01 -0.30115913903E+03  0.33184306998E+03  0.00000000000E+00 0. -1.
    9900018    1    1    2    0    0  0.71614942602E+02  0.70152661670E+02  0.14416903524E+02  0.13628323978E+03  0.91187600000E+02 0.  0.
<mgrwt>
<rscale>  0 0.42068043E+04</rscale>
<asrwt>0</asrwt>
<pdfrwt beam="1">  1        2 0.60587318E+00 0.53664958E+04</pdfrwt>
<pdfrwt beam="2">  1       -2 0.53610325E+00 0.53664958E+04</pdfrwt>
<totfact> 0.25912345E-04</totfact>
</mgrwt>
</event>
<event>
11    1  0.1155020E-011  0.4758155E+04  0.7818608E-02  0.8295199E-01
         -2   -1    0    0    0  501 -0.00000000000E+00  0.00000000000E+00  0.23198065776E+04  0.23198065776E+04  0.00000000000E+00 0.  1.
          2   -1    0    0  501    0  0.00000000000E+00 -0.00000000000E+00 -0.31756774986E+04  0.31756774986E+04  0.00000000000E+00 0. -1.
    9900016    2    1    2    0    0 -0.88741189941E+03 -0.70628145740E+02  0.93772150291E+03  0.24060487087E+04  0.20291033876E+04 0.  0.
        -24    2    3    3    0    0 -0.37139475612E+03  0.16274383655E+03 -0.62195328269E+03  0.74673511233E+03  0.79798627446E+02 0.  0.
        -15    1    3    3    0    0 -0.51601714330E+03 -0.23337198229E+03  0.15596747856E+04  0.16593135964E+04  0.00000000000E+00 0.  1.
        -15    1    1    2    0    0 -0.16204492133E+03  0.16472852659E+03  0.22703214365E+02  0.23218415093E+03  0.00000000000E+00 0.  1.
         15    1    4    4    0    0 -0.11814122338E+03  0.20721008617E+02 -0.22431077648E+03  0.25436594368E+03  0.00000000000E+00 0. -1.
         15    1    1    2    0    0  0.22430618543E+03 -0.27065395499E+03  0.17077638029E+03  0.39080864913E+03  0.00000000000E+00 0. -1.
        -16    1    4    4    0    0 -0.25325353274E+03  0.14202282793E+03 -0.39764250620E+03  0.49236916865E+03  0.00000000000E+00 0.  1.
         16    1    1    2    0    0  0.76986547032E+03  0.18634501079E+03 -0.21387812591E+04  0.22807460577E+04  0.00000000000E+00 0. -1.
    9900018    1    1    2    0    0  0.55285165003E+02 -0.97914366427E+01  0.15170924043E+03  0.18569650973E+03  0.91187600000E+02 0.  0.
<mgrwt>
<rscale>  0 0.28261399E+04</rscale>
<asrwt>0</asrwt>
<pdfrwt beam="1">  1        2 0.48856577E+00 0.47581546E+04</pdfrwt>
<pdfrwt beam="2">  1       -2 0.35689332E+00 0.47581546E+04</pdfrwt>
<totfact> 0.13699051E-02</totfact>
</mgrwt>
</event>
<event>
11    1  0.1155020E-011  0.3405164E+04  0.7818608E-02  0.8451931E-01
         -2   -1    0    0    0  501 -0.00000000000E+00  0.00000000000E+00  0.13683814524E+04  0.13683814524E+04  0.00000000000E+00 0.  1.
          2   -1    0    0  501    0  0.00000000000E+00 -0.00000000000E+00 -0.33970765608E+04  0.33970765608E+04  0.00000000000E+00 0. -1.
    9900016    2    1    2    0    0  0.36738185203E+03 -0.40991253236E+03 -0.47568862909E+03  0.21378362221E+04  0.20102403666E+04 0.  0.
        -24    2    3    3    0    0 -0.17296220568E+03 -0.68021556405E+03 -0.10754000362E+04  0.12865494306E+04  0.78198857648E+02 0.  0.
        -15    1    3    3    0    0  0.54034405771E+03  0.27030303169E+03  0.59971140710E+03  0.85128679154E+03  0.00000000000E+00 0.  1.
        -15    1    1    2    0    0 -0.48339926512E+03 -0.23358568192E+03 -0.11606144782E+03  0.54927896372E+03  0.00000000000E+00 0. -1.
         15    1    4    4    0    0 -0.40887883566E+02 -0.31768357201E+03 -0.47950369379E+03  0.57664413923E+03  0.00000000000E+00 0. -1.
         15    1    1    2    0    0  0.15650187779E+03 -0.13931602628E+03  0.12881567219E+03  0.24595786292E+03  0.00000000000E+00 0.  1.
        -16    1    4    4    0    0 -0.13207432211E+03 -0.36253199204E+03 -0.59589634241E+03  0.70990529136E+03  0.00000000000E+00 0.  1.
         16    1    1    2    0    0  0.87567767927E+02  0.50942538177E+03 -0.13623456257E+04  0.14571094460E+04  0.00000000000E+00 0. -1.
    9900018    1    1    2    0    0 -0.12805223263E+03  0.27338885880E+03 -0.20341507796E+03  0.37527551843E+03  0.91187600000E+02 0.  0.
<mgrwt>
<rscale>  0 0.23670840E+04</rscale>
<asrwt>0</asrwt>
<pdfrwt beam="1">  1        2 0.52262716E+00 0.34051639E+04</pdfrwt>
<pdfrwt beam="2">  1       -2 0.21052023E+00 0.34051639E+04</pdfrwt>
<totfact> 0.87463866E-02</totfact>
</mgrwt>
</event>
<event>
11    1  0.1155020E-011  0.3982734E+04  0.7818608E-02  0.8321531E-01
          1   -1    0    0  501    0  0.00000000000E+00  0.00000000000E+00  0.15467489963E+04  0.15467489963E+04  0.00000000000E+00 0. -1.
         -1   -1    0    0    0  501 -0.00000000000E+00 -0.00000000000E+00 -0.38915315472E+04  0.38915315472E+04  0.00000000000E+00 0.  1.
    9900016    2    1    2    0    0  0.95532761817E+02 -0.12022247198E+04 -0.13698896166E+04  0.27222272371E+04  0.20197655269E+04 0.  0.
         24    2    3    3    0    0 -0.57525924080E+03 -0.10936858286E+04 -0.15833778598E+04  0.20099633593E+04  0.76127347462E+02 0.  0.
        -15    1    1    2    0    0 -0.29774313908E+02  0.10831336085E+03 -0.20405180286E+03  0.23292795487E+03  0.00000000000E+00 0.  1.
        -15    1    4    4    0    0 -0.31145462143E+03 -0.55659964825E+03 -0.76125153357E+03  0.99313193837E+03  0.00000000000E+00 0.  1.
         15    1    1    2    0    0  0.75098809345E+03 -0.42637024739E+02 -0.46588683400E+03  0.88478899998E+03  0.00000000000E+00 0. -1.
         15    1    3    3    0    0  0.67079200262E+03 -0.10853889119E+03  0.21348824322E+03  0.71226387784E+03  0.00000000000E+00 0. -1.
        -16    1    1    2    0    0 -0.87597053902E+03  0.11586458935E+04 -0.31709549084E+03  0.14867192883E+04  0.00000000000E+00 0.  1.
         16    1    4    4    0    0 -0.26380461937E+03 -0.53708618035E+03 -0.82212632622E+03  0.10168314209E+04  0.00000000000E+00 0. -1.
    9900018    1    1    2    0    0  0.59223997656E+02 -0.22097509831E+02  0.12141193430E+02  0.11161706326E+03  0.91187600000E+02 0.  0.
<mgrwt>
<rscale>  0 0.27419171E+04</rscale>
<asrwt>0</asrwt>
<pdfrwt beam="1">  1        1 0.23796138E+00 0.39827337E+04</pdfrwt>
<pdfrwt beam="2">  1       -1 0.59869716E+00 0.39827337E+04</pdfrwt>
<totfact> 0.20651532E-03</totfact>
</mgrwt>
</event>
<event>
11    1  0.1155020E-011  0.3844253E+04  0.7818608E-02  0.8205762E-01
          2   -1    0    0  501    0  0.00000000000E+00  0.00000000000E+00  0.30264137547E+04  0.30264137547E+04  0.00000000000E+00 0.  1.
         -2   -1    0    0    0  501 -0.00000000000E+00 -0.00000000000E+00 -0.27659546652E+04  0.27659546652E+04  0.00000000000E+00 0. -1.
    9900016    2    1    2    0    0  0.93326384276E+03 -0.75572382740E+03 -0.38910492837E+03  0.23875389382E+04  0.20265338962E+04 0.  0.
        -24    2    3    3    0    0  0.10385525326E+04 -0.12721332218E+04  0.12805050335E+03  0.16491527848E+04  0.79960484701E+02 0.  0.
        -15    1    1    2    0    0 -0.34893907964E+03  0.88369957662E+03  0.15394403025E+03  0.96248749990E+03  0.00000000000E+00 0.  1.
        -15    1    3    3    0    0 -0.10528868989E+03  0.51640939444E+03 -0.51715543172E+03  0.73838615334E+03  0.00000000000E+00 0.  1.
         15    1    4    4    0    0  0.27008029882E+03 -0.37343448817E+03  0.59760726184E+02  0.46472360512E+03  0.00000000000E+00 0. -1.
         15    1    1    2    0    0 -0.55154387754E+03 -0.31391569876E+03  0.69465440751E+03  0.94089768873E+03  0.00000000000E+00 0. -1.
        -16    1    4    4    0    0  0.76847223383E+03 -0.89869873368E+03  0.68289777165E+02  0.11844291797E+04  0.00000000000E+00 0.  1.
         16    1    1    2    0    0  0.13323960308E+03 -0.18972009644E+03 -0.76322707471E+03  0.79766037534E+03  0.00000000000E+00 0. -1.
    9900018    1    1    2    0    0 -0.16602048866E+03  0.37566004599E+03  0.56419265477E+03  0.70378391776E+03  0.91187600000E+02 0.  0.
<mgrwt>
<rscale>  0 0.31366084E+04</rscale>
<asrwt>0</asrwt>
<pdfrwt beam="1">  1        2 0.46560212E+00 0.38442532E+04</pdfrwt>
<pdfrwt beam="2">  1       -2 0.42553149E+00 0.38442532E+04</pdfrwt>
<totfact> 0.63536846E-03</totfact>
</mgrwt>
</event>
<event>
11    1  0.1155020E-011  0.4921076E+04  0.7818608E-02  0.8118639E-01
          1   -1    0    0  501    0  0.00000000000E+00  0.00000000000E+00  0.25526658643E+04  0.25526658643E+04  0.00000000000E+00 0. -1.
         -1   -1    0    0    0  501 -0.00000000000E+00 -0.00000000000E+00 -0.40666803262E+04  0.40666803262E+04  0.00000000000E+00 0.  1.
    9900016    2    1    2    0    0 -0.73118695985E+03  0.50737908280E+03 -0.23096568183E+04  0.31983588951E+04  0.20255658714E+04 0.  0.
         24    2    3    3    0    0 -0.29324628545E+03  0.71533527872E+03  0.59946334861E+02  0.77966980440E+03  0.81200344386E+02 0.  0.
        -15    1    1    2    0    0  0.55993833009E+03 -0.14315458089E+04 -0.18549392500E+03  0.15483095080E+04  0.00000000000E+00 0.  1.
        -15    1    4    4    0    0 -0.25406921767E+03  0.61160964320E+03  0.79651997904E+02  0.66705469325E+03  0.00000000000E+00 0.  1.
         15    1    3    3    0    0 -0.43794067440E+03 -0.20795619591E+03 -0.23696031532E+04  0.24186890907E+04  0.00000000000E+00 0. -1.
         15    1    1    2    0    0  0.22040435901E+03  0.47931948384E+03  0.70839395328E+03  0.88325944213E+03  0.00000000000E+00 0. -1.
        -16    1    1    2    0    0  0.10992205342E+03  0.33960144263E+03 -0.24314335741E+03  0.43189198872E+03  0.00000000000E+00 0.  1.
         16    1    4    4    0    0 -0.39177067781E+02  0.10372563552E+03 -0.19705663042E+02  0.11261511115E+03  0.00000000000E+00 0. -1.
    9900018    1    1    2    0    0 -0.15907778267E+03  0.10524579958E+03  0.51588568560E+03  0.55752635657E+03  0.91187600000E+02 0.  0.
<mgrwt>
<rscale>  0 0.34796124E+04</rscale>
<asrwt>0</asrwt>
<pdfrwt beam="1">  1        1 0.39271783E+00 0.49210763E+04</pdfrwt>
<pdfrwt beam="2">  1       -1 0.62564312E+00 0.49210763E+04</pdfrwt>
<totfact> 0.30884919E-04</totfact>
</mgrwt>
</event>
<event>
11    1  0.1155020E-011  0.3498189E+04  0.7818608E-02  0.8477921E-01
         -2   -1    0    0    0  501 -0.00000000000E+00  0.00000000000E+00  0.16609623344E+04  0.16609623344E+04  0.00000000000E+00 0.  1.
          2   -1    0    0  501    0  0.00000000000E+00 -0.00000000000E+00 -0.28476190534E+04  0.28476190534E+04  0.00000000000E+00 0. -1.
    9900016    2    1    2    0    0  0.54939717103E+03  0.21043731169E+03  0.75610547978E+02  0.21012617934E+04  0.20158033276E+04 0.  0.
        -24    2    3    3    0    0  0.12268234368E+04  0.47369658563E+03 -0.18257664069E+03  0.13299820677E+04  0.77677991491E+02 0.  0.
        -15    1    1    2    0    0  0.39098390417E+03  0.60133127437E+02 -0.30400206826E+03  0.49890045485E+03  0.00000000000E+00 0.  1.
        -15    1    3    3    0    0 -0.67742626575E+03 -0.26325927394E+03  0.25818718867E+03  0.77127972567E+03  0.00000000000E+00 0.  1.
         15    1    1    2    0    0 -0.73760758797E+03 -0.41557106489E+03 -0.15766679904E+03  0.86117540799E+03  0.00000000000E+00 0. -1.
         15    1    4    4    0    0  0.77771079659E+03  0.33715156747E+03 -0.13180675234E+03  0.85783348183E+03  0.00000000000E+00 0. -1.
        -16    1    4    4    0    0  0.44911264019E+03  0.13654501816E+03 -0.50769888350E+02  0.47214858586E+03  0.00000000000E+00 0.  1.
         16    1    1    2    0    0 -0.11325939174E+02 -0.22269721187E+03 -0.42729590986E+03  0.48197937679E+03  0.00000000000E+00 0. -1.
    9900018    1    1    2    0    0 -0.19144754807E+03  0.36769783763E+03 -0.37330248989E+03  0.56526435480E+03  0.91187600000E+02 0.  0.
<mgrwt>
<rscale>  0 0.22999992E+04</rscale>
<asrwt>0</asrwt>
<pdfrwt beam="1">  1        2 0.43809524E+00 0.34981891E+04</pdfrwt>
<pdfrwt beam="2">  1       -2 0.25553267E+00 0.34981891E+04</pdfrwt>
<totfact> 0.10262350E-01</totfact>
</mgrwt>
</event>
<event>
11    1  0.1155020E-011  0.3421315E+04  0.7818608E-02  0.8499464E-01
         -1   -1    0    0    0  501 -0.00000000000E+00  0.00000000000E+00  0.23784783097E+04  0.23784783097E+04  0.00000000000E+00 0.  1.
          1   -1    0    0  501    0  0.00000000000E+00 -0.00000000000E+00 -0.27399078413E+04  0.27399078413E+04  0.00000000000E+00 0. -1.
    9900016    2    1    2    0    0 -0.38352260781E+03 -0.48059341578E+03  0.69909068680E+03  0.22261878075E+04  0.20221584369E+04 0.  0.
         24    2    3    3    0    0 -0.41553023696E+03  0.71167532828E+03  0.61426242355E+03  0.10304766882E+04  0.73598432760E+02 0.  0.
        -15    1    4    4    0    0 -0.24689973181E+03  0.43997491267E+03  0.41881482079E+03  0.65570058370E+03  0.00000000000E+00 0.  1.
        -15    1    1    2    0    0  0.13523156482E+01 -0.20073921727E+03 -0.12679672193E+03  0.23743519284E+03  0.00000000000E+00 0.  1.
         15    1    1    2    0    0  0.24316586648E+03  0.96113459283E+02 -0.12776899068E+04  0.13041698254E+04  0.00000000000E+00 0. -1.
         15    1    3    3    0    0  0.32007629144E+02 -0.11922687441E+04  0.84828263249E+02  0.11957111192E+04  0.00000000000E+00 0. -1.
        -16    1    1    2    0    0 -0.26365725264E+03  0.72585913444E+03  0.46050253819E+03  0.89913804146E+03  0.00000000000E+00 0.  1.
         16    1    4    4    0    0 -0.16863050515E+03  0.27170041561E+03  0.19544760275E+03  0.37477610454E+03  0.00000000000E+00 0. -1.
    9900018    1    1    2    0    0  0.40266167833E+03 -0.14063996068E+03 -0.11653612788E+03  0.45145528375E+03  0.91187600000E+02 0.  0.
<mgrwt>
<rscale>  0 0.22461436E+04</rscale>
<asrwt>0</asrwt>
<pdfrwt beam="1">  1        1 0.42152428E+00 0.34213148E+04</pdfrwt>
<pdfrwt beam="2">  1       -1 0.36591974E+00 0.34213148E+04</pdfrwt>
<totfact> 0.87482619E-03</totfact>
</mgrwt>
</event>
<event>
11    1  0.1155020E-011  0.4659448E+04  0.7818608E-02  0.8159414E-01
          1   -1    0    0  501    0  0.00000000000E+00  0.00000000000E+00  0.30791026870E+04  0.30791026870E+04  0.00000000000E+00 0. -1.
         -1   -1    0    0    0  501 -0.00000000000E+00 -0.00000000000E+00 -0.27804632458E+04  0.27804632458E+04  0.00000000000E+00 0.  1.
    9900016    2    1    2    0    0  0.22579181454E+02  0.14262811095E+03 -0.24393314280E+03  0.20444501872E+04  0.20247025936E+04 0.  0.
        -24    2    3    3    0    0 -0.54106282737E+03  0.32849353657E+03 -0.93598700375E+03  0.11327611958E+04  0.80120339913E+02 0.  0.
        -15    1    1    2    0    0 -0.53865443202E+03  0.55699777784E+03 -0.30603443720E+03  0.83309795247E+03  0.00000000000E+00 0.  1.
        -15    1    3    3    0    0  0.56364200882E+03 -0.18586542562E+03  0.69205386095E+03  0.91168899138E+03  0.00000000000E+00 0.  1.
         15    1    4    4    0    0 -0.13520168410E+03  0.10885908479E+03 -0.30649036628E+03  0.35223023770E+03  0.00000000000E+00 0. -1.
         15    1    1    2    0    0  0.11133376316E+03 -0.69283360155E+02  0.33439591446E+03  0.35918799871E+03  0.00000000000E+00 0. -1.
        -16    1    4    4    0    0 -0.40586114327E+03  0.21963445178E+03 -0.62949663747E+03  0.78053095814E+03  0.00000000000E+00 0.  1.
         16    1    1    2    0    0 -0.72797742112E+03 -0.66142128655E+03  0.98536337321E+03  0.13922536483E+04  0.00000000000E+00 0. -1.
    9900018    1    1    2    0    0  0.11327189085E+04  0.31078757913E+02 -0.47115226644E+03  0.12305761462E+04  0.91187600000E+02 0.  0.
<mgrwt>
<rscale>  0 0.33137154E+04</rscale>
<asrwt>0</asrwt>
<pdfrwt beam="1">  1        1 0.47370811E+00 0.46594476E+04</pdfrwt>
<pdfrwt beam="2">  1       -1 0.42776358E+00 0.46594476E+04</pdfrwt>
<totfact> 0.17208824E-03</totfact>
</mgrwt>
</event>
<event>
11    1  0.1155020E-011  0.2822874E+04  0.7818608E-02  0.8623296E-01
         -2   -1    0    0    0  501 -0.00000000000E+00  0.00000000000E+00  0.15037074195E+04  0.15037074195E+04  0.00000000000E+00 0.  1.
          2   -1    0    0  501    0  0.00000000000E+00 -0.00000000000E+00 -0.21403984712E+04  0.21403984712E+04  0.00000000000E+00 0. -1.
    9900016    2    1    2    0    0 -0.65010961002E+03  0.24342649905E+03 -0.80795673679E+03  0.22904773708E+04  0.20277064709E+04 0.  0.
        -24    2    3    3    0    0  0.22323168422E+03  0.88581807306E+03 -0.78311104592E+03  0.12060377649E+04  0.82207886555E+02 0.  0.
        -15    1    1    2    0    0  0.56246570943E+03  0.17556915169E+03  0.25528028557E+03  0.64215280542E+03  0.00000000000E+00 0.  1.
        -15    1    3    3    0    0 -0.87334129423E+03 -0.64239157401E+03 -0.24845690878E+02  0.10844396059E+04  0.00000000000E+00 0.  1.
         15    1    4    4    0    0  0.94939572774E+02  0.30952055910E+03 -0.32508389200E+03  0.45879846972E+03  0.00000000000E+00 0. -1.
         15    1    1    2    0    0  0.26158631875E+02 -0.21649820832E+02 -0.41757744906E+02  0.53820981255E+02  0.00000000000E+00 0. -1.
        -16    1    4    4    0    0  0.12829211144E+03  0.57629751397E+03 -0.45802715392E+03  0.74723929513E+03  0.00000000000E+00 0.  1.
         16    1    1    2    0    0 -0.14501819334E+03 -0.26564660357E+03  0.14554213249E+03  0.33582868656E+03  0.00000000000E+00 0. -1.
    9900018    1    1    2    0    0  0.20650346205E+03 -0.13169922635E+03 -0.18779898804E+03  0.32182604674E+03  0.91187600000E+02 0.  0.
<mgrwt>
<rscale>  0 0.19647191E+04</rscale>
<asrwt>0</asrwt>
<pdfrwt beam="1">  1        2 0.32929207E+00 0.28228744E+04</pdfrwt>
<pdfrwt beam="2">  1       -2 0.23133960E+00 0.28228744E+04</pdfrwt>
<totfact> 0.39622082E-01</totfact>
</mgrwt>
</event>
<event>
11    1  0.1155020E-011  0.4920741E+04  0.7818608E-02  0.8140191E-01
         -2   -1    0    0    0  501 -0.00000000000E+00  0.00000000000E+00  0.24980281331E+04  0.24980281331E+04  0.00000000000E+00 0.  1.
          2   -1    0    0  501    0  0.00000000000E+00 -0.00000000000E+00 -0.39841965410E+04  0.39841965410E+04  0.00000000000E+00 0. -1.
    9900016    2    1    2    0    0 -0.14547743872E+03  0.21031571358E+03 -0.41302855719E+03  0.20933446117E+04  0.20361980969E+04 0.  0.
         24    2    3    3    0    0 -0.22569140382E+03 -0.52828182470E+03 -0.99321134957E+03  0.11507032821E+04  0.87355380085E+02 0.  0.
        -15    1    1    2    0    0  0.17892165884E+03 -0.17116541073E+02  0.11115980924E+03  0.21133489814E+03  0.00000000000E+00 0.  1.
        -15    1    4    4    0    0 -0.54554090515E+02 -0.23517020710E+03 -0.42939474227E+03  0.49260635378E+03  0.00000000000E+00 0.  1.
         15    1    3    3    0    0  0.80213965102E+02  0.73859753828E+03  0.58018279238E+03  0.94264132963E+03  0.00000000000E+00 0. -1.
         15    1    1    2    0    0 -0.21637661509E+03  0.89997134247E+03  0.33495440889E+03  0.98435852861E+03  0.00000000000E+00 0. -1.
        -16    1    1    2    0    0  0.50883468102E+02 -0.17999401709E+04 -0.16666535135E+04  0.24535907728E+04  0.00000000000E+00 0.  1.
         16    1    4    4    0    0 -0.17113731331E+03 -0.29311161760E+03 -0.56381660730E+03  0.65809692830E+03  0.00000000000E+00 0. -1.
    9900018    1    1    2    0    0  0.13204892686E+03  0.70676965590E+03  0.14739944470E+03  0.73959586281E+03  0.91187600000E+02 0.  0.
<mgrwt>
<rscale>  0 0.33907080E+04</rscale>
<asrwt>0</asrwt>
<pdfrwt beam="1">  1        2 0.61295330E+00 0.49207415E+04</pdfrwt>
<pdfrwt beam="2">  1       -2 0.38431203E+00 0.49207415E+04</pdfrwt>
<totfact> 0.23039755E-03</totfact>
</mgrwt>
</event>
<event>
11    1  0.1155020E-011  0.3740254E+04  0.7818608E-02  0.8530102E-01
         -2   -1    0    0    0  501 -0.00000000000E+00  0.00000000000E+00  0.21468677618E+04  0.21468677618E+04  0.00000000000E+00 0.  1.
          2   -1    0    0  501    0  0.00000000000E+00 -0.00000000000E+00 -0.20817501210E+04  0.20817501210E+04  0.00000000000E+00 0. -1.
    9900016    2    1    2    0    0 -0.34319455881E+03 -0.30933682332E+03 -0.38147142472E+03  0.21042014423E+04  0.20170948134E+04 0.  0.
         24    2    3    3    0    0  0.31659068847E+03  0.24868282029E+02 -0.10545942796E+04  0.11041494423E+04  0.78286658616E+02 0.  0.
        -15    1    4    4    0    0  0.22204235703E+03  0.19523476066E+02 -0.84935330600E+03  0.87811446454E+03  0.00000000000E+00 0.  1.
        -15    1    1    2    0    0  0.10078252871E+03  0.81418677129E+02 -0.19313854049E+02  0.13099291598E+03  0.00000000000E+00 0.  1.
         15    1    3    3    0    0 -0.65978524728E+03 -0.33420510535E+03  0.67312285485E+03  0.10000520000E+04  0.00000000000E+00 0. -1.
         15    1    1    2    0    0 -0.24051149820E+03  0.15232114093E+03 -0.19792194883E+03  0.34672843634E+03  0.00000000000E+00 0. -1.
        -16    1    1    2    0    0  0.66328591459E+03 -0.54230364474E+03  0.38628888992E+03  0.93981942631E+03  0.00000000000E+00 0.  1.
         16    1    4    4    0    0  0.94548331440E+02  0.53448059626E+01 -0.20524097358E+03  0.22603497774E+03  0.00000000000E+00 0. -1.
    9900018    1    1    2    0    0 -0.18036238629E+03  0.61790065000E+03  0.27753597852E+03  0.70687566193E+03  0.91187600000E+02 0.  0.
<mgrwt>
<rscale>  0 0.21721687E+04</rscale>
<asrwt>0</asrwt>
<pdfrwt beam="1">  1        2 0.32026925E+00 0.37402542E+04</pdfrwt>
<pdfrwt beam="2">  1       -2 0.33028735E+00 0.37402542E+04</pdfrwt>
<totfact> 0.98453690E-02</totfact>
</mgrwt>
</event>
<event>
11    1  0.1155020E-011  0.3293721E+04  0.7818608E-02  0.8470441E-01
          2   -1    0    0  501    0  0.00000000000E+00  0.00000000000E+00  0.28891960530E+04  0.28891960530E+04  0.00000000000E+00 0. -1.
         -2   -1    0    0    0  501 -0.00000000000E+00 -0.00000000000E+00 -0.15174814046E+04  0.15174814046E+04  0.00000000000E+00 0.  1.
    9900016    2    1    2    0    0 -0.30657644583E+03 -0.12063020051E+03  0.24779481121E+03  0.20623527795E+04  0.20207315399E+04 0.  0.
        -24    2    3    3    0    0  0.80632139573E+03  0.27794468160E+03  0.19852097183E+03  0.87920804884E+03  0.78668784467E+02 0.  0.
        -15    1    1    2    0    0 -0.56974376425E+03  0.25308560722E+03  0.98596966029E+02  0.63117481191E+03  0.00000000000E+00 0.  1.
        -15    1    3    3    0    0 -0.11128978416E+04 -0.39857488212E+03  0.49273839388E+02  0.11831447306E+04  0.00000000000E+00 0.  1.
         15    1    4    4    0    0  0.47885322883E+03  0.18435237099E+03  0.84352618067E+02  0.52000151502E+03  0.00000000000E+00 0. -1.
         15    1    1    2    0    0  0.31605740735E+03  0.15187733952E+02  0.70884214597E+03  0.77626035575E+03  0.00000000000E+00 0. -1.
        -16    1    4    4    0    0  0.32746816689E+03  0.93592310616E+02  0.11416835376E+03  0.35920653382E+03  0.00000000000E+00 0.  1.
         16    1    1    2    0    0  0.27286649915E+02  0.66866247812E+02 -0.16606114591E+03  0.18108550616E+03  0.00000000000E+00 0. -1.
    9900018    1    1    2    0    0  0.53297615281E+03 -0.21450938847E+03  0.48254187109E+03  0.75580400433E+03  0.91187600000E+02 0.  0.
<mgrwt>
<rscale>  0 0.23190664E+04</rscale>
<asrwt>0</asrwt>
<pdfrwt beam="1">  1        2 0.44449170E+00 0.32937211E+04</pdfrwt>
<pdfrwt beam="2">  1       -2 0.23345868E+00 0.32937211E+04</pdfrwt>
<totfact> 0.13461900E-01</totfact>
</mgrwt>
</event>
<event>
11    1  0.1155020E-011  0.4601403E+04  0.7818608E-02  0.8392644E-01
          1   -1    0    0  501    0  0.00000000000E+00  0.00000000000E+00  0.27410868713E+04  0.27410868713E+04  0.00000000000E+00 0. -1.
         -1   -1    0    0    0  501 -0.00000000000E+00 -0.00000000000E+00 -0.27002157726E+04  0.27002157726E+04  0.00000000000E+00 0.  1.
    9900016    2    1    2    0    0 -0.11033555185E+04  0.59170910134E+03 -0.56834859724E+03  0.24485610093E+04  0.20260596801E+04 0.  0.
        -24    2    3    3    0    0 -0.11149385585E+04  0.12694307882E+04 -0.51767108010E+03  0.17688485242E+04  0.79367744888E+02 0.  0.
        -15    1    3    3    0    0  0.11583040033E+02 -0.67772168686E+03 -0.50677517147E+02  0.67971248510E+03  0.00000000000E+00 0.  1.
        -15    1    1    2    0    0 -0.23130572436E+03  0.11006836086E+03  0.44301638689E+03  0.51174300311E+03  0.00000000000E+00 0.  1.
         15    1    1    2    0    0 -0.10677691648E+03 -0.12268191979E+03  0.23339471306E+03  0.28447364626E+03  0.00000000000E+00 0. -1.
         15    1    4    4    0    0 -0.19612963496E+03  0.19954498757E+03 -0.11212004848E+03  0.30142319261E+03  0.00000000000E+00 0. -1.
        -16    1    4    4    0    0 -0.91880892358E+03  0.10698858006E+04 -0.40555103162E+03  0.14674253316E+04  0.00000000000E+00 0.  1.
         16    1    1    2    0    0  0.16757649360E+04 -0.38588956549E+03  0.26197855600E+03  0.17394630325E+04  0.00000000000E+00 0. -1.
    9900018    1    1    2    0    0 -0.23432677666E+03 -0.19320597692E+03 -0.32916995996E+03  0.45706195282E+03  0.91187600000E+02 0.  0.
<mgrwt>
<rscale>  0 0.25292337E+04</rscale>
<asrwt>0</asrwt>
<pdfrwt beam="1">  1        1 0.42170567E+00 0.46014034E+04</pdfrwt>
<pdfrwt beam="2">  1       -1 0.41541781E+00 0.46014034E+04</pdfrwt>
<totfact> 0.37306450E-03</totfact>
</mgrwt>
</event>
<event>
11    1  0.1155020E-011  0.5367631E+04  0.7818608E-02  0.8026082E-01
          2   -1    0    0  501    0  0.00000000000E+00  0.00000000000E+00  0.25689376817E+04  0.25689376817E+04  0.00000000000E+00 0. -1.
         -2   -1    0    0    0  501 -0.00000000000E+00 -0.00000000000E+00 -0.45747507667E+04  0.45747507667E+04  0.00000000000E+00 0.  1.
    9900016    2    1    2    0    0  0.94997553875E+03  0.14692326608E+04 -0.58520169519E+03  0.27418248631E+04  0.20283107307E+04 0.  0.
         24    2    3    3    0    0  0.10930175667E+04  0.14473622165E+04 -0.11564671154E+04  0.21525172029E+04  0.79808101288E+02 0.  0.
        -15    1    1    2    0    0 -0.72918236340E+03  0.39492927850E+03  0.85623503804E+02  0.83367106134E+03  0.00000000000E+00 0.  1.
        -15    1    4    4    0    0  0.97787138487E+03  0.13323275934E+04 -0.10492651345E+04  0.19576226868E+04  0.00000000000E+00 0.  1.
         15    1    3    3    0    0 -0.14304202791E+03  0.21870444293E+02  0.57126542023E+03  0.58930766025E+03  0.00000000000E+00 0. -1.
         15    1    1    2    0    0  0.47572753622E+03  0.19531964062E+03 -0.48565872623E+03  0.70734068814E+03  0.00000000000E+00 0. -1.
        -16    1    1    2    0    0 -0.10768081611E+04 -0.19934009220E+04 -0.77582117387E+03  0.23947988528E+04  0.00000000000E+00 0.  1.
         16    1    4    4    0    0  0.11514618178E+03  0.11503462313E+03 -0.10720198090E+03  0.19489451610E+03  0.00000000000E+00 0. -1.
    9900018    1    1    2    0    0  0.38028744954E+03 -0.66080657901E+02 -0.24475499351E+03  0.46605298290E+03  0.91187600000E+02 0.  0.
<mgrwt>
<rscale>  0 0.38949429E+04</rscale>
<asrwt>0</asrwt>
<pdfrwt beam="1">  1        2 0.39522118E+00 0.53676311E+04</pdfrwt>
<pdfrwt beam="2">  1       -2 0.70380781E+00 0.53676311E+04</pdfrwt>
<totfact> 0.47765935E-04</totfact>
</mgrwt>
</event>
<event>
11    1  0.1155020E-011  0.3540448E+04  0.7818608E-02  0.8275400E-01
          1   -1    0    0  501    0  0.00000000000E+00  0.00000000000E+00  0.23984610033E+04  0.23984610033E+04  0.00000000000E+00 0. -1.
         -1   -1    0    0    0  501 -0.00000000000E+00 -0.00000000000E+00 -0.27666717170E+04  0.27666717170E+04  0.00000000000E+00 0.  1.
    9900016    2    1    2    0    0  0.24659719775E+03 -0.69915348832E+03 -0.11197152395E+04  0.24303955294E+04  0.20256935685E+04 0.  0.
        -24    2    3    3    0    0  0.86912807089E+03 -0.10682912920E+04 -0.46879042187E+03  0.14569940067E+04  0.80232087281E+02 0.  0.
        -15    1    1    2    0    0 -0.89366257155E+03  0.61591739646E+03 -0.28352862304E+03  0.11217733778E+04  0.00000000000E+00 0.  1.
        -15    1    3    3    0    0 -0.62253087314E+03  0.36913780365E+03 -0.65092481764E+03  0.97340152266E+03  0.00000000000E+00 0.  1.
         15    1    1    2    0    0 -0.12586327092E+02  0.96140739434E+02  0.45216244643E+03  0.46244171024E+03  0.00000000000E+00 0. -1.
         15    1    4    4    0    0  0.62637975573E+03 -0.80899174752E+03 -0.37415708815E+03  0.10894093687E+04  0.00000000000E+00 0. -1.
        -16    1    4    4    0    0  0.24274831516E+03 -0.25929954445E+03 -0.94633333726E+02  0.36758463803E+03  0.00000000000E+00 0.  1.
         16    1    1    2    0    0  0.79022624291E+03 -0.10604280421E+03  0.40512113079E+03  0.89432976128E+03  0.00000000000E+00 0. -1.
    9900018    1    1    2    0    0 -0.13057454202E+03  0.93138156632E+02  0.17774957163E+03  0.25619234152E+03  0.91187600000E+02 0.  0.
<mgrwt>
<rscale>  0 0.28915356E+04</rscale>
<asrwt>0</asrwt>
<pdfrwt beam="1">  1        1 0.36899400E+00 0.35404476E+04</pdfrwt>
<pdfrwt beam="2">  1       -1 0.42564180E+00 0.35404476E+04</pdfrwt>
<totfact> 0.58845573E-03</totfact>
</mgrwt>
</event>
