<event>
11    1  0.3617257E-011  0.1730556E+04  0.7818608E-02  0.8744127E-01
         -2   -1    0    0    0  501 -0.00000000000E+00  0.00000000000E+00  0.20370014859E+04  0.20370014859E+04  0.00000000000E+00 0.  1.
          2   -1    0    0  501    0  0.00000000000E+00 -0.00000000000E+00 -0.36755295568E+03  0.36755295568E+03  0.00000000000E+00 0. -1.
    9900016    2    1    2    0    0 -0.17652738771E+03  0.45853471183E+02  0.82121031538E+03  0.11013178887E+04  0.71080957393E+03 0.  0.
         23    2    3    3    0    0 -0.16755599455E+03  0.10064448992E+03  0.28000409058E+03  0.35361733834E+03  0.91861888553E+02 0.  0.
        -15    1    4    4    0    0 -0.17444738115E+03  0.80043601606E+02  0.23327795348E+03  0.30208851440E+03  0.00000000000E+00 0.  1.
        -15    1    3    3    0    0  0.47388952001E+02 -0.40853792348E+02  0.10231612382E+03  0.11993053954E+03  0.00000000000E+00 0.  1.
         15    1    4    4    0    0  0.68913865989E+01  0.20600888317E+02  0.46726137098E+02  0.51528823941E+02  0.00000000000E+00 0. -1.
         15    1    3    3    0    0  0.91577280096E+02  0.17956049429E+03  0.15893371929E+03  0.25668715680E+03  0.00000000000E+00 0. -1.
        -16    1    1    2    0    0 -0.26028358197E+03  0.17380154338E+03  0.72671466826E+03  0.79124504964E+03  0.00000000000E+00 0.  1.
         16    1    3    3    0    0 -0.14793762525E+03 -0.19349772068E+03  0.27995638168E+03  0.37108285398E+03  0.00000000000E+00 0. -1.
    9900018    1    1    2    0    0  0.43681096968E+03 -0.21965501456E+03  0.12152354657E+03  0.51199150327E+03  0.91187600000E+02 0.  0.
<mgrwt>
<rscale>  0 0.17305559E+04</rscale>
<asrwt>0</asrwt>
<pdfrwt beam="1">  1        2 0.56546610E-01 0.17305559E+04</pdfrwt>
<pdfrwt beam="2">  1       -2 0.31338484E+00 0.17305559E+04</pdfrwt>
<totfact> 0.21899241E+00</totfact>
</mgrwt>
</event>
<event>
11    1  0.3617257E-011  0.2139009E+04  0.7818608E-02  0.8544252E-01
         -2   -1    0    0    0  501 -0.00000000000E+00  0.00000000000E+00  0.65022771058E+03  0.65022771058E+03  0.00000000000E+00 0.  1.
          2   -1    0    0  501    0  0.00000000000E+00 -0.00000000000E+00 -0.17591368399E+04  0.17591368399E+04  0.00000000000E+00 0. -1.
    9900016    2    1    2    0    0 -0.72857398826E+03 -0.24091601377E+03 -0.62159158026E+03  0.12175547544E+04  0.71218179233E+03 0.  0.
         23    2    3    3    0    0 -0.33520252166E+03  0.23467670555E+02 -0.25831850727E+03  0.43306451846E+03  0.88909863693E+02 0.  0.
        -15    1    4    4    0    0 -0.77613402253E+02 -0.34265027107E+01 -0.10982378865E+03  0.13452451703E+03  0.00000000000E+00 0. -1.
        -15    1    3    3    0    0 -0.33286114822E+03 -0.28640077636E+03 -0.45020337581E+03  0.62889190509E+03  0.00000000000E+00 0.  1.
         15    1    4    4    0    0 -0.25758911941E+03  0.26894173265E+02 -0.14849471862E+03  0.29854000143E+03  0.00000000000E+00 0.  1.
         15    1    3    3    0    0 -0.29443900303E+01 -0.31849883452E+02  0.67055313992E+02  0.74293335119E+02  0.00000000000E+00 0. -1.
        -16    1    3    3    0    0 -0.57565928344E+02  0.53866975496E+02  0.19874988822E+02  0.81304995762E+02  0.00000000000E+00 0.  1.
         16    1    1    2    0    0  0.70284584842E+03  0.16860328665E+03 -0.66213580149E+03  0.98022608338E+03  0.00000000000E+00 0. -1.
    9900018    1    1    2    0    0  0.25728139832E+02  0.72312727112E+02  0.17481825245E+03  0.21158371266E+03  0.91187600000E+02 0.  0.
<mgrwt>
<rscale>  0 0.21390087E+04</rscale>
<asrwt>0</asrwt>
<pdfrwt beam="1">  1        2 0.27063643E+00 0.21390087E+04</pdfrwt>
<pdfrwt beam="2">  1       -2 0.10003503E+00 0.21390087E+04</pdfrwt>
<totfact> 0.68931676E+00</totfact>
</mgrwt>
</event>
<event>
11    1  0.3617257E-011  0.1532537E+04  0.7818608E-02  0.8863100E-01
         -2   -1    0    0    0  501 -0.00000000000E+00  0.00000000000E+00  0.19803363068E+03  0.19803363068E+03  0.00000000000E+00 0.  1.
          2   -1    0    0  501    0  0.00000000000E+00 -0.00000000000E+00 -0.29649874626E+04  0.29649874626E+04  0.00000000000E+00 0. -1.
    9900016    2    1    2    0    0  0.25189734167E+03  0.11892960547E+03 -0.96885444929E+03  0.12323328496E+04  0.70877978705E+03 0.  0.
         23    2    3    3    0    0  0.95715804230E+02  0.17068863300E+03 -0.63768760385E+02  0.22515938270E+03  0.91291665568E+02 0.  0.
        -15    1    3    3    0    0  0.18608930122E+03 -0.18800380303E+03 -0.39950859421E+03  0.47914692406E+03  0.00000000000E+00 0.  1.
        -15    1    4    4    0    0  0.31644492189E+02  0.67916502471E+02 -0.71813076597E+02  0.10378411807E+03  0.00000000000E+00 0.  1.
         15    1    4    4    0    0  0.64071312041E+02  0.10277213053E+03  0.80443162123E+01  0.12137526463E+03  0.00000000000E+00 0. -1.
         15    1    3    3    0    0 -0.41336751854E+01  0.70548333876E+02 -0.35182029443E+03  0.35884770343E+03  0.00000000000E+00 0. -1.
        -16    1    3    3    0    0 -0.25774088592E+02  0.65696441621E+02 -0.15375680026E+03  0.16917883943E+03  0.00000000000E+00 0.  1.
         16    1    1    2    0    0 -0.10275488751E+03  0.88575262388E+02 -0.15710513095E+04  0.15768977015E+04  0.00000000000E+00 0. -1.
    9900018    1    1    2    0    0 -0.14914245416E+03 -0.20750486786E+03 -0.22704807320E+03  0.35379054221E+03  0.91187600000E+02 0.  0.
<mgrwt>
<rscale>  0 0.15325368E+04</rscale>
<asrwt>0</asrwt>
<pdfrwt beam="1">  1        2 0.45615191E+00 0.15325368E+04</pdfrwt>
<pdfrwt beam="2">  1       -2 0.30466713E-01 0.15325368E+04</pdfrwt>
<totfact> 0.17697621E+01</totfact>
</mgrwt>
</event>
<event>
11    1  0.3617257E-011  0.1358769E+04  0.7818608E-02  0.8984216E-01
         -1   -1    0    0    0  501 -0.00000000000E+00  0.00000000000E+00  0.24898174225E+03  0.24898174225E+03  0.00000000000E+00 0.  1.
          1   -1    0    0  501    0  0.00000000000E+00 -0.00000000000E+00 -0.18538050827E+04  0.18538050827E+04  0.00000000000E+00 0. -1.
    9900016    2    1    2    0    0  0.33949614983E+03 -0.17505269961E+03 -0.10305036261E+04  0.13082701205E+04  0.70974072822E+03 0.  0.
         23    2    3    3    0    0  0.52765330982E+02  0.31389767811E+01 -0.26246303014E+03  0.28250101451E+03  0.90144038528E+02 0.  0.
        -15    1    4    4    0    0  0.47911272534E+02  0.28365621086E+02 -0.24545696201E+03  0.25169270687E+03  0.00000000000E+00 0.  1.
        -15    1    3    3    0    0 -0.69813310611E+02 -0.60252848765E+02 -0.54575385232E+03  0.55349035352E+03  0.00000000000E+00 0.  1.
         15    1    3    3    0    0  0.15283238231E+03  0.40817663732E+02 -0.92238308135E+02  0.18311669569E+03  0.00000000000E+00 0. -1.
         15    1    4    4    0    0  0.48540584478E+01 -0.25226644305E+02 -0.17006068133E+02  0.30808307640E+02  0.00000000000E+00 0. -1.
        -16    1    3    3    0    0  0.20371174715E+03 -0.15875649135E+03 -0.13004843551E+03  0.28916205673E+03  0.00000000000E+00 0.  1.
         16    1    1    2    0    0 -0.23177408618E+03 -0.28106843676E+00 -0.51036270215E+03  0.56052599741E+03  0.00000000000E+00 0. -1.
    9900018    1    1    2    0    0 -0.10772206365E+03  0.17533376804E+03 -0.63957012233E+02  0.23399070712E+03  0.91187600000E+02 0.  0.
<mgrwt>
<rscale>  0 0.13587695E+04</rscale>
<asrwt>0</asrwt>
<pdfrwt beam="1">  1        1 0.28520078E+00 0.13587695E+04</pdfrwt>
<pdfrwt beam="2">  1       -1 0.38304883E-01 0.13587695E+04</pdfrwt>
<totfact> 0.24162257E+01</totfact>
</mgrwt>
</event>
<event>
11    1  0.3617257E-011  0.1939259E+04  0.7818608E-02  0.8635558E-01
          1   -1    0    0  501    0  0.00000000000E+00  0.00000000000E+00  0.24785457379E+04  0.24785457379E+04  0.00000000000E+00 0. -1.
         -1   -1    0    0    0  501 -0.00000000000E+00 -0.00000000000E+00 -0.37932790133E+03  0.37932790133E+03  0.00000000000E+00 0.  1.
    9900016    2    1    2    0    0 -0.70574270392E+02 -0.26021604293E+02  0.21102572032E+04  0.22253549101E+04  0.70239672595E+03 0.  0.
         23    2    3    3    0    0 -0.38034508407E+02  0.22698882100E+02  0.10706241293E+03  0.14715822251E+03  0.90726617435E+02 0.  0.
        -15    1    3    3    0    0 -0.49577147679E+02 -0.80963094327E+02  0.37452979019E+03  0.38637479208E+03  0.00000000000E+00 0.  1.
        -15    1    4    4    0    0  0.20164915994E+02  0.29041968359E+02  0.68407029853E+02  0.77003775859E+02  0.00000000000E+00 0. -1.
         15    1    3    3    0    0 -0.14232056709E+03  0.76290363259E+02  0.21690124130E+03  0.27040989594E+03  0.00000000000E+00 0. -1.
         15    1    4    4    0    0 -0.58199424401E+02 -0.63430862583E+01  0.38655383076E+02  0.70154446649E+02  0.00000000000E+00 0.  1.
        -16    1    1    2    0    0  0.18277258675E+03 -0.18526976072E+03 -0.18820650549E+03  0.32117346001E+03  0.00000000000E+00 0.  1.
         16    1    3    3    0    0  0.15935795278E+03 -0.44047755325E+02  0.14117637588E+04  0.14214119996E+04  0.00000000000E+00 0. -1.
    9900018    1    1    2    0    0 -0.11219831636E+03  0.21129136501E+03  0.17716713882E+03  0.31134526911E+03  0.91187600000E+02 0.  0.
<mgrwt>
<rscale>  0 0.19392592E+04</rscale>
<asrwt>0</asrwt>
<pdfrwt beam="1">  1        1 0.38131472E+00 0.19392592E+04</pdfrwt>
<pdfrwt beam="2">  1       -1 0.58358140E-01 0.19392592E+04</pdfrwt>
<totfact> 0.38920173E+00</totfact>
</mgrwt>
</event>
<event>
11    1  0.3617257E-011  0.2770975E+04  0.7818608E-02  0.8312337E-01
         -2   -1    0    0    0  501 -0.00000000000E+00  0.00000000000E+00  0.82478987120E+03  0.82478987120E+03  0.00000000000E+00 0.  1.
          2   -1    0    0  501    0  0.00000000000E+00 -0.00000000000E+00 -0.23273503525E+04  0.23273503525E+04  0.00000000000E+00 0. -1.
    9900016    2    1    2    0    0 -0.20530086908E+03  0.37450814489E+03 -0.54392999340E+03  0.99014520136E+03  0.70860629733E+03 0.  0.
         23    2    3    3    0    0 -0.79200227724E+02  0.21286146684E+03 -0.39046877247E+03  0.46080162083E+03  0.91047192962E+02 0.  0.
        -15    1    3    3    0    0 -0.86471906698E+02  0.17115134536E+03 -0.14023736700E+03  0.23756408140E+03  0.00000000000E+00 0.  1.
        -15    1    4    4    0    0 -0.49871129403E+02  0.17099616097E+03 -0.22129773850E+03  0.28407658418E+03  0.00000000000E+00 0. -1.
         15    1    4    4    0    0 -0.29329098321E+02  0.41865305874E+02 -0.16917103397E+03  0.17672503665E+03  0.00000000000E+00 0.  1.
         15    1    3    3    0    0 -0.15292096013E+03  0.37130587449E+02  0.33084591874E+02  0.16080451110E+03  0.00000000000E+00 0. -1.
        -16    1    1    2    0    0  0.91824191234E+03 -0.24625950955E+03  0.78747707903E+01  0.95072286584E+03  0.00000000000E+00 0.  1.
         16    1    3    3    0    0  0.11329222547E+03 -0.46635254754E+02 -0.46308445805E+02  0.13097498803E+03  0.00000000000E+00 0. -1.
    9900018    1    1    2    0    0 -0.71294104326E+03 -0.12824863535E+03 -0.96650525868E+03  0.12112721565E+04  0.91187600000E+02 0.  0.
<mgrwt>
<rscale>  0 0.27709746E+04</rscale>
<asrwt>0</asrwt>
<pdfrwt beam="1">  1        2 0.35805390E+00 0.27709746E+04</pdfrwt>
<pdfrwt beam="2">  1       -2 0.12689075E+00 0.27709746E+04</pdfrwt>
<totfact> 0.17612841E+00</totfact>
</mgrwt>
</event>
