<event>
12    1  0.1252200E-010  0.1088917E+04  0.7818608E-02  0.9216062E-01
          2   -1    0    0  501    0  0.00000000000E+00  0.00000000000E+00  0.16748478913E+04  0.16748478913E+04  0.00000000000E+00 0. -1.
         -2   -1    0    0    0  501 -0.00000000000E+00 -0.00000000000E+00 -0.17699216177E+03  0.17699216177E+03  0.00000000000E+00 0.  1.
    9900016    2    1    2    0    0  0.84848763688E+02  0.27818446534E+03  0.86203823248E+03  0.11526621079E+04  0.70776698939E+03 0.  0.
         23    2    3    3    0    0  0.14313570562E+03  0.26197691360E+03  0.34399077076E+03  0.46444754618E+03  0.90896310687E+02 0.  0.
         23    2    3    3    0    0 -0.15833158146E+03 -0.98660075257E+02  0.28305177939E+03  0.35107491208E+03  0.91282988227E+02 0.  0.
        -15    1    5    5    0    0  0.86205702005E+01 -0.12896796208E+02  0.64407977034E+01  0.16796590668E+02  0.00000000000E+00 0.  1.
        -15    1    4    4    0    0  0.66813034300E+02  0.17898304265E+03  0.16262334944E+03  0.25088894933E+03  0.00000000000E+00 0.  1.
         15    1    4    4    0    0  0.76322671323E+02  0.82993870944E+02  0.18136742132E+03  0.21355859685E+03  0.00000000000E+00 0. -1.
         15    1    5    5    0    0 -0.16695215166E+03 -0.85763279049E+02  0.27661098169E+03  0.33427832141E+03  0.00000000000E+00 0. -1.
        -16    1    1    2    0    0 -0.84848763688E+02 -0.27818446534E+03  0.63581749706E+03  0.69917794518E+03  0.00000000000E+00 0.  1.
         16    1    3    3    0    0 -0.13852546144E+02 -0.28297278870E+02  0.61194145557E+02  0.68828427823E+02  0.00000000000E+00 0. -1.
    9900018    1    3    3    0    0  0.11389718567E+03  0.14316490587E+03  0.17380153677E+03  0.26831122182E+03  0.91187600000E+02 0.  0.
<mgrwt>
<rscale>  0 0.10889168E+04</rscale>
<asrwt>0</asrwt>
<pdfrwt beam="1">  1        2 0.25766890E+00 0.10889168E+04</pdfrwt>
<pdfrwt beam="2">  1       -2 0.27229564E-01 0.10889168E+04</pdfrwt>
<totfact> 0.12347849E+02</totfact>
</mgrwt>
</event>
<event>
12    1  0.1252200E-010  0.1197959E+04  0.7818608E-02  0.9114645E-01
          2   -1    0    0  501    0  0.00000000000E+00  0.00000000000E+00  0.84110314188E+03  0.84110314188E+03  0.00000000000E+00 0. -1.
         -2   -1    0    0    0  501 -0.00000000000E+00 -0.00000000000E+00 -0.42655460989E+03  0.42655460989E+03  0.00000000000E+00 0.  1.
    9900016    2    1    2    0    0 -0.14710351131E+03  0.35245897953E+03  0.22061384563E+03  0.83931508770E+03  0.71408162857E+03 0.  0.
         23    2    3    3    0    0 -0.39192455932E+01  0.12790229539E+02  0.28200968893E+02  0.96126304276E+02  0.90917662034E+02 0.  0.
         23    2    3    3    0    0 -0.76722295418E+02  0.12187608878E+03  0.32592620111E+02  0.16787758392E+03  0.79878111319E+02 0.  0.
        -15    1    4    4    0    0 -0.59946990576E+01 -0.36451324130E+02 -0.41477847041E+01  0.37173102717E+02  0.00000000000E+00 0. -1.
        -15    1    5    5    0    0 -0.44513208605E+02  0.57199055250E+02 -0.23731059494E+02  0.76264807392E+02  0.00000000000E+00 0.  1.
         15    1    5    5    0    0 -0.32209086813E+02  0.64677033527E+02  0.56323679606E+02  0.91612776530E+02  0.00000000000E+00 0. -1.
         15    1    4    4    0    0  0.20754534644E+01  0.49241553669E+02  0.32348753597E+02  0.58953201559E+02  0.00000000000E+00 0.  1.
        -16    1    3    3    0    0  0.38213194194E+02  0.30172325933E+03  0.24640806709E+03  0.39142573875E+03  0.00000000000E+00 0.  1.
         16    1    1    2    0    0  0.14710351131E+03 -0.35245897953E+03  0.19393468636E+03  0.42834266408E+03  0.00000000000E+00 0. -1.
    9900018    1    3    3    0    0 -0.10467516449E+03 -0.83930598107E+02 -0.86587810467E+02  0.18388546075E+03  0.91187600000E+02 0.  0.
<mgrwt>
<rscale>  0 0.11979590E+04</rscale>
<asrwt>0</asrwt>
<pdfrwt beam="1">  1        2 0.12940048E+00 0.11979590E+04</pdfrwt>
<pdfrwt beam="2">  1       -2 0.65623786E-01 0.11979590E+04</pdfrwt>
<totfact> 0.67981774E+01</totfact>
</mgrwt>
</event>
<event>
12    1  0.1252200E-010  0.1293699E+04  0.7818608E-02  0.9034577E-01
         -1   -1    0    0    0  501 -0.00000000000E+00  0.00000000000E+00  0.26203126437E+03  0.26203126437E+03  0.00000000000E+00 0.  1.
          1   -1    0    0  501    0  0.00000000000E+00 -0.00000000000E+00 -0.15968102770E+04  0.15968102770E+04  0.00000000000E+00 0. -1.
    9900016    2    1    2    0    0  0.35706678017E+03 -0.16702239012E+03 -0.11831388283E+04  0.14364816122E+04  0.71292970953E+03 0.  0.
         23    2    3    3    0    0  0.69549469493E+02 -0.17527354549E+03 -0.49789482627E+02  0.21579167902E+03  0.92353189964E+02 0.  0.
         23    2    3    3    0    0  0.29141923534E+02  0.32991818477E+02 -0.15509260151E+03  0.18538412329E+03  0.91519649985E+02 0.  0.
        -15    1    4    4    0    0  0.79244141669E+01 -0.25691902626E+02  0.25766116940E+02  0.37239266676E+02  0.00000000000E+00 0. -1.
        -15    1    5    5    0    0 -0.18032722234E+02  0.37872058887E+02 -0.29907319562E+02  0.51516207924E+02  0.00000000000E+00 0.  1.
         15    1    4    4    0    0  0.61625055326E+02 -0.14958164287E+03 -0.75555599568E+02  0.17855241234E+03  0.00000000000E+00 0.  1.
         15    1    5    5    0    0  0.47174645767E+02 -0.48802404098E+01 -0.12518528194E+03  0.13386791537E+03  0.00000000000E+00 0. -1.
        -16    1    3    3    0    0 -0.91200116172E+01 -0.34480762418E+02 -0.27535061605E+03  0.27765096677E+03  0.00000000000E+00 0.  1.
         16    1    1    2    0    0 -0.35706678017E+03  0.16702239012E+03 -0.15164018430E+03  0.42235992920E+03  0.00000000000E+00 0. -1.
    9900018    1    3    3    0    0  0.26749539876E+03  0.97400993138E+01 -0.70290612816E+03  0.75765484311E+03  0.91187600000E+02 0.  0.
<mgrwt>
<rscale>  0 0.12936989E+04</rscale>
<asrwt>0</asrwt>
<pdfrwt beam="1">  1        1 0.24566312E+00 0.12936989E+04</pdfrwt>
<pdfrwt beam="2">  1       -1 0.40312502E-01 0.12936989E+04</pdfrwt>
<totfact> 0.33102251E+01</totfact>
</mgrwt>
</event>
<event>
12    1  0.1252200E-010  0.1555381E+04  0.7818608E-02  0.8848438E-01
         -2   -1    0    0    0  501 -0.00000000000E+00  0.00000000000E+00  0.37671749705E+03  0.37671749705E+03  0.00000000000E+00 0.  1.
          2   -1    0    0  501    0  0.00000000000E+00 -0.00000000000E+00 -0.16054539250E+04  0.16054539250E+04  0.00000000000E+00 0. -1.
    9900016    2    1    2    0    0  0.19145117129E+02  0.30714651933E+03 -0.14251775729E+04  0.16170760328E+04  0.69935560481E+03 0.  0.
         23    2    3    3    0    0  0.72562314919E+01 -0.67801721207E+02 -0.34452601793E+03  0.36392670115E+03  0.95366348806E+02 0.  0.
         23    2    3    3    0    0  0.13311614050E+03  0.19006891071E+03 -0.32902673769E+03  0.41357871450E+03  0.94565645402E+02 0.  0.
        -15    1    4    4    0    0  0.33749538661E+02 -0.73726768087E+01 -0.42457897811E+02  0.54736284215E+02  0.00000000000E+00 0.  1.
        -15    1    5    5    0    0  0.25981313957E+02  0.14465028823E+02 -0.10635114822E+03  0.11043021534E+03  0.00000000000E+00 0.  1.
         15    1    4    4    0    0 -0.26493307169E+02 -0.60429044398E+02 -0.30206812012E+03  0.30919041693E+03  0.00000000000E+00 0. -1.
         15    1    5    5    0    0  0.10713482655E+03  0.17560388189E+03 -0.22267558947E+03  0.30314849916E+03  0.00000000000E+00 0. -1.
        -16    1    1    2    0    0 -0.19145117129E+02 -0.30714651933E+03  0.19644114487E+03  0.36509538924E+03  0.00000000000E+00 0.  1.
         16    1    3    3    0    0  0.93881909806E+01  0.38017653918E+01  0.24673863389E+02  0.26671915651E+02  0.00000000000E+00 0. -1.
    9900018    1    3    3    0    0 -0.13061544585E+03  0.18107756443E+03 -0.77629868063E+03  0.81289870155E+03  0.91187600000E+02 0.  0.
<mgrwt>
<rscale>  0 0.15553811E+04</rscale>
<asrwt>0</asrwt>
<pdfrwt beam="1">  1        2 0.24699291E+00 0.15553811E+04</pdfrwt>
<pdfrwt beam="2">  1       -2 0.57956539E-01 0.15553811E+04</pdfrwt>
<totfact> 0.29684580E+01</totfact>
</mgrwt>
</event>
<event>
12    1  0.1252200E-010  0.8361378E+03  0.7818608E-02  0.9509134E-01
          1   -1    0    0  501    0  0.00000000000E+00  0.00000000000E+00  0.75586068857E+03  0.75586068857E+03  0.00000000000E+00 0.  1.
         -1   -1    0    0    0  501 -0.00000000000E+00 -0.00000000000E+00 -0.23123521474E+03  0.23123521474E+03  0.00000000000E+00 0. -1.
    9900016    2    1    2    0    0  0.51544400920E+02  0.98707458574E+02  0.49555681314E+03  0.87200908964E+03  0.70881824873E+03 0.  0.
         23    2    3    3    0    0  0.32440705548E+02  0.13319412847E+03  0.87430934396E+02  0.18552055162E+03  0.89334380547E+02 0.  0.
         23    2    3    3    0    0  0.55190004804E+02  0.67893129217E+02  0.28162857603E+03  0.30870646223E+03  0.91266704574E+02 0.  0.
        -15    1    4    4    0    0  0.53493389972E+02  0.37785674689E+02  0.28540403451E+02  0.71441266866E+02  0.00000000000E+00 0.  1.
        -15    1    5    5    0    0  0.40686619708E+01  0.26438125008E+02  0.89650541086E+01  0.28211711386E+02  0.00000000000E+00 0. -1.
         15    1    5    5    0    0  0.51121342833E+02  0.41455004208E+02  0.27266352192E+03  0.28049475085E+03  0.00000000000E+00 0.  1.
         15    1    4    4    0    0 -0.21052684423E+02  0.95408453779E+02  0.58890530946E+02  0.11407928475E+03  0.00000000000E+00 0. -1.
        -16    1    3    3    0    0 -0.84016172946E+02 -0.17127843216E+03  0.16045512017E+03  0.24928069365E+03  0.00000000000E+00 0.  1.
         16    1    1    2    0    0 -0.51544400920E+02 -0.98707458574E+02  0.29068660695E+02  0.11508681366E+03  0.00000000000E+00 0. -1.
    9900018    1    3    3    0    0  0.47929863513E+02  0.68898633045E+02 -0.33957817461E+02  0.12850138214E+03  0.91187600000E+02 0.  0.
<mgrwt>
<rscale>  0 0.83613781E+03</rscale>
<asrwt>0</asrwt>
<pdfrwt beam="1">  1        1 0.11628626E+00 0.83613781E+03</pdfrwt>
<pdfrwt beam="2">  1       -1 0.35574649E-01 0.83613781E+03</pdfrwt>
<totfact> 0.18397359E+02</totfact>
</mgrwt>
</event>
<event>
12    1  0.1252200E-010  0.8568390E+03  0.7818608E-02  0.9481204E-01
          2   -1    0    0  501    0  0.00000000000E+00  0.00000000000E+00  0.10151281552E+04  0.10151281552E+04  0.00000000000E+00 0. -1.
         -2   -1    0    0    0  501 -0.00000000000E+00 -0.00000000000E+00 -0.18080796075E+03  0.18080796075E+03  0.00000000000E+00 0.  1.
    9900016    2    1    2    0    0 -0.33710547716E+02 -0.51944963991E+02  0.87075299908E+03  0.11240888504E+04  0.70818802432E+03 0.  0.
         23    2    3    3    0    0 -0.10666895699E+03 -0.57138940001E+02  0.33806767183E+02  0.15553938004E+03  0.91686838688E+02 0.  0.
         23    2    3    3    0    0  0.69026019342E+02 -0.10578613300E+03  0.15634290571E+03  0.22061744684E+03  0.90959641625E+02 0.  0.
        -15    1    5    5    0    0  0.52663349321E+02 -0.11321729150E+02  0.28866983196E+02  0.61113931566E+02  0.00000000000E+00 0.  1.
        -15    1    4    4    0    0  0.23779774836E+01  0.10341044304E+02 -0.14961263519E+02  0.18342065868E+02  0.00000000000E+00 0. -1.
         15    1    5    5    0    0  0.16362670021E+02 -0.94464403854E+02  0.12747592251E+03  0.15950351528E+03  0.00000000000E+00 0. -1.
         15    1    4    4    0    0 -0.10904693447E+03 -0.67479984305E+02  0.48768030701E+02  0.13719731418E+03  0.00000000000E+00 0.  1.
        -16    1    1    2    0    0  0.33710547716E+02  0.51944963991E+02 -0.36432804664E+02  0.71847265550E+02  0.00000000000E+00 0.  1.
         16    1    3    3    0    0 -0.54459266684E+02  0.13351769972E+03  0.15864898432E+03  0.21438817153E+03  0.00000000000E+00 0. -1.
    9900018    1    3    3    0    0  0.58391656611E+02 -0.22537590707E+02  0.52195434187E+03  0.53354385194E+03  0.91187600000E+02 0.  0.
<mgrwt>
<rscale>  0 0.85683896E+03</rscale>
<asrwt>0</asrwt>
<pdfrwt beam="1">  1        2 0.15617356E+00 0.85683896E+03</pdfrwt>
<pdfrwt beam="2">  1       -2 0.27816610E-01 0.85683896E+03</pdfrwt>
<totfact> 0.29135134E+02</totfact>
</mgrwt>
</event>
<event>
12    1  0.1252200E-010  0.1306802E+04  0.7818608E-02  0.9024189E-01
         -2   -1    0    0    0  501 -0.00000000000E+00  0.00000000000E+00  0.36166005485E+03  0.36166005485E+03  0.00000000000E+00 0.  1.
          2   -1    0    0  501    0  0.00000000000E+00 -0.00000000000E+00 -0.11804805493E+04  0.11804805493E+04  0.00000000000E+00 0. -1.
    9900016    2    1    2    0    0  0.39094719664E+03  0.10379393022E+03 -0.28140578151E+03  0.86951331939E+03  0.71641559741E+03 0.  0.
         23    2    3    3    0    0  0.27637055569E+03  0.14588241970E+03 -0.34352656689E+03  0.47346351619E+03  0.92167426821E+02 0.  0.
         23    2    3    3    0    0 -0.68627867020E+01 -0.54795724696E+02  0.46407980969E+02  0.11536088345E+03  0.90026459707E+02 0.  0.
        -15    1    5    5    0    0  0.39555220086E+02 -0.40044217596E+02  0.18622233885E+02  0.59286949608E+02  0.00000000000E+00 0. -1.
        -15    1    4    4    0    0  0.15140230808E+03  0.10342013860E+03 -0.25678403647E+03  0.31552563342E+03  0.00000000000E+00 0. -1.
         15    1    5    5    0    0 -0.46418006788E+02 -0.14751507100E+02  0.27785747084E+02  0.56073933846E+02  0.00000000000E+00 0.  1.
         15    1    4    4    0    0  0.12496824762E+03  0.42462281099E+02 -0.86742530422E+02  0.15793788277E+03  0.00000000000E+00 0.  1.
        -16    1    3    3    0    0 -0.35332768311E+01  0.46196945422E+02 -0.82348451984E+02  0.94487614827E+02  0.00000000000E+00 0.  1.
         16    1    1    2    0    0 -0.39094719664E+03 -0.10379393022E+03 -0.53741471290E+03  0.67262728472E+03  0.00000000000E+00 0. -1.
    9900018    1    3    3    0    0  0.12497270448E+03 -0.33489710203E+02  0.98061256395E+02  0.18620130492E+03  0.91187600000E+02 0.  0.
<mgrwt>
<rscale>  0 0.13068017E+04</rscale>
<asrwt>0</asrwt>
<pdfrwt beam="1">  1        2 0.18161239E+00 0.13068017E+04</pdfrwt>
<pdfrwt beam="2">  1       -2 0.55640009E-01 0.13068017E+04</pdfrwt>
<totfact> 0.57852681E+01</totfact>
</mgrwt>
</event>
<event>
12    1  0.1252200E-010  0.1111032E+04  0.7818608E-02  0.9194506E-01
         -2   -1    0    0    0  501 -0.00000000000E+00  0.00000000000E+00  0.12617068876E+04  0.12617068876E+04  0.00000000000E+00 0.  1.
          2   -1    0    0  501    0  0.00000000000E+00 -0.00000000000E+00 -0.24458752454E+03  0.24458752454E+03  0.00000000000E+00 0. -1.
    9900016    2    1    2    0    0  0.30339441547E+03 -0.10957817181E+03  0.77537369433E+03  0.11031858468E+04  0.71537339881E+03 0.  0.
         23    2    3    3    0    0  0.33495091151E+02  0.48800041189E+02  0.20870761383E+03  0.23568131942E+03  0.92105651854E+02 0.  0.
         23    2    3    3    0    0 -0.11250941399E+03 -0.26064231123E+02  0.36773235838E+03  0.39614272209E+03  0.91456309160E+02 0.  0.
        -15    1    4    4    0    0 -0.20727623001E+02  0.17647927866E+02  0.14063355027E+03  0.14324412440E+03  0.00000000000E+00 0.  1.
        -15    1    5    5    0    0 -0.11317350689E+03 -0.48453405354E+02  0.28544816781E+03  0.31086432999E+03  0.00000000000E+00 0.  1.
         15    1    5    5    0    0  0.66409289863E+00  0.22389174231E+02  0.82284190564E+02  0.85278392098E+02  0.00000000000E+00 0. -1.
         15    1    4    4    0    0  0.54222714152E+02  0.31152113324E+02  0.68074063560E+02  0.92437195025E+02  0.00000000000E+00 0. -1.
        -16    1    1    2    0    0 -0.30339441547E+03  0.10957817181E+03  0.24174566875E+03  0.40310856532E+03  0.00000000000E+00 0.  1.
         16    1    3    3    0    0  0.80179662339E+02 -0.27232461206E+01  0.87697781239E+01  0.80703799976E+02  0.00000000000E+00 0. -1.
    9900018    1    3    3    0    0  0.30222907597E+03 -0.12959073576E+03  0.19016394400E+03  0.39065800535E+03  0.91187600000E+02 0.  0.
<mgrwt>
<rscale>  0 0.11110315E+04</rscale>
<asrwt>0</asrwt>
<pdfrwt beam="1">  1        2 0.37628851E-01 0.11110315E+04</pdfrwt>
<pdfrwt beam="2">  1       -2 0.19410875E+00 0.11110315E+04</pdfrwt>
<totfact> 0.19904482E+01</totfact>
</mgrwt>
</event>
<event>
12    1  0.1252200E-010  0.8448724E+03  0.7818608E-02  0.9497245E-01
          1   -1    0    0  501    0  0.00000000000E+00  0.00000000000E+00  0.41465379170E+03  0.41465379170E+03  0.00000000000E+00 0. -1.
         -1   -1    0    0    0  501 -0.00000000000E+00 -0.00000000000E+00 -0.43036466692E+03  0.43036466692E+03  0.00000000000E+00 0.  1.
    9900016    2    1    2    0    0  0.22639535215E+02  0.89732187897E+02 -0.11790743507E+02  0.75239134849E+03  0.74658509599E+03 0.  0.
         23    2    3    3    0    0 -0.71252525049E+02 -0.43370988303E+01 -0.75309867004E+02  0.13819591767E+03  0.91273231785E+02 0.  0.
         23    2    3    3    0    0 -0.67115742717E+02  0.16400589695E+03 -0.93852082777E+02  0.22190758375E+03  0.95038440264E+02 0.  0.
        -15    1    5    5    0    0 -0.43193137365E+02  0.14919119390E+03 -0.10919219554E+03  0.18985940856E+03  0.00000000000E+00 0.  1.
        -15    1    4    4    0    0 -0.88214158527E+01 -0.12231011348E+02 -0.73721077594E+02  0.75247673039E+02  0.00000000000E+00 0. -1.
         15    1    4    4    0    0 -0.62431109196E+02  0.78939125176E+01 -0.15887894097E+01  0.62948244631E+02  0.00000000000E+00 0.  1.
         15    1    5    5    0    0 -0.23922605352E+02  0.14814703049E+02  0.15340112759E+02  0.32048175185E+02  0.00000000000E+00 0. -1.
        -16    1    1    2    0    0 -0.22639535215E+02 -0.89732187897E+02 -0.39201317150E+01  0.92627110136E+02  0.00000000000E+00 0.  1.
         16    1    3    3    0    0  0.10778107877E+03 -0.29468735507E+02 -0.74512829404E+02  0.13430312378E+03  0.00000000000E+00 0. -1.
    9900018    1    3    3    0    0  0.53226724213E+02 -0.40467874716E+02  0.23188403568E+03  0.25798472329E+03  0.91187600000E+02 0.  0.
<mgrwt>
<rscale>  0 0.84487239E+03</rscale>
<asrwt>0</asrwt>
<pdfrwt beam="1">  1        1 0.63792891E-01 0.84487239E+03</pdfrwt>
<pdfrwt beam="2">  1       -1 0.66209948E-01 0.84487239E+03</pdfrwt>
<totfact> 0.13359247E+02</totfact>
</mgrwt>
</event>
<event>
12    1  0.1252200E-010  0.1334929E+04  0.7818608E-02  0.9002316E-01
          2   -1    0    0  501    0  0.00000000000E+00  0.00000000000E+00  0.15124603827E+04  0.15124603827E+04  0.00000000000E+00 0. -1.
         -2   -1    0    0    0  501 -0.00000000000E+00 -0.00000000000E+00 -0.29455909233E+03  0.29455909233E+03  0.00000000000E+00 0.  1.
    9900016    2    1    2    0    0 -0.93469577618E+02 -0.47186501180E+03  0.66145555788E+03  0.10714754556E+04  0.69220159320E+03 0.  0.
         23    2    3    3    0    0 -0.48358802560E+02 -0.23221128651E+02  0.37395819574E+02  0.11235057807E+03  0.91358691267E+02 0.  0.
         23    2    3    3    0    0 -0.21064539865E+02 -0.13005885324E+03  0.28180624339E+03  0.32430559388E+03  0.91653364721E+02 0.  0.
        -15    1    5    5    0    0 -0.33613800844E+02 -0.10903109279E+02  0.10449290807E+03  0.11030654213E+03  0.00000000000E+00 0.  1.
        -15    1    4    4    0    0 -0.62569462238E+02 -0.46205625937E+02  0.20344133399E+02  0.80397644473E+02  0.00000000000E+00 0. -1.
         15    1    4    4    0    0  0.14210659679E+02  0.22984497286E+02  0.17051686175E+02  0.31952933596E+02  0.00000000000E+00 0.  1.
         15    1    5    5    0    0  0.12549260979E+02 -0.11915574396E+03  0.17731333532E+03  0.21399905176E+03  0.00000000000E+00 0. -1.
        -16    1    3    3    0    0  0.12665777371E+03  0.41537171813E+02  0.97065478745E+02  0.16489158695E+03  0.00000000000E+00 0.  1.
         16    1    1    2    0    0  0.93469577618E+02  0.47186501180E+03  0.55644573247E+03  0.73554401941E+03  0.00000000000E+00 0. -1.
    9900018    1    3    3    0    0 -0.15070400890E+03 -0.36012220172E+03  0.24518801618E+03  0.46992769671E+03  0.91187600000E+02 0.  0.
<mgrwt>
<rscale>  0 0.13349291E+04</rscale>
<asrwt>0</asrwt>
<pdfrwt beam="1">  1        2 0.23268621E+00 0.13349291E+04</pdfrwt>
<pdfrwt beam="2">  1       -2 0.45316785E-01 0.13349291E+04</pdfrwt>
<totfact> 0.56377636E+01</totfact>
</mgrwt>
</event>
<event>
12    1  0.1252200E-010  0.1133052E+04  0.7818608E-02  0.9173562E-01
          2   -1    0    0  501    0  0.00000000000E+00  0.00000000000E+00  0.16012771338E+04  0.16012771338E+04  0.00000000000E+00 0. -1.
         -2   -1    0    0    0  501 -0.00000000000E+00 -0.00000000000E+00 -0.20043493491E+03  0.20043493491E+03  0.00000000000E+00 0.  1.
    9900016    2    1    2    0    0 -0.21942124538E+03 -0.24570376561E+03  0.81409504008E+03  0.11288166446E+04  0.70919691170E+03 0.  0.
         23    2    3    3    0    0 -0.82643008775E+02 -0.12254354528E+03 -0.50482952020E+02  0.17805606530E+03  0.85490622610E+02 0.  0.
         23    2    3    3    0    0 -0.19220462625E+03 -0.40103005172E+02  0.35617802964E+03  0.41728516690E+03  0.93344803490E+02 0.  0.
        -15    1    5    5    0    0 -0.43069039316E+02 -0.25213420180E+02  0.29767846347E+02  0.58110097065E+02  0.00000000000E+00 0. -1.
        -15    1    4    4    0    0 -0.87301306345E+02 -0.82441544554E+02 -0.93781375267E+01  0.12044117162E+03  0.00000000000E+00 0.  1.
         15    1    5    5    0    0 -0.14913558694E+03 -0.14889584991E+02  0.32641018330E+03  0.35917506984E+03  0.00000000000E+00 0.  1.
         15    1    4    4    0    0  0.46582975702E+01 -0.40102000727E+02 -0.41104814493E+02  0.57614893674E+02  0.00000000000E+00 0. -1.
        -16    1    1    2    0    0  0.21942124538E+03  0.24570376561E+03  0.58674715882E+03  0.67289542407E+03  0.00000000000E+00 0.  1.
         16    1    3    3    0    0  0.29357120057E+02 -0.24170028819E+02  0.23670033894E+03  0.23973544011E+03  0.00000000000E+00 0. -1.
    9900018    1    3    3    0    0  0.26069269590E+02 -0.58887186336E+02  0.27169962352E+03  0.29373997233E+03  0.91187600000E+02 0.  0.
<mgrwt>
<rscale>  0 0.11330523E+04</rscale>
<asrwt>0</asrwt>
<pdfrwt beam="1">  1        2 0.24635032E+00 0.11330523E+04</pdfrwt>
<pdfrwt beam="2">  1       -2 0.30836145E-01 0.11330523E+04</pdfrwt>
<totfact> 0.10740517E+02</totfact>
</mgrwt>
</event>
<event>
12    1  0.1252200E-010  0.1288680E+04  0.7818608E-02  0.9038591E-01
         -1   -1    0    0    0  501 -0.00000000000E+00  0.00000000000E+00  0.99778913971E+03  0.99778913971E+03  0.00000000000E+00 0.  1.
          1   -1    0    0  501    0  0.00000000000E+00 -0.00000000000E+00 -0.41609382401E+03  0.41609382401E+03  0.00000000000E+00 0. -1.
    9900016    2    1    2    0    0 -0.15622798668E+03 -0.65801756726E+02 -0.80461647147E+02  0.73037078500E+03  0.70585434185E+03 0.  0.
         23    2    3    3    0    0  0.11156669351E+03  0.18846074664E+03  0.73316731839E+02  0.24897913172E+03  0.93009057302E+02 0.  0.
         23    2    3    3    0    0 -0.14608430085E+03 -0.19497799825E+03 -0.11806894723E+03  0.28546667964E+03  0.90520197331E+02 0.  0.
        -15    1    5    5    0    0 -0.13423733999E+03 -0.10851815415E+03 -0.76617802810E+02  0.18885481443E+03  0.00000000000E+00 0. -1.
        -15    1    4    4    0    0  0.53600204240E+02  0.19064085574E+02  0.41411774129E+01  0.57040078924E+02  0.00000000000E+00 0.  1.
         15    1    4    4    0    0  0.57966489269E+02  0.16939666106E+03  0.69175554426E+02  0.19193905279E+03  0.00000000000E+00 0. -1.
         15    1    5    5    0    0 -0.11846960863E+02 -0.86459844105E+02 -0.41451144418E+02  0.96611865203E+02  0.00000000000E+00 0.  1.
        -16    1    1    2    0    0  0.15622798668E+03  0.65801756726E+02  0.66215696285E+03  0.68351217872E+03  0.00000000000E+00 0.  1.
         16    1    3    3    0    0 -0.24881651616E+02  0.22856453747E+02  0.55637778401E+01  0.34241344730E+02  0.00000000000E+00 0. -1.
    9900018    1    3    3    0    0 -0.96828727720E+02 -0.82140958859E+02 -0.41273209598E+02  0.16168362891E+03  0.91187600000E+02 0.  0.
<mgrwt>
<rscale>  0 0.12886798E+04</rscale>
<asrwt>0</asrwt>
<pdfrwt beam="1">  1        1 0.64014435E-01 0.12886798E+04</pdfrwt>
<pdfrwt beam="2">  1       -1 0.15350602E+00 0.12886798E+04</pdfrwt>
<totfact> 0.18339746E+01</totfact>
</mgrwt>
</event>
<event>
12    1  0.1252200E-010  0.1241274E+04  0.7818608E-02  0.9077478E-01
         -1   -1    0    0    0  501 -0.00000000000E+00  0.00000000000E+00  0.10239270876E+04  0.10239270876E+04  0.00000000000E+00 0.  1.
          1   -1    0    0  501    0  0.00000000000E+00 -0.00000000000E+00 -0.37618896107E+03  0.37618896107E+03  0.00000000000E+00 0. -1.
    9900016    2    1    2    0    0  0.28210531613E+03  0.28551088787E+03  0.51437566537E+03  0.97716756180E+03  0.72744363509E+03 0.  0.
         23    2    3    3    0    0 -0.10762506828E+03 -0.23135697377E+02  0.12418419671E+03  0.18959740668E+03  0.91689945416E+02 0.  0.
         23    2    3    3    0    0 -0.17687326729E+02 -0.11321751957E+02  0.51285998129E+02  0.10682127978E+03  0.91320910071E+02 0.  0.
        -15    1    4    4    0    0 -0.11353133462E+03  0.17313794752E+01  0.11702265796E+03  0.16305417533E+03  0.00000000000E+00 0.  1.
        -15    1    5    5    0    0  0.24918552912E+02  0.17347361561E+02  0.46108568404E+02  0.55207475152E+02  0.00000000000E+00 0.  1.
         15    1    5    5    0    0 -0.42605879641E+02 -0.28669113519E+02  0.51774297248E+01  0.51613804631E+02  0.00000000000E+00 0. -1.
         15    1    4    4    0    0  0.59062663385E+01 -0.24867076852E+02  0.71615387494E+01  0.26543231349E+02  0.00000000000E+00 0. -1.
        -16    1    1    2    0    0 -0.28210531613E+03 -0.28551088787E+03  0.13336246114E+03  0.42294848684E+03  0.00000000000E+00 0.  1.
         16    1    3    3    0    0  0.12749601392E+03  0.23413311162E+03  0.77061560424E+02  0.27751041713E+03  0.00000000000E+00 0. -1.
    9900018    1    3    3    0    0  0.27992169722E+03  0.85835225583E+02  0.26184391010E+03  0.40323845821E+03  0.91187600000E+02 0.  0.
<mgrwt>
<rscale>  0 0.12412736E+04</rscale>
<asrwt>0</asrwt>
<pdfrwt beam="1">  1        1 0.57875225E-01 0.12412736E+04</pdfrwt>
<pdfrwt beam="2">  1       -1 0.15752724E+00 0.12412736E+04</pdfrwt>
<totfact> 0.19605734E+01</totfact>
</mgrwt>
</event>
<event>
12    1  0.1252200E-010  0.9482239E+03  0.7818608E-02  0.9367229E-01
          1   -1    0    0  501    0  0.00000000000E+00  0.00000000000E+00  0.11396127677E+04  0.11396127677E+04  0.00000000000E+00 0. -1.
         -1   -1    0    0    0  501 -0.00000000000E+00 -0.00000000000E+00 -0.19724432825E+03  0.19724432825E+03  0.00000000000E+00 0.  1.
    9900016    2    1    2    0    0  0.58623049435E+02  0.16978803319E+03  0.59958972296E+03  0.94986628647E+03  0.71447427397E+03 0.  0.
         23    2    3    3    0    0 -0.16328111373E+03 -0.82257298694E+02  0.19728547495E+03  0.28363679220E+03  0.90007143997E+02 0.  0.
         23    2    3    3    0    0  0.16981846850E+02  0.78342075542E+02  0.24924176815E+03  0.28048749860E+03  0.10062760038E+03 0.  0.
        -15    1    5    5    0    0  0.40296950878E+02 -0.58988557634E+01  0.67853270232E+02  0.79137267014E+02  0.00000000000E+00 0.  1.
        -15    1    4    4    0    0 -0.14504000819E+03 -0.29781693316E+02  0.14844303608E+03  0.20966375031E+03  0.00000000000E+00 0.  1.
         15    1    5    5    0    0 -0.23315104027E+02  0.84240931306E+02  0.18138849792E+03  0.20135023159E+03  0.00000000000E+00 0. -1.
         15    1    4    4    0    0 -0.18241105539E+02 -0.52475605378E+02  0.48842438876E+02  0.73973041890E+02  0.00000000000E+00 0. -1.
        -16    1    3    3    0    0  0.18567837185E+03  0.92696018206E+02  0.16002705845E+03  0.26206424595E+03  0.00000000000E+00 0.  1.
         16    1    1    2    0    0 -0.58623049435E+02 -0.16978803319E+03  0.34277871650E+03  0.38699080948E+03  0.00000000000E+00 0. -1.
    9900018    1    3    3    0    0  0.19243944460E+02  0.81007238138E+02 -0.69645786029E+01  0.12367774973E+03  0.91187600000E+02 0.  0.
<mgrwt>
<rscale>  0 0.94822393E+03</rscale>
<asrwt>0</asrwt>
<pdfrwt beam="1">  1        1 0.17532504E+00 0.94822393E+03</pdfrwt>
<pdfrwt beam="2">  1       -1 0.30345282E-01 0.94822393E+03</pdfrwt>
<totfact> 0.11890694E+02</totfact>
</mgrwt>
</event>
<event>
12    1  0.1252200E-010  0.1582187E+04  0.7818608E-02  0.8831566E-01
          1   -1    0    0  501    0  0.00000000000E+00  0.00000000000E+00  0.86019322369E+03  0.86019322369E+03  0.00000000000E+00 0. -1.
         -1   -1    0    0    0  501 -0.00000000000E+00 -0.00000000000E+00 -0.72754468289E+03  0.72754468289E+03  0.00000000000E+00 0.  1.
    9900016    2    1    2    0    0 -0.17837142614E+03  0.18662985681E+03 -0.49716963706E+03  0.90706323666E+03  0.71339960624E+03 0.  0.
         23    2    3    3    0    0  0.42804896563E+02 -0.33110429734E+02 -0.35984930571E+02  0.11556386620E+03  0.95559050934E+02 0.  0.
         23    2    3    3    0    0  0.14529970592E+03  0.16092301328E+01 -0.63655574420E+02  0.18321638809E+03  0.91660343379E+02 0.  0.
        -15    1    4    4    0    0 -0.37867185900E+01 -0.56729921694E+02 -0.12118344260E+02  0.58133273783E+02  0.00000000000E+00 0. -1.
        -15    1    5    5    0    0  0.36438651948E+02  0.31531581118E+02  0.89156371806E+01  0.49005148198E+02  0.00000000000E+00 0. -1.
         15    1    4    4    0    0  0.46591615153E+02  0.23619491960E+02 -0.23866586312E+02  0.57430592415E+02  0.00000000000E+00 0.  1.
         15    1    5    5    0    0  0.10886105397E+03 -0.29922350985E+02 -0.72571211600E+02  0.13421123989E+03  0.00000000000E+00 0.  1.
        -16    1    3    3    0    0 -0.57812841023E+02  0.10187331387E+02 -0.12491141782E+03  0.13801800103E+03  0.00000000000E+00 0.  1.
         16    1    1    2    0    0  0.17837142614E+03 -0.18662985681E+03  0.62981817785E+03  0.68067466992E+03  0.00000000000E+00 0. -1.
    9900018    1    3    3    0    0 -0.30866318760E+03  0.20794372502E+03 -0.27261771425E+03  0.47026498134E+03  0.91187600000E+02 0.  0.
<mgrwt>
<rscale>  0 0.15821871E+04</rscale>
<asrwt>0</asrwt>
<pdfrwt beam="1">  1        1 0.13233742E+00 0.15821871E+04</pdfrwt>
<pdfrwt beam="2">  1       -1 0.11192995E+00 0.15821871E+04</pdfrwt>
<totfact> 0.13821413E+01</totfact>
</mgrwt>
</event>
<event>
12    1  0.1252200E-010  0.9652836E+03  0.7818608E-02  0.9347463E-01
          3   -1    0    0  501    0  0.00000000000E+00  0.00000000000E+00  0.71095494925E+02  0.71095494925E+02  0.00000000000E+00 0. -1.
         -3   -1    0    0    0  501 -0.00000000000E+00 -0.00000000000E+00 -0.32764817449E+04  0.32764817449E+04  0.00000000000E+00 0.  1.
    9900016    2    1    2    0    0 -0.69460594953E+02  0.11262273394E+03 -0.30787116345E+04  0.31643966932E+04  0.71932777588E+03 0.  0.
         23    2    3    3    0    0  0.57930493788E+02  0.50849030873E+02 -0.16020346076E+03  0.20320461504E+03  0.98414433297E+02 0.  0.
         23    2    3    3    0    0 -0.29760606930E+02  0.10444137537E+03 -0.32077240771E+03  0.35029624192E+03  0.89547891867E+02 0.  0.
        -15    1    4    4    0    0  0.83615462754E+02  0.52879969441E+02 -0.13266094629E+03  0.16548946628E+03  0.00000000000E+00 0. -1.
        -15    1    5    5    0    0 -0.29863893828E+02 -0.19520860750E+01 -0.11262790540E+03  0.11653629422E+03  0.00000000000E+00 0. -1.
         15    1    4    4    0    0 -0.25684968966E+02 -0.20309385675E+01 -0.27542514470E+02  0.37715148754E+02  0.00000000000E+00 0.  1.
         15    1    5    5    0    0  0.10328689805E+00  0.10639346145E+03 -0.20814450231E+03  0.23375994770E+03  0.00000000000E+00 0.  1.
        -16    1    3    3    0    0 -0.98758221707E+02  0.54296705369E+02 -0.16518187489E+04  0.16556589316E+04  0.00000000000E+00 0.  1.
         16    1    1    2    0    0  0.69460594953E+02 -0.11262273394E+03 -0.12667461547E+03  0.18318054661E+03  0.00000000000E+00 0. -1.
    9900018    1    3    3    0    0  0.11277398958E+01 -0.96964377675E+02 -0.94591701708E+03  0.95523690461E+03  0.91187600000E+02 0.  0.
<mgrwt>
<rscale>  0 0.96528357E+03</rscale>
<asrwt>0</asrwt>
<pdfrwt beam="1">  1        3 0.10937771E-01 0.96528357E+03</pdfrwt>
<pdfrwt beam="2">  1       -3 0.50407399E+00 0.96528357E+03</pdfrwt>
<totfact> 0.52247045E-01</totfact>
</mgrwt>
</event>
<event>
12    1  0.1252200E-010  0.7546177E+03  0.7818608E-02  0.9628134E-01
          1   -1    0    0  501    0  0.00000000000E+00  0.00000000000E+00  0.24290992306E+03  0.24290992306E+03  0.00000000000E+00 0. -1.
         -1   -1    0    0    0  501 -0.00000000000E+00 -0.00000000000E+00 -0.58606892546E+03  0.58606892546E+03  0.00000000000E+00 0.  1.
    9900016    2    1    2    0    0 -0.64790440512E+02 -0.39947298706E+02 -0.29064958559E+03  0.73650816825E+03  0.67243848227E+03 0.  0.
         23    2    3    3    0    0  0.63666385180E+02 -0.82473837901E+02  0.19212412726E+02  0.14200973737E+03  0.94563767724E+02 0.  0.
         23    2    3    3    0    0 -0.13508096488E+03 -0.34533586224E+02  0.10574494643E+02  0.16711389333E+03  0.91519384592E+02 0.  0.
        -15    1    4    4    0    0 -0.84839158356E+01  0.11757836200E+02  0.18270563934E+02  0.23324601743E+02  0.00000000000E+00 0.  1.
        -15    1    5    5    0    0 -0.60058957472E+02 -0.61837231703E+02 -0.23695203490E+01  0.86235353678E+02  0.00000000000E+00 0.  1.
         15    1    5    5    0    0 -0.75022007406E+02  0.27303645479E+02  0.12944014992E+02  0.80878539650E+02  0.00000000000E+00 0. -1.
         15    1    4    4    0    0  0.72150301015E+02 -0.94231674101E+02  0.94184879180E+00  0.11868513563E+03  0.00000000000E+00 0. -1.
        -16    1    3    3    0    0 -0.24195905821E+02 -0.33433490292E+02 -0.26889679101E+03  0.27204544537E+03  0.00000000000E+00 0.  1.
         16    1    1    2    0    0  0.64790440512E+02  0.39947298706E+02 -0.52509416804E+02  0.92470680265E+02  0.00000000000E+00 0. -1.
    9900018    1    3    3    0    0  0.30820045008E+02  0.11049361571E+03 -0.51539701950E+02  0.15533909218E+03  0.91187600000E+02 0.  0.
<mgrwt>
<rscale>  0 0.75461767E+03</rscale>
<asrwt>0</asrwt>
<pdfrwt beam="1">  1        1 0.37370758E-01 0.75461767E+03</pdfrwt>
<pdfrwt beam="2">  1       -1 0.90164448E-01 0.75461767E+03</pdfrwt>
<totfact> 0.14085174E+02</totfact>
</mgrwt>
</event>
<event>
12    1  0.1252200E-010  0.1052377E+04  0.7818608E-02  0.9252893E-01
          2   -1    0    0  501    0  0.00000000000E+00  0.00000000000E+00  0.76786914250E+03  0.76786914250E+03  0.00000000000E+00 0. -1.
         -2   -1    0    0    0  501 -0.00000000000E+00 -0.00000000000E+00 -0.36057508284E+03  0.36057508284E+03  0.00000000000E+00 0.  1.
    9900016    2    1    2    0    0  0.50529923594E+02  0.66671991475E+02  0.59230783424E+03  0.92539614136E+03  0.70606729164E+03 0.  0.
         23    2    3    3    0    0  0.12449573384E+03 -0.11297669974E+03  0.16610202629E+03  0.25384104060E+03  0.92641612290E+02 0.  0.
         23    2    3    3    0    0  0.10046158176E+01  0.19068963704E+03  0.61358262012E+02  0.22036736815E+03  0.91833510783E+02 0.  0.
        -15    1    4    4    0    0  0.49864689877E+02 -0.23903243603E+01  0.14692344055E+02  0.52039080708E+02  0.00000000000E+00 0.  1.
        -15    1    5    5    0    0 -0.15125191086E+02 -0.30330332778E+01 -0.27635068765E+01  0.15671875016E+02  0.00000000000E+00 0. -1.
         15    1    5    5    0    0  0.16129806904E+02  0.19372267032E+03  0.64121768888E+02  0.20469549314E+03  0.00000000000E+00 0. -1.
         15    1    4    4    0    0  0.74631043962E+02 -0.11058637538E+03  0.15140968223E+03  0.20180195989E+03  0.00000000000E+00 0.  1.
        -16    1    1    2    0    0 -0.50529923594E+02 -0.66671991475E+02 -0.18501377458E+03  0.20304808399E+03  0.00000000000E+00 0.  1.
         16    1    3    3    0    0  0.82413208583E+01 -0.52987474947E+02 -0.97903930823E+01  0.54510949977E+02  0.00000000000E+00 0. -1.
    9900018    1    3    3    0    0 -0.83211746921E+02  0.41946529125E+02  0.37463793902E+03  0.39667678263E+03  0.91187600000E+02 0.  0.
<mgrwt>
<rscale>  0 0.10523773E+04</rscale>
<asrwt>0</asrwt>
<pdfrwt beam="1">  1        2 0.11813371E+00 0.10523773E+04</pdfrwt>
<pdfrwt beam="2">  1       -2 0.55473090E-01 0.10523773E+04</pdfrwt>
<totfact> 0.11059659E+02</totfact>
</mgrwt>
</event>
<event>
12    1  0.1252200E-010  0.1214864E+04  0.7818608E-02  0.9099944E-01
         -2   -1    0    0    0  501 -0.00000000000E+00  0.00000000000E+00  0.26949069491E+03  0.26949069491E+03  0.00000000000E+00 0.  1.
          2   -1    0    0  501    0  0.00000000000E+00 -0.00000000000E+00 -0.13691522960E+04  0.13691522960E+04  0.00000000000E+00 0. -1.
    9900016    2    1    2    0    0  0.20810394410E+03  0.36303355245E+02 -0.11957874531E+04  0.14065538603E+04  0.70983163064E+03 0.  0.
         23    2    3    3    0    0  0.62895874785E+02  0.14117410149E+03 -0.16079084025E+03  0.23946961870E+03  0.87212304040E+02 0.  0.
         23    2    3    3    0    0  0.16102847359E+02  0.60191395542E+02 -0.94615486587E+02  0.14573603776E+03  0.91676587032E+02 0.  0.
        -15    1    5    5    0    0 -0.21004767442E+02  0.54470725598E+02 -0.90864888191E+02  0.10800318564E+03  0.00000000000E+00 0.  1.
        -15    1    4    4    0    0  0.61054395999E+02  0.92948391135E+02 -0.56904615887E+02  0.12492068682E+03  0.00000000000E+00 0.  1.
         15    1    5    5    0    0  0.37107614801E+02  0.57206699439E+01 -0.37505983962E+01  0.37732852121E+02  0.00000000000E+00 0. -1.
         15    1    4    4    0    0  0.18414787862E+01  0.48225710350E+02 -0.10388622436E+03  0.11454893188E+03  0.00000000000E+00 0. -1.
        -16    1    1    2    0    0 -0.20810394410E+03 -0.36303355245E+02  0.96125851939E+02  0.23208913064E+03  0.00000000000E+00 0.  1.
         16    1    3    3    0    0  0.10696129786E+03 -0.65722098110E+02 -0.77113470532E+02  0.14733160135E+03  0.00000000000E+00 0. -1.
    9900018    1    3    3    0    0  0.22143924094E+02 -0.99340043672E+02 -0.86326765571E+03  0.87401660250E+03  0.91187600000E+02 0.  0.
<mgrwt>
<rscale>  0 0.12148643E+04</rscale>
<asrwt>0</asrwt>
<pdfrwt beam="1">  1        2 0.21063881E+00 0.12148643E+04</pdfrwt>
<pdfrwt beam="2">  1       -2 0.41460108E-01 0.12148643E+04</pdfrwt>
<totfact> 0.81851794E+01</totfact>
</mgrwt>
</event>
<event>
12    1  0.1252200E-010  0.7895219E+03  0.7818608E-02  0.9575309E-01
          2   -1    0    0  501    0  0.00000000000E+00  0.00000000000E+00  0.16389332582E+04  0.16389332582E+04  0.00000000000E+00 0. -1.
         -2   -1    0    0    0  501 -0.00000000000E+00 -0.00000000000E+00 -0.95083914571E+02  0.95083914571E+02  0.00000000000E+00 0.  1.
    9900016    2    1    2    0    0 -0.47793346218E+02  0.82074152157E+01  0.13338404538E+04  0.15184822582E+04  0.72409008180E+03 0.  0.
         23    2    3    3    0    0 -0.23373325025E+03  0.55383875006E+02  0.20322555861E+03  0.32823051699E+03  0.93466778731E+02 0.  0.
         23    2    3    3    0    0  0.12665268728E+03 -0.10252026311E+03  0.64694059805E+03  0.67346660119E+03  0.92053343096E+02 0.  0.
        -15    1    5    5    0    0  0.12410706930E+03 -0.49181366246E+02  0.44588175518E+03  0.46543733310E+03  0.00000000000E+00 0.  1.
        -15    1    4    4    0    0 -0.80347698764E+02 -0.86753467603E+01  0.25169617780E+02  0.84643511253E+02  0.00000000000E+00 0.  1.
         15    1    5    5    0    0  0.25456179797E+01 -0.53338896867E+02  0.20105884286E+03  0.20802926809E+03  0.00000000000E+00 0. -1.
         15    1    4    4    0    0 -0.15338555149E+03  0.64059221766E+02  0.17805594083E+03  0.24358700573E+03  0.00000000000E+00 0. -1.
        -16    1    3    3    0    0  0.39335590787E+02  0.56757443613E+02  0.32860942025E+03  0.33578690741E+03  0.00000000000E+00 0.  1.
         16    1    1    2    0    0  0.47793346218E+02 -0.82074152157E+01  0.21000888985E+03  0.21553491462E+03  0.00000000000E+00 0. -1.
    9900018    1    3    3    0    0  0.19951625967E+02 -0.14136402893E+01  0.15506487689E+03  0.18099823258E+03  0.91187600000E+02 0.  0.
<mgrwt>
<rscale>  0 0.78952186E+03</rscale>
<asrwt>0</asrwt>
<pdfrwt beam="1">  1        2 0.25214356E+00 0.78952186E+03</pdfrwt>
<pdfrwt beam="2">  1       -2 0.14628296E-01 0.78952186E+03</pdfrwt>
<totfact> 0.39266640E+02</totfact>
</mgrwt>
</event>
<event>
12    1  0.1252200E-010  0.1433649E+04  0.7818608E-02  0.8929815E-01
         -1   -1    0    0    0  501 -0.00000000000E+00  0.00000000000E+00  0.48566041459E+03  0.48566041459E+03  0.00000000000E+00 0.  1.
          1   -1    0    0  501    0  0.00000000000E+00 -0.00000000000E+00 -0.10580183295E+04  0.10580183295E+04  0.00000000000E+00 0. -1.
    9900016    2    1    2    0    0 -0.12112263989E+03 -0.10541912626E+03 -0.91007862800E+03  0.11697279904E+04  0.71710290499E+03 0.  0.
         23    2    3    3    0    0  0.19475765634E+02 -0.59400911293E+01 -0.14061557822E+03  0.17360992049E+03  0.99765091713E+02 0.  0.
         23    2    3    3    0    0 -0.27410018107E+02 -0.85643189504E+02 -0.66786168733E+02  0.14308660760E+03  0.89035498199E+02 0.  0.
        -15    1    5    5    0    0 -0.22356485219E+02  0.28858234463E+00 -0.50843605597E+02  0.55542487712E+02  0.00000000000E+00 0.  1.
        -15    1    4    4    0    0 -0.36163969623E+02 -0.20826505502E+02 -0.40764608173E+02  0.58338060560E+02  0.00000000000E+00 0.  1.
         15    1    5    5    0    0 -0.50535328883E+01 -0.85931771849E+02 -0.15942563136E+02  0.87544119888E+02  0.00000000000E+00 0. -1.
         15    1    4    4    0    0  0.55639735257E+02  0.14886414373E+02 -0.99850970045E+02  0.11527185993E+03  0.00000000000E+00 0. -1.
        -16    1    1    2    0    0  0.12112263989E+03  0.10541912626E+03  0.33772071312E+03  0.37395075364E+03  0.00000000000E+00 0.  1.
         16    1    3    3    0    0 -0.31794353824E+02  0.21826662404E+03 -0.29739858412E+03  0.37026627977E+03  0.00000000000E+00 0. -1.
    9900018    1    3    3    0    0 -0.81394033589E+02 -0.23210246966E+03 -0.40527829693E+03  0.48276518255E+03  0.91187600000E+02 0.  0.
<mgrwt>
<rscale>  0 0.14336494E+04</rscale>
<asrwt>0</asrwt>
<pdfrwt beam="1">  1        1 0.16277205E+00 0.14336494E+04</pdfrwt>
<pdfrwt beam="2">  1       -1 0.74716987E-01 0.14336494E+04</pdfrwt>
<totfact> 0.23916935E+01</totfact>
</mgrwt>
</event>
<event>
12    1  0.1252200E-010  0.1355072E+04  0.7818608E-02  0.8986998E-01
          1   -1    0    0  501    0  0.00000000000E+00  0.00000000000E+00  0.52201406572E+03  0.52201406572E+03  0.00000000000E+00 0. -1.
         -1   -1    0    0    0  501 -0.00000000000E+00 -0.00000000000E+00 -0.87939200675E+03  0.87939200675E+03  0.00000000000E+00 0.  1.
    9900016    2    1    2    0    0 -0.46499015335E+03  0.10338905609E+03 -0.99797888332E+02  0.85987802778E+03  0.70889030499E+03 0.  0.
         23    2    3    3    0    0 -0.34730060675E+03 -0.15581738258E+03 -0.82822711276E+02  0.39899315889E+03  0.86250629985E+02 0.  0.
         23    2    3    3    0    0 -0.58187712376E+02  0.61715846110E+02 -0.23426291432E+02  0.12674078810E+03  0.91212831907E+02 0.  0.
        -15    1    5    5    0    0 -0.47717091750E+02  0.84073685808E+02 -0.66653874922E+01  0.96900634057E+02  0.00000000000E+00 0. -1.
        -15    1    4    4    0    0 -0.75157250758E+02 -0.69519340289E+02 -0.41709365106E+02  0.11054963660E+03  0.00000000000E+00 0.  1.
         15    1    5    5    0    0 -0.10470620627E+02 -0.22357839697E+02 -0.16760903939E+02  0.29840154039E+02  0.00000000000E+00 0.  1.
         15    1    4    4    0    0 -0.27214335599E+03 -0.86298042289E+02 -0.41113346170E+02  0.28844352228E+03  0.00000000000E+00 0. -1.
        -16    1    3    3    0    0 -0.10485348280E+03  0.18481174109E+03  0.56634929017E+02  0.21990258681E+03  0.00000000000E+00 0.  1.
         16    1    1    2    0    0  0.46499015335E+03 -0.10338905609E+03 -0.25758005269E+03  0.54152804469E+03  0.00000000000E+00 0. -1.
    9900018    1    3    3    0    0  0.45351648575E+02  0.12678851465E+02 -0.50183814641E+02  0.11424149399E+03  0.91187600000E+02 0.  0.
<mgrwt>
<rscale>  0 0.13550719E+04</rscale>
<asrwt>0</asrwt>
<pdfrwt beam="1">  1        1 0.80309857E-01 0.13550719E+04</pdfrwt>
<pdfrwt beam="2">  1       -1 0.13529108E+00 0.13550719E+04</pdfrwt>
<totfact> 0.18715651E+01</totfact>
</mgrwt>
</event>
<event>
12    1  0.1252200E-010  0.2162888E+04  0.7818608E-02  0.8534035E-01
          1   -1    0    0  501    0  0.00000000000E+00  0.00000000000E+00  0.11371642471E+04  0.11371642471E+04  0.00000000000E+00 0. -1.
         -1   -1    0    0    0  501 -0.00000000000E+00 -0.00000000000E+00 -0.10284544112E+04  0.10284544112E+04  0.00000000000E+00 0.  1.
    9900016    2    1    2    0    0  0.50821079142E+03  0.80199782820E+03 -0.96241026017E+02  0.11942878286E+04  0.71804063772E+03 0.  0.
         23    2    3    3    0    0  0.30072900102E+03  0.27905405512E+03  0.57453001870E+02  0.42408153358E+03  0.90748013533E+02 0.  0.
         23    2    3    3    0    0  0.10684466567E+03  0.19221861135E+03 -0.14507400522E+01  0.23660786475E+03  0.87277716968E+02 0.  0.
        -15    1    4    4    0    0  0.14282156493E+03  0.15004753843E+03  0.72865832265E+02  0.21959438224E+03  0.00000000000E+00 0.  1.
        -15    1    5    5    0    0  0.76000332678E+02  0.19038709414E+03  0.49394266116E+01  0.20505534404E+03  0.00000000000E+00 0. -1.
         15    1    5    5    0    0  0.30844332995E+02  0.18315172146E+01 -0.63901666638E+01  0.31552520711E+02  0.00000000000E+00 0.  1.
         15    1    4    4    0    0  0.15790743609E+03  0.12900651669E+03 -0.15412830395E+02  0.20448715134E+03  0.00000000000E+00 0. -1.
        -16    1    1    2    0    0 -0.50821079142E+03 -0.80199782820E+03  0.20495086193E+03  0.97133082972E+03  0.00000000000E+00 0.  1.
         16    1    3    3    0    0 -0.67004023026E+02  0.23184657969E+03  0.40731035037E+02  0.24474761047E+03  0.00000000000E+00 0. -1.
    9900018    1    3    3    0    0  0.16764114775E+03  0.98878582034E+02 -0.19297432287E+03  0.28885081978E+03  0.91187600000E+02 0.  0.
<mgrwt>
<rscale>  0 0.21628884E+04</rscale>
<asrwt>0</asrwt>
<pdfrwt beam="1">  1        1 0.17494835E+00 0.21628884E+04</pdfrwt>
<pdfrwt beam="2">  1       -1 0.15822375E+00 0.21628884E+04</pdfrwt>
<totfact> 0.32791595E+00</totfact>
</mgrwt>
</event>
<event>
12    1  0.1252200E-010  0.9534729E+03  0.7818608E-02  0.9361100E-01
         -2   -1    0    0    0  501 -0.00000000000E+00  0.00000000000E+00  0.35487604687E+03  0.35487604687E+03  0.00000000000E+00 0. -1.
          2   -1    0    0  501    0  0.00000000000E+00 -0.00000000000E+00 -0.64044231418E+03  0.64044231418E+03  0.00000000000E+00 0.  1.
    9900016    2    1    2    0    0 -0.14186672829E+03 -0.13871382639E+03 -0.29948641133E+03  0.79641772093E+03  0.71078926653E+03 0.  0.
         23    2    3    3    0    0 -0.30199890530E+02 -0.30484703049E+02  0.63078983990E+02  0.11921101552E+03  0.91602169697E+02 0.  0.
         23    2    3    3    0    0  0.60055629549E+02 -0.13279052404E+03  0.63455770490E+02  0.18303865411E+03  0.90755232209E+02 0.  0.
        -15    1    5    5    0    0 -0.11468850809E+02 -0.43104405197E+02 -0.11429773306E+02  0.46045238669E+02  0.00000000000E+00 0.  1.
        -15    1    4    4    0    0 -0.11753231847E+02 -0.10465191593E+01 -0.23294653717E+02  0.26112727797E+02  0.00000000000E+00 0.  1.
         15    1    5    5    0    0  0.71524480358E+02 -0.89686118841E+02  0.74885543796E+02  0.13699341544E+03  0.00000000000E+00 0. -1.
         15    1    4    4    0    0 -0.18446658682E+02 -0.29438183889E+02  0.86373637706E+02  0.93098287728E+02  0.00000000000E+00 0. -1.
        -16    1    1    2    0    0  0.14186672829E+03  0.13871382639E+03  0.13920144017E+02  0.19890064011E+03  0.00000000000E+00 0.  1.
         16    1    3    3    0    0 -0.15631723878E+03  0.21785103148E+02 -0.26305683611E+03  0.30677119957E+03  0.00000000000E+00 0. -1.
    9900018    1    3    3    0    0 -0.15405228535E+02  0.27762975497E+01 -0.16296432969E+03  0.18739685173E+03  0.91187600000E+02 0.  0.
<mgrwt>
<rscale>  0 0.95347289E+03</rscale>
<asrwt>0</asrwt>
<pdfrwt beam="1">  1        2 0.98529585E-01 0.95347289E+03</pdfrwt>
<pdfrwt beam="2">  1       -2 0.54596316E-01 0.95347289E+03</pdfrwt>
<totfact> 0.14473217E+02</totfact>
</mgrwt>
</event>
<event>
12    1  0.1252200E-010  0.2132456E+04  0.7818608E-02  0.8547079E-01
          2   -1    0    0  501    0  0.00000000000E+00  0.00000000000E+00  0.27505373657E+04  0.27505373657E+04  0.00000000000E+00 0.  1.
         -2   -1    0    0    0  501 -0.00000000000E+00 -0.00000000000E+00 -0.41331641975E+03  0.41331641975E+03  0.00000000000E+00 0. -1.
    9900016    2    1    2    0    0  0.81602338211E+03  0.26290505008E+03  0.19156303394E+04  0.22084733037E+04  0.68753291567E+03 0.  0.
         23    2    3    3    0    0  0.74818670040E+02 -0.41754228132E+02  0.29066970632E+03  0.31614495284E+03  0.90097192381E+02 0.  0.
         23    2    3    3    0    0  0.18326904070E+03 -0.34261339378E+01  0.49482763076E+03  0.53521932377E+03  0.89476593009E+02 0.  0.
        -15    1    5    5    0    0  0.79910367872E+02  0.17630642484E+01  0.10542583654E+03  0.13230034883E+03  0.00000000000E+00 0.  1.
        -15    1    4    4    0    0  0.51406723954E+02  0.18128923652E+02  0.18086195576E+03  0.18889774001E+03  0.00000000000E+00 0.  1.
         15    1    5    5    0    0  0.10335867283E+03 -0.51891981862E+01  0.38940179422E+03  0.40291897494E+03  0.00000000000E+00 0. -1.
         15    1    4    4    0    0  0.23411946086E+02 -0.59883151784E+02  0.10980775056E+03  0.12724721282E+03  0.00000000000E+00 0. -1.
        -16    1    3    3    0    0  0.13348794370E+03 -0.47250672291E+02  0.46959430857E+03  0.49047983831E+03  0.00000000000E+00 0.  1.
         16    1    1    2    0    0 -0.81602338211E+03 -0.26290505008E+03  0.42159060656E+03  0.95538048182E+03  0.00000000000E+00 0. -1.
    9900018    1    3    3    0    0  0.42444772767E+03  0.35533608444E+03  0.66053869377E+03  0.86662918875E+03  0.91187600000E+02 0.  0.
<mgrwt>
<rscale>  0 0.21324561E+04</rscale>
<asrwt>0</asrwt>
<pdfrwt beam="1">  1        2 0.42315958E+00 0.21324561E+04</pdfrwt>
<pdfrwt beam="2">  1       -2 0.63587143E-01 0.21324561E+04</pdfrwt>
<totfact> 0.52142112E+00</totfact>
</mgrwt>
</event>
<event>
12    1  0.1252200E-010  0.8647689E+03  0.7818608E-02  0.9470726E-01
         -3   -1    0    0    0  501 -0.00000000000E+00  0.00000000000E+00  0.70491879742E+03  0.70491879742E+03  0.00000000000E+00 0.  1.
          3   -1    0    0  501    0  0.00000000000E+00 -0.00000000000E+00 -0.26521679939E+03  0.26521679939E+03  0.00000000000E+00 0. -1.
    9900016    2    1    2    0    0  0.13323510655E+03 -0.27630137807E+01  0.38596553630E+03  0.82644553041E+03  0.71852876884E+03 0.  0.
         23    2    3    3    0    0  0.11407621109E+01  0.20858834522E+03  0.38719607992E+03  0.44909090639E+03  0.90837430589E+02 0.  0.
         23    2    3    3    0    0  0.87654716535E+02 -0.55123856312E+02 -0.27907232860E+02  0.14163273748E+03  0.92515024803E+02 0.  0.
        -15    1    5    5    0    0  0.11008589960E+02 -0.51626308489E+02 -0.36865301494E+02  0.64385675700E+02  0.00000000000E+00 0.  1.
        -15    1    4    4    0    0 -0.58080190528E+00  0.58383264557E+02  0.20395868703E+03  0.21215109928E+03  0.00000000000E+00 0.  1.
         15    1    5    5    0    0  0.76646126575E+02 -0.34975478231E+01  0.89580686340E+01  0.77247061778E+02  0.00000000000E+00 0. -1.
         15    1    4    4    0    0  0.17215640162E+01  0.15020508066E+03  0.18323739290E+03  0.23693980711E+03  0.00000000000E+00 0. -1.
        -16    1    1    2    0    0 -0.13323510655E+03  0.27630137807E+01  0.53736461738E+02  0.14369006640E+03  0.00000000000E+00 0.  1.
         16    1    3    3    0    0  0.40246616620E+02 -0.85337863047E+02  0.64295629525E+02  0.11417648179E+03  0.00000000000E+00 0. -1.
    9900018    1    3    3    0    0  0.41930112853E+01 -0.70889639638E+02 -0.37618940290E+02  0.12154540474E+03  0.91187600000E+02 0.  0.
<mgrwt>
<rscale>  0 0.86476889E+03</rscale>
<asrwt>0</asrwt>
<pdfrwt beam="1">  1        3 0.40802585E-01 0.86476889E+03</pdfrwt>
<pdfrwt beam="2">  1       -3 0.10844904E+00 0.86476889E+03</pdfrwt>
<totfact> 0.11334620E+01</totfact>
</mgrwt>
</event>
<event>
12    1  0.1252200E-010  0.9194358E+03  0.7818608E-02  0.9401607E-01
          2   -1    0    0  501    0  0.00000000000E+00  0.00000000000E+00  0.39501430017E+03  0.39501430017E+03  0.00000000000E+00 0. -1.
         -2   -1    0    0    0  501 -0.00000000000E+00 -0.00000000000E+00 -0.53501998810E+03  0.53501998810E+03  0.00000000000E+00 0.  1.
    9900016    2    1    2    0    0 -0.21857893103E+02  0.58512181593E+02 -0.27342906172E+03  0.78271409427E+03  0.73073692851E+03 0.  0.
         23    2    3    3    0    0 -0.19917610564E+02 -0.50561709531E+02  0.33871431177E+02  0.10944325247E+03  0.88754458926E+02 0.  0.
         23    2    3    3    0    0  0.45079741750E+02  0.16905422613E+02  0.86598634733E+02  0.13298938862E+03  0.88706693755E+02 0.  0.
        -15    1    5    5    0    0 -0.91155703944E+01 -0.22659000217E+02  0.52098094050E+02  0.57538989547E+02  0.00000000000E+00 0. -1.
        -15    1    4    4    0    0 -0.47197388481E+02 -0.25482598057E+02 -0.72086061411E+01  0.54119500050E+02  0.00000000000E+00 0.  1.
         15    1    4    4    0    0  0.27279777916E+02 -0.25079111474E+02  0.41080037318E+02  0.55323752417E+02  0.00000000000E+00 0. -1.
         15    1    5    5    0    0  0.54195312144E+02  0.39564422830E+02  0.34500540683E+02  0.75450399069E+02  0.00000000000E+00 0.  1.
        -16    1    3    3    0    0 -0.83111002946E+02  0.18165245023E+03 -0.34527338526E+03  0.39889693162E+03  0.00000000000E+00 0.  1.
         16    1    1    2    0    0  0.21857893103E+02 -0.58512181593E+02  0.13342337379E+03  0.14732019399E+03  0.00000000000E+00 0. -1.
    9900018    1    3    3    0    0  0.36090978658E+02 -0.89483981718E+02 -0.48625742369E+02  0.14138452157E+03  0.91187600000E+02 0.  0.
<mgrwt>
<rscale>  0 0.91943580E+03</rscale>
<asrwt>0</asrwt>
<pdfrwt beam="1">  1        2 0.60771432E-01 0.91943580E+03</pdfrwt>
<pdfrwt beam="2">  1       -2 0.82310766E-01 0.91943580E+03</pdfrwt>
<totfact> 0.10486125E+02</totfact>
</mgrwt>
</event>
<event>
12    1  0.1287114E-010  0.9825172E+03  0.7818608E-02  0.9327930E-01
         -2   -1    0    0    0  501 -0.00000000000E+00  0.00000000000E+00  0.50035823740E+03  0.50035823740E+03  0.00000000000E+00 0.  1.
          2   -1    0    0  501    0  0.00000000000E+00 -0.00000000000E+00 -0.48232444311E+03  0.48232444311E+03  0.00000000000E+00 0. -1.
    9900016    2    1    2    0    0 -0.53573483819E+02 -0.12195398605E+03  0.20586116724E+03  0.75241758347E+03  0.71134415500E+03 0.  0.
         23    2    3    3    0    0  0.68210112481E+02 -0.94858636416E+02  0.12218366958E+03  0.19262770406E+03  0.92335274464E+02 0.  0.
         23    2    3    3    0    0  0.64560357427E+02 -0.30946449663E+02  0.79893161946E+02  0.14087453238E+03  0.91307141289E+02 0.  0.
        -15    1    5    5    0    0  0.15939403454E+02 -0.26804740159E+02  0.86203502745E+02  0.91671165385E+02  0.00000000000E+00 0.  1.
        -15    1    4    4    0    0  0.12176894601E+02 -0.31321932372E+02 -0.10498416588E+02  0.35207342423E+02  0.00000000000E+00 0.  1.
         15    1    4    4    0    0  0.56033217880E+02 -0.63536704045E+02  0.13268208617E+03  0.15742036163E+03  0.00000000000E+00 0. -1.
         15    1    5    5    0    0  0.48620953973E+02 -0.41417095042E+01 -0.63103407999E+01  0.49203366997E+02  0.00000000000E+00 0. -1.
        -16    1    3    3    0    0 -0.72785259614E+02 -0.98673214365E+02 -0.14281928339E+03  0.18823242270E+03  0.00000000000E+00 0.  1.
         16    1    1    2    0    0  0.53573483819E+02  0.12195398605E+03 -0.18782737295E+03  0.23026509703E+03  0.00000000000E+00 0. -1.
    9900018    1    3    3    0    0 -0.11355869411E+03  0.10252431439E+03  0.14660361910E+03  0.23068292433E+03  0.91187600000E+02 0.  0.
<mgrwt>
<rscale>  0 0.98251719E+03</rscale>
<asrwt>0</asrwt>
<pdfrwt beam="1">  1        2 0.74203760E-01 0.98251719E+03</pdfrwt>
<pdfrwt beam="2">  1       -2 0.76978191E-01 0.98251719E+03</pdfrwt>
<totfact> 0.96763034E+01</totfact>
</mgrwt>
</event>
<event>
12    1  0.1252200E-010  0.9151281E+03  0.7818608E-02  0.9406866E-01
          2   -1    0    0  501    0  0.00000000000E+00  0.00000000000E+00  0.11539848832E+03  0.11539848832E+03  0.00000000000E+00 0. -1.
         -2   -1    0    0    0  501 -0.00000000000E+00 -0.00000000000E+00 -0.18142772758E+04  0.18142772758E+04  0.00000000000E+00 0.  1.
    9900016    2    1    2    0    0  0.97941463029E+02  0.20871579788E+01 -0.10340418120E+04  0.12576600720E+04  0.70913292228E+03 0.  0.
         23    2    3    3    0    0  0.90930031391E+02  0.42279977034E+02 -0.18656707972E+03  0.23047543212E+03  0.90861336733E+02 0.  0.
         23    2    3    3    0    0  0.25176688404E+03 -0.10027085391E+03 -0.45641472017E+03  0.53833454426E+03  0.89715532169E+02 0.  0.
        -15    1    4    4    0    0  0.19116501070E+02  0.33863045101E+02 -0.13799779567E+03  0.14337202672E+03  0.00000000000E+00 0.  1.
        -15    1    5    5    0    0  0.92249025896E+02 -0.84317383201E+02 -0.19067446774E+03  0.22798257946E+03  0.00000000000E+00 0.  1.
         15    1    4    4    0    0  0.71813530321E+02  0.84169319330E+01 -0.48569284050E+02  0.87103405407E+02  0.00000000000E+00 0. -1.
         15    1    5    5    0    0  0.15951785815E+03 -0.15953470711E+02 -0.26574025243E+03  0.31035196480E+03  0.00000000000E+00 0. -1.
        -16    1    1    2    0    0 -0.97941463029E+02 -0.20871579788E+01 -0.66483697548E+03  0.67201569206E+03  0.00000000000E+00 0.  1.
         16    1    3    3    0    0 -0.12063415505E+03  0.33489963979E+02 -0.10726817103E+03  0.16486551358E+03  0.00000000000E+00 0. -1.
    9900018    1    3    3    0    0 -0.12412129736E+03  0.26588070877E+02 -0.28379184107E+03  0.32398458208E+03  0.91187600000E+02 0.  0.
<mgrwt>
<rscale>  0 0.91512809E+03</rscale>
<asrwt>0</asrwt>
<pdfrwt beam="1">  1        2 0.17753614E-01 0.91512809E+03</pdfrwt>
<pdfrwt beam="2">  1       -2 0.27911957E+00 0.91512809E+03</pdfrwt>
<totfact> 0.14222345E+01</totfact>
</mgrwt>
</event>
<event>
12    1  0.1252200E-010  0.1016373E+04  0.7818608E-02  0.9290768E-01
          1   -1    0    0  501    0  0.00000000000E+00  0.00000000000E+00  0.41730404165E+03  0.41730404165E+03  0.00000000000E+00 0. -1.
         -1   -1    0    0    0  501 -0.00000000000E+00 -0.00000000000E+00 -0.61886142008E+03  0.61886142008E+03  0.00000000000E+00 0.  1.
    9900016    2    1    2    0    0 -0.17273095556E+03 -0.21276955960E+02  0.26965926297E+02  0.74891714986E+03  0.72791554751E+03 0.  0.
         23    2    3    3    0    0 -0.18992409022E+03 -0.25878443239E+02  0.26394747315E+03  0.33874248872E+03  0.91309097061E+02 0.  0.
         23    2    3    3    0    0  0.98261319244E+02 -0.66429266008E+02 -0.65973952266E+02  0.16153324756E+03  0.87591628860E+02 0.  0.
        -15    1    5    5    0    0  0.28208305867E+02  0.21047200861E+02 -0.12387768087E+02  0.37311526130E+02  0.00000000000E+00 0.  1.
        -15    1    4    4    0    0 -0.16276331647E+02 -0.22897805550E+02  0.84358218710E+02  0.88913089783E+02  0.00000000000E+00 0. -1.
         15    1    4    4    0    0 -0.17364775858E+03 -0.29806376891E+01  0.17958925444E+03  0.24982939893E+03  0.00000000000E+00 0.  1.
         15    1    5    5    0    0  0.70053013377E+02 -0.87476466869E+02 -0.53586184178E+02  0.12422172143E+03  0.00000000000E+00 0. -1.
        -16    1    1    2    0    0  0.17273095556E+03  0.21276955960E+02 -0.22852330473E+03  0.28724831186E+03  0.00000000000E+00 0.  1.
         16    1    3    3    0    0 -0.23722316123E+02  0.16470745419E+02 -0.10927418197E+03  0.11302601728E+03  0.00000000000E+00 0. -1.
    9900018    1    3    3    0    0 -0.57345868458E+02  0.54560007867E+02 -0.61733412618E+02  0.13561539631E+03  0.91187600000E+02 0.  0.
<mgrwt>
<rscale>  0 0.10163727E+04</rscale>
<asrwt>0</asrwt>
<pdfrwt beam="1">  1        1 0.64200622E-01 0.10163727E+04</pdfrwt>
<pdfrwt beam="2">  1       -1 0.95209449E-01 0.10163727E+04</pdfrwt>
<totfact> 0.60539167E+01</totfact>
</mgrwt>
</event>
<event>
12    1  0.1252200E-010  0.1180494E+04  0.7818608E-02  0.9130103E-01
          2   -1    0    0  501    0  0.00000000000E+00  0.00000000000E+00  0.17627979347E+04  0.17627979347E+04  0.00000000000E+00 0. -1.
         -2   -1    0    0    0  501 -0.00000000000E+00 -0.00000000000E+00 -0.19763569975E+03  0.19763569975E+03  0.00000000000E+00 0.  1.
    9900016    2    1    2    0    0 -0.37078304325E+03 -0.51878839129E+02  0.10406770195E+04  0.13160298632E+04  0.71327025941E+03 0.  0.
         23    2    3    3    0    0 -0.11979320054E+02 -0.45285495090E+02  0.14299307925E+03  0.18054838475E+03  0.99781853814E+02 0.  0.
         23    2    3    3    0    0 -0.69213967879E+02 -0.74798695423E+02  0.21633634714E+03  0.25712517105E+03  0.94480264104E+02 0.  0.
        -15    1    4    4    0    0 -0.13158375605E+02  0.28561596371E+02  0.20585664913E+02  0.37585598781E+02  0.00000000000E+00 0.  1.
        -15    1    5    5    0    0 -0.81565244256E-03 -0.44084343281E+02  0.23504949717E+02  0.49959103118E+02  0.00000000000E+00 0. -1.
         15    1    4    4    0    0  0.11790555508E+01 -0.73847091462E+02  0.12240741433E+03  0.14296278597E+03  0.00000000000E+00 0. -1.
         15    1    5    5    0    0 -0.69213152227E+02 -0.30714352143E+02  0.19283139743E+03  0.20716606793E+03  0.00000000000E+00 0.  1.
        -16    1    1    2    0    0  0.37078304325E+03  0.51878839129E+02  0.52448521546E+03  0.64440377121E+03  0.00000000000E+00 0.  1.
         16    1    3    3    0    0 -0.24304507262E+03 -0.16583522697E+03  0.30774690149E+03  0.42577034327E+03  0.00000000000E+00 0. -1.
    9900018    1    3    3    0    0 -0.46544682695E+02  0.23404057836E+03  0.37360069159E+03  0.45258596416E+03  0.91187600000E+02 0.  0.
<mgrwt>
<rscale>  0 0.11804945E+04</rscale>
<asrwt>0</asrwt>
<pdfrwt beam="1">  1        2 0.27119967E+00 0.11804945E+04</pdfrwt>
<pdfrwt beam="2">  1       -2 0.30405493E-01 0.11804945E+04</pdfrwt>
<totfact> 0.89415684E+01</totfact>
</mgrwt>
</event>
<event>
12    1  0.1252200E-010  0.9539622E+03  0.7818608E-02  0.9360531E-01
          2   -1    0    0  501    0  0.00000000000E+00  0.00000000000E+00  0.16311207241E+03  0.16311207241E+03  0.00000000000E+00 0. -1.
         -2   -1    0    0    0  501 -0.00000000000E+00 -0.00000000000E+00 -0.13948137249E+04  0.13948137249E+04  0.00000000000E+00 0.  1.
    9900016    2    1    2    0    0 -0.84642143517E+02  0.23478430951E+03 -0.89062649892E+03  0.11352909374E+04  0.65831754303E+03 0.  0.
         23    2    3    3    0    0  0.64795724278E+02  0.13823333274E+03 -0.39007724617E+03  0.42875742073E+03  0.91464352032E+02 0.  0.
         23    2    3    3    0    0 -0.28095590731E+02  0.42990107882E+02  0.11938305098E+02  0.10311179422E+03  0.88611553336E+02 0.  0.
        -15    1    5    5    0    0 -0.47616820640E+02  0.59667566066E+02  0.12888830701E+02  0.77419002867E+02  0.00000000000E+00 0. -1.
        -15    1    4    4    0    0  0.48276382148E+02  0.28427245381E+02 -0.20869862744E+03  0.21608756199E+03  0.00000000000E+00 0. -1.
         15    1    5    5    0    0  0.19521229909E+02 -0.16677458184E+02 -0.95052560326E+00  0.25692791354E+02  0.00000000000E+00 0.  1.
         15    1    4    4    0    0  0.16519342130E+02  0.10980608736E+03 -0.18137861873E+03  0.21266985874E+03  0.00000000000E+00 0.  1.
        -16    1    3    3    0    0 -0.83685517756E+02  0.60175292918E+02 -0.25074649089E+02  0.10608048730E+03  0.00000000000E+00 0.  1.
         16    1    1    2    0    0  0.84642143517E+02 -0.23478430951E+03 -0.34107515360E+03  0.42263485996E+03  0.00000000000E+00 0. -1.
    9900018    1    3    3    0    0 -0.37656759309E+02 -0.66144240317E+01 -0.48741290876E+03  0.49734123511E+03  0.91187600000E+02 0.  0.
<mgrwt>
<rscale>  0 0.95396217E+03</rscale>
<asrwt>0</asrwt>
<pdfrwt beam="1">  1        2 0.25094165E-01 0.95396217E+03</pdfrwt>
<pdfrwt beam="2">  1       -2 0.21458673E+00 0.95396217E+03</pdfrwt>
<totfact> 0.23463628E+01</totfact>
</mgrwt>
</event>
<event>
12    1  0.1252200E-010  0.9559106E+03  0.7818608E-02  0.9358269E-01
         -2   -1    0    0    0  501 -0.00000000000E+00  0.00000000000E+00  0.22813353319E+03  0.22813353319E+03  0.00000000000E+00 0.  1.
          2   -1    0    0  501    0  0.00000000000E+00 -0.00000000000E+00 -0.10013490008E+04  0.10013490008E+04  0.00000000000E+00 0. -1.
    9900016    2    1    2    0    0  0.16416716606E+03  0.13748218746E+03 -0.59784844214E+03  0.95270499895E+03  0.71019141432E+03 0.  0.
         23    2    3    3    0    0  0.35934906436E+02  0.36786208316E+02 -0.39446095441E+02  0.11272672144E+03  0.92232188838E+02 0.  0.
         23    2    3    3    0    0  0.15848266405E+03 -0.12894627032E+03 -0.80921702839E+02  0.24025478951E+03  0.97108941187E+02 0.  0.
        -15    1    4    4    0    0  0.18716191332E+02  0.50115693594E+02  0.13759455687E+02  0.55237679017E+02  0.00000000000E+00 0.  1.
        -15    1    5    5    0    0  0.86348961982E+02 -0.72637752384E+02  0.73933584189E+01  0.11307983045E+03  0.00000000000E+00 0. -1.
         15    1    4    4    0    0  0.17218715105E+02 -0.13329485278E+02 -0.53205551129E+02  0.57489042422E+02  0.00000000000E+00 0. -1.
         15    1    5    5    0    0  0.72133702070E+02 -0.56308517941E+02 -0.88315061258E+02  0.12717495906E+03  0.00000000000E+00 0.  1.
        -16    1    1    2    0    0 -0.16416716606E+03 -0.13748218746E+03 -0.17536702548E+03  0.27677753504E+03  0.00000000000E+00 0.  1.
         16    1    3    3    0    0 -0.12615862146E+03  0.72989431952E+02 -0.27663365075E+03  0.31268135805E+03  0.00000000000E+00 0. -1.
    9900018    1    3    3    0    0  0.95908217029E+02  0.15665281751E+03 -0.20084699311E+03  0.28704212995E+03  0.91187600000E+02 0.  0.
<mgrwt>
<rscale>  0 0.95591063E+03</rscale>
<asrwt>0</asrwt>
<pdfrwt beam="1">  1        2 0.15405369E+00 0.95591063E+03</pdfrwt>
<pdfrwt beam="2">  1       -2 0.35097467E-01 0.95591063E+03</pdfrwt>
<totfact> 0.19140406E+02</totfact>
</mgrwt>
</event>
<event>
12    1  0.1252200E-010  0.2626667E+04  0.7818608E-02  0.8359199E-01
          1   -1    0    0  501    0  0.00000000000E+00  0.00000000000E+00  0.23822795667E+04  0.23822795667E+04  0.00000000000E+00 0. -1.
         -1   -1    0    0    0  501 -0.00000000000E+00 -0.00000000000E+00 -0.72403108023E+03  0.72403108023E+03  0.00000000000E+00 0.  1.
    9900016    2    1    2    0    0 -0.44498574739E+03  0.96559829685E+03  0.15898318709E+04  0.20409124962E+04  0.71229632390E+03 0.  0.
         23    2    3    3    0    0 -0.10254171837E+03  0.76284633604E+02  0.35514489783E+02  0.15601895482E+03  0.82136994997E+02 0.  0.
         23    2    3    3    0    0 -0.13148424956E+03  0.35657485446E+02  0.20338626411E+03  0.26130768215E+03  0.91412078909E+02 0.  0.
        -15    1    4    4    0    0 -0.58358683337E+02  0.80125500477E+02  0.47729473782E+02  0.11001788225E+03  0.00000000000E+00 0.  1.
        -15    1    5    5    0    0  0.10914913568E+02 -0.81188235455E+01  0.28433376434E+02  0.31519954463E+02  0.00000000000E+00 0.  1.
         15    1    4    4    0    0 -0.44183035034E+02 -0.38408668728E+01 -0.12214983999E+02  0.46001072566E+02  0.00000000000E+00 0. -1.
         15    1    5    5    0    0 -0.14239916313E+03  0.43776308991E+02  0.17495288767E+03  0.22978772768E+03  0.00000000000E+00 0. -1.
        -16    1    1    2    0    0  0.44498574739E+03 -0.96559829685E+03  0.68416615527E+02  0.10653981507E+04  0.00000000000E+00 0.  1.
         16    1    3    3    0    0 -0.90808152921E+02  0.51479427606E+03  0.68956394668E+03  0.86530786652E+03  0.00000000000E+00 0. -1.
    9900018    1    3    3    0    0 -0.12015162654E+03  0.33886190174E+03  0.66136717036E+03  0.75827799272E+03  0.91187600000E+02 0.  0.
<mgrwt>
<rscale>  0 0.26266667E+04</rscale>
<asrwt>0</asrwt>
<pdfrwt beam="1">  1        1 0.36650455E+00 0.26266667E+04</pdfrwt>
<pdfrwt beam="2">  1       -1 0.11138940E+00 0.26266667E+04</pdfrwt>
<totfact> 0.10632327E+00</totfact>
</mgrwt>
</event>
<event>
12    1  0.1252200E-010  0.1074738E+04  0.7818608E-02  0.9230170E-01
          1   -1    0    0  501    0  0.00000000000E+00  0.00000000000E+00  0.82026234880E+03  0.82026234880E+03  0.00000000000E+00 0. -1.
         -1   -1    0    0    0  501 -0.00000000000E+00 -0.00000000000E+00 -0.35204038395E+03  0.35204038395E+03  0.00000000000E+00 0.  1.
    9900016    2    1    2    0    0 -0.29424563165E+03 -0.45390865520E+02  0.39898916738E+03  0.86663297195E+03  0.70937967970E+03 0.  0.
         23    2    3    3    0    0  0.10444736598E+03 -0.84422906989E+02 -0.11081635130E+02  0.16343997433E+03  0.92484285629E+02 0.  0.
         23    2    3    3    0    0 -0.30954751757E+03 -0.46394026592E+02  0.36026988808E+03  0.48541855188E+03  0.88683182812E+02 0.  0.
        -15    1    4    4    0    0  0.78579506487E+02 -0.67317257738E+02  0.33830065726E+02  0.10886149630E+03  0.00000000000E+00 0.  1.
        -15    1    5    5    0    0 -0.24781672375E+03 -0.68063210501E+02  0.31143231722E+03  0.40377694016E+03  0.00000000000E+00 0. -1.
         15    1    4    4    0    0  0.25867859493E+02 -0.17105649251E+02 -0.44911700855E+02  0.54578478036E+02  0.00000000000E+00 0. -1.
         15    1    5    5    0    0 -0.61730793817E+02  0.21669183909E+02  0.48837570857E+02  0.81641611717E+02  0.00000000000E+00 0.  1.
        -16    1    1    2    0    0  0.29424563165E+03  0.45390865520E+02  0.69232797475E+02  0.30566976079E+03  0.00000000000E+00 0.  1.
         16    1    3    3    0    0  0.31016427733E+02  0.39030616228E+02 -0.63673758923E+01  0.50258842687E+02  0.00000000000E+00 0. -1.
    9900018    1    3    3    0    0 -0.12016190779E+03  0.46395451832E+02  0.56168290318E+02  0.16751560305E+03  0.91187600000E+02 0.  0.
<mgrwt>
<rscale>  0 0.10747381E+04</rscale>
<asrwt>0</asrwt>
<pdfrwt beam="1">  1        1 0.12619421E+00 0.10747381E+04</pdfrwt>
<pdfrwt beam="2">  1       -1 0.54160060E-01 0.10747381E+04</pdfrwt>
<totfact> 0.72940501E+01</totfact>
</mgrwt>
</event>
<event>
12    1  0.1252200E-010  0.9094106E+03  0.7818608E-02  0.9413894E-01
          2   -1    0    0  501    0  0.00000000000E+00  0.00000000000E+00  0.16685829920E+04  0.16685829920E+04  0.00000000000E+00 0. -1.
         -2   -1    0    0    0  501 -0.00000000000E+00 -0.00000000000E+00 -0.12391168088E+03  0.12391168088E+03  0.00000000000E+00 0.  1.
    9900016    2    1    2    0    0  0.71133078164E+01 -0.32695091821E+02  0.90614693577E+03  0.11530942146E+04  0.71232326249E+03 0.  0.
         23    2    3    3    0    0  0.14297090187E+03  0.18841312850E+03  0.65748346914E+03  0.70493508812E+03  0.93320847035E+02 0.  0.
         23    2    3    3    0    0 -0.11091106678E+03 -0.92523257189E+02  0.18961469174E+03  0.25469550805E+03  0.89745488133E+02 0.  0.
        -15    1    4    4    0    0  0.10075858781E+02  0.59395218681E+02  0.92703388825E+02  0.11055873205E+03  0.00000000000E+00 0.  1.
        -15    1    5    5    0    0 -0.11901066333E+03 -0.10112671534E+03  0.18475626351E+03  0.24191946479E+03  0.00000000000E+00 0.  1.
         15    1    5    5    0    0  0.80995965465E+01  0.86034581496E+01  0.48584282363E+01  0.12776043256E+02  0.00000000000E+00 0. -1.
         15    1    4    4    0    0  0.13289504309E+03  0.12901790982E+03  0.56478008032E+03  0.59437635607E+03  0.00000000000E+00 0. -1.
        -16    1    3    3    0    0  0.16128486940E+02 -0.58764357838E+02  0.88986392866E+01  0.61583793520E+02  0.00000000000E+00 0.  1.
         16    1    1    2    0    0 -0.71133078164E+01  0.32695091821E+02  0.63852437530E+03  0.63940045827E+03  0.00000000000E+00 0. -1.
    9900018    1    3    3    0    0 -0.41075014213E+02 -0.69820605290E+02  0.50150135599E+02  0.13187982488E+03  0.91187600000E+02 0.  0.
<mgrwt>
<rscale>  0 0.90941063E+03</rscale>
<asrwt>0</asrwt>
<pdfrwt beam="1">  1        2 0.25670506E+00 0.90941063E+03</pdfrwt>
<pdfrwt beam="2">  1       -2 0.19063337E-01 0.90941063E+03</pdfrwt>
<totfact> 0.23830006E+02</totfact>
</mgrwt>
</event>
<event>
12    1  0.1252200E-010  0.8327365E+03  0.7818608E-02  0.9513805E-01
         -2   -1    0    0    0  501 -0.00000000000E+00  0.00000000000E+00  0.24248613673E+03  0.24248613673E+03  0.00000000000E+00 0.  1.
          2   -1    0    0  501    0  0.00000000000E+00 -0.00000000000E+00 -0.71493794186E+03  0.71493794186E+03  0.00000000000E+00 0. -1.
    9900016    2    1    2    0    0  0.37308662737E+02  0.84613751221E+02 -0.35352679920E+03  0.80677687402E+03  0.71927484558E+03 0.  0.
         23    2    3    3    0    0  0.29975191440E+03  0.12951836172E+03 -0.11353204991E+03  0.35464837867E+03  0.79118455032E+02 0.  0.
         23    2    3    3    0    0 -0.15908019576E+03 -0.18854648023E+02 -0.23782909960E+03  0.30136438539E+03  0.92713568229E+02 0.  0.
        -15    1    5    5    0    0 -0.50824414130E+02  0.24455815475E+02 -0.32115433046E+02  0.64904614797E+02  0.00000000000E+00 0. -1.
        -15    1    4    4    0    0  0.53186242233E+02  0.46962142658E+02 -0.50526573935E+02  0.87104270157E+02  0.00000000000E+00 0. -1.
         15    1    4    4    0    0  0.24656567217E+03  0.82556219061E+02 -0.63005475980E+02  0.26754410851E+03  0.00000000000E+00 0.  1.
         15    1    5    5    0    0 -0.10825578163E+03 -0.43310463498E+02 -0.20571366655E+03  0.23645977060E+03  0.00000000000E+00 0.  1.
        -16    1    3    3    0    0  0.11904790915E+01  0.52097119421E+01 -0.65905666874E+01  0.84849224067E+01  0.00000000000E+00 0.  1.
         16    1    1    2    0    0 -0.37308662737E+02 -0.84613751221E+02 -0.11892500592E+03  0.15064720457E+03  0.00000000000E+00 0. -1.
    9900018    1    3    3    0    0 -0.10455353500E+03 -0.31259674417E+02  0.44249169968E+01  0.14227918755E+03  0.91187600000E+02 0.  0.
<mgrwt>
<rscale>  0 0.83273655E+03</rscale>
<asrwt>0</asrwt>
<pdfrwt beam="1">  1        2 0.10999045E+00 0.83273655E+03</pdfrwt>
<pdfrwt beam="2">  1       -2 0.37305560E-01 0.83273655E+03</pdfrwt>
<totfact> 0.27144249E+02</totfact>
</mgrwt>
</event>
<event>
12    1  0.1252200E-010  0.1056378E+04  0.7818608E-02  0.9248784E-01
         -1   -1    0    0    0  501 -0.00000000000E+00  0.00000000000E+00  0.22057268296E+03  0.22057268296E+03  0.00000000000E+00 0.  1.
          1   -1    0    0  501    0  0.00000000000E+00 -0.00000000000E+00 -0.12648152672E+04  0.12648152672E+04  0.00000000000E+00 0. -1.
    9900016    2    1    2    0    0 -0.21121721861E+03  0.97095912220E+02 -0.10000050585E+04  0.12487504884E+04  0.71086379546E+03 0.  0.
         23    2    3    3    0    0  0.13242777393E+02 -0.20420316648E+03 -0.41034820557E+03  0.46736867602E+03  0.90407550335E+02 0.  0.
         23    2    3    3    0    0 -0.24627156123E+03  0.27629189204E+03 -0.40918750523E+03  0.55911756265E+03  0.90504933331E+02 0.  0.
        -15    1    4    4    0    0 -0.23575528804E+02 -0.14153857444E+03 -0.32500701799E+03  0.35527248044E+03  0.00000000000E+00 0. -1.
        -15    1    5    5    0    0 -0.16351239821E+03  0.24010934716E+03 -0.30428206892E+03  0.42068560759E+03  0.00000000000E+00 0.  1.
         15    1    5    5    0    0 -0.82759163017E+02  0.36182544876E+02 -0.10490543631E+03  0.13843195507E+03  0.00000000000E+00 0. -1.
         15    1    4    4    0    0  0.36818306196E+02 -0.62664592043E+02 -0.85341187580E+02  0.11209619559E+03  0.00000000000E+00 0.  1.
        -16    1    1    2    0    0  0.21121721861E+03 -0.97095912220E+02 -0.44237525734E+02  0.23663746172E+03  0.00000000000E+00 0.  1.
         16    1    3    3    0    0 -0.85681997127E+01  0.13499104686E+02  0.15922353008E+01  0.16067827697E+02  0.00000000000E+00 0. -1.
    9900018    1    3    3    0    0  0.30379764935E+02  0.11508081976E+02 -0.18206158300E+03  0.20619642205E+03  0.91187600000E+02 0.  0.
<mgrwt>
<rscale>  0 0.10563781E+04</rscale>
<asrwt>0</asrwt>
<pdfrwt beam="1">  1        1 0.19458696E+00 0.10563781E+04</pdfrwt>
<pdfrwt beam="2">  1       -1 0.33934259E-01 0.10563781E+04</pdfrwt>
<totfact> 0.78510268E+01</totfact>
</mgrwt>
</event>
<event>
12    1  0.1252200E-010  0.1170970E+04  0.7818608E-02  0.9138653E-01
         -2   -1    0    0    0  501 -0.00000000000E+00  0.00000000000E+00  0.10143177669E+04  0.10143177669E+04  0.00000000000E+00 0.  1.
          2   -1    0    0  501    0  0.00000000000E+00 -0.00000000000E+00 -0.33795366769E+03  0.33795366769E+03  0.00000000000E+00 0. -1.
    9900016    2    1    2    0    0  0.27379699980E+03  0.25924434824E+03  0.49439450975E+03  0.93360048899E+03  0.69642767936E+03 0.  0.
         23    2    3    3    0    0 -0.10558103489E+03 -0.70062006344E+02  0.14864622414E+03  0.21071521613E+03  0.79051645755E+02 0.  0.
         23    2    3    3    0    0  0.37430820915E+02  0.18358728883E+02  0.35101708501E+02  0.10607873785E+03  0.91008018347E+02 0.  0.
        -15    1    5    5    0    0 -0.21417600536E+01 -0.34169147749E+02  0.97722581596E+01  0.35603578803E+02  0.00000000000E+00 0.  1.
        -15    1    4    4    0    0 -0.69178895685E+02 -0.65817631838E+02  0.14536292289E+03  0.17391969302E+03  0.00000000000E+00 0.  1.
         15    1    4    4    0    0 -0.36402139210E+02 -0.42443745055E+01  0.32833012478E+01  0.36795523112E+02  0.00000000000E+00 0. -1.
         15    1    5    5    0    0  0.39572580969E+02  0.52527876632E+02  0.25329450342E+02  0.70475159047E+02  0.00000000000E+00 0. -1.
        -16    1    3    3    0    0  0.22074422016E+03  0.60138647543E+02  0.19877481814E+03  0.30307770619E+03  0.00000000000E+00 0.  1.
         16    1    1    2    0    0 -0.27379699980E+03 -0.25924434824E+03  0.18196958944E+03  0.41867094558E+03  0.00000000000E+00 0. -1.
    9900018    1    3    3    0    0  0.12120299362E+03  0.25080897816E+03  0.11187175897E+03  0.31372882882E+03  0.91187600000E+02 0.  0.
<mgrwt>
<rscale>  0 0.11709695E+04</rscale>
<asrwt>0</asrwt>
<pdfrwt beam="1">  1        2 0.51992872E-01 0.11709695E+04</pdfrwt>
<pdfrwt beam="2">  1       -2 0.15604889E+00 0.11709695E+04</pdfrwt>
<totfact> 0.25582592E+01</totfact>
</mgrwt>
</event>
<event>
12    1  0.1252200E-010  0.7958298E+03  0.7818608E-02  0.9566073E-01
          2   -1    0    0  501    0  0.00000000000E+00  0.00000000000E+00  0.29400591232E+04  0.29400591232E+04  0.00000000000E+00 0.  1.
         -2   -1    0    0    0  501 -0.00000000000E+00 -0.00000000000E+00 -0.53854785293E+02  0.53854785293E+02  0.00000000000E+00 0. -1.
    9900016    2    1    2    0    0  0.67640494187E+02 -0.26264484342E+02  0.27179706403E+04  0.28106991803E+04  0.71232044854E+03 0.  0.
         23    2    3    3    0    0 -0.95074862912E+02 -0.98271126206E+02  0.84437121471E+03  0.86013340559E+03  0.90389619821E+02 0.  0.
         23    2    3    3    0    0  0.90343288295E+02  0.29642298864E+02  0.52895774631E+03  0.54410407189E+03  0.84925661910E+02 0.  0.
        -15    1    5    5    0    0 -0.49184329963E+01 -0.19626283592E+02  0.82108071306E+02  0.84564279482E+02  0.00000000000E+00 0. -1.
        -15    1    4    4    0    0  0.61209733666E+01 -0.52342157378E+02  0.25912336755E+03  0.26442784908E+03  0.00000000000E+00 0.  1.
         15    1    4    4    0    0 -0.10119583628E+03 -0.45928968828E+02  0.58524784716E+03  0.59570555651E+03  0.00000000000E+00 0. -1.
         15    1    5    5    0    0  0.95261721291E+02  0.49268582456E+02  0.44684967500E+03  0.45953979241E+03  0.00000000000E+00 0.  1.
        -16    1    3    3    0    0 -0.10125466150E+03  0.91016016723E+02  0.98142759810E+03  0.99082619671E+03  0.00000000000E+00 0.  1.
         16    1    1    2    0    0 -0.67640494187E+02  0.26264484342E+02  0.16823369764E+03  0.18321472816E+03  0.00000000000E+00 0. -1.
    9900018    1    3    3    0    0  0.17362673030E+03 -0.48651673723E+02  0.36321408116E+03  0.41563550616E+03  0.91187600000E+02 0.  0.
<mgrwt>
<rscale>  0 0.79582976E+03</rscale>
<asrwt>0</asrwt>
<pdfrwt beam="1">  1        2 0.45231666E+00 0.79582976E+03</pdfrwt>
<pdfrwt beam="2">  1       -2 0.82853539E-02 0.79582976E+03</pdfrwt>
<totfact> 0.18495917E+02</totfact>
</mgrwt>
</event>
<event>
12    1  0.1541011E-010  0.1088962E+04  0.7818608E-02  0.9216018E-01
          2   -1    0    0  501    0  0.00000000000E+00  0.00000000000E+00  0.15425629161E+04  0.15425629161E+04  0.00000000000E+00 0. -1.
         -2   -1    0    0    0  501 -0.00000000000E+00 -0.00000000000E+00 -0.19218635868E+03  0.19218635868E+03  0.00000000000E+00 0.  1.
    9900016    2    1    2    0    0  0.87411788698E+02 -0.79205843758E+02  0.14243689398E+04  0.15955039547E+04  0.70914850802E+03 0.  0.
         23    2    3    3    0    0 -0.43832193951E+02 -0.15321921190E+03  0.15682819755E+03  0.24144481226E+03  0.91121488682E+02 0.  0.
         23    2    3    3    0    0 -0.47594250729E+01  0.12155329928E+03  0.32640495811E+03  0.35977570291E+03  0.90002794608E+02 0.  0.
        -15    1    4    4    0    0 -0.25428690516E+02 -0.53106602704E+02  0.55942463524E+01  0.59145795661E+02  0.00000000000E+00 0.  1.
        -15    1    5    5    0    0 -0.44987606178E+02  0.59601129430E+02  0.19838440176E+03  0.21197299403E+03  0.00000000000E+00 0. -1.
         15    1    4    4    0    0 -0.18403503435E+02 -0.10011260920E+03  0.15123395120E+03  0.18229901660E+03  0.00000000000E+00 0. -1.
         15    1    5    5    0    0  0.40228181105E+02  0.61952169854E+02  0.12802055635E+03  0.14780270888E+03  0.00000000000E+00 0.  1.
        -16    1    1    2    0    0 -0.87411788698E+02  0.79205843758E+02 -0.73992382416E+02  0.13924532001E+03  0.00000000000E+00 0.  1.
         16    1    3    3    0    0  0.19732589065E+03 -0.32335738868E+02  0.71451174831E+03  0.74196370909E+03  0.00000000000E+00 0. -1.
    9900018    1    3    3    0    0 -0.61322482924E+02 -0.15204192272E+02  0.22662403584E+03  0.25231973048E+03  0.91187600000E+02 0.  0.
<mgrwt>
<rscale>  0 0.10889620E+04</rscale>
<asrwt>0</asrwt>
<pdfrwt beam="1">  1        2 0.23731736E+00 0.10889620E+04</pdfrwt>
<pdfrwt beam="2">  1       -2 0.29567133E-01 0.10889620E+04</pdfrwt>
<totfact> 0.12564953E+02</totfact>
</mgrwt>
</event>
<event>
12    1  0.1252200E-010  0.1210635E+04  0.7818608E-02  0.9103598E-01
         -2   -1    0    0    0  501 -0.00000000000E+00  0.00000000000E+00  0.40869873322E+03  0.40869873322E+03  0.00000000000E+00 0.  1.
          2   -1    0    0  501    0  0.00000000000E+00 -0.00000000000E+00 -0.89652684033E+03  0.89652684033E+03  0.00000000000E+00 0. -1.
    9900016    2    1    2    0    0 -0.25063471488E+03 -0.25538961580E+03 -0.15053358655E+03  0.81348457489E+03  0.71488123261E+03 0.  0.
         23    2    3    3    0    0 -0.91098987518E+02  0.44444954473E+02 -0.60829751801E+02  0.14901579743E+03  0.90725242772E+02 0.  0.
         23    2    3    3    0    0 -0.71334317112E+02 -0.36325307724E+03 -0.13464936176E+03  0.40450743586E+03  0.91947985956E+02 0.  0.
        -15    1    4    4    0    0 -0.73847785222E+02  0.40029537244E+02  0.16832112080E+01  0.84016024865E+02  0.00000000000E+00 0.  1.
        -15    1    5    5    0    0 -0.76219053228E+02 -0.15152324440E+03 -0.62784295112E+02  0.18086045831E+03  0.00000000000E+00 0. -1.
         15    1    4    4    0    0 -0.17251202296E+02  0.44154172285E+01 -0.62512963009E+02  0.64999772570E+02  0.00000000000E+00 0. -1.
         15    1    5    5    0    0  0.48847361166E+01 -0.21172983284E+03 -0.71865066650E+02  0.22364697755E+03  0.00000000000E+00 0.  1.
        -16    1    1    2    0    0  0.25063471488E+03  0.25538961580E+03 -0.33729452056E+03  0.49174099866E+03  0.00000000000E+00 0.  1.
         16    1    3    3    0    0 -0.51386200793E+02 -0.17449537332E+02 -0.69903328704E+02  0.88495781532E+02  0.00000000000E+00 0. -1.
    9900018    1    3    3    0    0 -0.36815209453E+02  0.80868044298E+02  0.11484885571E+03  0.17146556006E+03  0.91187600000E+02 0.  0.
<mgrwt>
<rscale>  0 0.12106352E+04</rscale>
<asrwt>0</asrwt>
<pdfrwt beam="1">  1        2 0.13792720E+00 0.12106352E+04</pdfrwt>
<pdfrwt beam="2">  1       -2 0.62876729E-01 0.12106352E+04</pdfrwt>
<totfact> 0.68169034E+01</totfact>
</mgrwt>
</event>
<event>
12    1  0.1252200E-010  0.1403150E+04  0.7818608E-02  0.8951542E-01
         -2   -1    0    0    0  501 -0.00000000000E+00  0.00000000000E+00  0.88777239683E+03  0.88777239683E+03  0.00000000000E+00 0.  1.
          2   -1    0    0  501    0  0.00000000000E+00 -0.00000000000E+00 -0.55442975494E+03  0.55442975494E+03  0.00000000000E+00 0. -1.
    9900016    2    1    2    0    0  0.44383034023E+03  0.23101794010E+03  0.71883327330E+02  0.87765309923E+03  0.71746295395E+03 0.  0.
         23    2    3    3    0    0  0.89516762046E+01  0.10578793551E+03  0.11455940814E+03  0.17629987040E+03  0.81771428403E+02 0.  0.
         23    2    3    3    0    0  0.15896532689E+03  0.23484840222E+02 -0.15231334343E+02  0.18549708894E+03  0.91409318934E+02 0.  0.
        -15    1    4    4    0    0  0.44985598093E+02  0.56460521369E+02  0.71149686992E+02  0.10135961951E+03  0.00000000000E+00 0.  1.
        -15    1    5    5    0    0  0.51940137660E+02 -0.25692373685E+02  0.21980263752E+02  0.61975865951E+02  0.00000000000E+00 0.  1.
         15    1    4    4    0    0 -0.36033921889E+02  0.49327414144E+02  0.43409721149E+02  0.74940250888E+02  0.00000000000E+00 0. -1.
         15    1    5    5    0    0  0.10702518923E+03  0.49177213907E+02 -0.37211598095E+02  0.12352122299E+03  0.00000000000E+00 0. -1.
        -16    1    1    2    0    0 -0.44383034023E+03 -0.23101794010E+03  0.26145931456E+03  0.56454905254E+03  0.00000000000E+00 0.  1.
         16    1    3    3    0    0  0.29122385969E+03  0.11753225432E+03  0.12406095980E+03  0.33766298139E+03  0.00000000000E+00 0. -1.
    9900018    1    3    3    0    0 -0.15310522551E+02 -0.15787089953E+02 -0.15150570626E+03  0.17819315849E+03  0.91187600000E+02 0.  0.
<mgrwt>
<rscale>  0 0.14031499E+04</rscale>
<asrwt>0</asrwt>
<pdfrwt beam="1">  1        2 0.85296885E-01 0.14031499E+04</pdfrwt>
<pdfrwt beam="2">  1       -2 0.13658037E+00 0.14031499E+04</pdfrwt>
<totfact> 0.20306533E+01</totfact>
</mgrwt>
</event>
<event>
12    1  0.1252200E-010  0.9035826E+03  0.7818608E-02  0.9421114E-01
          2   -1    0    0  501    0  0.00000000000E+00  0.00000000000E+00  0.93937922154E+03  0.93937922154E+03  0.00000000000E+00 0. -1.
         -2   -1    0    0    0  501 -0.00000000000E+00 -0.00000000000E+00 -0.21728753675E+03  0.21728753675E+03  0.00000000000E+00 0.  1.
    9900016    2    1    2    0    0 -0.13997802121E+03 -0.96991866868E+02  0.64905384283E+03  0.97136755425E+03  0.70234091856E+03 0.  0.
         23    2    3    3    0    0  0.24075335118E+02  0.27692441616E+02 -0.53356181820E+02  0.11193100132E+03  0.91297173200E+02 0.  0.
         23    2    3    3    0    0 -0.32806465181E+02 -0.12549948364E+03  0.16393269497E+03  0.22834220318E+03  0.91868649271E+02 0.  0.
        -15    1    5    5    0    0 -0.32819305915E+01 -0.12745814684E+03  0.11813086023E+03  0.17381383836E+03  0.00000000000E+00 0.  1.
        -15    1    4    4    0    0  0.18669816141E+02 -0.20032527575E+02  0.12759892028E+02  0.30210578286E+02  0.00000000000E+00 0.  1.
         15    1    5    5    0    0 -0.29524534589E+02  0.19586632035E+01  0.45801834742E+02  0.54528364821E+02  0.00000000000E+00 0. -1.
         15    1    4    4    0    0  0.54055189771E+01  0.47724969192E+02 -0.66116073848E+02  0.81720423034E+02  0.00000000000E+00 0. -1.
        -16    1    1    2    0    0  0.13997802121E+03  0.96991866868E+02  0.73037841951E+02  0.18529920404E+03  0.00000000000E+00 0.  1.
         16    1    3    3    0    0 -0.26087416889E+02  0.32889106698E+02  0.47144524647E+03  0.47331053979E+03  0.00000000000E+00 0. -1.
    9900018    1    3    3    0    0 -0.10515947426E+03 -0.32073931542E+02  0.67032083214E+02  0.15778380996E+03  0.91187600000E+02 0.  0.
<mgrwt>
<rscale>  0 0.90358264E+03</rscale>
<asrwt>0</asrwt>
<pdfrwt beam="1">  1        2 0.14451988E+00 0.90358264E+03</pdfrwt>
<pdfrwt beam="2">  1       -2 0.33428852E-01 0.90358264E+03</pdfrwt>
<totfact> 0.23104434E+02</totfact>
</mgrwt>
</event>
<event>
12    1  0.1252200E-010  0.1745696E+04  0.7818608E-02  0.8735723E-01
         -1   -1    0    0    0  501 -0.00000000000E+00  0.00000000000E+00  0.53231135325E+03  0.53231135325E+03  0.00000000000E+00 0.  1.
          1   -1    0    0  501    0  0.00000000000E+00 -0.00000000000E+00 -0.14312365140E+04  0.14312365140E+04  0.00000000000E+00 0. -1.
    9900016    2    1    2    0    0  0.59114924520E+03 -0.25992529425E+02 -0.99541096175E+03  0.13640125876E+04  0.72080116174E+03 0.  0.
         23    2    3    3    0    0  0.15763373996E+03  0.50947309893E+02 -0.49461111584E+03  0.52930836781E+03  0.89906440079E+02 0.  0.
         23    2    3    3    0    0  0.14205025710E+03  0.22214056846E+02 -0.58810159635E+02  0.18406807507E+03  0.98745539244E+02 0.  0.
        -15    1    5    5    0    0  0.14933254117E+03 -0.17369567384E+01 -0.48907231667E+02  0.15714688091E+03  0.00000000000E+00 0. -1.
        -15    1    4    4    0    0  0.73778176484E+02  0.68402036414E+02 -0.22627762703E+03  0.24763606846E+03  0.00000000000E+00 0.  1.
         15    1    4    4    0    0  0.83855563473E+02 -0.17454726521E+02 -0.26833348881E+03  0.28167229935E+03  0.00000000000E+00 0. -1.
         15    1    5    5    0    0 -0.72822840646E+01  0.23951013584E+02 -0.99029279686E+01  0.26921194165E+02  0.00000000000E+00 0.  1.
        -16    1    1    2    0    0 -0.59114924520E+03  0.25992529425E+02  0.96485801020E+02  0.59953527960E+03  0.00000000000E+00 0.  1.
         16    1    3    3    0    0  0.10855764094E+03  0.54406442877E+02  0.19585144910E+02  0.12299756231E+03  0.00000000000E+00 0. -1.
    9900018    1    3    3    0    0  0.18290760720E+03 -0.15356033904E+03 -0.46157483118E+03  0.52763858243E+03  0.91187600000E+02 0.  0.
<mgrwt>
<rscale>  0 0.17456958E+04</rscale>
<asrwt>0</asrwt>
<pdfrwt beam="1">  1        1 0.22019023E+00 0.17456958E+04</pdfrwt>
<pdfrwt beam="2">  1       -1 0.81894056E-01 0.17456958E+04</pdfrwt>
<totfact> 0.10273963E+01</totfact>
</mgrwt>
</event>
<event>
12    1  0.1252200E-010  0.1584843E+04  0.7818608E-02  0.8829914E-01
          1   -1    0    0  501    0  0.00000000000E+00  0.00000000000E+00  0.12298462817E+04  0.12298462817E+04  0.00000000000E+00 0. -1.
         -1   -1    0    0    0  501 -0.00000000000E+00 -0.00000000000E+00 -0.51057737263E+03  0.51057737263E+03  0.00000000000E+00 0.  1.
    9900016    2    1    2    0    0  0.58844355557E+03  0.73693096347E+02  0.17936055078E+03  0.93842769056E+03  0.70482610103E+03 0.  0.
         23    2    3    3    0    0  0.21616970101E+03 -0.13132653648E+03 -0.82749527957E+02  0.28079269533E+03  0.89560340303E+02 0.  0.
         23    2    3    3    0    0  0.45436550129E+02  0.92818322584E+02  0.92528333099E+02  0.16510402330E+03  0.89543983539E+02 0.  0.
        -15    1    4    4    0    0  0.13860929490E+03 -0.32202947640E+02 -0.39065746476E+02  0.14756591415E+03  0.00000000000E+00 0. -1.
        -15    1    5    5    0    0  0.10836039169E+02 -0.84369141447E+01  0.46738705801E+02  0.48714555167E+02  0.00000000000E+00 0.  1.
         15    1    4    4    0    0  0.77560406105E+02 -0.99123588840E+02 -0.43683781480E+02  0.13322678118E+03  0.00000000000E+00 0.  1.
         15    1    5    5    0    0  0.34600510960E+02  0.10125523673E+03  0.45789627298E+02  0.11638946813E+03  0.00000000000E+00 0. -1.
        -16    1    3    3    0    0 -0.48443665049E+02  0.40818907226E+02 -0.32737378761E+01  0.63432556548E+02  0.00000000000E+00 0.  1.
         16    1    1    2    0    0 -0.58844355557E+03 -0.73693096347E+02  0.53990835833E+03  0.80199596379E+03  0.00000000000E+00 0. -1.
    9900018    1    3    3    0    0  0.37528096948E+03  0.71382403016E+02  0.17285548351E+03  0.42909841539E+03  0.91187600000E+02 0.  0.
<mgrwt>
<rscale>  0 0.15848428E+04</rscale>
<asrwt>0</asrwt>
<pdfrwt beam="1">  1        1 0.18920712E+00 0.15848428E+04</pdfrwt>
<pdfrwt beam="2">  1       -1 0.78550365E-01 0.15848428E+04</pdfrwt>
<totfact> 0.15836084E+01</totfact>
</mgrwt>
</event>
<event>
12    1  0.1252200E-010  0.1240723E+04  0.7818608E-02  0.9077940E-01
          2   -1    0    0  501    0  0.00000000000E+00  0.00000000000E+00  0.92693661219E+03  0.92693661219E+03  0.00000000000E+00 0. -1.
         -2   -1    0    0    0  501 -0.00000000000E+00 -0.00000000000E+00 -0.41518293239E+03  0.41518293239E+03  0.00000000000E+00 0.  1.
    9900016    2    1    2    0    0  0.48502986730E+02  0.29481512338E+03  0.32936316909E+02  0.77773088088E+03  0.71729493614E+03 0.  0.
         23    2    3    3    0    0  0.38287943710E+02  0.13391417232E+03 -0.56614015286E+02  0.17613372123E+03  0.91754939096E+02 0.  0.
         23    2    3    3    0    0 -0.17773992030E+03  0.11608410883E+02  0.17128207826E+02  0.20145235201E+03  0.92538857537E+02 0.  0.
        -15    1    4    4    0    0  0.49083604575E+02  0.12160499650E+03 -0.15710293598E+02  0.13207493606E+03  0.00000000000E+00 0. -1.
        -15    1    5    5    0    0 -0.11168388695E+03 -0.26896416632E+02  0.40006076449E+02  0.12164371741E+03  0.00000000000E+00 0. -1.
         15    1    4    4    0    0 -0.10795660865E+02  0.12309175819E+02 -0.40903721688E+02  0.44058785171E+02  0.00000000000E+00 0.  1.
         15    1    5    5    0    0 -0.66056033356E+02  0.38504827515E+02 -0.22877868623E+02  0.79808634604E+02  0.00000000000E+00 0.  1.
        -16    1    3    3    0    0  0.15487266713E+03 -0.50361294171E+02 -0.10493216396E+02  0.16319286310E+03  0.00000000000E+00 0.  1.
         16    1    1    2    0    0 -0.48502986730E+02 -0.29481512338E+03  0.47881736290E+03  0.56438866370E+03  0.00000000000E+00 0. -1.
    9900018    1    3    3    0    0  0.33082296190E+02  0.19965383436E+03  0.82915340765E+02  0.23695194454E+03  0.91187600000E+02 0.  0.
<mgrwt>
<rscale>  0 0.12407228E+04</rscale>
<asrwt>0</asrwt>
<pdfrwt beam="1">  1        2 0.14260563E+00 0.12407228E+04</pdfrwt>
<pdfrwt beam="2">  1       -2 0.63874297E-01 0.12407228E+04</pdfrwt>
<totfact> 0.62749246E+01</totfact>
</mgrwt>
</event>
<event>
12    1  0.1252200E-010  0.9515057E+03  0.7818608E-02  0.9363392E-01
         -1   -1    0    0    0  501 -0.00000000000E+00  0.00000000000E+00  0.15294298843E+03  0.15294298843E+03  0.00000000000E+00 0.  1.
          1   -1    0    0  501    0  0.00000000000E+00 -0.00000000000E+00 -0.14799029565E+04  0.14799029565E+04  0.00000000000E+00 0. -1.
    9900016    2    1    2    0    0  0.14350195567E+03 -0.15923332831E+02 -0.12891536090E+04  0.14835955359E+04  0.71992522030E+03 0.  0.
         23    2    3    3    0    0 -0.11140455430E+03  0.14134817679E+03 -0.61267130899E+03  0.64505509150E+03  0.91321719258E+02 0.  0.
         23    2    3    3    0    0  0.13262529881E+03 -0.12829846530E+03 -0.10540834422E+03  0.23106081621E+03  0.90709512579E+02 0.  0.
        -15    1    4    4    0    0 -0.39345104744E+02  0.82963118070E+02 -0.43553376121E+03  0.44510737287E+03  0.00000000000E+00 0.  1.
        -15    1    5    5    0    0  0.11606972502E+03 -0.12577868578E+03 -0.57886336153E+02  0.18067453273E+03  0.00000000000E+00 0.  1.
         15    1    5    5    0    0  0.16555573790E+02 -0.25197795204E+01 -0.47522008065E+02  0.50386283479E+02  0.00000000000E+00 0. -1.
         15    1    4    4    0    0 -0.72059449561E+02  0.58385058717E+02 -0.17713754778E+03  0.19994771863E+03  0.00000000000E+00 0. -1.
        -16    1    1    2    0    0 -0.14350195567E+03  0.15923332831E+02 -0.37806359110E+02  0.14925040904E+03  0.00000000000E+00 0.  1.
         16    1    3    3    0    0  0.84392002955E+02  0.32700407076E+02 -0.23632933768E+03  0.25306695287E+03  0.00000000000E+00 0. -1.
    9900018    1    3    3    0    0  0.37889208203E+02 -0.61673451393E+02 -0.33474461806E+03  0.35441267531E+03  0.91187600000E+02 0.  0.
<mgrwt>
<rscale>  0 0.95150571E+03</rscale>
<asrwt>0</asrwt>
<pdfrwt beam="1">  1        1 0.22767738E+00 0.95150571E+03</pdfrwt>
<pdfrwt beam="2">  1       -1 0.23529691E-01 0.95150571E+03</pdfrwt>
<totfact> 0.10554462E+02</totfact>
</mgrwt>
</event>
<event>
12    1  0.1252200E-010  0.8615056E+03  0.7818608E-02  0.9475023E-01
         -2   -1    0    0    0  501 -0.00000000000E+00  0.00000000000E+00  0.13251973817E+03  0.13251973817E+03  0.00000000000E+00 0.  1.
          2   -1    0    0  501    0  0.00000000000E+00 -0.00000000000E+00 -0.14001535725E+04  0.14001535725E+04  0.00000000000E+00 0. -1.
    9900016    2    1    2    0    0  0.36933288549E+02 -0.11911013298E+03 -0.97786218563E+03  0.12172071477E+04  0.71402205481E+03 0.  0.
         23    2    3    3    0    0 -0.18246054761E+03  0.94895858796E+02 -0.40168289670E+03  0.46061366233E+03  0.92296917473E+02 0.  0.
         23    2    3    3    0    0 -0.25961632137E+02 -0.22176206730E+02 -0.15998840716E+03  0.18719394632E+03  0.90991717341E+02 0.  0.
        -15    1    5    5    0    0 -0.41793830494E+02  0.17393865816E+02 -0.42029911214E+02  0.61772034708E+02  0.00000000000E+00 0. -1.
        -15    1    4    4    0    0 -0.14459429142E+03  0.31175247946E+02 -0.22803595063E+03  0.27180838835E+03  0.00000000000E+00 0.  1.
         15    1    4    4    0    0 -0.37866256184E+02  0.63720610850E+02 -0.17364694607E+03  0.18880527398E+03  0.00000000000E+00 0. -1.
         15    1    5    5    0    0  0.15832198357E+02 -0.39570072546E+02 -0.11795849595E+03  0.12542191161E+03  0.00000000000E+00 0.  1.
        -16    1    1    2    0    0 -0.36933288549E+02  0.11911013298E+03 -0.28977164870E+03  0.31546616296E+03  0.00000000000E+00 0.  1.
         16    1    3    3    0    0  0.79922400608E+02 -0.21380304108E+02 -0.13443661337E+01  0.82743669504E+02  0.00000000000E+00 0. -1.
    9900018    1    3    3    0    0  0.16543306769E+03 -0.17044948094E+03 -0.41484651564E+03  0.48665586955E+03  0.91187600000E+02 0.  0.
<mgrwt>
<rscale>  0 0.86150562E+03</rscale>
<asrwt>0</asrwt>
<pdfrwt beam="1">  1        2 0.21540823E+00 0.86150562E+03</pdfrwt>
<pdfrwt beam="2">  1       -2 0.20387654E-01 0.86150562E+03</pdfrwt>
<totfact> 0.30003413E+02</totfact>
</mgrwt>
</event>
