<event>
11    1  0.2460266E-014  0.2384352E+04  0.7818608E-02  0.9241022E-01
         -1   -1    0    0    0  501 -0.00000000000E+00  0.00000000000E+00  0.72018032824E+03  0.72018032824E+03  0.00000000000E+00 0.  1.
          1   -1    0    0  501    0  0.00000000000E+00 -0.00000000000E+00 -0.21416344744E+04  0.21416344744E+04  0.00000000000E+00 0. -1.
         23    2    1    2    0    0  0.16285309611E+02  0.13184942644E+02 -0.21866074867E+02  0.97039544232E+02  0.92192699781E+02 0.  0.
    9900016    2    1    2    0    0  0.13403863813E+02 -0.14105019178E+03 -0.13418003541E+04  0.26213514486E+04  0.22474386324E+04 0.  0.
        -15    1    4    4    0    0  0.10576982678E+03  0.13538405810E+03  0.29132530463E+03  0.33821078126E+03  0.00000000000E+00 0.  1.
        -15    1    3    3    0    0  0.45849016293E+02  0.32026984699E+02 -0.26117562811E+02  0.61725093205E+02  0.00000000000E+00 0. -1.
         15    1    4    4    0    0 -0.42891666141E+03 -0.26442250330E+03 -0.16979164911E+04  0.17711039420E+04  0.00000000000E+00 0. -1.
         15    1    3    3    0    0 -0.29563706682E+02 -0.18842042056E+02  0.42514879433E+01  0.35314451027E+02  0.00000000000E+00 0.  1.
        -16    1    1    2    0    0 -0.29689173424E+02  0.12786524914E+03 -0.57787717131E+02  0.14342380976E+03  0.00000000000E+00 0.  1.
         16    1    4    4    0    0  0.32089284008E+03  0.19245482321E+02  0.17399341375E+03  0.36553565002E+03  0.00000000000E+00 0. -1.
    9900018    1    4    4    0    0  0.15657858365E+02 -0.31257228902E+02 -0.10920258144E+03  0.14650107533E+03  0.91187600000E+02 0.  0.
<mgrwt>
<rscale>  0 0.10639866E+04</rscale>
<asrwt>0</asrwt>
<pdfrwt beam="1">  1        1 0.32948223E+00 0.23843522E+04</pdfrwt>
<pdfrwt beam="2">  1       -1 0.11079697E+00 0.23843522E+04</pdfrwt>
<totfact> 0.16021844E+00</totfact>
</mgrwt>
</event>
<event>
12    1  0.2460266E-014  0.3218738E+04  0.7818608E-02  0.8725754E-01
         -1   -1    0    0    0  501 -0.00000000000E+00  0.00000000000E+00  0.15358593814E+04  0.15358593814E+04  0.00000000000E+00 0.  1.
          1   -1    0    0  501    0  0.00000000000E+00 -0.00000000000E+00 -0.20042910029E+04  0.20042910029E+04  0.00000000000E+00 0. -1.
         23    2    1    2    0    0  0.26891335697E+03 -0.42336048302E+02 -0.41215197536E+02  0.29318402413E+03  0.10075437934E+03 0.  0.
    9900016    2    1    2    0    0 -0.60352590495E+03 -0.51147764640E+03  0.14875190072E+03  0.23807015757E+04  0.22404820830E+04 0.  0.
        -24    2    4    4    0    0 -0.27777673915E+02 -0.11145893056E+04 -0.52174954495E+03  0.12355335265E+04  0.10601692321E+03 0.  0.
        -15    1    4    4    0    0 -0.55116570859E+03  0.62036794224E+03  0.62527474849E+03  0.10390421229E+04  0.00000000000E+00 0.  1.
        -15    1    3    3    0    0 -0.29871862201E+01 -0.16304076358E+02  0.18035375824E+01  0.16673300070E+02  0.00000000000E+00 0.  1.
         15    1    5    5    0    0 -0.53972893312E+02 -0.31976079131E+03 -0.16656971828E+03  0.36456207691E+03  0.00000000000E+00 0. -1.
         15    1    3    3    0    0  0.27190054319E+03 -0.26031971944E+02 -0.43018735119E+02  0.27651072406E+03  0.00000000000E+00 0. -1.
        -16    1    5    5    0    0  0.26195219397E+02 -0.79482851430E+03 -0.35517982667E+03  0.87097144955E+03  0.00000000000E+00 0.  1.
         16    1    1    2    0    0  0.33461254798E+03  0.55381369470E+03 -0.57596832473E+03  0.86626478446E+03  0.00000000000E+00 0. -1.
    9900018    1    4    4    0    0 -0.24582522447E+02 -0.17256283028E+02  0.45226697181E+02  0.10612592636E+03  0.91187600000E+02 0.  0.
<mgrwt>
<rscale>  0 0.17638667E+04</rscale>
<asrwt>0</asrwt>
<pdfrwt beam="1">  1        1 0.30835246E+00 0.32187384E+04</pdfrwt>
<pdfrwt beam="2">  1       -1 0.23628606E+00 0.32187384E+04</pdfrwt>
<totfact> 0.20998820E-01</totfact>
</mgrwt>
</event>
<event>
12    1  0.2460266E-014  0.3354715E+04  0.7818608E-02  0.8832165E-01
          1   -1    0    0  501    0  0.00000000000E+00  0.00000000000E+00  0.24667576015E+04  0.24667576015E+04  0.00000000000E+00 0. -1.
         -1   -1    0    0    0  501 -0.00000000000E+00 -0.00000000000E+00 -0.12650954826E+04  0.12650954826E+04  0.00000000000E+00 0.  1.
         23    2    1    2    0    0  0.57371704145E+02 -0.12515194172E+03 -0.78286235468E+01  0.16576539992E+03  0.91991083862E+02 0.  0.
    9900016    2    1    2    0    0  0.70821206023E+03 -0.20496549968E+03  0.39438431731E+03  0.23021378432E+04  0.21449299479E+04 0.  0.
        -24    2    4    4    0    0  0.13652837503E+04 -0.57349869377E+03  0.82142077053E+02  0.14866287154E+04  0.10206442103E+03 0.  0.
        -15    1    3    3    0    0  0.33637244541E+02 -0.37425867522E+02 -0.45067489539E+02  0.67551746043E+02  0.00000000000E+00 0. -1.
        -15    1    4    4    0    0 -0.65707169005E+03  0.36853319409E+03  0.31224224026E+03  0.81550912786E+03  0.00000000000E+00 0.  1.
         15    1    3    3    0    0  0.23734459604E+02 -0.87726074198E+02  0.37238865992E+02  0.98213653874E+02  0.00000000000E+00 0.  1.
         15    1    5    5    0    0  0.95229154813E+03 -0.34931387036E+03  0.64333619788E+02  0.10163750230E+04  0.00000000000E+00 0. -1.
        -16    1    5    5    0    0  0.41299220215E+03 -0.22418482341E+03  0.17808457266E+02  0.47025369243E+03  0.00000000000E+00 0.  1.
         16    1    1    2    0    0 -0.76713744981E+03  0.38325245528E+03  0.75464059419E+03  0.11423067617E+04  0.00000000000E+00 0. -1.
    9900018    1    1    2    0    0  0.15536854390E+01 -0.53135013876E+02  0.60465830867E+02  0.12164307927E+03  0.91187600000E+02 0.  0.
<mgrwt>
<rscale>  0 0.15812262E+04</rscale>
<asrwt>0</asrwt>
<pdfrwt beam="1">  1        1 0.37950117E+00 0.33547151E+04</pdfrwt>
<pdfrwt beam="2">  1       -1 0.19463007E+00 0.33547151E+04</pdfrwt>
<totfact> 0.19226478E-01</totfact>
</mgrwt>
</event>
<event>
12    1  0.2460266E-014  0.2726451E+04  0.7818608E-02  0.8939369E-01
          1   -1    0    0  501    0  0.00000000000E+00  0.00000000000E+00  0.26306024613E+04  0.26306024613E+04  0.00000000000E+00 0. -1.
         -1   -1    0    0    0  501 -0.00000000000E+00 -0.00000000000E+00 -0.81467085185E+03  0.81467085185E+03  0.00000000000E+00 0.  1.
         23    2    1    2    0    0  0.16479624838E+03 -0.68598484000E+02  0.10574294056E+03  0.22684499850E+03  0.91725287575E+02 0.  0.
    9900016    2    1    2    0    0 -0.31647666522E+03 -0.26304444800E+03  0.11627975430E+04  0.25606813816E+04  0.22440234292E+04 0.  0.
        -24    2    4    4    0    0 -0.65945440413E+03 -0.98953741161E+03  0.11360796794E+04  0.16476187454E+04  0.99529352970E+02 0.  0.
        -15    1    4    4    0    0  0.35233765839E+03  0.70730436220E+03 -0.50307396044E+02  0.79180308184E+03  0.00000000000E+00 0.  1.
        -15    1    3    3    0    0  0.35473124119E+02  0.15399704070E+02 -0.20045490512E+01  0.38723528211E+02  0.00000000000E+00 0.  1.
         15    1    5    5    0    0 -0.31147773679E+03 -0.55409093772E+03  0.58815220098E+03  0.86600124670E+03  0.00000000000E+00 0. -1.
         15    1    3    3    0    0  0.12932312426E+03 -0.83998188070E+02  0.10774748961E+03  0.18812147029E+03  0.00000000000E+00 0. -1.
        -16    1    5    5    0    0 -0.34797666734E+03 -0.43544647390E+03  0.54792747844E+03  0.78161749870E+03  0.00000000000E+00 0.  1.
         16    1    1    2    0    0  0.15168041684E+03  0.33164293200E+03  0.54739112588E+03  0.65774693302E+03  0.00000000000E+00 0. -1.
    9900018    1    4    4    0    0 -0.93599194783E+01  0.19188601411E+02  0.77025259656E+02  0.12125955441E+03  0.91187600000E+02 0.  0.
<mgrwt>
<rscale>  0 0.14201380E+04</rscale>
<asrwt>0</asrwt>
<pdfrwt beam="1">  1        1 0.40470807E+00 0.27264511E+04</pdfrwt>
<pdfrwt beam="2">  1       -1 0.12533398E+00 0.27264511E+04</pdfrwt>
<totfact> 0.52841981E-01</totfact>
</mgrwt>
</event>
<event>
12    1  0.2460266E-014  0.3612345E+04  0.7818608E-02  0.8762315E-01
         -1   -1    0    0    0  501 -0.00000000000E+00  0.00000000000E+00  0.24499339437E+04  0.24499339437E+04  0.00000000000E+00 0.  1.
          1   -1    0    0  501    0  0.00000000000E+00 -0.00000000000E+00 -0.14787861282E+04  0.14787861282E+04  0.00000000000E+00 0. -1.
         23    2    1    2    0    0  0.14730340199E+03 -0.36605835617E+02 -0.32681369301E+02  0.17949196713E+03  0.90061173241E+02 0.  0.
    9900016    2    1    2    0    0 -0.79587437525E+03 -0.10088342655E+03 -0.64227758505E+02  0.22993960833E+04  0.21539507088E+04 0.  0.
         24    2    4    4    0    0  0.29753115404E+02 -0.66211456755E+03  0.75430077634E+03  0.10084157932E+04  0.93015065528E+02 0.  0.
        -15    1    5    5    0    0 -0.18799330706E+02 -0.33510069673E+03  0.42806399272E+03  0.54395282300E+03  0.00000000000E+00 0.  1.
        -15    1    3    3    0    0 -0.55765625343E+01  0.13701655553E+02 -0.75128062884E+01  0.16591433721E+02  0.00000000000E+00 0.  1.
         15    1    3    3    0    0  0.15287996452E+03 -0.50307491170E+02 -0.25168563013E+02  0.16290053341E+03  0.00000000000E+00 0. -1.
         15    1    4    4    0    0 -0.82562749066E+03  0.56123114101E+03 -0.81852853485E+03  0.12909802901E+04  0.00000000000E+00 0. -1.
        -16    1    1    2    0    0  0.71169367834E+03  0.15436824987E+03  0.11120920485E+04  0.13293179351E+04  0.00000000000E+00 0.  1.
         16    1    5    5    0    0  0.48552446110E+02 -0.32701387083E+03  0.32623678362E+03  0.46446297024E+03  0.00000000000E+00 0. -1.
    9900018    1    1    2    0    0 -0.63122705073E+02 -0.16878987705E+02 -0.44035105175E+02  0.12051408633E+03  0.91187600000E+02 0.  0.
<mgrwt>
<rscale>  0 0.16983335E+04</rscale>
<asrwt>0</asrwt>
<pdfrwt beam="1">  1        1 0.22750556E+00 0.36123453E+04</pdfrwt>
<pdfrwt beam="2">  1       -1 0.37691291E+00 0.36123453E+04</pdfrwt>
<totfact> 0.55741308E-02</totfact>
</mgrwt>
</event>
<event>
12    1  0.2460266E-014  0.3279952E+04  0.7818608E-02  0.8852553E-01
          1   -1    0    0  501    0  0.00000000000E+00  0.00000000000E+00  0.20110545226E+04  0.20110545226E+04  0.00000000000E+00 0. -1.
         -1   -1    0    0    0  501 -0.00000000000E+00 -0.00000000000E+00 -0.15692321857E+04  0.15692321857E+04  0.00000000000E+00 0.  1.
         23    2    1    2    0    0 -0.12400447173E+03  0.53247162513E+02 -0.17891124058E+03  0.24211381305E+03  0.91637858650E+02 0.  0.
    9900016    2    1    2    0    0  0.18537181058E+03 -0.35961876939E+03  0.11541242305E+04  0.24809515598E+04  0.21585711791E+04 0.  0.
         24    2    4    4    0    0 -0.31235175005E+03  0.63839081742E+03 -0.18110024244E+03  0.74124575960E+03  0.10743149806E+03 0.  0.
        -15    1    3    3    0    0 -0.70169452747E+02 -0.14009413138E+02 -0.11254562892E+03  0.13336616642E+03  0.00000000000E+00 0.  1.
        -15    1    5    5    0    0 -0.28734386042E+03  0.57237087339E+03 -0.19461679857E+03  0.66936582607E+03  0.00000000000E+00 0.  1.
         15    1    4    4    0    0  0.49772356063E+03 -0.99800958681E+03  0.13352244729E+04  0.17397058002E+04  0.00000000000E+00 0. -1.
         15    1    3    3    0    0 -0.53835018987E+02  0.67256575650E+02 -0.66365611660E+02  0.10874764663E+03  0.00000000000E+00 0. -1.
        -16    1    1    2    0    0 -0.63127317631E+02  0.31659555618E+03 -0.63984209122E+03  0.71666987248E+03  0.00000000000E+00 0.  1.
         16    1    5    5    0    0 -0.25007889632E+02  0.66019944038E+02  0.13516556126E+02  0.71879933529E+02  0.00000000000E+00 0. -1.
    9900018    1    1    2    0    0  0.17599787832E+01 -0.10223949304E+02  0.10645143816E+03  0.14055146298E+03  0.91187600000E+02 0.  0.
<mgrwt>
<rscale>  0 0.15489272E+04</rscale>
<asrwt>0</asrwt>
<pdfrwt beam="1">  1        1 0.30939301E+00 0.32799525E+04</pdfrwt>
<pdfrwt beam="2">  1       -1 0.24142033E+00 0.32799525E+04</pdfrwt>
<totfact> 0.19133884E-01</totfact>
</mgrwt>
</event>
<event>
12    1  0.2460266E-014  0.2724764E+04  0.7818608E-02  0.9038476E-01
          1   -1    0    0  501    0  0.00000000000E+00  0.00000000000E+00  0.12357316609E+04  0.12357316609E+04  0.00000000000E+00 0. -1.
         -1   -1    0    0    0  501 -0.00000000000E+00 -0.00000000000E+00 -0.16588091153E+04  0.16588091153E+04  0.00000000000E+00 0.  1.
         23    2    1    2    0    0  0.62148500742E+02  0.80506158186E+02  0.43259586014E+01  0.13645979241E+03  0.90878398847E+02 0.  0.
    9900016    2    1    2    0    0 -0.39829077933E+03 -0.15168053597E+03 -0.61772373678E+03  0.23652970112E+04  0.22430793134E+04 0.  0.
        -24    2    4    4    0    0 -0.27592150872E+03 -0.60556212062E+03  0.67016113640E+03  0.94925976508E+03  0.95603305170E+02 0.  0.
        -15    1    3    3    0    0  0.28354533274E+02  0.92971877196E+02  0.16185333459E+02  0.98537883708E+02  0.00000000000E+00 0. -1.
        -15    1    4    4    0    0 -0.11193623265E+03  0.44698526746E+03 -0.12123655106E+04  0.12969794450E+04  0.00000000000E+00 0.  1.
         15    1    3    3    0    0  0.33793967469E+02 -0.12465719010E+02 -0.11859374858E+02  0.37921908704E+02  0.00000000000E+00 0.  1.
         15    1    5    5    0    0 -0.15296059298E+03 -0.43989310540E+03  0.45237544777E+03  0.64926607252E+03  0.00000000000E+00 0. -1.
        -16    1    5    5    0    0 -0.12296091574E+03 -0.16566901522E+03  0.21778568864E+03  0.29999369256E+03  0.00000000000E+00 0.  1.
         16    1    1    2    0    0  0.33614227859E+03  0.71174377782E+02  0.19032032383E+03  0.39278397265E+03  0.00000000000E+00 0. -1.
    9900018    1    4    4    0    0 -0.10433037965E+02  0.68963171864E+01 -0.75519362577E+02  0.11905780105E+03  0.91187600000E+02 0.  0.
<mgrwt>
<rscale>  0 0.12888228E+04</rscale>
<asrwt>0</asrwt>
<pdfrwt beam="1">  1        1 0.19011256E+00 0.27247637E+04</pdfrwt>
<pdfrwt beam="2">  1       -1 0.25520140E+00 0.27247637E+04</pdfrwt>
<totfact> 0.56271994E-01</totfact>
</mgrwt>
</event>
<event>
12    1  0.2460266E-014  0.2631842E+04  0.7818608E-02  0.9139467E-01
          1   -1    0    0  501    0  0.00000000000E+00  0.00000000000E+00  0.40136317503E+04  0.40136317503E+04  0.00000000000E+00 0. -1.
         -1   -1    0    0    0  501 -0.00000000000E+00 -0.00000000000E+00 -0.60149937985E+03  0.60149937985E+03  0.00000000000E+00 0.  1.
         23    2    1    2    0    0 -0.86021834724E+01 -0.44445633213E+02 -0.15266636775E+03  0.18406082056E+03  0.92314429804E+02 0.  0.
    9900016    2    1    2    0    0  0.57105677616E+02  0.34974701383E+03  0.33820940134E+04  0.40719846117E+04  0.22398470328E+04 0.  0.
         24    2    4    4    0    0  0.68822840923E+03  0.45205453254E+03  0.27483307079E+03  0.86946546669E+03  0.49247713581E+02 0.  0.
        -15    1    3    3    0    0 -0.37614615151E+02 -0.54834298785E+02 -0.73539460767E+02  0.99144903480E+02  0.00000000000E+00 0.  1.
        -15    1    5    5    0    0  0.44516515942E+03  0.26514823131E+03  0.16538836251E+03  0.54390156663E+03  0.00000000000E+00 0.  1.
         15    1    4    4    0    0 -0.64313776700E+03 -0.79175469321E+02  0.29369174893E+04  0.30075537038E+04  0.00000000000E+00 0. -1.
         15    1    3    3    0    0  0.29012431679E+02  0.10388665572E+02 -0.79126906986E+02  0.84915917079E+02  0.00000000000E+00 0. -1.
        -16    1    1    2    0    0 -0.48503494143E+02 -0.30530138062E+03  0.18270472475E+03  0.35908569785E+03  0.00000000000E+00 0.  1.
         16    1    5    5    0    0  0.24306324981E+03  0.18690630123E+03  0.10944470829E+03  0.32556390006E+03  0.00000000000E+00 0. -1.
    9900018    1    4    4    0    0  0.12015035385E+02 -0.23132049386E+02  0.17034345331E+03  0.19496544120E+03  0.91187600000E+02 0.  0.
<mgrwt>
<rscale>  0 0.11700685E+04</rscale>
<asrwt>0</asrwt>
<pdfrwt beam="1">  1        1 0.61748179E+00 0.26318423E+04</pdfrwt>
<pdfrwt beam="2">  1       -1 0.92538369E-01 0.26318423E+04</pdfrwt>
<totfact> 0.92141593E-02</totfact>
</mgrwt>
</event>
<event>
12    1  0.2460266E-014  0.3356870E+04  0.7818608E-02  0.8670981E-01
          2   -1    0    0  501    0  0.00000000000E+00  0.00000000000E+00  0.22085726614E+04  0.22085726614E+04  0.00000000000E+00 0. -1.
         -2   -1    0    0    0  501 -0.00000000000E+00 -0.00000000000E+00 -0.15538440040E+04  0.15538440040E+04  0.00000000000E+00 0.  1.
         23    2    1    2    0    0 -0.22049259764E+01  0.30868042523E+03  0.18942363322E+03  0.37345148131E+03  0.91083639876E+02 0.  0.
    9900016    2    1    2    0    0  0.55579205257E+03 -0.52185456102E+03  0.10120264370E+04  0.25822395664E+04  0.22500059290E+04 0.  0.
         24    2    4    4    0    0 -0.26093787457E+03  0.74617774024E+03  0.18365237517E+03  0.81672784448E+03  0.91904203539E+02 0.  0.
        -15    1    5    5    0    0 -0.12120658278E+03  0.21996262307E+03  0.49192331945E+02  0.25591888711E+03  0.00000000000E+00 0.  1.
        -15    1    3    3    0    0 -0.27816532686E+02  0.35923590777E+02  0.44185009461E+02  0.63376485592E+02  0.00000000000E+00 0.  1.
         15    1    3    3    0    0  0.25611606709E+02  0.27275683445E+03  0.14523862376E+03  0.31007499572E+03  0.00000000000E+00 0. -1.
         15    1    4    4    0    0  0.79156804868E+03 -0.11988334888E+04  0.80231555382E+03  0.16454458233E+04  0.00000000000E+00 0. -1.
        -16    1    1    2    0    0 -0.55358712659E+03  0.21317413579E+03 -0.54672141280E+03  0.80672561761E+03  0.00000000000E+00 0.  1.
         16    1    5    5    0    0 -0.13973129179E+03  0.52621511717E+03  0.13446004323E+03  0.56080895737E+03  0.00000000000E+00 0. -1.
    9900018    1    4    4    0    0  0.25161878456E+02 -0.69198812443E+02  0.26058507999E+02  0.12006589859E+03  0.91187600000E+02 0.  0.
<mgrwt>
<rscale>  0 0.18679397E+04</rscale>
<asrwt>0</asrwt>
<pdfrwt beam="1">  1        2 0.33978041E+00 0.33568700E+04</pdfrwt>
<pdfrwt beam="2">  1       -2 0.23905292E+00 0.33568700E+04</pdfrwt>
<totfact> 0.31478149E-01</totfact>
</mgrwt>
</event>
