<event>
12    1  0.1660119E-010  0.1107710E+04  0.7818608E-02  0.9197709E-01
          4   -1    0    0  501    0  0.00000000000E+00  0.00000000000E+00  0.79695050913E+03  0.79695050913E+03  0.00000000000E+00 0. -1.
         -4   -1    0    0    0  501 -0.00000000000E+00 -0.00000000000E+00 -0.38491163205E+03  0.38491163205E+03  0.00000000000E+00 0.  1.
    9900016    2    1    2    0    0  0.29443605094E+03  0.50622073707E+02  0.43283514777E+03  0.88238314807E+03  0.70851857591E+03 0.  0.
         23    2    3    3    0    0  0.23886257879E+02 -0.26072252539E+02  0.38667360910E+02  0.10535928382E+03  0.91406226369E+02 0.  0.
         23    2    3    3    0    0  0.10320287385E+03 -0.11333800908E+03  0.20127760374E+03  0.26927686356E+03  0.92200965312E+02 0.  0.
        -15    1    4    4    0    0 -0.84558263573E+01 -0.53004628037E+02  0.10435529456E+02  0.54679903692E+02  0.00000000000E+00 0.  1.
        -15    1    5    5    0    0  0.44313325746E+02 -0.77795367599E+02  0.48717390543E+02  0.10192729860E+03  0.00000000000E+00 0. -1.
         15    1    4    4    0    0  0.32342084236E+02  0.26932375498E+02  0.28231831454E+02  0.50679380126E+02  0.00000000000E+00 0. -1.
         15    1    5    5    0    0  0.58889548103E+02 -0.35542641483E+02  0.15256021320E+03  0.16734956496E+03  0.00000000000E+00 0.  1.
        -16    1    1    2    0    0 -0.29443605094E+03 -0.50622073707E+02 -0.20796270692E+02  0.29947899311E+03  0.00000000000E+00 0.  1.
         16    1    3    3    0    0 -0.78121218426E+02 -0.12695685733E+02  0.15549684231E+03  0.17448029452E+03  0.00000000000E+00 0. -1.
    9900018    1    3    3    0    0  0.24546813763E+03  0.20272802106E+03  0.37393340803E+02  0.33326670618E+03  0.91187600000E+02 0.  0.
<mgrwt>
<rscale>  0 0.11077103E+04</rscale>
<asrwt>0</asrwt>
<pdfrwt beam="1">  1        4 0.12260777E+00 0.11077103E+04</pdfrwt>
<pdfrwt beam="2">  1       -4 0.59217174E-01 0.11077103E+04</pdfrwt>
<totfact> 0.26735744E+00</totfact>
</mgrwt>
</event>
<event>
12    1  0.1660119E-010  0.8840602E+03  0.7818608E-02  0.9445729E-01
         -2   -1    0    0    0  501 -0.00000000000E+00  0.00000000000E+00  0.22112211747E+03  0.22112211747E+03  0.00000000000E+00 0.  1.
          2   -1    0    0  501    0  0.00000000000E+00 -0.00000000000E+00 -0.88363211391E+03  0.88363211391E+03  0.00000000000E+00 0. -1.
    9900016    2    1    2    0    0  0.11539079316E+03 -0.95245710059E+02 -0.52556791655E+03  0.90192446612E+03  0.71753698668E+03 0.  0.
         23    2    3    3    0    0  0.37350954213E+02  0.40333336492E+02 -0.10620732600E+03  0.15180053227E+03  0.93496169385E+02 0.  0.
         23    2    3    3    0    0  0.15203212533E+03  0.56565015429E+01 -0.22606243231E+03  0.28784489181E+03  0.92761496861E+02 0.  0.
        -15    1    4    4    0    0 -0.25267194022E+02  0.12173901826E+02 -0.67239360309E+02  0.72854420279E+02  0.00000000000E+00 0. -1.
        -15    1    5    5    0    0 -0.11132014849E+02 -0.72448475389E+01 -0.27349334496E+02  0.30403875869E+02  0.00000000000E+00 0.  1.
         15    1    4    4    0    0  0.62618148235E+02  0.28159434666E+02 -0.38967965690E+02  0.78946111995E+02  0.00000000000E+00 0.  1.
         15    1    5    5    0    0  0.16316414018E+03  0.12901349082E+02 -0.19871309781E+03  0.25744101594E+03  0.00000000000E+00 0. -1.
        -16    1    3    3    0    0  0.59268531767E+02  0.63782484677E+02 -0.18119313488E+03  0.20102715324E+03  0.00000000000E+00 0.  1.
         16    1    1    2    0    0 -0.11539079316E+03  0.95245710059E+02 -0.13694207989E+03  0.20282976526E+03  0.00000000000E+00 0. -1.
    9900018    1    3    3    0    0 -0.13326081815E+03 -0.20501803277E+03 -0.12105023356E+02  0.26125188880E+03  0.91187600000E+02 0.  0.
<mgrwt>
<rscale>  0 0.88406019E+03</rscale>
<asrwt>0</asrwt>
<pdfrwt beam="1">  1        2 0.13594340E+00 0.88406019E+03</pdfrwt>
<pdfrwt beam="2">  1       -2 0.34018788E-01 0.88406019E+03</pdfrwt>
<totfact> 0.24385901E+02</totfact>
</mgrwt>
</event>
<event>
12    1  0.1660119E-010  0.1089849E+04  0.7818608E-02  0.9215142E-01
          1   -1    0    0  501    0  0.00000000000E+00  0.00000000000E+00  0.95758577599E+03  0.95758577599E+03  0.00000000000E+00 0. -1.
         -1   -1    0    0    0  501 -0.00000000000E+00 -0.00000000000E+00 -0.31009538718E+03  0.31009538718E+03  0.00000000000E+00 0.  1.
    9900016    2    1    2    0    0 -0.15055755043E+03  0.26905193911E+03  0.52710303532E+03  0.93669832855E+03  0.71028841110E+03 0.  0.
         23    2    3    3    0    0 -0.24241437948E+00  0.24073776219E+03  0.15426608070E+03  0.30138148545E+03  0.95278786777E+02 0.  0.
         23    2    3    3    0    0 -0.13210323231E+02 -0.13937370646E+03  0.78012698829E+02  0.18397344649E+03  0.90336621276E+02 0.  0.
        -15    1    4    4    0    0  0.13744660152E+02  0.15779358260E+03  0.47297889467E+02  0.16530221033E+03  0.00000000000E+00 0.  1.
        -15    1    5    5    0    0 -0.51079101909E+02 -0.81724108975E+02  0.56533959309E+02  0.11173179133E+03  0.00000000000E+00 0.  1.
         15    1    4    4    0    0 -0.13987074531E+02  0.82944179590E+02  0.10696819123E+03  0.13607927512E+03  0.00000000000E+00 0. -1.
         15    1    5    5    0    0  0.37868778678E+02 -0.57649597485E+02  0.21478739520E+02  0.72241655159E+02  0.00000000000E+00 0. -1.
        -16    1    3    3    0    0 -0.64938526179E+02  0.18315651982E+03  0.87476093938E+02  0.21310886876E+03  0.00000000000E+00 0.  1.
         16    1    1    2    0    0  0.15055755043E+03 -0.26905193911E+03  0.12038735349E+03  0.33098283462E+03  0.00000000000E+00 0. -1.
    9900018    1    3    3    0    0 -0.72166286640E+02 -0.15468636440E+02  0.20734816185E+03  0.23823452785E+03  0.91187600000E+02 0.  0.
<mgrwt>
<rscale>  0 0.10898494E+04</rscale>
<asrwt>0</asrwt>
<pdfrwt beam="1">  1        1 0.14732089E+00 0.10898494E+04</pdfrwt>
<pdfrwt beam="2">  1       -1 0.47706983E-01 0.10898494E+04</pdfrwt>
<totfact> 0.71484322E+01</totfact>
</mgrwt>
</event>
<event>
12    1  0.1660119E-010  0.8306747E+03  0.7818608E-02  0.9516648E-01
          2   -1    0    0  501    0  0.00000000000E+00  0.00000000000E+00  0.69379642471E+03  0.69379642471E+03  0.00000000000E+00 0. -1.
         -2   -1    0    0    0  501 -0.00000000000E+00 -0.00000000000E+00 -0.24863935255E+03  0.24863935255E+03  0.00000000000E+00 0.  1.
    9900016    2    1    2    0    0  0.23950330873E+02  0.10657223089E+03  0.35509856250E+03  0.80086673435E+03  0.70947958277E+03 0.  0.
         23    2    3    3    0    0  0.14087166455E+02 -0.94624634447E+01  0.59633332143E+02  0.11019401435E+03  0.91096652094E+02 0.  0.
         23    2    3    3    0    0  0.64163638739E+02 -0.46193668254E+01  0.95795289045E+02  0.14763842424E+03  0.92098077202E+02 0.  0.
        -15    1    4    4    0    0  0.97024127892E+01  0.39741917254E+02  0.39445741112E+02  0.56828894876E+02  0.00000000000E+00 0.  1.
        -15    1    5    5    0    0  0.68052712260E+02 -0.36972677735E+02  0.80275668246E+02  0.11154520813E+03  0.00000000000E+00 0.  1.
         15    1    4    4    0    0  0.43847536653E+01 -0.49204380699E+02  0.20187591031E+02  0.53365119472E+02  0.00000000000E+00 0. -1.
         15    1    5    5    0    0 -0.38890735207E+01  0.32353310909E+02  0.15519620799E+02  0.36093216113E+02  0.00000000000E+00 0. -1.
        -16    1    3    3    0    0 -0.69021707712E+02 -0.14689413686E+03  0.20308213370E+03  0.25996968401E+03  0.00000000000E+00 0.  1.
         16    1    1    2    0    0 -0.23950330873E+02 -0.10657223089E+03  0.90058509661E+02  0.14156904290E+03  0.00000000000E+00 0. -1.
    9900018    1    3    3    0    0  0.14721233391E+02  0.26754819802E+03 -0.34121923856E+01  0.28306461175E+03  0.91187600000E+02 0.  0.
<mgrwt>
<rscale>  0 0.83067465E+03</rscale>
<asrwt>0</asrwt>
<pdfrwt beam="1">  1        2 0.10673791E+00 0.83067465E+03</pdfrwt>
<pdfrwt beam="2">  1       -2 0.38252208E-01 0.83067465E+03</pdfrwt>
<totfact> 0.26867089E+02</totfact>
</mgrwt>
</event>
<event>
12    1  0.1660119E-010  0.9557847E+03  0.7818608E-02  0.9358415E-01
         -2   -1    0    0    0  501 -0.00000000000E+00  0.00000000000E+00  0.75352844427E+02  0.75352844427E+02  0.00000000000E+00 0. -1.
          2   -1    0    0  501    0  0.00000000000E+00 -0.00000000000E+00 -0.30308227343E+04  0.30308227343E+04  0.00000000000E+00 0.  1.
    9900016    2    1    2    0    0  0.42353348438E+02 -0.12539439186E+03 -0.17504808477E+04  0.18939395657E+04  0.71084901389E+03 0.  0.
         23    2    3    3    0    0 -0.16178176592E+02 -0.11069139122E+03 -0.18646927586E+03  0.23659988796E+03  0.93243759341E+02 0.  0.
         23    2    3    3    0    0  0.28355667274E+02 -0.72513660506E+02 -0.19015247496E+03  0.22493634697E+03  0.91521153992E+02 0.  0.
        -15    1    5    5    0    0 -0.29500802426E+02 -0.38444607827E+01 -0.57665815226E+02  0.64887775954E+02  0.00000000000E+00 0.  1.
        -15    1    4    4    0    0 -0.35503319619E+01 -0.11668441069E+03 -0.11532915929E+03  0.16409957811E+03  0.00000000000E+00 0.  1.
         15    1    4    4    0    0 -0.12627844630E+02  0.59930194679E+01 -0.71140116574E+02  0.72500309851E+02  0.00000000000E+00 0. -1.
         15    1    5    5    0    0  0.57856469700E+02 -0.68669199724E+02 -0.13248665973E+03  0.16004857102E+03  0.00000000000E+00 0. -1.
        -16    1    1    2    0    0 -0.42353348438E+02  0.12539439186E+03 -0.12049890422E+04  0.12122360131E+04  0.00000000000E+00 0.  1.
         16    1    3    3    0    0  0.18315165925E+03  0.56025612764E+02 -0.10014129347E+04  0.10195642527E+04  0.00000000000E+00 0. -1.
    9900018    1    3    3    0    0 -0.15297580150E+03  0.17850471070E+01 -0.37244616218E+03  0.41283907804E+03  0.91187600000E+02 0.  0.
<mgrwt>
<rscale>  0 0.95578473E+03</rscale>
<asrwt>0</asrwt>
<pdfrwt beam="1">  1        2 0.46628038E+00 0.95578473E+03</pdfrwt>
<pdfrwt beam="2">  1       -2 0.11592746E-01 0.95578473E+03</pdfrwt>
<totfact> 0.92548672E+01</totfact>
</mgrwt>
</event>
<event>
12    1  0.1660119E-010  0.7740763E+03  0.7818608E-02  0.9598318E-01
         -1   -1    0    0    0  501 -0.00000000000E+00  0.00000000000E+00  0.14517421845E+03  0.14517421845E+03  0.00000000000E+00 0.  1.
          1   -1    0    0  501    0  0.00000000000E+00 -0.00000000000E+00 -0.10318535812E+04  0.10318535812E+04  0.00000000000E+00 0. -1.
    9900016    2    1    2    0    0  0.50426949033E+02 -0.24181218844E+02 -0.85137508587E+03  0.11108915728E+04  0.71141615190E+03 0.  0.
         23    2    3    3    0    0  0.84291253816E+02  0.12559896026E+03 -0.38613639554E+03  0.42446628272E+03  0.90499695676E+02 0.  0.
         23    2    3    3    0    0  0.16406668232E+03 -0.12078938321E+03 -0.12879949718E+03  0.25458150291E+03  0.81941929474E+02 0.  0.
        -15    1    4    4    0    0  0.49504185100E+02  0.84412732525E+02 -0.33904183795E+03  0.35288176722E+03  0.00000000000E+00 0.  1.
        -15    1    5    5    0    0  0.32578600407E+02 -0.69520371295E+02 -0.30598248714E+02  0.82648049305E+02  0.00000000000E+00 0.  1.
         15    1    4    4    0    0  0.34787068716E+02  0.41186227738E+02 -0.47094557590E+02  0.71584515503E+02  0.00000000000E+00 0. -1.
         15    1    5    5    0    0  0.13148808192E+03 -0.51269011912E+02 -0.98201248461E+02  0.17193345360E+03  0.00000000000E+00 0. -1.
        -16    1    1    2    0    0 -0.50426949033E+02  0.24181218844E+02 -0.35304276865E+02  0.66136226824E+02  0.00000000000E+00 0.  1.
         16    1    3    3    0    0  0.28318887454E+01  0.38901299597E+02 -0.62732781046E+02  0.73869699620E+02  0.00000000000E+00 0. -1.
    9900018    1    3    3    0    0 -0.20076287585E+03 -0.67892095495E+02 -0.27370641211E+03  0.35797408757E+03  0.91187600000E+02 0.  0.
<mgrwt>
<rscale>  0 0.77407632E+03</rscale>
<asrwt>0</asrwt>
<pdfrwt beam="1">  1        1 0.15874670E+00 0.77407632E+03</pdfrwt>
<pdfrwt beam="2">  1       -1 0.22334496E-01 0.77407632E+03</pdfrwt>
<totfact> 0.24527984E+02</totfact>
</mgrwt>
</event>
<event>
12    1  0.1660119E-010  0.8748299E+03  0.7818608E-02  0.9457604E-01
         -1   -1    0    0    0  501 -0.00000000000E+00  0.00000000000E+00  0.27375802898E+03  0.27375802898E+03  0.00000000000E+00 0.  1.
          1   -1    0    0  501    0  0.00000000000E+00 -0.00000000000E+00 -0.69890862603E+03  0.69890862603E+03  0.00000000000E+00 0. -1.
    9900016    2    1    2    0    0 -0.87515994994E+02 -0.12402758395E+03 -0.35686448509E+03  0.80621881320E+03  0.70682007829E+03 0.  0.
         23    2    3    3    0    0 -0.24025861330E+02 -0.73524498834E+02  0.56864155816E+02  0.13678023570E+03  0.97427956564E+02 0.  0.
         23    2    3    3    0    0  0.58020836510E+02  0.70089440022E+02 -0.25308380026E+03  0.28380312742E+03  0.90630337681E+02 0.  0.
        -15    1    4    4    0    0 -0.11728306634E+02 -0.36062496846E+02  0.81776013452E+02  0.90140852178E+02  0.00000000000E+00 0.  1.
        -15    1    5    5    0    0  0.36016265771E+02 -0.15981808882E+02 -0.70931216831E+02  0.81140785899E+02  0.00000000000E+00 0.  1.
         15    1    4    4    0    0 -0.12297554696E+02 -0.37462001989E+02 -0.24911857637E+02  0.46639383523E+02  0.00000000000E+00 0. -1.
         15    1    5    5    0    0  0.22004570740E+02  0.86071248905E+02 -0.18215258342E+03  0.20266234152E+03  0.00000000000E+00 0. -1.
        -16    1    1    2    0    0  0.87515994994E+02  0.12402758395E+03 -0.68286111955E+02  0.16644784182E+03  0.00000000000E+00 0.  1.
         16    1    3    3    0    0 -0.14799442719E+03  0.14144815034E+02 -0.16322178188E+03  0.22077992742E+03  0.00000000000E+00 0. -1.
    9900018    1    3    3    0    0  0.26483457020E+02 -0.13473734017E+03  0.25769412250E+01  0.16485552266E+03  0.91187600000E+02 0.  0.
<mgrwt>
<rscale>  0 0.87482992E+03</rscale>
<asrwt>0</asrwt>
<pdfrwt beam="1">  1        1 0.10752440E+00 0.87482992E+03</pdfrwt>
<pdfrwt beam="2">  1       -1 0.42116620E-01 0.87482992E+03</pdfrwt>
<totfact> 0.15248810E+02</totfact>
</mgrwt>
</event>
<event>
12    1  0.1660119E-010  0.1361107E+04  0.7818608E-02  0.8982463E-01
          2   -1    0    0  501    0  0.00000000000E+00  0.00000000000E+00  0.13189042913E+04  0.13189042913E+04  0.00000000000E+00 0. -1.
         -2   -1    0    0    0  501 -0.00000000000E+00 -0.00000000000E+00 -0.35116502198E+03  0.35116502198E+03  0.00000000000E+00 0.  1.
    9900016    2    1    2    0    0  0.26787035640E+03 -0.41972944360E+03  0.59350330713E+03  0.10471889965E+04  0.70457879977E+03 0.  0.
         23    2    3    3    0    0  0.40843609990E+02 -0.17714673789E+03  0.34573401393E+03  0.40140174935E+03  0.92423962102E+02 0.  0.
         23    2    3    3    0    0 -0.30654317141E+02 -0.12344685251E+03 -0.30082602538E+02  0.15873713021E+03  0.90076084374E+02 0.  0.
        -15    1    5    5    0    0 -0.20725528709E+02 -0.13468708067E+03 -0.14389372957E+02  0.13702996495E+03  0.00000000000E+00 0.  1.
        -15    1    4    4    0    0 -0.26992341830E+02 -0.57691486241E+02  0.14259639925E+03  0.15617498898E+03  0.00000000000E+00 0.  1.
         15    1    4    4    0    0  0.67835951820E+02 -0.11945525165E+03  0.20313761467E+03  0.24522676037E+03  0.00000000000E+00 0. -1.
         15    1    5    5    0    0 -0.99287884320E+01  0.11240228159E+02 -0.15693229581E+02  0.21707165257E+02  0.00000000000E+00 0. -1.
        -16    1    3    3    0    0  0.24742826417E+03 -0.27681326116E+02  0.10300931286E+03  0.26944001236E+03  0.00000000000E+00 0.  1.
         16    1    1    2    0    0 -0.26787035640E+03  0.41972944360E+03  0.37423596216E+03  0.62288031678E+03  0.00000000000E+00 0. -1.
    9900018    1    3    3    0    0  0.10252799378E+02 -0.91454527076E+02  0.17484258289E+03  0.21761010455E+03  0.91187600000E+02 0.  0.
<mgrwt>
<rscale>  0 0.13611070E+04</rscale>
<asrwt>0</asrwt>
<pdfrwt beam="1">  1        2 0.20290835E+00 0.13611070E+04</pdfrwt>
<pdfrwt beam="2">  1       -2 0.54025389E-01 0.13611070E+04</pdfrwt>
<totfact> 0.50748977E+01</totfact>
</mgrwt>
</event>
<event>
12    1  0.1660119E-010  0.1172126E+04  0.7818608E-02  0.9137611E-01
          2   -1    0    0  501    0  0.00000000000E+00  0.00000000000E+00  0.26315338623E+04  0.26315338623E+04  0.00000000000E+00 0. -1.
         -2   -1    0    0    0  501 -0.00000000000E+00 -0.00000000000E+00 -0.13052079368E+03  0.13052079368E+03  0.00000000000E+00 0.  1.
    9900016    2    1    2    0    0 -0.89738876154E+02 -0.22224728545E+03  0.10500120177E+04  0.12913912100E+04  0.71254410249E+03 0.  0.
         23    2    3    3    0    0  0.11531069775E+03  0.13826200543E+02  0.36171174230E+03  0.39166699762E+03  0.95288675458E+02 0.  0.
         23    2    3    3    0    0 -0.15356862104E+03 -0.55384420824E+02  0.26085567002E+03  0.32088564107E+03  0.90945910444E+02 0.  0.
        -15    1    5    5    0    0 -0.61451061321E+02  0.19475390205E+02  0.62879651307E+02  0.90052064439E+02  0.00000000000E+00 0. -1.
        -15    1    4    4    0    0  0.60255159250E+02  0.52074584047E+02  0.15350693530E+03  0.17293590057E+03  0.00000000000E+00 0.  1.
         15    1    4    4    0    0  0.55055538500E+02 -0.38248383504E+02  0.20820480701E+03  0.21873109706E+03  0.00000000000E+00 0. -1.
         15    1    5    5    0    0 -0.92117559716E+02 -0.74859811029E+02  0.19797601871E+03  0.23083357663E+03  0.00000000000E+00 0.  1.
        -16    1    3    3    0    0 -0.12853971739E+03  0.42537286172E+02  0.12327289618E+03  0.18310676283E+03  0.00000000000E+00 0.  1.
         16    1    1    2    0    0  0.89738876154E+02  0.22224728545E+03  0.14510010509E+04  0.14706634460E+04  0.00000000000E+00 0. -1.
    9900018    1    3    3    0    0  0.77058764519E+02 -0.22322635134E+03  0.30417170924E+03  0.39573180845E+03  0.91187600000E+02 0.  0.
<mgrwt>
<rscale>  0 0.11721261E+04</rscale>
<asrwt>0</asrwt>
<pdfrwt beam="1">  1        2 0.40485132E+00 0.11721261E+04</pdfrwt>
<pdfrwt beam="2">  1       -2 0.20080124E-01 0.11721261E+04</pdfrwt>
<totfact> 0.61727861E+01</totfact>
</mgrwt>
</event>
<event>
12    1  0.1660119E-010  0.1048590E+04  0.7818608E-02  0.9256801E-01
         -2   -1    0    0    0  501 -0.00000000000E+00  0.00000000000E+00  0.25341074037E+03  0.25341074037E+03  0.00000000000E+00 0.  1.
          2   -1    0    0  501    0  0.00000000000E+00 -0.00000000000E+00 -0.10847410564E+04  0.10847410564E+04  0.00000000000E+00 0. -1.
    9900016    2    1    2    0    0 -0.22074399612E+03 -0.17739998346E+03 -0.63761204889E+03  0.99504039652E+03  0.70947699037E+03 0.  0.
         23    2    3    3    0    0  0.75231118267E+02 -0.97847896948E+02 -0.13915844933E+03  0.20674278826E+03  0.90241755205E+02 0.  0.
         23    2    3    3    0    0 -0.16935820297E+03  0.35328364321E+02 -0.25117917678E+03  0.31843433842E+03  0.91537723382E+02 0.  0.
        -15    1    4    4    0    0  0.20821490583E+02 -0.78878799927E+02 -0.37273184668E+02  0.89692194997E+02  0.00000000000E+00 0.  1.
        -15    1    5    5    0    0 -0.12498619592E+03  0.28109626235E+02 -0.24009180679E+03  0.27213190909E+03  0.00000000000E+00 0.  1.
         15    1    4    4    0    0  0.54409627684E+02 -0.18969097020E+02 -0.10188526467E+03  0.11705059326E+03  0.00000000000E+00 0. -1.
         15    1    5    5    0    0 -0.44372007051E+02  0.72187380859E+01 -0.11087369994E+02  0.46302429339E+02  0.00000000000E+00 0. -1.
        -16    1    1    2    0    0  0.22074399612E+03  0.17739998346E+03 -0.19371826711E+03  0.34311140023E+03  0.00000000000E+00 0.  1.
         16    1    3    3    0    0 -0.21684832265E+03 -0.14919014581E+03 -0.19308269250E+03  0.32643808109E+03  0.00000000000E+00 0. -1.
    9900018    1    3    3    0    0  0.90231411231E+02  0.34309694981E+02 -0.54191730273E+02  0.14342518874E+03  0.91187600000E+02 0.  0.
<mgrwt>
<rscale>  0 0.10485896E+04</rscale>
<asrwt>0</asrwt>
<pdfrwt beam="1">  1        2 0.16688324E+00 0.10485896E+04</pdfrwt>
<pdfrwt beam="2">  1       -2 0.38986268E-01 0.10485896E+04</pdfrwt>
<totfact> 0.13775670E+02</totfact>
</mgrwt>
</event>
<event>
12    1  0.1660119E-010  0.9826726E+03  0.7818608E-02  0.9327756E-01
          1   -1    0    0  501    0  0.00000000000E+00  0.00000000000E+00  0.53776245015E+03  0.53776245015E+03  0.00000000000E+00 0. -1.
         -1   -1    0    0    0  501 -0.00000000000E+00 -0.00000000000E+00 -0.44891825032E+03  0.44891825032E+03  0.00000000000E+00 0.  1.
    9900016    2    1    2    0    0 -0.60863998891E+02  0.22545958722E+02 -0.15569895064E+03  0.73367062349E+03  0.71401517766E+03 0.  0.
         23    2    3    3    0    0 -0.50907643147E+02 -0.30061545721E+02  0.69481676218E+01  0.10994721628E+03  0.92438242480E+02 0.  0.
         23    2    3    3    0    0  0.73504500359E+02 -0.19691610499E+03  0.40186867303E+02  0.23207300081E+03  0.89799941114E+02 0.  0.
        -15    1    4    4    0    0 -0.65065253419E+02 -0.28951991450E+02 -0.24604192626E+02  0.75346342354E+02  0.00000000000E+00 0.  1.
        -15    1    5    5    0    0 -0.19782485012E+02 -0.44527117914E+02 -0.90986075771E+00  0.48732317712E+02  0.00000000000E+00 0. -1.
         15    1    4    4    0    0  0.14157610272E+02 -0.11095542710E+01  0.31552360248E+02  0.34600873927E+02  0.00000000000E+00 0. -1.
         15    1    5    5    0    0  0.93286985371E+02 -0.15238898707E+03  0.41096728061E+02  0.18334068310E+03  0.00000000000E+00 0.  1.
        -16    1    3    3    0    0  0.37559188364E+02  0.58367062773E+02 -0.11118664915E+03  0.13107203209E+03  0.00000000000E+00 0.  1.
         16    1    1    2    0    0  0.60863998891E+02 -0.22545958722E+02  0.24454315047E+03  0.25301007699E+03  0.00000000000E+00 0. -1.
    9900018    1    3    3    0    0 -0.12102004447E+03  0.19115654666E+03 -0.91647336411E+02  0.26057837431E+03  0.91187600000E+02 0.  0.
<mgrwt>
<rscale>  0 0.98267264E+03</rscale>
<asrwt>0</asrwt>
<pdfrwt beam="1">  1        1 0.82732685E-01 0.98267264E+03</pdfrwt>
<pdfrwt beam="2">  1       -1 0.69064346E-01 0.98267264E+03</pdfrwt>
<totfact> 0.85275511E+01</totfact>
</mgrwt>
</event>
<event>
12    1  0.1660119E-010  0.1675638E+04  0.7818608E-02  0.8775382E-01
          2   -1    0    0  501    0  0.00000000000E+00  0.00000000000E+00  0.39822761061E+04  0.39822761061E+04  0.00000000000E+00 0. -1.
         -2   -1    0    0    0  501 -0.00000000000E+00 -0.00000000000E+00 -0.17626619712E+03  0.17626619712E+03  0.00000000000E+00 0.  1.
    9900016    2    1    2    0    0  0.38588846793E+03  0.34856751097E+03  0.33509277126E+04  0.34675220251E+04  0.72428118828E+03 0.  0.
         23    2    3    3    0    0  0.16228763621E+01  0.13735261497E+03  0.66976563589E+03  0.68946564770E+03  0.88929734964E+02 0.  0.
         23    2    3    3    0    0  0.13260488211E+02  0.63464836771E+02  0.20154403848E+03  0.23041230001E+03  0.90918658686E+02 0.  0.
        -15    1    4    4    0    0 -0.39454241512E+02  0.46258009097E+02  0.31907773882E+03  0.32481847852E+03  0.00000000000E+00 0. -1.
        -15    1    5    5    0    0  0.44550401868E+02  0.20801606247E+02  0.14437777718E+03  0.15252012219E+03  0.00000000000E+00 0. -1.
         15    1    4    4    0    0  0.41077117874E+02  0.91094605871E+02  0.35068789707E+03  0.36464716917E+03  0.00000000000E+00 0.  1.
         15    1    5    5    0    0 -0.31289913657E+02  0.42663230524E+02  0.57166261298E+02  0.77892177824E+02  0.00000000000E+00 0.  1.
        -16    1    1    2    0    0 -0.38588846793E+03 -0.34856751097E+03  0.45508219637E+03  0.69102027816E+03  0.00000000000E+00 0.  1.
         16    1    3    3    0    0  0.21534186221E+03  0.16741586766E+03  0.59771023435E+03  0.65700663209E+03  0.00000000000E+00 0. -1.
    9900018    1    3    3    0    0  0.15566324115E+03 -0.19665808428E+02  0.18819078039E+04  0.18906374453E+04  0.91187600000E+02 0.  0.
<mgrwt>
<rscale>  0 0.16756380E+04</rscale>
<asrwt>0</asrwt>
<pdfrwt beam="1">  1        2 0.61265780E+00 0.16756380E+04</pdfrwt>
<pdfrwt beam="2">  1       -2 0.27117879E-01 0.16756380E+04</pdfrwt>
<totfact> 0.42426821E+00</totfact>
</mgrwt>
</event>
<event>
12    1  0.1660119E-010  0.1264771E+04  0.7818608E-02  0.9057979E-01
         -2   -1    0    0    0  501 -0.00000000000E+00  0.00000000000E+00  0.37161060254E+03  0.37161060254E+03  0.00000000000E+00 0.  1.
          2   -1    0    0  501    0  0.00000000000E+00 -0.00000000000E+00 -0.10761564360E+04  0.10761564360E+04  0.00000000000E+00 0. -1.
    9900016    2    1    2    0    0  0.12187744634E+03 -0.35403798024E+03 -0.21752505387E+03  0.83344933317E+03  0.71212613948E+03 0.  0.
         23    2    3    3    0    0  0.86022189375E+02 -0.55065934422E+02  0.17771996718E+02  0.13646698169E+03  0.88742994228E+02 0.  0.
         23    2    3    3    0    0  0.17890494598E+03 -0.77228070383E+02 -0.15015015976E+03  0.26201684796E+03  0.90203124048E+02 0.  0.
        -15    1    5    5    0    0  0.13464360341E+02  0.10490162554E+02 -0.43017006063E+02  0.46279534574E+02  0.00000000000E+00 0. -1.
        -15    1    4    4    0    0  0.50106990084E+01 -0.50905140030E+02  0.20977061277E+02  0.55285418384E+02  0.00000000000E+00 0.  1.
         15    1    4    4    0    0  0.81011490366E+02 -0.41607943917E+01 -0.32050645598E+01  0.81181563302E+02  0.00000000000E+00 0. -1.
         15    1    5    5    0    0  0.16544058564E+03 -0.87718232937E+02 -0.10713315370E+03  0.21573731339E+03  0.00000000000E+00 0.  1.
        -16    1    3    3    0    0  0.19644040274E+02 -0.20582820527E+03 -0.12768186996E+03  0.24300987289E+03  0.00000000000E+00 0.  1.
         16    1    1    2    0    0 -0.12187744634E+03  0.35403798024E+03 -0.48702077959E+03  0.61431770537E+03  0.00000000000E+00 0. -1.
    9900018    1    3    3    0    0 -0.16269372929E+03 -0.15915770161E+02  0.42534979140E+02  0.19195563064E+03  0.91187600000E+02 0.  0.
<mgrwt>
<rscale>  0 0.12647706E+04</rscale>
<asrwt>0</asrwt>
<pdfrwt beam="1">  1        2 0.16556253E+00 0.12647706E+04</pdfrwt>
<pdfrwt beam="2">  1       -2 0.57170861E-01 0.12647706E+04</pdfrwt>
<totfact> 0.63505205E+01</totfact>
</mgrwt>
</event>
<event>
12    1  0.1660119E-010  0.9462977E+03  0.7818608E-02  0.9369489E-01
          2   -1    0    0  501    0  0.00000000000E+00  0.00000000000E+00  0.35940778516E+03  0.35940778516E+03  0.00000000000E+00 0. -1.
         -2   -1    0    0    0  501 -0.00000000000E+00 -0.00000000000E+00 -0.62288527035E+03  0.62288527035E+03  0.00000000000E+00 0.  1.
    9900016    2    1    2    0    0 -0.14533107450E+03  0.43087166116E+02 -0.75378897766E+02  0.74071759382E+03  0.72111230087E+03 0.  0.
         23    2    3    3    0    0 -0.36313096433E+02 -0.21627230989E+02 -0.72100835130E+02  0.12786807403E+03  0.96774665265E+02 0.  0.
         23    2    3    3    0    0  0.62654263317E+01 -0.51118139493E+02 -0.71865644954E+02  0.12720290941E+03  0.91452662545E+02 0.  0.
        -15    1    5    5    0    0 -0.77124515846E+01 -0.73216951797E+02 -0.33772372196E+02  0.80998623838E+02  0.00000000000E+00 0.  1.
        -15    1    4    4    0    0 -0.37817489543E+02 -0.28635240162E+01  0.13473410303E+02  0.40247920074E+02  0.00000000000E+00 0. -1.
         15    1    4    4    0    0  0.15043931098E+01 -0.18763706972E+02 -0.85574245433E+02  0.87620153957E+02  0.00000000000E+00 0.  1.
         15    1    5    5    0    0  0.13977877916E+02  0.22098812304E+02 -0.38093272757E+02  0.46204285577E+02  0.00000000000E+00 0. -1.
        -16    1    1    2    0    0  0.14533107450E+03 -0.43087166116E+02 -0.18809858743E+03  0.24157546169E+03  0.00000000000E+00 0.  1.
         16    1    3    3    0    0  0.15013981558E+03  0.12931144201E+03  0.85764944736E+01  0.19833549737E+03  0.00000000000E+00 0. -1.
    9900018    1    3    3    0    0 -0.26542321998E+03 -0.13478905417E+02  0.60011087844E+02  0.28731111300E+03  0.91187600000E+02 0.  0.
<mgrwt>
<rscale>  0 0.94629766E+03</rscale>
<asrwt>0</asrwt>
<pdfrwt beam="1">  1        2 0.55293505E-01 0.94629766E+03</pdfrwt>
<pdfrwt beam="2">  1       -2 0.95828503E-01 0.94629766E+03</pdfrwt>
<totfact> 0.82035984E+01</totfact>
</mgrwt>
</event>
<event>
12    1  0.1660119E-010  0.9960891E+03  0.7818608E-02  0.9312845E-01
          2   -1    0    0  501    0  0.00000000000E+00  0.00000000000E+00  0.17269769372E+04  0.17269769372E+04  0.00000000000E+00 0. -1.
         -2   -1    0    0    0  501 -0.00000000000E+00 -0.00000000000E+00 -0.14363155284E+03  0.14363155284E+03  0.00000000000E+00 0.  1.
    9900016    2    1    2    0    0 -0.48480604113E+02 -0.16480669456E+03  0.84023094114E+03  0.11078957713E+04  0.70137963341E+03 0.  0.
         23    2    3    3    0    0  0.22904280757E+02  0.11016025717E+03  0.23950371735E+03  0.28002481966E+03  0.91607754369E+02 0.  0.
         23    2    3    3    0    0 -0.35582346985E+02 -0.22310129659E+03  0.17462068227E+03  0.29890276881E+03  0.88375282578E+02 0.  0.
        -15    1    4    4    0    0 -0.20026824619E+02  0.45801442273E+02  0.34037518299E+02  0.60476429050E+02  0.00000000000E+00 0.  1.
        -15    1    5    5    0    0 -0.55695408578E+02 -0.17397763807E+03  0.16241520532E+03  0.24443587299E+03  0.00000000000E+00 0.  1.
         15    1    4    4    0    0  0.42931105376E+02  0.64358814894E+02  0.20546619906E+03  0.21954839061E+03  0.00000000000E+00 0. -1.
         15    1    5    5    0    0  0.20113061593E+02 -0.49123658520E+02  0.12205476950E+02  0.54466895823E+02  0.00000000000E+00 0. -1.
        -16    1    3    3    0    0 -0.14004189598E+03  0.27558425988E+02  0.13243978637E+03  0.19470874784E+03  0.00000000000E+00 0.  1.
         16    1    1    2    0    0  0.48480604113E+02  0.16480669456E+03  0.74311444322E+03  0.76271271870E+03  0.00000000000E+00 0. -1.
    9900018    1    3    3    0    0  0.10423935809E+03 -0.79424081127E+02  0.29366675514E+03  0.33425943503E+03  0.91187600000E+02 0.  0.
<mgrwt>
<rscale>  0 0.99608911E+03</rscale>
<asrwt>0</asrwt>
<pdfrwt beam="1">  1        2 0.26568875E+00 0.99608911E+03</pdfrwt>
<pdfrwt beam="2">  1       -2 0.22097163E-01 0.99608911E+03</pdfrwt>
<totfact> 0.16959441E+02</totfact>
</mgrwt>
</event>
<event>
12    1  0.1660119E-010  0.8126597E+03  0.7818608E-02  0.9541871E-01
         -1   -1    0    0    0  501 -0.00000000000E+00  0.00000000000E+00  0.12381394365E+04  0.12381394365E+04  0.00000000000E+00 0.  1.
          1   -1    0    0  501    0  0.00000000000E+00 -0.00000000000E+00 -0.13334841161E+03  0.13334841161E+03  0.00000000000E+00 0. -1.
    9900016    2    1    2    0    0  0.39616697281E+02 -0.96880915827E+01  0.11215323853E+04  0.13274013993E+04  0.70886969318E+03 0.  0.
         23    2    3    3    0    0  0.31602630876E+02 -0.13771136263E+03  0.19489945671E+03  0.25767184570E+03  0.91901230485E+02 0.  0.
         23    2    3    3    0    0 -0.22962950561E+02  0.96295462663E+02  0.23319166775E+03  0.26991009138E+03  0.93128890730E+02 0.  0.
        -15    1    4    4    0    0  0.39933584790E+02 -0.69380018768E+02  0.42924860759E+02  0.90834034753E+02  0.00000000000E+00 0.  1.
        -15    1    5    5    0    0 -0.12138761768E+02 -0.17144192707E+02  0.25771410295E+02  0.33248134826E+02  0.00000000000E+00 0.  1.
         15    1    4    4    0    0 -0.83309539145E+01 -0.68331343866E+02  0.15197459595E+03  0.16683781095E+03  0.00000000000E+00 0. -1.
         15    1    5    5    0    0 -0.10824188792E+02  0.11343965537E+03  0.20742025746E+03  0.23666195655E+03  0.00000000000E+00 0. -1.
        -16    1    3    3    0    0 -0.15831052428E+03 -0.36764274652E+02  0.40545327409E+03  0.43681368049E+03  0.00000000000E+00 0.  1.
         16    1    1    2    0    0 -0.39616697281E+02  0.96880915827E+01 -0.16741360347E+02  0.44086448805E+02  0.00000000000E+00 0. -1.
    9900018    1    3    3    0    0  0.18928754125E+03  0.68492083040E+02  0.28798798673E+03  0.36300578178E+03  0.91187600000E+02 0.  0.
<mgrwt>
<rscale>  0 0.81265965E+03</rscale>
<asrwt>0</asrwt>
<pdfrwt beam="1">  1        1 0.20515141E-01 0.81265965E+03</pdfrwt>
<pdfrwt beam="2">  1       -1 0.19048298E+00 0.81265965E+03</pdfrwt>
<totfact> 0.45229079E+01</totfact>
</mgrwt>
</event>
<event>
12    1  0.1660119E-010  0.1091778E+04  0.7818608E-02  0.9213243E-01
          2   -1    0    0  501    0  0.00000000000E+00  0.00000000000E+00  0.12047681708E+04  0.12047681708E+04  0.00000000000E+00 0.  1.
         -2   -1    0    0    0  501 -0.00000000000E+00 -0.00000000000E+00 -0.24734616121E+03  0.24734616121E+03  0.00000000000E+00 0. -1.
    9900016    2    1    2    0    0  0.30386369556E+03  0.61611999459E+02  0.62056708108E+03  0.99429294019E+03  0.71231016056E+03 0.  0.
         23    2    3    3    0    0  0.10512986996E+03 -0.94108306458E+02  0.35403051958E+03  0.39022635839E+03  0.83847117354E+02 0.  0.
         23    2    3    3    0    0  0.76470211799E+02  0.17212635647E+03  0.12368314407E+03  0.24453334717E+03  0.94994009660E+02 0.  0.
        -15    1    5    5    0    0  0.28536757004E+02  0.89319398604E+02  0.11511402156E+03  0.14847066858E+03  0.00000000000E+00 0. -1.
        -15    1    4    4    0    0  0.80321051615E+01 -0.53239695356E+02  0.16825113079E+03  0.17665622799E+03  0.00000000000E+00 0.  1.
         15    1    4    4    0    0  0.97097764795E+02 -0.40868611102E+02  0.18577938879E+03  0.21357013040E+03  0.00000000000E+00 0. -1.
         15    1    5    5    0    0  0.47933454795E+02  0.82806957862E+02  0.85691225041E+01  0.96062678598E+02  0.00000000000E+00 0.  1.
        -16    1    1    2    0    0 -0.30386369556E+03 -0.61611999459E+02  0.33685492854E+03  0.45782139186E+03  0.00000000000E+00 0.  1.
         16    1    3    3    0    0  0.12070282719E+03 -0.13338232987E+03  0.96463383490E+02  0.20412055939E+03  0.00000000000E+00 0. -1.
    9900018    1    3    3    0    0  0.15607866142E+01  0.11697627932E+03  0.46390033943E+02  0.15541267523E+03  0.91187600000E+02 0.  0.
<mgrwt>
<rscale>  0 0.10917780E+04</rscale>
<asrwt>0</asrwt>
<pdfrwt beam="1">  1        2 0.18534895E+00 0.10917780E+04</pdfrwt>
<pdfrwt beam="2">  1       -2 0.38053256E-01 0.10917780E+04</pdfrwt>
<totfact> 0.12174402E+02</totfact>
</mgrwt>
</event>
<event>
12    1  0.1660119E-010  0.8804618E+03  0.7818608E-02  0.9450340E-01
         -1   -1    0    0    0  501 -0.00000000000E+00  0.00000000000E+00  0.14685537946E+03  0.14685537946E+03  0.00000000000E+00 0.  1.
          1   -1    0    0  501    0  0.00000000000E+00 -0.00000000000E+00 -0.13196878957E+04  0.13196878957E+04  0.00000000000E+00 0. -1.
    9900016    2    1    2    0    0  0.27787473575E+02 -0.26744487426E+02 -0.12140841645E+04  0.14100710715E+04  0.71610938902E+03 0.  0.
         23    2    3    3    0    0 -0.12559456461E+03 -0.38856670593E+02 -0.22759956373E+03  0.27822890407E+03  0.91246513049E+02 0.  0.
         23    2    3    3    0    0 -0.75400357939E+02 -0.37163789862E+02 -0.18020351352E+03  0.21901410343E+03  0.91801470360E+02 0.  0.
        -15    1    5    5    0    0 -0.48823932993E+02 -0.42595370309E+02 -0.18061501984E+03  0.19188519327E+03  0.00000000000E+00 0.  1.
        -15    1    4    4    0    0 -0.13577148492E+03 -0.49658305562E+02 -0.21286717417E+03  0.25731746397E+03  0.00000000000E+00 0. -1.
         15    1    4    4    0    0  0.10176920305E+02  0.10801634969E+02 -0.14732389559E+02  0.20911440099E+02  0.00000000000E+00 0.  1.
         15    1    5    5    0    0 -0.26576424946E+02  0.54315804469E+01  0.41150631382E+00  0.27128910161E+02  0.00000000000E+00 0. -1.
        -16    1    1    2    0    0 -0.27787473575E+02  0.26744487426E+02  0.41251648268E+02  0.56472203607E+02  0.00000000000E+00 0.  1.
         16    1    3    3    0    0  0.14517063844E+03 -0.10986308997E+03 -0.58878116371E+03  0.61628538157E+03  0.00000000000E+00 0. -1.
    9900018    1    3    3    0    0  0.83611757683E+02  0.15913906300E+03 -0.21749992353E+03  0.29654268247E+03  0.91187600000E+02 0.  0.
<mgrwt>
<rscale>  0 0.88046185E+03</rscale>
<asrwt>0</asrwt>
<pdfrwt beam="1">  1        1 0.20302891E+00 0.88046185E+03</pdfrwt>
<pdfrwt beam="2">  1       -1 0.22593135E-01 0.88046185E+03</pdfrwt>
<totfact> 0.14702596E+02</totfact>
</mgrwt>
</event>
<event>
12    1  0.1660119E-010  0.1217054E+04  0.7818608E-02  0.9098059E-01
         -1   -1    0    0    0  501 -0.00000000000E+00  0.00000000000E+00  0.99196524179E+03  0.99196524179E+03  0.00000000000E+00 0.  1.
          1   -1    0    0  501    0  0.00000000000E+00 -0.00000000000E+00 -0.37330449016E+03  0.37330449016E+03  0.00000000000E+00 0. -1.
    9900016    2    1    2    0    0  0.53149327043E+02  0.29824624640E+03  0.12302936188E+03  0.78438579435E+03  0.71298609807E+03 0.  0.
         23    2    3    3    0    0  0.11226912937E+02 -0.98264294208E+02 -0.25907277659E+02  0.13610992222E+03  0.89848810795E+02 0.  0.
         23    2    3    3    0    0 -0.67819224744E+02  0.26218831345E+02  0.16166554832E+02  0.11753125766E+03  0.90914051010E+02 0.  0.
        -15    1    5    5    0    0 -0.84202069381E+02  0.16842814461E+02  0.33240017084E+02  0.92079137826E+02  0.00000000000E+00 0.  1.
        -15    1    4    4    0    0  0.15364702077E+02 -0.88177141991E+02  0.17632309652E+02  0.91225987434E+02  0.00000000000E+00 0. -1.
         15    1    4    4    0    0 -0.41377891403E+01 -0.10087152217E+02 -0.43539587311E+02  0.44883934788E+02  0.00000000000E+00 0.  1.
         15    1    5    5    0    0  0.16382844637E+02  0.93760168835E+01 -0.17073462251E+02  0.25452119838E+02  0.00000000000E+00 0. -1.
        -16    1    1    2    0    0 -0.53149327043E+02 -0.29824624640E+03  0.49563138975E+03  0.58088393760E+03  0.00000000000E+00 0.  1.
         16    1    3    3    0    0  0.30609968654E+02  0.38338562410E+03  0.60249731461E+02  0.38929620740E+03  0.00000000000E+00 0. -1.
    9900018    1    3    3    0    0  0.79131670196E+02 -0.13093914840E+02  0.72520353243E+02  0.14144840707E+03  0.91187600000E+02 0.  0.
<mgrwt>
<rscale>  0 0.12170539E+04</rscale>
<asrwt>0</asrwt>
<pdfrwt beam="1">  1        1 0.57431461E-01 0.12170539E+04</pdfrwt>
<pdfrwt beam="2">  1       -1 0.15261004E+00 0.12170539E+04</pdfrwt>
<totfact> 0.21648096E+01</totfact>
</mgrwt>
</event>
<event>
12    1  0.1660119E-010  0.1332061E+04  0.7818608E-02  0.9004520E-01
         -1   -1    0    0    0  501 -0.00000000000E+00  0.00000000000E+00  0.11847910860E+03  0.11847910860E+03  0.00000000000E+00 0.  1.
          1   -1    0    0  501    0  0.00000000000E+00 -0.00000000000E+00 -0.37440941240E+04  0.37440941240E+04  0.00000000000E+00 0. -1.
    9900016    2    1    2    0    0  0.28795228604E+03 -0.37648530522E+03 -0.21434069689E+04  0.23064246545E+04  0.70763235395E+03 0.  0.
         23    2    3    3    0    0  0.55199750282E+02 -0.11720919654E+03 -0.28227963599E+03  0.32364566949E+03  0.90992957413E+02 0.  0.
         23    2    3    3    0    0  0.31552931719E+02  0.31216061056E+02 -0.11546625022E+03  0.15229752128E+03  0.88837211120E+02 0.  0.
        -15    1    4    4    0    0 -0.23569229181E+02 -0.44767604189E+02 -0.76762802875E+02  0.91935710441E+02  0.00000000000E+00 0.  1.
        -15    1    5    5    0    0  0.48132718245E+01  0.35329703281E+02 -0.11971462418E+03  0.12491175590E+03  0.00000000000E+00 0.  1.
         15    1    4    4    0    0  0.78768979463E+02 -0.72441592355E+02 -0.20551683312E+03  0.23170995905E+03  0.00000000000E+00 0. -1.
         15    1    5    5    0    0  0.26739659894E+02 -0.41136422246E+01  0.42483739667E+01  0.27385765371E+02  0.00000000000E+00 0. -1.
        -16    1    1    2    0    0 -0.28795228604E+03  0.37648530522E+03 -0.14822080465E+04  0.15561485781E+04  0.00000000000E+00 0.  1.
         16    1    3    3    0    0  0.21288790192E+03 -0.34673173976E+03 -0.15894597085E+04  0.16407090915E+04  0.00000000000E+00 0. -1.
    9900018    1    3    3    0    0 -0.11688297879E+02  0.56239570023E+02 -0.15620137419E+03  0.18977237216E+03  0.91187600000E+02 0.  0.
<mgrwt>
<rscale>  0 0.13320615E+04</rscale>
<asrwt>0</asrwt>
<pdfrwt beam="1">  1        1 0.57601444E+00 0.13320615E+04</pdfrwt>
<pdfrwt beam="2">  1       -1 0.18227556E-01 0.13320615E+04</pdfrwt>
<totfact> 0.37936505E+00</totfact>
</mgrwt>
</event>
<event>
12    1  0.1660119E-010  0.9101889E+03  0.7818608E-02  0.9412934E-01
          2   -1    0    0  501    0  0.00000000000E+00  0.00000000000E+00  0.45226879409E+03  0.45226879409E+03  0.00000000000E+00 0. -1.
         -2   -1    0    0    0  501 -0.00000000000E+00 -0.00000000000E+00 -0.45793771506E+03  0.45793771506E+03  0.00000000000E+00 0.  1.
    9900016    2    1    2    0    0  0.77776778527E+02 -0.15400782777E+03 -0.52798756576E+02  0.73135221176E+03  0.70874587171E+03 0.  0.
         23    2    3    3    0    0 -0.36946723608E+02 -0.10983154293E+02 -0.13648708199E+03  0.16621212099E+03  0.86672115177E+02 0.  0.
         23    2    3    3    0    0  0.61571368158E+02 -0.80575773001E+02 -0.87093926368E+02  0.16157922205E+03  0.90768961753E+02 0.  0.
        -15    1    5    5    0    0  0.54719538939E+02 -0.34851755135E+02 -0.22016925039E+01  0.64913174530E+02  0.00000000000E+00 0.  1.
        -15    1    4    4    0    0 -0.47221951047E+02 -0.29424840187E+02 -0.13382919324E+03  0.14493442257E+03  0.00000000000E+00 0.  1.
         15    1    4    4    0    0  0.10275227440E+02  0.18441685894E+02 -0.26578887489E+01  0.21277698422E+02  0.00000000000E+00 0. -1.
         15    1    5    5    0    0  0.68518292194E+01 -0.45724017866E+02 -0.84892233864E+02  0.96666047524E+02  0.00000000000E+00 0. -1.
        -16    1    3    3    0    0  0.11274488764E+03 -0.16423152722E+03  0.35699392830E+02  0.20238046070E+03  0.00000000000E+00 0.  1.
         16    1    1    2    0    0 -0.77776778527E+02  0.15400782777E+03  0.47129835603E+02  0.17885429739E+03  0.00000000000E+00 0. -1.
    9900018    1    3    3    0    0 -0.59592753665E+02  0.10178262675E+03  0.13508285895E+03  0.20118040803E+03  0.91187600000E+02 0.  0.
<mgrwt>
<rscale>  0 0.91018886E+03</rscale>
<asrwt>0</asrwt>
<pdfrwt beam="1">  1        2 0.69579815E-01 0.91018886E+03</pdfrwt>
<pdfrwt beam="2">  1       -2 0.70451956E-01 0.91018886E+03</pdfrwt>
<totfact> 0.12719941E+02</totfact>
</mgrwt>
</event>
<event>
12    1  0.1660119E-010  0.1366402E+04  0.7818608E-02  0.8978504E-01
         -2   -1    0    0    0  501 -0.00000000000E+00  0.00000000000E+00  0.12953491763E+04  0.12953491763E+04  0.00000000000E+00 0.  1.
          2   -1    0    0  501    0  0.00000000000E+00 -0.00000000000E+00 -0.36033825529E+03  0.36033825529E+03  0.00000000000E+00 0. -1.
    9900016    2    1    2    0    0  0.85440228873E+02  0.43052103478E+03  0.87783389154E+03  0.12130616226E+04  0.71293601749E+03 0.  0.
         23    2    3    3    0    0  0.82633902117E+02  0.10920140632E+03  0.33047500839E+03  0.36892636993E+03  0.90219877733E+02 0.  0.
         23    2    3    3    0    0  0.32619975540E+02  0.20342404269E+02  0.19384254144E+03  0.21522449150E+03  0.85257109108E+02 0.  0.
        -15    1    5    5    0    0 -0.69744612050E+01 -0.26463427050E+02  0.95444668846E+02  0.99290688846E+02  0.00000000000E+00 0. -1.
        -15    1    4    4    0    0  0.26379247689E+02  0.87944704500E+02  0.12675047554E+03  0.15651140153E+03  0.00000000000E+00 0. -1.
         15    1    4    4    0    0  0.56254654428E+02  0.21256701821E+02  0.20372453285E+03  0.21241496840E+03  0.00000000000E+00 0.  1.
         15    1    5    5    0    0  0.39594436745E+02  0.46805831319E+02  0.98397872591E+02  0.11593380265E+03  0.00000000000E+00 0.  1.
        -16    1    3    3    0    0 -0.21272650995E+02 -0.39978695180E+02 -0.66357121305E+02  0.80337346835E+02  0.00000000000E+00 0.  1.
         16    1    1    2    0    0 -0.85440228873E+02 -0.43052103478E+03  0.57177029491E+02  0.44262580900E+03  0.00000000000E+00 0. -1.
    9900018    1    3    3    0    0 -0.85409977887E+01  0.34095591937E+03  0.41987346302E+03  0.54857341435E+03  0.91187600000E+02 0.  0.
<mgrwt>
<rscale>  0 0.13664024E+04</rscale>
<asrwt>0</asrwt>
<pdfrwt beam="1">  1        2 0.55436656E-01 0.13664024E+04</pdfrwt>
<pdfrwt beam="2">  1       -2 0.19928449E+00 0.13664024E+04</pdfrwt>
<totfact> 0.11721166E+01</totfact>
</mgrwt>
</event>
<event>
12    1  0.1660119E-010  0.1018484E+04  0.7818608E-02  0.9288501E-01
         -1   -1    0    0    0  501 -0.00000000000E+00  0.00000000000E+00  0.44610358810E+03  0.44610358810E+03  0.00000000000E+00 0.  1.
          1   -1    0    0  501    0  0.00000000000E+00 -0.00000000000E+00 -0.58131614885E+03  0.58131614885E+03  0.00000000000E+00 0. -1.
    9900016    2    1    2    0    0  0.16122950201E+02 -0.37183172567E+02  0.16611051711E+03  0.72338333273E+03  0.70288562678E+03 0.  0.
         23    2    3    3    0    0 -0.40636021547E+02 -0.27166820310E+02  0.28557837517E+02  0.10626370619E+03  0.89928320324E+02 0.  0.
         23    2    3    3    0    0  0.82410787729E+02  0.34975195542E+02  0.15756240361E+03  0.20164881985E+03  0.88439432835E+02 0.  0.
        -15    1    4    4    0    0 -0.25442480389E+02 -0.60017372067E+02  0.25294500876E+02  0.69922932810E+02  0.00000000000E+00 0. -1.
        -15    1    5    5    0    0  0.17201018236E+02  0.37665897971E+02  0.13601074924E+02  0.43584218903E+02  0.00000000000E+00 0. -1.
         15    1    4    4    0    0 -0.15193541158E+02  0.32850551757E+02  0.32633366412E+01  0.36340773378E+02  0.00000000000E+00 0.  1.
         15    1    5    5    0    0  0.65209769492E+02 -0.26907024288E+01  0.14396132869E+03  0.15806460095E+03  0.00000000000E+00 0.  1.
        -16    1    3    3    0    0 -0.11048525705E+03 -0.18837197651E+03 -0.47730205594E+02  0.22353784039E+03  0.00000000000E+00 0.  1.
         16    1    1    2    0    0 -0.16122950201E+02  0.37183172567E+02 -0.30132307785E+03  0.30403640422E+03  0.00000000000E+00 0. -1.
    9900018    1    3    3    0    0  0.84833441066E+02  0.14338042871E+03  0.27720481573E+02  0.19193296630E+03  0.91187600000E+02 0.  0.
<mgrwt>
<rscale>  0 0.10184836E+04</rscale>
<asrwt>0</asrwt>
<pdfrwt beam="1">  1        1 0.89433254E-01 0.10184836E+04</pdfrwt>
<pdfrwt beam="2">  1       -1 0.68631321E-01 0.10184836E+04</pdfrwt>
<totfact> 0.77169892E+01</totfact>
</mgrwt>
</event>
<event>
12    1  0.1660119E-010  0.9774114E+03  0.7818608E-02  0.9333673E-01
         -1   -1    0    0    0  501 -0.00000000000E+00  0.00000000000E+00  0.32012258948E+03  0.32012258948E+03  0.00000000000E+00 0.  1.
          1   -1    0    0  501    0  0.00000000000E+00 -0.00000000000E+00 -0.74606806640E+03  0.74606806640E+03  0.00000000000E+00 0. -1.
    9900016    2    1    2    0    0 -0.16989037458E+03 -0.14647672976E+03 -0.35336882090E+03  0.83042479166E+03  0.71722914001E+03 0.  0.
         23    2    3    3    0    0 -0.10959264977E+02 -0.15045441648E+03 -0.29885099817E+03  0.34715426046E+03  0.91910415763E+02 0.  0.
         23    2    3    3    0    0 -0.13377327585E+03  0.19546263540E+02 -0.16995888964E+02  0.16186572022E+03  0.87374512245E+02 0.  0.
        -15    1    4    4    0    0  0.24986127189E+02 -0.10257512311E+03 -0.12687787540E+03  0.16505743758E+03  0.00000000000E+00 0.  1.
        -15    1    5    5    0    0 -0.10277883469E+02  0.26571484547E+02 -0.25011637177E+02  0.37911220950E+02  0.00000000000E+00 0. -1.
         15    1    4    4    0    0 -0.35945392166E+02 -0.47879293366E+02 -0.17197312277E+03  0.18209682289E+03  0.00000000000E+00 0. -1.
         15    1    5    5    0    0 -0.12349539238E+03 -0.70252210072E+01  0.80157482130E+01  0.12395449927E+03  0.00000000000E+00 0.  1.
        -16    1    3    3    0    0  0.69853709289E+02 -0.82013378140E+02  0.78866210332E+02  0.13351259876E+03  0.00000000000E+00 0.  1.
         16    1    1    2    0    0  0.16989037458E+03  0.14647672976E+03 -0.72576656013E+02  0.23576586422E+03  0.00000000000E+00 0. -1.
    9900018    1    3    3    0    0 -0.95011543041E+02  0.66444801316E+02 -0.11638814410E+03  0.18789221222E+03  0.91187600000E+02 0.  0.
<mgrwt>
<rscale>  0 0.97741136E+03</rscale>
<asrwt>0</asrwt>
<pdfrwt beam="1">  1        1 0.11477970E+00 0.97741136E+03</pdfrwt>
<pdfrwt beam="2">  1       -1 0.49249630E-01 0.97741136E+03</pdfrwt>
<totfact> 0.10237332E+02</totfact>
</mgrwt>
</event>
<event>
12    1  0.1660119E-010  0.2034130E+04  0.7818608E-02  0.8590828E-01
         -1   -1    0    0    0  501 -0.00000000000E+00  0.00000000000E+00  0.28631063538E+03  0.28631063538E+03  0.00000000000E+00 0.  1.
          1   -1    0    0  501    0  0.00000000000E+00 -0.00000000000E+00 -0.36129328880E+04  0.36129328880E+04  0.00000000000E+00 0. -1.
    9900016    2    1    2    0    0  0.30294632256E+02  0.55564426036E+03 -0.53184847304E+03  0.10496086717E+04  0.71355256054E+03 0.  0.
         23    2    3    3    0    0 -0.46124449570E+02  0.26400188441E+02 -0.12125206379E+03  0.16098474888E+03  0.91594713814E+02 0.  0.
         23    2    3    3    0    0 -0.11936117463E+03  0.22505263667E+03 -0.94639420737E+02  0.28743431966E+03  0.93627393851E+02 0.  0.
        -15    1    4    4    0    0 -0.48208744693E+02 -0.12212565119E+02 -0.21838239897E+02  0.54315177744E+02  0.00000000000E+00 0.  1.
        -15    1    5    5    0    0 -0.10545003920E+03  0.18041933943E+03 -0.11256556453E+03  0.23736439313E+03  0.00000000000E+00 0. -1.
         15    1    4    4    0    0  0.20842951229E+01  0.38612753559E+02 -0.99413823898E+02  0.10666957113E+03  0.00000000000E+00 0. -1.
         15    1    5    5    0    0 -0.13911135430E+02  0.44633297231E+02  0.17926143793E+02  0.50069926523E+02  0.00000000000E+00 0.  1.
        -16    1    3    3    0    0  0.19871760286E+03  0.31068622005E+03 -0.12491737481E+03  0.38938279821E+03  0.00000000000E+00 0.  1.
         16    1    1    2    0    0 -0.30294632256E+02 -0.55564426036E+03 -0.27947737796E+04  0.28496348517E+04  0.00000000000E+00 0. -1.
    9900018    1    3    3    0    0 -0.29373463999E+01 -0.64947847990E+01 -0.19103961371E+03  0.21180680497E+03  0.91187600000E+02 0.  0.
<mgrwt>
<rscale>  0 0.20341299E+04</rscale>
<asrwt>0</asrwt>
<pdfrwt beam="1">  1        1 0.55583580E+00 0.20341299E+04</pdfrwt>
<pdfrwt beam="2">  1       -1 0.44047792E-01 0.20341299E+04</pdfrwt>
<totfact> 0.96206001E-01</totfact>
</mgrwt>
</event>
<event>
12    1  0.1660119E-010  0.2144592E+04  0.7818608E-02  0.8541851E-01
          2   -1    0    0  501    0  0.00000000000E+00  0.00000000000E+00  0.22314027885E+04  0.22314027885E+04  0.00000000000E+00 0. -1.
         -2   -1    0    0    0  501 -0.00000000000E+00 -0.00000000000E+00 -0.51528951013E+03  0.51528951013E+03  0.00000000000E+00 0.  1.
    9900016    2    1    2    0    0 -0.31453398236E+02 -0.46855010679E+03  0.20185199944E+04  0.21881420854E+04  0.70214976975E+03 0.  0.
         23    2    3    3    0    0 -0.15232744959E+03 -0.91887204271E+02  0.63590380732E+03  0.66669455984E+03  0.91984095083E+02 0.  0.
         23    2    3    3    0    0 -0.69112617816E+02 -0.13453612049E+03  0.22050240266E+03  0.28069026484E+03  0.85376773999E+02 0.  0.
        -15    1    5    5    0    0  0.10947646203E+00 -0.43765424778E+02  0.16215765790E+02  0.46673069872E+02  0.00000000000E+00 0.  1.
        -15    1    4    4    0    0 -0.91778651901E+02 -0.10348666448E+03  0.42268764870E+03  0.44474448736E+03  0.00000000000E+00 0.  1.
         15    1    4    4    0    0 -0.60548797693E+02  0.11599460209E+02  0.21321615862E+03  0.22195007248E+03  0.00000000000E+00 0. -1.
         15    1    5    5    0    0 -0.69222094278E+02 -0.90770695708E+02  0.20428663687E+03  0.23401719497E+03  0.00000000000E+00 0. -1.
        -16    1    1    2    0    0  0.31453398236E+02  0.46855010679E+03 -0.30240671603E+03  0.55855021326E+03  0.00000000000E+00 0.  1.
         16    1    3    3    0    0  0.26276785690E+02 -0.11815141787E+03  0.10564290246E+03  0.16065693216E+03  0.00000000000E+00 0. -1.
    9900018    1    3    3    0    0  0.16370988348E+03 -0.12397536416E+03  0.10564708820E+04  0.10801003286E+04  0.91187600000E+02 0.  0.
<mgrwt>
<rscale>  0 0.21445918E+04</rscale>
<asrwt>0</asrwt>
<pdfrwt beam="1">  1        2 0.34329273E+00 0.21445918E+04</pdfrwt>
<pdfrwt beam="2">  1       -2 0.79275311E-01 0.21445918E+04</pdfrwt>
<totfact> 0.64219361E+00</totfact>
</mgrwt>
</event>
<event>
12    1  0.1660119E-010  0.1594317E+04  0.7818608E-02  0.8824047E-01
         -1   -1    0    0    0  501 -0.00000000000E+00  0.00000000000E+00  0.68012477141E+03  0.68012477141E+03  0.00000000000E+00 0.  1.
          1   -1    0    0  501    0  0.00000000000E+00 -0.00000000000E+00 -0.93433110874E+03  0.93433110874E+03  0.00000000000E+00 0. -1.
    9900016    2    1    2    0    0 -0.10023205873E+03  0.79276675308E+02  0.47675594096E+03  0.87240661687E+03  0.71935097211E+03 0.  0.
         23    2    3    3    0    0  0.11894121021E+02 -0.59952347386E+02  0.19557674016E+03  0.22421900894E+03  0.91039269585E+02 0.  0.
         23    2    3    3    0    0 -0.10262140503E+03 -0.49178323879E+02  0.83945721077E+02  0.16788336208E+03  0.90489109109E+02 0.  0.
        -15    1    4    4    0    0  0.47081683956E+02 -0.14403108814E+02  0.11592580991E+03  0.12594811595E+03  0.00000000000E+00 0.  1.
        -15    1    5    5    0    0 -0.77976393389E+02 -0.31100788063E+02  0.10221866921E+03  0.13227332792E+03  0.00000000000E+00 0.  1.
         15    1    4    4    0    0 -0.35187562935E+02 -0.45549238572E+02  0.79650930253E+02  0.98270892994E+02  0.00000000000E+00 0. -1.
         15    1    5    5    0    0 -0.24645011642E+02 -0.18077535816E+02 -0.18272948129E+02  0.35610034166E+02  0.00000000000E+00 0. -1.
        -16    1    3    3    0    0 -0.17654021946E+02  0.11234233275E+03  0.30139537901E+03  0.32213605620E+03  0.00000000000E+00 0.  1.
         16    1    1    2    0    0  0.10023205873E+03 -0.79276675308E+02 -0.73096227829E+03  0.74204926328E+03  0.00000000000E+00 0. -1.
    9900018    1    3    3    0    0  0.81492472252E+01  0.76065013822E+02 -0.10416189929E+03  0.15816818964E+03  0.91187600000E+02 0.  0.
<mgrwt>
<rscale>  0 0.15943171E+04</rscale>
<asrwt>0</asrwt>
<pdfrwt beam="1">  1        1 0.14374325E+00 0.15943171E+04</pdfrwt>
<pdfrwt beam="2">  1       -1 0.10463458E+00 0.15943171E+04</pdfrwt>
<totfact> 0.14062550E+01</totfact>
</mgrwt>
</event>
<event>
12    1  0.1660119E-010  0.1139887E+04  0.7818608E-02  0.9167165E-01
          2   -1    0    0  501    0  0.00000000000E+00  0.00000000000E+00  0.72887107343E+03  0.72887107343E+03  0.00000000000E+00 0. -1.
         -2   -1    0    0    0  501 -0.00000000000E+00 -0.00000000000E+00 -0.44566911785E+03  0.44566911785E+03  0.00000000000E+00 0.  1.
    9900016    2    1    2    0    0 -0.30180438704E+03 -0.10761813805E+03  0.33914772022E+03  0.84927494528E+03  0.70963314810E+03 0.  0.
         23    2    3    3    0    0 -0.13004830250E+03 -0.70990751207E+02  0.10237705616E+03  0.20219912397E+03  0.91930279917E+02 0.  0.
         23    2    3    3    0    0 -0.90245683814E+02 -0.68341301053E+02  0.51370051356E+02  0.15510607354E+03  0.92758800102E+02 0.  0.
        -15    1    4    4    0    0 -0.55497712707E+02 -0.81977272002E+02  0.56873235522E+02  0.11417019821E+03  0.00000000000E+00 0. -1.
        -15    1    5    5    0    0 -0.90993629584E+02 -0.22241157757E+02  0.11923582653E+02  0.94428181950E+02  0.00000000000E+00 0. -1.
         15    1    4    4    0    0 -0.74550589792E+02  0.10986520795E+02  0.45503820636E+02  0.88028925757E+02  0.00000000000E+00 0.  1.
         15    1    5    5    0    0  0.74794576978E+00 -0.46100143296E+02  0.39446468702E+02  0.60677891591E+02  0.00000000000E+00 0.  1.
        -16    1    1    2    0    0  0.30180438704E+03  0.10761813805E+03 -0.55945764647E+02  0.32526524600E+03  0.00000000000E+00 0.  1.
         16    1    3    3    0    0  0.77747196830E+02  0.19315734721E+03  0.57020771827E+02  0.21588366269E+03  0.00000000000E+00 0. -1.
    9900018    1    3    3    0    0 -0.15925759756E+03 -0.16144343300E+03  0.12837984088E+03  0.27608608508E+03  0.91187600000E+02 0.  0.
<mgrwt>
<rscale>  0 0.11398865E+04</rscale>
<asrwt>0</asrwt>
<pdfrwt beam="1">  1        2 0.11213401E+00 0.11398865E+04</pdfrwt>
<pdfrwt beam="2">  1       -2 0.68564480E-01 0.11398865E+04</pdfrwt>
<totfact> 0.74997699E+01</totfact>
</mgrwt>
</event>
<event>
12    1  0.1660119E-010  0.7420125E+03  0.7818608E-02  0.9647966E-01
         -2   -1    0    0    0  501 -0.00000000000E+00  0.00000000000E+00  0.33843154255E+03  0.33843154255E+03  0.00000000000E+00 0.  1.
          2   -1    0    0  501    0  0.00000000000E+00 -0.00000000000E+00 -0.40671629278E+03  0.40671629278E+03  0.00000000000E+00 0. -1.
    9900016    2    1    2    0    0  0.92349441185E+00 -0.39125047368E+01 -0.33250003043E+02  0.70988320651E+03  0.70909269045E+03 0.  0.
         23    2    3    3    0    0 -0.10888384644E+03 -0.45782427016E+02  0.26929096821E+02  0.15188879401E+03  0.91614992495E+02 0.  0.
         23    2    3    3    0    0 -0.80244366217E+02 -0.13530085594E+02  0.36511131057E+02  0.12901872473E+03  0.93223103975E+02 0.  0.
        -15    1    5    5    0    0 -0.54151573258E+02 -0.52199549073E+02  0.33308421874E+02  0.82259569520E+02  0.00000000000E+00 0. -1.
        -15    1    4    4    0    0 -0.11275133020E+03 -0.28637029207E+02 -0.39053961021E+01  0.11639670967E+03  0.00000000000E+00 0.  1.
         15    1    4    4    0    0  0.38674837586E+01 -0.17145397808E+02  0.30834492923E+02  0.35492084335E+02  0.00000000000E+00 0. -1.
         15    1    5    5    0    0 -0.26092792958E+02  0.38669463479E+02  0.32027091825E+01  0.46759155213E+02  0.00000000000E+00 0.  1.
        -16    1    3    3    0    0  0.16330180687E+03  0.74262769314E+02  0.10311638087E+03  0.20691889000E+03  0.00000000000E+00 0.  1.
         16    1    1    2    0    0 -0.92349441185E+00  0.39125047368E+01 -0.35034747186E+02  0.35264628818E+02  0.00000000000E+00 0. -1.
    9900018    1    3    3    0    0  0.26749900198E+02 -0.18862761441E+02 -0.19980661179E+03  0.22205679778E+03  0.91187600000E+02 0.  0.
<mgrwt>
<rscale>  0 0.74201246E+03</rscale>
<asrwt>0</asrwt>
<pdfrwt beam="1">  1        2 0.62571737E-01 0.74201246E+03</pdfrwt>
<pdfrwt beam="2">  1       -2 0.52066391E-01 0.74201246E+03</pdfrwt>
<totfact> 0.27413454E+02</totfact>
</mgrwt>
</event>
<event>
12    1  0.1660119E-010  0.1292209E+04  0.7818608E-02  0.9035766E-01
         -2   -1    0    0    0  501 -0.00000000000E+00  0.00000000000E+00  0.32604183485E+03  0.32604183485E+03  0.00000000000E+00 0. -1.
          2   -1    0    0  501    0  0.00000000000E+00 -0.00000000000E+00 -0.12803608400E+04  0.12803608400E+04  0.00000000000E+00 0.  1.
    9900016    2    1    2    0    0  0.10942788833E+03  0.40488272247E+03 -0.43074511095E+03  0.93555686218E+03  0.71681295332E+03 0.  0.
         23    2    3    3    0    0 -0.58613787316E+02  0.10113379946E+03 -0.39130193668E+02  0.15347004195E+03  0.91423521377E+02 0.  0.
         23    2    3    3    0    0  0.32843580750E+02  0.16454206746E+03 -0.17069859115E+03  0.25576868443E+03  0.90148866613E+02 0.  0.
        -15    1    4    4    0    0 -0.57057327499E+02  0.11601967673E+03 -0.45692832746E+02  0.13712745522E+03  0.00000000000E+00 0.  1.
        -15    1    5    5    0    0 -0.10769632207E+02  0.11485591794E+03 -0.68848712652E+02  0.13434289001E+03  0.00000000000E+00 0. -1.
         15    1    4    4    0    0 -0.15564598168E+01 -0.14885877270E+02  0.65626390781E+01  0.16342586727E+02  0.00000000000E+00 0. -1.
         15    1    5    5    0    0  0.43613212957E+02  0.49686149526E+02 -0.10184987850E+03  0.12142579442E+03  0.00000000000E+00 0.  1.
        -16    1    1    2    0    0 -0.10942788833E+03 -0.40488272247E+03 -0.52357389425E+03  0.67084581272E+03  0.00000000000E+00 0.  1.
         16    1    3    3    0    0  0.24064296963E+02  0.23978692402E+03 -0.25138858678E+03  0.34824284757E+03  0.00000000000E+00 0. -1.
    9900018    1    3    3    0    0  0.11113379793E+03 -0.10058006847E+03  0.30472260642E+02  0.17807528823E+03  0.91187600000E+02 0.  0.
<mgrwt>
<rscale>  0 0.12922093E+04</rscale>
<asrwt>0</asrwt>
<pdfrwt beam="1">  1        2 0.19697859E+00 0.12922093E+04</pdfrwt>
<pdfrwt beam="2">  1       -2 0.50160283E-01 0.12922093E+04</pdfrwt>
<totfact> 0.62569402E+01</totfact>
</mgrwt>
</event>
<event>
12    1  0.1660119E-010  0.9365014E+03  0.7818608E-02  0.9381069E-01
         -1   -1    0    0    0  501 -0.00000000000E+00  0.00000000000E+00  0.35244049595E+03  0.35244049595E+03  0.00000000000E+00 0.  1.
          1   -1    0    0  501    0  0.00000000000E+00 -0.00000000000E+00 -0.62211555443E+03  0.62211555443E+03  0.00000000000E+00 0. -1.
    9900016    2    1    2    0    0  0.16566609140E+03 -0.44662334495E+02 -0.30917119950E+03  0.79848810010E+03  0.71593046969E+03 0.  0.
         23    2    3    3    0    0  0.86180642023E+02 -0.10294470329E+02 -0.12727719611E+03  0.17924934074E+03  0.91639305587E+02 0.  0.
         23    2    3    3    0    0 -0.11492391684E+03 -0.73209892724E+02 -0.12779161597E+03  0.20730705805E+03  0.89879497947E+02 0.  0.
        -15    1    5    5    0    0 -0.10725949215E+03 -0.21923143885E+02 -0.71429361792E+02  0.13071869269E+03  0.00000000000E+00 0. -1.
        -15    1    4    4    0    0  0.68822923780E+02 -0.93117018379E+01 -0.14095017333E+03  0.15713132721E+03  0.00000000000E+00 0. -1.
         15    1    4    4    0    0  0.17357718243E+02 -0.98276849086E+00  0.13672977222E+02  0.22118013533E+02  0.00000000000E+00 0.  1.
         15    1    5    5    0    0 -0.76644246952E+01 -0.51286748840E+02 -0.56362254180E+02  0.76588365361E+02  0.00000000000E+00 0.  1.
        -16    1    1    2    0    0 -0.16566609140E+03  0.44662334495E+02  0.39496141024E+02  0.17606795028E+03  0.00000000000E+00 0.  1.
         16    1    3    3    0    0  0.16665331124E+03  0.16236091605E+03 -0.93921769005E+02  0.25090972858E+03  0.00000000000E+00 0. -1.
    9900018    1    3    3    0    0  0.27756054978E+02 -0.12351888749E+03  0.39819381582E+02  0.16102197272E+03  0.91187600000E+02 0.  0.
<mgrwt>
<rscale>  0 0.93650139E+03</rscale>
<asrwt>0</asrwt>
<pdfrwt beam="1">  1        1 0.95710084E-01 0.93650139E+03</pdfrwt>
<pdfrwt beam="2">  1       -1 0.54221615E-01 0.93650139E+03</pdfrwt>
<totfact> 0.11226490E+02</totfact>
</mgrwt>
</event>
<event>
12    1  0.1660119E-010  0.8852880E+03  0.7818608E-02  0.9444161E-01
         -2   -1    0    0    0  501 -0.00000000000E+00  0.00000000000E+00  0.35463905208E+03  0.35463905208E+03  0.00000000000E+00 0.  1.
          2   -1    0    0  501    0  0.00000000000E+00 -0.00000000000E+00 -0.55248769487E+03  0.55248769487E+03  0.00000000000E+00 0. -1.
    9900016    2    1    2    0    0  0.90640081886E+02  0.12439202008E+03 -0.15613666384E+03  0.74766236757E+03  0.71479462714E+03 0.  0.
         23    2    3    3    0    0 -0.22443074460E+02 -0.86495161766E+01 -0.14500420151E+03  0.17243461783E+03  0.90160818801E+02 0.  0.
         23    2    3    3    0    0  0.89125387765E+02  0.30192771802E+02 -0.95627927699E+02  0.16501952393E+03  0.96082279885E+02 0.  0.
        -15    1    5    5    0    0  0.35251411385E+02 -0.64846801750E+00  0.14880532666E+02  0.38268953054E+02  0.00000000000E+00 0.  1.
        -15    1    4    4    0    0  0.16265720915E+02 -0.27519707737E+02 -0.14674224510E+02  0.35174434690E+02  0.00000000000E+00 0.  1.
         15    1    4    4    0    0 -0.38708795375E+02  0.18870191560E+02 -0.13032997700E+03  0.13726018314E+03  0.00000000000E+00 0. -1.
         15    1    5    5    0    0  0.53873976380E+02  0.30841239819E+02 -0.11050846036E+03  0.12675057087E+03  0.00000000000E+00 0. -1.
        -16    1    3    3    0    0 -0.29767987273E+02  0.17800848162E+03  0.17544911821E+03  0.25170527542E+03  0.00000000000E+00 0.  1.
         16    1    1    2    0    0 -0.90640081886E+02 -0.12439202008E+03 -0.41711978956E+02  0.15946437938E+03  0.00000000000E+00 0. -1.
    9900018    1    3    3    0    0  0.53725755854E+02 -0.75159717169E+02 -0.90953652835E+02  0.15850295040E+03  0.91187600000E+02 0.  0.
<mgrwt>
<rscale>  0 0.88528800E+03</rscale>
<asrwt>0</asrwt>
<pdfrwt beam="1">  1        2 0.84998106E-01 0.88528800E+03</pdfrwt>
<pdfrwt beam="2">  1       -2 0.54559855E-01 0.88528800E+03</pdfrwt>
<totfact> 0.17384720E+02</totfact>
</mgrwt>
</event>
<event>
12    1  0.1660119E-010  0.1184109E+04  0.7818608E-02  0.9126880E-01
          2   -1    0    0  501    0  0.00000000000E+00  0.00000000000E+00  0.88461551149E+03  0.88461551149E+03  0.00000000000E+00 0. -1.
         -2   -1    0    0    0  501 -0.00000000000E+00 -0.00000000000E+00 -0.39624975050E+03  0.39624975050E+03  0.00000000000E+00 0.  1.
    9900016    2    1    2    0    0 -0.36428516988E+03  0.45067405714E+02  0.23990512696E+03  0.83761878123E+03  0.71366378405E+03 0.  0.
         23    2    3    3    0    0 -0.91928967516E+02 -0.45418858504E+01 -0.10235516900E+02  0.13040061506E+03  0.91804089269E+02 0.  0.
         23    2    3    3    0    0  0.19861837969E+01  0.49900860382E+02 -0.58795636662E+01  0.10371398534E+03  0.90708217345E+02 0.  0.
        -15    1    5    5    0    0  0.18033082884E+02  0.72032983769E+02 -0.13184690825E+02  0.75417364719E+02  0.00000000000E+00 0. -1.
        -15    1    4    4    0    0 -0.80866707268E+02 -0.25142501151E+02 -0.39081230014E+02  0.93267959385E+02  0.00000000000E+00 0. -1.
         15    1    4    4    0    0 -0.11062260248E+02  0.20600615301E+02  0.28845713114E+02  0.37132655677E+02  0.00000000000E+00 0.  1.
         15    1    5    5    0    0 -0.16046899087E+02 -0.22132123388E+02  0.73051271590E+01  0.28296620624E+02  0.00000000000E+00 0.  1.
        -16    1    3    3    0    0  0.31098731373E+01 -0.19143649619E+03  0.13421164638E+03  0.23381695706E+03  0.00000000000E+00 0.  1.
         16    1    1    2    0    0  0.36428516988E+03 -0.45067405714E+02  0.24846063403E+03  0.44324648077E+03  0.00000000000E+00 0. -1.
    9900018    1    3    3    0    0 -0.27745225930E+03  0.19114492737E+03  0.12180856114E+03  0.36968722376E+03  0.91187600000E+02 0.  0.
<mgrwt>
<rscale>  0 0.11841092E+04</rscale>
<asrwt>0</asrwt>
<pdfrwt beam="1">  1        2 0.13609469E+00 0.11841092E+04</pdfrwt>
<pdfrwt beam="2">  1       -2 0.60961500E-01 0.11841092E+04</pdfrwt>
<totfact> 0.74313108E+01</totfact>
</mgrwt>
</event>
<event>
12    1  0.1660119E-010  0.1432537E+04  0.7818608E-02  0.8930597E-01
          1   -1    0    0  501    0  0.00000000000E+00  0.00000000000E+00  0.82296384650E+03  0.82296384650E+03  0.00000000000E+00 0. -1.
         -1   -1    0    0    0  501 -0.00000000000E+00 -0.00000000000E+00 -0.62340618210E+03  0.62340618210E+03  0.00000000000E+00 0.  1.
    9900016    2    1    2    0    0 -0.13332572539E+03 -0.23374368807E+03  0.59945620299E+03  0.96436307644E+03  0.70585872747E+03 0.  0.
         23    2    3    3    0    0  0.47865956573E+02 -0.17046677866E+03  0.62117419182E+03  0.65234166568E+03  0.91335643463E+02 0.  0.
         23    2    3    3    0    0 -0.72544272597E+02 -0.24496838327E+02  0.46545140540E+02  0.12807970126E+03  0.91516081602E+02 0.  0.
        -15    1    5    5    0    0  0.20495574067E+02  0.31635581505E+01  0.74329004701E+00  0.20751605639E+02  0.00000000000E+00 0. -1.
        -15    1    4    4    0    0  0.65477303580E+02 -0.13064608626E+03  0.37732100360E+03  0.40463170526E+03  0.00000000000E+00 0.  1.
         15    1    4    4    0    0 -0.17611347008E+02 -0.39820692401E+02  0.24385318822E+03  0.24770996042E+03  0.00000000000E+00 0. -1.
         15    1    5    5    0    0 -0.93039846664E+02 -0.27660396478E+02  0.45801850493E+02  0.10732809562E+03  0.00000000000E+00 0.  1.
        -16    1    1    2    0    0  0.13332572539E+03  0.23374368807E+03 -0.39989853859E+03  0.48200695216E+03  0.00000000000E+00 0.  1.
         16    1    3    3    0    0 -0.10697474977E+02 -0.33719652229E+02 -0.46513252194E+01  0.35680327124E+02  0.00000000000E+00 0. -1.
    9900018    1    3    3    0    0 -0.97949934389E+02 -0.50604188513E+01 -0.63611804155E+02  0.14826138239E+03  0.91187600000E+02 0.  0.
<mgrwt>
<rscale>  0 0.14325373E+04</rscale>
<asrwt>0</asrwt>
<pdfrwt beam="1">  1        1 0.12660982E+00 0.14325373E+04</pdfrwt>
<pdfrwt beam="2">  1       -1 0.95908643E-01 0.14325373E+04</pdfrwt>
<totfact> 0.21535185E+01</totfact>
</mgrwt>
</event>
<event>
12    1  0.1660119E-010  0.8963264E+03  0.7818608E-02  0.9430185E-01
         -1   -1    0    0    0  501 -0.00000000000E+00  0.00000000000E+00  0.15151559910E+03  0.15151559910E+03  0.00000000000E+00 0.  1.
          1   -1    0    0  501    0  0.00000000000E+00 -0.00000000000E+00 -0.13256078560E+04  0.13256078560E+04  0.00000000000E+00 0. -1.
    9900016    2    1    2    0    0  0.15369889305E+03  0.34819643361E+02 -0.85351660292E+03  0.11199057243E+04  0.70771638563E+03 0.  0.
         23    2    3    3    0    0  0.11092561936E+03  0.19640232552E+03 -0.20022272665E+03  0.31775791276E+03  0.10001292092E+03 0.  0.
         23    2    3    3    0    0 -0.54167790028E+02 -0.11080430868E+03 -0.33498887882E+03  0.36764222404E+03  0.87929014909E+02 0.  0.
        -15    1    5    5    0    0 -0.12095058406E+02 -0.63562019775E+02 -0.26719343981E+03  0.27491590545E+03  0.00000000000E+00 0.  1.
        -15    1    4    4    0    0  0.73507662640E+02  0.18985927056E+03 -0.18986403054E+03  0.27838510948E+03  0.00000000000E+00 0.  1.
         15    1    4    4    0    0  0.37417956717E+02  0.65430549633E+01 -0.10358696107E+02  0.39372803281E+02  0.00000000000E+00 0. -1.
         15    1    5    5    0    0 -0.42072731621E+02 -0.47242288903E+02 -0.67795439015E+02  0.92726318584E+02  0.00000000000E+00 0. -1.
        -16    1    1    2    0    0 -0.15369889305E+03 -0.34819643361E+02 -0.32057565394E+03  0.35721773079E+03  0.00000000000E+00 0.  1.
         16    1    3    3    0    0  0.50029520858E+02  0.98879405198E+02 -0.89118554515E+02  0.14220480473E+03  0.00000000000E+00 0. -1.
    9900018    1    3    3    0    0  0.46911542865E+02 -0.14965777868E+03 -0.22918644294E+03  0.29230078275E+03  0.91187600000E+02 0.  0.
<mgrwt>
<rscale>  0 0.89632643E+03</rscale>
<asrwt>0</asrwt>
<pdfrwt beam="1">  1        1 0.20393967E+00 0.89632643E+03</pdfrwt>
<pdfrwt beam="2">  1       -1 0.23310092E-01 0.89632643E+03</pdfrwt>
<totfact> 0.13796057E+02</totfact>
</mgrwt>
</event>
<event>
12    1  0.1660119E-010  0.9771186E+03  0.7818608E-02  0.9334003E-01
         -2   -1    0    0    0  501 -0.00000000000E+00  0.00000000000E+00  0.18410017493E+03  0.18410017493E+03  0.00000000000E+00 0.  1.
          2   -1    0    0  501    0  0.00000000000E+00 -0.00000000000E+00 -0.12965233754E+04  0.12965233754E+04  0.00000000000E+00 0. -1.
    9900016    2    1    2    0    0  0.72020735396E+02  0.59381617863E+02 -0.11715327304E+04  0.13701378073E+04  0.70432628083E+03 0.  0.
         23    2    3    3    0    0 -0.89212293961E+02  0.14357354936E+02 -0.27485986331E+03  0.30349604790E+03  0.91634816505E+02 0.  0.
         23    2    3    3    0    0 -0.87009582250E+02  0.16484859856E+02 -0.11737437480E+03  0.17348393760E+03  0.92073420368E+02 0.  0.
        -15    1    4    4    0    0 -0.10029471272E+01  0.26344786316E+02 -0.18737148013E+02  0.32344000752E+02  0.00000000000E+00 0. -1.
        -15    1    5    5    0    0 -0.21102885845E+02  0.42099553894E+02 -0.15702592155E+02  0.49641470863E+02  0.00000000000E+00 0. -1.
         15    1    4    4    0    0 -0.88209346834E+02 -0.11987431380E+02 -0.25612271530E+03  0.27115204715E+03  0.00000000000E+00 0.  1.
         15    1    5    5    0    0 -0.65906696404E+02 -0.25614694039E+02 -0.10167178264E+03  0.12384246674E+03  0.00000000000E+00 0.  1.
        -16    1    1    2    0    0 -0.72020735396E+02 -0.59381617863E+02  0.59109529948E+02  0.11048574296E+03  0.00000000000E+00 0.  1.
         16    1    3    3    0    0 -0.77712396774E+02 -0.38255674801E+02 -0.21446965037E+03  0.23130054949E+03  0.00000000000E+00 0. -1.
    9900018    1    3    3    0    0  0.32595500838E+03  0.66795077872E+02 -0.56482884190E+03  0.66185727234E+03  0.91187600000E+02 0.  0.
<mgrwt>
<rscale>  0 0.97711858E+03</rscale>
<asrwt>0</asrwt>
<pdfrwt beam="1">  1        2 0.19946513E+00 0.97711858E+03</pdfrwt>
<pdfrwt beam="2">  1       -2 0.28323104E-01 0.97711858E+03</pdfrwt>
<totfact> 0.18917526E+02</totfact>
</mgrwt>
</event>
<event>
12    1  0.1660119E-010  0.9567424E+03  0.7818608E-02  0.9357304E-01
         -1   -1    0    0    0  501 -0.00000000000E+00  0.00000000000E+00  0.48845539936E+03  0.48845539936E+03  0.00000000000E+00 0.  1.
          1   -1    0    0  501    0  0.00000000000E+00 -0.00000000000E+00 -0.46849522629E+03  0.46849522629E+03  0.00000000000E+00 0. -1.
    9900016    2    1    2    0    0  0.17299094084E+03  0.10636782106E+03 -0.59706708002E+02  0.73880665735E+03  0.70783501396E+03 0.  0.
         23    2    3    3    0    0 -0.64343574428E+02 -0.81181742612E+02 -0.27730889004E+01  0.13779879908E+03  0.90830876371E+02 0.  0.
         23    2    3    3    0    0  0.84181649203E+02  0.29380892988E+02 -0.12567110262E+02  0.12865032850E+03  0.91886820744E+02 0.  0.
        -15    1    5    5    0    0 -0.10209214526E+02  0.24043021192E+02 -0.21302492003E+02  0.33705950437E+02  0.00000000000E+00 0. -1.
        -15    1    4    4    0    0 -0.21929586236E+02 -0.33828054562E+01  0.35026907351E+02  0.41463651115E+02  0.00000000000E+00 0. -1.
         15    1    4    4    0    0 -0.42413988192E+02 -0.77798937156E+02 -0.37799996251E+02  0.96335147965E+02  0.00000000000E+00 0.  1.
         15    1    5    5    0    0  0.94390863729E+02  0.53378717961E+01  0.87353817411E+01  0.94944378059E+02  0.00000000000E+00 0.  1.
        -16    1    1    2    0    0 -0.17299094084E+03 -0.10636782106E+03  0.79666881074E+02  0.21814396831E+03  0.00000000000E+00 0.  1.
         16    1    3    3    0    0 -0.71169271271E+02  0.63992477526E+02 -0.16120727213E+03  0.18747769718E+03  0.00000000000E+00 0. -1.
    9900018    1    3    3    0    0  0.22432213733E+03  0.94176193160E+02  0.11684076329E+03  0.28487983259E+03  0.91187600000E+02 0.  0.
<mgrwt>
<rscale>  0 0.95674244E+03</rscale>
<asrwt>0</asrwt>
<pdfrwt beam="1">  1        1 0.72076189E-01 0.95674244E+03</pdfrwt>
<pdfrwt beam="2">  1       -1 0.75146985E-01 0.95674244E+03</pdfrwt>
<totfact> 0.86789781E+01</totfact>
</mgrwt>
</event>
<event>
12    1  0.1660119E-010  0.9797393E+03  0.7818608E-02  0.9331050E-01
          1   -1    0    0  501    0  0.00000000000E+00  0.00000000000E+00  0.16952337664E+03  0.16952337664E+03  0.00000000000E+00 0. -1.
         -1   -1    0    0    0  501 -0.00000000000E+00 -0.00000000000E+00 -0.14155702784E+04  0.14155702784E+04  0.00000000000E+00 0.  1.
    9900016    2    1    2    0    0  0.20141712217E+03  0.15886871859E+02 -0.78089005983E+03  0.10779525135E+04  0.71510215083E+03 0.  0.
         23    2    3    3    0    0  0.33844928502E+02  0.18841104103E+02 -0.99660837350E+02  0.14038672790E+03  0.90970789159E+02 0.  0.
         23    2    3    3    0    0 -0.11081307815E+03 -0.58308626044E+02 -0.27730279953E+02  0.15550135909E+03  0.87933327544E+02 0.  0.
        -15    1    5    5    0    0 -0.92267739221E+02 -0.17564164664E+02 -0.49001088307E+02  0.10593838887E+03  0.00000000000E+00 0. -1.
        -15    1    4    4    0    0 -0.89932878443E+01  0.15246037519E+02 -0.95579361638E+02  0.97204605124E+02  0.00000000000E+00 0.  1.
         15    1    4    4    0    0  0.42838216347E+02  0.35950665849E+01 -0.40814757124E+01  0.43182122777E+02  0.00000000000E+00 0. -1.
         15    1    5    5    0    0 -0.18545338932E+02 -0.40744461380E+02  0.21270808355E+02  0.49562970223E+02  0.00000000000E+00 0.  1.
        -16    1    1    2    0    0 -0.20141712217E+03 -0.15886871859E+02 -0.46515684196E+03  0.50714114152E+03  0.00000000000E+00 0.  1.
         16    1    3    3    0    0  0.19995773648E+03  0.16346025635E+03 -0.31834555122E+03  0.40993443593E+03  0.00000000000E+00 0. -1.
    9900018    1    3    3    0    0  0.78427535345E+02 -0.10810586255E+03 -0.33515339131E+03  0.37212999062E+03  0.91187600000E+02 0.  0.
<mgrwt>
<rscale>  0 0.97973926E+03</rscale>
<asrwt>0</asrwt>
<pdfrwt beam="1">  1        1 0.26080520E-01 0.97973926E+03</pdfrwt>
<pdfrwt beam="2">  1       -1 0.21778004E+00 0.97973926E+03</pdfrwt>
<totfact> 0.21196504E+01</totfact>
</mgrwt>
</event>
<event>
12    1  0.1660119E-010  0.1081743E+04  0.7818608E-02  0.9223171E-01
          2   -1    0    0  501    0  0.00000000000E+00  0.00000000000E+00  0.11398842441E+04  0.11398842441E+04  0.00000000000E+00 0. -1.
         -2   -1    0    0    0  501 -0.00000000000E+00 -0.00000000000E+00 -0.25664190218E+03  0.25664190218E+03  0.00000000000E+00 0.  1.
    9900016    2    1    2    0    0 -0.12855712017E+03  0.27279642318E+03  0.66438249805E+03  0.10239077719E+04  0.71835798876E+03 0.  0.
         23    2    3    3    0    0 -0.21186008213E+03  0.52723292705E+02  0.48448738857E+03  0.53921929051E+03  0.91460229477E+02 0.  0.
         23    2    3    3    0    0  0.10718799790E+03  0.86165250546E+02 -0.24434624231E+02  0.16206493811E+03  0.82184402471E+02 0.  0.
        -15    1    5    5    0    0  0.61726435858E+02  0.82233198357E+02  0.12204919862E+02  0.10354425076E+03  0.00000000000E+00 0. -1.
        -15    1    4    4    0    0 -0.12091980217E+03 -0.14452098769E+01  0.17992717553E+03  0.21678901190E+03  0.00000000000E+00 0.  1.
         15    1    4    4    0    0 -0.90940279960E+02  0.54168502581E+02  0.30456021305E+03  0.32243027861E+03  0.00000000000E+00 0. -1.
         15    1    5    5    0    0  0.45461562037E+02  0.39320521891E+01 -0.36639544093E+02  0.58520687356E+02  0.00000000000E+00 0.  1.
        -16    1    1    2    0    0  0.12855712017E+03 -0.27279642318E+03  0.21885984384E+03  0.37261837433E+03  0.00000000000E+00 0.  1.
         16    1    3    3    0    0 -0.15017064347E+02  0.15072176294E+03  0.15694731335E+03  0.21811698974E+03  0.00000000000E+00 0. -1.
    9900018    1    3    3    0    0 -0.88679715837E+01 -0.16813883010E+02  0.47382420351E+02  0.10450655355E+03  0.91187600000E+02 0.  0.
<mgrwt>
<rscale>  0 0.10817432E+04</rscale>
<asrwt>0</asrwt>
<pdfrwt beam="1">  1        2 0.17536680E+00 0.10817432E+04</pdfrwt>
<pdfrwt beam="2">  1       -2 0.39483370E-01 0.10817432E+04</pdfrwt>
<totfact> 0.12406412E+02</totfact>
</mgrwt>
</event>
<event>
12    1  0.1660119E-010  0.1743742E+04  0.7818608E-02  0.8736802E-01
         -1   -1    0    0    0  501 -0.00000000000E+00  0.00000000000E+00  0.12396798109E+04  0.12396798109E+04  0.00000000000E+00 0.  1.
          1   -1    0    0  501    0  0.00000000000E+00 -0.00000000000E+00 -0.61318994891E+03  0.61318994891E+03  0.00000000000E+00 0. -1.
    9900016    2    1    2    0    0 -0.48048523248E+03  0.18581363323E+03 -0.17654292539E+03  0.89879721407E+03  0.71503584707E+03 0.  0.
         23    2    3    3    0    0 -0.14762877421E+03  0.11035025278E+03 -0.60750803669E+02  0.21493857376E+03  0.92393165772E+02 0.  0.
         23    2    3    3    0    0 -0.35693675148E+03  0.29245491205E+01 -0.21208582746E+03  0.42458486142E+03  0.88766597264E+02 0.  0.
        -15    1    5    5    0    0 -0.16416627567E+03  0.13893347478E+02 -0.14708055420E+03  0.22085352747E+03  0.00000000000E+00 0.  1.
        -15    1    4    4    0    0 -0.11585122424E+03  0.60650725314E+02 -0.71192870952E+00  0.13076896987E+03  0.00000000000E+00 0. -1.
         15    1    4    4    0    0 -0.31777549966E+02  0.49699527465E+02 -0.60038874959E+02  0.84169603887E+02  0.00000000000E+00 0.  1.
         15    1    5    5    0    0 -0.19277047581E+03 -0.10968798358E+02 -0.65005273267E+02  0.20373133395E+03  0.00000000000E+00 0. -1.
        -16    1    1    2    0    0  0.48048523248E+03 -0.18581363323E+03  0.80303278743E+03  0.95407254578E+03  0.00000000000E+00 0.  1.
         16    1    3    3    0    0  0.37193815577E+02  0.12764301996E+03  0.60952875220E+02  0.14625790050E+03  0.00000000000E+00 0. -1.
    9900018    1    3    3    0    0 -0.13113522368E+02 -0.55104188630E+02  0.35340830520E+02  0.11301587839E+03  0.91187600000E+02 0.  0.
<mgrwt>
<rscale>  0 0.17437422E+04</rscale>
<asrwt>0</asrwt>
<pdfrwt beam="1">  1        1 0.94336916E-01 0.17437422E+04</pdfrwt>
<pdfrwt beam="2">  1       -1 0.19071997E+00 0.17437422E+04</pdfrwt>
<totfact> 0.54940287E+00</totfact>
</mgrwt>
</event>
<event>
12    1  0.1660119E-010  0.1585516E+04  0.7818608E-02  0.8829496E-01
          1   -1    0    0  501    0  0.00000000000E+00  0.00000000000E+00  0.15697153857E+04  0.15697153857E+04  0.00000000000E+00 0. -1.
         -1   -1    0    0    0  501 -0.00000000000E+00 -0.00000000000E+00 -0.40036871869E+03  0.40036871869E+03  0.00000000000E+00 0.  1.
    9900016    2    1    2    0    0  0.51252665100E+03  0.15273640462E+03  0.11290834723E+04  0.14337697357E+04  0.70345873380E+03 0.  0.
         23    2    3    3    0    0  0.19777851800E+03 -0.60288246280E+02  0.30888901705E+03  0.38304435171E+03  0.92517758841E+02 0.  0.
         23    2    3    3    0    0  0.53834669169E+02  0.34973136511E+02  0.18183924092E+03  0.21372929088E+03  0.92159689457E+02 0.  0.
        -15    1    4    4    0    0  0.51301150773E+02  0.78375220672E+01  0.14011816499E+03  0.14941999526E+03  0.00000000000E+00 0. -1.
        -15    1    5    5    0    0 -0.56536742465E+01 -0.24374914722E+02  0.22781567112E+02  0.33839330671E+02  0.00000000000E+00 0. -1.
         15    1    4    4    0    0  0.14647736723E+03 -0.68125768348E+02  0.16877085206E+03  0.23362435645E+03  0.00000000000E+00 0.  1.
         15    1    5    5    0    0  0.59488343416E+02  0.59348051233E+02  0.15905767381E+03  0.17988996021E+03  0.00000000000E+00 0.  1.
        -16    1    3    3    0    0  0.24833339808E+02  0.18970990377E+03  0.52029711927E+02  0.19827665843E+03  0.00000000000E+00 0.  1.
         16    1    1    2    0    0 -0.51252665100E+03 -0.15273640462E+03  0.40263194714E+02  0.53631436875E+03  0.00000000000E+00 0. -1.
    9900018    1    3    3    0    0  0.23608012402E+03 -0.11658389381E+02  0.58632550243E+03  0.63871943465E+03  0.91187600000E+02 0.  0.
<mgrwt>
<rscale>  0 0.15855156E+04</rscale>
<asrwt>0</asrwt>
<pdfrwt beam="1">  1        1 0.24149467E+00 0.15855156E+04</pdfrwt>
<pdfrwt beam="2">  1       -1 0.61595188E-01 0.15855156E+04</pdfrwt>
<totfact> 0.15034712E+01</totfact>
</mgrwt>
</event>
<event>
12    1  0.1660119E-010  0.1017822E+04  0.7818608E-02  0.9289211E-01
         -1   -1    0    0    0  501 -0.00000000000E+00  0.00000000000E+00  0.94871702792E+03  0.94871702792E+03  0.00000000000E+00 0.  1.
          1   -1    0    0  501    0  0.00000000000E+00 -0.00000000000E+00 -0.27299032614E+03  0.27299032614E+03  0.00000000000E+00 0. -1.
    9900016    2    1    2    0    0  0.63585830720E+02 -0.21178163556E+03  0.33388892654E+03  0.81458613917E+03  0.70934768896E+03 0.  0.
         23    2    3    3    0    0 -0.15315200176E+02 -0.33101976988E+02  0.13105646804E+02  0.10597174948E+03  0.98630408456E+02 0.  0.
         23    2    3    3    0    0  0.13372550392E+02 -0.97651566153E+02 -0.36219678329E+02  0.13847788619E+03  0.90275170397E+02 0.  0.
        -15    1    4    4    0    0  0.10155564372E+02  0.25430002824E+02 -0.20147197120E+02  0.33996030402E+02  0.00000000000E+00 0.  1.
        -15    1    5    5    0    0  0.38369057175E+02 -0.45336756502E+02  0.14840696389E+02  0.61219705225E+02  0.00000000000E+00 0.  1.
         15    1    4    4    0    0 -0.25470764549E+02 -0.58531979811E+02  0.33252843923E+02  0.71975719075E+02  0.00000000000E+00 0. -1.
         15    1    5    5    0    0 -0.24996506783E+02 -0.52314809651E+02 -0.51060374718E+02  0.77258180968E+02  0.00000000000E+00 0. -1.
        -16    1    1    2    0    0 -0.63585830720E+02  0.21178163556E+03  0.34183777524E+03  0.40712121489E+03  0.00000000000E+00 0.  1.
         16    1    3    3    0    0  0.12930530846E+03 -0.10498358007E+03 -0.27790760366E+02  0.16886012330E+03  0.00000000000E+00 0. -1.
    9900018    1    3    3    0    0 -0.63776827955E+02  0.23955487644E+02  0.38479371843E+03  0.40127638020E+03  0.91187600000E+02 0.  0.
<mgrwt>
<rscale>  0 0.10178223E+04</rscale>
<asrwt>0</asrwt>
<pdfrwt beam="1">  1        1 0.41998512E-01 0.10178223E+04</pdfrwt>
<pdfrwt beam="2">  1       -1 0.14595646E+00 0.10178223E+04</pdfrwt>
<totfact> 0.37299201E+01</totfact>
</mgrwt>
</event>
<event>
12    1  0.1660119E-010  0.1116519E+04  0.7818608E-02  0.9189240E-01
         -4   -1    0    0    0  501 -0.00000000000E+00  0.00000000000E+00  0.26733619116E+03  0.26733619116E+03  0.00000000000E+00 0. -1.
          4   -1    0    0  501    0  0.00000000000E+00 -0.00000000000E+00 -0.11657733607E+04  0.11657733607E+04  0.00000000000E+00 0.  1.
    9900016    2    1    2    0    0 -0.33168722252E+03 -0.26887293521E+02 -0.57187211970E+03  0.96686490372E+03  0.70501821297E+03 0.  0.
         23    2    3    3    0    0 -0.14368271690E+03  0.38438250536E+02 -0.22876755191E+03  0.28764485904E+03  0.91009614234E+02 0.  0.
         23    2    3    3    0    0  0.20711654029E+02  0.51910663103E+02  0.53840322385E+02  0.12111491979E+03  0.92985772704E+02 0.  0.
        -15    1    4    4    0    0 -0.24472579296E+02  0.48737082980E+02 -0.77767404366E+02  0.94984101705E+02  0.00000000000E+00 0.  1.
        -15    1    5    5    0    0  0.21297166624E+02  0.74616326092E+02  0.19612168759E+02  0.80036257966E+02  0.00000000000E+00 0. -1.
         15    1    4    4    0    0 -0.11921013760E+03 -0.10298832444E+02 -0.15100014755E+03  0.19266075733E+03  0.00000000000E+00 0. -1.
         15    1    5    5    0    0 -0.58551259566E+00 -0.22705662989E+02  0.34228153626E+02  0.41078661826E+02  0.00000000000E+00 0.  1.
        -16    1    3    3    0    0 -0.98093505545E+02 -0.19295930859E+03 -0.29746535672E+03  0.36788757664E+03  0.00000000000E+00 0.  1.
         16    1    1    2    0    0  0.33168722252E+03  0.26887293521E+02 -0.32656504985E+03  0.46624464814E+03  0.00000000000E+00 0. -1.
    9900018    1    3    3    0    0 -0.11062265411E+03  0.75723101431E+02 -0.99479533451E+02  0.19021754825E+03  0.91187600000E+02 0.  0.
<mgrwt>
<rscale>  0 0.11165185E+04</rscale>
<asrwt>0</asrwt>
<pdfrwt beam="1">  1        4 0.17934974E+00 0.11165185E+04</pdfrwt>
<pdfrwt beam="2">  1       -4 0.41128645E-01 0.11165185E+04</pdfrwt>
<totfact> 0.20719497E+00</totfact>
</mgrwt>
</event>
<event>
12    1  0.1660119E-010  0.9515683E+03  0.7818608E-02  0.9363319E-01
          1   -1    0    0  501    0  0.00000000000E+00  0.00000000000E+00  0.66247212601E+03  0.66247212601E+03  0.00000000000E+00 0. -1.
         -1   -1    0    0    0  501 -0.00000000000E+00 -0.00000000000E+00 -0.34170577141E+03  0.34170577141E+03  0.00000000000E+00 0.  1.
    9900016    2    1    2    0    0 -0.15807020071E+03 -0.13170487216E+03  0.31788924151E+03  0.79840948517E+03  0.70290239325E+03 0.  0.
         23    2    3    3    0    0 -0.15247302199E+03 -0.32982240732E+02  0.19522176615E+03  0.26641073119E+03  0.92343321792E+02 0.  0.
         23    2    3    3    0    0 -0.64007026561E+02 -0.10929493913E+03  0.11455948828E+01  0.15642176758E+03  0.91783298145E+02 0.  0.
        -15    1    5    5    0    0 -0.41536889993E+02 -0.88481288945E+02  0.41136445386E+02  0.10604932278E+03  0.00000000000E+00 0. -1.
        -15    1    4    4    0    0 -0.24211876186E+02 -0.24959611439E+02  0.10167511542E+03  0.10745709026E+03  0.00000000000E+00 0.  1.
         15    1    4    4    0    0 -0.12826114580E+03 -0.80226292924E+01  0.93546650722E+02  0.15895364093E+03  0.00000000000E+00 0. -1.
         15    1    5    5    0    0 -0.22470136568E+02 -0.20813650182E+02 -0.39990850503E+02  0.50372444801E+02  0.00000000000E+00 0.  1.
        -16    1    1    2    0    0  0.15807020071E+03  0.13170487216E+03  0.28771130907E+01  0.20576841226E+03  0.00000000000E+00 0.  1.
         16    1    3    3    0    0  0.10242553705E+02  0.16672319756E+03  0.41914866747E+02  0.17221611587E+03  0.00000000000E+00 0. -1.
    9900018    1    3    3    0    0  0.48167294134E+02 -0.15615088987E+03  0.79607013734E+02  0.20336087052E+03  0.91187600000E+02 0.  0.
<mgrwt>
<rscale>  0 0.95156828E+03</rscale>
<asrwt>0</asrwt>
<pdfrwt beam="1">  1        1 0.10191879E+00 0.95156828E+03</pdfrwt>
<pdfrwt beam="2">  1       -1 0.52570119E-01 0.95156828E+03</pdfrwt>
<totfact> 0.10850361E+02</totfact>
</mgrwt>
</event>
<event>
12    1  0.1660119E-010  0.1421468E+04  0.7818608E-02  0.8938424E-01
         -2   -1    0    0    0  501 -0.00000000000E+00  0.00000000000E+00  0.18114860655E+03  0.18114860655E+03  0.00000000000E+00 0.  1.
          2   -1    0    0  501    0  0.00000000000E+00 -0.00000000000E+00 -0.27885552246E+04  0.27885552246E+04  0.00000000000E+00 0. -1.
    9900016    2    1    2    0    0  0.13749746054E+02 -0.29231833366E+03 -0.68010484437E+03  0.10203113128E+04  0.70203526409E+03 0.  0.
         23    2    3    3    0    0 -0.10358126631E+03 -0.49788628321E+02 -0.15655499216E+03  0.21371116329E+03  0.89190859974E+02 0.  0.
         23    2    3    3    0    0 -0.40134847235E+02  0.28628258795E+02 -0.30760992482E+03  0.32396064837E+03  0.88860861330E+02 0.  0.
        -15    1    4    4    0    0 -0.11706295780E+03 -0.43416270071E+02 -0.15452429580E+03  0.19866168878E+03  0.00000000000E+00 0. -1.
        -15    1    5    5    0    0  0.16647618044E+02  0.30246123883E+02 -0.19279309121E+03  0.19586001944E+03  0.00000000000E+00 0. -1.
         15    1    4    4    0    0  0.13481691493E+02 -0.63723582505E+01 -0.20306963567E+01  0.15049474505E+02  0.00000000000E+00 0.  1.
         15    1    5    5    0    0 -0.56782465279E+02 -0.16178650879E+01 -0.11481683361E+03  0.12810062893E+03  0.00000000000E+00 0.  1.
        -16    1    3    3    0    0 -0.10519986206E+02  0.29355051689E+02  0.35066102205E+02  0.46925693317E+02  0.00000000000E+00 0.  1.
         16    1    1    2    0    0 -0.13749746054E+02  0.29231833366E+03 -0.19273017737E+04  0.19493925184E+04  0.00000000000E+00 0. -1.
    9900018    1    3    3    0    0  0.16798584580E+03 -0.30051301583E+03 -0.25100602960E+03  0.43571380786E+03  0.91187600000E+02 0.  0.
<mgrwt>
<rscale>  0 0.14214681E+04</rscale>
<asrwt>0</asrwt>
<pdfrwt beam="1">  1        2 0.42900847E+00 0.14214681E+04</pdfrwt>
<pdfrwt beam="2">  1       -2 0.27869018E-01 0.14214681E+04</pdfrwt>
<totfact> 0.27015740E+01</totfact>
</mgrwt>
</event>
<event>
12    1  0.1660119E-010  0.1239565E+04  0.7818608E-02  0.9078914E-01
         -2   -1    0    0    0  501 -0.00000000000E+00  0.00000000000E+00  0.17959744152E+03  0.17959744152E+03  0.00000000000E+00 0.  1.
          2   -1    0    0  501    0  0.00000000000E+00 -0.00000000000E+00 -0.21388395938E+04  0.21388395938E+04  0.00000000000E+00 0. -1.
    9900016    2    1    2    0    0  0.27150784534E+03 -0.24856936066E+02 -0.71116418213E+03  0.10409265669E+04  0.70953452796E+03 0.  0.
         23    2    3    3    0    0  0.11293989124E+03 -0.17318044306E+03 -0.37531708607E+03  0.43796263570E+03  0.90561969324E+02 0.  0.
         23    2    3    3    0    0  0.87523353785E+02  0.13389541953E+03 -0.14090251501E+03  0.23529468047E+03  0.99607967025E+02 0.  0.
        -15    1    4    4    0    0  0.15762732910E+02 -0.10616068288E+03 -0.19086596425E+03  0.21897116397E+03  0.00000000000E+00 0.  1.
        -15    1    5    5    0    0  0.79956810334E+02  0.34442028818E+02 -0.50294688305E+02  0.10054302830E+03  0.00000000000E+00 0.  1.
         15    1    4    4    0    0  0.97177158335E+02 -0.67019760183E+02 -0.18445112181E+03  0.21899147174E+03  0.00000000000E+00 0. -1.
         15    1    5    5    0    0  0.75665434504E+01  0.99453390710E+02 -0.90607826704E+02  0.13475165217E+03  0.00000000000E+00 0. -1.
        -16    1    3    3    0    0 -0.98538665138E+02 -0.24932783458E+02 -0.12018288682E+03  0.15740215533E+03  0.00000000000E+00 0.  1.
         16    1    1    2    0    0 -0.27150784534E+03  0.24856936066E+02 -0.12480779702E+04  0.12775104684E+04  0.00000000000E+00 0. -1.
    9900018    1    3    3    0    0  0.16958326545E+03  0.39360870923E+02 -0.74761694230E+02  0.21026709538E+03  0.91187600000E+02 0.  0.
<mgrwt>
<rscale>  0 0.12395646E+04</rscale>
<asrwt>0</asrwt>
<pdfrwt beam="1">  1        2 0.32905226E+00 0.12395646E+04</pdfrwt>
<pdfrwt beam="2">  1       -2 0.27630374E-01 0.12395646E+04</pdfrwt>
<totfact> 0.65850024E+01</totfact>
</mgrwt>
</event>
<event>
12    1  0.1660119E-010  0.1520303E+04  0.7818608E-02  0.8871063E-01
          1   -1    0    0  501    0  0.00000000000E+00  0.00000000000E+00  0.60150521742E+03  0.60150521742E+03  0.00000000000E+00 0. -1.
         -1   -1    0    0    0  501 -0.00000000000E+00 -0.00000000000E+00 -0.96064024658E+03  0.96064024658E+03  0.00000000000E+00 0.  1.
    9900016    2    1    2    0    0  0.12357328083E+03  0.44339101559E+03  0.16426976702E+03  0.86513862822E+03  0.71387277665E+03 0.  0.
         23    2    3    3    0    0  0.92588657629E+02  0.27372043238E+03  0.16727662233E+03  0.34626510401E+03  0.91774284278E+02 0.  0.
         23    2    3    3    0    0 -0.57391488285E+02  0.65989364298E+02  0.40996881960E+02  0.13223013997E+03  0.90308839320E+02 0.  0.
        -15    1    4    4    0    0  0.11015003505E+03  0.22370543401E+03  0.14734164003E+03  0.28963202570E+03  0.00000000000E+00 0. -1.
        -15    1    5    5    0    0 -0.31711156412E+02  0.46243097101E+02 -0.22918222362E+02  0.60574469761E+02  0.00000000000E+00 0. -1.
         15    1    4    4    0    0 -0.17561377426E+02  0.50014998373E+02  0.19934982299E+02  0.56633078307E+02  0.00000000000E+00 0.  1.
         15    1    5    5    0    0 -0.25680331872E+02  0.19746267196E+02  0.63915104323E+02  0.71655670214E+02  0.00000000000E+00 0.  1.
        -16    1    1    2    0    0 -0.12357328083E+03 -0.44339101559E+03 -0.52340479618E+03  0.69700683577E+03  0.00000000000E+00 0.  1.
         16    1    3    3    0    0  0.17494132661E+03  0.85715299156E+02 -0.12915025868E+03  0.23373354398E+03  0.00000000000E+00 0. -1.
    9900018    1    3    3    0    0 -0.86565215125E+02  0.17965919757E+02  0.85146521416E+02  0.15290984025E+03  0.91187600000E+02 0.  0.
<mgrwt>
<rscale>  0 0.15203028E+04</rscale>
<asrwt>0</asrwt>
<pdfrwt beam="1">  1        1 0.92539265E-01 0.15203028E+04</pdfrwt>
<pdfrwt beam="2">  1       -1 0.14779081E+00 0.15203028E+04</pdfrwt>
<totfact> 0.11967862E+01</totfact>
</mgrwt>
</event>
<event>
12    1  0.1660119E-010  0.9559580E+03  0.7818608E-02  0.9358214E-01
         -2   -1    0    0    0  501 -0.00000000000E+00  0.00000000000E+00  0.35362324515E+03  0.35362324515E+03  0.00000000000E+00 0.  1.
          2   -1    0    0  501    0  0.00000000000E+00 -0.00000000000E+00 -0.64606595314E+03  0.64606595314E+03  0.00000000000E+00 0. -1.
    9900016    2    1    2    0    0 -0.15411491110E+03 -0.18348912832E+02 -0.75851006086E+02  0.73323084552E+03  0.71259105332E+03 0.  0.
         23    2    3    3    0    0 -0.64011237751E+02  0.65508212688E+02 -0.17403815279E+03  0.21783817775E+03  0.93677257498E+02 0.  0.
         23    2    3    3    0    0 -0.11295649690E+03  0.14210850580E+03 -0.41696507744E+01  0.20478309941E+03  0.94682280302E+02 0.  0.
        -15    1    4    4    0    0 -0.41102880805E+02  0.70089485780E+02 -0.58903857020E+02  0.10035759662E+03  0.00000000000E+00 0.  1.
        -15    1    5    5    0    0  0.98634258750E+01 -0.65991370463E+01 -0.52491963165E+00  0.11879028595E+02  0.00000000000E+00 0.  1.
         15    1    4    4    0    0 -0.22908356947E+02 -0.45812730916E+01 -0.11513429577E+03  0.11748058114E+03  0.00000000000E+00 0. -1.
         15    1    5    5    0    0 -0.12281992278E+03  0.14870764284E+03 -0.36447311428E+01  0.19290407081E+03  0.00000000000E+00 0. -1.
        -16    1    3    3    0    0  0.29371943454E+02 -0.16746526566E+03  0.10884942920E+03  0.20187997548E+03  0.00000000000E+00 0.  1.
         16    1    1    2    0    0  0.15411491110E+03  0.18348912832E+02 -0.21659170191E+03  0.26645835277E+03  0.00000000000E+00 0. -1.
    9900018    1    3    3    0    0 -0.65191199046E+01 -0.58500365660E+02 -0.64926317171E+01  0.10872959288E+03  0.91187600000E+02 0.  0.
<mgrwt>
<rscale>  0 0.95595803E+03</rscale>
<asrwt>0</asrwt>
<pdfrwt beam="1">  1        2 0.99394762E-01 0.95595803E+03</pdfrwt>
<pdfrwt beam="2">  1       -2 0.54403576E-01 0.95595803E+03</pdfrwt>
<totfact> 0.14421372E+02</totfact>
</mgrwt>
</event>
<event>
12    1  0.1660119E-010  0.1111095E+04  0.7818608E-02  0.9194445E-01
         -1   -1    0    0    0  501 -0.00000000000E+00  0.00000000000E+00  0.23013176044E+03  0.23013176044E+03  0.00000000000E+00 0.  1.
          1   -1    0    0  501    0  0.00000000000E+00 -0.00000000000E+00 -0.13411139091E+04  0.13411139091E+04  0.00000000000E+00 0. -1.
    9900016    2    1    2    0    0 -0.65507099603E+02  0.94591624333E+02 -0.12139805047E+04  0.14168195809E+04  0.72138083114E+03 0.  0.
         23    2    3    3    0    0  0.97930454124E+02  0.20020071844E+02 -0.22290012775E+03  0.26118219118E+03  0.92414787319E+02 0.  0.
         23    2    3    3    0    0  0.11230109640E+03  0.58694124049E+02 -0.13567705388E+03  0.20776847788E+03  0.93289554609E+02 0.  0.
        -15    1    5    5    0    0  0.68225062713E+02  0.82301341117E+02 -0.84990504061E+02  0.13657069859E+03  0.00000000000E+00 0.  1.
        -15    1    4    4    0    0  0.11381142536E+03  0.23747409935E+02 -0.17100913297E+03  0.20678758082E+03  0.00000000000E+00 0. -1.
         15    1    4    4    0    0 -0.15880971239E+02 -0.37273380904E+01 -0.51890994782E+02  0.54394610359E+02  0.00000000000E+00 0.  1.
         15    1    5    5    0    0  0.44076033688E+02 -0.23607217068E+02 -0.50686549822E+02  0.71197779292E+02  0.00000000000E+00 0. -1.
        -16    1    1    2    0    0  0.65507099603E+02 -0.94591624333E+02  0.10299835607E+03  0.15442608862E+03  0.00000000000E+00 0.  1.
         16    1    3    3    0    0 -0.19122077643E+03  0.53184053890E+02 -0.76335576004E+03  0.78873693035E+03  0.00000000000E+00 0. -1.
    9900018    1    3    3    0    0 -0.84517873699E+02 -0.37306625450E+02 -0.92047563018E+02  0.15913198148E+03  0.91187600000E+02 0.  0.
<mgrwt>
<rscale>  0 0.11110948E+04</rscale>
<asrwt>0</asrwt>
<pdfrwt beam="1">  1        1 0.20632521E+00 0.11110948E+04</pdfrwt>
<pdfrwt beam="2">  1       -1 0.35404887E-01 0.11110948E+04</pdfrwt>
<totfact> 0.63958288E+01</totfact>
</mgrwt>
</event>
<event>
12    1  0.1660119E-010  0.1301786E+04  0.7818608E-02  0.9028150E-01
         -1   -1    0    0    0  501 -0.00000000000E+00  0.00000000000E+00  0.56070196853E+03  0.56070196853E+03  0.00000000000E+00 0.  1.
          1   -1    0    0  501    0  0.00000000000E+00 -0.00000000000E+00 -0.75559171473E+03  0.75559171473E+03  0.00000000000E+00 0. -1.
    9900016    2    1    2    0    0  0.15623557344E+03  0.35228086119E+03 -0.37151906809E+03  0.89237237344E+03  0.71399627124E+03 0.  0.
         23    2    3    3    0    0 -0.50691483822E+01  0.10493067788E+03  0.20824235505E+02  0.14035720935E+03  0.90721298529E+02 0.  0.
         23    2    3    3    0    0  0.20192745211E+01  0.89800168996E+02  0.37434109666E+01  0.12645164853E+03  0.88926140530E+02 0.  0.
        -15    1    4    4    0    0  0.21203674660E+02 -0.48402350303E+01 -0.91163051927E+01  0.23582423849E+02  0.00000000000E+00 0.  1.
        -15    1    5    5    0    0 -0.42751885818E+02  0.35447736860E+02 -0.35965696297E+01  0.55652503111E+02  0.00000000000E+00 0.  1.
         15    1    4    4    0    0 -0.26272823042E+02  0.10977091291E+03  0.29940540697E+02  0.11677478550E+03  0.00000000000E+00 0. -1.
         15    1    5    5    0    0  0.44771160339E+02  0.54352432136E+02  0.73399805963E+01  0.70799145421E+02  0.00000000000E+00 0. -1.
        -16    1    1    2    0    0 -0.15623557344E+03 -0.35228086119E+03  0.17662932189E+03  0.42392130982E+03  0.00000000000E+00 0.  1.
         16    1    3    3    0    0  0.26264264982E+03  0.57532835326E+02 -0.36357128240E+03  0.45218941389E+03  0.00000000000E+00 0. -1.
    9900018    1    3    3    0    0 -0.10335720252E+03  0.10001717899E+03 -0.32515432156E+02  0.17337410166E+03  0.91187600000E+02 0.  0.
<mgrwt>
<rscale>  0 0.13017861E+04</rscale>
<asrwt>0</asrwt>
<pdfrwt beam="1">  1        1 0.11624488E+00 0.13017861E+04</pdfrwt>
<pdfrwt beam="2">  1       -1 0.86261842E-01 0.13017861E+04</pdfrwt>
<totfact> 0.31547954E+01</totfact>
</mgrwt>
</event>
<event>
12    1  0.1660119E-010  0.7494260E+03  0.7818608E-02  0.9636251E-01
         -5   -1    0    0    0  501 -0.00000000000E+00  0.00000000000E+00  0.21141728466E+03  0.21141728466E+03  0.00000000000E+00 0.  1.
          5   -1    0    0  501    0  0.00000000000E+00 -0.00000000000E+00 -0.66413607255E+03  0.66413607255E+03  0.00000000000E+00 0. -1.
    9900016    2    1    2    0    0  0.24409250309E+02  0.24037720651E+02 -0.43813120641E+03  0.83831868186E+03  0.71389469448E+03 0.  0.
         23    2    3    3    0    0 -0.31818793759E+02 -0.74519884147E+02  0.34846202547E+02  0.12741774282E+03  0.91953110792E+02 0.  0.
         23    2    3    3    0    0  0.15402861988E+03  0.37783518260E+02 -0.64086018711E+02  0.19426826248E+03  0.92090879130E+02 0.  0.
        -15    1    4    4    0    0 -0.51779983772E+02 -0.18160478888E+02  0.39251284883E+02  0.67465791909E+02  0.00000000000E+00 0. -1.
        -15    1    5    5    0    0  0.46861374428E+02  0.49182459196E+02  0.17915770115E+01  0.67956695432E+02  0.00000000000E+00 0. -1.
         15    1    4    4    0    0  0.19961190013E+02 -0.56359405260E+02 -0.44050823358E+01  0.59951950914E+02  0.00000000000E+00 0.  1.
         15    1    5    5    0    0  0.10716724545E+03 -0.11398940936E+02 -0.65877595722E+02  0.12631156705E+03  0.00000000000E+00 0.  1.
        -16    1    1    2    0    0 -0.24409250309E+02 -0.24037720651E+02 -0.14587581481E+02  0.37234675347E+02  0.00000000000E+00 0.  1.
         16    1    3    3    0    0 -0.12688163938E+03  0.79738862814E+02 -0.38925223384E+03  0.41710255119E+03  0.00000000000E+00 0. -1.
    9900018    1    3    3    0    0  0.29081063568E+02 -0.18964776276E+02 -0.19639156407E+02  0.99530125367E+02  0.91187600000E+02 0.  0.
<mgrwt>
<rscale>  0 0.74942603E+03</rscale>
<asrwt>0</asrwt>
<pdfrwt beam="1">  1        5 0.10217478E+00 0.74942603E+03</pdfrwt>
<pdfrwt beam="2">  1       -5 0.32525736E-01 0.74942603E+03</pdfrwt>
<totfact> 0.66898480E+00</totfact>
</mgrwt>
</event>
<event>
12    1  0.1660119E-010  0.1840067E+04  0.7818608E-02  0.8685278E-01
          2   -1    0    0  501    0  0.00000000000E+00  0.00000000000E+00  0.10271458940E+04  0.10271458940E+04  0.00000000000E+00 0. -1.
         -2   -1    0    0    0  501 -0.00000000000E+00 -0.00000000000E+00 -0.82409054039E+03  0.82409054039E+03  0.00000000000E+00 0.  1.
    9900016    2    1    2    0    0  0.53610823069E+03  0.30897802568E+03 -0.36721552139E+03  0.10097565913E+04  0.70843607987E+03 0.  0.
         23    2    3    3    0    0  0.24251638729E+03 -0.70506523940E+02 -0.19667441676E+03  0.33232024999E+03  0.89277961013E+02 0.  0.
         23    2    3    3    0    0  0.93466354387E+02  0.19889784371E+03 -0.79212257060E+02  0.25012994595E+03  0.89409711756E+02 0.  0.
        -15    1    5    5    0    0  0.36428175342E+02  0.33495842981E+02  0.14612754593E+02  0.51599574151E+02  0.00000000000E+00 0.  1.
        -15    1    4    4    0    0  0.11075447715E+02  0.80579172333E+01 -0.39315443165E+02  0.41632915385E+02  0.00000000000E+00 0.  1.
         15    1    4    4    0    0  0.23144093958E+03 -0.78564441173E+02 -0.15735897360E+03  0.29068733461E+03  0.00000000000E+00 0. -1.
         15    1    5    5    0    0  0.57038179045E+02  0.16540200073E+03 -0.93825011653E+02  0.19853037180E+03  0.00000000000E+00 0. -1.
        -16    1    3    3    0    0  0.23663372877E+03  0.13830356924E+03 -0.14231876689E+03  0.30883333736E+03  0.00000000000E+00 0.  1.
         16    1    1    2    0    0 -0.53610823069E+03 -0.30897802568E+03  0.57027087495E+03  0.84147984301E+03  0.00000000000E+00 0. -1.
    9900018    1    3    3    0    0 -0.36508239756E+02  0.42283136665E+02  0.50989919328E+02  0.11847305805E+03  0.91187600000E+02 0.  0.
<mgrwt>
<rscale>  0 0.18400665E+04</rscale>
<asrwt>0</asrwt>
<pdfrwt beam="1">  1        2 0.15802244E+00 0.18400665E+04</pdfrwt>
<pdfrwt beam="2">  1       -2 0.12678316E+00 0.18400665E+04</pdfrwt>
<totfact> 0.10538115E+01</totfact>
</mgrwt>
</event>
<event>
12    1  0.1660119E-010  0.8184329E+03  0.7818608E-02  0.9533713E-01
         -1   -1    0    0    0  501 -0.00000000000E+00  0.00000000000E+00  0.47879177947E+03  0.47879177947E+03  0.00000000000E+00 0.  1.
          1   -1    0    0  501    0  0.00000000000E+00 -0.00000000000E+00 -0.34975145832E+03  0.34975145832E+03  0.00000000000E+00 0. -1.
    9900016    2    1    2    0    0 -0.10921287471E+02 -0.45043460164E+02  0.21949003380E+02  0.71185245766E+03  0.71000279923E+03 0.  0.
         23    2    3    3    0    0  0.65667952503E+02 -0.26480152184E+02 -0.17035774225E+02  0.11507317194E+03  0.89096233653E+02 0.  0.
         23    2    3    3    0    0 -0.33924552180E+02 -0.76385547058E+02  0.56394762960E+02  0.13553633260E+03  0.90576493233E+02 0.  0.
        -15    1    5    5    0    0 -0.26796167446E+02 -0.10154621333E+02  0.62387531668E+02  0.68653878491E+02  0.00000000000E+00 0.  1.
        -15    1    4    4    0    0  0.11109359347E+02  0.24559722430E+02  0.18144862857E+02  0.32493597508E+02  0.00000000000E+00 0.  1.
         15    1    4    4    0    0  0.54558593156E+02 -0.51039874614E+02 -0.35180637082E+02  0.82579574432E+02  0.00000000000E+00 0. -1.
         15    1    5    5    0    0 -0.71283847349E+01 -0.66230925725E+02 -0.59927687090E+01  0.66882454113E+02  0.00000000000E+00 0. -1.
        -16    1    1    2    0    0  0.10921287471E+02  0.45043460164E+02  0.10709131777E+03  0.11669078012E+03  0.00000000000E+00 0.  1.
         16    1    3    3    0    0 -0.19149889814E+03  0.16769887850E+03 -0.45014869375E+01  0.25458791257E+03  0.00000000000E+00 0. -1.
    9900018    1    3    3    0    0  0.14883421035E+03 -0.10987663942E+03 -0.12908498416E+02  0.20665504055E+03  0.91187600000E+02 0.  0.
<mgrwt>
<rscale>  0 0.81843295E+03</rscale>
<asrwt>0</asrwt>
<pdfrwt beam="1">  1        1 0.53807916E-01 0.81843295E+03</pdfrwt>
<pdfrwt beam="2">  1       -1 0.73660274E-01 0.81843295E+03</pdfrwt>
<totfact> 0.13466457E+02</totfact>
</mgrwt>
</event>
<event>
12    1  0.1660119E-010  0.1040541E+04  0.7818608E-02  0.9265165E-01
         -2   -1    0    0    0  501 -0.00000000000E+00  0.00000000000E+00  0.20690848966E+03  0.20690848966E+03  0.00000000000E+00 0.  1.
          2   -1    0    0  501    0  0.00000000000E+00 -0.00000000000E+00 -0.13082175091E+04  0.13082175091E+04  0.00000000000E+00 0. -1.
    9900016    2    1    2    0    0 -0.24181549119E+03 -0.16439805296E+02 -0.66892691704E+03  0.10194453743E+04  0.73011002724E+03 0.  0.
         23    2    3    3    0    0  0.25192311717E+02  0.74162101231E+01 -0.45664603122E+02  0.10577650007E+03  0.91726546031E+02 0.  0.
         23    2    3    3    0    0 -0.17022577379E+03 -0.10121757731E+03 -0.14692598942E+03  0.26332513739E+03  0.92363789411E+02 0.  0.
        -15    1    5    5    0    0 -0.99355805614E+02 -0.10785686874E+03 -0.10862854631E+03  0.18249614056E+03  0.00000000000E+00 0.  1.
        -15    1    4    4    0    0  0.51597494403E+02 -0.21611597980E+02 -0.30434023568E+02  0.63683533087E+02  0.00000000000E+00 0. -1.
         15    1    4    4    0    0 -0.26405182686E+02  0.29027808103E+02 -0.15230579555E+02  0.42092966984E+02  0.00000000000E+00 0.  1.
         15    1    5    5    0    0 -0.70869968174E+02  0.66392914343E+01 -0.38297443104E+02  0.80828996827E+02  0.00000000000E+00 0. -1.
        -16    1    1    2    0    0  0.24181549119E+03  0.16439805296E+02 -0.43238210244E+03  0.49568062448E+03  0.00000000000E+00 0.  1.
         16    1    3    3    0    0 -0.20581070345E+03  0.89712163985E+02 -0.45326217236E+03  0.50581905353E+03  0.00000000000E+00 0. -1.
    9900018    1    3    3    0    0  0.10902867433E+03 -0.12350602096E+02 -0.23074152139E+02  0.14452468332E+03  0.91187600000E+02 0.  0.
<mgrwt>
<rscale>  0 0.10405408E+04</rscale>
<asrwt>0</asrwt>
<pdfrwt beam="1">  1        2 0.20126423E+00 0.10405408E+04</pdfrwt>
<pdfrwt beam="2">  1       -2 0.31832075E-01 0.10405408E+04</pdfrwt>
<totfact> 0.14925827E+02</totfact>
</mgrwt>
</event>
<event>
12    1  0.1660119E-010  0.9397361E+03  0.7818608E-02  0.9377229E-01
          2   -1    0    0  501    0  0.00000000000E+00  0.00000000000E+00  0.33344032529E+03  0.33344032529E+03  0.00000000000E+00 0. -1.
         -2   -1    0    0    0  501 -0.00000000000E+00 -0.00000000000E+00 -0.66211544574E+03  0.66211544574E+03  0.00000000000E+00 0.  1.
    9900016    2    1    2    0    0 -0.13843030176E+03 -0.12101697557E+03 -0.21773219171E+03  0.78080850036E+03  0.72694329222E+03 0.  0.
         23    2    3    3    0    0 -0.24207389544E+03 -0.11101712586E+03 -0.94108425165E+01  0.28192413450E+03  0.92022174346E+02 0.  0.
         23    2    3    3    0    0  0.84383489576E+02 -0.86424200200E+02  0.75426817591E+01  0.15306879158E+03  0.93720047029E+02 0.  0.
        -15    1    5    5    0    0  0.66806739764E+02 -0.99967582318E+02  0.27369938139E+02  0.12331168439E+03  0.00000000000E+00 0. -1.
        -15    1    4    4    0    0 -0.18218557704E+03 -0.12232561665E+03  0.41712386124E+01  0.21948243712E+03  0.00000000000E+00 0.  1.
         15    1    4    4    0    0 -0.59888318398E+02  0.11308490795E+02 -0.13582081129E+02  0.62441697385E+02  0.00000000000E+00 0. -1.
         15    1    5    5    0    0  0.17576749811E+02  0.13543382118E+02 -0.19827256380E+02  0.29757107196E+02  0.00000000000E+00 0.  1.
        -16    1    1    2    0    0  0.13843030176E+03  0.12101697557E+03 -0.11094292874E+03  0.21474727066E+03  0.00000000000E+00 0.  1.
         16    1    3    3    0    0 -0.21575380304E+02 -0.80845321824E+02 -0.61269902662E+02  0.10370855350E+03  0.00000000000E+00 0. -1.
    9900018    1    3    3    0    0  0.40835484412E+02  0.15726967231E+03 -0.15459412829E+03  0.24210702078E+03  0.91187600000E+02 0.  0.
<mgrwt>
<rscale>  0 0.93973611E+03</rscale>
<asrwt>0</asrwt>
<pdfrwt beam="1">  1        2 0.51298512E-01 0.93973611E+03</pdfrwt>
<pdfrwt beam="2">  1       -2 0.10186391E+00 0.93973611E+03</pdfrwt>
<totfact> 0.77240114E+01</totfact>
</mgrwt>
</event>
<event>
12    1  0.1660119E-010  0.8512362E+03  0.7818608E-02  0.9488679E-01
          2   -1    0    0  501    0  0.00000000000E+00  0.00000000000E+00  0.33778374994E+03  0.33778374994E+03  0.00000000000E+00 0. -1.
         -2   -1    0    0    0  501 -0.00000000000E+00 -0.00000000000E+00 -0.53629208323E+03  0.53629208323E+03  0.00000000000E+00 0.  1.
    9900016    2    1    2    0    0  0.30621109339E+01 -0.45602111424E+02 -0.46851955974E+02  0.71568206477E+03  0.71268280670E+03 0.  0.
         23    2    3    3    0    0 -0.32267677794E+01 -0.57815784079E+02  0.82419234045E+02  0.13544052236E+03  0.90543514610E+02 0.  0.
         23    2    3    3    0    0  0.32299103374E+02  0.33994651340E+02 -0.22535273852E+02  0.10579542366E+03  0.92119296031E+02 0.  0.
        -15    1    5    5    0    0 -0.26308855542E+02  0.16790881146E+02 -0.31167294979E+02  0.44107707330E+02  0.00000000000E+00 0. -1.
        -15    1    4    4    0    0  0.24438273502E+02 -0.16325339619E+02 -0.94819361388E+01  0.30881273264E+02  0.00000000000E+00 0. -1.
         15    1    4    4    0    0 -0.27665041282E+02 -0.41490444459E+02  0.91901170184E+02  0.10455924910E+03  0.00000000000E+00 0.  1.
         15    1    5    5    0    0  0.58607958916E+02  0.17203770194E+02  0.86320211272E+01  0.61687716330E+02  0.00000000000E+00 0.  1.
        -16    1    1    2    0    0 -0.30621109339E+01  0.45602111424E+02 -0.15165637731E+03  0.15839376840E+03  0.00000000000E+00 0.  1.
         16    1    3    3    0    0 -0.14567478514E+03  0.14915499290E+03  0.27208718889E+02  0.21025857727E+03  0.00000000000E+00 0. -1.
    9900018    1    3    3    0    0  0.11966456048E+03 -0.17093597159E+03 -0.13394463506E+03  0.26418754148E+03  0.91187600000E+02 0.  0.
<mgrwt>
<rscale>  0 0.85123616E+03</rscale>
<asrwt>0</asrwt>
<pdfrwt beam="1">  1        2 0.51966731E-01 0.85123616E+03</pdfrwt>
<pdfrwt beam="2">  1       -2 0.82506475E-01 0.85123616E+03</pdfrwt>
<totfact> 0.12470003E+02</totfact>
</mgrwt>
</event>
<event>
12    1  0.1660119E-010  0.9346260E+03  0.7818608E-02  0.9383303E-01
         -2   -1    0    0    0  501 -0.00000000000E+00  0.00000000000E+00  0.92302328784E+03  0.92302328784E+03  0.00000000000E+00 0. -1.
          2   -1    0    0  501    0  0.00000000000E+00 -0.00000000000E+00 -0.23659362514E+03  0.23659362514E+03  0.00000000000E+00 0.  1.
    9900016    2    1    2    0    0 -0.16925767536E+03 -0.84221437562E+01  0.67733733787E+03  0.98990608967E+03  0.70171867862E+03 0.  0.
         23    2    3    3    0    0 -0.88054610089E+02  0.15527014426E+03  0.29229094054E+03  0.35437448835E+03  0.91021162447E+02 0.  0.
         23    2    3    3    0    0 -0.26028953691E+02 -0.12319333083E+03  0.57915053237E+02  0.16628572510E+03  0.91884088880E+02 0.  0.
        -15    1    5    5    0    0  0.22327728303E+02 -0.85891516205E+01  0.30760041124E+02  0.38967693115E+02  0.00000000000E+00 0. -1.
        -15    1    4    4    0    0 -0.37637031766E+02  0.95222710406E+02  0.86103546751E+02  0.13378240355E+03  0.00000000000E+00 0.  1.
         15    1    4    4    0    0 -0.50417578323E+02  0.60047433855E+02  0.20618739379E+03  0.22059208480E+03  0.00000000000E+00 0. -1.
         15    1    5    5    0    0 -0.48356681994E+02 -0.11460417921E+03  0.27155012113E+02  0.12731803198E+03  0.00000000000E+00 0.  1.
        -16    1    1    2    0    0  0.16925767536E+03  0.84221437562E+01  0.90923248371E+01  0.16971082330E+03  0.00000000000E+00 0.  1.
         16    1    3    3    0    0  0.10031816567E+03  0.34487237269E+02  0.22536098682E+03  0.24907966251E+03  0.00000000000E+00 0. -1.
    9900018    1    3    3    0    0 -0.15549227726E+03 -0.74986194459E+02  0.10177035727E+03  0.22016621371E+03  0.91187600000E+02 0.  0.
<mgrwt>
<rscale>  0 0.93462597E+03</rscale>
<asrwt>0</asrwt>
<pdfrwt beam="1">  1        2 0.36399020E-01 0.93462597E+03</pdfrwt>
<pdfrwt beam="2">  1       -2 0.14200358E+00 0.93462597E+03</pdfrwt>
<totfact> 0.49595275E+01</totfact>
</mgrwt>
</event>
<event>
12    1  0.1660119E-010  0.9947593E+03  0.7818608E-02  0.9314311E-01
         -2   -1    0    0    0  501 -0.00000000000E+00  0.00000000000E+00  0.21579141662E+03  0.21579141662E+03  0.00000000000E+00 0.  1.
          2   -1    0    0  501    0  0.00000000000E+00 -0.00000000000E+00 -0.11464150133E+04  0.11464150133E+04  0.00000000000E+00 0. -1.
    9900016    2    1    2    0    0  0.23228888412E+03  0.57957032528E+02 -0.79966464240E+03  0.10893192902E+04  0.69988272765E+03 0.  0.
         23    2    3    3    0    0 -0.68814121846E+02 -0.33134602752E+01 -0.57668894065E+02  0.12938696757E+03  0.93107054777E+02 0.  0.
         23    2    3    3    0    0  0.97330845040E+02 -0.12804924785E+03 -0.24052019347E+03  0.30321075735E+03  0.90647099440E+02 0.  0.
        -15    1    4    4    0    0  0.73707885027E+01  0.16421093846E+02  0.14109613338E+02  0.22870549508E+02  0.00000000000E+00 0. -1.
        -15    1    5    5    0    0  0.88032876476E+02 -0.56231378422E+02 -0.18305824770E+03  0.21076545569E+03  0.00000000000E+00 0.  1.
         15    1    4    4    0    0 -0.76184910349E+02 -0.19734554121E+02 -0.71778507403E+02  0.10651641806E+03  0.00000000000E+00 0.  1.
         15    1    5    5    0    0  0.92979685636E+01 -0.71817869424E+02 -0.57461945764E+02  0.92445301661E+02  0.00000000000E+00 0. -1.
        -16    1    3    3    0    0  0.17062507034E+03  0.25414812914E+03 -0.38480712046E+03  0.49171201544E+03  0.00000000000E+00 0.  1.
         16    1    1    2    0    0 -0.23228888412E+03 -0.57957032528E+02 -0.13095895428E+03  0.27288713969E+03  0.00000000000E+00 0. -1.
    9900018    1    3    3    0    0  0.33147090583E+02 -0.64828388488E+02 -0.11666843441E+03  0.16500954987E+03  0.91187600000E+02 0.  0.
<mgrwt>
<rscale>  0 0.99475931E+03</rscale>
<asrwt>0</asrwt>
<pdfrwt beam="1">  1        2 0.17637154E+00 0.99475931E+03</pdfrwt>
<pdfrwt beam="2">  1       -2 0.33198679E-01 0.99475931E+03</pdfrwt>
<totfact> 0.17241613E+02</totfact>
</mgrwt>
</event>
<event>
12    1  0.1660119E-010  0.7798698E+03  0.7818608E-02  0.9589621E-01
         -1   -1    0    0    0  501 -0.00000000000E+00  0.00000000000E+00  0.42180269840E+03  0.42180269840E+03  0.00000000000E+00 0.  1.
          1   -1    0    0  501    0  0.00000000000E+00 -0.00000000000E+00 -0.36047477755E+03  0.36047477755E+03  0.00000000000E+00 0. -1.
    9900016    2    1    2    0    0  0.39761705004E+02 -0.53544095383E+02  0.42959557720E+02  0.71310117871E+03  0.70867468146E+03 0.  0.
         23    2    3    3    0    0  0.16925535816E+03 -0.11149687707E+03  0.33878471855E+02  0.22453604280E+03  0.90497258523E+02 0.  0.
         23    2    3    3    0    0 -0.12259892517E+03  0.43525524861E+02 -0.51183680329E+02  0.16648648607E+03  0.90404718588E+02 0.  0.
        -15    1    4    4    0    0  0.15828208305E+03 -0.93391884262E+02 -0.94415510645E+00  0.18378289716E+03  0.00000000000E+00 0.  1.
        -15    1    5    5    0    0  0.89855138591E+01  0.23661564577E+02 -0.68539523351E+01  0.26221856535E+02  0.00000000000E+00 0.  1.
         15    1    4    4    0    0  0.10973275114E+02 -0.18104992803E+02  0.34822626962E+02  0.40753145641E+02  0.00000000000E+00 0. -1.
         15    1    5    5    0    0 -0.13158443903E+03  0.19863960284E+02 -0.44329727994E+02  0.14026462953E+03  0.00000000000E+00 0. -1.
        -16    1    1    2    0    0 -0.39761705004E+02  0.53544095383E+02  0.18368363134E+02  0.69176297237E+02  0.00000000000E+00 0.  1.
         16    1    3    3    0    0  0.44741708611E+02  0.10786285991E+02 -0.11161961066E+03  0.12073566970E+03  0.00000000000E+00 0. -1.
    9900018    1    3    3    0    0 -0.51636436593E+02  0.36409708300E+01  0.17188437685E+03  0.20134298014E+03  0.91187600000E+02 0.  0.
<mgrwt>
<rscale>  0 0.77986982E+03</rscale>
<asrwt>0</asrwt>
<pdfrwt beam="1">  1        1 0.55457658E-01 0.77986982E+03</pdfrwt>
<pdfrwt beam="2">  1       -1 0.64892723E-01 0.77986982E+03</pdfrwt>
<totfact> 0.16798951E+02</totfact>
</mgrwt>
</event>
<event>
12    1  0.1660119E-010  0.8753105E+03  0.7818608E-02  0.9456982E-01
         -2   -1    0    0    0  501 -0.00000000000E+00  0.00000000000E+00  0.24447149332E+03  0.24447149332E+03  0.00000000000E+00 0.  1.
          2   -1    0    0  501    0  0.00000000000E+00 -0.00000000000E+00 -0.78349466238E+03  0.78349466238E+03  0.00000000000E+00 0. -1.
    9900016    2    1    2    0    0  0.96862022364E+01  0.14864074306E+03 -0.47445527050E+03  0.86561805274E+03  0.70851881874E+03 0.  0.
         23    2    3    3    0    0  0.51515849350E+02 -0.31229824576E+02 -0.11299637574E+03  0.15604200896E+03  0.89172545964E+02 0.  0.
         23    2    3    3    0    0 -0.96839964908E+02  0.14272769575E+03 -0.79775781391E+02  0.21031624598E+03  0.90108679328E+02 0.  0.
        -15    1    5    5    0    0 -0.31606363158E+02  0.76134054061E+02 -0.83079835885E+02  0.11703681263E+03  0.00000000000E+00 0.  1.
        -15    1    4    4    0    0  0.14594980331E+02 -0.32492499479E+02  0.15823499373E+01  0.35655010932E+02  0.00000000000E+00 0.  1.
         15    1    4    4    0    0  0.36920869019E+02  0.12626749031E+01 -0.11457872568E+03  0.12038699803E+03  0.00000000000E+00 0. -1.
         15    1    5    5    0    0 -0.65233601750E+02  0.66593641685E+02  0.33040544935E+01  0.93279433351E+02  0.00000000000E+00 0. -1.
        -16    1    1    2    0    0 -0.96862022364E+01 -0.14864074306E+03 -0.64567898559E+02  0.16234810296E+03  0.00000000000E+00 0.  1.
         16    1    3    3    0    0 -0.44950635919E+02 -0.14493017570E+03 -0.21436948179E+03  0.26263965851E+03  0.00000000000E+00 0. -1.
    9900018    1    3    3    0    0  0.99960953713E+02  0.18207304759E+03 -0.67313631572E+02  0.23662013929E+03  0.91187600000E+02 0.  0.
<mgrwt>
<rscale>  0 0.87531048E+03</rscale>
<asrwt>0</asrwt>
<pdfrwt beam="1">  1        2 0.12053764E+00 0.87531048E+03</pdfrwt>
<pdfrwt beam="2">  1       -2 0.37610999E-01 0.87531048E+03</pdfrwt>
<totfact> 0.23686379E+02</totfact>
</mgrwt>
</event>
<event>
12    1  0.1660119E-010  0.1112909E+04  0.7818608E-02  0.9192700E-01
          2   -1    0    0  501    0  0.00000000000E+00  0.00000000000E+00  0.52297663972E+03  0.52297663972E+03  0.00000000000E+00 0. -1.
         -2   -1    0    0    0  501 -0.00000000000E+00 -0.00000000000E+00 -0.59207546327E+03  0.59207546327E+03  0.00000000000E+00 0.  1.
    9900016    2    1    2    0    0 -0.25483698025E+03 -0.17676615961E+03  0.64109233943E+02  0.77751314484E+03  0.71009051172E+03 0.  0.
         23    2    3    3    0    0  0.85336736910E+02 -0.11516856474E+03  0.31074348237E+02  0.17262712186E+03  0.91040381760E+02 0.  0.
         23    2    3    3    0    0 -0.20578494747E+03 -0.10827678787E+03 -0.69833242131E+02  0.26082670102E+03  0.95302564836E+02 0.  0.
        -15    1    5    5    0    0 -0.99782859921E+01 -0.90221716970E+01 -0.36352996026E+02  0.38762173488E+02  0.00000000000E+00 0. -1.
        -15    1    4    4    0    0  0.56927921415E+02 -0.85729175458E+01 -0.15408084180E+01  0.57590426657E+02  0.00000000000E+00 0. -1.
         15    1    4    4    0    0  0.28408815495E+02 -0.10659564720E+03  0.32615156655E+02  0.11503669520E+03  0.00000000000E+00 0.  1.
         15    1    5    5    0    0 -0.19580666147E+03 -0.99254616178E+02 -0.33480246105E+02  0.22206452754E+03  0.00000000000E+00 0.  1.
        -16    1    3    3    0    0  0.75392092885E+02  0.57222947693E+02  0.57118142710E+02  0.11054825027E+03  0.00000000000E+00 0.  1.
         16    1    1    2    0    0  0.25483698025E+03  0.17676615961E+03 -0.13320805749E+03  0.33753895815E+03  0.00000000000E+00 0. -1.
    9900018    1    3    3    0    0 -0.20978086258E+03 -0.10543754690E+02  0.45749985126E+02  0.23351107169E+03  0.91187600000E+02 0.  0.
<mgrwt>
<rscale>  0 0.11129090E+04</rscale>
<asrwt>0</asrwt>
<pdfrwt beam="1">  1        2 0.80457944E-01 0.11129090E+04</pdfrwt>
<pdfrwt beam="2">  1       -2 0.91088533E-01 0.11129090E+04</pdfrwt>
<totfact> 0.59605789E+01</totfact>
</mgrwt>
</event>
<event>
12    1  0.1660119E-010  0.1017441E+04  0.7818608E-02  0.9289620E-01
          2   -1    0    0  501    0  0.00000000000E+00  0.00000000000E+00  0.37663460775E+03  0.37663460775E+03  0.00000000000E+00 0. -1.
         -2   -1    0    0    0  501 -0.00000000000E+00 -0.00000000000E+00 -0.68712928957E+03  0.68712928957E+03  0.00000000000E+00 0.  1.
    9900016    2    1    2    0    0 -0.93112521117E+01 -0.86103360375E+02  0.31727462598E+02  0.71075329661E+03  0.70474330694E+03 0.  0.
         23    2    3    3    0    0  0.24565023258E+02  0.55937592386E+02 -0.94536140262E+02  0.14443729875E+03  0.90512965064E+02 0.  0.
         23    2    3    3    0    0  0.73926256496E+02 -0.23052129139E+02  0.12528395276E+03  0.17158566280E+03  0.88028852096E+02 0.  0.
        -15    1    5    5    0    0 -0.18869226756E+02  0.24270318117E+01  0.33926776343E+02  0.38896842479E+02  0.00000000000E+00 0. -1.
        -15    1    4    4    0    0  0.43200113416E+02  0.71638795005E+02 -0.81537433066E+02  0.11681917539E+03  0.00000000000E+00 0.  1.
         15    1    4    4    0    0 -0.18635090158E+02 -0.15701202619E+02 -0.12998707196E+02  0.27618123355E+02  0.00000000000E+00 0. -1.
         15    1    5    5    0    0  0.92795483253E+02 -0.25479160951E+02  0.91357176414E+02  0.13268882032E+03  0.00000000000E+00 0.  1.
        -16    1    1    2    0    0  0.93112521117E+01  0.86103360375E+02 -0.34222214442E+03  0.35301060071E+03  0.00000000000E+00 0.  1.
         16    1    3    3    0    0 -0.72524569443E+02  0.59867576995E+02  0.12477543621E+03  0.15624611813E+03  0.00000000000E+00 0. -1.
    9900018    1    3    3    0    0 -0.35277962423E+02 -0.17885640062E+03 -0.12379578611E+03  0.23848421693E+03  0.91187600000E+02 0.  0.
<mgrwt>
<rscale>  0 0.10174412E+04</rscale>
<asrwt>0</asrwt>
<pdfrwt beam="1">  1        2 0.57943786E-01 0.10174412E+04</pdfrwt>
<pdfrwt beam="2">  1       -2 0.10571220E+00 0.10174412E+04</pdfrwt>
<totfact> 0.61398107E+01</totfact>
</mgrwt>
</event>
<event>
12    1  0.1660119E-010  0.1033393E+04  0.7818608E-02  0.9272659E-01
         -1   -1    0    0    0  501 -0.00000000000E+00  0.00000000000E+00  0.46913155494E+03  0.46913155494E+03  0.00000000000E+00 0.  1.
          1   -1    0    0  501    0  0.00000000000E+00 -0.00000000000E+00 -0.56908456858E+03  0.56908456858E+03  0.00000000000E+00 0. -1.
    9900016    2    1    2    0    0 -0.19249299239E+03 -0.16428760796E+03 -0.95068455047E+01  0.76946999876E+03  0.72660149231E+03 0.  0.
         23    2    3    3    0    0 -0.31303529529E+02 -0.65077763634E+02 -0.70578513355E+02  0.13588721415E+03  0.90933943842E+02 0.  0.
         23    2    3    3    0    0  0.39989353807E+02  0.42006857572E+02 -0.33943455598E+02  0.11320737606E+03  0.91104485706E+02 0.  0.
        -15    1    4    4    0    0 -0.37288866563E+02 -0.73708737471E+02 -0.21031866041E+02  0.85239526854E+02  0.00000000000E+00 0. -1.
        -15    1    5    5    0    0  0.48280478683E+02 -0.20870097921E+01  0.11150663061E+02  0.49595337669E+02  0.00000000000E+00 0.  1.
         15    1    4    4    0    0  0.59853370345E+01  0.86309738370E+01 -0.49546647314E+02  0.50647687300E+02  0.00000000000E+00 0.  1.
         15    1    5    5    0    0 -0.82911248766E+01  0.44093867365E+02 -0.45094118659E+02  0.63612038393E+02  0.00000000000E+00 0. -1.
        -16    1    3    3    0    0 -0.11462570575E+03  0.73998414461E+02  0.20636294060E+03  0.24738730973E+03  0.00000000000E+00 0.  1.
         16    1    1    2    0    0  0.19249299239E+03  0.16428760796E+03 -0.90446168135E+02  0.26874612477E+03  0.00000000000E+00 0. -1.
    9900018    1    3    3    0    0 -0.86553110911E+02 -0.21521511636E+03 -0.11134781715E+03  0.27298809882E+03  0.91187600000E+02 0.  0.
<mgrwt>
<rscale>  0 0.10333935E+04</rscale>
<asrwt>0</asrwt>
<pdfrwt beam="1">  1        1 0.87551471E-01 0.10333935E+04</pdfrwt>
<pdfrwt beam="2">  1       -1 0.72174086E-01 0.10333935E+04</pdfrwt>
<totfact> 0.71659775E+01</totfact>
</mgrwt>
</event>
<event>
12    1  0.1660119E-010  0.1018346E+04  0.7818608E-02  0.9288649E-01
          1   -1    0    0  501    0  0.00000000000E+00  0.00000000000E+00  0.18919981080E+03  0.18919981080E+03  0.00000000000E+00 0. -1.
         -1   -1    0    0    0  501 -0.00000000000E+00 -0.00000000000E+00 -0.13702818085E+04  0.13702818085E+04  0.00000000000E+00 0.  1.
    9900016    2    1    2    0    0  0.15314672576E+03 -0.18331757629E+03 -0.10408655376E+04  0.12824980294E+04  0.71016960977E+03 0.  0.
         23    2    3    3    0    0 -0.58988308109E+02 -0.11612136055E+03 -0.14542150757E+03  0.21485812741E+03  0.89737445816E+02 0.  0.
         23    2    3    3    0    0  0.22294197733E+03 -0.68771557559E+02 -0.34368145710E+03  0.42499904060E+03  0.89858712281E+02 0.  0.
        -15    1    4    4    0    0 -0.10475457138E+02  0.81462322424E+01 -0.47652009327E+02  0.49465243302E+02  0.00000000000E+00 0. -1.
        -15    1    5    5    0    0  0.12166386080E+03 -0.76371341887E+02 -0.24107554044E+03  0.28062803332E+03  0.00000000000E+00 0. -1.
         15    1    4    4    0    0 -0.48512850971E+02 -0.12426759279E+03 -0.97769498240E+02  0.16539288411E+03  0.00000000000E+00 0.  1.
         15    1    5    5    0    0  0.10127811653E+03  0.75997843277E+01 -0.10260591666E+03  0.14437100728E+03  0.00000000000E+00 0.  1.
        -16    1    1    2    0    0 -0.15314672576E+03  0.18331757629E+03 -0.14021646006E+03  0.27698358987E+03  0.00000000000E+00 0.  1.
         16    1    3    3    0    0 -0.85008927552E+02 -0.12509276850E+03 -0.31592922190E+03  0.35026560171E+03  0.00000000000E+00 0. -1.
    9900018    1    3    3    0    0  0.74201984091E+02  0.12666811031E+03 -0.23583335103E+03  0.29237525967E+03  0.91187600000E+02 0.  0.
<mgrwt>
<rscale>  0 0.10183458E+04</rscale>
<asrwt>0</asrwt>
<pdfrwt beam="1">  1        1 0.29107663E-01 0.10183458E+04</pdfrwt>
<pdfrwt beam="2">  1       -1 0.21081259E+00 0.10183458E+04</pdfrwt>
<totfact> 0.20385775E+01</totfact>
</mgrwt>
</event>
<event>
12    1  0.1660119E-010  0.9590921E+03  0.7818608E-02  0.9354586E-01
         -1   -1    0    0    0  501 -0.00000000000E+00  0.00000000000E+00  0.13998677344E+03  0.13998677344E+03  0.00000000000E+00 0.  1.
          1   -1    0    0  501    0  0.00000000000E+00 -0.00000000000E+00 -0.16427580768E+04  0.16427580768E+04  0.00000000000E+00 0. -1.
    9900016    2    1    2    0    0 -0.20507790901E+03  0.65979565052E+02 -0.12759739665E+04  0.14699393455E+04  0.69728176841E+03 0.  0.
         23    2    3    3    0    0 -0.75486999385E+02  0.66096636417E+02 -0.60188095655E+03  0.61709559999E+03  0.92082795561E+02 0.  0.
         23    2    3    3    0    0 -0.10702602453E+03  0.67785623867E+02 -0.45462535214E+03  0.48018353883E+03  0.88558226214E+02 0.  0.
        -15    1    4    4    0    0 -0.91179514995E+02  0.41022891954E+02 -0.53031205577E+03  0.53965494356E+03  0.00000000000E+00 0.  1.
        -15    1    5    5    0    0 -0.34306850142E+02  0.68054991262E+02 -0.16802808896E+03  0.18450441860E+03  0.00000000000E+00 0.  1.
         15    1    4    4    0    0  0.15692515610E+02  0.25073744463E+02 -0.71568900784E+02  0.77440656421E+02  0.00000000000E+00 0. -1.
         15    1    5    5    0    0 -0.72719174388E+02 -0.26936739500E+00 -0.28659726318E+03  0.29567912024E+03  0.00000000000E+00 0. -1.
        -16    1    3    3    0    0  0.34914101053E+02  0.76565161567E+02  0.55700257843E+01  0.84334118868E+02  0.00000000000E+00 0.  1.
         16    1    1    2    0    0  0.20507790901E+03 -0.65979565052E+02 -0.22679733680E+03  0.31280550466E+03  0.00000000000E+00 0. -1.
    9900018    1    3    3    0    0 -0.57478986145E+02 -0.14446785680E+03 -0.22503768362E+03  0.28832608786E+03  0.91187600000E+02 0.  0.
<mgrwt>
<rscale>  0 0.95909208E+03</rscale>
<asrwt>0</asrwt>
<pdfrwt beam="1">  1        1 0.25273199E+00 0.95909208E+03</pdfrwt>
<pdfrwt beam="2">  1       -1 0.21536429E-01 0.95909208E+03</pdfrwt>
<totfact> 0.94789157E+01</totfact>
</mgrwt>
</event>
<event>
12    1  0.1660119E-010  0.1554887E+04  0.7818608E-02  0.8848752E-01
         -1   -1    0    0    0  501 -0.00000000000E+00  0.00000000000E+00  0.37334578181E+03  0.37334578181E+03  0.00000000000E+00 0.  1.
          1   -1    0    0  501    0  0.00000000000E+00 -0.00000000000E+00 -0.16189232037E+04  0.16189232037E+04  0.00000000000E+00 0. -1.
    9900016    2    1    2    0    0  0.56412597130E+01  0.53405849836E+03 -0.11430060474E+04  0.14484204860E+04  0.71148350402E+03 0.  0.
         23    2    3    3    0    0 -0.11265698272E+02  0.10577133104E+02 -0.15486610062E+03  0.17999593348E+03  0.90422537280E+02 0.  0.
         23    2    3    3    0    0 -0.18959338603E+02  0.23226730530E+03 -0.46230622830E+03  0.52690332955E+03  0.97941371897E+02 0.  0.
        -15    1    5    5    0    0  0.20970429129E+02  0.12039123483E+03 -0.31365114307E+03  0.33661676707E+03  0.00000000000E+00 0.  1.
        -15    1    4    4    0    0 -0.47905900746E+02  0.30649542953E+01 -0.53139638419E+02  0.71611384866E+02  0.00000000000E+00 0.  1.
         15    1    4    4    0    0  0.36640202474E+02  0.75121788091E+01 -0.10172646220E+03  0.10838454862E+03  0.00000000000E+00 0. -1.
         15    1    5    5    0    0 -0.39929767732E+02  0.11187607047E+03 -0.14865508523E+03  0.19028656247E+03  0.00000000000E+00 0. -1.
        -16    1    1    2    0    0 -0.56412597130E+01 -0.53405849836E+03 -0.10257137444E+03  0.54384849943E+03  0.00000000000E+00 0.  1.
         16    1    3    3    0    0  0.18176214023E+03  0.17997300637E+03 -0.45998364059E+03  0.52631996756E+03  0.00000000000E+00 0. -1.
    9900018    1    3    3    0    0 -0.14589584364E+03  0.11124105359E+03 -0.65850077899E+02  0.21520125545E+03  0.91187600000E+02 0.  0.
<mgrwt>
<rscale>  0 0.15548867E+04</rscale>
<asrwt>0</asrwt>
<pdfrwt beam="1">  1        1 0.24906511E+00 0.15548867E+04</pdfrwt>
<pdfrwt beam="2">  1       -1 0.57437813E-01 0.15548867E+04</pdfrwt>
<totfact> 0.16010395E+01</totfact>
</mgrwt>
</event>
<event>
12    1  0.1660119E-010  0.7683000E+03  0.7818608E-02  0.9607070E-01
          2   -1    0    0  501    0  0.00000000000E+00  0.00000000000E+00  0.67708431689E+03  0.67708431689E+03  0.00000000000E+00 0. -1.
         -2   -1    0    0    0  501 -0.00000000000E+00 -0.00000000000E+00 -0.21795101157E+03  0.21795101157E+03  0.00000000000E+00 0.  1.
    9900016    2    1    2    0    0 -0.26370066513E+02  0.64744177818E+01  0.47351614412E+03  0.86430806784E+03  0.72254660673E+03 0.  0.
         23    2    3    3    0    0  0.44493177345E+02 -0.26069238458E+02 -0.15773927670E+02  0.10394341642E+03  0.88860390496E+02 0.  0.
         23    2    3    3    0    0  0.18936290885E+03 -0.56173613663E+01  0.12200036737E+03  0.24160420016E+03  0.87170143411E+02 0.  0.
        -15    1    4    4    0    0  0.51870361590E+02  0.19852757994E+02 -0.25897832360E+01  0.55600120402E+02  0.00000000000E+00 0.  1.
        -15    1    5    5    0    0  0.10700921693E+03  0.39359290022E+02  0.76627195924E+02  0.13737486442E+03  0.00000000000E+00 0. -1.
         15    1    4    4    0    0 -0.73771842453E+01 -0.45921996452E+02 -0.13184144434E+02  0.48343296019E+02  0.00000000000E+00 0. -1.
         15    1    5    5    0    0  0.82353691922E+02 -0.44976651388E+02  0.45373171442E+02  0.10422933575E+03  0.00000000000E+00 0.  1.
        -16    1    1    2    0    0  0.26370066513E+02 -0.64744177818E+01 -0.14382838802E+02  0.30727260625E+02  0.00000000000E+00 0.  1.
         16    1    3    3    0    0 -0.90745269829E+02  0.91565603046E+02  0.26425330062E+03  0.29402171781E+03  0.00000000000E+00 0. -1.
    9900018    1    3    3    0    0 -0.16948088288E+03 -0.53404585440E+02  0.10303640380E+03  0.22473873344E+03  0.91187600000E+02 0.  0.
<mgrwt>
<rscale>  0 0.76829997E+03</rscale>
<asrwt>0</asrwt>
<pdfrwt beam="1">  1        2 0.10416682E+00 0.76829997E+03</pdfrwt>
<pdfrwt beam="2">  1       -2 0.33530925E-01 0.76829997E+03</pdfrwt>
<totfact> 0.35728702E+02</totfact>
</mgrwt>
</event>
<event>
12    1  0.1660119E-010  0.8085488E+03  0.7818608E-02  0.9547725E-01
          1   -1    0    0  501    0  0.00000000000E+00  0.00000000000E+00  0.91743574662E+03  0.91743574662E+03  0.00000000000E+00 0.  1.
         -1   -1    0    0    0  501 -0.00000000000E+00 -0.00000000000E+00 -0.17814630340E+03  0.17814630340E+03  0.00000000000E+00 0. -1.
    9900016    2    1    2    0    0  0.14334278636E+02 -0.10405616430E+03  0.56180564326E+03  0.88934515680E+03  0.68137806705E+03 0.  0.
         23    2    3    3    0    0 -0.42577428117E+02  0.84232224359E+02  0.28090536649E+03  0.31011859452E+03  0.91421073823E+02 0.  0.
         23    2    3    3    0    0 -0.73807171265E+01 -0.79397861933E+02  0.34112047162E+02  0.12674623289E+03  0.92425539356E+02 0.  0.
        -15    1    5    5    0    0  0.37021146667E+02 -0.63186530819E+02  0.10745298274E+02  0.74017325083E+02  0.00000000000E+00 0.  1.
        -15    1    4    4    0    0  0.25627733833E+02  0.46790516887E+01  0.68087869518E+02  0.72901524275E+02  0.00000000000E+00 0.  1.
         15    1    4    4    0    0 -0.68205161949E+02  0.79553172671E+02  0.21281749698E+03  0.23721707025E+03  0.00000000000E+00 0. -1.
         15    1    5    5    0    0 -0.44401863794E+02 -0.16211331114E+02  0.23366748888E+02  0.52728907806E+02  0.00000000000E+00 0. -1.
        -16    1    3    3    0    0  0.79187780694E+02 -0.20852709173E+03  0.22133150470E+03  0.31423221918E+03  0.00000000000E+00 0.  1.
         16    1    1    2    0    0 -0.14334278636E+02  0.10405616430E+03  0.17748379997E+03  0.20623689322E+03  0.00000000000E+00 0. -1.
    9900018    1    3    3    0    0 -0.14895356815E+02  0.99636565003E+02  0.25456724905E+02  0.13824811021E+03  0.91187600000E+02 0.  0.
<mgrwt>
<rscale>  0 0.80854879E+03</rscale>
<asrwt>0</asrwt>
<pdfrwt beam="1">  1        1 0.14114396E+00 0.80854879E+03</pdfrwt>
<pdfrwt beam="2">  1       -1 0.27407124E-01 0.80854879E+03</pdfrwt>
<totfact> 0.21240840E+02</totfact>
</mgrwt>
</event>
<event>
12    1  0.1660119E-010  0.8192413E+03  0.7818608E-02  0.9532576E-01
         -3   -1    0    0    0  501 -0.00000000000E+00  0.00000000000E+00  0.10088890524E+04  0.10088890524E+04  0.00000000000E+00 0.  1.
          3   -1    0    0  501    0  0.00000000000E+00 -0.00000000000E+00 -0.16631073034E+03  0.16631073034E+03  0.00000000000E+00 0. -1.
    9900016    2    1    2    0    0  0.18283402822E+02 -0.63158999476E+02  0.84961533498E+03  0.11090721668E+04  0.70983907453E+03 0.  0.
         23    2    3    3    0    0 -0.11378548044E+03 -0.75429383814E+02  0.98565084234E+02  0.19705107999E+03  0.10235880418E+03 0.  0.
         23    2    3    3    0    0  0.27721831246E+01  0.11988311352E+03  0.12805059938E+03  0.19733826533E+03  0.90364755606E+02 0.  0.
        -15    1    5    5    0    0 -0.13450905501E+02  0.10737101552E+03  0.13733608395E+03  0.17484467904E+03  0.00000000000E+00 0.  1.
        -15    1    4    4    0    0 -0.73166874258E+02 -0.46934151012E+02  0.11556015753E+03  0.14460413559E+03  0.00000000000E+00 0. -1.
         15    1    4    4    0    0 -0.40618606186E+02 -0.28495232803E+02 -0.16995073297E+02  0.52446944404E+02  0.00000000000E+00 0.  1.
         15    1    5    5    0    0  0.16223088625E+02  0.12512097996E+02 -0.92854845653E+01  0.22493586295E+02  0.00000000000E+00 0. -1.
        -16    1    3    3    0    0  0.44008693291E+02 -0.11568700214E+03  0.56203463467E+03  0.57550254397E+03  0.00000000000E+00 0.  1.
         16    1    1    2    0    0 -0.18283402822E+02  0.63158999476E+02 -0.70370129556E+01  0.66127615902E+02  0.00000000000E+00 0. -1.
    9900018    1    3    3    0    0  0.85288006850E+02  0.80742729545E+01  0.60965016695E+02  0.13918027752E+03  0.91187600000E+02 0.  0.
<mgrwt>
<rscale>  0 0.81924130E+03</rscale>
<asrwt>0</asrwt>
<pdfrwt beam="1">  1        3 0.25586267E-01 0.81924130E+03</pdfrwt>
<pdfrwt beam="2">  1       -3 0.15521370E+00 0.81924130E+03</pdfrwt>
<totfact> 0.11377017E+01</totfact>
</mgrwt>
</event>
<event>
12    1  0.1660119E-010  0.2129565E+04  0.7818608E-02  0.8548330E-01
          2   -1    0    0  501    0  0.00000000000E+00  0.00000000000E+00  0.23930067279E+04  0.23930067279E+04  0.00000000000E+00 0. -1.
         -2   -1    0    0    0  501 -0.00000000000E+00 -0.00000000000E+00 -0.47378125410E+03  0.47378125410E+03  0.00000000000E+00 0.  1.
    9900016    2    1    2    0    0  0.71574079237E+03  0.29096123783E+03  0.33184784220E+03  0.11013670494E+04  0.71129674781E+03 0.  0.
         23    2    3    3    0    0  0.54947062094E+02  0.92246211509E+02  0.12882016520E+03  0.19076922330E+03  0.90937992193E+02 0.  0.
         23    2    3    3    0    0  0.34090663842E+03  0.38337796065E+02  0.24229127124E+03  0.43023123971E+03  0.93309896442E+02 0.  0.
        -15    1    5    5    0    0  0.16969838201E+03  0.30194092405E+02  0.17631816683E+03  0.24657112570E+03  0.00000000000E+00 0.  1.
        -15    1    4    4    0    0  0.23136240461E+02  0.44761943737E+02  0.60441391768E+00  0.50391294347E+02  0.00000000000E+00 0.  1.
         15    1    4    4    0    0  0.31810821633E+02  0.47484267772E+02  0.12821575129E+03  0.14037792895E+03  0.00000000000E+00 0. -1.
         15    1    5    5    0    0  0.17120825641E+03  0.81437036608E+01  0.65973104406E+02  0.18366011401E+03  0.00000000000E+00 0. -1.
        -16    1    3    3    0    0  0.33134967122E+03  0.18976819877E+03 -0.39448861390E+02  0.38387600413E+03  0.00000000000E+00 0.  1.
         16    1    1    2    0    0 -0.71574079237E+03 -0.29096123783E+03  0.15873776316E+04  0.17654209325E+04  0.00000000000E+00 0. -1.
    9900018    1    3    3    0    0 -0.11462579370E+02 -0.29390968518E+02  0.18526715091E+00  0.96490582307E+02  0.91187600000E+02 0.  0.
<mgrwt>
<rscale>  0 0.21295650E+04</rscale>
<asrwt>0</asrwt>
<pdfrwt beam="1">  1        2 0.36815487E+00 0.21295650E+04</pdfrwt>
<pdfrwt beam="2">  1       -2 0.72889425E-01 0.21295650E+04</pdfrwt>
<totfact> 0.62746542E+00</totfact>
</mgrwt>
</event>
<event>
12    1  0.1660119E-010  0.9884371E+03  0.7818608E-02  0.9321319E-01
          2   -1    0    0  501    0  0.00000000000E+00  0.00000000000E+00  0.29690338574E+03  0.29690338574E+03  0.00000000000E+00 0. -1.
         -2   -1    0    0    0  501 -0.00000000000E+00 -0.00000000000E+00 -0.82266478670E+03  0.82266478670E+03  0.00000000000E+00 0.  1.
    9900016    2    1    2    0    0 -0.13268322360E+02  0.11292147121E+03 -0.15015486081E+03  0.72713017728E+03  0.70231368024E+03 0.  0.
         23    2    3    3    0    0 -0.63527289828E+02  0.11887023188E+03 -0.20912978769E+02  0.16583119186E+03  0.94322759350E+02 0.  0.
         23    2    3    3    0    0  0.95939075662E+02  0.10425596103E+03 -0.29792725310E+02  0.17071926051E+03  0.90464621705E+02 0.  0.
        -15    1    4    4    0    0 -0.34916317670E+02  0.30755868131E+02 -0.50413485308E+02  0.68604607462E+02  0.00000000000E+00 0. -1.
        -15    1    5    5    0    0  0.63411641267E+02  0.61985924251E+02 -0.62194687794E+02  0.10831191183E+03  0.00000000000E+00 0.  1.
         15    1    4    4    0    0 -0.28610972158E+02  0.88114363753E+02  0.29500506539E+02  0.97226584397E+02  0.00000000000E+00 0.  1.
         15    1    5    5    0    0  0.32527434396E+02  0.42270036776E+02  0.32401962485E+02  0.62407348688E+02  0.00000000000E+00 0. -1.
        -16    1    1    2    0    0  0.13268322360E+02 -0.11292147121E+03 -0.37560654015E+03  0.39243799516E+03  0.00000000000E+00 0.  1.
         16    1    3    3    0    0 -0.63033969088E+02 -0.19689673116E+03  0.30373737566E+02  0.20895972802E+03  0.00000000000E+00 0. -1.
    9900018    1    3    3    0    0  0.17353860895E+02  0.86692009457E+02 -0.12982289430E+03  0.18161999689E+03  0.91187600000E+02 0.  0.
<mgrwt>
<rscale>  0 0.98843707E+03</rscale>
<asrwt>0</asrwt>
<pdfrwt beam="1">  1        2 0.45677444E-01 0.98843707E+03</pdfrwt>
<pdfrwt beam="2">  1       -2 0.12656381E+00 0.98843707E+03</pdfrwt>
<totfact> 0.51532980E+01</totfact>
</mgrwt>
</event>
<event>
12    1  0.1660119E-010  0.7825770E+03  0.7818608E-02  0.9585584E-01
          1   -1    0    0  501    0  0.00000000000E+00  0.00000000000E+00  0.17523119535E+04  0.17523119535E+04  0.00000000000E+00 0. -1.
         -1   -1    0    0    0  501 -0.00000000000E+00 -0.00000000000E+00 -0.87374116827E+02  0.87374116827E+02  0.00000000000E+00 0.  1.
    9900016    2    1    2    0    0  0.63322287824E+02 -0.31583146870E+02  0.15310812507E+04  0.16882767149E+04  0.70785680933E+03 0.  0.
         23    2    3    3    0    0  0.14694865453E+02 -0.60541875348E+02  0.46317590630E+03  0.47638178752E+03  0.92338667765E+02 0.  0.
         23    2    3    3    0    0  0.14855240588E+03 -0.88183296244E+02  0.63883307612E+03  0.66819692493E+03  0.92386797292E+02 0.  0.
        -15    1    5    5    0    0  0.39181366827E+02  0.10142779827E+02  0.72009089296E+02  0.82603658698E+02  0.00000000000E+00 0.  1.
        -15    1    4    4    0    0  0.11745132366E+02  0.15267527609E+02  0.24359007142E+02  0.31054899171E+02  0.00000000000E+00 0. -1.
         15    1    4    4    0    0  0.29497330869E+01 -0.75809402957E+02  0.43881689916E+03  0.44532688835E+03  0.00000000000E+00 0.  1.
         15    1    5    5    0    0  0.10937103905E+03 -0.98326076071E+02  0.56682398683E+03  0.58559326623E+03  0.00000000000E+00 0. -1.
        -16    1    1    2    0    0 -0.63322287824E+02  0.31583146870E+02  0.13385658595E+03  0.15140935540E+03  0.00000000000E+00 0.  1.
         16    1    3    3    0    0  0.57542061625E+02  0.93649473606E+02  0.29964006058E+03  0.31916371765E+03  0.00000000000E+00 0. -1.
    9900018    1    3    3    0    0 -0.15746704513E+03  0.23492551116E+02  0.12943220769E+03  0.22453428478E+03  0.91187600000E+02 0.  0.
<mgrwt>
<rscale>  0 0.78257705E+03</rscale>
<asrwt>0</asrwt>
<pdfrwt beam="1">  1        1 0.26958643E+00 0.78257705E+03</pdfrwt>
<pdfrwt beam="2">  1       -1 0.13442173E-01 0.78257705E+03</pdfrwt>
<totfact> 0.17621211E+02</totfact>
</mgrwt>
</event>
<event>
12    1  0.1660119E-010  0.1431119E+04  0.7818608E-02  0.8931596E-01
          2   -1    0    0  501    0  0.00000000000E+00  0.00000000000E+00  0.12966092338E+04  0.12966092338E+04  0.00000000000E+00 0. -1.
         -2   -1    0    0    0  501 -0.00000000000E+00 -0.00000000000E+00 -0.39489545961E+03  0.39489545961E+03  0.00000000000E+00 0.  1.
    9900016    2    1    2    0    0  0.10467172491E+02  0.42180836374E+03  0.96156315736E+03  0.12653429799E+04  0.70601508038E+03 0.  0.
         23    2    3    3    0    0 -0.54322594512E+02 -0.40851001885E+02 -0.12493173026E+02  0.11376906766E+03  0.90374624506E+02 0.  0.
         23    2    3    3    0    0  0.62685641417E+01  0.16351310859E+03  0.49927127480E+03  0.53330686721E+03  0.91479927809E+02 0.  0.
        -15    1    4    4    0    0  0.17401200124E+01 -0.55168759029E+02 -0.49595960772E+01  0.55418567139E+02  0.00000000000E+00 0.  1.
        -15    1    5    5    0    0 -0.35741688368E+02  0.42314940582E+02  0.20380792715E+03  0.21120060051E+03  0.00000000000E+00 0.  1.
         15    1    4    4    0    0 -0.56062714524E+02  0.14317757144E+02 -0.75335769485E+01  0.58350500521E+02  0.00000000000E+00 0. -1.
         15    1    5    5    0    0  0.42010252510E+02  0.12119816801E+03  0.29546334765E+03  0.32210626670E+03  0.00000000000E+00 0. -1.
        -16    1    3    3    0    0  0.25721880784E+02  0.29775763837E+03  0.36760008286E+03  0.47376264867E+03  0.00000000000E+00 0.  1.
         16    1    1    2    0    0 -0.10467172491E+02 -0.42180836374E+03 -0.59849383147E+02  0.42616171354E+03  0.00000000000E+00 0. -1.
    9900018    1    3    3    0    0  0.32799322077E+02  0.13886186669E+01  0.10718497273E+03  0.14450439634E+03  0.91187600000E+02 0.  0.
<mgrwt>
<rscale>  0 0.14311186E+04</rscale>
<asrwt>0</asrwt>
<pdfrwt beam="1">  1        2 0.19947834E+00 0.14311186E+04</pdfrwt>
<pdfrwt beam="2">  1       -2 0.60753148E-01 0.14311186E+04</pdfrwt>
<totfact> 0.40676593E+01</totfact>
</mgrwt>
</event>
<event>
12    1  0.1660119E-010  0.1006524E+04  0.7818608E-02  0.9301418E-01
          2   -1    0    0  501    0  0.00000000000E+00  0.00000000000E+00  0.13757818749E+04  0.13757818749E+04  0.00000000000E+00 0. -1.
         -2   -1    0    0    0  501 -0.00000000000E+00 -0.00000000000E+00 -0.18409352399E+03  0.18409352399E+03  0.00000000000E+00 0.  1.
    9900016    2    1    2    0    0  0.25000060806E+03  0.18800094970E+02  0.92527267892E+03  0.11940461247E+04  0.71187279050E+03 0.  0.
         23    2    3    3    0    0  0.17051232072E+03 -0.12540116423E+03  0.48289774152E+03  0.53309636057E+03  0.78750221423E+02 0.  0.
         23    2    3    3    0    0 -0.33587381729E+02  0.12676847362E+02  0.94556533273E+02  0.13582543664E+03  0.90657578737E+02 0.  0.
        -15    1    4    4    0    0  0.11178155402E+03 -0.51207589870E+02  0.19977428964E+03  0.23457855802E+03  0.00000000000E+00 0.  1.
        -15    1    5    5    0    0 -0.51958926277E+02 -0.20381178863E+02  0.37029441153E+02  0.66979862525E+02  0.00000000000E+00 0.  1.
         15    1    4    4    0    0  0.58730766698E+02 -0.74193574355E+02  0.28312345189E+03  0.29851780255E+03  0.00000000000E+00 0. -1.
         15    1    5    5    0    0  0.18371544548E+02  0.33058026225E+02  0.57527092120E+02  0.68845574112E+02  0.00000000000E+00 0. -1.
        -16    1    1    2    0    0 -0.25000060806E+03 -0.18800094970E+02  0.26641567197E+03  0.36582927422E+03  0.00000000000E+00 0.  1.
         16    1    3    3    0    0  0.16496669684E+03  0.16175683455E+03  0.34584613288E+03  0.41591926166E+03  0.00000000000E+00 0. -1.
    9900018    1    3    3    0    0 -0.51891027780E+02 -0.30232422715E+02  0.19722712435E+01  0.10920506579E+03  0.91187600000E+02 0.  0.
<mgrwt>
<rscale>  0 0.10065238E+04</rscale>
<asrwt>0</asrwt>
<pdfrwt beam="1">  1        2 0.21165874E+00 0.10065238E+04</pdfrwt>
<pdfrwt beam="2">  1       -2 0.28322082E-01 0.10065238E+04</pdfrwt>
<totfact> 0.16998161E+02</totfact>
</mgrwt>
</event>
<event>
12    1  0.1660119E-010  0.1125595E+04  0.7818608E-02  0.9180599E-01
          1   -1    0    0  501    0  0.00000000000E+00  0.00000000000E+00  0.13242476123E+04  0.13242476123E+04  0.00000000000E+00 0. -1.
         -1   -1    0    0    0  501 -0.00000000000E+00 -0.00000000000E+00 -0.23918546147E+03  0.23918546147E+03  0.00000000000E+00 0.  1.
    9900016    2    1    2    0    0  0.26804203991E+03 -0.94647222697E+02  0.10256695132E+04  0.12730331473E+04  0.69843454372E+03 0.  0.
         23    2    3    3    0    0  0.16801178441E+03 -0.67646116873E+02  0.25321511723E+03  0.32474271585E+03  0.92390362476E+02 0.  0.
         23    2    3    3    0    0 -0.34159589905E+02 -0.11622989154E+03  0.25602227222E+03  0.29701000892E+03  0.89393938594E+02 0.  0.
        -15    1    4    4    0    0  0.78507690224E+02 -0.74129735786E+02  0.17537070107E+03  0.20594552179E+03  0.00000000000E+00 0.  1.
        -15    1    5    5    0    0 -0.11858998433E+01 -0.91179594325E+02  0.23167042959E+03  0.24897050574E+03  0.00000000000E+00 0. -1.
         15    1    4    4    0    0  0.89504094186E+02  0.64836189124E+01  0.77844416161E+02  0.11879719406E+03  0.00000000000E+00 0. -1.
         15    1    5    5    0    0 -0.32973690062E+02 -0.25050297210E+02  0.24351842625E+02  0.48039503181E+02  0.00000000000E+00 0.  1.
        -16    1    1    2    0    0 -0.26804203991E+03  0.94647222697E+02  0.59392637703E+02  0.29039992655E+03  0.00000000000E+00 0.  1.
         16    1    3    3    0    0  0.22372588310E+03  0.13415237105E+03  0.35508081921E+03  0.44060471808E+03  0.00000000000E+00 0. -1.
    9900018    1    3    3    0    0 -0.89536037691E+02 -0.44923585342E+02  0.16135130452E+03  0.21067570441E+03  0.91187600000E+02 0.  0.
<mgrwt>
<rscale>  0 0.11255946E+04</rscale>
<asrwt>0</asrwt>
<pdfrwt beam="1">  1        1 0.20373040E+00 0.11255946E+04</pdfrwt>
<pdfrwt beam="2">  1       -1 0.36797764E-01 0.11255946E+04</pdfrwt>
<totfact> 0.61271761E+01</totfact>
</mgrwt>
</event>
<event>
12    1  0.1660119E-010  0.9513853E+03  0.7818608E-02  0.9363533E-01
          1   -1    0    0  501    0  0.00000000000E+00  0.00000000000E+00  0.13897136999E+03  0.13897136999E+03  0.00000000000E+00 0. -1.
         -1   -1    0    0    0  501 -0.00000000000E+00 -0.00000000000E+00 -0.16282741921E+04  0.16282741921E+04  0.00000000000E+00 0.  1.
    9900016    2    1    2    0    0 -0.44217211281E+02 -0.19946263093E+03 -0.10623611383E+04  0.12939383635E+04  0.70987660711E+03 0.  0.
         23    2    3    3    0    0 -0.84913524457E+02  0.33020736223E+02 -0.32124065504E+03  0.34608779962E+03  0.90997422698E+02 0.  0.
         23    2    3    3    0    0  0.26480974230E+02  0.41499483727E+02 -0.64158889261E+02  0.11923155758E+03  0.87614793878E+02 0.  0.
        -15    1    5    5    0    0  0.33643772723E+02  0.55979520952E+02 -0.75246730946E+02  0.99637747501E+02  0.00000000000E+00 0. -1.
        -15    1    4    4    0    0 -0.74099956400E+02  0.54800239558E+02 -0.17446645827E+03  0.19731298704E+03  0.00000000000E+00 0.  1.
         15    1    4    4    0    0 -0.10813568057E+02 -0.21779503335E+02 -0.14677419677E+03  0.14877481258E+03  0.00000000000E+00 0. -1.
         15    1    5    5    0    0 -0.71627984926E+01 -0.14480037224E+02  0.11087841685E+02  0.19593810081E+02  0.00000000000E+00 0.  1.
        -16    1    3    3    0    0  0.16242860212E+02  0.41918568416E+02 -0.38886418104E+03  0.39145414569E+03  0.00000000000E+00 0.  1.
         16    1    1    2    0    0  0.44217211281E+02  0.19946263093E+03 -0.42694168384E+03  0.47330719867E+03  0.00000000000E+00 0. -1.
    9900018    1    3    3    0    0 -0.20275212652E+01 -0.31590141930E+03 -0.28809741296E+03  0.43716486056E+03  0.91187600000E+02 0.  0.
<mgrwt>
<rscale>  0 0.95138530E+03</rscale>
<asrwt>0</asrwt>
<pdfrwt beam="1">  1        1 0.21380211E-01 0.95138530E+03</pdfrwt>
<pdfrwt beam="2">  1       -1 0.25050372E+00 0.95138530E+03</pdfrwt>
<totfact> 0.16834195E+01</totfact>
</mgrwt>
</event>
<event>
12    1  0.1660119E-010  0.1212655E+04  0.7818608E-02  0.9101851E-01
         -1   -1    0    0    0  501 -0.00000000000E+00  0.00000000000E+00  0.26576283791E+03  0.26576283791E+03  0.00000000000E+00 0.  1.
          1   -1    0    0  501    0  0.00000000000E+00 -0.00000000000E+00 -0.13833127568E+04  0.13833127568E+04  0.00000000000E+00 0. -1.
    9900016    2    1    2    0    0 -0.47469953865E+01  0.88793256290E+01 -0.12881532371E+04  0.14781754233E+04  0.72495685611E+03 0.  0.
         23    2    3    3    0    0  0.74287355957E+02 -0.68128350634E+02 -0.24319076087E+03  0.28191702168E+03  0.10087307630E+03 0.  0.
         23    2    3    3    0    0 -0.84118572066E+02  0.86284135889E+02 -0.28212295380E+03  0.31972410428E+03  0.90051404878E+02 0.  0.
        -15    1    5    5    0    0  0.17922447707E+02  0.25846161569E+02 -0.68866553588E+02  0.75708918911E+02  0.00000000000E+00 0.  1.
        -15    1    4    4    0    0  0.57403923070E+02 -0.27068895751E+02 -0.42517378824E+02  0.76391511329E+02  0.00000000000E+00 0. -1.
         15    1    4    4    0    0  0.16883432887E+02 -0.41059454883E+02 -0.20067338205E+03  0.20552551035E+03  0.00000000000E+00 0.  1.
         15    1    5    5    0    0 -0.10204101977E+03  0.60437974321E+02 -0.21325640022E+03  0.24401518537E+03  0.00000000000E+00 0. -1.
        -16    1    1    2    0    0  0.47469953865E+01 -0.88793256290E+01  0.17060331827E+03  0.17090017143E+03  0.00000000000E+00 0.  1.
         16    1    3    3    0    0  0.94388014608E+02 -0.23440633091E+02 -0.73967899938E+03  0.74604529534E+03  0.00000000000E+00 0. -1.
    9900018    1    3    3    0    0 -0.89303793886E+02  0.14164173464E+02 -0.23160523080E+02  0.13048900197E+03  0.91187600000E+02 0.  0.
<mgrwt>
<rscale>  0 0.12126551E+04</rscale>
<asrwt>0</asrwt>
<pdfrwt beam="1">  1        1 0.21281734E+00 0.12126551E+04</pdfrwt>
<pdfrwt beam="2">  1       -1 0.40886591E-01 0.12126551E+04</pdfrwt>
<totfact> 0.45649235E+01</totfact>
</mgrwt>
</event>
<event>
12    1  0.1660119E-010  0.1627776E+04  0.7818608E-02  0.8803664E-01
         -2   -1    0    0    0  501 -0.00000000000E+00  0.00000000000E+00  0.66327382273E+03  0.66327382273E+03  0.00000000000E+00 0.  1.
          2   -1    0    0  501    0  0.00000000000E+00 -0.00000000000E+00 -0.99870302118E+03  0.99870302118E+03  0.00000000000E+00 0. -1.
    9900016    2    1    2    0    0 -0.54468589371E+03 -0.29652028438E+03 -0.42566700678E+03  0.10352792582E+04  0.71133939858E+03 0.  0.
         23    2    3    3    0    0 -0.77803124109E+02 -0.28920295748E+02 -0.21238707436E+02  0.12475831352E+03  0.90685414877E+02 0.  0.
         23    2    3    3    0    0 -0.15076233000E+03  0.56231017867E+02  0.75614200809E+02  0.20087240099E+03  0.93493350561E+02 0.  0.
        -15    1    5    5    0    0 -0.74405351222E+02 -0.12542149204E+02  0.61097738717E+02  0.97089625983E+02  0.00000000000E+00 0.  1.
        -15    1    4    4    0    0 -0.42065000182E+02 -0.27679719006E+02  0.32701091085E+02  0.60041589275E+02  0.00000000000E+00 0. -1.
         15    1    4    4    0    0 -0.35738123927E+02 -0.12405767426E+01 -0.53939798520E+02  0.64716724244E+02  0.00000000000E+00 0.  1.
         15    1    5    5    0    0 -0.76356978780E+02  0.68773167071E+02  0.14516462092E+02  0.10378277501E+03  0.00000000000E+00 0. -1.
        -16    1    1    2    0    0  0.54468589371E+03  0.29652028438E+03  0.90237808332E+02  0.62669758569E+03  0.00000000000E+00 0.  1.
         16    1    3    3    0    0 -0.15004523663E+03 -0.13663572518E+02 -0.20219171184E+03  0.25215422778E+03  0.00000000000E+00 0. -1.
    9900018    1    3    3    0    0 -0.16607520297E+03 -0.31016743399E+03 -0.27785078831E+03  0.45749431593E+03  0.91187600000E+02 0.  0.
<mgrwt>
<rscale>  0 0.16277759E+04</rscale>
<asrwt>0</asrwt>
<pdfrwt beam="1">  1        2 0.15364662E+00 0.16277759E+04</pdfrwt>
<pdfrwt beam="2">  1       -2 0.10204213E+00 0.16277759E+04</pdfrwt>
<totfact> 0.19012758E+01</totfact>
</mgrwt>
</event>
<event>
12    1  0.1660119E-010  0.8480358E+03  0.7818608E-02  0.9492977E-01
         -2   -1    0    0    0  501 -0.00000000000E+00  0.00000000000E+00  0.18431304814E+03  0.18431304814E+03  0.00000000000E+00 0. -1.
          2   -1    0    0  501    0  0.00000000000E+00 -0.00000000000E+00 -0.97546630319E+03  0.97546630319E+03  0.00000000000E+00 0.  1.
    9900016    2    1    2    0    0  0.14542593323E+02  0.12741058531E+03 -0.67549801111E+03  0.98709154133E+03  0.70824233401E+03 0.  0.
         23    2    3    3    0    0  0.86555557742E+02  0.67337663348E+02 -0.19830426225E+02  0.14441016623E+03  0.91841302397E+02 0.  0.
         23    2    3    3    0    0 -0.38734814900E+02  0.10225527713E+03 -0.33590520312E+03  0.36451709439E+03  0.89910394474E+02 0.  0.
        -15    1    4    4    0    0  0.67933398869E+02 -0.80542078594E-01 -0.29008426160E+02  0.73867732855E+02  0.00000000000E+00 0. -1.
        -15    1    5    5    0    0 -0.46677247200E+02  0.62168954727E+02 -0.10854291889E+03  0.13351145861E+03  0.00000000000E+00 0. -1.
         15    1    4    4    0    0  0.18622158873E+02  0.67418205427E+02  0.91779999351E+01  0.70542433378E+02  0.00000000000E+00 0.  1.
         15    1    5    5    0    0  0.79424323001E+01  0.40086322402E+02 -0.22736228423E+03  0.23100563578E+03  0.00000000000E+00 0.  1.
        -16    1    1    2    0    0 -0.14542593323E+02 -0.12741058531E+03 -0.11565524394E+03  0.17268781000E+03  0.00000000000E+00 0.  1.
         16    1    3    3    0    0  0.73511784022E+02 -0.15708290054E+03 -0.17064886476E+03  0.24331061439E+03  0.00000000000E+00 0. -1.
    9900018    1    3    3    0    0 -0.10678993354E+03  0.11490054538E+03 -0.14911351701E+03  0.23485366631E+03  0.91187600000E+02 0.  0.
<mgrwt>
<rscale>  0 0.84803577E+03</rscale>
<asrwt>0</asrwt>
<pdfrwt beam="1">  1        2 0.15007174E+00 0.84803577E+03</pdfrwt>
<pdfrwt beam="2">  1       -2 0.28355853E-01 0.84803577E+03</pdfrwt>
<totfact> 0.29834332E+02</totfact>
</mgrwt>
</event>
<event>
12    1  0.1660119E-010  0.1023588E+04  0.7818608E-02  0.9283046E-01
         -2   -1    0    0    0  501 -0.00000000000E+00  0.00000000000E+00  0.75652542702E+03  0.75652542702E+03  0.00000000000E+00 0.  1.
          2   -1    0    0  501    0  0.00000000000E+00 -0.00000000000E+00 -0.34623155674E+03  0.34623155674E+03  0.00000000000E+00 0. -1.
    9900016    2    1    2    0    0 -0.32494722093E+02  0.23414969800E+03  0.17470309514E+03  0.76901306791E+03  0.71061799803E+03 0.  0.
         23    2    3    3    0    0 -0.20810652966E+01 -0.51521636764E+02 -0.13000521285E+02  0.10083840296E+03  0.85677068519E+02 0.  0.
         23    2    3    3    0    0 -0.48760322967E+02  0.32605032766E+02  0.18147543807E+03  0.21114941005E+03  0.90609499953E+02 0.  0.
        -15    1    5    5    0    0  0.20522111313E+01 -0.28391168063E+02  0.51665416429E+02  0.58988009369E+02  0.00000000000E+00 0.  1.
        -15    1    4    4    0    0  0.14163672587E+02 -0.15058024089E+02 -0.45101701303E+02  0.49613679273E+02  0.00000000000E+00 0.  1.
         15    1    4    4    0    0 -0.16244737884E+02 -0.36463612675E+02  0.32101180017E+02  0.51224723686E+02  0.00000000000E+00 0. -1.
         15    1    5    5    0    0 -0.50812534098E+02  0.60996200829E+02  0.12981002164E+03  0.15216140068E+03  0.00000000000E+00 0. -1.
        -16    1    1    2    0    0  0.32494722093E+02 -0.23414969800E+03  0.23559077514E+03  0.33374391585E+03  0.00000000000E+00 0.  1.
         16    1    3    3    0    0 -0.12593104082E+03 -0.26828865842E+02 -0.67978717231E+01  0.12893651982E+03  0.00000000000E+00 0. -1.
    9900018    1    3    3    0    0  0.14427770699E+03  0.27989516784E+03  0.13026050079E+02  0.32808873508E+03  0.91187600000E+02 0.  0.
<mgrwt>
<rscale>  0 0.10235878E+04</rscale>
<asrwt>0</asrwt>
<pdfrwt beam="1">  1        2 0.53266393E-01 0.10235878E+04</pdfrwt>
<pdfrwt beam="2">  1       -2 0.11638853E+00 0.10235878E+04</pdfrwt>
<totfact> 0.53389849E+01</totfact>
</mgrwt>
</event>
<event>
12    1  0.1660119E-010  0.9612510E+03  0.7818608E-02  0.9352096E-01
         -2   -1    0    0    0  501 -0.00000000000E+00  0.00000000000E+00  0.19824388922E+03  0.19824388922E+03  0.00000000000E+00 0.  1.
          2   -1    0    0  501    0  0.00000000000E+00 -0.00000000000E+00 -0.11652357302E+04  0.11652357302E+04  0.00000000000E+00 0. -1.
    9900016    2    1    2    0    0  0.90783831380E+02  0.19491152733E+03 -0.73765233759E+03  0.10491091130E+04  0.71432958234E+03 0.  0.
         23    2    3    3    0    0 -0.52979675673E+02 -0.10287285309E+02 -0.18279199849E+02  0.10703833414E+03  0.90611266159E+02 0.  0.
         23    2    3    3    0    0 -0.14814603260E+02 -0.21234778116E+02 -0.25525509933E+03  0.27235450951E+03  0.91386130484E+02 0.  0.
        -15    1    5    5    0    0  0.11288056758E+02  0.26989417066E+02 -0.36216183648E+02  0.46555996573E+02  0.00000000000E+00 0. -1.
        -15    1    4    4    0    0  0.10752509417E+02  0.15362965680E+02  0.20796754335E+02  0.28002538530E+02  0.00000000000E+00 0.  1.
         15    1    4    4    0    0 -0.63732185090E+02 -0.25650250989E+02 -0.39075954185E+02  0.79035795610E+02  0.00000000000E+00 0. -1.
         15    1    5    5    0    0 -0.26102660018E+02 -0.48224195182E+02 -0.21903891569E+03  0.22579851294E+03  0.00000000000E+00 0.  1.
        -16    1    1    2    0    0 -0.90783831380E+02 -0.19491152733E+03 -0.22933950342E+03  0.31437050650E+03  0.00000000000E+00 0.  1.
         16    1    3    3    0    0  0.12090348901E+03  0.21510321371E+03 -0.50520158593E+03  0.56224166390E+03  0.00000000000E+00 0. -1.
    9900018    1    3    3    0    0  0.37674621301E+02  0.11330377046E+02  0.41083547526E+02  0.10747460540E+03  0.91187600000E+02 0.  0.
<mgrwt>
<rscale>  0 0.96125098E+03</rscale>
<asrwt>0</asrwt>
<pdfrwt beam="1">  1        2 0.17926704E+00 0.96125098E+03</pdfrwt>
<pdfrwt beam="2">  1       -2 0.30499060E-01 0.96125098E+03</pdfrwt>
<totfact> 0.19735506E+02</totfact>
</mgrwt>
</event>
<event>
12    1  0.1660119E-010  0.1062254E+04  0.7818608E-02  0.9242784E-01
          2   -1    0    0  501    0  0.00000000000E+00  0.00000000000E+00  0.12089814961E+04  0.12089814961E+04  0.00000000000E+00 0. -1.
         -2   -1    0    0    0  501 -0.00000000000E+00 -0.00000000000E+00 -0.23333336208E+03  0.23333336208E+03  0.00000000000E+00 0.  1.
    9900016    2    1    2    0    0 -0.18710390391E+03 -0.23321540575E+03  0.73183896978E+03  0.10565167181E+04  0.70088658249E+03 0.  0.
         23    2    3    3    0    0  0.18032433422E+02 -0.22526898700E+02  0.45490386628E+02  0.10612338302E+03  0.91433950625E+02 0.  0.
         23    2    3    3    0    0 -0.69504744759E+02 -0.29831489168E+02  0.42687225550E+02  0.12635136209E+03  0.91769494859E+02 0.  0.
        -15    1    4    4    0    0 -0.45027165794E+01 -0.38356615571E+02  0.62706806483E+02  0.73645420727E+02  0.00000000000E+00 0.  1.
        -15    1    5    5    0    0 -0.17686420497E+02 -0.57459406952E+02  0.19293879684E+02  0.63139897929E+02  0.00000000000E+00 0. -1.
         15    1    4    4    0    0  0.22535150001E+02  0.15829716871E+02 -0.17216419855E+02  0.32477962289E+02  0.00000000000E+00 0. -1.
         15    1    5    5    0    0 -0.51818324263E+02  0.27627917784E+02  0.23393345866E+02  0.63211464160E+02  0.00000000000E+00 0.  1.
        -16    1    3    3    0    0 -0.13260912052E+03 -0.15954002998E+03  0.37668410729E+02  0.21084854559E+03  0.00000000000E+00 0.  1.
         16    1    1    2    0    0  0.18710390391E+03  0.23321540575E+03  0.24380916419E+03  0.38579814007E+03  0.00000000000E+00 0. -1.
    9900018    1    3    3    0    0 -0.30224720547E+01 -0.21316987904E+02  0.60599294687E+03  0.61319342737E+03  0.91187600000E+02 0.  0.
<mgrwt>
<rscale>  0 0.10622537E+04</rscale>
<asrwt>0</asrwt>
<pdfrwt beam="1">  1        2 0.18599715E+00 0.10622537E+04</pdfrwt>
<pdfrwt beam="2">  1       -2 0.35897441E-01 0.10622537E+04</pdfrwt>
<totfact> 0.13569622E+02</totfact>
</mgrwt>
</event>
<event>
12    1  0.2854717E-010  0.1294172E+04  0.7818608E-02  0.9034199E-01
          2   -1    0    0  501    0  0.00000000000E+00  0.00000000000E+00  0.14346321733E+04  0.14346321733E+04  0.00000000000E+00 0. -1.
         -2   -1    0    0    0  501 -0.00000000000E+00 -0.00000000000E+00 -0.29186605813E+03  0.29186605813E+03  0.00000000000E+00 0.  1.
    9900016    2    1    2    0    0  0.33884886750E+03  0.14408760310E+03  0.38905895740E+03  0.88765720236E+03  0.70780551297E+03 0.  0.
         23    2    3    3    0    0  0.69414305916E+01  0.15879882084E+01  0.19839982433E+03  0.21861226364E+03  0.91532105600E+02 0.  0.
         23    2    3    3    0    0  0.22980396839E+03  0.14567970944E+02  0.16710039735E+03  0.29894996648E+03  0.91795697055E+02 0.  0.
        -15    1    5    5    0    0  0.43872440943E+02 -0.10639808324E+02 -0.36001628163E+01  0.45287501232E+02  0.00000000000E+00 0. -1.
        -15    1    4    4    0    0 -0.30312779713E+02 -0.29505950105E+02  0.76645819279E+02  0.87544544767E+02  0.00000000000E+00 0.  1.
         15    1    4    4    0    0  0.37254210305E+02  0.31093938313E+02  0.12175400505E+03  0.13106771888E+03  0.00000000000E+00 0. -1.
         15    1    5    5    0    0  0.18593152745E+03  0.25207779269E+02  0.17070056016E+03  0.25366246525E+03  0.00000000000E+00 0.  1.
        -16    1    3    3    0    0  0.10821718311E+03  0.11556167237E+03 -0.12055680951E+03  0.19899598780E+03  0.00000000000E+00 0.  1.
         16    1    1    2    0    0 -0.33884886750E+03 -0.14408760310E+03  0.75370715780E+03  0.83884102909E+03  0.00000000000E+00 0. -1.
    9900018    1    3    3    0    0 -0.61137145960E+01  0.12369971574E+02  0.14411554523E+03  0.17109898443E+03  0.91187600000E+02 0.  0.
<mgrwt>
<rscale>  0 0.12941722E+04</rscale>
<asrwt>0</asrwt>
<pdfrwt beam="1">  1        2 0.22071264E+00 0.12941722E+04</pdfrwt>
<pdfrwt beam="2">  1       -2 0.44902471E-01 0.12941722E+04</pdfrwt>
<totfact> 0.63742977E+01</totfact>
</mgrwt>
</event>
<event>
12    1  0.1660119E-010  0.1120747E+04  0.7818608E-02  0.9185203E-01
         -1   -1    0    0    0  501 -0.00000000000E+00  0.00000000000E+00  0.19669450664E+03  0.19669450664E+03  0.00000000000E+00 0. -1.
          1   -1    0    0  501    0  0.00000000000E+00 -0.00000000000E+00 -0.15964791427E+04  0.15964791427E+04  0.00000000000E+00 0.  1.
    9900016    2    1    2    0    0  0.17017633106E+03  0.96619047615E+02 -0.55432598043E+03  0.92536286214E+03  0.71464950153E+03 0.  0.
         23    2    3    3    0    0 -0.54866019060E+02  0.48156718113E+02 -0.27169055409E+02  0.12015788758E+03  0.91489949336E+02 0.  0.
         23    2    3    3    0    0  0.24769892946E+02 -0.93225035487E+02 -0.68084951932E+02  0.14840860119E+03  0.89917169606E+02 0.  0.
        -15    1    4    4    0    0 -0.33016654037E+02 -0.22290719724E+02  0.40964194256E+01  0.40046925995E+02  0.00000000000E+00 0. -1.
        -15    1    5    5    0    0 -0.33340894607E+02 -0.43612866311E+02 -0.21749376689E+02  0.59048562619E+02  0.00000000000E+00 0. -1.
         15    1    4    4    0    0 -0.21849365024E+02  0.70447437837E+02 -0.31265474835E+02  0.80110961587E+02  0.00000000000E+00 0.  1.
         15    1    5    5    0    0  0.58110787553E+02 -0.49612169176E+02 -0.46335575243E+02  0.89360038572E+02  0.00000000000E+00 0.  1.
        -16    1    1    2    0    0 -0.17017633106E+03 -0.96619047615E+02 -0.84545865565E+03  0.86781078723E+03  0.00000000000E+00 0.  1.
         16    1    3    3    0    0  0.27530386725E+03  0.12186026902E+03 -0.44351554093E+03  0.53604867273E+03  0.00000000000E+00 0. -1.
    9900018    1    3    3    0    0 -0.75031410077E+02  0.19827095970E+02 -0.15556432154E+02  0.12074770063E+03  0.91187600000E+02 0.  0.
<mgrwt>
<rscale>  0 0.11207474E+04</rscale>
<asrwt>0</asrwt>
<pdfrwt beam="1">  1        1 0.24561217E+00 0.11207474E+04</pdfrwt>
<pdfrwt beam="2">  1       -1 0.30260694E-01 0.11207474E+04</pdfrwt>
<totfact> 0.56122346E+01</totfact>
</mgrwt>
</event>
<event>
12    1  0.1660119E-010  0.1203925E+04  0.7818608E-02  0.9109428E-01
          2   -1    0    0  501    0  0.00000000000E+00  0.00000000000E+00  0.55218706478E+03  0.55218706478E+03  0.00000000000E+00 0. -1.
         -2   -1    0    0    0  501 -0.00000000000E+00 -0.00000000000E+00 -0.65622518310E+03  0.65622518310E+03  0.00000000000E+00 0.  1.
    9900016    2    1    2    0    0 -0.38201096771E+03  0.52429196928E+02 -0.10122323172E+03  0.82280996089E+03  0.71978391824E+03 0.  0.
         23    2    3    3    0    0 -0.29135930599E+02  0.48483481084E+01 -0.15907480652E+03  0.18570901955E+03  0.91162694907E+02 0.  0.
         23    2    3    3    0    0 -0.15425444554E+02 -0.50171545890E+02  0.13380319900E+03  0.16929634146E+03  0.89458520076E+02 0.  0.
        -15    1    4    4    0    0  0.30504447431E+02 -0.87455742417E+01 -0.77515821013E+02  0.83759828612E+02  0.00000000000E+00 0. -1.
        -15    1    5    5    0    0  0.50136869934E+01 -0.58036755179E+02  0.13533802989E+03  0.14734240511E+03  0.00000000000E+00 0.  1.
         15    1    4    4    0    0 -0.59640378030E+02  0.13593922350E+02 -0.81558985509E+02  0.10194919094E+03  0.00000000000E+00 0.  1.
         15    1    5    5    0    0 -0.20439131547E+02  0.78652092888E+01 -0.15348308923E+01  0.21953936354E+02  0.00000000000E+00 0. -1.
        -16    1    1    2    0    0  0.38201096771E+03 -0.52429196928E+02 -0.28148866031E+01  0.38560228698E+03  0.00000000000E+00 0.  1.
         16    1    3    3    0    0 -0.25938520689E+03  0.17050307769E+03 -0.98460750081E+02  0.32564782260E+03  0.00000000000E+00 0. -1.
    9900018    1    3    3    0    0 -0.78064385660E+02 -0.72750682980E+02  0.22509125893E+02  0.14215677727E+03  0.91187600000E+02 0.  0.
<mgrwt>
<rscale>  0 0.12039253E+04</rscale>
<asrwt>0</asrwt>
<pdfrwt beam="1">  1        2 0.84951856E-01 0.12039253E+04</pdfrwt>
<pdfrwt beam="2">  1       -2 0.10095772E+00 0.12039253E+04</pdfrwt>
<totfact> 0.43656318E+01</totfact>
</mgrwt>
</event>
<event>
12    1  0.1660119E-010  0.8190184E+03  0.7818608E-02  0.9532890E-01
         -1   -1    0    0    0  501 -0.00000000000E+00  0.00000000000E+00  0.26692492753E+03  0.26692492753E+03  0.00000000000E+00 0.  1.
          1   -1    0    0  501    0  0.00000000000E+00 -0.00000000000E+00 -0.62825823970E+03  0.62825823970E+03  0.00000000000E+00 0. -1.
    9900016    2    1    2    0    0  0.53234338712E+02  0.79522846144E+02 -0.35697426555E+03  0.79938766021E+03  0.70882453905E+03 0.  0.
         23    2    3    3    0    0 -0.12892873671E+02 -0.74420089907E+02 -0.71371724104E+02  0.13804663110E+03  0.90875592893E+02 0.  0.
         23    2    3    3    0    0  0.18842966609E+02  0.34227865484E+02 -0.12017468832E+03  0.15790984362E+03  0.94694027433E+02 0.  0.
        -15    1    5    5    0    0  0.40759748296E+02  0.13446428242E+02 -0.12027826829E+03  0.12770679440E+03  0.00000000000E+00 0. -1.
        -15    1    4    4    0    0 -0.46751577379E+02 -0.48649184184E+02 -0.18081238202E+02  0.69852589673E+02  0.00000000000E+00 0.  1.
         15    1    4    4    0    0  0.33858703708E+02 -0.25770905724E+02 -0.53290485903E+02  0.68194041428E+02  0.00000000000E+00 0. -1.
         15    1    5    5    0    0 -0.21916781687E+02  0.20781437242E+02  0.10357996176E+00  0.30203049220E+02  0.00000000000E+00 0.  1.
        -16    1    1    2    0    0 -0.53234338712E+02 -0.79522846144E+02 -0.43590466291E+01  0.95795507016E+02  0.00000000000E+00 0.  1.
         16    1    3    3    0    0 -0.10543553285E+03 -0.13069205079E+03 -0.68426888665E+02  0.18132650887E+03  0.00000000000E+00 0. -1.
    9900018    1    3    3    0    0  0.15271977862E+03  0.25040712135E+03 -0.97000964457E+02  0.32210467663E+03  0.91187600000E+02 0.  0.
<mgrwt>
<rscale>  0 0.81901840E+03</rscale>
<asrwt>0</asrwt>
<pdfrwt beam="1">  1        1 0.96655114E-01 0.81901840E+03</pdfrwt>
<pdfrwt beam="2">  1       -1 0.41065374E-01 0.81901840E+03</pdfrwt>
<totfact> 0.18774490E+02</totfact>
</mgrwt>
</event>
<event>
12    1  0.1660119E-010  0.1702221E+04  0.7818608E-02  0.8760098E-01
         -2   -1    0    0    0  501 -0.00000000000E+00  0.00000000000E+00  0.11906787963E+04  0.11906787963E+04  0.00000000000E+00 0.  1.
          2   -1    0    0  501    0  0.00000000000E+00 -0.00000000000E+00 -0.60838358941E+03  0.60838358941E+03  0.00000000000E+00 0. -1.
    9900016    2    1    2    0    0  0.19738468437E+02 -0.18136420960E+03  0.10621316375E+04  0.12857149558E+04  0.70118239314E+03 0.  0.
         23    2    3    3    0    0  0.59702193298E+02  0.11948276304E+01  0.56282611251E+02  0.12174194021E+03  0.89931019003E+02 0.  0.
         23    2    3    3    0    0  0.92389738098E+01  0.99272327991E+01  0.21050083991E+02  0.95196055578E+02  0.91843749779E+02 0.  0.
        -15    1    5    5    0    0 -0.15664243800E+02  0.44864393420E+02  0.21807137071E+02  0.52285117940E+02  0.00000000000E+00 0. -1.
        -15    1    4    4    0    0 -0.11709540562E+02  0.23883336458E+02  0.34785322959E+02  0.43789790978E+02  0.00000000000E+00 0.  1.
         15    1    4    4    0    0  0.71411733860E+02 -0.22688508828E+02  0.21497288292E+02  0.77952149231E+02  0.00000000000E+00 0. -1.
         15    1    5    5    0    0  0.24903217610E+02 -0.34937160621E+02 -0.75705307902E+00  0.42910937638E+02  0.00000000000E+00 0.  1.
        -16    1    3    3    0    0 -0.30672686441E+02 -0.21642243676E+03  0.93567246165E+03  0.96086546421E+03  0.00000000000E+00 0.  1.
         16    1    1    2    0    0 -0.19738468437E+02  0.18136420960E+03 -0.47983643063E+03  0.51334742993E+03  0.00000000000E+00 0. -1.
    9900018    1    3    3    0    0 -0.18530012229E+02  0.23936166728E+02  0.49126480633E+02  0.10791149579E+03  0.91187600000E+02 0.  0.
<mgrwt>
<rscale>  0 0.17022214E+04</rscale>
<asrwt>0</asrwt>
<pdfrwt beam="1">  1        2 0.93597475E-01 0.17022214E+04</pdfrwt>
<pdfrwt beam="2">  1       -2 0.18318135E+00 0.17022214E+04</pdfrwt>
<totfact> 0.79922170E+00</totfact>
</mgrwt>
</event>
<event>
12    1  0.1660119E-010  0.1457836E+04  0.7818608E-02  0.8912986E-01
         -1   -1    0    0    0  501 -0.00000000000E+00  0.00000000000E+00  0.19983218145E+03  0.19983218145E+03  0.00000000000E+00 0.  1.
          1   -1    0    0  501    0  0.00000000000E+00 -0.00000000000E+00 -0.26588395547E+04  0.26588395547E+04  0.00000000000E+00 0. -1.
    9900016    2    1    2    0    0 -0.50110516298E+03  0.26466606187E+03 -0.14409233668E+04  0.16934895389E+04  0.68592431114E+03 0.  0.
         23    2    3    3    0    0  0.10024523028E+02  0.51213958105E+02 -0.61642675204E+02  0.12112441052E+03  0.90265956209E+02 0.  0.
         23    2    3    3    0    0 -0.13581767793E+02  0.46686986788E+02 -0.69066481917E+02  0.12196807175E+03  0.87988024476E+02 0.  0.
        -15    1    4    4    0    0  0.35529691446E+02  0.41028266914E+02 -0.73369226097E+02  0.91261826622E+02  0.00000000000E+00 0.  1.
        -15    1    5    5    0    0 -0.22645540337E+02  0.70524882677E+02 -0.58399044981E+02  0.94324058588E+02  0.00000000000E+00 0. -1.
         15    1    4    4    0    0 -0.25505168419E+02  0.10185691191E+02  0.11726550893E+02  0.29862583896E+02  0.00000000000E+00 0. -1.
         15    1    5    5    0    0  0.90637725440E+01 -0.23837895889E+02 -0.10667436936E+02  0.27644013166E+02  0.00000000000E+00 0.  1.
        -16    1    3    3    0    0 -0.46073666013E+03  0.21776065467E+03 -0.11151493423E+04  0.12260734188E+04  0.00000000000E+00 0.  1.
         16    1    1    2    0    0  0.50110516298E+03 -0.26466606187E+03 -0.10180840065E+04  0.11651821973E+04  0.00000000000E+00 0. -1.
    9900018    1    3    3    0    0 -0.36811258085E+02 -0.50995537699E+02 -0.19506486742E+03  0.22432363781E+03  0.91187600000E+02 0.  0.
<mgrwt>
<rscale>  0 0.14578364E+04</rscale>
<asrwt>0</asrwt>
<pdfrwt beam="1">  1        1 0.40905219E+00 0.14578364E+04</pdfrwt>
<pdfrwt beam="2">  1       -1 0.30743416E-01 0.14578364E+04</pdfrwt>
<totfact> 0.99932992E+00</totfact>
</mgrwt>
</event>
<event>
12    1  0.1660119E-010  0.1019738E+04  0.7818608E-02  0.9287158E-01
          1   -1    0    0  501    0  0.00000000000E+00  0.00000000000E+00  0.56955569864E+03  0.56955569864E+03  0.00000000000E+00 0. -1.
         -1   -1    0    0    0  501 -0.00000000000E+00 -0.00000000000E+00 -0.45643715311E+03  0.45643715311E+03  0.00000000000E+00 0.  1.
    9900016    2    1    2    0    0  0.11411084319E+03  0.14336244865E+03 -0.10653085117E+03  0.73995101270E+03  0.70894612118E+03 0.  0.
         23    2    3    3    0    0 -0.14891363767E+03  0.13524555860E+02  0.52205585733E+01  0.17375376085E+03  0.88345515349E+02 0.  0.
         23    2    3    3    0    0  0.55514954162E+02  0.30210559096E+02 -0.82179047059E+02  0.13876285721E+03  0.92234195123E+02 0.  0.
        -15    1    5    5    0    0 -0.17092135806E+02 -0.12153587911E+02 -0.38947359910E+02  0.44235140437E+02  0.00000000000E+00 0. -1.
        -15    1    4    4    0    0 -0.12238489592E+03 -0.55955297471E+01  0.37178771039E+02  0.12802981574E+03  0.00000000000E+00 0.  1.
         15    1    4    4    0    0 -0.26528741752E+02  0.19120085607E+02 -0.31958212465E+02  0.45723945111E+02  0.00000000000E+00 0. -1.
         15    1    5    5    0    0  0.72607089968E+02  0.42364147007E+02 -0.43231687150E+02  0.94527716777E+02  0.00000000000E+00 0.  1.
        -16    1    3    3    0    0 -0.46493112120E+02 -0.71700300390E+02  0.48656967515E+02  0.98336376984E+02  0.00000000000E+00 0.  1.
         16    1    1    2    0    0 -0.11411084319E+03 -0.14336244865E+03  0.21964939670E+03  0.28604183905E+03  0.00000000000E+00 0. -1.
    9900018    1    3    3    0    0  0.25400263882E+03  0.17132763408E+03 -0.78229330201E+02  0.32909801766E+03  0.91187600000E+02 0.  0.
<mgrwt>
<rscale>  0 0.10197380E+04</rscale>
<asrwt>0</asrwt>
<pdfrwt beam="1">  1        1 0.87623953E-01 0.10197380E+04</pdfrwt>
<pdfrwt beam="2">  1       -1 0.70221101E-01 0.10197380E+04</pdfrwt>
<totfact> 0.75809058E+01</totfact>
</mgrwt>
</event>
<event>
12    1  0.1660119E-010  0.8520382E+03  0.7818608E-02  0.9487605E-01
         -1   -1    0    0    0  501 -0.00000000000E+00  0.00000000000E+00  0.14415829878E+03  0.14415829878E+03  0.00000000000E+00 0.  1.
          1   -1    0    0  501    0  0.00000000000E+00 -0.00000000000E+00 -0.12589788848E+04  0.12589788848E+04  0.00000000000E+00 0. -1.
    9900016    2    1    2    0    0 -0.40438869268E+02  0.13175645833E+03 -0.95991349487E+03  0.11957938130E+04  0.69963837731E+03 0.  0.
         23    2    3    3    0    0 -0.56007425682E+02  0.16479297249E+03 -0.91511762423E+02  0.21752879490E+03  0.93009776027E+02 0.  0.
         23    2    3    3    0    0 -0.90031515133E+02  0.50599912067E+02 -0.14019575730E+03  0.19662228139E+03  0.91320569180E+02 0.  0.
        -15    1    4    4    0    0 -0.26975213503E+02  0.19742799683E+02  0.13569935943E+02  0.36077464495E+02  0.00000000000E+00 0.  1.
        -15    1    5    5    0    0 -0.67518790939E+02  0.24044495878E+02 -0.24408714988E+02  0.75714663569E+02  0.00000000000E+00 0. -1.
         15    1    4    4    0    0 -0.29032212179E+02  0.14505017281E+03 -0.10508169837E+03  0.18145133041E+03  0.00000000000E+00 0. -1.
         15    1    5    5    0    0 -0.22512724194E+02  0.26555416189E+02 -0.11578704231E+03  0.12090761782E+03  0.00000000000E+00 0.  1.
        -16    1    1    2    0    0  0.40438869268E+02 -0.13175645833E+03 -0.15490709118E+03  0.20734337066E+03  0.00000000000E+00 0.  1.
         16    1    3    3    0    0  0.76489630373E+02 -0.32839545205E+02 -0.62975942825E+03  0.63523699259E+03  0.00000000000E+00 0. -1.
    9900018    1    3    3    0    0  0.29110441174E+02 -0.50796881026E+02 -0.98446546896E+02  0.14640574407E+03  0.91187600000E+02 0.  0.
<mgrwt>
<rscale>  0 0.85203815E+03</rscale>
<asrwt>0</asrwt>
<pdfrwt beam="1">  1        1 0.19368905E+00 0.85203815E+03</pdfrwt>
<pdfrwt beam="2">  1       -1 0.22178200E-01 0.85203815E+03</pdfrwt>
<totfact> 0.16788663E+02</totfact>
</mgrwt>
</event>
<event>
12    1  0.1660119E-010  0.8888202E+03  0.7818608E-02  0.9439666E-01
         -1   -1    0    0    0  501 -0.00000000000E+00  0.00000000000E+00  0.12906199348E+03  0.12906199348E+03  0.00000000000E+00 0.  1.
          1   -1    0    0  501    0  0.00000000000E+00 -0.00000000000E+00 -0.15302750803E+04  0.15302750803E+04  0.00000000000E+00 0. -1.
    9900016    2    1    2    0    0  0.74632551164E+02 -0.62988495004E+02 -0.13840579919E+04  0.15601813101E+04  0.71345050777E+03 0.  0.
         23    2    3    3    0    0 -0.37824978380E+02  0.22549147662E+03 -0.54729303033E+03  0.59956428718E+03  0.87581609901E+02 0.  0.
         23    2    3    3    0    0 -0.17013306309E+02 -0.21167946036E+02 -0.26448115242E+03  0.27831352971E+03  0.82283694023E+02 0.  0.
        -15    1    5    5    0    0  0.10721101775E+02 -0.47293145473E+02 -0.15300732651E+03  0.16050802346E+03  0.00000000000E+00 0.  1.
        -15    1    4    4    0    0 -0.10432095144E+02  0.11215085032E+03 -0.37478563165E+03  0.39134500320E+03  0.00000000000E+00 0.  1.
         15    1    4    4    0    0 -0.27392883236E+02  0.11334062629E+03 -0.17250739868E+03  0.20821928398E+03  0.00000000000E+00 0. -1.
         15    1    5    5    0    0 -0.27734408084E+02  0.26125199436E+02 -0.11147382591E+03  0.11780550624E+03  0.00000000000E+00 0. -1.
        -16    1    1    2    0    0 -0.74632551164E+02  0.62988495004E+02 -0.17155094870E+02  0.99155763706E+02  0.00000000000E+00 0.  1.
         16    1    3    3    0    0 -0.13701824585E+02 -0.10880403649E+03 -0.73260643359E+02  0.13188320674E+03  0.00000000000E+00 0. -1.
    9900018    1    3    3    0    0  0.14317266044E+03 -0.15850798910E+03 -0.49902316583E+03  0.55042028645E+03  0.91187600000E+02 0.  0.
<mgrwt>
<rscale>  0 0.88882023E+03</rscale>
<asrwt>0</asrwt>
<pdfrwt beam="1">  1        1 0.23542694E+00 0.88882023E+03</pdfrwt>
<pdfrwt beam="2">  1       -1 0.19855691E-01 0.88882023E+03</pdfrwt>
<totfact> 0.13031626E+02</totfact>
</mgrwt>
</event>
<event>
12    1  0.1660119E-010  0.8196049E+03  0.7818608E-02  0.9532065E-01
         -2   -1    0    0    0  501 -0.00000000000E+00  0.00000000000E+00  0.10565801880E+03  0.10565801880E+03  0.00000000000E+00 0.  1.
          2   -1    0    0  501    0  0.00000000000E+00 -0.00000000000E+00 -0.15894491332E+04  0.15894491332E+04  0.00000000000E+00 0. -1.
    9900016    2    1    2    0    0 -0.98609236637E+02  0.24588726478E+02 -0.12152081075E+04  0.14079395726E+04  0.70372914447E+03 0.  0.
         23    2    3    3    0    0  0.63605539226E+02  0.20004464285E+03 -0.45087408977E+03  0.50577741069E+03  0.91977283014E+02 0.  0.
         23    2    3    3    0    0 -0.38726515911E+02 -0.35043496624E+02 -0.25863529194E+03  0.27891492113E+03  0.90407573255E+02 0.  0.
        -15    1    5    5    0    0 -0.30627214670E+02 -0.59481152406E+02 -0.11545694392E+03  0.13344039744E+03  0.00000000000E+00 0.  1.
        -15    1    4    4    0    0  0.71986010345E+02  0.10746052612E+03 -0.19945957511E+03  0.23772646563E+03  0.00000000000E+00 0.  1.
         15    1    4    4    0    0 -0.83804711190E+01  0.92584116730E+02 -0.25141451466E+03  0.26805094507E+03  0.00000000000E+00 0. -1.
         15    1    5    5    0    0 -0.80993012415E+01  0.24437655782E+02 -0.14317834802E+03  0.14547452369E+03  0.00000000000E+00 0. -1.
        -16    1    3    3    0    0 -0.20085140666E+03 -0.46988504219E+02 -0.23315552782E+03  0.31130484615E+03  0.00000000000E+00 0.  1.
         16    1    1    2    0    0  0.98609236637E+02 -0.24588726478E+02 -0.26858300698E+03  0.28716757940E+03  0.00000000000E+00 0. -1.
    9900018    1    3    3    0    0  0.77363146704E+02 -0.93423915529E+02 -0.27254319792E+03  0.31194239466E+03  0.91187600000E+02 0.  0.
<mgrwt>
<rscale>  0 0.81960490E+03</rscale>
<asrwt>0</asrwt>
<pdfrwt beam="1">  1        2 0.24453064E+00 0.81960490E+03</pdfrwt>
<pdfrwt beam="2">  1       -2 0.16255080E-01 0.81960490E+03</pdfrwt>
<totfact> 0.34893176E+02</totfact>
</mgrwt>
</event>
<event>
12    1  0.1660119E-010  0.8922503E+03  0.7818608E-02  0.9435321E-01
         -2   -1    0    0    0  501 -0.00000000000E+00  0.00000000000E+00  0.12833858048E+03  0.12833858048E+03  0.00000000000E+00 0. -1.
          2   -1    0    0  501    0  0.00000000000E+00 -0.00000000000E+00 -0.15508012495E+04  0.15508012495E+04  0.00000000000E+00 0.  1.
    9900016    2    1    2    0    0  0.10487816884E+03  0.80690378173E+02 -0.99897358426E+03  0.12354582185E+04  0.71477158606E+03 0.  0.
         23    2    3    3    0    0  0.30699362434E+02 -0.15615199865E+03 -0.19586068345E+03  0.27035301910E+03  0.96971387943E+02 0.  0.
         23    2    3    3    0    0  0.99543398147E+02  0.42213048980E+02 -0.21780416803E+03  0.25856357867E+03  0.87895614134E+02 0.  0.
        -15    1    5    5    0    0  0.26467052983E+02 -0.11581667776E+02 -0.12680114669E+03  0.13005064677E+03  0.00000000000E+00 0. -1.
        -15    1    4    4    0    0 -0.59507241388E+01 -0.12439601897E+03 -0.18086207220E+03  0.21959250856E+03  0.00000000000E+00 0. -1.
         15    1    4    4    0    0  0.36650086573E+02 -0.31755979689E+02 -0.14998611247E+02  0.50760510548E+02  0.00000000000E+00 0.  1.
         15    1    5    5    0    0  0.73076345164E+02  0.53794716756E+02 -0.91003021336E+02  0.12851293190E+03  0.00000000000E+00 0.  1.
        -16    1    1    2    0    0 -0.10487816884E+03 -0.80690378173E+02 -0.42348908480E+03  0.44368161149E+03  0.00000000000E+00 0.  1.
         16    1    3    3    0    0  0.13570425299E+03  0.14067266490E+03 -0.22617560868E+03  0.29893117752E+03  0.00000000000E+00 0. -1.
    9900018    1    3    3    0    0 -0.16106884472E+03  0.53956662947E+02 -0.35913312411E+03  0.40761044324E+03  0.91187600000E+02 0.  0.
<mgrwt>
<rscale>  0 0.89225026E+03</rscale>
<asrwt>0</asrwt>
<pdfrwt beam="1">  1        2 0.23858480E+00 0.89225026E+03</pdfrwt>
<pdfrwt beam="2">  1       -2 0.19744397E-01 0.89225026E+03</pdfrwt>
<totfact> 0.26072851E+02</totfact>
</mgrwt>
</event>
<event>
12    1  0.1660119E-010  0.1056347E+04  0.7818608E-02  0.9248815E-01
         -1   -1    0    0    0  501 -0.00000000000E+00  0.00000000000E+00  0.25389821193E+03  0.25389821193E+03  0.00000000000E+00 0.  1.
          1   -1    0    0  501    0  0.00000000000E+00 -0.00000000000E+00 -0.10987372669E+04  0.10987372669E+04  0.00000000000E+00 0. -1.
    9900016    2    1    2    0    0 -0.42339085522E+02 -0.18352855798E+03 -0.32433963428E+03  0.79910591622E+03  0.70561939968E+03 0.  0.
         23    2    3    3    0    0  0.78261637711E+01 -0.48784435553E+02  0.32404282189E+02  0.10811606445E+03  0.90542122223E+02 0.  0.
         23    2    3    3    0    0  0.21571348686E+02 -0.53173584117E+02 -0.10840800186E+03  0.15443991247E+03  0.93843692195E+02 0.  0.
        -15    1    5    5    0    0  0.14282362532E+02  0.25604301831E+02 -0.18443172615E+02  0.34636927806E+02  0.00000000000E+00 0.  1.
        -15    1    4    4    0    0  0.45039039463E+02 -0.84088002306E+01  0.32127845368E+01  0.45929783165E+02  0.00000000000E+00 0.  1.
         15    1    4    4    0    0 -0.37212875692E+02 -0.40375635323E+02  0.29191497652E+02  0.62186281286E+02  0.00000000000E+00 0. -1.
         15    1    5    5    0    0  0.72889861542E+01 -0.78777885948E+02 -0.89964829241E+02  0.11980298466E+03  0.00000000000E+00 0. -1.
        -16    1    3    3    0    0 -0.73477831824E+02  0.10330941987E+02  0.12280043885E+03  0.14347706407E+03  0.00000000000E+00 0.  1.
         16    1    1    2    0    0  0.42339085522E+02  0.18352855798E+03 -0.52049942065E+03  0.55352956259E+03  0.00000000000E+00 0. -1.
    9900018    1    3    3    0    0  0.17412338444E+01 -0.91901480296E+02 -0.37113635347E+03  0.39307287522E+03  0.91187600000E+02 0.  0.
<mgrwt>
<rscale>  0 0.10563473E+04</rscale>
<asrwt>0</asrwt>
<pdfrwt beam="1">  1        1 0.16903650E+00 0.10563473E+04</pdfrwt>
<pdfrwt beam="2">  1       -1 0.39061264E-01 0.10563473E+04</pdfrwt>
<totfact> 0.80701004E+01</totfact>
</mgrwt>
</event>
<event>
12    1  0.1660119E-010  0.1275590E+04  0.7818608E-02  0.9049150E-01
          2   -1    0    0  501    0  0.00000000000E+00  0.00000000000E+00  0.79125638940E+03  0.79125638940E+03  0.00000000000E+00 0. -1.
         -2   -1    0    0    0  501 -0.00000000000E+00 -0.00000000000E+00 -0.51409666184E+03  0.51409666184E+03  0.00000000000E+00 0.  1.
    9900016    2    1    2    0    0  0.21589095220E+03 -0.37411623662E+03  0.13110882480E+03  0.84938953521E+03  0.71951455638E+03 0.  0.
         23    2    3    3    0    0  0.20533556251E+03 -0.14999395525E+02  0.78520438372E+02  0.23844947070E+03  0.91131859051E+02 0.  0.
         23    2    3    3    0    0  0.26275342468E+02 -0.60725838711E+02  0.33022596533E+02  0.12228243864E+03  0.97388304275E+02 0.  0.
        -15    1    4    4    0    0  0.89669398810E+02 -0.47608141783E+02  0.56782229755E+02  0.11632436487E+03  0.00000000000E+00 0.  1.
        -15    1    5    5    0    0  0.31083028008E+02 -0.86260191911E+02  0.24014863857E+02  0.94782324432E+02  0.00000000000E+00 0. -1.
         15    1    4    4    0    0  0.11566616370E+03  0.32608746259E+02  0.21738208616E+02  0.12212510582E+03  0.00000000000E+00 0. -1.
         15    1    5    5    0    0 -0.48076855399E+01  0.25534353201E+02  0.90077326767E+01  0.27500114211E+02  0.00000000000E+00 0.  1.
        -16    1    3    3    0    0 -0.13701406849E+03 -0.30457818525E+03 -0.91041709483E+01  0.33410119997E+03  0.00000000000E+00 0.  1.
         16    1    1    2    0    0 -0.21589095220E+03  0.37411623662E+03  0.14605090276E+03  0.45596351602E+03  0.00000000000E+00 0. -1.
    9900018    1    3    3    0    0  0.12129411571E+03  0.61871828615E+01  0.28669960838E+02  0.15455642590E+03  0.91187600000E+02 0.  0.
<mgrwt>
<rscale>  0 0.12755897E+04</rscale>
<asrwt>0</asrwt>
<pdfrwt beam="1">  1        2 0.12173175E+00 0.12755897E+04</pdfrwt>
<pdfrwt beam="2">  1       -2 0.79091794E-01 0.12755897E+04</pdfrwt>
<totfact> 0.48691679E+01</totfact>
</mgrwt>
</event>
<event>
12    1  0.1660119E-010  0.9245561E+03  0.7818608E-02  0.9395395E-01
         -1   -1    0    0    0  501 -0.00000000000E+00  0.00000000000E+00  0.82526560659E+03  0.82526560659E+03  0.00000000000E+00 0.  1.
          1   -1    0    0  501    0  0.00000000000E+00 -0.00000000000E+00 -0.25894812847E+03  0.25894812847E+03  0.00000000000E+00 0. -1.
    9900016    2    1    2    0    0  0.13653410851E+03  0.17801596534E+02  0.30272952093E+03  0.78683002536E+03  0.71309036337E+03 0.  0.
         23    2    3    3    0    0  0.12103726751E+03 -0.48282383399E+02  0.19806021808E+03  0.25394808347E+03  0.90997639750E+02 0.  0.
         23    2    3    3    0    0 -0.11185282006E+02  0.21457119838E+01  0.29265350145E+02  0.95149365766E+02  0.89817740302E+02 0.  0.
        -15    1    4    4    0    0  0.13309778485E+03 -0.29058779795E+02  0.16863690242E+03  0.21678984725E+03  0.00000000000E+00 0.  1.
        -15    1    5    5    0    0 -0.33980802935E+02 -0.29896641501E+02 -0.14005773916E+01  0.45282068837E+02  0.00000000000E+00 0.  1.
         15    1    4    4    0    0 -0.12060517344E+02 -0.19223603605E+02  0.29423315666E+02  0.37158236219E+02  0.00000000000E+00 0. -1.
         15    1    5    5    0    0  0.22795520929E+02  0.32042353485E+02  0.30665927537E+02  0.49867296928E+02  0.00000000000E+00 0. -1.
        -16    1    1    2    0    0 -0.13653410851E+03 -0.17801596534E+02  0.26358795718E+03  0.29738370970E+03  0.00000000000E+00 0.  1.
         16    1    3    3    0    0 -0.82589083187E+02 -0.11661248225E+03 -0.76593238632E+02  0.16212942942E+03  0.00000000000E+00 0. -1.
    9900018    1    3    3    0    0  0.10927120620E+03  0.18055075020E+03  0.15199719134E+03  0.27560314670E+03  0.91187600000E+02 0.  0.
<mgrwt>
<rscale>  0 0.92455608E+03</rscale>
<asrwt>0</asrwt>
<pdfrwt beam="1">  1        1 0.39838174E-01 0.92455608E+03</pdfrwt>
<pdfrwt beam="2">  1       -1 0.12696394E+00 0.92455608E+03</pdfrwt>
<totfact> 0.57586833E+01</totfact>
</mgrwt>
</event>
<event>
12    1  0.1660119E-010  0.9101847E+03  0.7818608E-02  0.9412939E-01
          2   -1    0    0  501    0  0.00000000000E+00  0.00000000000E+00  0.17287123984E+03  0.17287123984E+03  0.00000000000E+00 0. -1.
         -2   -1    0    0    0  501 -0.00000000000E+00 -0.00000000000E+00 -0.11980538486E+04  0.11980538486E+04  0.00000000000E+00 0.  1.
    9900016    2    1    2    0    0  0.10274703900E+03 -0.97644718116E+02 -0.67051224023E+03  0.98897939163E+03  0.71302323088E+03 0.  0.
         23    2    3    3    0    0  0.42263793918E+02  0.39451741326E+00 -0.54426186129E+02  0.11607982445E+03  0.93412697139E+02 0.  0.
         23    2    3    3    0    0  0.61591303754E+02  0.18890307914E+03 -0.10783117728E+03  0.24325563038E+03  0.89821361114E+02 0.  0.
        -15    1    5    5    0    0  0.56825409163E+02  0.12363021105E+03 -0.11401304621E+03  0.17751769185E+03  0.00000000000E+00 0. -1.
        -15    1    4    4    0    0  0.48745676364E+02 -0.17850851241E+02  0.63458016717E+01  0.52297830290E+02  0.00000000000E+00 0. -1.
         15    1    4    4    0    0 -0.64818824459E+01  0.18245368654E+02 -0.60771987800E+02  0.63781994157E+02  0.00000000000E+00 0.  1.
         15    1    5    5    0    0  0.47658945913E+01  0.65272868088E+02  0.61818689321E+01  0.65737938537E+02  0.00000000000E+00 0.  1.
        -16    1    1    2    0    0 -0.10274703900E+03  0.97644718116E+02 -0.35467036848E+03  0.38194569676E+03  0.00000000000E+00 0.  1.
         16    1    3    3    0    0 -0.20966744972E+02 -0.27630739382E+03 -0.36327627767E+03  0.45689718121E+03  0.00000000000E+00 0. -1.
    9900018    1    3    3    0    0  0.19858686300E+02 -0.10634920847E+02 -0.14497859915E+03  0.17274675559E+03  0.91187600000E+02 0.  0.
<mgrwt>
<rscale>  0 0.91018472E+03</rscale>
<asrwt>0</asrwt>
<pdfrwt beam="1">  1        2 0.26595574E-01 0.91018472E+03</pdfrwt>
<pdfrwt beam="2">  1       -2 0.18431598E+00 0.91018472E+03</pdfrwt>
<totfact> 0.34733040E+01</totfact>
</mgrwt>
</event>
<event>
12    1  0.1660119E-010  0.1041571E+04  0.7818608E-02  0.9264090E-01
         -2   -1    0    0    0  501 -0.00000000000E+00  0.00000000000E+00  0.17165642649E+03  0.17165642649E+03  0.00000000000E+00 0. -1.
          2   -1    0    0  501    0  0.00000000000E+00 -0.00000000000E+00 -0.15800013314E+04  0.15800013314E+04  0.00000000000E+00 0.  1.
    9900016    2    1    2    0    0  0.27075009613E+03  0.29270911058E+02 -0.11007228115E+04  0.13408125886E+04  0.71555942392E+03 0.  0.
         23    2    3    3    0    0 -0.94016767704E+02  0.40133570719E+02 -0.20898435777E+03  0.24992781708E+03  0.91321387689E+02 0.  0.
         23    2    3    3    0    0 -0.49918258177E+02  0.15727263226E+01 -0.19670736744E+03  0.22218284081E+03  0.90427431549E+02 0.  0.
        -15    1    5    5    0    0 -0.62665083852E+02  0.31817503204E+02 -0.12748457351E+03  0.14557328989E+03  0.00000000000E+00 0. -1.
        -15    1    4    4    0    0 -0.63082220179E+02  0.35939574620E+02 -0.50597069153E+02  0.88493406158E+02  0.00000000000E+00 0.  1.
         15    1    4    4    0    0 -0.30934547524E+02  0.41939960999E+01 -0.15838728862E+03  0.16143441092E+03  0.00000000000E+00 0. -1.
         15    1    5    5    0    0  0.12746825675E+02 -0.30244776881E+02 -0.69222793926E+02  0.76609550921E+02  0.00000000000E+00 0.  1.
        -16    1    3    3    0    0 -0.41372463282E+02 -0.31984360744E+02 -0.43823745599E+02  0.68229031420E+02  0.00000000000E+00 0.  1.
         16    1    1    2    0    0 -0.27075009613E+03 -0.29270911058E+02 -0.30762209342E+03  0.41084516931E+03  0.00000000000E+00 0. -1.
    9900018    1    3    3    0    0  0.45605758529E+03  0.19548974759E+02 -0.65120734072E+03  0.80047289930E+03  0.91187600000E+02 0.  0.
<mgrwt>
<rscale>  0 0.10415707E+04</rscale>
<asrwt>0</asrwt>
<pdfrwt beam="1">  1        2 0.24307714E+00 0.10415707E+04</pdfrwt>
<pdfrwt beam="2">  1       -2 0.26408680E-01 0.10415707E+04</pdfrwt>
<totfact> 0.14790897E+02</totfact>
</mgrwt>
</event>
<event>
12    1  0.1660119E-010  0.9782474E+03  0.7818608E-02  0.9332730E-01
         -2   -1    0    0    0  501 -0.00000000000E+00  0.00000000000E+00  0.45886080159E+03  0.45886080159E+03  0.00000000000E+00 0.  1.
          2   -1    0    0  501    0  0.00000000000E+00 -0.00000000000E+00 -0.52138255727E+03  0.52138255727E+03  0.00000000000E+00 0. -1.
    9900016    2    1    2    0    0  0.15996935383E+03  0.76280455278E+02  0.71045191634E+02  0.75832213086E+03  0.73389109061E+03 0.  0.
         23    2    3    3    0    0  0.12876314681E+02 -0.16344479994E+02 -0.86854362957E+02  0.12720121260E+03  0.90573321764E+02 0.  0.
         23    2    3    3    0    0  0.32994570452E+01 -0.22830700624E+02  0.10468774160E+03  0.13935680566E+03  0.89043072345E+02 0.  0.
        -15    1    5    5    0    0 -0.58222396308E+01 -0.55235859444E+02  0.47915600831E+02  0.73353959988E+02  0.00000000000E+00 0. -1.
        -15    1    4    4    0    0  0.32568610847E+02 -0.46297842948E+01  0.43320295277E+01  0.33180051159E+02  0.00000000000E+00 0.  1.
         15    1    4    4    0    0 -0.19692296166E+02 -0.11714695699E+02 -0.91186392485E+02  0.94021161437E+02  0.00000000000E+00 0. -1.
         15    1    5    5    0    0  0.91216966760E+01  0.32405158820E+02  0.56772140774E+02  0.66002845669E+02  0.00000000000E+00 0.  1.
        -16    1    3    3    0    0 -0.13323144324E+02  0.24198695004E+03 -0.50072223204E+02  0.24747205439E+03  0.00000000000E+00 0.  1.
         16    1    1    2    0    0 -0.15996935383E+03 -0.76280455278E+02 -0.13356694731E+03  0.22192122800E+03  0.00000000000E+00 0. -1.
    9900018    1    3    3    0    0  0.15711672643E+03 -0.12653131415E+03  0.10328403619E+03  0.24429205822E+03  0.91187600000E+02 0.  0.
<mgrwt>
<rscale>  0 0.97824745E+03</rscale>
<asrwt>0</asrwt>
<pdfrwt beam="1">  1        2 0.80212701E-01 0.97824745E+03</pdfrwt>
<pdfrwt beam="2">  1       -2 0.70593970E-01 0.97824745E+03</pdfrwt>
<totfact> 0.10703646E+02</totfact>
</mgrwt>
</event>
<event>
12    1  0.1660119E-010  0.1412873E+04  0.7818608E-02  0.8944552E-01
          2   -1    0    0  501    0  0.00000000000E+00  0.00000000000E+00  0.86315770231E+03  0.86315770231E+03  0.00000000000E+00 0. -1.
         -2   -1    0    0    0  501 -0.00000000000E+00 -0.00000000000E+00 -0.57817113890E+03  0.57817113890E+03  0.00000000000E+00 0.  1.
    9900016    2    1    2    0    0  0.49306837904E+02  0.52050212309E+03  0.11391709840E+03  0.89122122786E+03  0.71270228517E+03 0.  0.
         23    2    3    3    0    0  0.10953443529E+03  0.23455508706E+03 -0.42444331431E+01  0.27449137273E+03  0.91179038770E+02 0.  0.
         23    2    3    3    0    0  0.98141568174E+02  0.13273435984E+03  0.10466525067E+03  0.21633325791E+03  0.92709687167E+02 0.  0.
        -15    1    5    5    0    0  0.64616310322E+01  0.84413029720E+02  0.58347362835E+02  0.10281890396E+03  0.00000000000E+00 0.  1.
        -15    1    4    4    0    0  0.25327234867E+02  0.13678752584E+03 -0.31447367874E+02  0.14262269454E+03  0.00000000000E+00 0. -1.
         15    1    4    4    0    0  0.84207200426E+02  0.97767561221E+02  0.27202934731E+02  0.13186867819E+03  0.00000000000E+00 0.  1.
         15    1    5    5    0    0  0.91679937142E+02  0.48321330121E+02  0.46317887833E+02  0.11351435395E+03  0.00000000000E+00 0. -1.
        -16    1    3    3    0    0 -0.27510859405E+01  0.18678028287E+03  0.82734780068E+02  0.20430243849E+03  0.00000000000E+00 0.  1.
         16    1    1    2    0    0 -0.49306837904E+02 -0.52050212309E+03  0.17106946501E+03  0.55010761334E+03  0.00000000000E+00 0. -1.
    9900018    1    3    3    0    0 -0.15561807962E+03 -0.33567606678E+02 -0.69238499192E+02  0.19609415873E+03  0.91187600000E+02 0.  0.
<mgrwt>
<rscale>  0 0.14128735E+04</rscale>
<asrwt>0</asrwt>
<pdfrwt beam="1">  1        2 0.13279349E+00 0.14128735E+04</pdfrwt>
<pdfrwt beam="2">  1       -2 0.88949406E-01 0.14128735E+04</pdfrwt>
<totfact> 0.32822607E+01</totfact>
</mgrwt>
</event>
<event>
12    1  0.1660119E-010  0.2813761E+04  0.7818608E-02  0.8299009E-01
          2   -1    0    0  501    0  0.00000000000E+00  0.00000000000E+00  0.26402067851E+04  0.26402067851E+04  0.00000000000E+00 0. -1.
         -2   -1    0    0    0  501 -0.00000000000E+00 -0.00000000000E+00 -0.74968082701E+03  0.74968082701E+03  0.00000000000E+00 0.  1.
    9900016    2    1    2    0    0 -0.69285087807E+03 -0.89202972700E+03  0.18214337038E+04  0.22582811820E+04  0.71165566559E+03 0.  0.
         23    2    3    3    0    0 -0.82269038206E+02 -0.13599088505E+03  0.13942443841E+03  0.22994106809E+03  0.90399144369E+02 0.  0.
         23    2    3    3    0    0 -0.20428096310E+03 -0.68078346255E+02  0.54245797210E+03  0.59053732475E+03  0.90046139890E+02 0.  0.
        -15    1    4    4    0    0 -0.23881152870E+02 -0.77185320439E+02  0.12026767805E+03  0.14488684391E+03  0.00000000000E+00 0.  1.
        -15    1    5    5    0    0 -0.15020527567E+03 -0.50446074555E+01  0.35549982518E+03  0.38596269069E+03  0.00000000000E+00 0.  1.
         15    1    4    4    0    0 -0.58387885336E+02 -0.58805564614E+02  0.19156760360E+02  0.85054224181E+02  0.00000000000E+00 0. -1.
         15    1    5    5    0    0 -0.54075687426E+02 -0.63033738800E+02  0.18695814692E+03  0.20457463406E+03  0.00000000000E+00 0. -1.
        -16    1    1    2    0    0  0.69285087807E+03  0.89202972700E+03  0.69092254263E+02  0.11316064301E+04  0.00000000000E+00 0.  1.
         16    1    3    3    0    0 -0.43158711977E+03 -0.62830027352E+03  0.95380543020E+03  0.12209723479E+04  0.00000000000E+00 0. -1.
    9900018    1    3    3    0    0  0.25286243003E+02 -0.59660222172E+02  0.18574586309E+03  0.21683044123E+03  0.91187600000E+02 0.  0.
<mgrwt>
<rscale>  0 0.28137608E+04</rscale>
<asrwt>0</asrwt>
<pdfrwt beam="1">  1        2 0.40618565E+00 0.28137608E+04</pdfrwt>
<pdfrwt beam="2">  1       -2 0.11533551E+00 0.28137608E+04</pdfrwt>
<totfact> 0.14659356E+00</totfact>
</mgrwt>
</event>
<event>
12    1  0.1660119E-010  0.1031496E+04  0.7818608E-02  0.9274659E-01
         -1   -1    0    0    0  501 -0.00000000000E+00  0.00000000000E+00  0.97692900318E+03  0.97692900318E+03  0.00000000000E+00 0.  1.
          1   -1    0    0  501    0  0.00000000000E+00 -0.00000000000E+00 -0.27227777502E+03  0.27227777502E+03  0.00000000000E+00 0. -1.
    9900016    2    1    2    0    0 -0.17851368259E+03 -0.86180096503E+02  0.73899585017E+03  0.10480260213E+04  0.71620495024E+03 0.  0.
         23    2    3    3    0    0 -0.77418353792E+02 -0.21668266417E+03  0.30208779378E+03  0.39001363194E+03  0.88930419420E+02 0.  0.
         23    2    3    3    0    0 -0.10506722666E+03 -0.40471729086E+02  0.11182506288E+03  0.18250145223E+03  0.90137963172E+02 0.  0.
        -15    1    4    4    0    0 -0.17916095332E+02 -0.13877159319E+01  0.56385255156E+01  0.18833618809E+02  0.00000000000E+00 0. -1.
        -15    1    5    5    0    0 -0.11689546560E+03 -0.23009076488E+02  0.10851755797E+03  0.16115218852E+03  0.00000000000E+00 0.  1.
         15    1    4    4    0    0 -0.59502258459E+02 -0.21529494824E+03  0.29644926826E+03  0.37118001313E+03  0.00000000000E+00 0.  1.
         15    1    5    5    0    0  0.11828238935E+02 -0.17462652598E+02  0.33075049047E+01  0.21349263705E+02  0.00000000000E+00 0. -1.
        -16    1    3    3    0    0 -0.11166362250E+03  0.15123947184E+03  0.23799624980E+03  0.30328923052E+03  0.00000000000E+00 0.  1.
         16    1    1    2    0    0  0.17851368259E+03  0.86180096503E+02 -0.34344622011E+02  0.20118075695E+03  0.00000000000E+00 0. -1.
    9900018    1    3    3    0    0  0.11563552037E+03  0.19734824915E+02  0.87086743709E+02  0.17222170655E+03  0.91187600000E+02 0.  0.
<mgrwt>
<rscale>  0 0.10314961E+04</rscale>
<asrwt>0</asrwt>
<pdfrwt beam="1">  1        1 0.41888889E-01 0.10314961E+04</pdfrwt>
<pdfrwt beam="2">  1       -1 0.15029677E+00 0.10314961E+04</pdfrwt>
<totfact> 0.34565834E+01</totfact>
</mgrwt>
</event>
<event>
12    1  0.1660119E-010  0.1261841E+04  0.7818608E-02  0.9060386E-01
         -2   -1    0    0    0  501 -0.00000000000E+00  0.00000000000E+00  0.19093325185E+03  0.19093325185E+03  0.00000000000E+00 0.  1.
          2   -1    0    0  501    0  0.00000000000E+00 -0.00000000000E+00 -0.20848143214E+04  0.20848143214E+04  0.00000000000E+00 0. -1.
    9900016    2    1    2    0    0  0.32270561736E+03  0.87240898370E+02 -0.17372790940E+04  0.19065943956E+04  0.71078382721E+03 0.  0.
         23    2    3    3    0    0  0.93880873259E+02  0.11479841860E+03 -0.68860954172E+03  0.70970920914E+03  0.86670440845E+02 0.  0.
         23    2    3    3    0    0  0.26211894266E+02 -0.96336629787E+02 -0.19416512756E+03  0.23625020659E+03  0.90256599296E+02 0.  0.
        -15    1    4    4    0    0 -0.15836732478E+02  0.14378231603E+02 -0.58633880627E+02  0.62413681168E+02  0.00000000000E+00 0. -1.
        -15    1    5    5    0    0 -0.15533109245E+01 -0.17622144895E+02  0.65559166103E+01  0.18866181599E+02  0.00000000000E+00 0.  1.
         15    1    4    4    0    0  0.10971760574E+03  0.10042018700E+03 -0.62997566109E+03  0.64729552797E+03  0.00000000000E+00 0. -1.
         15    1    5    5    0    0  0.27765205190E+02 -0.78714484892E+02 -0.20072104417E+03  0.21738402499E+03  0.00000000000E+00 0.  1.
        -16    1    1    2    0    0 -0.32270561736E+03 -0.87240898370E+02 -0.15660197554E+03  0.36915317765E+03  0.00000000000E+00 0.  1.
         16    1    3    3    0    0 -0.82776686954E+02  0.41152077891E+02 -0.57833220826E+02  0.10904198663E+03  0.00000000000E+00 0. -1.
    9900018    1    3    3    0    0  0.28538953679E+03  0.27627031663E+02 -0.79667120394E+03  0.85159299326E+03  0.91187600000E+02 0.  0.
<mgrwt>
<rscale>  0 0.12618405E+04</rscale>
<asrwt>0</asrwt>
<pdfrwt beam="1">  1        2 0.32074067E+00 0.12618405E+04</pdfrwt>
<pdfrwt beam="2">  1       -2 0.29374346E-01 0.12618405E+04</pdfrwt>
<totfact> 0.62899192E+01</totfact>
</mgrwt>
</event>
<event>
12    1  0.1660119E-010  0.1246220E+04  0.7818608E-02  0.9073336E-01
          2   -1    0    0  501    0  0.00000000000E+00  0.00000000000E+00  0.19465382459E+04  0.19465382459E+04  0.00000000000E+00 0. -1.
         -2   -1    0    0    0  501 -0.00000000000E+00 -0.00000000000E+00 -0.19946475250E+03  0.19946475250E+03  0.00000000000E+00 0.  1.
    9900016    2    1    2    0    0 -0.30966488017E+03 -0.23618995880E+03  0.14394684913E+04  0.16497179271E+04  0.70556478582E+03 0.  0.
         23    2    3    3    0    0 -0.86440311058E+01 -0.40966733724E+02  0.36494406771E+02  0.10613101647E+03  0.90437593869E+02 0.  0.
         23    2    3    3    0    0  0.77093487483E+02 -0.10512134493E+03  0.27955568051E+03  0.32157384863E+03  0.90909067983E+02 0.  0.
        -15    1    4    4    0    0  0.28710555463E+02  0.99228170810E+01 -0.47185604522E+01  0.30741228124E+02  0.00000000000E+00 0. -1.
        -15    1    5    5    0    0  0.95404648667E+02 -0.71232327537E+02  0.19201647695E+03  0.22593454560E+03  0.00000000000E+00 0.  1.
         15    1    4    4    0    0 -0.37354586569E+02 -0.50889550805E+02  0.41212967223E+02  0.75389788342E+02  0.00000000000E+00 0.  1.
         15    1    5    5    0    0 -0.18311161184E+02 -0.33889017390E+02  0.87539203562E+02  0.95639303029E+02  0.00000000000E+00 0. -1.
        -16    1    1    2    0    0  0.30966488017E+03  0.23618995880E+03  0.30760500211E+03  0.49628507128E+03  0.00000000000E+00 0.  1.
         16    1    3    3    0    0 -0.37174908889E+03 -0.78020272820E+02  0.98492859113E+03  0.10556367167E+04  0.00000000000E+00 0. -1.
    9900018    1    3    3    0    0 -0.63652476592E+01 -0.12081607332E+02  0.13848981290E+03  0.16637634533E+03  0.91187600000E+02 0.  0.
<mgrwt>
<rscale>  0 0.12462195E+04</rscale>
<asrwt>0</asrwt>
<pdfrwt beam="1">  1        2 0.29946741E+00 0.12462195E+04</pdfrwt>
<pdfrwt beam="2">  1       -2 0.30686886E-01 0.12462195E+04</pdfrwt>
<totfact> 0.69236400E+01</totfact>
</mgrwt>
</event>
<event>
12    1  0.1660119E-010  0.8617050E+03  0.7818608E-02  0.9474760E-01
         -2   -1    0    0    0  501 -0.00000000000E+00  0.00000000000E+00  0.36158051578E+03  0.36158051578E+03  0.00000000000E+00 0. -1.
          2   -1    0    0  501    0  0.00000000000E+00 -0.00000000000E+00 -0.51339568797E+03  0.51339568797E+03  0.00000000000E+00 0.  1.
    9900016    2    1    2    0    0  0.10081029649E+03  0.35356767257E+02 -0.43665725919E+02  0.72295936390E+03  0.71368811771E+03 0.  0.
         23    2    3    3    0    0  0.79633385748E+01  0.20022162449E+02  0.54993385816E+02  0.11359789127E+03  0.97035594844E+02 0.  0.
         23    2    3    3    0    0  0.40170188498E+02 -0.88092106709E+02 -0.88201405432E+02  0.15626178462E+03  0.85231415014E+02 0.  0.
        -15    1    5    5    0    0 -0.25641197741E+02 -0.11868332208E+02 -0.17916794948E+02  0.33456537062E+02  0.00000000000E+00 0.  1.
        -15    1    4    4    0    0 -0.14988496814E+02  0.54335357809E+02  0.42091925527E+02  0.70347113228E+02  0.00000000000E+00 0.  1.
         15    1    4    4    0    0  0.22951835388E+02 -0.34313195360E+02  0.12901460289E+02  0.43250778040E+02  0.00000000000E+00 0. -1.
         15    1    5    5    0    0  0.65811386239E+02 -0.76223774501E+02 -0.70284610484E+02  0.12280524756E+03  0.00000000000E+00 0. -1.
        -16    1    3    3    0    0  0.13529819768E+03 -0.10620055875E+03  0.85119315863E+02  0.19191002816E+03  0.00000000000E+00 0.  1.
         16    1    1    2    0    0 -0.10081029649E+03 -0.35356767257E+02 -0.10814944628E+03  0.15201683985E+03  0.00000000000E+00 0. -1.
    9900018    1    3    3    0    0 -0.82621428265E+02  0.20962727027E+03 -0.95577022167E+02  0.26118965985E+03  0.91187600000E+02 0.  0.
<mgrwt>
<rscale>  0 0.86170500E+03</rscale>
<asrwt>0</asrwt>
<pdfrwt beam="1">  1        2 0.78983952E-01 0.86170500E+03</pdfrwt>
<pdfrwt beam="2">  1       -2 0.55627772E-01 0.86170500E+03</pdfrwt>
<totfact> 0.18225043E+02</totfact>
</mgrwt>
</event>
<event>
12    1  0.1660119E-010  0.1038745E+04  0.7818608E-02  0.9267042E-01
          2   -1    0    0  501    0  0.00000000000E+00  0.00000000000E+00  0.72370207893E+03  0.72370207893E+03  0.00000000000E+00 0.  1.
         -2   -1    0    0    0  501 -0.00000000000E+00 -0.00000000000E+00 -0.37273337631E+03  0.37273337631E+03  0.00000000000E+00 0. -1.
    9900016    2    1    2    0    0  0.57277809666E+02  0.77837250237E+02 -0.13054635523E+02  0.71980250963E+03  0.71316607067E+03 0.  0.
         23    2    3    3    0    0 -0.25494973275E+02  0.46610707992E+02  0.36782577761E+02  0.10847059893E+03  0.87122678126E+02 0.  0.
         23    2    3    3    0    0  0.61995742474E+02  0.12540234644E+02 -0.25855086245E+01  0.11110548228E+03  0.91307249266E+02 0.  0.
        -15    1    5    5    0    0 -0.20480890911E+02  0.65459140031E+01 -0.16687592222E+02  0.27217487335E+02  0.00000000000E+00 0. -1.
        -15    1    4    4    0    0 -0.69332854243E+01 -0.76406463355E+01 -0.23261092353E+02  0.25446578172E+02  0.00000000000E+00 0. -1.
         15    1    4    4    0    0 -0.18561687850E+02  0.54251354327E+02  0.60043670114E+02  0.83024020759E+02  0.00000000000E+00 0.  1.
         15    1    5    5    0    0  0.82476633385E+02  0.59943206409E+01  0.14102083597E+02  0.83887994947E+02  0.00000000000E+00 0.  1.
        -16    1    1    2    0    0 -0.57277809666E+02 -0.77837250237E+02  0.36402333814E+03  0.37663294561E+03  0.00000000000E+00 0.  1.
         16    1    3    3    0    0  0.15272695313E+03 -0.95702222571E+02 -0.18620656476E+03  0.25914729861E+03  0.00000000000E+00 0. -1.
    9900018    1    3    3    0    0 -0.13194991266E+03  0.11438853017E+03  0.13895486010E+03  0.24107912980E+03  0.91187600000E+02 0.  0.
<mgrwt>
<rscale>  0 0.10387452E+04</rscale>
<asrwt>0</asrwt>
<pdfrwt beam="1">  1        2 0.11133878E+00 0.10387452E+04</pdfrwt>
<pdfrwt beam="2">  1       -2 0.57343597E-01 0.10387452E+04</pdfrwt>
<totfact> 0.11152104E+02</totfact>
</mgrwt>
</event>
<event>
12    1  0.1660119E-010  0.9941351E+03  0.7818608E-02  0.9315001E-01
          2   -1    0    0  501    0  0.00000000000E+00  0.00000000000E+00  0.67210739083E+03  0.67210739083E+03  0.00000000000E+00 0. -1.
         -2   -1    0    0    0  501 -0.00000000000E+00 -0.00000000000E+00 -0.36761412356E+03  0.36761412356E+03  0.00000000000E+00 0.  1.
    9900016    2    1    2    0    0 -0.24300816942E+03  0.22673278871E+02  0.26022236828E+03  0.79167522742E+03  0.70672974805E+03 0.  0.
         23    2    3    3    0    0 -0.16334200898E+03 -0.29173095399E+01  0.10605496195E+03  0.21499776413E+03  0.91034394784E+02 0.  0.
         23    2    3    3    0    0 -0.65454578675E+02 -0.28074391200E+02 -0.35261497387E+02  0.11975353316E+03  0.89582711473E+02 0.  0.
        -15    1    5    5    0    0 -0.63050831418E+02  0.17814296475E+02 -0.72057238733E+01  0.65914178732E+02  0.00000000000E+00 0. -1.
        -15    1    4    4    0    0 -0.27518948653E+02  0.20132348044E+02  0.61301112564E+02  0.70145779448E+02  0.00000000000E+00 0. -1.
         15    1    4    4    0    0 -0.13582306033E+03 -0.23049657584E+02  0.44753849389E+02  0.14485198468E+03  0.00000000000E+00 0.  1.
         15    1    5    5    0    0 -0.24037472570E+01 -0.45888687675E+02 -0.28055773513E+02  0.53839354425E+02  0.00000000000E+00 0.  1.
        -16    1    1    2    0    0  0.24300816942E+03 -0.22673278871E+02  0.44270898999E+02  0.24804628697E+03  0.00000000000E+00 0.  1.
         16    1    3    3    0    0  0.19079367360E+02  0.12873966501E+03  0.27707677001E+03  0.30612000929E+03  0.00000000000E+00 0. -1.
    9900018    1    3    3    0    0 -0.33290949123E+02 -0.75074685399E+02 -0.87647866303E+02  0.15080392085E+03  0.91187600000E+02 0.  0.
<mgrwt>
<rscale>  0 0.99413514E+03</rscale>
<asrwt>0</asrwt>
<pdfrwt beam="1">  1        2 0.10340114E+00 0.99413514E+03</pdfrwt>
<pdfrwt beam="2">  1       -2 0.56556019E-01 0.99413514E+03</pdfrwt>
<totfact> 0.12638707E+02</totfact>
</mgrwt>
</event>
<event>
12    1  0.1660119E-010  0.1097504E+04  0.7818608E-02  0.9207628E-01
          3   -1    0    0  501    0  0.00000000000E+00  0.00000000000E+00  0.26282345132E+03  0.26282345132E+03  0.00000000000E+00 0. -1.
         -3   -1    0    0    0  501 -0.00000000000E+00 -0.00000000000E+00 -0.11457449991E+04  0.11457449991E+04  0.00000000000E+00 0.  1.
    9900016    2    1    2    0    0 -0.63848792883E+02  0.27547089602E+03 -0.43538456692E+03  0.87918179386E+03  0.70953507499E+03 0.  0.
         23    2    3    3    0    0 -0.13452834744E+03  0.21952873076E+02  0.15273796630E+01  0.16391590050E+03  0.91029031886E+02 0.  0.
         23    2    3    3    0    0  0.23762732379E+02  0.19775880396E+02 -0.78211839355E+02  0.12388724841E+03  0.90968157103E+02 0.  0.
        -15    1    4    4    0    0 -0.87947216318E+02  0.20743181330E+02  0.44325906541E+02  0.10064680035E+03  0.00000000000E+00 0. -1.
        -15    1    5    5    0    0  0.38652133934E+02  0.22445893739E+02 -0.92717778594E+02  0.10292906329E+03  0.00000000000E+00 0.  1.
         15    1    4    4    0    0 -0.46581131120E+02  0.12096917457E+01 -0.42798526878E+02  0.63269100148E+02  0.00000000000E+00 0.  1.
         15    1    5    5    0    0 -0.14889401555E+02 -0.26700133428E+01  0.14505939239E+02  0.20958185111E+02  0.00000000000E+00 0. -1.
        -16    1    1    2    0    0  0.63848792883E+02 -0.27547089602E+03 -0.44753698089E+03  0.52938665659E+03  0.00000000000E+00 0.  1.
         16    1    3    3    0    0  0.47229881280E+02  0.32646781249E+03 -0.19830920748E+03  0.38488756287E+03  0.00000000000E+00 0. -1.
    9900018    1    3    3    0    0 -0.31305910422E+00 -0.92725669936E+02 -0.16039089974E+03  0.20649108210E+03  0.91187600000E+02 0.  0.
<mgrwt>
<rscale>  0 0.10975038E+04</rscale>
<asrwt>0</asrwt>
<pdfrwt beam="1">  1        3 0.40434378E-01 0.10975038E+04</pdfrwt>
<pdfrwt beam="2">  1       -3 0.17626846E+00 0.10975038E+04</pdfrwt>
<totfact> 0.33190570E+00</totfact>
</mgrwt>
</event>
<event>
12    1  0.1660119E-010  0.1451131E+04  0.7818608E-02  0.8917617E-01
          1   -1    0    0  501    0  0.00000000000E+00  0.00000000000E+00  0.10180669269E+04  0.10180669269E+04  0.00000000000E+00 0. -1.
         -1   -1    0    0    0  501 -0.00000000000E+00 -0.00000000000E+00 -0.51710264322E+03  0.51710264322E+03  0.00000000000E+00 0.  1.
    9900016    2    1    2    0    0  0.12513707848E+02  0.17113459869E+03 -0.25650090433E+03  0.75851188826E+03  0.69289532179E+03 0.  0.
         23    2    3    3    0    0 -0.47571888259E+02  0.19725179269E+03 -0.24079541735E+01  0.22311844971E+03  0.92761468757E+02 0.  0.
         23    2    3    3    0    0  0.12700038073E+03 -0.13091458459E+03 -0.23373224520E+03  0.31093283092E+03  0.93705590710E+02 0.  0.
        -15    1    5    5    0    0  0.43810029054E+02 -0.11102642521E+03 -0.14228059757E+03  0.18571471182E+03  0.00000000000E+00 0.  1.
        -15    1    4    4    0    0 -0.75107014585E+02  0.12610100834E+03 -0.35570475051E+01  0.14681682646E+03  0.00000000000E+00 0.  1.
         15    1    4    4    0    0  0.27535126326E+02  0.71150784353E+02  0.11490933315E+01  0.76301623255E+02  0.00000000000E+00 0. -1.
         15    1    5    5    0    0  0.83190351679E+02 -0.19888159380E+02 -0.91451647630E+02  0.12521811910E+03  0.00000000000E+00 0. -1.
        -16    1    3    3    0    0 -0.33402235600E+02  0.53099286907E+02 -0.78107573730E+02  0.10018002140E+03  0.00000000000E+00 0.  1.
         16    1    1    2    0    0 -0.12513707848E+02 -0.17113459869E+03  0.75746518796E+03  0.77665768182E+03  0.00000000000E+00 0. -1.
    9900018    1    3    3    0    0 -0.33512549026E+02  0.51698103685E+02  0.57746868776E+02  0.12428058623E+03  0.91187600000E+02 0.  0.
<mgrwt>
<rscale>  0 0.14511307E+04</rscale>
<asrwt>0</asrwt>
<pdfrwt beam="1">  1        1 0.15662568E+00 0.14511307E+04</pdfrwt>
<pdfrwt beam="2">  1       -1 0.79554253E-01 0.14511307E+04</pdfrwt>
<totfact> 0.22460617E+01</totfact>
</mgrwt>
</event>
<event>
12    1  0.1660119E-010  0.1185988E+04  0.7818608E-02  0.9125210E-01
          1   -1    0    0  501    0  0.00000000000E+00  0.00000000000E+00  0.70013496985E+03  0.70013496985E+03  0.00000000000E+00 0. -1.
         -1   -1    0    0    0  501 -0.00000000000E+00 -0.00000000000E+00 -0.50224882218E+03  0.50224882218E+03  0.00000000000E+00 0.  1.
    9900016    2    1    2    0    0 -0.28946573267E+03  0.16443232279E+03 -0.56860935660E+02  0.78318875910E+03  0.70662795530E+03 0.  0.
         23    2    3    3    0    0 -0.62328929872E+02 -0.49947632794E+02 -0.10019879013E+03  0.15487211207E+03  0.86982251260E+02 0.  0.
         23    2    3    3    0    0 -0.95515631681E+02  0.96706828398E+02  0.38545678528E+02  0.16913561678E+03  0.92981938983E+02 0.  0.
        -15    1    4    4    0    0 -0.47603797522E+02  0.15031153849E+02 -0.55462226650E+02  0.74619807756E+02  0.00000000000E+00 0.  1.
        -15    1    5    5    0    0 -0.70337146686E+02  0.61326446272E+01  0.14058180760E+02  0.71989971387E+02  0.00000000000E+00 0.  1.
         15    1    4    4    0    0 -0.14725132349E+02 -0.64978786644E+02 -0.44736563477E+02  0.80252304317E+02  0.00000000000E+00 0. -1.
         15    1    5    5    0    0 -0.25178484996E+02  0.90574183771E+02  0.24487497768E+02  0.97145645396E+02  0.00000000000E+00 0. -1.
        -16    1    3    3    0    0 -0.26951086506E+03  0.88725067569E+02  0.43208705889E+02  0.28701086437E+03  0.00000000000E+00 0.  1.
         16    1    1    2    0    0  0.28946573267E+03 -0.16443232279E+03  0.25474708333E+03  0.41919503293E+03  0.00000000000E+00 0. -1.
    9900018    1    3    3    0    0  0.13788969394E+03  0.28948059617E+02 -0.38416529949E+02  0.17217016588E+03  0.91187600000E+02 0.  0.
<mgrwt>
<rscale>  0 0.11859881E+04</rscale>
<asrwt>0</asrwt>
<pdfrwt beam="1">  1        1 0.10771307E+00 0.11859881E+04</pdfrwt>
<pdfrwt beam="2">  1       -1 0.77269049E-01 0.11859881E+04</pdfrwt>
<totfact> 0.45331814E+01</totfact>
</mgrwt>
</event>
<event>
12    1  0.1660119E-010  0.8012877E+03  0.7818608E-02  0.9558155E-01
         -2   -1    0    0    0  501 -0.00000000000E+00  0.00000000000E+00  0.22099048985E+03  0.22099048985E+03  0.00000000000E+00 0. -1.
          2   -1    0    0  501    0  0.00000000000E+00 -0.00000000000E+00 -0.72634564626E+03  0.72634564626E+03  0.00000000000E+00 0.  1.
    9900016    2    1    2    0    0 -0.72527871235E+02 -0.60378167139E+02 -0.42562172351E+03  0.82379166842E+03  0.69898000420E+03 0.  0.
         23    2    3    3    0    0 -0.59548188108E+02  0.60208582411E+02 -0.10233542391E+03  0.16071992845E+03  0.90483679817E+02 0.  0.
         23    2    3    3    0    0 -0.16412846133E+03 -0.71569460471E+02 -0.16566501642E+03  0.26124696022E+03  0.93513298879E+02 0.  0.
        -15    1    5    5    0    0 -0.95707480064E+02 -0.67029112842E+02 -0.50668938123E+02  0.12735841158E+03  0.00000000000E+00 0. -1.
        -15    1    4    4    0    0 -0.23409622841E+02  0.23892893472E+02 -0.10421585029E+03  0.10945238349E+03  0.00000000000E+00 0. -1.
         15    1    4    4    0    0 -0.36138565267E+02  0.36315688939E+02  0.18804263888E+01  0.51267544959E+02  0.00000000000E+00 0.  1.
         15    1    5    5    0    0 -0.68420981263E+02 -0.45403476292E+01 -0.11499607830E+03  0.13388854864E+03  0.00000000000E+00 0.  1.
        -16    1    3    3    0    0  0.16444721218E+02  0.12753313920E+03 -0.68953585833E+02  0.14590999777E+03  0.00000000000E+00 0.  1.
         16    1    1    2    0    0  0.72527871235E+02  0.60378167139E+02 -0.79733432901E+02  0.12354446768E+03  0.00000000000E+00 0. -1.
    9900018    1    3    3    0    0  0.13470405698E+03 -0.17655042828E+03 -0.88667697352E+02  0.25591478199E+03  0.91187600000E+02 0.  0.
<mgrwt>
<rscale>  0 0.80128766E+03</rscale>
<asrwt>0</asrwt>
<pdfrwt beam="1">  1        2 0.11174548E+00 0.80128766E+03</pdfrwt>
<pdfrwt beam="2">  1       -2 0.33998537E-01 0.80128766E+03</pdfrwt>
<totfact> 0.31806503E+02</totfact>
</mgrwt>
</event>
<event>
12    1  0.1660119E-010  0.1470085E+04  0.7818608E-02  0.8904593E-01
          2   -1    0    0  501    0  0.00000000000E+00  0.00000000000E+00  0.32015049094E+04  0.32015049094E+04  0.00000000000E+00 0. -1.
         -2   -1    0    0    0  501 -0.00000000000E+00 -0.00000000000E+00 -0.16876054136E+03  0.16876054136E+03  0.00000000000E+00 0.  1.
    9900016    2    1    2    0    0  0.22625205516E+03  0.48592873195E+03  0.15019512975E+04  0.17483393890E+04  0.71660044242E+03 0.  0.
         23    2    3    3    0    0 -0.63767986598E+01  0.15944193479E+03  0.35268509891E+03  0.39785892865E+03  0.91883371658E+02 0.  0.
         23    2    3    3    0    0  0.23868525963E+02  0.20091861040E+03  0.72013664768E+02  0.23260892203E+03  0.89347345560E+02 0.  0.
        -15    1    5    5    0    0  0.56338021940E+02  0.10142372192E+03  0.30035991912E+02  0.11984533739E+03  0.00000000000E+00 0.  1.
        -15    1    4    4    0    0 -0.28489643235E+02  0.14055359979E+03  0.22435255939E+03  0.26627250156E+03  0.00000000000E+00 0.  1.
         15    1    4    4    0    0  0.22112844575E+02  0.18888334999E+02  0.12833253952E+03  0.13158642709E+03  0.00000000000E+00 0. -1.
         15    1    5    5    0    0 -0.32469495977E+02  0.99494888477E+02  0.41977672856E+02  0.11276358464E+03  0.00000000000E+00 0. -1.
        -16    1    3    3    0    0 -0.21389765770E+02  0.20436645674E+02  0.11387574606E+03  0.11765570155E+03  0.00000000000E+00 0.  1.
         16    1    1    2    0    0 -0.22625205516E+03 -0.48592873195E+03  0.15307930706E+04  0.16219260618E+04  0.00000000000E+00 0. -1.
    9900018    1    3    3    0    0  0.23015009362E+03  0.10513154108E+03  0.96337678775E+03  0.10002158368E+04  0.91187600000E+02 0.  0.
<mgrwt>
<rscale>  0 0.14700853E+04</rscale>
<asrwt>0</asrwt>
<pdfrwt beam="1">  1        2 0.49253917E+00 0.14700853E+04</pdfrwt>
<pdfrwt beam="2">  1       -2 0.25963163E-01 0.14700853E+04</pdfrwt>
<totfact> 0.16954515E+01</totfact>
</mgrwt>
</event>
<event>
12    1  0.1660119E-010  0.1896501E+04  0.7818608E-02  0.8656600E-01
          2   -1    0    0  501    0  0.00000000000E+00  0.00000000000E+00  0.93893028172E+03  0.93893028172E+03  0.00000000000E+00 0. -1.
         -2   -1    0    0    0  501 -0.00000000000E+00 -0.00000000000E+00 -0.95766329979E+03  0.95766329979E+03  0.00000000000E+00 0.  1.
    9900016    2    1    2    0    0 -0.58233542636E+03 -0.50557957081E+03 -0.25454273436E+03  0.10901622617E+04  0.72728020879E+03 0.  0.
         23    2    3    3    0    0 -0.32008718440E+02  0.60467026397E+02 -0.42049909591E+02  0.12428787344E+03  0.94860219529E+02 0.  0.
         23    2    3    3    0    0 -0.57547191673E+02 -0.30345688994E+01  0.65386746368E+01  0.10716050741E+03  0.90109556677E+02 0.  0.
        -15    1    5    5    0    0 -0.26924555225E+02 -0.66481801911E+01 -0.41597607169E+02  0.49994908702E+02  0.00000000000E+00 0.  1.
        -15    1    4    4    0    0  0.26099964263E+02  0.47603531546E+02 -0.34430743675E+02  0.64286705160E+02  0.00000000000E+00 0.  1.
         15    1    4    4    0    0 -0.58108682704E+02  0.12863494850E+02 -0.76191659155E+01  0.60001168277E+02  0.00000000000E+00 0. -1.
         15    1    5    5    0    0 -0.30622636448E+02  0.36136112917E+01  0.48136281806E+02  0.57165598709E+02  0.00000000000E+00 0. -1.
        -16    1    3    3    0    0 -0.77106964961E+02 -0.21837538045E+03 -0.20755601546E+03  0.31098680098E+03  0.00000000000E+00 0.  1.
         16    1    1    2    0    0  0.58233542636E+03  0.50557957081E+03  0.23580971628E+03  0.80643131977E+03  0.00000000000E+00 0. -1.
    9900018    1    3    3    0    0 -0.41567255129E+03 -0.34463664786E+03 -0.11475483942E+02  0.54772707991E+03  0.91187600000E+02 0.  0.
<mgrwt>
<rscale>  0 0.18965011E+04</rscale>
<asrwt>0</asrwt>
<pdfrwt beam="1">  1        2 0.14445081E+00 0.18965011E+04</pdfrwt>
<pdfrwt beam="2">  1       -2 0.14733282E+00 0.18965011E+04</pdfrwt>
<totfact> 0.81258186E+00</totfact>
</mgrwt>
</event>
<event>
12    1  0.1660119E-010  0.9783309E+03  0.7818608E-02  0.9332636E-01
         -1   -1    0    0    0  501 -0.00000000000E+00  0.00000000000E+00  0.27014243847E+03  0.27014243847E+03  0.00000000000E+00 0.  1.
          1   -1    0    0  501    0  0.00000000000E+00 -0.00000000000E+00 -0.88576541168E+03  0.88576541168E+03  0.00000000000E+00 0. -1.
    9900016    2    1    2    0    0 -0.11519875731E+03  0.29408806090E+02 -0.23482953595E+03  0.75698520925E+03  0.70975070589E+03 0.  0.
         23    2    3    3    0    0 -0.45587910014E+01  0.30262011285E+02 -0.55235312642E+02  0.11414100335E+03  0.95082369456E+02 0.  0.
         23    2    3    3    0    0 -0.22541239277E+03 -0.12897952233E+03 -0.14417008761E+03  0.31087503812E+03  0.91715926473E+02 0.  0.
        -15    1    5    5    0    0 -0.91318237170E+02 -0.24921352394E+02 -0.11319043190E+02  0.95332129860E+02  0.00000000000E+00 0.  1.
        -15    1    4    4    0    0  0.26280913908E+02 -0.14536056409E+02 -0.51510577372E+02  0.59626528936E+02  0.00000000000E+00 0.  1.
         15    1    4    4    0    0 -0.30839704910E+02  0.44798067694E+02 -0.37247352700E+01  0.54514474416E+02  0.00000000000E+00 0. -1.
         15    1    5    5    0    0 -0.13409415560E+03 -0.10405816994E+03 -0.13285104442E+03  0.21554290826E+03  0.00000000000E+00 0. -1.
        -16    1    3    3    0    0 -0.15300651283E+02 -0.72240076200E+02 -0.91589682852E-01  0.73842717500E+02  0.00000000000E+00 0.  1.
         16    1    1    2    0    0  0.11519875731E+03 -0.29408806090E+02 -0.38079343726E+03  0.39892264090E+03  0.00000000000E+00 0. -1.
    9900018    1    3    3    0    0  0.13007307774E+03  0.20036639334E+03 -0.35332546014E+02  0.25812645028E+03  0.91187600000E+02 0.  0.
<mgrwt>
<rscale>  0 0.97833088E+03</rscale>
<asrwt>0</asrwt>
<pdfrwt beam="1">  1        1 0.13627160E+00 0.97833088E+03</pdfrwt>
<pdfrwt beam="2">  1       -1 0.41560375E-01 0.97833088E+03</pdfrwt>
<totfact> 0.10644351E+02</totfact>
</mgrwt>
</event>
<event>
12    1  0.1660119E-010  0.9986413E+03  0.7818608E-02  0.9310036E-01
          2   -1    0    0  501    0  0.00000000000E+00  0.00000000000E+00  0.13633076916E+04  0.13633076916E+04  0.00000000000E+00 0.  1.
         -2   -1    0    0    0  501 -0.00000000000E+00 -0.00000000000E+00 -0.18287955199E+03  0.18287955199E+03  0.00000000000E+00 0. -1.
    9900016    2    1    2    0    0 -0.73502570652E+02 -0.21535585098E+03  0.67824606454E+03  0.99485466976E+03  0.69133010888E+03 0.  0.
         23    2    3    3    0    0  0.94770914336E+01  0.14793537481E+02  0.11768452366E+02  0.90935854756E+02  0.88443027967E+02 0.  0.
         23    2    3    3    0    0 -0.12423323459E+03 -0.76785954039E+02  0.22451995060E+03  0.28359456084E+03  0.93202400216E+02 0.  0.
        -15    1    4    4    0    0  0.38775094020E+02 -0.20477780238E+02  0.11265622180E+01  0.43864752845E+02  0.00000000000E+00 0.  1.
        -15    1    5    5    0    0 -0.23801073287E+02 -0.25976594687E+02  0.13575090465E+03  0.14024828938E+03  0.00000000000E+00 0.  1.
         15    1    4    4    0    0 -0.29298002586E+02  0.35271317719E+02  0.10641890148E+02  0.47071101911E+02  0.00000000000E+00 0. -1.
         15    1    5    5    0    0 -0.10043216130E+03 -0.50809359352E+02  0.88769045947E+02  0.14334627146E+03  0.00000000000E+00 0. -1.
        -16    1    1    2    0    0  0.73502570652E+02  0.21535585098E+03  0.50218207510E+03  0.55133257385E+03  0.00000000000E+00 0.  1.
         16    1    3    3    0    0  0.16242041538E+03 -0.15286855131E+03  0.40790042024E+03  0.46489992272E+03  0.00000000000E+00 0. -1.
    9900018    1    3    3    0    0 -0.12116684288E+03 -0.49488310227E+00  0.34057241331E+02  0.15542433144E+03  0.91187600000E+02 0.  0.
<mgrwt>
<rscale>  0 0.99864128E+03</rscale>
<asrwt>0</asrwt>
<pdfrwt beam="1">  1        2 0.20973964E+00 0.99864128E+03</pdfrwt>
<pdfrwt beam="2">  1       -2 0.28135317E-01 0.99864128E+03</pdfrwt>
<totfact> 0.17500916E+02</totfact>
</mgrwt>
</event>
<event>
12    1  0.1660119E-010  0.7964889E+03  0.7818608E-02  0.9565113E-01
          1   -1    0    0  501    0  0.00000000000E+00  0.00000000000E+00  0.88619256081E+03  0.88619256081E+03  0.00000000000E+00 0. -1.
         -1   -1    0    0    0  501 -0.00000000000E+00 -0.00000000000E+00 -0.17896632686E+03  0.17896632686E+03  0.00000000000E+00 0.  1.
    9900016    2    1    2    0    0  0.31517294169E+02 -0.60830335065E+02  0.69043093024E+03  0.99461987915E+03  0.71265711605E+03 0.  0.
         23    2    3    3    0    0  0.20247418489E+03 -0.54541347726E+02  0.44962171009E+03  0.50453322313E+03  0.91779828353E+02 0.  0.
         23    2    3    3    0    0 -0.56809590076E+02  0.13829911164E+02  0.30173129697E+02  0.11159214326E+03  0.90132084820E+02 0.  0.
        -15    1    4    4    0    0  0.14597031601E+03 -0.62256532050E+02  0.39449214687E+03  0.42521437285E+03  0.00000000000E+00 0.  1.
        -15    1    5    5    0    0 -0.10353326044E+02 -0.35764521283E+02  0.21743500651E+02  0.43116959116E+02  0.00000000000E+00 0.  1.
         15    1    4    4    0    0  0.56503868879E+02  0.77151843236E+01  0.55129563224E+02  0.79318850274E+02  0.00000000000E+00 0. -1.
         15    1    5    5    0    0 -0.46456264032E+02  0.49594432447E+02  0.84296290451E+01  0.68475184143E+02  0.00000000000E+00 0. -1.
        -16    1    1    2    0    0 -0.31517294169E+02  0.60830335065E+02  0.16795303708E+02  0.70539008517E+02  0.00000000000E+00 0.  1.
         16    1    3    3    0    0 -0.48441286037E+02 -0.27101375877E+02  0.25236763547E+03  0.25839981850E+03  0.00000000000E+00 0. -1.
    9900018    1    3    3    0    0 -0.65706014609E+02  0.69824773739E+01 -0.41731545018E+02  0.12009469426E+03  0.91187600000E+02 0.  0.
<mgrwt>
<rscale>  0 0.79648886E+03</rscale>
<asrwt>0</asrwt>
<pdfrwt beam="1">  1        1 0.13633731E+00 0.79648886E+03</pdfrwt>
<pdfrwt beam="2">  1       -1 0.27533282E-01 0.79648886E+03</pdfrwt>
<totfact> 0.22360206E+02</totfact>
</mgrwt>
</event>
<event>
12    1  0.1892825E-010  0.1088401E+04  0.7818608E-02  0.9216572E-01
          1   -1    0    0  501    0  0.00000000000E+00  0.00000000000E+00  0.26492700045E+03  0.26492700045E+03  0.00000000000E+00 0. -1.
         -1   -1    0    0    0  501 -0.00000000000E+00 -0.00000000000E+00 -0.11178702817E+04  0.11178702817E+04  0.00000000000E+00 0.  1.
    9900016    2    1    2    0    0  0.37165246287E+02 -0.18789992284E+03 -0.92186375992E+03  0.11792348374E+04  0.70998195283E+03 0.  0.
         23    2    3    3    0    0 -0.92719120538E+01  0.19544006173E+02 -0.63232029822E+02  0.11275386498E+03  0.90814139544E+02 0.  0.
         23    2    3    3    0    0 -0.45987220839E+01  0.71504941421E+02 -0.11211123193E+03  0.16110362104E+03  0.90836906021E+02 0.  0.
        -15    1    5    5    0    0 -0.68726380405E+01  0.29605764260E+02  0.99906174846E+01  0.31992919041E+02  0.00000000000E+00 0. -1.
        -15    1    4    4    0    0 -0.32498350966E+02 -0.26363999459E+02 -0.26382480766E+02  0.49469572206E+02  0.00000000000E+00 0. -1.
         15    1    4    4    0    0  0.23226438912E+02  0.45908005632E+02 -0.36849549056E+02  0.63284292769E+02  0.00000000000E+00 0.  1.
         15    1    5    5    0    0  0.22739159566E+01  0.41899177162E+02 -0.12210184942E+03  0.12911070200E+03  0.00000000000E+00 0.  1.
        -16    1    3    3    0    0  0.24991319752E+02 -0.27278936761E+03 -0.76140727974E+03  0.80918455916E+03  0.00000000000E+00 0.  1.
         16    1    1    2    0    0 -0.37165246287E+02  0.18789992284E+03  0.68920478666E+02  0.20356244475E+03  0.00000000000E+00 0. -1.
    9900018    1    3    3    0    0  0.26044560672E+02 -0.61595028247E+01  0.14886781574E+02  0.96192792220E+02  0.91187600000E+02 0.  0.
<mgrwt>
<rscale>  0 0.10884007E+04</rscale>
<asrwt>0</asrwt>
<pdfrwt beam="1">  1        1 0.40758000E-01 0.10884007E+04</pdfrwt>
<pdfrwt beam="2">  1       -1 0.17198005E+00 0.10884007E+04</pdfrwt>
<totfact> 0.24475490E+01</totfact>
</mgrwt>
</event>
<event>
12    1  0.1660119E-010  0.1353962E+04  0.7818608E-02  0.8987834E-01
          2   -1    0    0  501    0  0.00000000000E+00  0.00000000000E+00  0.70660235405E+03  0.70660235405E+03  0.00000000000E+00 0. -1.
         -2   -1    0    0    0  501 -0.00000000000E+00 -0.00000000000E+00 -0.64860163817E+03  0.64860163817E+03  0.00000000000E+00 0.  1.
    9900016    2    1    2    0    0  0.26712204825E+03  0.13588657408E+03 -0.35134776618E+03  0.84787221771E+03  0.71107151194E+03 0.  0.
         23    2    3    3    0    0  0.76079131314E+02 -0.65977267199E+02 -0.18440521459E+03  0.22907316436E+03  0.91258958216E+02 0.  0.
         23    2    3    3    0    0  0.10020034984E+03  0.16046288579E+03 -0.12044594855E+03  0.24104557405E+03  0.88358895546E+02 0.  0.
        -15    1    4    4    0    0  0.46683036033E+02 -0.45640735138E+02 -0.32329681402E+02  0.72853214458E+02  0.00000000000E+00 0. -1.
        -15    1    5    5    0    0  0.84109238864E+02  0.15189942186E+03 -0.69653263452E+02  0.18708120037E+03  0.00000000000E+00 0. -1.
         15    1    4    4    0    0  0.29396095281E+02 -0.20336532060E+02 -0.15207553319E+03  0.15621994990E+03  0.00000000000E+00 0.  1.
         15    1    5    5    0    0  0.16091110972E+02  0.85634639350E+01 -0.50792685098E+02  0.53964373677E+02  0.00000000000E+00 0.  1.
        -16    1    3    3    0    0  0.14154390378E+03  0.89361645218E+01 -0.16431972285E+03  0.21706105835E+03  0.00000000000E+00 0.  1.
         16    1    1    2    0    0 -0.26712204825E+03 -0.13588657408E+03  0.40934848205E+03  0.50733177452E+03  0.00000000000E+00 0. -1.
    9900018    1    3    3    0    0 -0.50701336678E+02  0.32464790967E+02  0.11782311982E+03  0.16069242095E+03  0.91187600000E+02 0.  0.
<mgrwt>
<rscale>  0 0.13539623E+04</rscale>
<asrwt>0</asrwt>
<pdfrwt beam="1">  1        2 0.10870805E+00 0.13539623E+04</pdfrwt>
<pdfrwt beam="2">  1       -2 0.99784867E-01 0.13539623E+04</pdfrwt>
<totfact> 0.32832095E+01</totfact>
</mgrwt>
</event>
<event>
12    1  0.1660119E-010  0.8152261E+03  0.7818608E-02  0.9538236E-01
         -1   -1    0    0    0  501 -0.00000000000E+00  0.00000000000E+00  0.56899904886E+03  0.56899904886E+03  0.00000000000E+00 0.  1.
          1   -1    0    0  501    0  0.00000000000E+00 -0.00000000000E+00 -0.29200116286E+03  0.29200116286E+03  0.00000000000E+00 0. -1.
    9900016    2    1    2    0    0  0.11530956819E-01  0.31276661124E+01  0.14384127642E+03  0.72780687441E+03  0.71344428739E+03 0.  0.
         23    2    3    3    0    0 -0.26399892068E+02 -0.12432447801E+03  0.43075665612E+02  0.16378340749E+03  0.93893351560E+02 0.  0.
         23    2    3    3    0    0 -0.67732168958E+02  0.17270403611E+03 -0.82387156547E+02  0.22185760732E+03  0.89547884193E+02 0.  0.
        -15    1    4    4    0    0  0.29244816273E+02 -0.83646562941E+02  0.30528814626E+02  0.93723077698E+02  0.00000000000E+00 0.  1.
        -15    1    5    5    0    0 -0.27814765303E+00  0.86571008540E+02 -0.70813620144E+02  0.11184447096E+03  0.00000000000E+00 0. -1.
         15    1    4    4    0    0 -0.55644708341E+02 -0.40677915066E+02  0.12546850986E+02  0.70060329789E+02  0.00000000000E+00 0. -1.
         15    1    5    5    0    0 -0.67454021305E+02  0.86133027568E+02 -0.11573536403E+02  0.11001313637E+03  0.00000000000E+00 0.  1.
        -16    1    1    2    0    0 -0.11530956819E-01 -0.31276661124E+01  0.13315660958E+03  0.13319333730E+03  0.00000000000E+00 0.  1.
         16    1    3    3    0    0  0.93163945920E+01 -0.13430074491E+03  0.69612700116E+02  0.15155663400E+03  0.00000000000E+00 0. -1.
    9900018    1    3    3    0    0  0.84827197391E+02  0.89048852921E+02  0.11354006724E+03  0.19060922561E+03  0.91187600000E+02 0.  0.
<mgrwt>
<rscale>  0 0.81522606E+03</rscale>
<asrwt>0</asrwt>
<pdfrwt beam="1">  1        1 0.44923256E-01 0.81522606E+03</pdfrwt>
<pdfrwt beam="2">  1       -1 0.87538315E-01 0.81522606E+03</pdfrwt>
<totfact> 0.11802452E+02</totfact>
</mgrwt>
</event>
<event>
12    1  0.1660119E-010  0.1210313E+04  0.7818608E-02  0.9103878E-01
         -1   -1    0    0    0  501 -0.00000000000E+00  0.00000000000E+00  0.31757846388E+03  0.31757846388E+03  0.00000000000E+00 0.  1.
          1   -1    0    0  501    0  0.00000000000E+00 -0.00000000000E+00 -0.11531454097E+04  0.11531454097E+04  0.00000000000E+00 0. -1.
    9900016    2    1    2    0    0 -0.23184471905E+03 -0.29832969503E+03 -0.69312731107E+03  0.10669397354E+04  0.71776204204E+03 0.  0.
         23    2    3    3    0    0  0.37480773887E+02 -0.10558288535E+03 -0.11477459677E+03  0.18570426347E+03  0.93596534749E+02 0.  0.
         23    2    3    3    0    0 -0.22079050466E+02 -0.98630344611E+02 -0.16499878553E+03  0.21495145126E+03  0.93616760373E+02 0.  0.
        -15    1    5    5    0    0  0.34396185917E+02 -0.48148298617E+02 -0.51206181673E+02  0.78252343779E+02  0.00000000000E+00 0.  1.
        -15    1    4    4    0    0  0.52861120513E+02 -0.65443300767E+02 -0.27650724175E+02  0.88553295955E+02  0.00000000000E+00 0. -1.
         15    1    4    4    0    0 -0.15380346625E+02 -0.40139584583E+02 -0.87123872598E+02  0.97150967516E+02  0.00000000000E+00 0.  1.
         15    1    5    5    0    0 -0.56475236383E+02 -0.50482045994E+02 -0.11379260386E+03  0.13669910748E+03  0.00000000000E+00 0. -1.
        -16    1    1    2    0    0  0.23184471905E+03  0.29832969503E+03 -0.14243963478E+03  0.40378413818E+03  0.00000000000E+00 0.  1.
         16    1    3    3    0    0 -0.13831689017E+03  0.17020924975E+03 -0.13879405194E+03  0.25955064951E+03  0.00000000000E+00 0. -1.
    9900018    1    3    3    0    0 -0.10892955230E+03 -0.26432571482E+03 -0.27455987683E+03  0.40673337119E+03  0.91187600000E+02 0.  0.
<mgrwt>
<rscale>  0 0.12103126E+04</rscale>
<asrwt>0</asrwt>
<pdfrwt beam="1">  1        1 0.17740699E+00 0.12103126E+04</pdfrwt>
<pdfrwt beam="2">  1       -1 0.48858225E-01 0.12103126E+04</pdfrwt>
<totfact> 0.47978034E+01</totfact>
</mgrwt>
</event>
<event>
12    1  0.1660119E-010  0.8661470E+03  0.7818608E-02  0.9468918E-01
          2   -1    0    0  501    0  0.00000000000E+00  0.00000000000E+00  0.17819531806E+03  0.17819531806E+03  0.00000000000E+00 0. -1.
         -2   -1    0    0    0  501 -0.00000000000E+00 -0.00000000000E+00 -0.10525116948E+04  0.10525116948E+04  0.00000000000E+00 0.  1.
    9900016    2    1    2    0    0  0.43185514952E+01 -0.63155791615E+02 -0.91727612253E+03  0.11542031329E+04  0.69769770179E+03 0.  0.
         23    2    3    3    0    0 -0.21466588306E+03 -0.90319346470E+02 -0.35276414571E+03  0.43198621768E+03  0.89053489916E+02 0.  0.
         23    2    3    3    0    0 -0.33902003630E+02 -0.80933437784E+01 -0.16183177844E+03  0.18925737253E+03  0.91727751963E+02 0.  0.
        -15    1    4    4    0    0 -0.95551286815E+02 -0.76501285430E+02 -0.12719757257E+03  0.17652681822E+03  0.00000000000E+00 0.  1.
        -15    1    5    5    0    0  0.13108005746E+02 -0.21194639790E+02 -0.12669517140E+03  0.12912280599E+03  0.00000000000E+00 0.  1.
         15    1    4    4    0    0 -0.11911459624E+03 -0.13818061039E+02 -0.22556657315E+03  0.25545939946E+03  0.00000000000E+00 0. -1.
         15    1    5    5    0    0 -0.47010009376E+02  0.13101296011E+02 -0.35136607040E+02  0.60134566540E+02  0.00000000000E+00 0. -1.
        -16    1    3    3    0    0  0.16886539087E+03 -0.13118611186E+02 -0.35183480115E+03  0.39048091565E+03  0.00000000000E+00 0.  1.
         16    1    1    2    0    0 -0.43185514952E+01  0.63155791615E+02  0.42959745753E+02  0.76503880011E+02  0.00000000000E+00 0. -1.
    9900018    1    3    3    0    0  0.84021047316E+02  0.48375509819E+02 -0.50845397224E+02  0.14247862701E+03  0.91187600000E+02 0.  0.
<mgrwt>
<rscale>  0 0.86614700E+03</rscale>
<asrwt>0</asrwt>
<pdfrwt beam="1">  1        2 0.27414664E-01 0.86614700E+03</pdfrwt>
<pdfrwt beam="2">  1       -2 0.16192488E+00 0.86614700E+03</pdfrwt>
<totfact> 0.48339565E+01</totfact>
</mgrwt>
</event>
<event>
12    1  0.1660119E-010  0.1129163E+04  0.7818608E-02  0.9177225E-01
          2   -1    0    0  501    0  0.00000000000E+00  0.00000000000E+00  0.67913098096E+03  0.67913098096E+03  0.00000000000E+00 0. -1.
         -2   -1    0    0    0  501 -0.00000000000E+00 -0.00000000000E+00 -0.46935333929E+03  0.46935333929E+03  0.00000000000E+00 0.  1.
    9900016    2    1    2    0    0 -0.15552790671E+03 -0.77038351265E+02  0.44346981599E+03  0.85739005773E+03  0.71297152543E+03 0.  0.
         23    2    3    3    0    0  0.37702516589E+02  0.41647625473E+02  0.86139084511E+02  0.13668500242E+03  0.90038011652E+02 0.  0.
         23    2    3    3    0    0 -0.19278623291E+03  0.11679232907E+01  0.13160752962E+03  0.25034127256E+03  0.90456150975E+02 0.  0.
        -15    1    5    5    0    0 -0.73414598246E+01 -0.24453428490E+02  0.12213005719E+02  0.28302379864E+02  0.00000000000E+00 0.  1.
        -15    1    4    4    0    0  0.86550021456E+01  0.73007924239E+01 -0.19117563496E+02  0.22219177892E+02  0.00000000000E+00 0.  1.
         15    1    4    4    0    0  0.29047514443E+02  0.34346833050E+02  0.10525664801E+03  0.11446582453E+03  0.00000000000E+00 0. -1.
         15    1    5    5    0    0 -0.18544477308E+03  0.25621351781E+02  0.11939452391E+03  0.22203889269E+03  0.00000000000E+00 0. -1.
        -16    1    1    2    0    0  0.15552790671E+03  0.77038351265E+02 -0.23369217432E+03  0.29109426251E+03  0.00000000000E+00 0.  1.
         16    1    3    3    0    0  0.44996318837E+02 -0.76836913120E+02  0.31555975902E+03  0.32788190166E+03  0.00000000000E+00 0. -1.
    9900018    1    3    3    0    0 -0.45440509225E+02 -0.43016986909E+02 -0.89836557166E+02  0.14248188109E+03  0.91187600000E+02 0.  0.
<mgrwt>
<rscale>  0 0.11291632E+04</rscale>
<asrwt>0</asrwt>
<pdfrwt beam="1">  1        2 0.10448169E+00 0.11291632E+04</pdfrwt>
<pdfrwt beam="2">  1       -2 0.72208206E-01 0.11291632E+04</pdfrwt>
<totfact> 0.73307457E+01</totfact>
</mgrwt>
</event>
<event>
12    1  0.1660119E-010  0.8779239E+03  0.7818608E-02  0.9453606E-01
          2   -1    0    0  501    0  0.00000000000E+00  0.00000000000E+00  0.16908096698E+04  0.16908096698E+04  0.00000000000E+00 0. -1.
         -2   -1    0    0    0  501 -0.00000000000E+00 -0.00000000000E+00 -0.11396171800E+03  0.11396171800E+03  0.00000000000E+00 0.  1.
    9900016    2    1    2    0    0  0.14657613696E+03  0.41811682104E+02  0.14065315151E+04  0.15762096471E+04  0.69489075978E+03 0.  0.
         23    2    3    3    0    0  0.54453099309E+02 -0.65362876959E+02  0.49789865358E+02  0.13624600542E+03  0.94055821680E+02 0.  0.
         23    2    3    3    0    0  0.39832075163E+02  0.19225762348E+03  0.10660509450E+04  0.10876146880E+04  0.88834138958E+02 0.  0.
        -15    1    5    5    0    0 -0.26479989714E+02  0.62644335522E+02  0.41003907827E+03  0.41564112927E+03  0.00000000000E+00 0.  1.
        -15    1    4    4    0    0  0.32573590178E+02 -0.50323518314E+02  0.77428152110E+02  0.97921468595E+02  0.00000000000E+00 0. -1.
         15    1    4    4    0    0  0.21879509131E+02 -0.15039358645E+02 -0.27638286752E+02  0.38324536825E+02  0.00000000000E+00 0.  1.
         15    1    5    5    0    0  0.66312064877E+02  0.12961328796E+03  0.65601186675E+03  0.67197355877E+03  0.00000000000E+00 0. -1.
        -16    1    1    2    0    0 -0.14657613696E+03 -0.41811682104E+02  0.17031643665E+03  0.22856174063E+03  0.00000000000E+00 0.  1.
         16    1    3    3    0    0 -0.46666333499E+00 -0.77757516256E+02  0.19463979578E+03  0.20959746948E+03  0.00000000000E+00 0. -1.
    9900018    1    3    3    0    0  0.52757625821E+02 -0.73255481574E+01  0.96050908953E+02  0.14275148420E+03  0.91187600000E+02 0.  0.
<mgrwt>
<rscale>  0 0.87792386E+03</rscale>
<asrwt>0</asrwt>
<pdfrwt beam="1">  1        2 0.26012455E+00 0.87792386E+03</pdfrwt>
<pdfrwt beam="2">  1       -2 0.17532573E-01 0.87792386E+03</pdfrwt>
<totfact> 0.26842101E+02</totfact>
</mgrwt>
</event>
<event>
12    1  0.1660119E-010  0.9434562E+03  0.7818608E-02  0.9372832E-01
         -2   -1    0    0    0  501 -0.00000000000E+00  0.00000000000E+00  0.36345406029E+03  0.36345406029E+03  0.00000000000E+00 0. -1.
          2   -1    0    0  501    0  0.00000000000E+00 -0.00000000000E+00 -0.61225728951E+03  0.61225728951E+03  0.00000000000E+00 0.  1.
    9900016    2    1    2    0    0  0.86639790286E+02  0.15770314828E+03 -0.23931885121E+03  0.79552619597E+03  0.73702895444E+03 0.  0.
         23    2    3    3    0    0  0.18007431850E+02  0.11914631354E+03 -0.13647506753E+03  0.20362431951E+03  0.91199275250E+02 0.  0.
         23    2    3    3    0    0  0.12005162178E+03  0.21995727318E+02 -0.27999496017E+02  0.15334173564E+03  0.88507130786E+02 0.  0.
        -15    1    4    4    0    0 -0.25331163858E+02  0.20378140726E+02 -0.39416187594E+01  0.32748631121E+02  0.00000000000E+00 0.  1.
        -15    1    5    5    0    0  0.34964376028E+02  0.16248276416E+02  0.31141021473E+02  0.49560844383E+02  0.00000000000E+00 0. -1.
         15    1    4    4    0    0  0.43338595709E+02  0.98768172818E+02 -0.13253344877E+03  0.17087568839E+03  0.00000000000E+00 0. -1.
         15    1    5    5    0    0  0.85087245748E+02  0.57474509015E+01 -0.59140517490E+02  0.10378089126E+03  0.00000000000E+00 0.  1.
        -16    1    3    3    0    0 -0.82783599186E+02  0.20242395917E+03 -0.68127161095E+02  0.22906307782E+03  0.00000000000E+00 0.  1.
         16    1    1    2    0    0 -0.86639790286E+02 -0.15770314828E+03 -0.94843780080E+01  0.18018515384E+03  0.00000000000E+00 0. -1.
    9900018    1    3    3    0    0  0.31364335845E+02 -0.18586285175E+03 -0.67171265682E+01  0.20949706300E+03  0.91187600000E+02 0.  0.
<mgrwt>
<rscale>  0 0.94345619E+03</rscale>
<asrwt>0</asrwt>
<pdfrwt beam="1">  1        2 0.94193429E-01 0.94345619E+03</pdfrwt>
<pdfrwt beam="2">  1       -2 0.55916010E-01 0.94345619E+03</pdfrwt>
<totfact> 0.14560140E+02</totfact>
</mgrwt>
</event>
<event>
12    1  0.1660119E-010  0.1361716E+04  0.7818608E-02  0.8982006E-01
         -2   -1    0    0    0  501 -0.00000000000E+00  0.00000000000E+00  0.87048635587E+03  0.87048635587E+03  0.00000000000E+00 0.  1.
          2   -1    0    0  501    0  0.00000000000E+00 -0.00000000000E+00 -0.53253883514E+03  0.53253883514E+03  0.00000000000E+00 0. -1.
    9900016    2    1    2    0    0  0.14140575758E+03  0.10252655864E+03 -0.27242779105E+03  0.76815094777E+03  0.69665751537E+03 0.  0.
         23    2    3    3    0    0  0.74909536177E+02 -0.63222029372E+02 -0.30125941849E+02  0.13761873740E+03  0.91776254565E+02 0.  0.
         23    2    3    3    0    0  0.10578674802E+03 -0.49470466843E+02 -0.11647026933E+01  0.15005539541E+03  0.94218374079E+02 0.  0.
        -15    1    4    4    0    0  0.65182646908E+02 -0.53469204327E+02 -0.60833285622E+02  0.10396356049E+03  0.00000000000E+00 0. -1.
        -15    1    5    5    0    0  0.20319441359E+02 -0.52887037009E+02  0.23038948188E+02  0.61161356381E+02  0.00000000000E+00 0. -1.
         15    1    4    4    0    0  0.97268892691E+01 -0.97528250447E+01  0.30707343773E+02  0.33655176910E+02  0.00000000000E+00 0.  1.
         15    1    5    5    0    0  0.85467306660E+02  0.34165701667E+01 -0.24203650881E+02  0.88894039032E+02  0.00000000000E+00 0.  1.
        -16    1    1    2    0    0 -0.14140575758E+03 -0.10252655864E+03  0.61037531177E+03  0.63487424324E+03  0.00000000000E+00 0.  1.
         16    1    3    3    0    0  0.17214580821E+02  0.17849796176E+03  0.34333557474E+02  0.18258328870E+03  0.00000000000E+00 0. -1.
    9900018    1    3    3    0    0 -0.56505107436E+02  0.36721093093E+02 -0.27547070398E+03  0.29789352626E+03  0.91187600000E+02 0.  0.
<mgrwt>
<rscale>  0 0.13617163E+04</rscale>
<asrwt>0</asrwt>
<pdfrwt beam="1">  1        2 0.81929052E-01 0.13617163E+04</pdfrwt>
<pdfrwt beam="2">  1       -2 0.13392098E+00 0.13617163E+04</pdfrwt>
<totfact> 0.22464784E+01</totfact>
</mgrwt>
</event>
<event>
12    1  0.1660119E-010  0.1236341E+04  0.7818608E-02  0.9081629E-01
          2   -1    0    0  501    0  0.00000000000E+00  0.00000000000E+00  0.17213833234E+04  0.17213833234E+04  0.00000000000E+00 0.  1.
         -2   -1    0    0    0  501 -0.00000000000E+00 -0.00000000000E+00 -0.22199266858E+03  0.22199266858E+03  0.00000000000E+00 0. -1.
    9900016    2    1    2    0    0  0.17869720231E+03 -0.16056863265E+03  0.49563182296E+03  0.91126806717E+03  0.72597769278E+03 0.  0.
         23    2    3    3    0    0  0.16163759590E+03 -0.81817079965E+02  0.38033372492E+02  0.20623915103E+03  0.90924710679E+02 0.  0.
         23    2    3    3    0    0  0.63522330526E+02 -0.52223218380E+01  0.40404935931E+02  0.11867246170E+03  0.91587309152E+02 0.  0.
        -15    1    4    4    0    0  0.14094650327E+03 -0.39833526930E+02  0.86284658145E+00  0.14646969364E+03  0.00000000000E+00 0. -1.
        -15    1    5    5    0    0  0.26055526098E+02 -0.29386143974E+02  0.58580038698E+02  0.70526993639E+02  0.00000000000E+00 0. -1.
         15    1    4    4    0    0  0.20691092627E+02 -0.41983553035E+02  0.37170525911E+02  0.59769457384E+02  0.00000000000E+00 0.  1.
         15    1    5    5    0    0  0.37466804428E+02  0.24163822136E+02 -0.18175102767E+02  0.48145468062E+02  0.00000000000E+00 0.  1.
        -16    1    1    2    0    0 -0.17869720231E+03  0.16056863265E+03  0.10037588319E+04  0.10321079248E+04  0.00000000000E+00 0.  1.
         16    1    3    3    0    0  0.17071921375E+02  0.15280111842E+03  0.20843586760E+03  0.25900799832E+03  0.00000000000E+00 0. -1.
    9900018    1    3    3    0    0 -0.63534645488E+02 -0.22633034927E+03  0.20875764694E+03  0.32734845612E+03  0.91187600000E+02 0.  0.
<mgrwt>
<rscale>  0 0.12363405E+04</rscale>
<asrwt>0</asrwt>
<pdfrwt beam="1">  1        2 0.26482819E+00 0.12363405E+04</pdfrwt>
<pdfrwt beam="2">  1       -2 0.34152719E-01 0.12363405E+04</pdfrwt>
<totfact> 0.75401203E+01</totfact>
</mgrwt>
</event>
<event>
12    1  0.1660119E-010  0.9446045E+03  0.7818608E-02  0.9371479E-01
         -1   -1    0    0    0  501 -0.00000000000E+00  0.00000000000E+00  0.94614233440E+03  0.94614233440E+03  0.00000000000E+00 0.  1.
          1   -1    0    0  501    0  0.00000000000E+00 -0.00000000000E+00 -0.23576728137E+03  0.23576728137E+03  0.00000000000E+00 0. -1.
    9900016    2    1    2    0    0  0.13560250902E+03 -0.76675875477E+02  0.39938633180E+03  0.83408607565E+03  0.71548788196E+03 0.  0.
         23    2    3    3    0    0  0.10855778017E+03 -0.12054474161E+03 -0.56628770088E+02  0.19381836268E+03  0.89682293378E+02 0.  0.
         23    2    3    3    0    0 -0.10291692954E+03  0.10534891653E+03  0.24863639467E+03  0.30360985792E+03  0.93105319240E+02 0.  0.
        -15    1    5    5    0    0 -0.82004040643E+02  0.18385215387E+02  0.13459307323E+03  0.15867568871E+03  0.00000000000E+00 0.  1.
        -15    1    4    4    0    0  0.47575202115E+02 -0.10284867248E+03 -0.75617434327E+01  0.11357125187E+03  0.00000000000E+00 0.  1.
         15    1    4    4    0    0  0.60982578060E+02 -0.17696069127E+02 -0.49067026655E+02  0.80247110815E+02  0.00000000000E+00 0. -1.
         15    1    5    5    0    0 -0.20912888899E+02  0.86963701145E+02  0.11404332144E+03  0.14493416920E+03  0.00000000000E+00 0. -1.
        -16    1    1    2    0    0 -0.13560250902E+03  0.76675875477E+02  0.31098872123E+03  0.34782354012E+03  0.00000000000E+00 0.  1.
         16    1    3    3    0    0 -0.33117576455E+01 -0.83847377048E+02  0.13348086559E+03  0.15766575993E+03  0.00000000000E+00 0. -1.
    9900018    1    3    3    0    0  0.13327341603E+03  0.22367326644E+02  0.73897841628E+02  0.17899209511E+03  0.91187600000E+02 0.  0.
<mgrwt>
<rscale>  0 0.94460448E+03</rscale>
<asrwt>0</asrwt>
<pdfrwt beam="1">  1        1 0.36271890E-01 0.94460448E+03</pdfrwt>
<pdfrwt beam="2">  1       -1 0.14556036E+00 0.94460448E+03</pdfrwt>
<totfact> 0.45678140E+01</totfact>
</mgrwt>
</event>
<event>
12    1  0.1660119E-010  0.9766317E+03  0.7818608E-02  0.9334553E-01
          2   -1    0    0  501    0  0.00000000000E+00  0.00000000000E+00  0.13875435985E+04  0.13875435985E+04  0.00000000000E+00 0. -1.
         -2   -1    0    0    0  501 -0.00000000000E+00 -0.00000000000E+00 -0.17185216217E+03  0.17185216217E+03  0.00000000000E+00 0.  1.
    9900016    2    1    2    0    0 -0.21959547855E+03 -0.15477668499E+02  0.82228533199E+03  0.11085852735E+04  0.71017350625E+03 0.  0.
         23    2    3    3    0    0 -0.13102294475E+01 -0.55259198923E+02  0.14259263382E+03  0.17647249741E+03  0.88060134897E+02 0.  0.
         23    2    3    3    0    0 -0.50482159474E+01 -0.35744984354E+02  0.50751788696E+02  0.10975675535E+03  0.90374846599E+02 0.  0.
        -15    1    4    4    0    0  0.36516738144E+02 -0.55147192841E+02  0.91245503595E+02  0.11269617105E+03  0.00000000000E+00 0. -1.
        -15    1    5    5    0    0 -0.14377278229E+02  0.42655862204E+01  0.64664860054E+02  0.66381062668E+02  0.00000000000E+00 0. -1.
         15    1    4    4    0    0 -0.37826967592E+02 -0.11200608129E+00  0.51347130222E+02  0.63776326365E+02  0.00000000000E+00 0.  1.
         15    1    5    5    0    0  0.93290622811E+01 -0.40010570575E+02 -0.13913071359E+02  0.43375692679E+02  0.00000000000E+00 0.  1.
        -16    1    3    3    0    0 -0.29387272929E+03  0.18025778854E+03  0.30289317631E+03  0.45890993409E+03  0.00000000000E+00 0.  1.
         16    1    1    2    0    0  0.21959547855E+03  0.15477668499E+02  0.39340610433E+03  0.45081048717E+03  0.00000000000E+00 0. -1.
    9900018    1    3    3    0    0  0.80635696136E+02 -0.10473127376E+03  0.32604773317E+03  0.36344608664E+03  0.91187600000E+02 0.  0.
<mgrwt>
<rscale>  0 0.97663170E+03</rscale>
<asrwt>0</asrwt>
<pdfrwt beam="1">  1        2 0.21346824E+00 0.97663170E+03</pdfrwt>
<pdfrwt beam="2">  1       -2 0.26438795E-01 0.97663170E+03</pdfrwt>
<totfact> 0.19024351E+02</totfact>
</mgrwt>
</event>
<event>
12    1  0.1660119E-010  0.9722886E+03  0.7818608E-02  0.9339471E-01
         -2   -1    0    0    0  501 -0.00000000000E+00  0.00000000000E+00  0.19117232637E+03  0.19117232637E+03  0.00000000000E+00 0.  1.
          2   -1    0    0  501    0  0.00000000000E+00 -0.00000000000E+00 -0.12362473362E+04  0.12362473362E+04  0.00000000000E+00 0. -1.
    9900016    2    1    2    0    0  0.10525377521E+03  0.96305084245E+02 -0.10571121693E+04  0.12842487170E+04  0.71516124199E+03 0.  0.
         23    2    3    3    0    0  0.42446624576E+02  0.12968118334E+03 -0.41880281449E+03  0.44996289628E+03  0.91934135978E+02 0.  0.
         23    2    3    3    0    0  0.15251247114E+03  0.85802281251E+02 -0.19944790951E+03  0.28090908274E+03  0.92240765564E+02 0.  0.
        -15    1    4    4    0    0  0.25997824035E+02 -0.13617190105E+01 -0.12733036261E+03  0.12996446582E+03  0.00000000000E+00 0.  1.
        -15    1    5    5    0    0  0.14815043250E+03  0.61337128039E+02 -0.19963615406E+03  0.25605739187E+03  0.00000000000E+00 0.  1.
         15    1    4    4    0    0  0.16448800540E+02  0.13104290235E+03 -0.29147245188E+03  0.31999843047E+03  0.00000000000E+00 0. -1.
         15    1    5    5    0    0  0.43620386466E+01  0.24465153212E+02  0.18824454254E+00  0.24851690865E+02  0.00000000000E+00 0. -1.
        -16    1    1    2    0    0 -0.10525377521E+03 -0.96305084245E+02  0.12037159526E+02  0.14317094558E+03  0.00000000000E+00 0.  1.
         16    1    3    3    0    0 -0.96714616303E+02 -0.17543720652E+02 -0.39904347472E+03  0.41097103773E+03  0.00000000000E+00 0. -1.
    9900018    1    3    3    0    0  0.70092957930E+01 -0.10163465969E+03 -0.39817970618E+02  0.14240570022E+03  0.91187600000E+02 0.  0.
<mgrwt>
<rscale>  0 0.97228860E+03</rscale>
<asrwt>0</asrwt>
<pdfrwt beam="1">  1        2 0.19019190E+00 0.97228860E+03</pdfrwt>
<pdfrwt beam="2">  1       -2 0.29411127E-01 0.97228860E+03</pdfrwt>
<totfact> 0.19142660E+02</totfact>
</mgrwt>
</event>
<event>
12    1  0.1660119E-010  0.9450232E+03  0.7818608E-02  0.9370987E-01
         -4   -1    0    0    0  501 -0.00000000000E+00  0.00000000000E+00  0.30259721565E+03  0.30259721565E+03  0.00000000000E+00 0.  1.
          4   -1    0    0  501    0  0.00000000000E+00 -0.00000000000E+00 -0.73783628445E+03  0.73783628445E+03  0.00000000000E+00 0. -1.
    9900016    2    1    2    0    0 -0.98649024127E+02  0.73024229562E+02 -0.16760705543E+03  0.74600003963E+03  0.71649128817E+03 0.  0.
         23    2    3    3    0    0 -0.16850930092E+03  0.10721859214E+03 -0.10187455444E+03  0.24232001952E+03  0.91920378690E+02 0.  0.
         23    2    3    3    0    0 -0.85244115549E+02 -0.66800047883E+02  0.20469973683E+02  0.14286220401E+03  0.90894355596E+02 0.  0.
        -15    1    4    4    0    0 -0.11606994768E+03  0.62399655745E+02 -0.16883260340E+02  0.13285704449E+03  0.00000000000E+00 0. -1.
        -15    1    5    5    0    0 -0.97774155190E+02 -0.46148371638E+02  0.36222349512E+02  0.11402419143E+03  0.00000000000E+00 0.  1.
         15    1    4    4    0    0 -0.52439353240E+02  0.44818936393E+02 -0.84991294104E+02  0.10946297502E+03  0.00000000000E+00 0.  1.
         15    1    5    5    0    0  0.12530039640E+02 -0.20651676244E+02 -0.15752375830E+02  0.28838012576E+02  0.00000000000E+00 0. -1.
        -16    1    3    3    0    0  0.10722788744E+03  0.49684533071E+02  0.95042543840E+02  0.15165572133E+03  0.00000000000E+00 0.  1.
         16    1    1    2    0    0  0.98649024127E+02 -0.73024229562E+02 -0.26763201337E+03  0.29443346047E+03  0.00000000000E+00 0. -1.
    9900018    1    3    3    0    0  0.47876504898E+02 -0.17078847765E+02 -0.18124501851E+03  0.20916209477E+03  0.91187600000E+02 0.  0.
<mgrwt>
<rscale>  0 0.94502319E+03</rscale>
<asrwt>0</asrwt>
<pdfrwt beam="1">  1        4 0.11351327E+00 0.94502319E+03</pdfrwt>
<pdfrwt beam="2">  1       -4 0.46553418E-01 0.94502319E+03</pdfrwt>
<totfact> 0.54002838E+00</totfact>
</mgrwt>
</event>
<event>
12    1  0.1660119E-010  0.1018704E+04  0.7818608E-02  0.9288265E-01
          1   -1    0    0  501    0  0.00000000000E+00  0.00000000000E+00  0.77195085971E+03  0.77195085971E+03  0.00000000000E+00 0. -1.
         -1   -1    0    0    0  501 -0.00000000000E+00 -0.00000000000E+00 -0.33608275635E+03  0.33608275635E+03  0.00000000000E+00 0.  1.
    9900016    2    1    2    0    0 -0.25067909753E+03 -0.28750884683E+02  0.25877965575E+03  0.79976921398E+03  0.71344044046E+03 0.  0.
         23    2    3    3    0    0 -0.11972427812E+03  0.96595493306E+02  0.44384500372E+02  0.18764613337E+03  0.97859569777E+02 0.  0.
         23    2    3    3    0    0  0.16659212924E+02 -0.15022042527E+03  0.15053361109E+03  0.22746609548E+03  0.78973102887E+02 0.  0.
        -15    1    4    4    0    0 -0.58518010415E+02  0.56809081623E+02  0.72787227720E+02  0.10931427088E+03  0.00000000000E+00 0.  1.
        -15    1    5    5    0    0  0.29596857160E+02 -0.55754747376E+02  0.10330178803E+03  0.12106124574E+03  0.00000000000E+00 0. -1.
         15    1    4    4    0    0 -0.61206267710E+02  0.39786411682E+02 -0.28402727348E+02  0.78331862498E+02  0.00000000000E+00 0. -1.
         15    1    5    5    0    0 -0.12937644236E+02 -0.94465677896E+02  0.47231823057E+02  0.10640484974E+03  0.00000000000E+00 0.  1.
        -16    1    1    2    0    0  0.25067909753E+03  0.28750884683E+02  0.17708844761E+03  0.30826440207E+03  0.00000000000E+00 0.  1.
         16    1    3    3    0    0 -0.18243796666E+03 -0.76683054069E+02  0.12176570295E+03  0.23235918074E+03  0.00000000000E+00 0. -1.
    9900018    1    3    3    0    0  0.34823934333E+02  0.10155710135E+03 -0.57904158658E+02  0.15229780439E+03  0.91187600000E+02 0.  0.
<mgrwt>
<rscale>  0 0.10187038E+04</rscale>
<asrwt>0</asrwt>
<pdfrwt beam="1">  1        1 0.11876167E+00 0.10187038E+04</pdfrwt>
<pdfrwt beam="2">  1       -1 0.51705040E-01 0.10187038E+04</pdfrwt>
<totfact> 0.88222542E+01</totfact>
</mgrwt>
</event>
<event>
12    1  0.1660119E-010  0.1150054E+04  0.7818608E-02  0.9157734E-01
          1   -1    0    0  501    0  0.00000000000E+00  0.00000000000E+00  0.13859205332E+04  0.13859205332E+04  0.00000000000E+00 0. -1.
         -1   -1    0    0    0  501 -0.00000000000E+00 -0.00000000000E+00 -0.23858234140E+03  0.23858234140E+03  0.00000000000E+00 0.  1.
    9900016    2    1    2    0    0  0.40369898324E+02 -0.31475870124E+03  0.96392274126E+03  0.12579732084E+04  0.74340216123E+03 0.  0.
         23    2    3    3    0    0  0.32315998550E+02 -0.71525352449E+02  0.38214723902E+03  0.40021476803E+03  0.89303686690E+02 0.  0.
         23    2    3    3    0    0 -0.89534630235E+02 -0.16105287408E+03  0.21279505070E+03  0.29538345992E+03  0.89527518289E+02 0.  0.
        -15    1    4    4    0    0 -0.30253256777E+02 -0.15777542414E+02  0.88703320245E+02  0.95039304568E+02  0.00000000000E+00 0. -1.
        -15    1    5    5    0    0  0.11249505333E+02 -0.46103169264E+02  0.26364496843E+02  0.54287570218E+02  0.00000000000E+00 0.  1.
         15    1    4    4    0    0  0.62569255326E+02 -0.55747810035E+02  0.29344391877E+03  0.30517546346E+03  0.00000000000E+00 0.  1.
         15    1    5    5    0    0 -0.10078413557E+03 -0.11494970482E+03  0.18643055385E+03  0.24109588970E+03  0.00000000000E+00 0. -1.
        -16    1    1    2    0    0 -0.40369898324E+02  0.31475870124E+03  0.18341545059E+03  0.36652966621E+03  0.00000000000E+00 0.  1.
         16    1    3    3    0    0  0.12333395705E+03 -0.12267959795E+03  0.41465086731E+03  0.44966308552E+03  0.00000000000E+00 0. -1.
    9900018    1    3    3    0    0 -0.25745427040E+02  0.40499123244E+02 -0.45670415765E+02  0.11271189497E+03  0.91187600000E+02 0.  0.
<mgrwt>
<rscale>  0 0.11500542E+04</rscale>
<asrwt>0</asrwt>
<pdfrwt beam="1">  1        1 0.21321854E+00 0.11500542E+04</pdfrwt>
<pdfrwt beam="2">  1       -1 0.36704977E-01 0.11500542E+04</pdfrwt>
<totfact> 0.55576199E+01</totfact>
</mgrwt>
</event>
<event>
12    1  0.1660119E-010  0.1792587E+04  0.7818608E-02  0.8710252E-01
         -2   -1    0    0    0  501 -0.00000000000E+00  0.00000000000E+00  0.86009277724E+03  0.86009277724E+03  0.00000000000E+00 0.  1.
          2   -1    0    0  501    0  0.00000000000E+00 -0.00000000000E+00 -0.93401773913E+03  0.93401773913E+03  0.00000000000E+00 0. -1.
    9900016    2    1    2    0    0  0.42403736718E+03  0.36151537201E+03  0.45806768010E+03  0.10237098258E+04  0.72639848213E+03 0.  0.
         23    2    3    3    0    0  0.41113663204E+03  0.26005469787E+03  0.30646946081E+03  0.58204128332E+03  0.90480655377E+02 0.  0.
         23    2    3    3    0    0 -0.71664320202E+01  0.15387701411E+03 -0.27826325006E+02  0.18115056488E+03  0.91168687460E+02 0.  0.
        -15    1    5    5    0    0  0.96153581858E+01  0.61200964524E+02  0.31843364274E+02  0.69656392528E+02  0.00000000000E+00 0.  1.
        -15    1    4    4    0    0  0.35297036145E+03  0.25450185363E+03  0.28293749867E+03  0.51904999539E+03  0.00000000000E+00 0. -1.
         15    1    4    4    0    0  0.58166270592E+02  0.55528442411E+01  0.23531962144E+02  0.62991287938E+02  0.00000000000E+00 0.  1.
         15    1    5    5    0    0 -0.16781790206E+02  0.92676049583E+02 -0.59669689280E+02  0.11149417235E+03  0.00000000000E+00 0. -1.
        -16    1    3    3    0    0  0.63507852180E+01  0.50047332099E+02  0.39245926305E+02  0.63916434934E+02  0.00000000000E+00 0.  1.
         16    1    1    2    0    0 -0.42403736718E+03 -0.36151537201E+03 -0.53199264199E+03  0.77040069061E+03  0.00000000000E+00 0. -1.
    9900018    1    3    3    0    0  0.13716381945E+02 -0.10246367207E+03  0.14017861799E+03  0.19660154263E+03  0.91187600000E+02 0.  0.
<mgrwt>
<rscale>  0 0.17925869E+04</rscale>
<asrwt>0</asrwt>
<pdfrwt beam="1">  1        2 0.14369504E+00 0.17925869E+04</pdfrwt>
<pdfrwt beam="2">  1       -2 0.13232197E+00 0.17925869E+04</pdfrwt>
<totfact> 0.10910499E+01</totfact>
</mgrwt>
</event>
<event>
12    1  0.1660119E-010  0.1476039E+04  0.7818608E-02  0.8900545E-01
         -1   -1    0    0    0  501 -0.00000000000E+00  0.00000000000E+00  0.23155975034E+03  0.23155975034E+03  0.00000000000E+00 0.  1.
          1   -1    0    0  501    0  0.00000000000E+00 -0.00000000000E+00 -0.23521906856E+04  0.23521906856E+04  0.00000000000E+00 0. -1.
    9900016    2    1    2    0    0  0.22790562203E+02  0.50392297730E+03 -0.17504261448E+04  0.19580433450E+04  0.71797233628E+03 0.  0.
         23    2    3    3    0    0  0.39859181475E+02  0.70517966883E+01 -0.21246814579E+03  0.23438017114E+03  0.90293241525E+02 0.  0.
         23    2    3    3    0    0  0.15625572083E+03  0.14706167498E+03 -0.46798464343E+03  0.52313584351E+03  0.92835864524E+02 0.  0.
        -15    1    5    5    0    0  0.54643368023E+02  0.28678844742E+02 -0.23331958841E+03  0.24134291815E+03  0.00000000000E+00 0.  1.
        -15    1    4    4    0    0  0.57706934270E+02 -0.24453402685E+02 -0.13880180115E+03  0.15229576215E+03  0.00000000000E+00 0.  1.
         15    1    4    4    0    0 -0.17847752795E+02  0.31505199373E+02 -0.73666344636E+02  0.82084408991E+02  0.00000000000E+00 0. -1.
         15    1    5    5    0    0  0.10161235281E+03  0.11838283024E+03 -0.23466505502E+03  0.28179292537E+03  0.00000000000E+00 0. -1.
        -16    1    1    2    0    0 -0.22790562203E+02 -0.50392297730E+03 -0.37020479045E+03  0.62570709094E+03  0.00000000000E+00 0.  1.
         16    1    3    3    0    0 -0.20549204568E+03  0.26997697486E+02 -0.39150625168E+03  0.44298194276E+03  0.00000000000E+00 0. -1.
    9900018    1    3    3    0    0  0.32167705573E+02  0.32281180815E+03 -0.67846710395E+03  0.75754538762E+03  0.91187600000E+02 0.  0.
<mgrwt>
<rscale>  0 0.14760389E+04</rscale>
<asrwt>0</asrwt>
<pdfrwt beam="1">  1        1 0.36187551E+00 0.14760389E+04</pdfrwt>
<pdfrwt beam="2">  1       -1 0.35624575E-01 0.14760389E+04</pdfrwt>
<totfact> 0.12511465E+01</totfact>
</mgrwt>
</event>
<event>
12    1  0.1660119E-010  0.1164764E+04  0.7818608E-02  0.9144270E-01
          1   -1    0    0  501    0  0.00000000000E+00  0.00000000000E+00  0.13237575310E+04  0.13237575310E+04  0.00000000000E+00 0. -1.
         -1   -1    0    0    0  501 -0.00000000000E+00 -0.00000000000E+00 -0.25621679059E+03  0.25621679059E+03  0.00000000000E+00 0.  1.
    9900016    2    1    2    0    0  0.33637317759E+02  0.20630187816E+03  0.11376337690E+04  0.13595089802E+04  0.71439634721E+03 0.  0.
         23    2    3    3    0    0  0.27118110307E+02  0.31514841678E+02  0.12969562025E+03  0.16050417179E+03  0.84923837025E+02 0.  0.
         23    2    3    3    0    0 -0.15519465860E+03  0.87745583525E+02  0.32857104095E+03  0.38468693904E+03  0.90776883782E+02 0.  0.
        -15    1    5    5    0    0 -0.48390222478E+02 -0.11494926523E+02  0.51483950696E+02  0.71584524491E+02  0.00000000000E+00 0. -1.
        -15    1    4    4    0    0  0.36323137034E+02  0.84150357396E+01  0.10490149383E+02  0.38732755448E+02  0.00000000000E+00 0. -1.
         15    1    4    4    0    0 -0.92050267273E+01  0.23099805938E+02  0.11920547087E+03  0.12177141634E+03  0.00000000000E+00 0.  1.
         15    1    5    5    0    0 -0.10680443612E+03  0.99240510047E+02  0.27708709025E+03  0.31310241455E+03  0.00000000000E+00 0.  1.
        -16    1    1    2    0    0 -0.33637317759E+02 -0.20630187816E+03 -0.70093028593E+02  0.22046534135E+03  0.00000000000E+00 0.  1.
         16    1    3    3    0    0  0.17182809846E+03  0.20860850173E+03  0.55641911255E+03  0.61858276021E+03  0.00000000000E+00 0. -1.
    9900018    1    3    3    0    0 -0.10114232414E+02 -0.12156704878E+03  0.12294799519E+03  0.19573510917E+03  0.91187600000E+02 0.  0.
<mgrwt>
<rscale>  0 0.11647642E+04</rscale>
<asrwt>0</asrwt>
<pdfrwt beam="1">  1        1 0.20365500E+00 0.11647642E+04</pdfrwt>
<pdfrwt beam="2">  1       -1 0.39417969E-01 0.11647642E+04</pdfrwt>
<totfact> 0.53974000E+01</totfact>
</mgrwt>
</event>
<event>
12    1  0.1660119E-010  0.1727050E+04  0.7818608E-02  0.8746086E-01
          2   -1    0    0  501    0  0.00000000000E+00  0.00000000000E+00  0.16065650321E+04  0.16065650321E+04  0.00000000000E+00 0. -1.
         -2   -1    0    0    0  501 -0.00000000000E+00 -0.00000000000E+00 -0.46414257539E+03  0.46414257539E+03  0.00000000000E+00 0.  1.
    9900016    2    1    2    0    0 -0.21371152554E+03  0.68392045590E+03  0.71127251942E+03  0.12344599919E+04  0.71032602981E+03 0.  0.
         23    2    3    3    0    0 -0.68476826040E+02  0.96458510441E+02  0.84400512386E+02  0.17111191887E+03  0.90346678665E+02 0.  0.
         23    2    3    3    0    0 -0.15368794996E+02  0.58756460930E+02  0.69386189634E+02  0.12889384546E+03  0.90059194560E+02 0.  0.
        -15    1    4    4    0    0 -0.33727033939E+02 -0.79505684371E+01  0.38736105733E+02  0.51973168502E+02  0.00000000000E+00 0.  1.
        -15    1    5    5    0    0 -0.46148154727E+02  0.51071530987E+02  0.22759064907E+02  0.72497782707E+02  0.00000000000E+00 0.  1.
         15    1    4    4    0    0 -0.34749792102E+02  0.10440907888E+03  0.45664406653E+02  0.11913875036E+03  0.00000000000E+00 0. -1.
         15    1    5    5    0    0  0.30779359731E+02  0.76849299437E+01  0.46627124727E+02  0.56396062752E+02  0.00000000000E+00 0. -1.
        -16    1    3    3    0    0 -0.36155014777E+02  0.48350326894E+03  0.61626844090E+03  0.78413607710E+03  0.00000000000E+00 0.  1.
         16    1    1    2    0    0  0.21371152554E+03 -0.68392045590E+03  0.43114993729E+03  0.83624761558E+03  0.00000000000E+00 0. -1.
    9900018    1    3    3    0    0 -0.93710889728E+02  0.45202215587E+02 -0.58782623497E+02  0.15031815049E+03  0.91187600000E+02 0.  0.
<mgrwt>
<rscale>  0 0.17270498E+04</rscale>
<asrwt>0</asrwt>
<pdfrwt beam="1">  1        2 0.24716385E+00 0.17270498E+04</pdfrwt>
<pdfrwt beam="2">  1       -2 0.71406551E-01 0.17270498E+04</pdfrwt>
<totfact> 0.18684223E+01</totfact>
</mgrwt>
</event>
<event>
12    1  0.1660119E-010  0.8630681E+03  0.7818608E-02  0.9472963E-01
         -1   -1    0    0    0  501 -0.00000000000E+00  0.00000000000E+00  0.12350023718E+03  0.12350023718E+03  0.00000000000E+00 0.  1.
          1   -1    0    0  501    0  0.00000000000E+00 -0.00000000000E+00 -0.15078646328E+04  0.15078646328E+04  0.00000000000E+00 0. -1.
    9900016    2    1    2    0    0 -0.21169627618E+02  0.12189694478E+03 -0.12284870097E+04  0.14323553785E+04  0.72605411566E+03 0.  0.
         23    2    3    3    0    0 -0.13444320374E+01  0.11412924775E+03 -0.25943185975E+02  0.14751208398E+03  0.89774569510E+02 0.  0.
         23    2    3    3    0    0 -0.10758656105E+03  0.18256764199E+02 -0.45025181775E+03  0.47298436697E+03  0.95285541696E+02 0.  0.
        -15    1    4    4    0    0  0.94014962917E+01  0.54516563635E+02 -0.57007658271E+02  0.79437503389E+02  0.00000000000E+00 0.  1.
        -15    1    5    5    0    0  0.39175325267E+01 -0.23931703436E+02 -0.10376172757E+03  0.10655782279E+03  0.00000000000E+00 0. -1.
         15    1    4    4    0    0 -0.10745928329E+02  0.59612684115E+02  0.31064472296E+02  0.68074580586E+02  0.00000000000E+00 0. -1.
         15    1    5    5    0    0 -0.11150409357E+03  0.42188467636E+02 -0.34649009018E+03  0.36642654418E+03  0.00000000000E+00 0.  1.
        -16    1    1    2    0    0  0.21169627618E+02 -0.12189694478E+03 -0.15587738586E+03  0.19900949149E+03  0.00000000000E+00 0.  1.
         16    1    3    3    0    0 -0.45638845494E+02 -0.81472123711E+02 -0.46808995293E+03  0.47731416823E+03  0.00000000000E+00 0. -1.
    9900018    1    3    3    0    0  0.13340021096E+03  0.70983056543E+02 -0.28420205307E+03  0.33454475928E+03  0.91187600000E+02 0.  0.
<mgrwt>
<rscale>  0 0.86306811E+03</rscale>
<asrwt>0</asrwt>
<pdfrwt beam="1">  1        1 0.23197917E+00 0.86306811E+03</pdfrwt>
<pdfrwt beam="2">  1       -1 0.19000037E-01 0.86306811E+03</pdfrwt>
<totfact> 0.14556896E+02</totfact>
</mgrwt>
</event>
<event>
12    1  0.1660119E-010  0.9013852E+03  0.7818608E-02  0.9423851E-01
         -2   -1    0    0    0  501 -0.00000000000E+00  0.00000000000E+00  0.12517141030E+03  0.12517141030E+03  0.00000000000E+00 0.  1.
          2   -1    0    0  501    0  0.00000000000E+00 -0.00000000000E+00 -0.16227654143E+04  0.16227654143E+04  0.00000000000E+00 0. -1.
    9900016    2    1    2    0    0 -0.19348684435E+02 -0.10672655842E+03 -0.14649037014E+04  0.16346514074E+04  0.71720111517E+03 0.  0.
         23    2    3    3    0    0 -0.74652098506E+02  0.12411277208E+03 -0.49512745070E+03  0.52506439097E+03  0.97798293588E+02 0.  0.
         23    2    3    3    0    0  0.72896813709E+01 -0.29865237648E+03 -0.40513854722E+03  0.51145795059E+03  0.90584829558E+02 0.  0.
        -15    1    5    5    0    0  0.40074413554E+01 -0.28163327316E+03 -0.32773905362E+03  0.43214146689E+03  0.00000000000E+00 0. -1.
        -15    1    4    4    0    0 -0.57551167289E+02  0.10545086503E+03 -0.48161381357E+03  0.49637071551E+03  0.00000000000E+00 0. -1.
         15    1    4    4    0    0 -0.17100931218E+02  0.18661907048E+02 -0.13513637124E+02  0.28693675461E+02  0.00000000000E+00 0.  1.
         15    1    5    5    0    0  0.32822400155E+01 -0.17019103321E+02 -0.77399493595E+02  0.79316483697E+02  0.00000000000E+00 0.  1.
        -16    1    1    2    0    0  0.19348684435E+02  0.10672655842E+03 -0.32690302646E+02  0.11328541720E+03  0.00000000000E+00 0.  1.
         16    1    3    3    0    0  0.50094496658E+02  0.93006924294E+01 -0.38485025420E+03  0.38820829414E+03  0.00000000000E+00 0. -1.
    9900018    1    3    3    0    0 -0.20807639569E+01  0.58512353548E+02 -0.17978744924E+03  0.20992077171E+03  0.91187600000E+02 0.  0.
<mgrwt>
<rscale>  0 0.90138524E+03</rscale>
<asrwt>0</asrwt>
<pdfrwt beam="1">  1        2 0.24965622E+00 0.90138524E+03</pdfrwt>
<pdfrwt beam="2">  1       -2 0.19257140E-01 0.90138524E+03</pdfrwt>
<totfact> 0.24830715E+02</totfact>
</mgrwt>
</event>
<event>
12    1  0.1660119E-010  0.1065272E+04  0.7818608E-02  0.9239718E-01
          1   -1    0    0  501    0  0.00000000000E+00  0.00000000000E+00  0.57940214851E+03  0.57940214851E+03  0.00000000000E+00 0. -1.
         -1   -1    0    0    0  501 -0.00000000000E+00 -0.00000000000E+00 -0.48964412195E+03  0.48964412195E+03  0.00000000000E+00 0.  1.
    9900016    2    1    2    0    0  0.18949566671E+03 -0.17729987669E+03  0.21434186034E+03  0.78118348090E+03  0.70495485228E+03 0.  0.
         23    2    3    3    0    0  0.31886218768E+02  0.95714476872E+02  0.80787861453E+02  0.15792204822E+03  0.90745262824E+02 0.  0.
         23    2    3    3    0    0  0.14420181461E+03 -0.72170162004E+02 -0.16080203974E+02  0.18664806379E+03  0.92607943166E+02 0.  0.
        -15    1    5    5    0    0  0.51551939449E+02 -0.76554373649E+02 -0.17224409624E+02  0.93887458549E+02  0.00000000000E+00 0.  1.
        -15    1    4    4    0    0 -0.29930701197E+02  0.13875575848E+02  0.16616120921E+02  0.36938786576E+02  0.00000000000E+00 0. -1.
         15    1    4    4    0    0  0.61816919965E+02  0.81838901024E+02  0.64171740532E+02  0.12098326164E+03  0.00000000000E+00 0.  1.
         15    1    5    5    0    0  0.92649875156E+02  0.43842116451E+01  0.11442056498E+01  0.92760605241E+02  0.00000000000E+00 0. -1.
        -16    1    1    2    0    0 -0.18949566671E+03  0.17729987669E+03 -0.12458383379E+03  0.28786278957E+03  0.00000000000E+00 0.  1.
         16    1    3    3    0    0 -0.13830624982E+03 -0.18058005857E+03  0.11588924446E+03  0.25528042086E+03  0.00000000000E+00 0. -1.
    9900018    1    3    3    0    0  0.15171388316E+03 -0.20264132988E+02  0.33744958404E+02  0.18133294803E+03  0.91187600000E+02 0.  0.
<mgrwt>
<rscale>  0 0.10652715E+04</rscale>
<asrwt>0</asrwt>
<pdfrwt beam="1">  1        1 0.89138793E-01 0.10652715E+04</pdfrwt>
<pdfrwt beam="2">  1       -1 0.75329865E-01 0.10652715E+04</pdfrwt>
<totfact> 0.63754587E+01</totfact>
</mgrwt>
</event>
<event>
12    1  0.1660119E-010  0.1339992E+04  0.7818608E-02  0.8998438E-01
          2   -1    0    0  501    0  0.00000000000E+00  0.00000000000E+00  0.23081212239E+04  0.23081212239E+04  0.00000000000E+00 0. -1.
         -2   -1    0    0    0  501 -0.00000000000E+00 -0.00000000000E+00 -0.19448500342E+03  0.19448500342E+03  0.00000000000E+00 0.  1.
    9900016    2    1    2    0    0  0.12861733302E+03 -0.97793716012E+02  0.22018289096E+04  0.23185302113E+04  0.70811423104E+03 0.  0.
         23    2    3    3    0    0 -0.62569973943E+02 -0.14185067549E+03  0.30204174514E+03  0.35262173497E+03  0.95269388544E+02 0.  0.
         23    2    3    3    0    0  0.12414029079E+03 -0.25390822109E+02  0.49801631738E+03  0.52188284134E+03  0.91027150152E+02 0.  0.
        -15    1    4    4    0    0 -0.34615516917E+02 -0.51637189393E+02  0.39610817199E+02  0.73713297166E+02  0.00000000000E+00 0.  1.
        -15    1    5    5    0    0  0.67317107456E+02  0.27934831824E+02  0.30805138415E+03  0.31655584510E+03  0.00000000000E+00 0. -1.
         15    1    4    4    0    0 -0.27954457025E+02 -0.90213486096E+02  0.26243092794E+03  0.27890843781E+03  0.00000000000E+00 0. -1.
         15    1    5    5    0    0  0.56823183331E+02 -0.53325653933E+02  0.18996493323E+03  0.20532699625E+03  0.00000000000E+00 0.  1.
        -16    1    1    2    0    0 -0.12861733302E+03  0.97793716012E+02 -0.88192689169E+02  0.18407601600E+03  0.00000000000E+00 0.  1.
         16    1    3    3    0    0  0.48789183620E+02 -0.94702047947E+02  0.92765084337E+03  0.93374779760E+03  0.00000000000E+00 0. -1.
    9900018    1    3    3    0    0  0.18257832551E+02  0.16414982953E+03  0.47412000374E+03  0.51027783739E+03  0.91187600000E+02 0.  0.
<mgrwt>
<rscale>  0 0.13399925E+04</rscale>
<asrwt>0</asrwt>
<pdfrwt beam="1">  1        2 0.35509555E+00 0.13399925E+04</pdfrwt>
<pdfrwt beam="2">  1       -2 0.29920771E-01 0.13399925E+04</pdfrwt>
<totfact> 0.45303766E+01</totfact>
</mgrwt>
</event>
