<event>
12    1  0.8568730E-014  0.2786919E+04  0.7818608E-02  0.8307341E-01
         -2   -1    0    0    0  501 -0.00000000000E+00  0.00000000000E+00  0.71763401239E+03  0.71763401239E+03  0.00000000000E+00 0.  1.
          2   -1    0    0  501    0  0.00000000000E+00 -0.00000000000E+00 -0.27057368866E+04  0.27057368866E+04  0.00000000000E+00 0. -1.
        -24    2    1    2    0    0  0.80082378006E+02 -0.13963262626E+03  0.81178153024E+02  0.21144256663E+03  0.11048804854E+03 0.  0.
    9900016    2    1    2    0    0 -0.20221011881E+03  0.35608912415E+02 -0.13321119421E+04  0.22740885189E+04  0.18316111593E+04 0.  0.
         24    2    4    4    0    0 -0.81795164447E+03  0.23797828613E+03 -0.75260825632E+02  0.85995778990E+03  0.90469061945E+02 0.  0.
        -15    1    1    2    0    0 -0.35120283444E+02 -0.53050072966E+02  0.70638615339E+02  0.95066074537E+02  0.00000000000E+00 0.  1.
        -15    1    5    5    0    0 -0.52016280667E+03  0.14682541023E+03 -0.40982097020E+01  0.54050332271E+03  0.00000000000E+00 0.  1.
         15    1    3    3    0    0  0.26211942506E+02 -0.11012925534E+03  0.95805397170E+02  0.14830439285E+03  0.00000000000E+00 0. -1.
         15    1    4    4    0    0  0.61574152566E+03 -0.20236937371E+03 -0.12568511164E+04  0.14141307290E+04  0.00000000000E+00 0. -1.
        -16    1    3    3    0    0  0.53870435500E+02 -0.29503370915E+02 -0.14627244146E+02  0.63138173775E+02  0.00000000000E+00 0.  1.
         16    1    5    5    0    0 -0.29778883780E+03  0.91152875895E+02 -0.71162615930E+02  0.31945446719E+03  0.00000000000E+00 0. -1.
    9900018    1    1    2    0    0  0.15724802424E+03  0.15707378681E+03 -0.80780770050E+03  0.84277373892E+03  0.91187600000E+02 0.  0.
<mgrwt>
<rscale>  0 0.27869186E+04</rscale>
<asrwt>0</asrwt>
<pdfrwt beam="1">  1        2 0.41626720E+00 0.27869186E+04</pdfrwt>
<pdfrwt beam="2">  1       -2 0.11040523E+00 0.27869186E+04</pdfrwt>
<totfact> 0.14939851E+00</totfact>
</mgrwt>
</event>
<event>
12    1  0.8568730E-014  0.5286935E+04  0.7818608E-02  0.8177730E-01
          1   -1    0    0  501    0  0.00000000000E+00  0.00000000000E+00  0.31165291699E+04  0.31165291699E+04  0.00000000000E+00 0. -1.
         -1   -1    0    0    0  501 -0.00000000000E+00 -0.00000000000E+00 -0.29367902032E+04  0.29367902032E+04  0.00000000000E+00 0.  1.
        -24    2    1    2    0    0  0.40326192459E+03 -0.62276302204E+03  0.16749638547E+03  0.76636983102E+03  0.93881400227E+02 0.  0.
    9900016    2    1    2    0    0 -0.69047516653E+03 -0.72674231062E+03  0.14450250640E+04  0.25510542785E+04  0.18479367290E+04 0.  0.
         24    2    4    4    0    0 -0.63915065222E+03  0.52486489508E+03  0.42265009667E+03  0.93414198121E+03  0.99957103387E+02 0.  0.
        -15    1    1    2    0    0  0.96233147859E+03  0.11905652183E+04 -0.59001313860E+03  0.16406227224E+04  0.00000000000E+00 0.  1.
        -15    1    5    5    0    0 -0.36164628449E+03  0.34238227057E+03  0.29156338608E+03  0.57708133083E+03  0.00000000000E+00 0.  1.
         15    1    4    4    0    0 -0.51324514308E+02 -0.12516072057E+04  0.10223749674E+04  0.16169122973E+04  0.00000000000E+00 0. -1.
         15    1    3    3    0    0  0.34508244341E+03 -0.56085587938E+03  0.12105199552E+03  0.66954820275E+03  0.00000000000E+00 0. -1.
        -16    1    3    3    0    0  0.58179481182E+02 -0.61907142654E+02  0.46444389958E+02  0.96821628270E+02  0.00000000000E+00 0.  1.
         16    1    5    5    0    0 -0.27750436773E+03  0.18248262451E+03  0.13108671059E+03  0.35706065038E+03  0.00000000000E+00 0. -1.
    9900018    1    1    2    0    0 -0.67511823665E+03  0.15894011436E+03 -0.84276934422E+03  0.10952725411E+04  0.91187600000E+02 0.  0.
<mgrwt>
<rscale>  0 0.32423169E+04</rscale>
<asrwt>0</asrwt>
<pdfrwt beam="1">  1        1 0.47946603E+00 0.52869354E+04</pdfrwt>
<pdfrwt beam="2">  1       -1 0.45181388E+00 0.52869354E+04</pdfrwt>
<totfact> 0.10640247E-03</totfact>
</mgrwt>
</event>
<event>
12    1  0.8568730E-014  0.3686685E+04  0.7818608E-02  0.8865667E-01
         -1   -1    0    0    0  501 -0.00000000000E+00  0.00000000000E+00  0.13808923438E+04  0.13808923438E+04  0.00000000000E+00 0.  1.
          1   -1    0    0  501    0  0.00000000000E+00 -0.00000000000E+00 -0.26333300429E+04  0.26333300429E+04  0.00000000000E+00 0. -1.
         24    2    1    2    0    0  0.50335840168E+02  0.11309391259E+02 -0.10941432772E+03  0.15441035511E+03  0.95965949793E+02 0.  0.
    9900016    2    1    2    0    0 -0.35594747919E+03  0.11886506075E+03 -0.32208300509E+03  0.19060030692E+04  0.18407288576E+04 0.  0.
        -24    2    4    4    0    0 -0.76853386168E+03 -0.25477694937E+03  0.46758557601E+03  0.93987039574E+03  0.95731391985E+02 0.  0.
        -15    1    4    4    0    0  0.41258638249E+03  0.37364201012E+03 -0.78966858110E+03  0.96613267346E+03  0.00000000000E+00 0.  1.
        -15    1    3    3    0    0  0.48469902279E+02 -0.36317371514E+02 -0.69970453047E+02  0.92542677723E+02  0.00000000000E+00 0.  1.
         15    1    1    2    0    0  0.89291148086E+03 -0.37322545220E+03 -0.76636851958E+02  0.97080449005E+03  0.00000000000E+00 0. -1.
         15    1    5    5    0    0 -0.70786619317E+03 -0.20677366518E+03  0.41336655015E+03  0.84540037900E+03  0.00000000000E+00 0. -1.
        -16    1    5    5    0    0 -0.60667668516E+02 -0.48003284194E+02  0.54219025863E+02  0.94470016736E+02  0.00000000000E+00 0.  1.
         16    1    3    3    0    0  0.18659378893E+01  0.47626762773E+02 -0.39443874673E+02  0.61867677390E+02  0.00000000000E+00 0. -1.
    9900018    1    1    2    0    0 -0.58729984184E+03  0.24305100018E+03 -0.74430351433E+03  0.98300447240E+03  0.91187600000E+02 0.  0.
<mgrwt>
<rscale>  0 0.15285804E+04</rscale>
<asrwt>0</asrwt>
<pdfrwt beam="1">  1        1 0.40512770E+00 0.36866850E+04</pdfrwt>
<pdfrwt beam="2">  1       -1 0.21244498E+00 0.36866850E+04</pdfrwt>
<totfact> 0.10817741E-01</totfact>
</mgrwt>
</event>
<event>
12    1  0.8568731E-014  0.4725636E+04  0.7818608E-02  0.8378766E-01
          2   -1    0    0  501    0  0.00000000000E+00  0.00000000000E+00  0.38353073030E+04  0.38353073030E+04  0.00000000000E+00 0. -1.
         -2   -1    0    0    0  501 -0.00000000000E+00 -0.00000000000E+00 -0.20355964649E+04  0.20355964649E+04  0.00000000000E+00 0.  1.
         24    2    1    2    0    0  0.27643589370E+03  0.30226792113E+03 -0.47245088731E+03  0.62739825572E+03  0.51342291488E+02 0.  0.
    9900016    2    1    2    0    0 -0.77712860849E+03 -0.16784661473E+03  0.40156677409E+03  0.20439363486E+04  0.18396517505E+04 0.  0.
        -24    2    4    4    0    0 -0.13812576971E+04 -0.60607402191E+02  0.20260075521E+03  0.13989094646E+04  0.65988946425E+02 0.  0.
        -15    1    4    4    0    0  0.60412908865E+03 -0.10723921254E+03  0.19896601888E+03  0.64502688404E+03  0.00000000000E+00 0.  1.
        -15    1    3    3    0    0  0.22512796304E+03  0.21772647524E+03 -0.37463908585E+03  0.48830509153E+03  0.00000000000E+00 0.  1.
         15    1    1    2    0    0  0.12891080253E+04  0.41454346566E+03  0.17710690759E+04  0.22294240192E+04  0.00000000000E+00 0. -1.
         15    1    5    5    0    0 -0.11644577340E+04 -0.27108991841E+02  0.17284433929E+03  0.11775278670E+04  0.00000000000E+00 0. -1.
        -16    1    5    5    0    0 -0.21679996309E+03 -0.33498410350E+02  0.29756415913E+02  0.22138159766E+03  0.00000000000E+00 0.  1.
         16    1    3    3    0    0  0.51307930651E+02  0.84541445886E+02 -0.97811801453E+02  0.13909316419E+03  0.00000000000E+00 0. -1.
    9900018    1    1    2    0    0 -0.78841531048E+03 -0.54896477205E+03  0.99525875359E+02  0.97014514431E+03  0.91187600000E+02 0.  0.
<mgrwt>
<rscale>  0 0.25691229E+04</rscale>
<asrwt>0</asrwt>
<pdfrwt beam="1">  1        2 0.59004728E+00 0.47256355E+04</pdfrwt>
<pdfrwt beam="2">  1       -2 0.31316869E+00 0.47256355E+04</pdfrwt>
<totfact> 0.87617438E-03</totfact>
</mgrwt>
</event>
<event>
12    1  0.8568730E-014  0.3797957E+04  0.7818608E-02  0.8462206E-01
         -2   -1    0    0    0  501 -0.00000000000E+00  0.00000000000E+00  0.18471285122E+04  0.18471285122E+04  0.00000000000E+00 0.  1.
          2   -1    0    0  501    0  0.00000000000E+00 -0.00000000000E+00 -0.28265599632E+04  0.28265599632E+04  0.00000000000E+00 0. -1.
         24    2    1    2    0    0 -0.15705192223E+03 -0.52054474149E+03 -0.66691908139E+03  0.86289548369E+03  0.64617493704E+02 0.  0.
    9900016    2    1    2    0    0  0.26504739728E+03 -0.88878304092E+02 -0.84196324016E+02  0.18396207418E+04  0.18163055847E+04 0.  0.
        -24    2    4    4    0    0 -0.43399000211E+03  0.52626092801E+03 -0.47083130045E+03  0.83138655988E+03  0.64989323531E+02 0.  0.
        -15    1    4    4    0    0  0.69903739939E+03 -0.61513923210E+03  0.38663497643E+03  0.10082341819E+04  0.00000000000E+00 0.  1.
        -15    1    3    3    0    0 -0.14407060364E+03 -0.46488394848E+03 -0.62432276385E+03  0.79161375547E+03  0.00000000000E+00 0.  1.
         15    1    1    2    0    0  0.60227490783E+02  0.12240035589E+04 -0.42665017161E+03  0.12976295433E+04  0.00000000000E+00 0. -1.
         15    1    5    5    0    0 -0.17081099830E+03  0.15955142141E+03 -0.16754234471E+03  0.28758214563E+03  0.00000000000E+00 0. -1.
        -16    1    5    5    0    0 -0.26317900382E+03  0.36670950660E+03 -0.30328895574E+03  0.54380441425E+03  0.00000000000E+00 0.  1.
         16    1    3    3    0    0 -0.12981318591E+02 -0.55660793010E+02 -0.42596317533E+02  0.71281728222E+02  0.00000000000E+00 0. -1.
    9900018    1    1    2    0    0 -0.16822296583E+03 -0.61458051329E+03  0.19833412600E+03  0.67354270650E+03  0.91187600000E+02 0.  0.
<mgrwt>
<rscale>  0 0.23402803E+04</rscale>
<asrwt>0</asrwt>
<pdfrwt beam="1">  1        2 0.43485538E+00 0.37979572E+04</pdfrwt>
<pdfrwt beam="2">  1       -2 0.28417362E+00 0.37979572E+04</pdfrwt>
<totfact> 0.69064446E-02</totfact>
</mgrwt>
</event>
