<event>
13    1  0.3838938E-013  0.3748743E+04  0.7818608E-02  0.8057245E-01
          1   -1    0    0  501    0  0.00000000000E+00  0.00000000000E+00  0.13061636300E+04  0.13061636300E+04  0.00000000000E+00 0. -1.
         -1   -1    0    0    0  501 -0.00000000000E+00 -0.00000000000E+00 -0.26897611423E+04  0.26897611423E+04  0.00000000000E+00 0.  1.
    9900016    2    1    2    0    0 -0.10380101735E+03 -0.12200121602E+03 -0.22436264228E+03  0.17631668545E+04  0.17414820739E+04 0.  0.
        -24    2    3    3    0    0 -0.43090164515E+03  0.14108961221E+03  0.64824661619E+03  0.79483916075E+03  0.77221173184E+02 0.  0.
    9900016    2    1    2    0    0  0.10834756672E+03  0.11485444021E+03 -0.10939338242E+04  0.21202805756E+04  0.18094108903E+04 0.  0.
         23    2    5    5    0    0  0.36953864952E+03  0.25254148745E+03 -0.15283107284E+04  0.15950551006E+04  0.90172473457E+02 0.  0.
        -15    1    6    6    0    0  0.11724932429E+03  0.94374516529E+02 -0.37889143687E+03  0.40769188654E+03  0.00000000000E+00 0. -1.
        -15    1    3    3    0    0  0.32710062781E+03 -0.26309082823E+03 -0.87260925846E+03  0.96832769379E+03  0.00000000000E+00 0.  1.
         15    1    6    6    0    0  0.25228932523E+03  0.15816697092E+03 -0.11494192915E+04  0.11873632140E+04  0.00000000000E+00 0.  1.
         15    1    4    4    0    0 -0.16635096004E+03  0.38808387447E+02  0.30491240764E+03  0.34950008465E+03  0.00000000000E+00 0. -1.
        -16    1    4    4    0    0 -0.26455068512E+03  0.10228122476E+03  0.34333420855E+03  0.44533907609E+03  0.00000000000E+00 0.  1.
         16    1    5    5    0    0 -0.26119108280E+03 -0.13768704724E+03  0.43437690421E+03  0.52522547503E+03  0.00000000000E+00 0. -1.
    9900018    1    1    2    0    0 -0.45465493742E+01  0.71467758142E+01 -0.65301045898E+02  0.11247734218E+03  0.91187600000E+02 0.  0.
<mgrwt>
<rscale>  0 0.37487428E+04</rscale>
<asrwt>0</asrwt>
<pdfrwt beam="1">  1        1 0.20094825E+00 0.37487428E+04</pdfrwt>
<pdfrwt beam="2">  1       -1 0.41380940E+00 0.37487428E+04</pdfrwt>
<totfact> 0.41121346E-02</totfact>
</mgrwt>
</event>
<event>
13    1  0.3838938E-013  0.4291217E+04  0.7818608E-02  0.7948244E-01
          1   -1    0    0  501    0  0.00000000000E+00  0.00000000000E+00  0.18519430187E+04  0.18519430187E+04  0.00000000000E+00 0. -1.
         -1   -1    0    0    0  501 -0.00000000000E+00 -0.00000000000E+00 -0.24858408192E+04  0.24858408192E+04  0.00000000000E+00 0.  1.
    9900016    2    1    2    0    0  0.51536257511E+03  0.95576227199E+03  0.75339358414E+02  0.20359148889E+04  0.17205212325E+04 0.  0.
         24    2    3    3    0    0 -0.48599149000E+03  0.15648525081E+03  0.46639662842E+03  0.69633304790E+03  0.81722313543E+02 0.  0.
    9900016    2    1    2    0    0 -0.51536257511E+03 -0.95576227199E+03 -0.70923715882E+03  0.23018689490E+04  0.19017106001E+04 0.  0.
         23    2    5    5    0    0 -0.12524335403E+03  0.43311594525E+03 -0.63366857994E+03  0.78409592435E+03  0.99976145246E+02 0.  0.
        -15    1    4    4    0    0 -0.10741231996E+03  0.53370647639E+02  0.71436499096E+02  0.13960302973E+03  0.00000000000E+00 0.  1.
        -15    1    6    6    0    0 -0.39415212455E+02  0.76820035094E+02 -0.67199477593E+02  0.10941044993E+03  0.00000000000E+00 0. -1.
         15    1    3    3    0    0  0.10013540651E+04  0.79927702118E+03 -0.39105727000E+03  0.13395818410E+04  0.00000000000E+00 0. -1.
         15    1    6    6    0    0 -0.85828141574E+02  0.35629591016E+03 -0.56646910235E+03  0.67468547442E+03  0.00000000000E+00 0.  1.
        -16    1    5    5    0    0 -0.29009848979E+03 -0.13180599433E+04 -0.52707429309E+01  0.13496173267E+04  0.00000000000E+00 0.  1.
         16    1    4    4    0    0 -0.37857917004E+03  0.10311460317E+03  0.39496012932E+03  0.55673001817E+03  0.00000000000E+00 0. -1.
    9900018    1    5    5    0    0 -0.10002073130E+03 -0.70818273958E+02 -0.70297835946E+02  0.16815569793E+03  0.91187600000E+02 0.  0.
<mgrwt>
<rscale>  0 0.42912169E+04</rscale>
<asrwt>0</asrwt>
<pdfrwt beam="1">  1        1 0.28491431E+00 0.42912169E+04</pdfrwt>
<pdfrwt beam="2">  1       -1 0.38243705E+00 0.42912169E+04</pdfrwt>
<totfact> 0.27029858E-02</totfact>
</mgrwt>
</event>
<event>
13    1  0.3838938E-013  0.4570349E+04  0.7818608E-02  0.7898435E-01
          2   -1    0    0  501    0  0.00000000000E+00  0.00000000000E+00  0.16259576476E+04  0.16259576476E+04  0.00000000000E+00 0. -1.
         -2   -1    0    0    0  501 -0.00000000000E+00 -0.00000000000E+00 -0.32116599707E+04  0.32116599707E+04  0.00000000000E+00 0.  1.
    9900016    2    1    2    0    0  0.67111379657E+03  0.10316534085E+04 -0.15029259752E+03  0.21550118088E+04  0.17626075990E+04 0.  0.
         24    2    3    3    0    0 -0.14114520243E+03  0.36693155377E+03 -0.81743153643E+03  0.91135020318E+03  0.88341059364E+02 0.  0.
    9900016    2    1    2    0    0 -0.59346727874E+03 -0.97659227997E+03 -0.13745637471E+04  0.25374227488E+04  0.18008755701E+04 0.  0.
         23    2    5    5    0    0 -0.40080092719E+03 -0.22135128058E+00  0.35417513426E+03  0.54269002653E+03  0.91820514759E+02 0.  0.
        -15    1    4    4    0    0 -0.11155837057E+03  0.33763628854E+03 -0.67468707193E+03  0.76265731388E+03  0.00000000000E+00 0.  1.
        -15    1    6    6    0    0 -0.89426905383E+02  0.27221408871E+02  0.12004066902E+03  0.15214446663E+03  0.00000000000E+00 0. -1.
         15    1    3    3    0    0  0.81225899900E+03  0.66472185472E+03  0.66713893891E+03  0.12436616057E+04  0.00000000000E+00 0. -1.
         15    1    6    6    0    0 -0.31137402181E+03 -0.27442760152E+02  0.23413446523E+03  0.39054555989E+03  0.00000000000E+00 0.  1.
        -16    1    5    5    0    0 -0.19266635155E+03 -0.97637092869E+03 -0.17287388813E+04  0.19947327223E+04  0.00000000000E+00 0.  1.
         16    1    4    4    0    0 -0.29586831863E+02  0.29295265232E+02 -0.14274446449E+03  0.14869288930E+03  0.00000000000E+00 0. -1.
    9900018    1    1    2    0    0 -0.77646517834E+02 -0.55061128516E+02 -0.60845978471E+02  0.14518306063E+03  0.91187600000E+02 0.  0.
<mgrwt>
<rscale>  0 0.45703493E+04</rscale>
<asrwt>0</asrwt>
<pdfrwt beam="1">  1        2 0.25014733E+00 0.45703493E+04</pdfrwt>
<pdfrwt beam="2">  1       -2 0.49410153E+00 0.45703493E+04</pdfrwt>
<totfact> 0.14648616E-02</totfact>
</mgrwt>
</event>
