<event>
12    1  0.1474781E-006  0.3739117E+04  0.7818608E-02  0.8403020E-01
         -2   -1    0    0    0  501 -0.00000000000E+00  0.00000000000E+00  0.15913786002E+04  0.15913786002E+04  0.00000000000E+00 0.  1.
          2   -1    0    0  501    0  0.00000000000E+00 -0.00000000000E+00 -0.31816516775E+04  0.31816516775E+04  0.00000000000E+00 0. -1.
         24    2    1    2    0    0 -0.80435090052E+02 -0.73836221446E+03 -0.12719680930E+03  0.75786019541E+03  0.80774278322E+02 0.  0.
    9900016    2    1    2    0    0 -0.23217828068E+03 -0.11805805193E+03  0.28453485245E+03  0.18961700255E+04  0.18565172301E+04 0.  0.
        -24    2    4    4    0    0  0.59162280689E+03 -0.48662096278E+03 -0.29489504585E+03  0.82368419427E+03  0.68374386806E+02 0.  0.
        -15    1    3    3    0    0 -0.84734525433E+01 -0.29973378745E+03 -0.19382741644E+02  0.30047933940E+03  0.00000000000E+00 0.  1.
        -15    1    4    4    0    0 -0.82380108757E+03  0.36856291085E+03  0.57942989830E+03  0.10724858312E+04  0.00000000000E+00 0.  1.
         15    1    1    2    0    0  0.90579679450E+02  0.82116941437E+03 -0.83474231316E+03  0.11744439598E+04  0.00000000000E+00 0. -1.
         15    1    5    5    0    0  0.53468098776E+03 -0.42524137755E+03 -0.28152789366E+03  0.73889914248E+03  0.00000000000E+00 0. -1.
        -16    1    5    5    0    0  0.56941819130E+02 -0.61379585230E+02 -0.13367152195E+02  0.84785051787E+02  0.00000000000E+00 0.  1.
         16    1    3    3    0    0 -0.71961637509E+02 -0.43862842701E+03 -0.10781406765E+03  0.45738085600E+03  0.00000000000E+00 0. -1.
    9900018    1    1    2    0    0  0.22203369128E+03  0.35250852022E+02 -0.91286880729E+03  0.94455609698E+03  0.91187600000E+02 0.  0.
<mgrwt>
<rscale>  0 0.24999020E+04</rscale>
<asrwt>0</asrwt>
<pdfrwt beam="1">  1        2 0.48948487E+00 0.37391174E+04</pdfrwt>
<pdfrwt beam="2">  1       -2 0.24482748E+00 0.37391174E+04</pdfrwt>
<totfact> 0.72322849E-02</totfact>
</mgrwt>
</event>
<event>
12    1  0.1474781E-006  0.3113384E+04  0.7818608E-02  0.8528149E-01
         -2   -1    0    0    0  501 -0.00000000000E+00  0.00000000000E+00  0.21873934121E+04  0.21873934121E+04  0.00000000000E+00 0.  1.
          2   -1    0    0  501    0  0.00000000000E+00 -0.00000000000E+00 -0.17012929223E+04  0.17012929223E+04  0.00000000000E+00 0. -1.
        -24    2    1    2    0    0  0.29635686757E+03 -0.67778317199E+03  0.62545513631E+02  0.74662315829E+03  0.79478160648E+02 0.  0.
    9900016    2    1    2    0    0 -0.24258332839E+03  0.26118022347E+03 -0.20200440447E+03  0.18892618653E+04  0.18443000938E+04 0.  0.
         24    2    4    4    0    0 -0.88050828239E+02  0.89192283281E+03  0.41830009559E+03  0.99121164088E+03  0.65163325587E+02 0.  0.
        -15    1    5    5    0    0 -0.29697830628E+02  0.98546580672E+02  0.54318157768E+02  0.11637805622E+03  0.00000000000E+00 0.  1.
        -15    1    1    2    0    0 -0.49722851780E+03  0.20992618201E+03  0.14020942679E+03  0.55764135802E+03  0.00000000000E+00 0.  1.
         15    1    3    3    0    0  0.17311818214E+03 -0.30752559266E+03  0.11730702455E+02  0.35309985063E+03  0.00000000000E+00 0. -1.
         15    1    4    4    0    0 -0.15453250015E+03 -0.63074260934E+03 -0.62030450005E+03  0.89805022444E+03  0.00000000000E+00 0. -1.
        -16    1    3    3    0    0  0.12323868542E+03 -0.37025757933E+03  0.50814811175E+02  0.39352330766E+03  0.00000000000E+00 0.  1.
         16    1    5    5    0    0 -0.58352997611E+02  0.79337625214E+03  0.36398193782E+03  0.87483358466E+03  0.00000000000E+00 0. -1.
    9900018    1    1    2    0    0  0.44345497862E+03  0.20667676651E+03  0.48534995389E+03  0.69515995282E+03  0.91187600000E+02 0.  0.
<mgrwt>
<rscale>  0 0.21767957E+04</rscale>
<asrwt>0</asrwt>
<pdfrwt beam="1">  1        2 0.26173737E+00 0.31133844E+04</pdfrwt>
<pdfrwt beam="2">  1       -2 0.33652207E+00 0.31133844E+04</pdfrwt>
<totfact> 0.15313606E-01</totfact>
</mgrwt>
</event>
<event>
12    1  0.1474781E-006  0.5911761E+04  0.7818608E-02  0.7701440E-01
          2   -1    0    0  501    0  0.00000000000E+00  0.00000000000E+00  0.28464504048E+04  0.28464504048E+04  0.00000000000E+00 0. -1.
         -2   -1    0    0    0  501 -0.00000000000E+00 -0.00000000000E+00 -0.30695176855E+04  0.30695176855E+04  0.00000000000E+00 0.  1.
         24    2    1    2    0    0  0.12418127727E+04  0.12594211967E+04  0.19113244486E+02  0.17705939290E+04  0.79980198516E+02 0.  0.
    9900016    2    1    2    0    0 -0.12569426999E+04 -0.89097534256E+03 -0.69561743991E+03  0.25022893722E+04  0.18449461964E+04 0.  0.
        -24    2    4    4    0    0 -0.82408622558E+03 -0.90380023043E+03  0.42848070380E+03  0.12976625246E+04  0.66025378633E+02 0.  0.
        -15    1    3    3    0    0  0.43004240280E+03  0.47673349450E+03  0.32754116584E+02  0.64287177970E+03  0.00000000000E+00 0.  1.
        -15    1    4    4    0    0 -0.43285647433E+03  0.12824887864E+02 -0.11240981437E+04  0.12046268475E+04  0.00000000000E+00 0.  1.
         15    1    5    5    0    0 -0.50133716398E+03 -0.50686609052E+03  0.26523886905E+03  0.76066013656E+03  0.00000000000E+00 0. -1.
         15    1    1    2    0    0  0.68706261883E+03 -0.54307302224E+03  0.30451482721E+03  0.92720689690E+03  0.00000000000E+00 0. -1.
        -16    1    5    5    0    0 -0.32274906160E+03 -0.39693413991E+03  0.16324183475E+03  0.53700238808E+03  0.00000000000E+00 0.  1.
         16    1    3    3    0    0  0.81177036992E+03  0.78268770221E+03 -0.13640872098E+02  0.11277221493E+04  0.00000000000E+00 0. -1.
    9900018    1    1    2    0    0 -0.67193269164E+03  0.17462716809E+03  0.14892208757E+03  0.71587789216E+03  0.91187600000E+02 0.  0.
<mgrwt>
<rscale>  0 0.59117611E+04</rscale>
<asrwt>0</asrwt>
<pdfrwt beam="1">  1        2 0.43791544E+00 0.59117611E+04</pdfrwt>
<pdfrwt beam="2">  1       -2 0.47223349E+00 0.59117611E+04</pdfrwt>
<totfact> 0.36666034E-03</totfact>
</mgrwt>
</event>
