<event>
10    1  0.1117321E-009  0.4064985E+04  0.7818608E-02  0.7991564E-01
          2   -1    0    0  501    0  0.00000000000E+00  0.00000000000E+00  0.44839766671E+04  0.44839766671E+04  0.00000000000E+00 0.  1.
         -2   -1    0    0    0  501 -0.00000000000E+00 -0.00000000000E+00 -0.92128602092E+03  0.92128602092E+03  0.00000000000E+00 0. -1.
    9900016    2    1    2    0    0  0.75383473262E+03  0.70579299054E+03  0.12697813506E+04  0.26002524801E+04  0.20205340216E+04 0.  0.
        -15    1    3    3    0    0 -0.91555778660E+02  0.14179334250E+03  0.10786906784E+03  0.20030863281E+03  0.00000000000E+00 0.  1.
        -15    1    3    3    0    0 -0.32051408833E+02  0.49762459498E+03  0.50065198661E+03  0.70661866805E+03  0.00000000000E+00 0.  1.
         15    1    3    3    0    0  0.83726741819E+02 -0.12799419392E+03 -0.10452071864E+03  0.18524918785E+03  0.00000000000E+00 0. -1.
         15    1    3    3    0    0  0.10270755883E+04  0.15268949942E+03  0.50172568248E+03  0.11532246129E+04  0.00000000000E+00 0. -1.
        -16    1    1    2    0    0 -0.43138045384E+03 -0.44026619314E+03  0.22961596709E+04  0.23774508725E+04  0.00000000000E+00 0.  1.
         16    1    3    3    0    0 -0.23336040998E+03  0.41679747558E+02  0.26405533234E+03  0.35485137852E+03  0.00000000000E+00 0. -1.
    9900018    1    1    2    0    0 -0.32245427877E+03 -0.26552679740E+03 -0.32503752943E+01  0.42755933550E+03  0.91187600000E+02 0.  0.
<mgrwt>
<rscale>  0 0.40649846E+04</rscale>
<asrwt>0</asrwt>
<pdfrwt beam="1">  1        2 0.68984255E+00 0.40649846E+04</pdfrwt>
<pdfrwt beam="2">  1       -2 0.14173631E+00 0.40649846E+04</pdfrwt>
<totfact> 0.34574530E-02</totfact>
</mgrwt>
</event>
<event>
11    1  0.1117321E-009  0.2607513E+04  0.7818608E-02  0.8365654E-01
         -2   -1    0    0    0  501 -0.00000000000E+00  0.00000000000E+00  0.84763174198E+03  0.84763174198E+03  0.00000000000E+00 0.  1.
          2   -1    0    0  501    0  0.00000000000E+00 -0.00000000000E+00 -0.20053297294E+04  0.20053297294E+04  0.00000000000E+00 0. -1.
    9900016    2    1    2    0    0  0.87893666347E+02  0.20195108454E+02 -0.89263492695E+03  0.22079991694E+04  0.20175059059E+04 0.  0.
        -24    2    3    3    0    0 -0.43944062250E+03 -0.99574081063E+02  0.76826305417E+02  0.46019858748E+03  0.53454657388E+02 0.  0.
        -15    1    3    3    0    0 -0.28335512777E+03  0.11257076764E+03 -0.12624561798E+03  0.33000039730E+03  0.00000000000E+00 0.  1.
        -15    1    3    3    0    0  0.74901599446E+03  0.25215580254E+03 -0.85577586132E+03  0.11648861891E+04  0.00000000000E+00 0.  1.
         15    1    4    4    0    0 -0.22067432064E+03 -0.77394934206E+02  0.39601038274E+02  0.23718215334E+03  0.00000000000E+00 0. -1.
         15    1    3    3    0    0  0.61673422147E+02 -0.24495738066E+03  0.12560246931E+02  0.25291399554E+03  0.00000000000E+00 0. -1.
        -16    1    4    4    0    0 -0.21876630186E+03 -0.22179146857E+02  0.37225267144E+02  0.22301643414E+03  0.00000000000E+00 0.  1.
         16    1    1    2    0    0  0.14383336776E+03 -0.14787135525E+03 -0.29879842726E+03  0.36309017547E+03  0.00000000000E+00 0. -1.
    9900018    1    1    2    0    0 -0.23172703411E+03  0.12767624680E+03  0.33735366798E+02  0.28187212650E+03  0.91187600000E+02 0.  0.
<mgrwt>
<rscale>  0 0.26075131E+04</rscale>
<asrwt>0</asrwt>
<pdfrwt beam="1">  1        2 0.30851226E+00 0.26075131E+04</pdfrwt>
<pdfrwt beam="2">  1       -2 0.13040488E+00 0.26075131E+04</pdfrwt>
<totfact> 0.25277072E+00</totfact>
</mgrwt>
</event>
<event>
10    1  0.1117321E-009  0.3212378E+04  0.7818608E-02  0.8185556E-01
         -2   -1    0    0    0  501 -0.00000000000E+00  0.00000000000E+00  0.94897594057E+03  0.94897594057E+03  0.00000000000E+00 0.  1.
          2   -1    0    0  501    0  0.00000000000E+00 -0.00000000000E+00 -0.27185546412E+04  0.27185546412E+04  0.00000000000E+00 0. -1.
    9900016    2    1    2    0    0  0.21484255602E+03  0.39965460036E+01 -0.71844195860E+03  0.21413426388E+04  0.20057457847E+04 0.  0.
        -15    1    3    3    0    0  0.66483853869E+03  0.17390739359E+02 -0.47893384364E+03  0.81956717047E+03  0.00000000000E+00 0.  1.
        -15    1    3    3    0    0 -0.20061085140E+03 -0.29895622306E+03 -0.35252509850E+03  0.50387843978E+03  0.00000000000E+00 0.  1.
         15    1    3    3    0    0  0.14305778738E+03  0.23325999468E+03  0.27481391171E+03  0.38781237953E+03  0.00000000000E+00 0. -1.
         15    1    3    3    0    0 -0.20469521291E+03  0.13767958245E+02 -0.10328989287E+03  0.22969216102E+03  0.00000000000E+00 0. -1.
        -16    1    3    3    0    0 -0.18774770574E+03  0.38534076787E+02 -0.58507035299E+02  0.20039248804E+03  0.00000000000E+00 0.  1.
         16    1    1    2    0    0  0.22907636753E+03  0.39052719660E+03 -0.22756511674E+03  0.50672808863E+03  0.00000000000E+00 0. -1.
    9900018    1    1    2    0    0 -0.44391892355E+03 -0.39452374261E+03 -0.82357162529E+03  0.10194598543E+04  0.91187600000E+02 0.  0.
<mgrwt>
<rscale>  0 0.32123779E+04</rscale>
<asrwt>0</asrwt>
<pdfrwt beam="1">  1        2 0.41823917E+00 0.32123779E+04</pdfrwt>
<pdfrwt beam="2">  1       -2 0.14599630E+00 0.32123779E+04</pdfrwt>
<totfact> 0.70052347E-01</totfact>
</mgrwt>
</event>
<event>
11    1  0.1131811E-009  0.2846648E+04  0.7818608E-02  0.8288931E-01
          1   -1    0    0  501    0  0.00000000000E+00  0.00000000000E+00  0.12227833873E+04  0.12227833873E+04  0.00000000000E+00 0. -1.
         -1   -1    0    0    0  501 -0.00000000000E+00 -0.00000000000E+00 -0.16567538544E+04  0.16567538544E+04  0.00000000000E+00 0.  1.
    9900016    2    1    2    0    0 -0.40412120721E+03  0.16177229443E+03  0.66758046932E+02  0.20691453578E+04  0.20217372850E+04 0.  0.
        -24    2    3    3    0    0 -0.66452545350E+02 -0.25872365012E+03 -0.10932536345E+03  0.29475089751E+03  0.59767788782E+02 0.  0.
        -15    1    3    3    0    0  0.14370094789E+03 -0.42026182481E+03 -0.36349672836E+03  0.57393365065E+03  0.00000000000E+00 0.  1.
        -15    1    3    3    0    0 -0.43606734605E+03  0.49788679570E+03  0.54065641191E+03  0.85460830055E+03  0.00000000000E+00 0.  1.
         15    1    3    3    0    0 -0.45302263708E+02  0.34287097366E+03 -0.10762731725E+01  0.34585250908E+03  0.00000000000E+00 0. -1.
         15    1    4    4    0    0 -0.51055829724E+02 -0.84787709522E+02 -0.44048091008E+02  0.10833230246E+03  0.00000000000E+00 0. -1.
        -16    1    4    4    0    0 -0.15396715626E+02 -0.17393594060E+03 -0.65277272444E+02  0.18641859505E+03  0.00000000000E+00 0.  1.
         16    1    1    2    0    0  0.94850621688E+02  0.10676555225E+03  0.17165565945E+02  0.14384081561E+03  0.00000000000E+00 0. -1.
    9900018    1    1    2    0    0  0.30927058553E+03 -0.26853784668E+03 -0.51789408003E+03  0.66655106833E+03  0.91187600000E+02 0.  0.
<mgrwt>
<rscale>  0 0.28466479E+04</rscale>
<asrwt>0</asrwt>
<pdfrwt beam="1">  1        1 0.18812052E+00 0.28466479E+04</pdfrwt>
<pdfrwt beam="2">  1       -1 0.25488521E+00 0.28466479E+04</pdfrwt>
<totfact> 0.57445760E-01</totfact>
</mgrwt>
</event>
<event>
10    1  0.1117321E-009  0.4937749E+04  0.7818608E-02  0.7838182E-01
          1   -1    0    0  501    0  0.00000000000E+00  0.00000000000E+00  0.18138625475E+04  0.18138625475E+04  0.00000000000E+00 0. -1.
         -1   -1    0    0    0  501 -0.00000000000E+00 -0.00000000000E+00 -0.33604209053E+04  0.33604209053E+04  0.00000000000E+00 0.  1.
    9900016    2    1    2    0    0  0.84253427064E+03  0.13559547377E+02  0.87775354099E+03  0.23560866726E+04  0.20175840184E+04 0.  0.
        -15    1    3    3    0    0  0.18402736912E+03 -0.43565706468E+03  0.71558852709E+03  0.85774710183E+03  0.00000000000E+00 0.  1.
        -15    1    3    3    0    0  0.18372456675E+03  0.41948304971E+02  0.27143717916E+02  0.19039736904E+03  0.00000000000E+00 0.  1.
         15    1    3    3    0    0  0.14855231038E+03  0.62090625884E+02 -0.12533275937E+03  0.20403758309E+03  0.00000000000E+00 0. -1.
         15    1    3    3    0    0 -0.33976485617E+03  0.18845347118E+03  0.99287198619E+02  0.40101473302E+03  0.00000000000E+00 0. -1.
        -16    1    1    2    0    0 -0.78563521334E+03 -0.23872952946E+03 -0.24337287069E+04  0.25685112216E+04  0.00000000000E+00 0.  1.
         16    1    3    3    0    0  0.66599488057E+03  0.15672421002E+03  0.16106685674E+03  0.70288988561E+03  0.00000000000E+00 0. -1.
    9900018    1    1    2    0    0 -0.56899057305E+02  0.22516998208E+03  0.94168080832E+01  0.24968555869E+03  0.91187600000E+02 0.  0.
<mgrwt>
<rscale>  0 0.49377491E+04</rscale>
<asrwt>0</asrwt>
<pdfrwt beam="1">  1        1 0.27905578E+00 0.49377491E+04</pdfrwt>
<pdfrwt beam="2">  1       -1 0.51698783E+00 0.49377491E+04</pdfrwt>
<totfact> 0.33896646E-03</totfact>
</mgrwt>
</event>
<event>
10    1  0.1117321E-009  0.2542550E+04  0.7818608E-02  0.8387982E-01
         -1   -1    0    0    0  501 -0.00000000000E+00  0.00000000000E+00  0.16694351611E+04  0.16694351611E+04  0.00000000000E+00 0.  1.
          1   -1    0    0  501    0  0.00000000000E+00 -0.00000000000E+00 -0.96807592580E+03  0.96807592580E+03  0.00000000000E+00 0. -1.
    9900016    2    1    2    0    0  0.12884835308E+03  0.99439085946E+02  0.55279543508E+03  0.21105474677E+04  0.20303541047E+04 0.  0.
        -15    1    3    3    0    0 -0.10309391280E+03  0.37238108532E+02 -0.20601968941E+03  0.23336483027E+03  0.00000000000E+00 0.  1.
        -15    1    3    3    0    0  0.10394525743E+03 -0.65093870527E+02  0.85359954914E+01  0.12294182259E+03  0.00000000000E+00 0.  1.
         15    1    3    3    0    0  0.53578671615E+03 -0.67599326676E+02  0.49327358818E+03  0.73140679992E+03  0.00000000000E+00 0. -1.
         15    1    3    3    0    0 -0.25814626851E+03 -0.21400892803E+02  0.56276399197E+03  0.61951658962E+03  0.00000000000E+00 0. -1.
        -16    1    1    2    0    0 -0.12474346549E+03 -0.10690130665E+03  0.30457557193E+03  0.34605649909E+03  0.00000000000E+00 0.  1.
         16    1    3    3    0    0 -0.14964343918E+03  0.21629506742E+03 -0.30575845115E+03  0.40331742528E+03  0.00000000000E+00 0. -1.
    9900018    1    1    2    0    0 -0.41048875924E+01  0.74622207070E+01 -0.15601177167E+03  0.18090712018E+03  0.91187600000E+02 0.  0.
<mgrwt>
<rscale>  0 0.25425499E+04</rscale>
<asrwt>0</asrwt>
<pdfrwt beam="1">  1        1 0.14893476E+00 0.25425499E+04</pdfrwt>
<pdfrwt beam="2">  1       -1 0.25683618E+00 0.25425499E+04</pdfrwt>
<totfact> 0.89284145E-01</totfact>
</mgrwt>
</event>
<event>
11    1  0.1117321E-009  0.3753031E+04  0.7818608E-02  0.8056310E-01
          1   -1    0    0  501    0  0.00000000000E+00  0.00000000000E+00  0.29082944638E+04  0.29082944638E+04  0.00000000000E+00 0. -1.
         -1   -1    0    0    0  501 -0.00000000000E+00 -0.00000000000E+00 -0.12107816927E+04  0.12107816927E+04  0.00000000000E+00 0.  1.
    9900016    2    1    2    0    0 -0.19839524925E+03 -0.74292323625E+02  0.63686462035E+03  0.21345297847E+04  0.20262627749E+04 0.  0.
         24    2    3    3    0    0  0.28199132264E+03  0.56919524296E+03 -0.14980948197E+03  0.65631082018E+03  0.69272513678E+02 0.  0.
        -15    1    3    3    0    0 -0.80253829957E+02  0.13050394166E+03  0.19392985967E+03  0.24714519312E+03  0.00000000000E+00 0.  1.
        -15    1    4    4    0    0  0.17953868206E+03  0.31999029770E+03 -0.11564719343E+03  0.38471054356E+03  0.00000000000E+00 0.  1.
         15    1    3    3    0    0 -0.33125204440E+03 -0.29751092981E+03  0.60295718265E+03  0.74953187683E+03  0.00000000000E+00 0. -1.
         15    1    3    3    0    0 -0.68880697529E+02 -0.47648057843E+03 -0.10212940005E+02  0.48154189460E+03  0.00000000000E+00 0. -1.
        -16    1    1    2    0    0  0.84714444958E+03  0.27788887697E+03  0.92597226788E+03  0.12854184483E+04  0.00000000000E+00 0.  1.
         16    1    4    4    0    0  0.10245264057E+03  0.24920494526E+03 -0.34162288539E+02  0.27160027662E+03  0.00000000000E+00 0. -1.
    9900018    1    1    2    0    0 -0.64874920033E+03 -0.20359655335E+03  0.13467588287E+03  0.69912792341E+03  0.91187600000E+02 0.  0.
<mgrwt>
<rscale>  0 0.37530306E+04</rscale>
<asrwt>0</asrwt>
<pdfrwt beam="1">  1        1 0.44742992E+00 0.37530306E+04</pdfrwt>
<pdfrwt beam="2">  1       -1 0.18627411E+00 0.37530306E+04</pdfrwt>
<totfact> 0.10443532E-01</totfact>
</mgrwt>
</event>
<event>
10    1  0.1117321E-009  0.3374151E+04  0.7818608E-02  0.8144280E-01
          2   -1    0    0  501    0  0.00000000000E+00  0.00000000000E+00  0.17870917863E+04  0.17870917863E+04  0.00000000000E+00 0. -1.
         -2   -1    0    0    0  501 -0.00000000000E+00 -0.00000000000E+00 -0.15926568529E+04  0.15926568529E+04  0.00000000000E+00 0.  1.
    9900016    2    1    2    0    0 -0.44997037708E+03 -0.15703989584E+03 -0.45428152304E+03  0.21219603652E+04  0.20172281031E+04 0.  0.
        -15    1    3    3    0    0 -0.26673803310E+03  0.16947948588E+02 -0.38800925288E+03  0.47115559170E+03  0.00000000000E+00 0.  1.
        -15    1    3    3    0    0  0.86999517216E+02 -0.12596588266E+03 -0.20598283377E+02  0.15446879578E+03  0.00000000000E+00 0.  1.
         15    1    3    3    0    0  0.25658412837E+03  0.39236634847E+03  0.13295783962E+03  0.48730334850E+03  0.00000000000E+00 0. -1.
         15    1    3    3    0    0 -0.67740872856E+03 -0.21266138197E+03 -0.19258430314E+03  0.73566035827E+03  0.00000000000E+00 0. -1.
        -16    1    1    2    0    0  0.37790060721E+03 -0.16715359495E+03 -0.10738656300E+03  0.42694386884E+03  0.00000000000E+00 0.  1.
         16    1    3    3    0    0  0.15059273900E+03 -0.22772692826E+03  0.13952476735E+02  0.27337227091E+03  0.00000000000E+00 0. -1.
    9900018    1    1    2    0    0  0.72069769877E+02  0.32419349079E+03  0.75610301947E+03  0.83084440519E+03  0.91187600000E+02 0.  0.
<mgrwt>
<rscale>  0 0.33741511E+04</rscale>
<asrwt>0</asrwt>
<pdfrwt beam="1">  1        2 0.27493720E+00 0.33741511E+04</pdfrwt>
<pdfrwt beam="2">  1       -2 0.24502413E+00 0.33741511E+04</pdfrwt>
<totfact> 0.50226465E-01</totfact>
</mgrwt>
</event>
<event>
11    1  0.1117321E-009  0.3719411E+04  0.7818608E-02  0.8063674E-01
         -2   -1    0    0    0  501 -0.00000000000E+00  0.00000000000E+00  0.74261914426E+03  0.74261914426E+03  0.00000000000E+00 0.  1.
          2   -1    0    0  501    0  0.00000000000E+00 -0.00000000000E+00 -0.46571723528E+04  0.46571723528E+04  0.00000000000E+00 0. -1.
    9900016    2    1    2    0    0 -0.74518149847E+02  0.23379955760E+03 -0.23835039760E+04  0.31332874428E+04  0.20189561184E+04 0.  0.
         24    2    3    3    0    0  0.38058791623E+03  0.73507339588E+03 -0.13369652810E+04  0.15737676588E+04  0.63940770148E+02 0.  0.
        -15    1    3    3    0    0 -0.36614331697E+02 -0.18241683482E+02  0.24494642255E+02  0.47679721067E+02  0.00000000000E+00 0.  1.
        -15    1    4    4    0    0  0.35987168455E+03  0.71612692114E+03 -0.13023028945E+04  0.15291625897E+04  0.00000000000E+00 0.  1.
         15    1    3    3    0    0 -0.54953040830E+02 -0.61504599998E+03 -0.39511125430E+03  0.73308548073E+03  0.00000000000E+00 0. -1.
         15    1    3    3    0    0 -0.36353869355E+03  0.13201384519E+03 -0.67592208296E+03  0.77875458217E+03  0.00000000000E+00 0. -1.
        -16    1    1    2    0    0  0.17417503948E+03 -0.35354445554E+03  0.25625738661E+03  0.47010474856E+03  0.00000000000E+00 0.  1.
         16    1    4    4    0    0  0.20716231677E+02  0.18946474733E+02 -0.34662386457E+02  0.44605069159E+02  0.00000000000E+00 0. -1.
    9900018    1    1    2    0    0 -0.99656889636E+02  0.11974489794E+03 -0.17873066191E+04  0.17963993057E+04  0.91187600000E+02 0.  0.
<mgrwt>
<rscale>  0 0.37194114E+04</rscale>
<asrwt>0</asrwt>
<pdfrwt beam="1">  1        2 0.71648805E+00 0.37194114E+04</pdfrwt>
<pdfrwt beam="2">  1       -2 0.11424910E+00 0.37194114E+04</pdfrwt>
<totfact> 0.40928426E-02</totfact>
</mgrwt>
</event>
<event>
11    1  0.1117321E-009  0.2918570E+04  0.7818608E-02  0.8267374E-01
         -2   -1    0    0    0  501 -0.00000000000E+00  0.00000000000E+00  0.11960711587E+04  0.11960711587E+04  0.00000000000E+00 0.  1.
          2   -1    0    0  501    0  0.00000000000E+00 -0.00000000000E+00 -0.17804231355E+04  0.17804231355E+04  0.00000000000E+00 0. -1.
    9900016    2    1    2    0    0 -0.50702269936E+03  0.13803552976E+03 -0.62006528360E+02  0.21017767169E+04  0.20340832659E+04 0.  0.
         24    2    3    3    0    0 -0.21238829405E+03 -0.26548933637E+03  0.13854686703E+03  0.37178560578E+03  0.58616781920E+02 0.  0.
        -15    1    3    3    0    0  0.21013641559E+03  0.13781847081E+03  0.40905816911E+03  0.48008314881E+03  0.00000000000E+00 0.  1.
        -15    1    4    4    0    0 -0.14593671543E+03 -0.15050764460E+03  0.10662604975E+03  0.23520031989E+03  0.00000000000E+00 0.  1.
         15    1    3    3    0    0 -0.41379902094E+03 -0.24274268551E+01  0.14928488048E+03  0.43991078376E+03  0.00000000000E+00 0. -1.
         15    1    3    3    0    0 -0.90971799971E+02  0.26813382219E+03 -0.75889644498E+03  0.80999717851E+03  0.00000000000E+00 0. -1.
        -16    1    1    2    0    0  0.38514601333E+03  0.12629800110E+02 -0.95278934449E+02  0.39695722539E+03  0.00000000000E+00 0.  1.
         16    1    4    4    0    0 -0.66451578619E+02 -0.11498169178E+03  0.31920817288E+02  0.13658528589E+03  0.00000000000E+00 0. -1.
    9900018    1    1    2    0    0  0.12187668603E+03 -0.15066532987E+03 -0.42706651397E+03  0.47776035203E+03  0.91187600000E+02 0.  0.
<mgrwt>
<rscale>  0 0.29185700E+04</rscale>
<asrwt>0</asrwt>
<pdfrwt beam="1">  1        2 0.27391125E+00 0.29185700E+04</pdfrwt>
<pdfrwt beam="2">  1       -2 0.18401095E+00 0.29185700E+04</pdfrwt>
<totfact> 0.12976476E+00</totfact>
</mgrwt>
</event>
<event>
10    1  0.1117321E-009  0.4270447E+04  0.7818608E-02  0.7952106E-01
          1   -1    0    0  501    0  0.00000000000E+00  0.00000000000E+00  0.29939214528E+04  0.29939214528E+04  0.00000000000E+00 0. -1.
         -1   -1    0    0    0  501 -0.00000000000E+00 -0.00000000000E+00 -0.15228116642E+04  0.15228116642E+04  0.00000000000E+00 0.  1.
    9900016    2    1    2    0    0 -0.11034896009E+04  0.10059491373E+04  0.96221851007E+03  0.27005092156E+04  0.20340262033E+04 0.  0.
        -15    1    3    3    0    0 -0.81260825631E+02  0.24459140046E+02 -0.11256886181E+03  0.14097276320E+03  0.00000000000E+00 0.  1.
        -15    1    3    3    0    0 -0.14420744696E+03 -0.16539926868E+03  0.38893030807E+03  0.44656409436E+03  0.00000000000E+00 0.  1.
         15    1    3    3    0    0 -0.10286196673E+04  0.12017788820E+04  0.28948102407E+03  0.16081449451E+04  0.00000000000E+00 0. -1.
         15    1    3    3    0    0  0.19660515897E+03  0.43637843349E+02  0.22603009622E+03  0.30273330557E+03  0.00000000000E+00 0. -1.
        -16    1    1    2    0    0  0.83083157619E+03 -0.94235850673E+03  0.33171290031E+02  0.12567501731E+04  0.00000000000E+00 0.  1.
         16    1    3    3    0    0 -0.46006820063E+02 -0.98527459385E+02  0.17034594353E+03  0.20209410734E+03  0.00000000000E+00 0. -1.
    9900018    1    1    2    0    0  0.27265802476E+03 -0.63590630618E+02  0.47571998854E+03  0.55947372830E+03  0.91187600000E+02 0.  0.
<mgrwt>
<rscale>  0 0.42704466E+04</rscale>
<asrwt>0</asrwt>
<pdfrwt beam="1">  1        1 0.46060330E+00 0.42704466E+04</pdfrwt>
<pdfrwt beam="2">  1       -1 0.23427872E+00 0.42704466E+04</pdfrwt>
<totfact> 0.40868041E-02</totfact>
</mgrwt>
</event>
