<event>
11    1  0.3863495E-012  0.2792493E+04  0.7818608E-02  0.8305603E-01
         -1   -1    0    0    0  501 -0.00000000000E+00  0.00000000000E+00  0.93863489059E+03  0.93863489059E+03  0.00000000000E+00 0.  1.
          1   -1    0    0  501    0  0.00000000000E+00 -0.00000000000E+00 -0.20769563165E+04  0.20769563165E+04  0.00000000000E+00 0. -1.
         23    2    1    2    0    0  0.87637947036E+02 -0.87106273599E+02  0.14493356009E+03  0.20803860615E+03  0.83704313792E+02 0.  0.
         24    2    1    2    0    0  0.56452171451E+02 -0.91256235134E+02  0.19291577729E+03  0.23469729515E+03  0.79698024495E+02 0.  0.
        -15    1    4    4    0    0  0.62731769262E+02 -0.83392363007E+02  0.11170183941E+03  0.15286223213E+03  0.00000000000E+00 0.  1.
        -15    1    3    3    0    0  0.86532566182E+02 -0.71785793419E+02  0.72012557912E+02  0.13351739079E+03  0.00000000000E+00 0.  1.
         15    1    3    3    0    0  0.11053808534E+01 -0.15320480180E+02  0.72921002178E+02  0.74521215358E+02  0.00000000000E+00 0. -1.
         15    1    1    2    0    0 -0.64643743429E+03 -0.14796231036E+03 -0.61923502298E+03  0.90731814455E+03  0.00000000000E+00 0. -1.
        -16    1    1    2    0    0 -0.63339752000E+02 -0.11420744459E+03  0.28533950716E+03  0.31380551131E+03  0.00000000000E+00 0.  1.
         16    1    4    4    0    0 -0.62795978111E+01 -0.78638721269E+01  0.81213937880E+02  0.81835063020E+02  0.00000000000E+00 0. -1.
    9900018    1    1    2    0    0  0.56568706780E+03  0.44053226369E+03 -0.11422752475E+04  0.13517316499E+04  0.91187600000E+02 0.  0.
<mgrwt>
<rscale>  0 0.27924926E+04</rscale>
<asrwt>0</asrwt>
<pdfrwt beam="1">  1        1 0.31953174E+00 0.27924926E+04</pdfrwt>
<pdfrwt beam="2">  1       -1 0.14440537E+00 0.27924926E+04</pdfrwt>
<totfact> 0.88396653E-01</totfact>
</mgrwt>
</event>
<event>
11    1  0.3863495E-012  0.2345055E+04  0.7818608E-02  0.8947017E-01
          2   -1    0    0  501    0  0.00000000000E+00  0.00000000000E+00  0.15553292651E+04  0.15553292651E+04  0.00000000000E+00 0. -1.
         -2   -1    0    0    0  501 -0.00000000000E+00 -0.00000000000E+00 -0.11413867272E+04  0.11413867272E+04  0.00000000000E+00 0.  1.
         23    2    1    2    0    0  0.28918226917E+03 -0.39136022589E+02  0.13732816506E+03  0.33540264156E+03  0.92075479782E+02 0.  0.
        -24    2    1    2    0    0 -0.98623028514E+02  0.41002665429E+03  0.67131293212E+03  0.79681695195E+03  0.80049004412E+02 0.  0.
        -15    1    3    3    0    0  0.21513688720E+03 -0.54096789039E+02  0.13528888382E+03  0.25983345609E+03  0.00000000000E+00 0. -1.
        -15    1    1    2    0    0  0.17804228041E+03 -0.32603420827E+03 -0.75386574194E+02  0.37905209951E+03  0.00000000000E+00 0.  1.
         15    1    3    3    0    0  0.74045381975E+02  0.14960766451E+02  0.20392812408E+01  0.75569185470E+02  0.00000000000E+00 0.  1.
         15    1    4    4    0    0 -0.11044157045E+03  0.37274019730E+03  0.58967886624E+03  0.70629580238E+03  0.00000000000E+00 0. -1.
        -16    1    4    4    0    0  0.11818541939E+02  0.37286456993E+02  0.81634065872E+02  0.90521149570E+02  0.00000000000E+00 0.  1.
         16    1    1    2    0    0 -0.22993879943E+03  0.30248752446E+03  0.28081013270E+03  0.47246680790E+03  0.00000000000E+00 0. -1.
    9900018    1    1    2    0    0 -0.13866272164E+03 -0.34734394790E+03 -0.60012211777E+03  0.71297749133E+03  0.91187600000E+02 0.  0.
<mgrwt>
<rscale>  0 0.14094353E+04</rscale>
<asrwt>0</asrwt>
<pdfrwt beam="1">  1        2 0.23928143E+00 0.23450555E+04</pdfrwt>
<pdfrwt beam="2">  1       -2 0.17559796E+00 0.23450555E+04</pdfrwt>
<totfact> 0.20545231E+00</totfact>
</mgrwt>
</event>
<event>
11    1  0.3863495E-012  0.2439393E+04  0.7818608E-02  0.8871555E-01
         -1   -1    0    0    0  501 -0.00000000000E+00  0.00000000000E+00  0.13312371346E+04  0.13312371346E+04  0.00000000000E+00 0.  1.
          1   -1    0    0  501    0  0.00000000000E+00 -0.00000000000E+00 -0.22197560224E+04  0.22197560224E+04  0.00000000000E+00 0. -1.
         23    2    1    2    0    0 -0.34234538982E+03  0.50916307974E+03 -0.71222161113E+02  0.62441574301E+03  0.91515114469E+02 0.  0.
        -24    2    1    2    0    0 -0.35845097238E+03 -0.54152978999E+01  0.59257609347E+03  0.69717474965E+03  0.79936099072E+02 0.  0.
        -15    1    3    3    0    0 -0.19095989711E+02  0.58230496848E+02 -0.29533749199E+02  0.68027126413E+02  0.00000000000E+00 0. -1.
        -15    1    1    2    0    0  0.63462622668E+03 -0.66827407707E+03 -0.12325587771E+04  0.15390067670E+04  0.00000000000E+00 0.  1.
         15    1    4    4    0    0 -0.16702780149E+03  0.34439449299E+02  0.30459498603E+03  0.34908805143E+03  0.00000000000E+00 0. -1.
         15    1    3    3    0    0 -0.32324940011E+03  0.45093258290E+03 -0.41688411913E+02  0.55638861659E+03  0.00000000000E+00 0.  1.
        -16    1    4    4    0    0 -0.19142317089E+03 -0.39854747199E+02  0.28798110744E+03  0.34808669821E+03  0.00000000000E+00 0.  1.
         16    1    1    2    0    0  0.18535593500E+02 -0.21714238607E+03 -0.19816249387E+03  0.29455518673E+03  0.00000000000E+00 0. -1.
    9900018    1    1    2    0    0  0.47634542021E+02  0.38166868130E+03  0.20848450816E+02  0.39584071061E+03  0.91187600000E+02 0.  0.
<mgrwt>
<rscale>  0 0.15195512E+04</rscale>
<asrwt>0</asrwt>
<pdfrwt beam="1">  1        1 0.34150093E+00 0.24393928E+04</pdfrwt>
<pdfrwt beam="2">  1       -1 0.20480571E+00 0.24393928E+04</pdfrwt>
<totfact> 0.25590334E-01</totfact>
</mgrwt>
</event>
<event>
11    1  0.3863495E-012  0.2763805E+04  0.7818608E-02  0.8314594E-01
         -2   -1    0    0    0  501 -0.00000000000E+00  0.00000000000E+00  0.89139373302E+03  0.89139373302E+03  0.00000000000E+00 0.  1.
          2   -1    0    0  501    0  0.00000000000E+00 -0.00000000000E+00 -0.21423251459E+04  0.21423251459E+04  0.00000000000E+00 0. -1.
         23    2    1    2    0    0  0.19156502636E+03 -0.11025377218E+03 -0.33232252387E+03  0.40961634279E+03  0.92164173126E+02 0.  0.
         24    2    1    2    0    0 -0.27148090130E+03  0.70710373782E+03 -0.60405067175E+03  0.97238032261E+03  0.83358874403E+02 0.  0.
        -15    1    4    4    0    0 -0.16451053615E+03  0.51579615834E+03 -0.40258921368E+03  0.67467582470E+03  0.00000000000E+00 0.  1.
        -15    1    3    3    0    0  0.11563817510E+03 -0.69291613426E+02 -0.12017365607E+03  0.18059685170E+03  0.00000000000E+00 0.  1.
         15    1    1    2    0    0 -0.14533192692E+03 -0.71290506036E+03 -0.78963317114E+03  0.10737204194E+04  0.00000000000E+00 0. -1.
         15    1    3    3    0    0  0.75926851265E+02 -0.40962158757E+02 -0.21214886779E+03  0.22901949109E+03  0.00000000000E+00 0. -1.
        -16    1    1    2    0    0  0.40833416888E+02  0.62289367930E+02  0.27896896455E+03  0.28874039633E+03  0.00000000000E+00 0.  1.
         16    1    4    4    0    0 -0.10697036516E+03  0.19130757949E+03 -0.20146145807E+03  0.29770449791E+03  0.00000000000E+00 0. -1.
    9900018    1    1    2    0    0  0.18441438498E+03  0.53765726786E+02  0.19610598936E+03  0.28926139774E+03  0.91187600000E+02 0.  0.
<mgrwt>
<rscale>  0 0.27638055E+04</rscale>
<asrwt>0</asrwt>
<pdfrwt beam="1">  1        2 0.32958848E+00 0.27638055E+04</pdfrwt>
<pdfrwt beam="2">  1       -2 0.13713750E+00 0.27638055E+04</pdfrwt>
<totfact> 0.18399359E+00</totfact>
</mgrwt>
</event>
