<event>
11    1  0.1314931E-017  0.5083768E+04  0.7818608E-02  0.8096096E-01
          2   -1    0    0  501    0  0.00000000000E+00  0.00000000000E+00  0.34718157304E+04  0.34718157304E+04  0.00000000000E+00 0. -1.
         -2   -1    0    0    0  501 -0.00000000000E+00 -0.00000000000E+00 -0.36439559234E+04  0.36439559234E+04  0.00000000000E+00 0.  1.
        -24    2    1    2    0    0  0.62044277971E+03  0.10754314248E+04  0.13236259837E+04  0.18165248958E+04  0.79214645624E+02 0.  0.
    9900016    2    1    2    0    0 -0.20381476690E+04 -0.13007240513E+04 -0.85857674451E+03  0.33474983272E+04  0.21500376848E+04 0.  0.
        -15    1    1    2    0    0  0.15924309853E+04  0.32286272202E+03 -0.56616153683E+03  0.17206439684E+04  0.00000000000E+00 0.  1.
        -15    1    4    4    0    0 -0.23559756689E+03  0.43727645213E+03 -0.36564016496E+03  0.61677357219E+03  0.00000000000E+00 0.  1.
         15    1    4    4    0    0  0.21879727528E+02  0.94989851891E+02 -0.39028157110E+02  0.10499995946E+03  0.00000000000E+00 0. -1.
         15    1    3    3    0    0  0.51497107924E+03  0.92056329841E+03  0.10864804910E+04  0.15142892247E+04  0.00000000000E+00 0. -1.
        -16    1    3    3    0    0  0.10547170047E+03  0.15486812641E+03  0.23714549266E+03  0.30223567107E+03  0.00000000000E+00 0.  1.
         16    1    4    4    0    0 -0.18244298296E+04 -0.18329903553E+04 -0.45390842244E+03  0.26257247955E+04  0.00000000000E+00 0. -1.
    9900018    1    1    2    0    0 -0.17472609606E+03 -0.97570095518E+02 -0.71027895339E+02  0.23110446230E+03  0.91187600000E+02 0.  0.
<mgrwt>
<rscale>  0 0.35756328E+04</rscale>
<asrwt>0</asrwt>
<pdfrwt beam="1">  1        2 0.53412550E+00 0.50837683E+04</pdfrwt>
<pdfrwt beam="2">  1       -2 0.56060860E+00 0.50837683E+04</pdfrwt>
<totfact> 0.43984602E-04</totfact>
</mgrwt>
</event>
<event>
12    1  0.1314931E-017  0.3648192E+04  0.7818608E-02  0.8860550E-01
         -2   -1    0    0    0  501 -0.00000000000E+00  0.00000000000E+00  0.19757783090E+04  0.19757783090E+04  0.00000000000E+00 0. -1.
          2   -1    0    0  501    0  0.00000000000E+00 -0.00000000000E+00 -0.27175633775E+04  0.27175633775E+04  0.00000000000E+00 0.  1.
         24    2    1    2    0    0 -0.64509164988E+01  0.81754057839E+02 -0.10275811578E+04  0.10339719264E+04  0.80309204508E+02 0.  0.
    9900016    2    1    2    0    0  0.16404680858E+03 -0.79977389367E+03 -0.64533288012E+03  0.24730350234E+04  0.22434121476E+04 0.  0.
         23    2    4    4    0    0 -0.23271362118E+02  0.41509697751E+03 -0.10255004879E+04  0.11086434011E+04  0.67763435391E+02 0.  0.
        -15    1    5    5    0    0 -0.57605446432E+01  0.38523947027E+03 -0.91377880719E+03  0.99168258117E+03  0.00000000000E+00 0.  1.
        -15    1    3    3    0    0 -0.32743172532E+02  0.44599662333E+02 -0.30637003771E+03  0.31132594693E+03  0.00000000000E+00 0.  1.
         15    1    5    5    0    0 -0.17510817475E+02  0.29857507240E+02 -0.11172168071E+03  0.11696081997E+03  0.00000000000E+00 0. -1.
         15    1    1    2    0    0 -0.15759589208E+03  0.71801983583E+03  0.93112896947E+03  0.11863347368E+04  0.00000000000E+00 0. -1.
        -16    1    4    4    0    0  0.22541655524E+03 -0.11618125722E+04  0.40244257389E+03  0.12500324402E+04  0.00000000000E+00 0.  1.
         16    1    3    3    0    0  0.26292256033E+02  0.37154395506E+02 -0.72121112013E+03  0.72264597946E+03  0.00000000000E+00 0. -1.
    9900018    1    4    4    0    0 -0.38098384549E+02 -0.53058298958E+02 -0.22274966108E+02  0.11435918198E+03  0.91187600000E+02 0.  0.
<mgrwt>
<rscale>  0 0.15364794E+04</rscale>
<asrwt>0</asrwt>
<pdfrwt beam="1">  1        2 0.41808667E+00 0.36481924E+04</pdfrwt>
<pdfrwt beam="2">  1       -2 0.30396590E+00 0.36481924E+04</pdfrwt>
<totfact> 0.61160877E-02</totfact>
</mgrwt>
</event>
<event>
12    1  0.1314931E-017  0.3831941E+04  0.7818608E-02  0.8395788E-01
          1   -1    0    0  501    0  0.00000000000E+00  0.00000000000E+00  0.35533462260E+04  0.35533462260E+04  0.00000000000E+00 0. -1.
         -1   -1    0    0    0  501 -0.00000000000E+00 -0.00000000000E+00 -0.14912800961E+04  0.14912800961E+04  0.00000000000E+00 0.  1.
        -24    2    1    2    0    0  0.64251178094E+03  0.30578436888E+03  0.62784175168E+03  0.95307754747E+03  0.88578086690E+02 0.  0.
    9900016    2    1    2    0    0  0.11288726748E+03  0.58817499174E+03  0.15601348065E+04  0.27183894087E+04  0.21440445440E+04 0.  0.
         23    2    4    4    0    0 -0.34790452158E+03 -0.39393082050E+03  0.15430302817E+04  0.16334223751E+04  0.10443733782E+03 0.  0.
        -15    1    1    2    0    0 -0.70104285691E+03 -0.95829929137E+03 -0.23207637337E+03  0.12098173673E+04  0.00000000000E+00 0.  1.
        -15    1    5    5    0    0 -0.28380694273E+03 -0.35949518919E+03  0.13987959342E+04  0.14718740562E+04  0.00000000000E+00 0. -1.
         15    1    3    3    0    0  0.43293861112E+03  0.22159419855E+03  0.47875829894E+03  0.68245830542E+03  0.00000000000E+00 0. -1.
         15    1    5    5    0    0 -0.64097578849E+02 -0.34435631318E+02  0.14423434756E+03  0.16154831889E+03  0.00000000000E+00 0.  1.
        -16    1    3    3    0    0  0.20957316982E+03  0.84190170331E+02  0.14908345274E+03  0.27061924205E+03  0.00000000000E+00 0.  1.
         16    1    4    4    0    0  0.46079178906E+03  0.98210581224E+03  0.17104524791E+02  0.10849670336E+04  0.00000000000E+00 0. -1.
    9900018    1    1    2    0    0 -0.54356191509E+02  0.64339930757E+02  0.10616594499E+03  0.16334199862E+03  0.91187600000E+02 0.  0.
<mgrwt>
<rscale>  0 0.25203022E+04</rscale>
<asrwt>0</asrwt>
<pdfrwt beam="1">  1        1 0.54666865E+00 0.38319410E+04</pdfrwt>
<pdfrwt beam="2">  1       -1 0.22942771E+00 0.38319410E+04</pdfrwt>
<totfact> 0.16694157E-02</totfact>
</mgrwt>
</event>
