<event>
11    1  0.1035095E-011  0.3616262E+04  0.7818608E-02  0.8228061E-01
         -2   -1    0    0    0  501 -0.00000000000E+00  0.00000000000E+00  0.17726131317E+04  0.17726131317E+04  0.00000000000E+00 0.  1.
          2   -1    0    0  501    0  0.00000000000E+00 -0.00000000000E+00 -0.45511739312E+04  0.45511739312E+04  0.00000000000E+00 0. -1.
    9900016    2    1    2    0    0  0.67653542239E+03 -0.23942624587E+03 -0.54628695986E+03  0.20544661892E+04  0.18459081166E+04 0.  0.
        -24    2    3    3    0    0  0.35075746765E+03 -0.21801855502E+03 -0.12291362284E+04  0.12975826522E+04  0.48805529447E+02 0.  0.
        -15    1    1    2    0    0  0.34631956919E+02 -0.61693998290E+03  0.54341949839E+02  0.62029618929E+03  0.00000000000E+00 0.  1.
        -15    1    3    3    0    0  0.32577795474E+03 -0.21407690846E+02  0.68284926856E+03  0.75688353701E+03  0.00000000000E+00 0.  1.
         15    1    4    4    0    0  0.10161519412E+03 -0.51779369315E+02 -0.28092159925E+03  0.30318920774E+03  0.00000000000E+00 0. -1.
         15    1    1    2    0    0  0.61938503113E+03 -0.25720012118E+02 -0.18571758685E+04  0.19579074397E+04  0.00000000000E+00 0. -1.
        -16    1    4    4    0    0  0.24914227353E+03 -0.16623918571E+03 -0.94821462917E+03  0.99439344442E+03  0.00000000000E+00 0.  1.
         16    1    1    2    0    0 -0.11454345419E+04  0.65029061061E+03 -0.27964514474E+03  0.13465138600E+04  0.00000000000E+00 0. -1.
    9900018    1    1    2    0    0 -0.18511786851E+03  0.23179563027E+03 -0.14979477624E+03  0.34460338483E+03  0.91187600000E+02 0.  0.
<mgrwt>
<rscale>  0 0.30554885E+04</rscale>
<asrwt>0</asrwt>
<pdfrwt beam="1">  1        2 0.70018059E+00 0.36162622E+04</pdfrwt>
<pdfrwt beam="2">  1       -2 0.27270972E+00 0.36162622E+04</pdfrwt>
<totfact> 0.39046456E-03</totfact>
</mgrwt>
</event>
<event>
11    1  0.1035095E-011  0.3663296E+04  0.7818608E-02  0.8365552E-01
          2   -1    0    0  501    0  0.00000000000E+00  0.00000000000E+00  0.28979002002E+04  0.28979002002E+04  0.00000000000E+00 0.  1.
         -2   -1    0    0    0  501 -0.00000000000E+00 -0.00000000000E+00 -0.18510897514E+04  0.18510897514E+04  0.00000000000E+00 0. -1.
    9900016    2    1    2    0    0 -0.68305769723E+03  0.11271916126E+04  0.97265944555E+03  0.24622210287E+04  0.18382973775E+04 0.  0.
         24    2    3    3    0    0 -0.91919649876E+03  0.14091749630E+04  0.11637330137E+04  0.20477511842E+04  0.91181717161E+02 0.  0.
        -15    1    1    2    0    0  0.32213616231E+03 -0.65474626062E+03  0.18900519226E+03  0.75378202126E+03  0.00000000000E+00 0. -1.
        -15    1    4    4    0    0 -0.16780851500E+03  0.25914867028E+03  0.17170668282E+03  0.35327173102E+03  0.00000000000E+00 0.  1.
         15    1    3    3    0    0  0.23613880153E+03 -0.28198335047E+03 -0.19107356817E+03  0.41446984448E+03  0.00000000000E+00 0. -1.
         15    1    1    2    0    0 -0.11548521602E+03 -0.87157853711E+02  0.23991872739E+03  0.28016838211E+03  0.00000000000E+00 0.  1.
        -16    1    1    2    0    0  0.26279654115E+03 -0.52524218906E+03 -0.63355659489E+03  0.86390701939E+03  0.00000000000E+00 0.  1.
         16    1    4    4    0    0 -0.75138798376E+03  0.11500262928E+04  0.99202633091E+03  0.16944794532E+04  0.00000000000E+00 0. -1.
    9900018    1    1    2    0    0  0.21361020979E+03  0.13995469082E+03  0.27878367847E+03  0.38891150019E+03  0.91187600000E+02 0.  0.
<mgrwt>
<rscale>  0 0.26078142E+04</rscale>
<asrwt>0</asrwt>
<pdfrwt beam="1">  1        2 0.44583080E+00 0.36632957E+04</pdfrwt>
<pdfrwt beam="2">  1       -2 0.28478304E+00 0.36632957E+04</pdfrwt>
<totfact> 0.62244739E-02</totfact>
</mgrwt>
</event>
<event>
11    1  0.1035095E-011  0.3762450E+04  0.7818608E-02  0.8300662E-01
         -1   -1    0    0    0  501 -0.00000000000E+00  0.00000000000E+00  0.21363451107E+04  0.21363451107E+04  0.00000000000E+00 0.  1.
          1   -1    0    0  501    0  0.00000000000E+00 -0.00000000000E+00 -0.29120676307E+04  0.29120676307E+04  0.00000000000E+00 0. -1.
    9900016    2    1    2    0    0 -0.80887595250E+03 -0.27896949406E+03 -0.12810891341E+04  0.24024738383E+04  0.18435256682E+04 0.  0.
        -24    2    3    3    0    0 -0.40594198240E+03  0.32692599923E+03  0.33764604926E+03  0.62771505841E+03  0.91388390555E+02 0.  0.
        -15    1    1    2    0    0 -0.36500539610E+02 -0.82245064576E+03  0.47573136701E+02  0.82463358981E+03  0.00000000000E+00 0.  1.
        -15    1    3    3    0    0 -0.40293397010E+03 -0.60589549328E+03 -0.16187351833E+04  0.17747587799E+04  0.00000000000E+00 0.  1.
         15    1    4    4    0    0 -0.28875321186E+03  0.18928542793E+03  0.25341554498E+03  0.42828358481E+03  0.00000000000E+00 0. -1.
         15    1    1    2    0    0  0.71939540126E+03  0.68142693244E+03  0.47483812409E+03  0.10987919055E+04  0.00000000000E+00 0. -1.
        -16    1    4    4    0    0 -0.11718877054E+03  0.13764057130E+03  0.84230504277E+02  0.19943147359E+03  0.00000000000E+00 0.  1.
         16    1    1    2    0    0  0.31245064679E+03  0.13257678788E+03  0.91868696377E+02  0.35162745732E+03  0.00000000000E+00 0. -1.
    9900018    1    1    2    0    0 -0.18646955594E+03  0.28741641949E+03 -0.10891334315E+03  0.37088595039E+03  0.91187600000E+02 0.  0.
<mgrwt>
<rscale>  0 0.28084112E+04</rscale>
<asrwt>0</asrwt>
<pdfrwt beam="1">  1        1 0.44801040E+00 0.37624504E+04</pdfrwt>
<pdfrwt beam="2">  1       -1 0.32866848E+00 0.37624504E+04</pdfrwt>
<totfact> 0.11420755E-02</totfact>
</mgrwt>
</event>
<event>
10    1  0.1035095E-011  0.3148557E+04  0.7818608E-02  0.8528369E-01
         -1   -1    0    0    0  501 -0.00000000000E+00  0.00000000000E+00  0.12007752798E+04  0.12007752798E+04  0.00000000000E+00 0.  1.
          1   -1    0    0  501    0  0.00000000000E+00 -0.00000000000E+00 -0.38259415766E+04  0.38259415766E+04  0.00000000000E+00 0. -1.
    9900016    2    1    2    0    0  0.72700245574E+03  0.75065568841E+02 -0.87272652596E+03  0.21717275395E+04  0.18494814156E+04 0.  0.
        -15    1    3    3    0    0  0.89124706970E+03  0.16757126336E+03 -0.86725626084E+03  0.12548047217E+04  0.00000000000E+00 0.  1.
        -15    1    1    2    0    0 -0.17962894677E+03 -0.10935912427E+02 -0.53997691363E+02  0.18788800752E+03  0.00000000000E+00 0.  1.
         15    1    3    3    0    0 -0.46706328987E+03 -0.96921325787E+02  0.23354412634E+03  0.53111648354E+03  0.00000000000E+00 0. -1.
         15    1    1    2    0    0  0.27212757060E+03  0.60979434362E+02 -0.14807760338E+04  0.15068077410E+04  0.00000000000E+00 0. -1.
        -16    1    1    2    0    0 -0.73094993455E+03  0.20704538281E+01  0.15437767124E+03  0.74707734471E+03  0.00000000000E+00 0.  1.
         16    1    3    3    0    0  0.30281867592E+03  0.44156312721E+01 -0.23901439146E+03  0.38580633433E+03  0.00000000000E+00 0. -1.
    9900018    1    1    2    0    0 -0.88551145018E+02 -0.12717954460E+03 -0.37204371688E+03  0.41321622368E+03  0.91187600000E+02 0.  0.
<mgrwt>
<rscale>  0 0.21762739E+04</rscale>
<asrwt>0</asrwt>
<pdfrwt beam="1">  1        1 0.58860641E+00 0.31485566E+04</pdfrwt>
<pdfrwt beam="2">  1       -1 0.18473466E+00 0.31485566E+04</pdfrwt>
<totfact> 0.21225117E-02</totfact>
</mgrwt>
</event>
<event>
11    1  0.1035095E-011  0.3572255E+04  0.7818608E-02  0.8250194E-01
         -2   -1    0    0    0  501 -0.00000000000E+00  0.00000000000E+00  0.14490937796E+04  0.14490937796E+04  0.00000000000E+00 0.  1.
          2   -1    0    0  501    0  0.00000000000E+00 -0.00000000000E+00 -0.48493040352E+04  0.48493040352E+04  0.00000000000E+00 0. -1.
    9900016    2    1    2    0    0 -0.24039096951E+03  0.23132642015E+03 -0.12676344777E+04  0.22616204717E+04  0.18430220449E+04 0.  0.
        -24    2    3    3    0    0 -0.61868689720E+03  0.90490038859E+03 -0.72231792763E+03  0.13160096428E+04  0.92303853543E+02 0.  0.
        -15    1    3    3    0    0  0.37829592768E+03 -0.67357396844E+03 -0.54531655005E+03  0.94561082884E+03  0.00000000000E+00 0.  1.
        -15    1    1    2    0    0 -0.82307764278E+03  0.69186272619E+03 -0.15094602808E+03  0.10857787718E+04  0.00000000000E+00 0.  1.
         15    1    1    2    0    0  0.12407319857E+03 -0.32603573860E+03 -0.82420469354E+03  0.89498985374E+03  0.00000000000E+00 0. -1.
         15    1    4    4    0    0 -0.21707087651E+03  0.24827294053E+03 -0.23613264790E+03  0.40560799527E+03  0.00000000000E+00 0. -1.
        -16    1    4    4    0    0 -0.40161602069E+03  0.65662744807E+03 -0.48618527974E+03  0.91040164755E+03  0.00000000000E+00 0.  1.
         16    1    1    2    0    0  0.96127219348E+03 -0.23181449659E+03 -0.13166317492E+04  0.16466029740E+04  0.00000000000E+00 0. -1.
    9900018    1    1    2    0    0 -0.21876779754E+02 -0.36533891115E+03  0.15920669295E+03  0.40940574369E+03  0.91187600000E+02 0.  0.
<mgrwt>
<rscale>  0 0.29774712E+04</rscale>
<asrwt>0</asrwt>
<pdfrwt beam="1">  1        2 0.74604677E+00 0.35722553E+04</pdfrwt>
<pdfrwt beam="2">  1       -2 0.22293751E+00 0.35722553E+04</pdfrwt>
<totfact> 0.38278605E-03</totfact>
</mgrwt>
</event>
<event>
11    1  0.1035095E-011  0.3209310E+04  0.7818608E-02  0.8293715E-01
         -1   -1    0    0    0  501 -0.00000000000E+00  0.00000000000E+00  0.31149964422E+04  0.31149964422E+04  0.00000000000E+00 0.  1.
          1   -1    0    0  501    0  0.00000000000E+00 -0.00000000000E+00 -0.22134705416E+04  0.22134705416E+04  0.00000000000E+00 0. -1.
    9900016    2    1    2    0    0  0.85375899698E+03 -0.80050759074E+03  0.66685996342E+02  0.21883048870E+04  0.18478404770E+04 0.  0.
        -24    2    3    3    0    0  0.11105544686E+04  0.20163410669E+03  0.18162903523E+03  0.11474188230E+04  0.97945435191E+02 0.  0.
        -15    1    3    3    0    0 -0.25679547162E+03 -0.10021416974E+04 -0.11494303889E+03  0.10408860640E+04  0.00000000000E+00 0.  1.
        -15    1    1    2    0    0 -0.75359493984E+03 -0.90413184943E+02  0.11442427634E+04  0.13730882634E+04  0.00000000000E+00 0.  1.
         15    1    1    2    0    0 -0.58696289885E+03  0.34832284469E+03 -0.30000201957E+03  0.74555714771E+03  0.00000000000E+00 0. -1.
         15    1    4    4    0    0  0.10289201869E+04  0.18237466762E+03  0.14169175009E+03  0.10545206600E+04  0.00000000000E+00 0. -1.
        -16    1    4    4    0    0  0.81634281726E+02  0.19259439074E+02  0.39937285139E+02  0.92898163010E+02  0.00000000000E+00 0.  1.
         16    1    1    2    0    0  0.43698560546E+03  0.68628815395E+03  0.89446518266E+02  0.81850383582E+03  0.00000000000E+00 0. -1.
    9900018    1    1    2    0    0  0.49813236241E+02 -0.14369022296E+03 -0.98847357817E+02  0.20301284989E+03  0.91187600000E+02 0.  0.
<mgrwt>
<rscale>  0 0.28309785E+04</rscale>
<asrwt>0</asrwt>
<pdfrwt beam="1">  1        1 0.34053393E+00 0.32093104E+04</pdfrwt>
<pdfrwt beam="2">  1       -1 0.47923022E+00 0.32093104E+04</pdfrwt>
<totfact> 0.34462162E-03</totfact>
</mgrwt>
</event>
<event>
11    1  0.1035095E-011  0.4168479E+04  0.7818608E-02  0.8068283E-01
         -1   -1    0    0    0  501 -0.00000000000E+00  0.00000000000E+00  0.32949789715E+04  0.32949789715E+04  0.00000000000E+00 0.  1.
          1   -1    0    0  501    0  0.00000000000E+00 -0.00000000000E+00 -0.34882117529E+04  0.34882117529E+04  0.00000000000E+00 0. -1.
    9900016    2    1    2    0    0 -0.14349752814E+04 -0.16433553157E+03 -0.94832426550E+03  0.25272267568E+04  0.18442873806E+04 0.  0.
         24    2    3    3    0    0 -0.97402798555E+03  0.24949507474E+03 -0.14251604525E+04  0.17454973089E+04  0.68558231930E+02 0.  0.
        -15    1    4    4    0    0 -0.81994269729E+02  0.28640396019E+02 -0.15630636257E+03  0.17881557967E+03  0.00000000000E+00 0.  1.
        -15    1    1    2    0    0  0.12273879077E+04 -0.26794543154E+03  0.74957932605E+03  0.14629234417E+04  0.00000000000E+00 0.  1.
         15    1    1    2    0    0  0.11293245853E+03 -0.19162720012E+03 -0.11260061464E+04  0.11477650308E+04  0.00000000000E+00 0. -1.
         15    1    3    3    0    0 -0.46094729588E+03 -0.41383060632E+03  0.47683618702E+03  0.78172944780E+03  0.00000000000E+00 0. -1.
        -16    1    1    2    0    0 -0.12651912082E+01  0.45488250428E+03  0.12968499009E+04  0.13743141413E+04  0.00000000000E+00 0.  1.
         16    1    4    4    0    0 -0.89203371582E+03  0.22085467873E+03 -0.12688540899E+04  0.15666817293E+04  0.00000000000E+00 0. -1.
    9900018    1    1    2    0    0  0.95920106438E+02  0.16902565895E+03 -0.16533159639E+03  0.27096135401E+03  0.91187600000E+02 0.  0.
<mgrwt>
<rscale>  0 0.36985496E+04</rscale>
<asrwt>0</asrwt>
<pdfrwt beam="1">  1        1 0.53664796E+00 0.41684787E+04</pdfrwt>
<pdfrwt beam="2">  1       -1 0.50691984E+00 0.41684787E+04</pdfrwt>
<totfact> 0.24703776E-04</totfact>
</mgrwt>
</event>
