<event>
12    1  0.2709711E-015  0.1848920E+04  0.7818608E-02  0.8680708E-01
          2   -1    0    0  501    0  0.00000000000E+00  0.00000000000E+00  0.16184293274E+04  0.16184293274E+04  0.00000000000E+00 0. -1.
         -2   -1    0    0    0  501 -0.00000000000E+00 -0.00000000000E+00 -0.52805900231E+03  0.52805900231E+03  0.00000000000E+00 0.  1.
    9900016    2    1    2    0    0  0.33781557208E+03  0.65844973674E+03  0.48682394430E+03  0.11915309221E+04  0.79691465607E+03 0.  0.
         24    2    3    3    0    0  0.25556294547E+03 -0.59747301756E+02  0.31101719355E+02  0.27601525348E+03  0.79592361720E+02 0.  0.
         23    2    4    4    0    0  0.15729667174E+03 -0.33196433150E+02  0.19408457939E+02  0.17250067978E+03  0.59460492514E+02 0.  0.
        -15    1    4    4    0    0  0.16470792344E+02  0.67296713252E+00 -0.23555859152E+00  0.16486217669E+02  0.00000000000E+00 0.  1.
        -15    1    5    5    0    0  0.48146700110E+02 -0.16314069000E+02 -0.20848907464E+02  0.54944795216E+02  0.00000000000E+00 0.  1.
         15    1    3    3    0    0  0.46894815946E+02  0.58210749603E+03  0.21523336350E+03  0.62239349407E+03  0.00000000000E+00 0. -1.
         15    1    5    5    0    0  0.10914997163E+03 -0.16882364151E+02  0.40257365403E+02  0.11755588457E+03  0.00000000000E+00 0. -1.
        -16    1    1    2    0    0 -0.33781557208E+03 -0.65844973674E+03  0.60354638080E+03  0.95495740760E+03  0.00000000000E+00 0.  1.
         16    1    4    4    0    0  0.81795481384E+02 -0.27223835739E+02  0.11928820008E+02  0.87028356034E+02  0.00000000000E+00 0. -1.
    9900018    1    3    3    0    0  0.35357810667E+02  0.13608954246E+03  0.24048886145E+03  0.29312217456E+03  0.91187600000E+02 0.  0.
<mgrwt>
<rscale>  0 0.18489199E+04</rscale>
<asrwt>0</asrwt>
<pdfrwt beam="1">  1        2 0.24898913E+00 0.18489199E+04</pdfrwt>
<pdfrwt beam="2">  1       -2 0.81239847E-01 0.18489199E+04</pdfrwt>
<totfact> 0.13673036E+01</totfact>
</mgrwt>
</event>
<event>
11    1  0.2709711E-015  0.1070936E+04  0.7818608E-02  0.9233992E-01
         -2   -1    0    0    0  501 -0.00000000000E+00  0.00000000000E+00  0.12095759233E+03  0.12095759233E+03  0.00000000000E+00 0. -1.
          2   -1    0    0  501    0  0.00000000000E+00 -0.00000000000E+00 -0.23704657027E+04  0.23704657027E+04  0.00000000000E+00 0.  1.
    9900016    2    1    2    0    0  0.15372972366E+03 -0.74610885922E+02 -0.13035041131E+04  0.15301100396E+04  0.78288833695E+03 0.  0.
         24    2    3    3    0    0 -0.81073663358E+02  0.13895256159E+03 -0.19022334474E+03  0.26195742758E+03  0.80969251699E+02 0.  0.
        -15    1    4    4    0    0 -0.50494553253E+01  0.14554076116E+02 -0.93487102378E+01  0.18019892169E+02  0.00000000000E+00 0.  1.
        -15    1    4    4    0    0 -0.27605366449E+02  0.18396641998E+01 -0.22881883790E+02  0.35902941759E+02  0.00000000000E+00 0.  1.
         15    1    4    4    0    0 -0.27740271348E+01  0.46018109149E+02 -0.58062664597E+02  0.74139291987E+02  0.00000000000E+00 0. -1.
         15    1    3    3    0    0 -0.14044212843E+03 -0.12230897889E+03 -0.20491062690E+03  0.27689680889E+03  0.00000000000E+00 0. -1.
        -16    1    1    2    0    0 -0.15372972366E+03  0.74610885922E+02 -0.94600399727E+03  0.96131325544E+03  0.00000000000E+00 0.  1.
         16    1    4    4    0    0 -0.45644814450E+02  0.76540712126E+02 -0.99930086113E+02  0.13389530167E+03  0.00000000000E+00 0. -1.
    9900018    1    3    3    0    0  0.37524551545E+03 -0.91254468621E+02 -0.90837014145E+03  0.99125580310E+03  0.91187600000E+02 0.  0.
<mgrwt>
<rscale>  0 0.10709357E+04</rscale>
<asrwt>0</asrwt>
<pdfrwt beam="1">  1        2 0.36468699E+00 0.10709357E+04</pdfrwt>
<pdfrwt beam="2">  1       -2 0.18608863E-01 0.10709357E+04</pdfrwt>
<totfact> 0.10043378E+02</totfact>
</mgrwt>
</event>
<event>
11    1  0.2709711E-015  0.1028485E+04  0.7818608E-02  0.9277843E-01
          1   -1    0    0  501    0  0.00000000000E+00  0.00000000000E+00  0.20745171160E+04  0.20745171160E+04  0.00000000000E+00 0. -1.
         -1   -1    0    0    0  501 -0.00000000000E+00 -0.00000000000E+00 -0.12747330657E+03  0.12747330657E+03  0.00000000000E+00 0.  1.
    9900016    2    1    2    0    0  0.16141327575E+03 -0.11422019724E+03  0.15934539636E+04  0.17968654071E+04  0.80655394005E+03 0.  0.
         24    2    3    3    0    0 -0.18849728882E+03 -0.50595576535E+02  0.66465990329E+03  0.69738906446E+03  0.80545514649E+02 0.  0.
        -15    1    4    4    0    0 -0.85551296268E+02 -0.52116251539E+01  0.31129405909E+03  0.32287795923E+03  0.00000000000E+00 0.  1.
        -15    1    4    4    0    0 -0.63168491455E+02 -0.31160378014E+02  0.18092207871E+03  0.19414949403E+03  0.00000000000E+00 0. -1.
         15    1    3    3    0    0 -0.12709669455E+02 -0.11428235970E+03  0.21677446311E+02  0.11701241436E+03  0.00000000000E+00 0. -1.
         15    1    4    4    0    0 -0.60077715771E+01  0.88405696702E+01  0.22004501597E+02  0.24463178084E+02  0.00000000000E+00 0.  1.
        -16    1    1    2    0    0 -0.16141327575E+03  0.11422019724E+03  0.35358984581E+03  0.40512501540E+03  0.00000000000E+00 0.  1.
         16    1    4    4    0    0 -0.33769729522E+02 -0.23064143037E+02  0.15043926389E+03  0.15589843311E+03  0.00000000000E+00 0. -1.
    9900018    1    3    3    0    0  0.36262023403E+03  0.50657738997E+02  0.90711661398E+03  0.98246392830E+03  0.91187600000E+02 0.  0.
<mgrwt>
<rscale>  0 0.10284854E+04</rscale>
<asrwt>0</asrwt>
<pdfrwt beam="1">  1        1 0.31915646E+00 0.10284854E+04</pdfrwt>
<pdfrwt beam="2">  1       -1 0.19611279E-01 0.10284854E+04</pdfrwt>
<totfact> 0.56398818E+01</totfact>
</mgrwt>
</event>
<event>
11    1  0.2709711E-015  0.8736559E+03  0.7818608E-02  0.9459125E-01
         -1   -1    0    0    0  501 -0.00000000000E+00  0.00000000000E+00  0.20784696235E+03  0.20784696235E+03  0.00000000000E+00 0.  1.
          1   -1    0    0  501    0  0.00000000000E+00 -0.00000000000E+00 -0.91807297251E+03  0.91807297251E+03  0.00000000000E+00 0. -1.
    9900016    2    1    2    0    0  0.63273220900E+02  0.55239895806E+02 -0.58515127947E+03  0.97525927367E+03  0.77567627555E+03 0.  0.
        -24    2    3    3    0    0  0.25973618692E+03 -0.71176935227E+02 -0.54185567059E+03  0.61037837882E+03  0.80157062547E+02 0.  0.
        -15    1    3    3    0    0 -0.87392277614E+02  0.18519796101E+03 -0.50342844567E+02  0.21087934215E+03  0.00000000000E+00 0.  1.
        -15    1    4    4    0    0  0.27535957211E+02  0.42234972560E+01 -0.68148245167E+02  0.73622348427E+02  0.00000000000E+00 0. -1.
         15    1    4    4    0    0  0.15734994452E+02 -0.92151456479E+01 -0.20864864966E+02  0.27710134423E+02  0.00000000000E+00 0.  1.
         15    1    4    4    0    0  0.73568056967E+02 -0.49190778424E+02 -0.18003255845E+03  0.20060835923E+03  0.00000000000E+00 0. -1.
        -16    1    4    4    0    0  0.14289717829E+03 -0.16994508411E+02 -0.27281000201E+03  0.30843753674E+03  0.00000000000E+00 0.  1.
         16    1    1    2    0    0 -0.63273220900E+02 -0.55239895806E+02 -0.12507473069E+03  0.15066066118E+03  0.00000000000E+00 0. -1.
    9900018    1    3    3    0    0 -0.10907068840E+03 -0.58781129975E+02  0.70472356842E+01  0.15400155270E+03  0.91187600000E+02 0.  0.
<mgrwt>
<rscale>  0 0.87365595E+03</rscale>
<asrwt>0</asrwt>
<pdfrwt beam="1">  1        1 0.14124200E+00 0.87365595E+03</pdfrwt>
<pdfrwt beam="2">  1       -1 0.31976456E-01 0.87365595E+03</pdfrwt>
<totfact> 0.16152017E+02</totfact>
</mgrwt>
</event>
<event>
11    1  0.2709711E-015  0.1226314E+04  0.7818608E-02  0.9090131E-01
         -2   -1    0    0    0  501 -0.00000000000E+00  0.00000000000E+00  0.52343407597E+03  0.52343407597E+03  0.00000000000E+00 0.  1.
          2   -1    0    0  501    0  0.00000000000E+00 -0.00000000000E+00 -0.71825925581E+03  0.71825925581E+03  0.00000000000E+00 0. -1.
    9900016    2    1    2    0    0  0.35875022712E+03 -0.58263439853E+02 -0.75135051472E+02  0.85904194904E+03  0.77473314138E+03 0.  0.
         24    2    3    3    0    0  0.12639748834E+03  0.22258571520E+03  0.41042830723E+02  0.27182947024E+03  0.81768094447E+02 0.  0.
        -15    1    4    4    0    0  0.30816093488E+02  0.35775306116E+02  0.11687426846E+02  0.48642574889E+02  0.00000000000E+00 0.  1.
        -15    1    4    4    0    0  0.16218516739E+02  0.55177447848E+02  0.30306336631E+02  0.65008192377E+02  0.00000000000E+00 0.  1.
         15    1    4    4    0    0  0.57015707127E+02  0.11143301552E+03 -0.12764394774E+02  0.12582145119E+03  0.00000000000E+00 0. -1.
         15    1    3    3    0    0  0.20763186449E+01 -0.12967269387E+03  0.14660745852E+03  0.19573723593E+03  0.00000000000E+00 0. -1.
        -16    1    1    2    0    0 -0.35875022712E+03  0.58263439853E+02 -0.11969012837E+03  0.38265138274E+03  0.00000000000E+00 0.  1.
         16    1    4    4    0    0  0.22347170983E+02  0.20199945718E+02  0.11813462020E+02  0.32357251781E+02  0.00000000000E+00 0. -1.
    9900018    1    3    3    0    0  0.23027642014E+03 -0.15117646118E+03 -0.26278534071E+03  0.39147524287E+03  0.91187600000E+02 0.  0.
<mgrwt>
<rscale>  0 0.12263138E+04</rscale>
<asrwt>0</asrwt>
<pdfrwt beam="1">  1        2 0.11050142E+00 0.12263138E+04</pdfrwt>
<pdfrwt beam="2">  1       -2 0.80528320E-01 0.12263138E+04</pdfrwt>
<totfact> 0.53220752E+01</totfact>
</mgrwt>
</event>
<event>
11    1  0.2709711E-015  0.1242231E+04  0.7818608E-02  0.9076674E-01
         -2   -1    0    0    0  501 -0.00000000000E+00  0.00000000000E+00  0.27702783857E+03  0.27702783857E+03  0.00000000000E+00 0.  1.
          2   -1    0    0  501    0  0.00000000000E+00 -0.00000000000E+00 -0.13925832787E+04  0.13925832787E+04  0.00000000000E+00 0. -1.
    9900016    2    1    2    0    0  0.22625985684E+03  0.57100405620E+02 -0.11703726313E+04  0.14299052484E+04  0.78765661556E+03 0.  0.
         24    2    3    3    0    0 -0.10128739333E+03  0.13487408062E+03 -0.41240018907E+02  0.19101465763E+03  0.79597151956E+02 0.  0.
        -15    1    4    4    0    0  0.17078151976E+01  0.32552851820E+02 -0.57619897497E+01  0.33102950325E+02  0.00000000000E+00 0.  1.
        -15    1    4    4    0    0 -0.67658596581E+01  0.28757368352E+02 -0.18536457280E+02  0.34876400902E+02  0.00000000000E+00 0.  1.
         15    1    3    3    0    0  0.13586824425E+03  0.14125414312E+03 -0.55796566419E+03  0.59138700963E+03  0.00000000000E+00 0. -1.
         15    1    4    4    0    0 -0.11357591265E+02  0.14485232716E+02 -0.37882442959E+01  0.18792755014E+02  0.00000000000E+00 0. -1.
        -16    1    1    2    0    0 -0.22625985684E+03 -0.57100405620E+02  0.54817191186E+02  0.23970586890E+03  0.00000000000E+00 0.  1.
         16    1    4    4    0    0 -0.84871757602E+02  0.59078627731E+02 -0.13153327582E+02  0.10424255139E+03  0.00000000000E+00 0. -1.
    9900018    1    3    3    0    0  0.19167900592E+03 -0.21902781812E+03 -0.57116694824E+03  0.64750358113E+03  0.91187600000E+02 0.  0.
<mgrwt>
<rscale>  0 0.12422308E+04</rscale>
<asrwt>0</asrwt>
<pdfrwt beam="1">  1        2 0.21424358E+00 0.12422308E+04</pdfrwt>
<pdfrwt beam="2">  1       -2 0.42619667E-01 0.12422308E+04</pdfrwt>
<totfact> 0.75007551E+01</totfact>
</mgrwt>
</event>
