<event>
10    1  0.5730074E-014  0.3095586E+04  0.7818608E-02  0.8216950E-01
         -1   -1    0    0    0  501 -0.00000000000E+00  0.00000000000E+00  0.21311859687E+04  0.21311859687E+04  0.00000000000E+00 0.  1.
          1   -1    0    0  501    0  0.00000000000E+00 -0.00000000000E+00 -0.11240983737E+04  0.11240983737E+04  0.00000000000E+00 0. -1.
        -24    2    1    2    0    0  0.40823734412E+02  0.42644802002E+03  0.71397848125E+03  0.83649512121E+03  0.80214244681E+02 0.  0.
        -15    1    1    2    0    0 -0.11698676966E+03 -0.10627421643E+03  0.28656379774E+03  0.32725971877E+03  0.00000000000E+00 0.  1.
        -15    1    1    2    0    0 -0.10105818900E+02 -0.42253198871E+03 -0.15028727367E+03  0.44857738873E+03  0.00000000000E+00 0.  1.
         15    1    3    3    0    0  0.59018758021E+02  0.28927443182E+03  0.52426875837E+03  0.60168151185E+03  0.00000000000E+00 0. -1.
         15    1    1    2    0    0 -0.11247951595E+03  0.31016628107E+03 -0.20575947119E+03  0.38883379920E+03  0.00000000000E+00 0. -1.
        -16    1    3    3    0    0 -0.18195023609E+02  0.13717358820E+03  0.18970972288E+03  0.23481360936E+03  0.00000000000E+00 0.  1.
         16    1    1    2    0    0  0.56355774405E+03 -0.47679149294E+03  0.22738324179E+03  0.77241866709E+03  0.00000000000E+00 0. -1.
    9900018    1    1    2    0    0 -0.36480937395E+03  0.26898339699E+03  0.13520881900E+03  0.48169964740E+03  0.91187600000E+02 0.  0.
<mgrwt>
<rscale>  0 0.30955857E+04</rscale>
<asrwt>0</asrwt>
<pdfrwt beam="1">  1        1 0.17293821E+00 0.30955857E+04</pdfrwt>
<pdfrwt beam="2">  1       -1 0.32787476E+00 0.30955857E+04</pdfrwt>
<totfact> 0.22310004E-01</totfact>
</mgrwt>
</event>
<event>
11    1  0.5730074E-014  0.2454604E+04  0.7818608E-02  0.8957503E-01
          2   -1    0    0  501    0  0.00000000000E+00  0.00000000000E+00  0.16325342133E+04  0.16325342133E+04  0.00000000000E+00 0. -1.
         -2   -1    0    0    0  501 -0.00000000000E+00 -0.00000000000E+00 -0.12631661093E+04  0.12631661093E+04  0.00000000000E+00 0.  1.
        -24    2    1    2    0    0  0.24341550936E+03  0.20231101113E+02 -0.25667049568E+03  0.36251935959E+03  0.76682038816E+02 0.  0.
    9900016    2    1    2    0    0 -0.59187577754E+03 -0.10552674105E+03  0.65913368530E+03  0.21729099686E+04  0.19813196833E+04 0.  0.
        -15    1    4    4    0    0  0.17872983073E+03 -0.29644933518E+03 -0.17378425847E+03  0.38733387305E+03  0.00000000000E+00 0.  1.
        -15    1    1    2    0    0  0.34846026818E+03  0.85295639938E+02 -0.33095085614E+02  0.36027099437E+03  0.00000000000E+00 0.  1.
         15    1    4    4    0    0 -0.61453132232E+03  0.66047887284E+03  0.76165256645E+03  0.11806759587E+04  0.00000000000E+00 0. -1.
         15    1    3    3    0    0  0.58014011911E+02  0.33132487394E+02 -0.95318738162E+02  0.11640038292E+03  0.00000000000E+00 0. -1.
        -16    1    3    3    0    0  0.18540149745E+03 -0.12901386282E+02 -0.16135175752E+03  0.24611897667E+03  0.00000000000E+00 0.  1.
         16    1    4    4    0    0  0.62465443461E+02 -0.94025960016E+02 -0.77221337497E+02  0.13676968871E+03  0.00000000000E+00 0. -1.
    9900018    1    4    4    0    0 -0.21853972941E+03 -0.37553031869E+03  0.14848671481E+03  0.46813044812E+03  0.91187600000E+02 0.  0.
<mgrwt>
<rscale>  0 0.13949218E+04</rscale>
<asrwt>0</asrwt>
<pdfrwt beam="1">  1        2 0.25115911E+00 0.24546041E+04</pdfrwt>
<pdfrwt beam="2">  1       -2 0.19433325E+00 0.24546041E+04</pdfrwt>
<totfact> 0.13688878E+00</totfact>
</mgrwt>
</event>
<event>
12    1  0.5730074E-014  0.4090577E+04  0.7818608E-02  0.8690126E-01
         -2   -1    0    0    0  501 -0.00000000000E+00  0.00000000000E+00  0.30226620050E+04  0.30226620050E+04  0.00000000000E+00 0.  1.
          2   -1    0    0  501    0  0.00000000000E+00 -0.00000000000E+00 -0.14987933587E+04  0.14987933587E+04  0.00000000000E+00 0. -1.
        -24    2    1    2    0    0  0.10528518739E+03 -0.10181763407E+03  0.87790542970E+02  0.18611900914E+03  0.74035834819E+02 0.  0.
    9900016    2    1    2    0    0 -0.73707137295E+02  0.76542020040E+03 -0.63297206814E+03  0.21622431325E+04  0.19192031940E+04 0.  0.
         24    2    4    4    0    0 -0.16281363936E+03 -0.44378560266E+03 -0.32129849278E+03  0.58035956026E+03  0.10065066035E+03 0.  0.
        -15    1    5    5    0    0 -0.80479844811E+02 -0.33775117770E+03 -0.25394756526E+03  0.43016535119E+03  0.00000000000E+00 0.  1.
        -15    1    1    2    0    0 -0.31578050094E+02 -0.66360256632E+03  0.20690501715E+04  0.21730932220E+04  0.00000000000E+00 0.  1.
         15    1    3    3    0    0  0.92069619480E+02 -0.11268635201E+03  0.70148218295E+02  0.16154194901E+03  0.00000000000E+00 0. -1.
         15    1    4    4    0    0  0.15168850293E+03  0.64379051768E+03  0.31330320415E+03  0.73187056937E+03  0.00000000000E+00 0. -1.
        -16    1    3    3    0    0  0.13215567910E+02  0.10868717936E+02  0.17642324676E+02  0.24577060132E+02  0.00000000000E+00 0.  1.
         16    1    5    5    0    0 -0.82333794547E+02 -0.10603442496E+03 -0.67350927523E+02  0.15019420907E+03  0.00000000000E+00 0. -1.
    9900018    1    4    4    0    0 -0.62582000870E+02  0.56541528538E+03 -0.62497677950E+03  0.85001300289E+03  0.91187600000E+02 0.  0.
<mgrwt>
<rscale>  0 0.18307298E+04</rscale>
<asrwt>0</asrwt>
<pdfrwt beam="1">  1        2 0.23058359E+00 0.40905771E+04</pdfrwt>
<pdfrwt beam="2">  1       -2 0.46502493E+00 0.40905771E+04</pdfrwt>
<totfact> 0.27373309E-02</totfact>
</mgrwt>
</event>
