<event>
12    1  0.2426958E-013  0.1070968E+04  0.7818608E-02  0.9233960E-01
          1   -1    0    0  501    0  0.00000000000E+00  0.00000000000E+00  0.57843475849E+03  0.57843475849E+03  0.00000000000E+00 0. -1.
         -1   -1    0    0    0  501 -0.00000000000E+00 -0.00000000000E+00 -0.49572221606E+03  0.49572221606E+03  0.00000000000E+00 0.  1.
    9900016    2    1    2    0    0 -0.18434967791E+03  0.87473336089E+02 -0.26323892921E+02  0.69444188505E+03  0.66326480089E+03 0.  0.
         23    2    3    3    0    0 -0.72714284761E+02 -0.50678009504E+02  0.24496407382E+03  0.27569575214E+03  0.90250332031E+02 0.  0.
         23    2    3    3    0    0 -0.39876872518E+01  0.84919579325E+01  0.65271777013E+01  0.93814078661E+02  0.93115317253E+02 0.  0.
        -15    1    5    5    0    0 -0.46066644440E+02  0.82453929165E+01  0.18092020399E+02  0.50174131148E+02  0.00000000000E+00 0. -1.
        -15    1    4    4    0    0  0.13246986663E+02 -0.29261757465E+02  0.10718010912E+03  0.11188971756E+03  0.00000000000E+00 0. -1.
         15    1    4    4    0    0 -0.85961271424E+02 -0.21416252039E+02  0.13778396470E+03  0.16380603458E+03  0.00000000000E+00 0.  1.
         15    1    5    5    0    0  0.42078957188E+02  0.24656501598E+00 -0.11564842698E+02  0.43639947513E+02  0.00000000000E+00 0.  1.
        -16    1    3    3    0    0 -0.10764770590E+03  0.12965938766E+03 -0.27781514444E+03  0.32493205424E+03  0.00000000000E+00 0.  1.
         16    1    1    2    0    0  0.23671295542E+03 -0.95641292298E+02  0.54807677534E+02  0.26112097115E+03  0.00000000000E+00 0. -1.
    9900018    1    1    2    0    0 -0.52363277509E+02  0.81679562093E+01  0.54228757813E+02  0.11859411835E+03  0.91187600000E+02 0.  0.
<mgrwt>
<rscale>  0 0.10709677E+04</rscale>
<asrwt>0</asrwt>
<pdfrwt beam="1">  1        1 0.88989963E-01 0.10709677E+04</pdfrwt>
<pdfrwt beam="2">  1       -1 0.76264957E-01 0.10709677E+04</pdfrwt>
<totfact> 0.62250670E+01</totfact>
</mgrwt>
</event>
<event>
12    1  0.2426958E-013  0.1300688E+04  0.7818608E-02  0.9029020E-01
         -2   -1    0    0    0  501 -0.00000000000E+00  0.00000000000E+00  0.23492369297E+03  0.23492369297E+03  0.00000000000E+00 0.  1.
          2   -1    0    0  501    0  0.00000000000E+00 -0.00000000000E+00 -0.18003606635E+04  0.18003606635E+04  0.00000000000E+00 0. -1.
    9900016    2    1    2    0    0  0.21745549104E+02 -0.85643352340E+02 -0.38871489890E+03  0.85524940505E+03  0.75666678235E+03 0.  0.
         23    2    3    3    0    0  0.11756565062E+03  0.15491664453E+03  0.65303743596E+02  0.22227602051E+03  0.85564019364E+02 0.  0.
         23    2    3    3    0    0 -0.51821971566E+02 -0.15178847156E+03 -0.32067083395E+03  0.37011716872E+03  0.91824168946E+02 0.  0.
        -15    1    4    4    0    0  0.94024783495E+02  0.60815046233E+02  0.14913459554E+02  0.11296699091E+03  0.00000000000E+00 0.  1.
        -15    1    5    5    0    0 -0.47239100593E+02 -0.12270653158E+03 -0.16154708103E+03  0.20829278650E+03  0.00000000000E+00 0.  1.
         15    1    4    4    0    0  0.23540867124E+02  0.94101598293E+02  0.50390284042E+02  0.10930902960E+03  0.00000000000E+00 0. -1.
         15    1    5    5    0    0 -0.45828709728E+01 -0.29081939974E+02 -0.15912375292E+03  0.16182438222E+03  0.00000000000E+00 0. -1.
        -16    1    3    3    0    0 -0.70814438720E+02 -0.10716889261E+03 -0.62248042158E+02  0.14273988590E+03  0.00000000000E+00 0.  1.
         16    1    1    2    0    0 -0.21745549104E+02  0.85643352340E+02 -0.11767220716E+04  0.11800349514E+04  0.00000000000E+00 0. -1.
    9900018    1    3    3    0    0  0.26816308771E+02  0.18397367296E+02 -0.71099766383E+02  0.12011632992E+03  0.91187600000E+02 0.  0.
<mgrwt>
<rscale>  0 0.13006881E+04</rscale>
<asrwt>0</asrwt>
<pdfrwt beam="1">  1        2 0.27697855E+00 0.13006881E+04</pdfrwt>
<pdfrwt beam="2">  1       -2 0.36142109E-01 0.13006881E+04</pdfrwt>
<totfact> 0.60891978E+01</totfact>
</mgrwt>
</event>
<event>
12    1  0.2426958E-013  0.1213397E+04  0.7818608E-02  0.9101211E-01
         -2   -1    0    0    0  501 -0.00000000000E+00  0.00000000000E+00  0.38156507493E+03  0.38156507493E+03  0.00000000000E+00 0.  1.
          2   -1    0    0  501    0  0.00000000000E+00 -0.00000000000E+00 -0.96466591601E+03  0.96466591601E+03  0.00000000000E+00 0. -1.
    9900016    2    1    2    0    0  0.27845370999E+03  0.51607430869E+02 -0.15418165160E+03  0.73077771863E+03  0.65579287647E+03 0.  0.
         23    2    3    3    0    0  0.12617525668E+02  0.10061549337E+03 -0.75502453136E+02  0.15568752407E+03  0.90858710434E+02 0.  0.
         23    2    3    3    0    0 -0.12879477896E+03 -0.73269460434E+02 -0.21062545591E+02  0.17553808119E+03  0.91725014041E+02 0.  0.
        -15    1    5    5    0    0 -0.61411449795E+02 -0.83183799132E+02 -0.27877875075E+02  0.10708915222E+03  0.00000000000E+00 0.  1.
        -15    1    4    4    0    0  0.24584239609E+02  0.10169878539E+03 -0.30317124695E+02  0.10893188622E+03  0.00000000000E+00 0. -1.
         15    1    4    4    0    0 -0.11966713941E+02 -0.10832920176E+01 -0.45185328442E+02  0.46755637848E+02  0.00000000000E+00 0.  1.
         15    1    5    5    0    0 -0.67383329167E+02  0.99143386983E+01  0.68153294843E+01  0.68448928972E+02  0.00000000000E+00 0. -1.
        -16    1    3    3    0    0  0.39463096328E+03  0.24261397931E+02 -0.57616652876E+02  0.39955211337E+03  0.00000000000E+00 0.  1.
         16    1    1    2    0    0 -0.32871749021E+03 -0.68131861031E+02 -0.33501416698E+03  0.47426957623E+03  0.00000000000E+00 0. -1.
    9900018    1    1    2    0    0  0.50263780221E+02  0.16524430162E+02 -0.93905022501E+02  0.14118369608E+03  0.91187600000E+02 0.  0.
<mgrwt>
<rscale>  0 0.12133966E+04</rscale>
<asrwt>0</asrwt>
<pdfrwt beam="1">  1        2 0.14841014E+00 0.12133966E+04</pdfrwt>
<pdfrwt beam="2">  1       -2 0.58702318E-01 0.12133966E+04</pdfrwt>
<totfact> 0.71017145E+01</totfact>
</mgrwt>
</event>
<event>
12    1  0.2426958E-013  0.1902518E+04  0.7818608E-02  0.8653604E-01
         -5   -1    0    0    0  501 -0.00000000000E+00  0.00000000000E+00  0.16769211271E+04  0.16769211271E+04  0.00000000000E+00 0.  1.
          5   -1    0    0  501    0  0.00000000000E+00 -0.00000000000E+00 -0.53961591178E+03  0.53961591178E+03  0.00000000000E+00 0. -1.
    9900016    2    1    2    0    0  0.25741283765E+02 -0.14531518275E+03 -0.18308537439E+03  0.69733057551E+03  0.65648348128E+03 0.  0.
         23    2    3    3    0    0 -0.12414467210E+03  0.10764520862E+03  0.10842500879E+03  0.21671031467E+03  0.90597943695E+02 0.  0.
         23    2    3    3    0    0  0.55051725461E+02 -0.10366510714E+03 -0.26236793452E+03  0.30136654271E+03  0.90596429760E+02 0.  0.
        -15    1    5    5    0    0  0.17052587747E+01 -0.45975131325E+02 -0.18668634226E+03  0.19227171137E+03  0.00000000000E+00 0. -1.
        -15    1    4    4    0    0 -0.84759733039E+01  0.59435289084E+02  0.19772310052E+02  0.63208701591E+02  0.00000000000E+00 0. -1.
         15    1    4    4    0    0 -0.11566869880E+03  0.48209919532E+02  0.88652698736E+02  0.15350161307E+03  0.00000000000E+00 0.  1.
         15    1    5    5    0    0  0.53346466686E+02 -0.57689975815E+02 -0.75681592264E+02  0.10909483134E+03  0.00000000000E+00 0.  1.
        -16    1    1    2    0    0 -0.77862840473E+02  0.14665579949E+03  0.13856373668E+04  0.13955505931E+04  0.00000000000E+00 0.  1.
         16    1    3    3    0    0  0.94834230408E+02 -0.14929528423E+03 -0.29142448660E+02  0.17925371813E+03  0.00000000000E+00 0. -1.
    9900018    1    1    2    0    0  0.52121556707E+02 -0.13406167332E+01 -0.65246777157E+02  0.12365587026E+03  0.91187600000E+02 0.  0.
<mgrwt>
<rscale>  0 0.19025176E+04</rscale>
<asrwt>0</asrwt>
<pdfrwt beam="1">  1        5 0.83017833E-01 0.19025176E+04</pdfrwt>
<pdfrwt beam="2">  1       -5 0.25798786E+00 0.19025176E+04</pdfrwt>
<totfact> 0.50692517E-02</totfact>
</mgrwt>
</event>
<event>
12    1  0.2426958E-013  0.8750404E+03  0.7818608E-02  0.9457331E-01
          2   -1    0    0  501    0  0.00000000000E+00  0.00000000000E+00  0.15049226169E+04  0.15049226169E+04  0.00000000000E+00 0. -1.
         -2   -1    0    0    0  501 -0.00000000000E+00 -0.00000000000E+00 -0.12719851014E+03  0.12719851014E+03  0.00000000000E+00 0.  1.
    9900016    2    1    2    0    0 -0.17015813316E+02 -0.36442259339E+02  0.10261126328E+04  0.12782168959E+04  0.76112661345E+03 0.  0.
         23    2    3    3    0    0 -0.10606963059E+03 -0.69844235034E+02  0.15198644068E+03  0.21806480868E+03  0.91232663742E+02 0.  0.
         23    2    3    3    0    0  0.13727886777E+03  0.22984427741E+03  0.31755329957E+03  0.42520265153E+03  0.91012732098E+02 0.  0.
        -15    1    4    4    0    0 -0.73406851046E+02 -0.38507677714E+01  0.39029198214E+02  0.83226633394E+02  0.00000000000E+00 0.  1.
        -15    1    5    5    0    0  0.70215636721E+02  0.86208965854E+02  0.19639331916E+03  0.22568242564E+03  0.00000000000E+00 0.  1.
         15    1    4    4    0    0 -0.32662779543E+02 -0.65993467263E+02  0.11295724247E+03  0.13483817529E+03  0.00000000000E+00 0. -1.
         15    1    5    5    0    0  0.67063231046E+02  0.14363531156E+03  0.12115998042E+03  0.19952022589E+03  0.00000000000E+00 0. -1.
        -16    1    3    3    0    0 -0.10584133468E+02 -0.20363672769E+03  0.33299164016E+03  0.39046558512E+03  0.00000000000E+00 0.  1.
         16    1    1    2    0    0  0.17015813316E+02  0.36442259339E+02  0.35161147402E+03  0.35390423115E+03  0.00000000000E+00 0. -1.
    9900018    1    3    3    0    0 -0.37640917025E+02  0.71944259729E+01  0.22358125235E+03  0.24448385059E+03  0.91187600000E+02 0.  0.
<mgrwt>
<rscale>  0 0.87504038E+03</rscale>
<asrwt>0</asrwt>
<pdfrwt beam="1">  1        2 0.23152654E+00 0.87504038E+03</pdfrwt>
<pdfrwt beam="2">  1       -2 0.19569003E-01 0.87504038E+03</pdfrwt>
<totfact> 0.28120548E+02</totfact>
</mgrwt>
</event>
<event>
12    1  0.2426958E-013  0.8474898E+03  0.7818608E-02  0.9493712E-01
          2   -1    0    0  501    0  0.00000000000E+00  0.00000000000E+00  0.30648905995E+03  0.30648905995E+03  0.00000000000E+00 0. -1.
         -2   -1    0    0    0  501 -0.00000000000E+00 -0.00000000000E+00 -0.58586019874E+03  0.58586019874E+03  0.00000000000E+00 0.  1.
    9900016    2    1    2    0    0  0.17934340144E+02  0.11887909545E+02 -0.33254763008E+03  0.83498461648E+03  0.76560330495E+03 0.  0.
         23    2    3    3    0    0  0.71467509729E+02 -0.20974852150E+03 -0.15552591225E+02  0.23965982434E+03  0.89960552989E+02 0.  0.
         23    2    3    3    0    0 -0.82631498463E+02  0.11053108778E+03 -0.31412720721E+03  0.35553176957E+03  0.93176450689E+02 0.  0.
        -15    1    5    5    0    0 -0.12390267725E+02  0.89568261156E+02 -0.20517508120E+03  0.22421598089E+03  0.00000000000E+00 0. -1.
        -15    1    4    4    0    0  0.43856989541E+02 -0.85530294355E+02 -0.49280726237E+02  0.10801600234E+03  0.00000000000E+00 0.  1.
         15    1    4    4    0    0  0.27610520188E+02 -0.12421822714E+03  0.33728135013E+02  0.13164382200E+03  0.00000000000E+00 0. -1.
         15    1    5    5    0    0 -0.70241230737E+02  0.20962826623E+02 -0.10895212600E+03  0.13131578868E+03  0.00000000000E+00 0.  1.
        -16    1    3    3    0    0  0.14915889705E+02  0.14127772155E+03 -0.10177926996E+02  0.14242706404E+03  0.00000000000E+00 0.  1.
         16    1    1    2    0    0 -0.17934340144E+02 -0.11887909545E+02  0.53176491283E+02  0.57364642202E+02  0.00000000000E+00 0. -1.
    9900018    1    3    3    0    0  0.14182439173E+02 -0.30172378289E+02  0.73100953503E+01  0.97365958529E+02  0.91187600000E+02 0.  0.
<mgrwt>
<rscale>  0 0.84748980E+03</rscale>
<asrwt>0</asrwt>
<pdfrwt beam="1">  1        2 0.47152164E-01 0.84748980E+03</pdfrwt>
<pdfrwt beam="2">  1       -2 0.90132337E-01 0.84748980E+03</pdfrwt>
<totfact> 0.11355737E+02</totfact>
</mgrwt>
</event>
<event>
12    1  0.2426958E-013  0.1022859E+04  0.7818608E-02  0.9283822E-01
          1   -1    0    0  501    0  0.00000000000E+00  0.00000000000E+00  0.52407600319E+03  0.52407600319E+03  0.00000000000E+00 0. -1.
         -1   -1    0    0    0  501 -0.00000000000E+00 -0.00000000000E+00 -0.49908859447E+03  0.49908859447E+03  0.00000000000E+00 0.  1.
    9900016    2    1    2    0    0 -0.40064617370E+02 -0.16851189122E+03 -0.13792179939E+03  0.69438678580E+03  0.65814067987E+03 0.  0.
         23    2    3    3    0    0  0.14976257323E+03  0.12774967359E+03 -0.15048641661E+03  0.26405455336E+03  0.91267946857E+02 0.  0.
         23    2    3    3    0    0 -0.12651831194E+03 -0.31102112545E+03 -0.37032496633E+02  0.34856590411E+03  0.85940444316E+02 0.  0.
        -15    1    4    4    0    0  0.58205566450E+02  0.10236714697E+03 -0.10871173872E+03  0.16026591303E+03  0.00000000000E+00 0.  1.
        -15    1    5    5    0    0 -0.97920737780E+02 -0.25631902827E+03 -0.63120496969E+02  0.28155303635E+03  0.00000000000E+00 0.  1.
         15    1    4    4    0    0  0.91557006780E+02  0.25382526622E+02 -0.41774677883E+02  0.10378864032E+03  0.00000000000E+00 0. -1.
         15    1    5    5    0    0 -0.28597574164E+02 -0.54702097172E+02  0.26088000336E+02  0.67012867754E+02  0.00000000000E+00 0. -1.
        -16    1    3    3    0    0 -0.63308878657E+02  0.14759560630E+02  0.49597113850E+02  0.81766328333E+02  0.00000000000E+00 0.  1.
         16    1    1    2    0    0  0.17261469566E+02  0.14887340251E+03  0.17677625797E+03  0.23175653968E+03  0.00000000000E+00 0. -1.
    9900018    1    1    2    0    0  0.22803147804E+02  0.19638488715E+02 -0.13867049855E+02  0.97021272174E+02  0.91187600000E+02 0.  0.
<mgrwt>
<rscale>  0 0.10228594E+04</rscale>
<asrwt>0</asrwt>
<pdfrwt beam="1">  1        1 0.80627077E-01 0.10228594E+04</pdfrwt>
<pdfrwt beam="2">  1       -1 0.76782861E-01 0.10228594E+04</pdfrwt>
<totfact> 0.70780908E+01</totfact>
</mgrwt>
</event>
<event>
12    1  0.2426958E-013  0.1922433E+04  0.7818608E-02  0.8643770E-01
         -2   -1    0    0    0  501 -0.00000000000E+00  0.00000000000E+00  0.70567765453E+03  0.70567765453E+03  0.00000000000E+00 0.  1.
          2   -1    0    0  501    0  0.00000000000E+00 -0.00000000000E+00 -0.13092911374E+04  0.13092911374E+04  0.00000000000E+00 0. -1.
    9900016    2    1    2    0    0 -0.41372596059E+03  0.16086496693E+02 -0.10799693433E+04  0.13838247104E+04  0.75974278599E+03 0.  0.
         23    2    3    3    0    0 -0.19694948862E+03 -0.34101101795E+02 -0.56623352827E+03  0.60779126995E+03  0.94009749970E+02 0.  0.
         23    2    3    3    0    0 -0.16618938516E+02  0.18540275089E+03 -0.43205979097E+02  0.21114360254E+03  0.89802533982E+02 0.  0.
        -15    1    4    4    0    0 -0.41602390627E+02  0.31448850971E+02 -0.14251108518E+03  0.15175374306E+03  0.00000000000E+00 0.  1.
        -15    1    5    5    0    0  0.11315882405E+02  0.17538801188E+03 -0.44972451430E+02  0.18141533919E+03  0.00000000000E+00 0. -1.
         15    1    4    4    0    0 -0.15534709799E+03 -0.65549952765E+02 -0.42372244308E+03  0.45603752689E+03  0.00000000000E+00 0. -1.
         15    1    5    5    0    0 -0.27934820921E+02  0.10014739009E+02  0.17664723326E+01  0.29728263350E+02  0.00000000000E+00 0.  1.
        -16    1    1    2    0    0  0.41372596059E+03 -0.16086496693E+02  0.47635586044E+03  0.63114408150E+03  0.00000000000E+00 0.  1.
         16    1    3    3    0    0 -0.99836035542E+02 -0.13629581947E+03 -0.32305652488E+03  0.36456728140E+03  0.00000000000E+00 0. -1.
    9900018    1    3    3    0    0 -0.10032149791E+03  0.10806670660E+01 -0.14747331101E+03  0.20032255649E+03  0.91187600000E+02 0.  0.
<mgrwt>
<rscale>  0 0.19224334E+04</rscale>
<asrwt>0</asrwt>
<pdfrwt beam="1">  1        2 0.20142940E+00 0.19224334E+04</pdfrwt>
<pdfrwt beam="2">  1       -2 0.10856579E+00 0.19224334E+04</pdfrwt>
<totfact> 0.10353785E+01</totfact>
</mgrwt>
</event>
<event>
12    1  0.2426958E-013  0.1613049E+04  0.7818608E-02  0.8812571E-01
          1   -1    0    0  501    0  0.00000000000E+00  0.00000000000E+00  0.98000594897E+03  0.98000594897E+03  0.00000000000E+00 0. -1.
         -1   -1    0    0    0  501 -0.00000000000E+00 -0.00000000000E+00 -0.66375284421E+03  0.66375284421E+03  0.00000000000E+00 0.  1.
    9900016    2    1    2    0    0 -0.44089858353E+03 -0.32867533809E+03  0.50530189021E+03  0.10622448362E+04  0.75539066255E+03 0.  0.
         23    2    3    3    0    0  0.11148922361E+02  0.71424765051E+02 -0.24197729487E+02  0.11915457039E+03  0.91577759304E+02 0.  0.
         23    2    3    3    0    0 -0.25292058719E+02 -0.22057620014E+03  0.23377882800E+03  0.33507639251E+03  0.91269382029E+02 0.  0.
        -15    1    5    5    0    0 -0.54508081091E+02 -0.14168284664E+03  0.17890980864E+03  0.23463563148E+03  0.00000000000E+00 0. -1.
        -15    1    4    4    0    0  0.80551227884E+01  0.88651335935E+02  0.33665806348E+00  0.89017176459E+02  0.00000000000E+00 0.  1.
         15    1    4    4    0    0  0.30937995731E+01 -0.17226570884E+02 -0.24534387550E+02  0.30137393927E+02  0.00000000000E+00 0. -1.
         15    1    5    5    0    0  0.29216022372E+02 -0.78893353505E+02  0.54869019364E+02  0.10044076103E+03  0.00000000000E+00 0.  1.
        -16    1    1    2    0    0  0.44089858353E+03  0.32867533809E+03 -0.18904878546E+03  0.58151395693E+03  0.00000000000E+00 0.  1.
         16    1    3    3    0    0 -0.40311519004E+03 -0.16342085458E+03  0.25423803640E+03  0.50383053828E+03  0.00000000000E+00 0. -1.
    9900018    1    3    3    0    0 -0.23640257135E+02 -0.16103048413E+02  0.41482755300E+02  0.10418333507E+03  0.91187600000E+02 0.  0.
<mgrwt>
<rscale>  0 0.16130490E+04</rscale>
<asrwt>0</asrwt>
<pdfrwt beam="1">  1        1 0.15077015E+00 0.16130490E+04</pdfrwt>
<pdfrwt beam="2">  1       -1 0.10211582E+00 0.16130490E+04</pdfrwt>
<totfact> 0.13661308E+01</totfact>
</mgrwt>
</event>
<event>
12    1  0.2426958E-013  0.1047074E+04  0.7818608E-02  0.9258370E-01
         -2   -1    0    0    0  501 -0.00000000000E+00  0.00000000000E+00  0.15149212827E+03  0.15149212827E+03  0.00000000000E+00 0.  1.
          2   -1    0    0  501    0  0.00000000000E+00 -0.00000000000E+00 -0.18092771229E+04  0.18092771229E+04  0.00000000000E+00 0. -1.
    9900016    2    1    2    0    0 -0.16538134480E+03  0.16372523341E+03 -0.10544860348E+04  0.13141421746E+04  0.74891382424E+03 0.  0.
         23    2    3    3    0    0 -0.16586667590E+03 -0.13685588513E+03 -0.42060121822E+03  0.48122779958E+03  0.91834213959E+02 0.  0.
         23    2    3    3    0    0  0.25341270332E+02 -0.54610094628E+02 -0.10927610623E+03  0.15455474887E+03  0.91222040032E+02 0.  0.
        -15    1    4    4    0    0 -0.87009473895E+02 -0.47120906990E+02 -0.10747971257E+03  0.14609215255E+03  0.00000000000E+00 0. -1.
        -15    1    5    5    0    0  0.32423735690E+02 -0.73733178568E+02 -0.57665834260E+02  0.99061741852E+02  0.00000000000E+00 0.  1.
         15    1    4    4    0    0 -0.78857202009E+02 -0.89734978137E+02 -0.31312150565E+03  0.33513564703E+03  0.00000000000E+00 0.  1.
         15    1    5    5    0    0 -0.70824653574E+01  0.19123083940E+02 -0.51610271971E+02  0.55493007017E+02  0.00000000000E+00 0. -1.
        -16    1    1    2    0    0  0.16538134480E+03 -0.16372523341E+03 -0.60329895982E+03  0.64662707659E+03  0.00000000000E+00 0.  1.
         16    1    3    3    0    0 -0.11034513147E+02  0.33012160018E+03 -0.44362979151E+03  0.55309079119E+03  0.00000000000E+00 0. -1.
    9900018    1    3    3    0    0 -0.13821426076E+02  0.25069612985E+02 -0.80978918834E+02  0.12526883492E+03  0.91187600000E+02 0.  0.
<mgrwt>
<rscale>  0 0.10470745E+04</rscale>
<asrwt>0</asrwt>
<pdfrwt beam="1">  1        2 0.27835032E+00 0.10470745E+04</pdfrwt>
<pdfrwt beam="2">  1       -2 0.23306482E-01 0.10470745E+04</pdfrwt>
<totfact> 0.13841523E+02</totfact>
</mgrwt>
</event>
<event>
12    1  0.2426958E-013  0.1193337E+04  0.7818608E-02  0.9118709E-01
         -3   -1    0    0    0  501 -0.00000000000E+00  0.00000000000E+00  0.20276134031E+04  0.20276134031E+04  0.00000000000E+00 0.  1.
          3   -1    0    0  501    0  0.00000000000E+00 -0.00000000000E+00 -0.17558243263E+03  0.17558243263E+03  0.00000000000E+00 0. -1.
    9900016    2    1    2    0    0 -0.11898489065E+03 -0.22001572846E+03  0.95280603038E+03  0.11845395188E+04  0.65782232788E+03 0.  0.
         23    2    3    3    0    0 -0.56739945450E+02 -0.27584383731E+02 -0.62798128711E+02  0.12634506962E+03  0.89661318373E+02 0.  0.
         23    2    3    3    0    0 -0.68658274087E+02 -0.20322452943E+03  0.62731603649E+03  0.66970340708E+03  0.94673522459E+02 0.  0.
        -15    1    5    5    0    0  0.17745079061E+02 -0.75699227838E+02  0.26051966937E+03  0.27187452815E+03  0.00000000000E+00 0.  1.
        -15    1    4    4    0    0 -0.35622859891E+02 -0.59534808109E+02 -0.28747706743E+02  0.75098682854E+02  0.00000000000E+00 0.  1.
         15    1    4    4    0    0 -0.21117085559E+02  0.31950424378E+02 -0.34050421969E+02  0.51246386767E+02  0.00000000000E+00 0. -1.
         15    1    5    5    0    0 -0.86403353148E+02 -0.12752530159E+03  0.36679636712E+03  0.39782887893E+03  0.00000000000E+00 0. -1.
        -16    1    3    3    0    0  0.64133288910E+01  0.10793184698E+02  0.38828812260E+03  0.38849104207E+03  0.00000000000E+00 0.  1.
         16    1    1    2    0    0  0.18773798703E+03  0.28454176141E+03  0.71932293120E+03  0.79601196292E+03  0.00000000000E+00 0. -1.
    9900018    1    1    2    0    0 -0.68753096385E+02 -0.64526032946E+02  0.17990200892E+03  0.22264435406E+03  0.91187600000E+02 0.  0.
<mgrwt>
<rscale>  0 0.11933370E+04</rscale>
<asrwt>0</asrwt>
<pdfrwt beam="1">  1        3 0.27012683E-01 0.11933370E+04</pdfrwt>
<pdfrwt beam="2">  1       -3 0.31194051E+00 0.11933370E+04</pdfrwt>
<totfact> 0.11268968E+00</totfact>
</mgrwt>
</event>
<event>
12    1  0.2426958E-013  0.1113837E+04  0.7818608E-02  0.9191809E-01
          1   -1    0    0  501    0  0.00000000000E+00  0.00000000000E+00  0.86603611945E+03  0.86603611945E+03  0.00000000000E+00 0. -1.
         -1   -1    0    0    0  501 -0.00000000000E+00 -0.00000000000E+00 -0.35813541048E+03  0.35813541048E+03  0.00000000000E+00 0.  1.
    9900016    2    1    2    0    0  0.74945128249E+02 -0.15606074944E+03  0.44502436126E+03  0.81028484388E+03  0.65463204653E+03 0.  0.
         23    2    3    3    0    0  0.14123505312E+03  0.56640206527E+02  0.40897116383E+03  0.44608342936E+03  0.92615116883E+02 0.  0.
         23    2    3    3    0    0 -0.96768308897E+02  0.12092152984E+02  0.31919337854E+02  0.13731385973E+03  0.91246513222E+02 0.  0.
        -15    1    5    5    0    0 -0.58718916259E+02 -0.21319254861E+02  0.53521658292E+02  0.82261714429E+02  0.00000000000E+00 0. -1.
        -15    1    4    4    0    0  0.13918521606E+03  0.75217377891E+02  0.34720378514E+03  0.38155032004E+03  0.00000000000E+00 0. -1.
         15    1    4    4    0    0  0.20498370635E+01 -0.18577171363E+02  0.61767378690E+02  0.64533109317E+02  0.00000000000E+00 0.  1.
         15    1    5    5    0    0 -0.38049392638E+02  0.33411407845E+02 -0.21602320438E+02  0.55052145304E+02  0.00000000000E+00 0.  1.
        -16    1    3    3    0    0  0.30478384022E+02 -0.22479310895E+03  0.41338595780E+01  0.22688755479E+03  0.00000000000E+00 0.  1.
         16    1    1    2    0    0 -0.11331644678E+03  0.16052141028E+03 -0.10212790271E+03  0.22144491139E+03  0.00000000000E+00 0. -1.
    9900018    1    1    2    0    0  0.38371318529E+02 -0.44606608420E+01  0.16500425042E+03  0.19244177465E+03  0.91187600000E+02 0.  0.
<mgrwt>
<rscale>  0 0.11138370E+04</rscale>
<asrwt>0</asrwt>
<pdfrwt beam="1">  1        1 0.13323633E+00 0.11138370E+04</pdfrwt>
<pdfrwt beam="2">  1       -1 0.55097756E-01 0.11138370E+04</pdfrwt>
<totfact> 0.64351646E+01</totfact>
</mgrwt>
</event>
<event>
12    1  0.2426958E-013  0.9436011E+03  0.7818608E-02  0.9372661E-01
          2   -1    0    0  501    0  0.00000000000E+00  0.00000000000E+00  0.39984064469E+03  0.39984064469E+03  0.00000000000E+00 0. -1.
         -2   -1    0    0    0  501 -0.00000000000E+00 -0.00000000000E+00 -0.55671123646E+03  0.55671123646E+03  0.00000000000E+00 0.  1.
    9900016    2    1    2    0    0  0.24553402578E+02  0.12460023256E+03 -0.72666841053E+02  0.68009867808E+03  0.66417291017E+03 0.  0.
         23    2    3    3    0    0 -0.24111277401E+03 -0.51264134165E+02  0.13026018497E+01  0.26218153313E+03  0.89297694823E+02 0.  0.
         23    2    3    3    0    0  0.59445416877E+02 -0.71305013455E+01  0.43258242845E+02  0.11832333029E+03  0.92436644685E+02 0.  0.
        -15    1    4    4    0    0 -0.15745610964E+03 -0.59188000399E+02  0.34703578507E+02  0.17175559442E+03  0.00000000000E+00 0. -1.
        -15    1    5    5    0    0  0.30748122635E+02 -0.44265362883E+02  0.46633479277E+02  0.71270967344E+02  0.00000000000E+00 0.  1.
         15    1    4    4    0    0 -0.83656664367E+02  0.79238662339E+01 -0.33400976657E+02  0.90425938706E+02  0.00000000000E+00 0.  1.
         15    1    5    5    0    0  0.28697294241E+02  0.37134861537E+02 -0.33752364313E+01  0.47052362949E+02  0.00000000000E+00 0. -1.
        -16    1    1    2    0    0  0.20124661836E+02 -0.15176665513E+03 -0.76261515493E+02  0.17103782730E+03  0.00000000000E+00 0.  1.
         16    1    3    3    0    0  0.20622075971E+03  0.18299486807E+03 -0.11722768575E+03  0.29959381466E+03  0.00000000000E+00 0. -1.
    9900018    1    1    2    0    0 -0.44678064413E+02  0.27166422569E+02 -0.79422352206E+01  0.10541537577E+03  0.91187600000E+02 0.  0.
<mgrwt>
<rscale>  0 0.94360114E+03</rscale>
<asrwt>0</asrwt>
<pdfrwt beam="1">  1        2 0.61513946E-01 0.94360114E+03</pdfrwt>
<pdfrwt beam="2">  1       -2 0.85647882E-01 0.94360114E+03</pdfrwt>
<totfact> 0.94383869E+01</totfact>
</mgrwt>
</event>
<event>
12    1  0.2426958E-013  0.1254956E+04  0.7818608E-02  0.9066069E-01
         -3   -1    0    0    0  501 -0.00000000000E+00  0.00000000000E+00  0.10396962159E+04  0.10396962159E+04  0.00000000000E+00 0.  1.
          3   -1    0    0  501    0  0.00000000000E+00 -0.00000000000E+00 -0.37869576312E+03  0.37869576312E+03  0.00000000000E+00 0. -1.
    9900016    2    1    2    0    0  0.14605827136E+03  0.24427133891E+03  0.25132243041E+03  0.76252704879E+03  0.66127379387E+03 0.  0.
         23    2    3    3    0    0 -0.96223843773E+02  0.45429663583E+02  0.20509545873E+03  0.24837259128E+03  0.91114842173E+02 0.  0.
         23    2    3    3    0    0 -0.65288172006E+02 -0.19240235946E+02  0.84012938910E+02  0.13522572955E+03  0.81210171433E+02 0.  0.
        -15    1    5    5    0    0 -0.44840668218E+02  0.27070907906E+02  0.26819240831E+02  0.58845486317E+02  0.00000000000E+00 0.  1.
        -15    1    4    4    0    0 -0.46883525024E+02 -0.25491164509E+02  0.86671038321E+02  0.10178277492E+03  0.00000000000E+00 0. -1.
         15    1    4    4    0    0 -0.49340318749E+02  0.70920828092E+02  0.11842442041E+03  0.14658981636E+03  0.00000000000E+00 0.  1.
         15    1    5    5    0    0 -0.20447503788E+02 -0.46311143852E+02  0.57193698078E+02  0.76380243231E+02  0.00000000000E+00 0. -1.
        -16    1    1    2    0    0 -0.20290874809E+03 -0.27369800588E+03  0.42356388286E+03  0.54358892680E+03  0.00000000000E+00 0.  1.
         16    1    3    3    0    0  0.30757028714E+03  0.21808191127E+03 -0.37785967226E+02  0.37892872796E+03  0.00000000000E+00 0. -1.
    9900018    1    1    2    0    0  0.56850476736E+02  0.29426666970E+02 -0.13885860491E+02  0.11227600344E+03  0.91187600000E+02 0.  0.
<mgrwt>
<rscale>  0 0.12549559E+04</rscale>
<asrwt>0</asrwt>
<pdfrwt beam="1">  1        3 0.58260887E-01 0.12549559E+04</pdfrwt>
<pdfrwt beam="2">  1       -3 0.15995326E+00 0.12549559E+04</pdfrwt>
<totfact> 0.20282256E+00</totfact>
</mgrwt>
</event>
