<event>
12    1  0.1818740E-014  0.3956409E+04  0.7818608E-02  0.8534685E-01
         -2   -1    0    0    0  501 -0.00000000000E+00  0.00000000000E+00  0.24694385848E+04  0.24694385848E+04  0.00000000000E+00 0. -1.
          2   -1    0    0  501    0  0.00000000000E+00 -0.00000000000E+00 -0.24209108749E+04  0.24209108749E+04  0.00000000000E+00 0.  1.
         23    2    1    2    0    0  0.31311840841E+03 -0.11175444695E+03 -0.77301814359E+03  0.84954391535E+03  0.11677165621E+03 0.  0.
    9900016    2    1    2    0    0 -0.62356559237E+03 -0.39454170528E+03  0.87121816555E+03  0.24808116207E+04  0.22024776957E+04 0.  0.
        -24    2    4    4    0    0 -0.91232143243E+03  0.40858143976E+03 -0.28525188375E+03  0.10435191327E+04  0.91073344309E+02 0.  0.
        -15    1    3    3    0    0  0.26342906711E+03 -0.42308492074E+02 -0.59695923921E+03  0.65386941752E+03  0.00000000000E+00 0.  1.
        -15    1    4    4    0    0  0.28875584006E+03 -0.80312314504E+03  0.11564700493E+04  0.14372924880E+04  0.00000000000E+00 0.  1.
         15    1    5    5    0    0 -0.13920131260E+03  0.88821022453E+02 -0.22854600395E+02  0.16669886688E+03  0.00000000000E+00 0. -1.
         15    1    3    3    0    0  0.49689341301E+02 -0.69445954872E+02 -0.17605890439E+03  0.19567449783E+03  0.00000000000E+00 0. -1.
        -16    1    5    5    0    0 -0.77312011983E+03  0.31976041730E+03 -0.26239728336E+03  0.87682026578E+03  0.00000000000E+00 0.  1.
         16    1    1    2    0    0  0.31893305572E+03  0.75317365011E+03 -0.55619846116E+03  0.98911352708E+03  0.00000000000E+00 0. -1.
    9900018    1    1    2    0    0 -0.84858717611E+01 -0.24687749788E+03  0.50652614914E+03  0.57088039653E+03  0.91187600000E+02 0.  0.
<mgrwt>
<rscale>  0 0.21613595E+04</rscale>
<asrwt>0</asrwt>
<pdfrwt beam="1">  1        2 0.37244783E+00 0.39564090E+04</pdfrwt>
<pdfrwt beam="2">  1       -2 0.37991363E+00 0.39564090E+04</pdfrwt>
<totfact> 0.29715311E-02</totfact>
</mgrwt>
</event>
<event>
10    1  0.1818740E-014  0.3728388E+04  0.7818608E-02  0.8281802E-01
         -1   -1    0    0    0  501 -0.00000000000E+00  0.00000000000E+00  0.24486423665E+04  0.24486423665E+04  0.00000000000E+00 0.  1.
          1   -1    0    0  501    0  0.00000000000E+00 -0.00000000000E+00 -0.28689565225E+04  0.28689565225E+04  0.00000000000E+00 0. -1.
    9900016    2    1    2    0    0 -0.75034398915E+03 -0.76118521584E+03  0.64901801749E+03  0.25333118321E+04  0.22031852888E+04 0.  0.
        -15    1    1    2    0    0 -0.12849264416E+03  0.91968828031E+03 -0.73047785190E+03  0.11814968407E+04  0.00000000000E+00 0. -1.
        -15    1    3    3    0    0 -0.66066151808E+03 -0.12105454667E+04 -0.34301362519E+03  0.14211095367E+04  0.00000000000E+00 0.  1.
         15    1    1    2    0    0  0.82829674380E+02  0.35192681652E+03 -0.12468893008E+03  0.38244028086E+03  0.00000000000E+00 0.  1.
         15    1    3    3    0    0 -0.14236272454E+03  0.24025650087E+03  0.65551204883E+03  0.71252114194E+03  0.00000000000E+00 0. -1.
        -16    1    3    3    0    0  0.52680253469E+02  0.20910374997E+03  0.33651959385E+03  0.39968115342E+03  0.00000000000E+00 0.  1.
         16    1    1    2    0    0  0.91700008304E+03 -0.43552889534E+03 -0.25451166234E+03  0.10465900617E+04  0.00000000000E+00 0. -1.
    9900018    1    1    2    0    0 -0.12099312411E+03 -0.74900985644E+02  0.40346270816E+02  0.17375987366E+03  0.91187600000E+02 0.  0.
<mgrwt>
<rscale>  0 0.28701914E+04</rscale>
<asrwt>0</asrwt>
<pdfrwt beam="1">  1        1 0.44137792E+00 0.37283884E+04</pdfrwt>
<pdfrwt beam="2">  1       -1 0.37671421E+00 0.37283884E+04</pdfrwt>
<totfact> 0.58443471E-03</totfact>
</mgrwt>
</event>
<event>
12    1  0.1818740E-014  0.4506994E+04  0.7818608E-02  0.8519688E-01
         -2   -1    0    0    0  501 -0.00000000000E+00  0.00000000000E+00  0.18804183471E+04  0.18804183471E+04  0.00000000000E+00 0. -1.
          2   -1    0    0  501    0  0.00000000000E+00 -0.00000000000E+00 -0.40363714144E+04  0.40363714144E+04  0.00000000000E+00 0.  1.
         23    2    1    2    0    0  0.18636938297E+03 -0.13720280704E+03  0.58765861509E+03  0.64038963447E+03  0.10582097564E+03 0.  0.
    9900016    2    1    2    0    0  0.74527274108E+03  0.74339100920E+03 -0.60221541668E+03  0.25257143582E+04  0.22155152809E+04 0.  0.
         24    2    4    4    0    0  0.72004000707E+03 -0.69922343297E+03 -0.26495054845E+03  0.10439853981E+04  0.11106618474E+03 0.  0.
        -15    1    3    3    0    0  0.96339125154E+02 -0.11245780158E+03  0.25501724118E+03  0.29489282370E+03  0.00000000000E+00 0. -1.
        -15    1    5    5    0    0  0.39361626770E+03 -0.33927581342E+03 -0.18460355338E+03  0.55147104701E+03  0.00000000000E+00 0.  1.
         15    1    4    4    0    0  0.25232734016E+02  0.14426144422E+04 -0.33726486823E+03  0.14817289600E+04  0.00000000000E+00 0. -1.
         15    1    3    3    0    0  0.90030257815E+02 -0.24745005459E+02  0.33264137391E+03  0.34549681077E+03  0.00000000000E+00 0.  1.
        -16    1    1    2    0    0 -0.10855695009E+04 -0.75002670847E+03 -0.21481542268E+04  0.25210251460E+04  0.00000000000E+00 0.  1.
         16    1    5    5    0    0  0.32642373937E+03 -0.35994761955E+03 -0.80346995068E+02  0.49251435112E+03  0.00000000000E+00 0. -1.
    9900018    1    1    2    0    0  0.15392737685E+03  0.14383850631E+03  0.67579611261E+01  0.22966062282E+03  0.91187600000E+02 0.  0.
<mgrwt>
<rscale>  0 0.21969765E+04</rscale>
<asrwt>0</asrwt>
<pdfrwt beam="1">  1        2 0.62098022E+00 0.45069938E+04</pdfrwt>
<pdfrwt beam="2">  1       -2 0.28929513E+00 0.45069938E+04</pdfrwt>
<totfact> 0.86076357E-03</totfact>
</mgrwt>
</event>
<event>
10    1  0.1818740E-014  0.3780597E+04  0.7818608E-02  0.8595948E-01
         -1   -1    0    0    0  501 -0.00000000000E+00  0.00000000000E+00  0.19465442845E+04  0.19465442845E+04  0.00000000000E+00 0.  1.
          1   -1    0    0  501    0  0.00000000000E+00 -0.00000000000E+00 -0.21511496700E+04  0.21511496700E+04  0.00000000000E+00 0. -1.
    9900016    2    1    2    0    0 -0.35214675433E+03 -0.17594407651E+03  0.12471130297E+03  0.22380573360E+04  0.21996327137E+04 0.  0.
        -15    1    3    3    0    0 -0.11961184467E+04 -0.30090078021E+03  0.45039405412E+03  0.13130481415E+04  0.00000000000E+00 0.  1.
        -15    1    1    2    0    0  0.12663006208E+03 -0.23921087327E+03  0.43227488909E+02  0.27409055130E+03  0.00000000000E+00 0.  1.
         15    1    3    3    0    0  0.97917852748E+02 -0.25956252841E+01  0.70845738670E+01  0.98208117507E+02  0.00000000000E+00 0. -1.
         15    1    1    2    0    0  0.44874766768E+01  0.26503764765E+02 -0.24572764973E+02  0.36419881549E+02  0.00000000000E+00 0. -1.
        -16    1    3    3    0    0  0.74605383959E+03  0.12755232898E+03 -0.33276732502E+03  0.82680107692E+03  0.00000000000E+00 0.  1.
         16    1    1    2    0    0  0.57407828881E+03  0.62592962758E+03 -0.60596900373E+03  0.10433370567E+04  0.00000000000E+00 0. -1.
    9900018    1    1    2    0    0 -0.35304907323E+03 -0.23727844257E+03  0.25799759136E+03  0.50578912895E+03  0.91187600000E+02 0.  0.
<mgrwt>
<rscale>  0 0.20229868E+04</rscale>
<asrwt>0</asrwt>
<pdfrwt beam="1">  1        1 0.33094610E+00 0.37805970E+04</pdfrwt>
<pdfrwt beam="2">  1       -1 0.29946835E+00 0.37805970E+04</pdfrwt>
<totfact> 0.61725467E-02</totfact>
</mgrwt>
</event>
<event>
11    1  0.1818740E-014  0.4025772E+04  0.7818608E-02  0.8259630E-01
          1   -1    0    0  501    0  0.00000000000E+00  0.00000000000E+00  0.46285567094E+04  0.46285567094E+04  0.00000000000E+00 0. -1.
         -1   -1    0    0    0  501 -0.00000000000E+00 -0.00000000000E+00 -0.15613468320E+04  0.15613468320E+04  0.00000000000E+00 0.  1.
    9900016    2    1    2    0    0  0.36093460583E+03 -0.53013040524E+03  0.23524812289E+04  0.32780610517E+04  0.21909368522E+04 0.  0.
        -24    2    3    3    0    0 -0.54996826539E+02  0.77284230224E+03  0.14314951704E+04  0.16291365074E+04  0.67804585374E+02 0.  0.
        -15    1    3    3    0    0  0.41593143237E+03 -0.13029727075E+04  0.92098605855E+03  0.16489245443E+04  0.00000000000E+00 0.  1.
        -15    1    1    2    0    0  0.10611508562E+03  0.22022390691E+03  0.10472774002E+03  0.26594525772E+03  0.00000000000E+00 0. -1.
         15    1    4    4    0    0 -0.19782322743E+02  0.29230289010E+03  0.47375424969E+03  0.55702370591E+03  0.00000000000E+00 0. -1.
         15    1    1    2    0    0 -0.10399695865E+03  0.87917340973E+03 -0.63754394283E+02  0.88759555800E+03  0.00000000000E+00 0.  1.
        -16    1    4    4    0    0 -0.35214503796E+02  0.48053941214E+03  0.95774092070E+03  0.10721128015E+04  0.00000000000E+00 0.  1.
         16    1    1    2    0    0  0.17799970770E+03 -0.86938561772E+03  0.70312948664E+03  0.11322130203E+04  0.00000000000E+00 0. -1.
    9900018    1    1    2    0    0 -0.54105244050E+03  0.30011870632E+03 -0.29374183961E+02  0.62608865373E+03  0.91187600000E+02 0.  0.
<mgrwt>
<rscale>  0 0.29449411E+04</rscale>
<asrwt>0</asrwt>
<pdfrwt beam="1">  1        1 0.71208564E+00 0.40257722E+04</pdfrwt>
<pdfrwt beam="2">  1       -1 0.24020721E+00 0.40257722E+04</pdfrwt>
<totfact> 0.14225061E-03</totfact>
</mgrwt>
</event>
<event>
11    1  0.1818740E-014  0.3888457E+04  0.7818608E-02  0.8478483E-01
         -2   -1    0    0    0  501 -0.00000000000E+00  0.00000000000E+00  0.13559860922E+04  0.13559860922E+04  0.00000000000E+00 0.  1.
          2   -1    0    0  501    0  0.00000000000E+00 -0.00000000000E+00 -0.35121391025E+04  0.35121391025E+04  0.00000000000E+00 0. -1.
    9900016    2    1    2    0    0  0.21250396337E+03 -0.57485962523E+03 -0.86692593219E+03  0.24428464914E+04  0.22000720183E+04 0.  0.
         24    2    3    3    0    0 -0.93834017271E+03 -0.14361459021E+03 -0.29890148264E+02  0.95588872156E+03  0.10827001803E+03 0.  0.
        -15    1    4    4    0    0 -0.42434998711E+03 -0.15881524395E+02 -0.36607536392E+02  0.42622206196E+03  0.00000000000E+00 0.  1.
        -15    1    1    2    0    0  0.97413048454E+02  0.11769948512E+03 -0.14990187262E+03  0.21403981457E+03  0.00000000000E+00 0.  1.
         15    1    3    3    0    0  0.11508441361E+04 -0.43124503502E+03 -0.83703578392E+03  0.14869577699E+04  0.00000000000E+00 0. -1.
         15    1    1    2    0    0  0.30220741930E+03  0.69368289457E+02 -0.12282657778E+03  0.33350809896E+03  0.00000000000E+00 0. -1.
        -16    1    1    2    0    0  0.89124886384E+02  0.17489553706E+03  0.30568306599E+03  0.36328202693E+03  0.00000000000E+00 0.  1.
         16    1    4    4    0    0 -0.51399018560E+03 -0.12773306581E+03  0.67173881274E+01  0.52966665960E+03  0.00000000000E+00 0. -1.
    9900018    1    1    2    0    0 -0.70124931751E+03  0.21289631360E+03 -0.13221816937E+04  0.15144487629E+04  0.91187600000E+02 0.  0.
<mgrwt>
<rscale>  0 0.22985765E+04</rscale>
<asrwt>0</asrwt>
<pdfrwt beam="1">  1        2 0.54032909E+00 0.38884573E+04</pdfrwt>
<pdfrwt beam="2">  1       -2 0.20861325E+00 0.38884573E+04</pdfrwt>
<totfact> 0.72851451E-02</totfact>
</mgrwt>
</event>
