<event>
10    1  0.5158483E-017  0.3273113E+04  0.7818608E-02  0.8169771E-01
         -2   -1    0    0    0  501 -0.00000000000E+00  0.00000000000E+00  0.73577947636E+03  0.73577947636E+03  0.00000000000E+00 0.  1.
          2   -1    0    0  501    0  0.00000000000E+00 -0.00000000000E+00 -0.36401087838E+04  0.36401087838E+04  0.00000000000E+00 0. -1.
    9900016    2    1    2    0    0  0.29691957435E+03 -0.19445351889E+03 -0.13220604252E+04  0.15667627409E+04  0.76218653470E+03 0.  0.
        -15    1    1    2    0    0  0.37507747362E+03 -0.14964085138E+03 -0.75807666875E+02  0.41087990700E+03  0.00000000000E+00 0.  1.
        -15    1    3    3    0    0  0.98209141543E+02  0.70576415729E+02 -0.25501977998E+03  0.28224307630E+03  0.00000000000E+00 0. -1.
         15    1    1    2    0    0  0.20034977701E+03  0.48018149486E+03 -0.14185766378E+04  0.15109844402E+04  0.00000000000E+00 0. -1.
         15    1    3    3    0    0  0.72291301695E+02  0.16292463828E+03 -0.14759043264E+03  0.23141608817E+03  0.00000000000E+00 0.  1.
        -16    1    1    2    0    0 -0.87234682498E+03 -0.13608712460E+03 -0.87884577555E+02  0.88726117210E+03  0.00000000000E+00 0.  1.
         16    1    3    3    0    0  0.11208012024E+03 -0.39268320216E+03 -0.66801440912E+03  0.78294655079E+03  0.00000000000E+00 0. -1.
    9900018    1    3    3    0    0  0.14339010874E+02 -0.35271370738E+02 -0.25143580348E+03  0.27015702562E+03  0.91187600000E+02 0.  0.
<mgrwt>
<rscale>  0 0.32731131E+04</rscale>
<asrwt>0</asrwt>
<pdfrwt beam="1">  1        2 0.56001672E+00 0.32731131E+04</pdfrwt>
<pdfrwt beam="2">  1       -2 0.11319685E+00 0.32731131E+04</pdfrwt>
<totfact> 0.33075005E-01</totfact>
</mgrwt>
</event>
<event>
11    1  0.5158483E-017  0.1630191E+04  0.7818608E-02  0.9009501E-01
          2   -1    0    0  501    0  0.00000000000E+00  0.00000000000E+00  0.31497595332E+04  0.31497595332E+04  0.00000000000E+00 0. -1.
         -2   -1    0    0    0  501 -0.00000000000E+00 -0.00000000000E+00 -0.45439289247E+03  0.45439289247E+03  0.00000000000E+00 0.  1.
    9900016    2    1    2    0    0  0.87532104410E+02 -0.26486868891E+03  0.22702664687E+04  0.24123555285E+04  0.76650640238E+03 0.  0.
         23    2    3    3    0    0  0.32485454178E+03 -0.45514373032E+02  0.80509484773E+03  0.87189415939E+03  0.66480672789E+02 0.  0.
        -15    1    4    4    0    0  0.85729618396E+02 -0.20386613707E+02  0.29668629304E+03  0.30949626487E+03  0.00000000000E+00 0.  1.
        -15    1    1    2    0    0  0.14535903615E+03  0.27246804994E+03 -0.79029754340E+02  0.31876917934E+03  0.00000000000E+00 0.  1.
         15    1    1    2    0    0 -0.46942757948E+03  0.23572816539E+02  0.28888313683E+03  0.55169864673E+03  0.00000000000E+00 0. -1.
         15    1    4    4    0    0  0.23912492339E+03 -0.25127759325E+02  0.50840855469E+03  0.56239789452E+03  0.00000000000E+00 0. -1.
        -16    1    1    2    0    0  0.23653643892E+03 -0.31172177564E+02  0.21524678954E+03  0.32132907120E+03  0.00000000000E+00 0.  1.
         16    1    3    3    0    0 -0.30616376119E+03 -0.15240705601E+03  0.10038101978E+04  0.10604711559E+04  0.00000000000E+00 0. -1.
    9900018    1    3    3    0    0  0.68841323820E+02 -0.66947259871E+02  0.46136142321E+03  0.47999021312E+03  0.91187600000E+02 0.  0.
<mgrwt>
<rscale>  0 0.13256081E+04</rscale>
<asrwt>0</asrwt>
<pdfrwt beam="1">  1        2 0.48457838E+00 0.16301913E+04</pdfrwt>
<pdfrwt beam="2">  1       -2 0.69906601E-01 0.16301913E+04</pdfrwt>
<totfact> 0.24833898E+00</totfact>
</mgrwt>
</event>
<event>
11    1  0.5158483E-017  0.1632363E+04  0.7818608E-02  0.8800909E-01
         -2   -1    0    0    0  501 -0.00000000000E+00  0.00000000000E+00  0.55588446069E+03  0.55588446069E+03  0.00000000000E+00 0.  1.
          2   -1    0    0  501    0  0.00000000000E+00 -0.00000000000E+00 -0.11983647307E+04  0.11983647307E+04  0.00000000000E+00 0. -1.
    9900016    2    1    2    0    0  0.76312405868E+02  0.17616621856E+03 -0.54169270183E+03  0.87894231115E+03  0.66501916008E+03 0.  0.
         23    2    3    3    0    0  0.19014573322E+03 -0.82820408725E+02  0.46452776119E+02  0.22629600361E+03  0.77700713496E+02 0.  0.
        -15    1    4    4    0    0  0.13098140756E+03 -0.15595995401E+02  0.26237058080E+02  0.13449069639E+03  0.00000000000E+00 0.  1.
        -15    1    1    2    0    0 -0.10029176309E+03  0.95914273555E+02  0.93601461978E+02  0.16738942410E+03  0.00000000000E+00 0.  1.
         15    1    4    4    0    0  0.59164325654E+02 -0.67224413324E+02  0.20215718040E+02  0.91805307214E+02  0.00000000000E+00 0. -1.
         15    1    1    2    0    0 -0.55213251288E+02 -0.35335937228E+03  0.87642950215E+02  0.36822905347E+03  0.00000000000E+00 0. -1.
        -16    1    1    2    0    0  0.42776346711E+02  0.78441162738E+02 -0.15749295696E+03  0.18107143160E+03  0.00000000000E+00 0.  1.
         16    1    3    3    0    0 -0.11383332735E+03  0.25898662728E+03 -0.58814547795E+03  0.65264630755E+03  0.00000000000E+00 0. -1.
    9900018    1    1    2    0    0  0.36416261803E+02  0.28377174297E+01 -0.12453902345E+03  0.15861697109E+03  0.91187600000E+02 0.  0.
<mgrwt>
<rscale>  0 0.16323631E+04</rscale>
<asrwt>0</asrwt>
<pdfrwt beam="1">  1        2 0.18436381E+00 0.16323631E+04</pdfrwt>
<pdfrwt beam="2">  1       -2 0.85520686E-01 0.16323631E+04</pdfrwt>
<totfact> 0.21580300E+01</totfact>
</mgrwt>
</event>
<event>
11    1  0.5158483E-017  0.3206176E+04  0.7818608E-02  0.8187188E-01
         -2   -1    0    0    0  501 -0.00000000000E+00  0.00000000000E+00  0.43139943568E+04  0.43139943568E+04  0.00000000000E+00 0. -1.
          2   -1    0    0  501    0  0.00000000000E+00 -0.00000000000E+00 -0.59571041420E+03  0.59571041420E+03  0.00000000000E+00 0.  1.
    9900016    2    1    2    0    0 -0.67866118283E+03 -0.55402513013E+03  0.20857674545E+04  0.23862966437E+04  0.75925025633E+03 0.  0.
         23    2    3    3    0    0  0.61952609082E+02 -0.86046761927E+00  0.55837951103E+02  0.13739669761E+03  0.10918383375E+03 0.  0.
        -15    1    1    2    0    0  0.32003917145E+03  0.52842095315E+03  0.37598708317E+03  0.72320125947E+03  0.00000000000E+00 0.  1.
        -15    1    4    4    0    0  0.77724794765E+02 -0.36889796208E+02  0.41643128790E+02  0.95583214850E+02  0.00000000000E+00 0. -1.
         15    1    4    4    0    0 -0.15772185683E+02  0.36029328588E+02  0.14194822313E+02  0.41813482757E+02  0.00000000000E+00 0.  1.
         15    1    1    2    0    0  0.11415209889E+03 -0.44554619046E+03  0.11767557645E+04  0.12634461757E+04  0.00000000000E+00 0. -1.
        -16    1    1    2    0    0  0.24446991249E+03  0.47115036743E+03  0.79773640354E+02  0.53676069206E+03  0.00000000000E+00 0.  1.
         16    1    3    3    0    0 -0.64464885020E+03 -0.52643115959E+03  0.17177817327E+04  0.19087891416E+04  0.00000000000E+00 0. -1.
    9900018    1    3    3    0    0 -0.95964941711E+02 -0.26733502915E+02  0.31214777071E+03  0.34011080454E+03  0.91187600000E+02 0.  0.
<mgrwt>
<rscale>  0 0.32061761E+04</rscale>
<asrwt>0</asrwt>
<pdfrwt beam="1">  1        2 0.91647759E-01 0.32061761E+04</pdfrwt>
<pdfrwt beam="2">  1       -2 0.66369142E+00 0.32061761E+04</pdfrwt>
<totfact> 0.12619471E-02</totfact>
</mgrwt>
</event>
<event>
11    1  0.5158483E-017  0.3299410E+04  0.7818608E-02  0.8163045E-01
         -2   -1    0    0    0  501 -0.00000000000E+00  0.00000000000E+00  0.22063148616E+04  0.22063148616E+04  0.00000000000E+00 0.  1.
          2   -1    0    0  501    0  0.00000000000E+00 -0.00000000000E+00 -0.12335171612E+04  0.12335171612E+04  0.00000000000E+00 0. -1.
    9900016    2    1    2    0    0 -0.65397260142E+03  0.29400176909E+03 -0.54561569737E+02  0.10490277200E+04  0.76378333897E+03 0.  0.
         23    2    3    3    0    0 -0.56536583787E+02 -0.21656271893E+03 -0.32088633384E+02  0.23411369228E+03  0.60693854585E+02 0.  0.
        -15    1    1    2    0    0  0.38558093222E+03 -0.64455514410E+03  0.79270445042E+03  0.10920184682E+04  0.00000000000E+00 0.  1.
        -15    1    4    4    0    0 -0.42643913534E+02 -0.16500064613E+03 -0.50304433899E+02  0.17769145352E+03  0.00000000000E+00 0.  1.
         15    1    1    2    0    0  0.71467971491E+03  0.30643315483E+03  0.32245043597E+03  0.84180915708E+03  0.00000000000E+00 0. -1.
         15    1    4    4    0    0 -0.13892670254E+02 -0.51562072802E+02  0.18215800515E+02  0.56422238762E+02  0.00000000000E+00 0. -1.
        -16    1    3    3    0    0 -0.47137531138E+03  0.41264843881E+03  0.17771014761E+02  0.62672899023E+03  0.00000000000E+00 0.  1.
         16    1    1    2    0    0 -0.44628804571E+03  0.44120220178E+02 -0.87795616204E+02  0.45697667752E+03  0.00000000000E+00 0. -1.
    9900018    1    3    3    0    0 -0.12606070626E+03  0.97916049206E+02 -0.40243951114E+02  0.18818503753E+03  0.91187600000E+02 0.  0.
<mgrwt>
<rscale>  0 0.32994104E+04</rscale>
<asrwt>0</asrwt>
<pdfrwt beam="1">  1        2 0.18977187E+00 0.32994104E+04</pdfrwt>
<pdfrwt beam="2">  1       -2 0.33943306E+00 0.32994104E+04</pdfrwt>
<totfact> 0.27381414E-01</totfact>
</mgrwt>
</event>
<event>
11    1  0.5158483E-017  0.4419710E+04  0.7818608E-02  0.7924846E-01
          2   -1    0    0  501    0  0.00000000000E+00  0.00000000000E+00  0.20468028284E+04  0.20468028284E+04  0.00000000000E+00 0. -1.
         -2   -1    0    0    0  501 -0.00000000000E+00 -0.00000000000E+00 -0.23858960017E+04  0.23858960017E+04  0.00000000000E+00 0.  1.
    9900016    2    1    2    0    0 -0.60336279109E+03  0.33529654855E+03  0.41203026908E+02  0.10249247756E+04  0.75650688895E+03 0.  0.
         23    2    3    3    0    0 -0.41685727231E+03  0.10725244957E+03 -0.26662832429E+03  0.51212019415E+03  0.76833303536E+02 0.  0.
        -15    1    1    2    0    0  0.33509860651E+03 -0.29217821329E+03 -0.16300644444E+04  0.16896062492E+04  0.00000000000E+00 0.  1.
        -15    1    4    4    0    0 -0.38770823878E+03  0.77290286424E+02 -0.24427683191E+03  0.46471780405E+03  0.00000000000E+00 0. -1.
         15    1    4    4    0    0 -0.29149033525E+02  0.29962163143E+02 -0.22351492375E+02  0.47402390098E+02  0.00000000000E+00 0.  1.
         15    1    1    2    0    0  0.34394246290E+03 -0.46399574025E+03  0.11379948679E+04  0.12761742765E+04  0.00000000000E+00 0. -1.
        -16    1    1    2    0    0 -0.75678278315E+02  0.42087740499E+03  0.11177337637E+03  0.44199352881E+03  0.00000000000E+00 0.  1.
         16    1    3    3    0    0 -0.98367971249E+02  0.22901843604E+03  0.29368060720E+03  0.38519345900E+03  0.00000000000E+00 0. -1.
    9900018    1    3    3    0    0 -0.88137547537E+02 -0.97433705373E+00  0.14150743993E+02  0.12761112243E+03  0.91187600000E+02 0.  0.
<mgrwt>
<rscale>  0 0.44197098E+04</rscale>
<asrwt>0</asrwt>
<pdfrwt beam="1">  1        2 0.31489274E+00 0.44197098E+04</pdfrwt>
<pdfrwt beam="2">  1       -2 0.36706092E+00 0.44197098E+04</pdfrwt>
<totfact> 0.58169425E-02</totfact>
</mgrwt>
</event>
<event>
11    1  0.5158483E-017  0.2037012E+04  0.7818608E-02  0.8589509E-01
          1   -1    0    0  501    0  0.00000000000E+00  0.00000000000E+00  0.15086563913E+04  0.15086563913E+04  0.00000000000E+00 0. -1.
         -1   -1    0    0    0  501 -0.00000000000E+00 -0.00000000000E+00 -0.68760135598E+03  0.68760135598E+03  0.00000000000E+00 0.  1.
    9900016    2    1    2    0    0  0.26356881723E+03 -0.41236325445E+03  0.13829396063E+03  0.91805441251E+03  0.76432107765E+03 0.  0.
         23    2    3    3    0    0  0.13002043556E+02  0.11840495658E+03  0.16477400580E+03  0.22933257199E+03  0.10608566684E+03 0.  0.
        -15    1    1    2    0    0 -0.15132739793E+02  0.58734716808E+03  0.53721190680E+03  0.79611703190E+03  0.00000000000E+00 0.  1.
        -15    1    4    4    0    0  0.22356911757E+02  0.78418864609E+02  0.16940244463E+03  0.18800675009E+03  0.00000000000E+00 0.  1.
         15    1    4    4    0    0 -0.93548682008E+01  0.39986091973E+02 -0.46284388321E+01  0.41325821908E+02  0.00000000000E+00 0. -1.
         15    1    1    2    0    0 -0.32179380931E+03 -0.70472182942E+02  0.82066443388E+02  0.33948856448E+03  0.00000000000E+00 0. -1.
        -16    1    3    3    0    0  0.24296022578E+03 -0.52108116086E+03 -0.82751129383E+02  0.58086400898E+03  0.00000000000E+00 0.  1.
         16    1    1    2    0    0  0.73357731876E+02 -0.10451173069E+03  0.63482724476E+02  0.14259773836E+03  0.00000000000E+00 0. -1.
    9900018    1    3    3    0    0  0.76065478966E+01 -0.96870501732E+01  0.56271084211E+02  0.10785783154E+03  0.91187600000E+02 0.  0.
<mgrwt>
<rscale>  0 0.20370117E+04</rscale>
<asrwt>0</asrwt>
<pdfrwt beam="1">  1        1 0.23210098E+00 0.20370117E+04</pdfrwt>
<pdfrwt beam="2">  1       -1 0.10578482E+00 0.20370117E+04</pdfrwt>
<totfact> 0.49914824E+00</totfact>
</mgrwt>
</event>
<event>
11    1  0.5158483E-017  0.2593063E+04  0.7818608E-02  0.8547131E-01
         -2   -1    0    0    0  501 -0.00000000000E+00  0.00000000000E+00  0.93254533757E+03  0.93254533757E+03  0.00000000000E+00 0. -1.
          2   -1    0    0  501    0  0.00000000000E+00 -0.00000000000E+00 -0.45036336791E+04  0.45036336791E+04  0.00000000000E+00 0.  1.
    9900016    2    1    2    0    0 -0.97741640746E+02 -0.33732348557E+03 -0.17451474236E+04  0.19361167538E+04  0.76135930522E+03 0.  0.
         23    2    3    3    0    0 -0.12935449151E+03 -0.45773521412E+03 -0.15446356866E+04  0.16201274702E+04  0.11251446490E+03 0.  0.
        -15    1    4    4    0    0 -0.12150910205E+02 -0.20283687842E+03 -0.76586156053E+03  0.79236000263E+03  0.00000000000E+00 0. -1.
        -15    1    1    2    0    0  0.32161749469E+03  0.86300187455E+02 -0.46391431847E+03  0.57105343895E+03  0.00000000000E+00 0.  1.
         15    1    1    2    0    0 -0.10442377781E+04 -0.73583151187E+03 -0.90994626555E+03  0.15684013380E+04  0.00000000000E+00 0. -1.
         15    1    4    4    0    0 -0.11720358130E+03 -0.25489833570E+03 -0.77877412606E+03  0.82776746761E+03  0.00000000000E+00 0.  1.
        -16    1    1    2    0    0  0.82036192411E+03  0.98685480999E+03 -0.45208033389E+03  0.13606074860E+04  0.00000000000E+00 0.  1.
         16    1    3    3    0    0  0.54307343160E+02  0.13515849799E+03 -0.94853153287E+02  0.17382240301E+03  0.00000000000E+00 0. -1.
    9900018    1    3    3    0    0 -0.22694492398E+02 -0.14746769444E+02 -0.10565858377E+03  0.14216688050E+03  0.91187600000E+02 0.  0.
<mgrwt>
<rscale>  0 0.21323377E+04</rscale>
<asrwt>0</asrwt>
<pdfrwt beam="1">  1        2 0.69286673E+00 0.25930631E+04</pdfrwt>
<pdfrwt beam="2">  1       -2 0.14346851E+00 0.25930631E+04</pdfrwt>
<totfact> 0.35319493E-02</totfact>
</mgrwt>
</event>
<event>
11    1  0.5158483E-017  0.1204442E+04  0.7818608E-02  0.9219249E-01
         -2   -1    0    0    0  501 -0.00000000000E+00  0.00000000000E+00  0.21874340513E+04  0.21874340513E+04  0.00000000000E+00 0. -1.
          2   -1    0    0  501    0  0.00000000000E+00 -0.00000000000E+00 -0.45702256503E+03  0.45702256503E+03  0.00000000000E+00 0.  1.
    9900016    2    1    2    0    0  0.19415684694E+03 -0.11631940194E+03  0.83556268818E+03  0.10865388374E+04  0.65663883130E+03 0.  0.
         23    2    3    3    0    0  0.29039429915E+03  0.19638163926E+03  0.40530754857E+03  0.54601772443E+03  0.10472129321E+03 0.  0.
        -15    1    4    4    0    0  0.26983287528E+03  0.14998398368E+03  0.30696880108E+03  0.43535597019E+03  0.00000000000E+00 0. -1.
        -15    1    1    2    0    0 -0.70326366369E+02  0.17291409402E+03 -0.11057256161E+03  0.21695938122E+03  0.00000000000E+00 0.  1.
         15    1    4    4    0    0  0.20561423866E+02  0.46397655582E+02  0.98338747484E+02  0.11066175424E+03  0.00000000000E+00 0.  1.
         15    1    1    2    0    0  0.17881798131E+03  0.14518012455E+03  0.80983379960E+03  0.84195244639E+03  0.00000000000E+00 0. -1.
        -16    1    1    2    0    0 -0.26384933591E+03 -0.20067565491E+03  0.69616610481E+02  0.33872357902E+03  0.00000000000E+00 0.  1.
         16    1    3    3    0    0 -0.96237452205E+02 -0.31270104120E+03  0.43025513962E+03  0.54052111295E+03  0.00000000000E+00 0. -1.
    9900018    1    1    2    0    0 -0.38799125973E+02 -0.10991617282E+01  0.12597094957E+03  0.16028237228E+03  0.91187600000E+02 0.  0.
<mgrwt>
<rscale>  0 0.10856937E+04</rscale>
<asrwt>0</asrwt>
<pdfrwt beam="1">  1        2 0.70311165E-01 0.12044424E+04</pdfrwt>
<pdfrwt beam="2">  1       -2 0.33652831E+00 0.12044424E+04</pdfrwt>
<totfact> 0.12787268E+00</totfact>
</mgrwt>
</event>
<event>
11    1  0.5158483E-017  0.1183843E+04  0.7818608E-02  0.9686389E-01
          2   -1    0    0  501    0  0.00000000000E+00  0.00000000000E+00  0.63985976748E+03  0.63985976748E+03  0.00000000000E+00 0. -1.
         -2   -1    0    0    0  501 -0.00000000000E+00 -0.00000000000E+00 -0.74630600848E+03  0.74630600848E+03  0.00000000000E+00 0.  1.
    9900016    2    1    2    0    0  0.99850644352E+02 -0.14986292391E+03  0.13696919416E+03  0.70346383846E+03  0.66608690479E+03 0.  0.
         23    2    3    3    0    0  0.28568293604E+03  0.12167793733E+03 -0.55591977179E+02  0.32221866188E+03  0.65682096165E+02 0.  0.
        -15    1    1    2    0    0 -0.75367295288E+02 -0.12802022407E+02 -0.14755177441E+01  0.76461088989E+02  0.00000000000E+00 0.  1.
        -15    1    4    4    0    0  0.19366628940E+03  0.74220748486E+02 -0.67246823539E+02  0.21803092999E+03  0.00000000000E+00 0. -1.
         15    1    4    4    0    0  0.92016646639E+02  0.47457188845E+02  0.11654846360E+02  0.10418773188E+03  0.00000000000E+00 0.  1.
         15    1    1    2    0    0 -0.51936197267E+02  0.15564110089E+02  0.94718571750E+02  0.10913852640E+03  0.00000000000E+00 0. -1.
        -16    1    1    2    0    0  0.29942158517E+02  0.12952395913E+03 -0.37404138402E+03  0.39696340613E+03  0.00000000000E+00 0.  1.
         16    1    3    3    0    0 -0.18583229169E+03 -0.27154086124E+03  0.19256117134E+03  0.38124517658E+03  0.00000000000E+00 0. -1.
    9900018    1    1    2    0    0 -0.24893103146E+01  0.17576877099E+02  0.37382894848E+02  0.10013891599E+03  0.91187600000E+02 0.  0.
<mgrwt>
<rscale>  0 0.71832974E+03</rscale>
<asrwt>0</asrwt>
<pdfrwt beam="1">  1        2 0.98439964E-01 0.11838426E+04</pdfrwt>
<pdfrwt beam="2">  1       -2 0.11481631E+00 0.11838426E+04</pdfrwt>
<totfact> 0.26707869E+01</totfact>
</mgrwt>
</event>
<event>
11    1  0.5158483E-017  0.3900025E+04  0.7818608E-02  0.8025024E-01
          2   -1    0    0  501    0  0.00000000000E+00  0.00000000000E+00  0.17692935827E+04  0.17692935827E+04  0.00000000000E+00 0. -1.
         -2   -1    0    0    0  501 -0.00000000000E+00 -0.00000000000E+00 -0.21491907385E+04  0.21491907385E+04  0.00000000000E+00 0.  1.
    9900016    2    1    2    0    0 -0.58060208788E+02  0.33885379930E+02 -0.11689177908E+03  0.66986557825E+03  0.65615318188E+03 0.  0.
         23    2    3    3    0    0  0.16760024254E+03 -0.15364405226E+03 -0.24372914358E+03  0.35021319790E+03  0.10746651787E+03 0.  0.
        -15    1    1    2    0    0  0.87992311952E+03 -0.78053610506E+03 -0.63566429293E+03  0.13370005239E+04  0.00000000000E+00 0.  1.
        -15    1    4    4    0    0  0.94648915816E+02 -0.20104409592E+02 -0.70984781920E+02  0.12000601574E+03  0.00000000000E+00 0.  1.
         15    1    4    4    0    0  0.72951326725E+02 -0.13353964267E+03 -0.17274436166E+03  0.23020718216E+03  0.00000000000E+00 0. -1.
         15    1    1    2    0    0 -0.11574795066E+04  0.58918204155E+03  0.14580597643E+03  0.13069635301E+04  0.00000000000E+00 0. -1.
        -16    1    1    2    0    0  0.38980833847E+03  0.96357160322E+02  0.25932622929E+03  0.47800139778E+03  0.00000000000E+00 0.  1.
         16    1    3    3    0    0 -0.22566045133E+03  0.18752943219E+03  0.12683736450E+03  0.31965238035E+03  0.00000000000E+00 0. -1.
    9900018    1    1    2    0    0 -0.54191742631E+02  0.61111523253E+02 -0.32473289554E+02  0.12665329120E+03  0.91187600000E+02 0.  0.
<mgrwt>
<rscale>  0 0.39000253E+04</rscale>
<asrwt>0</asrwt>
<pdfrwt beam="1">  1        2 0.27219901E+00 0.39000253E+04</pdfrwt>
<pdfrwt beam="2">  1       -2 0.33064473E+00 0.39000253E+04</pdfrwt>
<totfact> 0.14676958E-01</totfact>
</mgrwt>
</event>
<event>
11    1  0.5158483E-017  0.1037454E+04  0.7818608E-02  0.9552777E-01
         -2   -1    0    0    0  501 -0.00000000000E+00  0.00000000000E+00  0.77276501447E+03  0.77276501447E+03  0.00000000000E+00 0.  1.
          2   -1    0    0  501    0  0.00000000000E+00 -0.00000000000E+00 -0.87034346914E+03  0.87034346914E+03  0.00000000000E+00 0. -1.
    9900016    2    1    2    0    0 -0.54379724718E+02  0.43380873568E+02 -0.35701123764E+03  0.75010329191E+03  0.65601743124E+03 0.  0.
         23    2    3    3    0    0 -0.30758441729E+03  0.11583320192E+02 -0.37963764724E+03  0.49390872688E+03  0.71265280624E+02 0.  0.
        -15    1    4    4    0    0 -0.15739840595E+03 -0.27896677256E+02 -0.21016736339E+03  0.26405075919E+03  0.00000000000E+00 0. -1.
        -15    1    1    2    0    0 -0.26466631160E+03 -0.25358876697E+02 -0.60465522181E+02  0.27266721200E+03  0.00000000000E+00 0.  1.
         15    1    4    4    0    0 -0.15018601134E+03  0.39479997448E+02 -0.16947028385E+03  0.22985796769E+03  0.00000000000E+00 0.  1.
         15    1    1    2    0    0  0.22078121973E+03  0.22924101367E+02  0.80002922977E+02  0.23594560622E+03  0.00000000000E+00 0. -1.
        -16    1    1    2    0    0  0.65805266783E+02 -0.65147410329E+01  0.26948676874E+03  0.27748133904E+03  0.00000000000E+00 0.  1.
         16    1    3    3    0    0  0.25320469257E+03  0.31797553376E+02  0.22626409600E+02  0.25619456503E+03  0.00000000000E+00 0. -1.
    9900018    1    1    2    0    0  0.32459549804E+02 -0.34431357205E+02 -0.29591386568E+02  0.10691103444E+03  0.91187600000E+02 0.  0.
<mgrwt>
<rscale>  0 0.80502135E+03</rscale>
<asrwt>0</asrwt>
<pdfrwt beam="1">  1        2 0.13389900E+00 0.10374538E+04</pdfrwt>
<pdfrwt beam="2">  1       -2 0.11888692E+00 0.10374538E+04</pdfrwt>
<totfact> 0.16532364E+01</totfact>
</mgrwt>
</event>
