<event>
11    1  0.9203139E-009  0.2326663E+04  0.7818608E-02  0.8467482E-01
          1   -1    0    0  501    0  0.00000000000E+00  0.00000000000E+00  0.46680246588E+03  0.46680246588E+03  0.00000000000E+00 0. -1.
         -1   -1    0    0    0  501 -0.00000000000E+00 -0.00000000000E+00 -0.28991699659E+04  0.28991699659E+04  0.00000000000E+00 0.  1.
    9900016    2    1    2    0    0  0.80598139322E+02 -0.67943391409E+02 -0.13100422329E+04  0.22387074364E+04  0.18123156374E+04 0.  0.
         24    2    3    3    0    0  0.66823158274E+03 -0.23205243156E+03 -0.84526566800E+02  0.71727886211E+03  0.83441274998E+02 0.  0.
        -15    1    3    3    0    0 -0.79188079906E+02  0.81890730850E+01 -0.41678751055E+02  0.89860621001E+02  0.00000000000E+00 0. -1.
        -15    1    4    4    0    0  0.14128569240E+03 -0.70147943119E+02  0.96417091780E+01  0.15803589262E+03  0.00000000000E+00 0.  1.
         15    1    3    3    0    0 -0.37898010293E+03 -0.54824134124E+02 -0.51563631751E+03  0.64227129473E+03  0.00000000000E+00 0.  1.
         15    1    3    3    0    0 -0.21166825480E+02  0.24446659336E+03 -0.54839803451E+03  0.60079310418E+03  0.00000000000E+00 0. -1.
        -16    1    1    2    0    0 -0.80598139322E+02  0.67943391409E+02 -0.11223252672E+04  0.11272649954E+04  0.00000000000E+00 0.  1.
         16    1    4    4    0    0  0.52694589034E+03 -0.16190448844E+03 -0.94168275978E+02  0.55924296949E+03  0.00000000000E+00 0. -1.
    9900018    1    3    3    0    0 -0.10829843510E+03 -0.33722492176E+02 -0.11980256298E+03  0.18850355438E+03  0.91187600000E+02 0.  0.
<mgrwt>
<rscale>  0 0.23266626E+04</rscale>
<asrwt>0</asrwt>
<pdfrwt beam="1">  1        1 0.71815763E-01 0.23266626E+04</pdfrwt>
<pdfrwt beam="2">  1       -1 0.44602616E+00 0.23266626E+04</pdfrwt>
<totfact> 0.15134776E-01</totfact>
</mgrwt>
</event>
<event>
11    1  0.9203139E-009  0.3230336E+04  0.7818608E-02  0.8180851E-01
          2   -1    0    0  501    0  0.00000000000E+00  0.00000000000E+00  0.17487355486E+04  0.17487355486E+04  0.00000000000E+00 0. -1.
         -2   -1    0    0    0  501 -0.00000000000E+00 -0.00000000000E+00 -0.14918024916E+04  0.14918024916E+04  0.00000000000E+00 0.  1.
    9900016    2    1    2    0    0  0.41594457751E+03 -0.21304323052E+03  0.11323429407E+04  0.22481974867E+04  0.18851509473E+04 0.  0.
         24    2    3    3    0    0  0.18689055906E+03  0.22238469885E+03  0.13759361768E+03  0.33059402865E+03  0.77313471023E+02 0.  0.
        -15    1    4    4    0    0  0.16355604220E+03  0.16655719312E+03  0.13579461994E+03  0.27005935704E+03  0.00000000000E+00 0.  1.
        -15    1    3    3    0    0 -0.29433197521E+03  0.36938329258E+02 -0.15856848584E+03  0.33636247785E+03  0.00000000000E+00 0.  1.
         15    1    3    3    0    0  0.28233831970E+03 -0.33654390791E+02  0.20814106801E+03  0.35237799162E+03  0.00000000000E+00 0. -1.
         15    1    3    3    0    0 -0.10413443571E+03 -0.29396388183E+03  0.15168971690E+03  0.34679751258E+03  0.00000000000E+00 0. -1.
        -16    1    1    2    0    0 -0.41594457751E+03  0.21304323052E+03 -0.87540988377E+03  0.99234055356E+03  0.00000000000E+00 0.  1.
         16    1    4    4    0    0  0.23334516859E+02  0.55827505737E+02  0.17989977367E+01  0.60534671609E+02  0.00000000000E+00 0. -1.
    9900018    1    3    3    0    0  0.34518210967E+03 -0.14474798601E+03  0.79348702397E+03  0.88206547597E+03  0.91187600000E+02 0.  0.
<mgrwt>
<rscale>  0 0.32303362E+04</rscale>
<asrwt>0</asrwt>
<pdfrwt beam="1">  1        2 0.26903624E+00 0.32303362E+04</pdfrwt>
<pdfrwt beam="2">  1       -2 0.22950807E+00 0.32303362E+04</pdfrwt>
<totfact> 0.66643570E-01</totfact>
</mgrwt>
</event>
<event>
11    1  0.9203139E-009  0.2694929E+04  0.7818608E-02  0.8336652E-01
         -1   -1    0    0    0  501 -0.00000000000E+00  0.00000000000E+00  0.83884541749E+03  0.83884541749E+03  0.00000000000E+00 0.  1.
          1   -1    0    0  501    0  0.00000000000E+00 -0.00000000000E+00 -0.21644756643E+04  0.21644756643E+04  0.00000000000E+00 0. -1.
    9900016    2    1    2    0    0 -0.61254843072E+03  0.13303642694E+03 -0.57900211728E+03  0.20284529703E+04  0.18402346943E+04 0.  0.
         24    2    3    3    0    0  0.14754881831E+02  0.86682681319E+02  0.42496795371E+03  0.44154857189E+03  0.81460333178E+02 0.  0.
        -15    1    4    4    0    0 -0.11942793923E+02  0.65704051844E+02  0.37646451754E+03  0.38234171329E+03  0.00000000000E+00 0.  1.
        -15    1    3    3    0    0 -0.19558798626E+02  0.98439962190E+00  0.11851433344E+02  0.22890437275E+02  0.00000000000E+00 0.  1.
         15    1    3    3    0    0  0.20400359477E+03  0.17362698939E+03 -0.66589089118E+02  0.27603967996E+03  0.00000000000E+00 0. -1.
         15    1    3    3    0    0 -0.38791713067E+03 -0.11321063000E+03 -0.63364206624E+03  0.75153084776E+03  0.00000000000E+00 0. -1.
        -16    1    1    2    0    0  0.61254843072E+03 -0.13303642694E+03 -0.74662812948E+03  0.97486811139E+03  0.00000000000E+00 0.  1.
         16    1    4    4    0    0  0.26697675754E+02  0.20978629475E+02  0.48503436175E+02  0.59206858607E+02  0.00000000000E+00 0. -1.
    9900018    1    3    3    0    0 -0.42383097802E+03 -0.15047013389E+02 -0.31559034897E+03  0.53644343346E+03  0.91187600000E+02 0.  0.
<mgrwt>
<rscale>  0 0.26949289E+04</rscale>
<asrwt>0</asrwt>
<pdfrwt beam="1">  1        1 0.33299625E+00 0.26949289E+04</pdfrwt>
<pdfrwt beam="2">  1       -1 0.12905314E+00 0.26949289E+04</pdfrwt>
<totfact> 0.10392322E+00</totfact>
</mgrwt>
</event>
<event>
11    1  0.9203139E-009  0.2049492E+04  0.7818608E-02  0.8583825E-01
          2   -1    0    0  501    0  0.00000000000E+00  0.00000000000E+00  0.17281161691E+04  0.17281161691E+04  0.00000000000E+00 0. -1.
         -2   -1    0    0    0  501 -0.00000000000E+00 -0.00000000000E+00 -0.60765820295E+03  0.60765820295E+03  0.00000000000E+00 0.  1.
    9900016    2    1    2    0    0  0.17557622580E+03 -0.84923214903E+02  0.10301748118E+04  0.21208557561E+04  0.18435644909E+04 0.  0.
        -24    2    3    3    0    0 -0.26567553838E+03 -0.29842907083E+03  0.37447723334E+03  0.55350323244E+03  0.80555744816E+02 0.  0.
        -15    1    3    3    0    0  0.42397891805E+02 -0.13400948374E+03 -0.12522864649E+02  0.14111323503E+03  0.00000000000E+00 0.  1.
        -15    1    3    3    0    0  0.49273490049E+03 -0.22325313031E+02  0.25185217126E+03  0.55381912023E+03  0.00000000000E+00 0.  1.
         15    1    4    4    0    0 -0.17077258540E+03 -0.13702428799E+03  0.22465421078E+03  0.31370120472E+03  0.00000000000E+00 0. -1.
         15    1    3    3    0    0 -0.30844573506E+03  0.18762168194E+03  0.44739937933E+03  0.57489727050E+03  0.00000000000E+00 0. -1.
        -16    1    4    4    0    0 -0.94902952973E+02 -0.16140478285E+03  0.14982302256E+03  0.23980202772E+03  0.00000000000E+00 0.  1.
         16    1    1    2    0    0 -0.17557622580E+03  0.84923214903E+02  0.90283154310E+02  0.21491861587E+03  0.00000000000E+00 0. -1.
    9900018    1    3    3    0    0  0.21456470694E+03  0.18221897077E+03 -0.31031107463E+02  0.29752289794E+03  0.91187600000E+02 0.  0.
<mgrwt>
<rscale>  0 0.20494916E+04</rscale>
<asrwt>0</asrwt>
<pdfrwt beam="1">  1        2 0.26586402E+00 0.20494916E+04</pdfrwt>
<pdfrwt beam="2">  1       -2 0.93485878E-01 0.20494916E+04</pdfrwt>
<totfact> 0.84703671E+00</totfact>
</mgrwt>
</event>
<event>
11    1  0.9203139E-009  0.2348662E+04  0.7818608E-02  0.8458978E-01
         -1   -1    0    0    0  501 -0.00000000000E+00  0.00000000000E+00  0.58623517755E+03  0.58623517755E+03  0.00000000000E+00 0.  1.
          1   -1    0    0  501    0  0.00000000000E+00 -0.00000000000E+00 -0.23523886248E+04  0.23523886248E+04  0.00000000000E+00 0. -1.
    9900016    2    1    2    0    0 -0.16383396482E+03 -0.41786114043E+03 -0.13140281570E+04  0.23015470576E+04  0.18354834132E+04 0.  0.
        -24    2    3    3    0    0 -0.49166244455E+03 -0.62402294946E+02  0.85226720669E+02  0.50917203264E+03  0.79790720730E+02 0.  0.
        -15    1    3    3    0    0  0.16505809580E+03 -0.41022464037E+03 -0.19570574358E+03  0.48355885746E+03  0.00000000000E+00 0.  1.
        -15    1    3    3    0    0  0.88053941796E+02 -0.57683750147E+02 -0.38228923263E+03  0.39651729985E+03  0.00000000000E+00 0.  1.
         15    1    3    3    0    0  0.19638219152E+03  0.75700249376E+02 -0.63553313150E+03  0.66947655234E+03  0.00000000000E+00 0. -1.
         15    1    4    4    0    0 -0.18592169549E+03 -0.62814074445E+02  0.33946469152E+02  0.19916035643E+03  0.00000000000E+00 0. -1.
        -16    1    4    4    0    0 -0.30574074905E+03  0.41177949825E+00  0.51280251517E+02  0.31001167621E+03  0.00000000000E+00 0.  1.
         16    1    1    2    0    0  0.16383396482E+03  0.41786114043E+03 -0.45212529026E+03  0.63707674483E+03  0.00000000000E+00 0. -1.
    9900018    1    3    3    0    0 -0.12166574940E+03  0.36749295659E+02 -0.18572677000E+03  0.24282231527E+03  0.91187600000E+02 0.  0.
<mgrwt>
<rscale>  0 0.23486617E+04</rscale>
<asrwt>0</asrwt>
<pdfrwt beam="1">  1        1 0.36190594E+00 0.23486617E+04</pdfrwt>
<pdfrwt beam="2">  1       -1 0.90190027E-01 0.23486617E+04</pdfrwt>
<totfact> 0.18536901E+00</totfact>
</mgrwt>
</event>
<event>
11    1  0.9203139E-009  0.2253267E+04  0.7818608E-02  0.8496578E-01
         -1   -1    0    0    0  501 -0.00000000000E+00  0.00000000000E+00  0.15789277456E+04  0.15789277456E+04  0.00000000000E+00 0.  1.
          1   -1    0    0  501    0  0.00000000000E+00 -0.00000000000E+00 -0.80390225320E+03  0.80390225320E+03  0.00000000000E+00 0. -1.
    9900016    2    1    2    0    0 -0.25546841568E+03  0.11670198274E+03  0.90013539105E+03  0.20753630072E+04  0.18487845805E+04 0.  0.
        -24    2    3    3    0    0 -0.26174285202E+03 -0.27131487733E+03  0.68007562683E+03  0.78166557548E+03  0.79856937354E+02 0.  0.
        -15    1    3    3    0    0 -0.42455481448E+03  0.23369389717E+02  0.14327986191E+03  0.44868924403E+03  0.00000000000E+00 0.  1.
        -15    1    3    3    0    0  0.95046208451E+02 -0.15150278150E+02  0.24034104659E+03  0.25889598557E+03  0.00000000000E+00 0.  1.
         15    1    3    3    0    0  0.21811528666E+03  0.18480060192E+03  0.92582972210E+01  0.28602667151E+03  0.00000000000E+00 0. -1.
         15    1    4    4    0    0 -0.20549448188E+03 -0.17066585653E+03  0.42876413415E+03  0.50516680354E+03  0.00000000000E+00 0. -1.
        -16    1    4    4    0    0 -0.56248370138E+02 -0.10064902080E+03  0.25131149268E+03  0.27649877194E+03  0.00000000000E+00 0.  1.
         16    1    1    2    0    0  0.25546841568E+03 -0.11670198274E+03 -0.12510989866E+03  0.30746699161E+03  0.00000000000E+00 0. -1.
    9900018    1    3    3    0    0  0.11766775570E+03  0.19499714658E+03 -0.17281944151E+03  0.30008553058E+03  0.91187600000E+02 0.  0.
<mgrwt>
<rscale>  0 0.22532675E+04</rscale>
<asrwt>0</asrwt>
<pdfrwt beam="1">  1        1 0.12367727E+00 0.22532675E+04</pdfrwt>
<pdfrwt beam="2">  1       -1 0.24291196E+00 0.22532675E+04</pdfrwt>
<totfact> 0.15444163E+00</totfact>
</mgrwt>
</event>
<event>
11    1  0.9203139E-009  0.2127236E+04  0.7818608E-02  0.8549340E-01
         -1   -1    0    0    0  501 -0.00000000000E+00  0.00000000000E+00  0.10653567440E+04  0.10653567440E+04  0.00000000000E+00 0.  1.
          1   -1    0    0  501    0  0.00000000000E+00 -0.00000000000E+00 -0.10618825356E+04  0.10618825356E+04  0.00000000000E+00 0. -1.
    9900016    2    1    2    0    0 -0.13617692827E+03  0.14255916061E+03  0.13033806280E+03  0.18928001455E+04  0.18779875160E+04 0.  0.
         24    2    3    3    0    0  0.15144263898E+03 -0.87675776923E+02 -0.10865554521E+03  0.22025717351E+03  0.78008206104E+02 0.  0.
        -15    1    3    3    0    0 -0.29178240654E+03  0.34210750497E+03  0.10839584001E+03  0.46251937889E+03  0.00000000000E+00 0.  1.
        -15    1    4    4    0    0  0.15119701767E+03 -0.77681807249E+02 -0.76175048102E+02  0.18627302350E+03  0.00000000000E+00 0.  1.
         15    1    3    3    0    0  0.23391688506E+03  0.28010461110E+03  0.28397124290E+03  0.46240173990E+03  0.00000000000E+00 0. -1.
         15    1    3    3    0    0 -0.34346925255E+03 -0.28541211242E+03  0.78825974506E+02  0.45348068936E+03  0.00000000000E+00 0. -1.
        -16    1    1    2    0    0  0.13617692827E+03 -0.14255916061E+03 -0.12686385433E+03  0.23443913411E+03  0.00000000000E+00 0.  1.
         16    1    4    4    0    0  0.24562130394E+00 -0.99939696743E+01 -0.32480497108E+02  0.33984150012E+02  0.00000000000E+00 0. -1.
    9900018    1    3    3    0    0  0.11371520677E+03 -0.10656506612E+03 -0.23219944940E+03  0.29414116384E+03  0.91187600000E+02 0.  0.
<mgrwt>
<rscale>  0 0.21272364E+04</rscale>
<asrwt>0</asrwt>
<pdfrwt beam="1">  1        1 0.16336654E+00 0.21272364E+04</pdfrwt>
<pdfrwt beam="2">  1       -1 0.16390104E+00 0.21272364E+04</pdfrwt>
<totfact> 0.33960870E+00</totfact>
</mgrwt>
</event>
<event>
11    1  0.9203139E-009  0.2339805E+04  0.7818608E-02  0.8462390E-01
         -2   -1    0    0    0  501 -0.00000000000E+00  0.00000000000E+00  0.44963740771E+03  0.44963740771E+03  0.00000000000E+00 0.  1.
          2   -1    0    0  501    0  0.00000000000E+00 -0.00000000000E+00 -0.30439460794E+04  0.30439460794E+04  0.00000000000E+00 0. -1.
    9900016    2    1    2    0    0 -0.48910939698E+02 -0.29318500376E+03 -0.16408814314E+04  0.24948977363E+04  0.18557136406E+04 0.  0.
        -24    2    3    3    0    0  0.36864258410E+02 -0.28192455209E+03  0.11002744997E+03  0.31454173575E+03  0.77395330362E+02 0.  0.
        -15    1    3    3    0    0 -0.26237375865E+03  0.16092617446E+03 -0.17477006156E+03  0.35395168777E+03  0.00000000000E+00 0.  1.
        -15    1    3    3    0    0  0.14659051102E+03 -0.77417949263E+02 -0.42333051173E+03  0.45463286172E+03  0.00000000000E+00 0. -1.
         15    1    3    3    0    0 -0.71168904450E+02  0.30794683506E+03 -0.43868445848E+03  0.54068504723E+03  0.00000000000E+00 0.  1.
         15    1    4    4    0    0  0.23640515230E+02 -0.22864493044E+03  0.54038514005E+02  0.23613034360E+03  0.00000000000E+00 0. -1.
        -16    1    4    4    0    0  0.13223743180E+02 -0.53279621649E+02  0.55988935969E+02  0.78411392143E+02  0.00000000000E+00 0.  1.
         16    1    1    2    0    0  0.48910939698E+02  0.29318500376E+03 -0.95342724025E+03  0.99868575082E+03  0.00000000000E+00 0. -1.
    9900018    1    3    3    0    0  0.10117695397E+03 -0.40271551194E+03 -0.71412384962E+03  0.83108640379E+03  0.91187600000E+02 0.  0.
<mgrwt>
<rscale>  0 0.23398051E+04</rscale>
<asrwt>0</asrwt>
<pdfrwt beam="1">  1        2 0.46829940E+00 0.23398051E+04</pdfrwt>
<pdfrwt beam="2">  1       -2 0.69174986E-01 0.23398051E+04</pdfrwt>
<totfact> 0.28184083E+00</totfact>
</mgrwt>
</event>
<event>
11    1  0.9203139E-009  0.2430534E+04  0.7818608E-02  0.8428160E-01
         -2   -1    0    0    0  501 -0.00000000000E+00  0.00000000000E+00  0.38167789763E+03  0.38167789763E+03  0.00000000000E+00 0.  1.
          2   -1    0    0  501    0  0.00000000000E+00 -0.00000000000E+00 -0.38694257181E+04  0.38694257181E+04  0.00000000000E+00 0. -1.
    9900016    2    1    2    0    0 -0.43406841009E+03  0.11136645005E+03 -0.32293876323E+04  0.37338339978E+04  0.18198225113E+04 0.  0.
         24    2    3    3    0    0  0.32614506213E+03  0.16693173350E+03 -0.34440976586E+03  0.50909794464E+03  0.79535056490E+02 0.  0.
        -15    1    3    3    0    0  0.71583793819E+02 -0.22378388671E+03 -0.48791718282E+03  0.54154099086E+03  0.00000000000E+00 0.  1.
        -15    1    4    4    0    0  0.15318750096E+02  0.16019376291E+02 -0.13720074798E+01  0.22207361973E+02  0.00000000000E+00 0.  1.
         15    1    3    3    0    0 -0.70994803644E+03  0.38017883135E+01 -0.10814374099E+04  0.12936566544E+04  0.00000000000E+00 0. -1.
         15    1    3    3    0    0  0.11975871041E+03  0.11814638171E+03 -0.34125804400E+03  0.38047045723E+03  0.00000000000E+00 0. -1.
        -16    1    1    2    0    0  0.43406841009E+03 -0.11136645005E+03 -0.25836018817E+03  0.51726961795E+03  0.00000000000E+00 0.  1.
         16    1    4    4    0    0  0.31082631203E+03  0.15091235721E+03 -0.34303775838E+03  0.48689058266E+03  0.00000000000E+00 0. -1.
    9900018    1    3    3    0    0 -0.24160793999E+03  0.46270433238E+02 -0.97436522978E+03  0.10090679507E+04  0.91187600000E+02 0.  0.
<mgrwt>
<rscale>  0 0.24305343E+04</rscale>
<asrwt>0</asrwt>
<pdfrwt beam="1">  1        2 0.59529620E+00 0.24305343E+04</pdfrwt>
<pdfrwt beam="2">  1       -2 0.58719683E-01 0.24305343E+04</pdfrwt>
<totfact> 0.10596740E+00</totfact>
</mgrwt>
</event>
<event>
11    1  0.9203139E-009  0.2597635E+04  0.7818608E-02  0.8369005E-01
          2   -1    0    0  501    0  0.00000000000E+00  0.00000000000E+00  0.18254563752E+04  0.18254563752E+04  0.00000000000E+00 0.  1.
         -2   -1    0    0    0  501 -0.00000000000E+00 -0.00000000000E+00 -0.92411231515E+03  0.92411231515E+03  0.00000000000E+00 0. -1.
    9900016    2    1    2    0    0 -0.26034026577E+03 -0.32219754898E+03  0.11983528079E+04  0.22398604298E+04  0.18464389994E+04 0.  0.
        -24    2    3    3    0    0 -0.16429498551E+02  0.13250665689E+03  0.78249952410E+03  0.79728493923E+03  0.74362803566E+02 0.  0.
        -15    1    3    3    0    0 -0.37225845581E+03 -0.37278910623E+03  0.24275645138E+03  0.58006790148E+03  0.00000000000E+00 0.  1.
        -15    1    3    3    0    0 -0.90879255499E+02  0.42140058563E+02 -0.13194435599E+03  0.16566271968E+03  0.00000000000E+00 0.  1.
         15    1    4    4    0    0 -0.12887922237E+02  0.14199967492E+03  0.72228220031E+03  0.73622115095E+03  0.00000000000E+00 0. -1.
         15    1    3    3    0    0 -0.85388471496E+02 -0.31876530049E+02  0.35096962967E+03  0.36261134177E+03  0.00000000000E+00 0. -1.
        -16    1    4    4    0    0 -0.35415763133E+01 -0.94930180355E+01  0.60217323793E+02  0.61063788279E+02  0.00000000000E+00 0.  1.
         16    1    1    2    0    0  0.26034026577E+03  0.32219754898E+03 -0.29700874782E+03  0.50970826051E+03  0.00000000000E+00 0. -1.
    9900018    1    3    3    0    0  0.30461541559E+03 -0.92178628154E+02 -0.45928441302E+02  0.33423352767E+03  0.91187600000E+02 0.  0.
<mgrwt>
<rscale>  0 0.25976349E+04</rscale>
<asrwt>0</asrwt>
<pdfrwt beam="1">  1        2 0.28083944E+00 0.25976349E+04</pdfrwt>
<pdfrwt beam="2">  1       -2 0.14217112E+00 0.25976349E+04</pdfrwt>
<totfact> 0.25500555E+00</totfact>
</mgrwt>
</event>
<event>
11    1  0.9203139E-009  0.2052757E+04  0.7818608E-02  0.8582345E-01
          1   -1    0    0  501    0  0.00000000000E+00  0.00000000000E+00  0.29373807286E+04  0.29373807286E+04  0.00000000000E+00 0. -1.
         -1   -1    0    0    0  501 -0.00000000000E+00 -0.00000000000E+00 -0.35863666885E+03  0.35863666885E+03  0.00000000000E+00 0.  1.
    9900016    2    1    2    0    0  0.56263971527E+01 -0.31157272417E+01  0.20021083900E+04  0.27193458621E+04  0.18402072025E+04 0.  0.
        -24    2    3    3    0    0  0.16291658151E+03  0.83973901608E+02  0.79067810300E+03  0.81562853175E+03  0.80527079647E+02 0.  0.
        -15    1    3    3    0    0 -0.70554954872E+02  0.71158203403E+02  0.94221880121E+02  0.13754728010E+03  0.00000000000E+00 0.  1.
        -15    1    3    3    0    0  0.32043607555E+03 -0.12866590496E+03  0.34462455160E+03  0.48785271873E+03  0.00000000000E+00 0.  1.
         15    1    3    3    0    0 -0.65996717807E+03 -0.21075598791E+03  0.49332222500E+03  0.85049490313E+03  0.00000000000E+00 0. -1.
         15    1    4    4    0    0  0.42272384237E+01  0.27649997797E+02  0.66735215568E+02  0.72360078219E+02  0.00000000000E+00 0. -1.
        -16    1    4    4    0    0  0.15868934309E+03  0.56323903811E+02  0.72394288744E+03  0.74326845353E+03  0.00000000000E+00 0.  1.
         16    1    1    2    0    0 -0.56263971527E+01  0.31157272417E+01  0.57663566978E+03  0.57667153542E+03  0.00000000000E+00 0. -1.
    9900018    1    3    3    0    0  0.25279587303E+03  0.18117406062E+03  0.27926163029E+03  0.42782242836E+03  0.91187600000E+02 0.  0.
<mgrwt>
<rscale>  0 0.20527566E+04</rscale>
<asrwt>0</asrwt>
<pdfrwt beam="1">  1        1 0.45190471E+00 0.20527566E+04</pdfrwt>
<pdfrwt beam="2">  1       -1 0.55174874E-01 0.20527566E+04</pdfrwt>
<totfact> 0.20384550E+00</totfact>
</mgrwt>
</event>
<event>
11    1  0.9203140E-009  0.2247124E+04  0.7818608E-02  0.8499066E-01
          1   -1    0    0  501    0  0.00000000000E+00  0.00000000000E+00  0.15662318862E+04  0.15662318862E+04  0.00000000000E+00 0. -1.
         -1   -1    0    0    0  501 -0.00000000000E+00 -0.00000000000E+00 -0.80600541780E+03  0.80600541780E+03  0.00000000000E+00 0.  1.
    9900016    2    1    2    0    0  0.12060219146E+03 -0.12164982682E+03  0.97832701084E+03  0.20949082296E+04  0.18444980838E+04 0.  0.
         24    2    3    3    0    0  0.34417542660E+03 -0.22812183091E+03 -0.12078284340E+02  0.42061189827E+03  0.79197159049E+02 0.  0.
        -15    1    4    4    0    0  0.24397613740E+03 -0.15003832639E+03  0.27043638599E+02  0.28769291510E+03  0.00000000000E+00 0.  1.
        -15    1    3    3    0    0  0.12157946958E+03  0.25389621643E+03  0.16835952670E+03  0.32800882057E+03  0.00000000000E+00 0.  1.
         15    1    3    3    0    0 -0.47849878703E+03  0.28817709427E+03  0.36275779447E+03  0.66603329069E+03  0.00000000000E+00 0. -1.
         15    1    3    3    0    0  0.15264936126E+03 -0.28652981039E+03  0.32120508975E+03  0.45669888265E+03  0.00000000000E+00 0. -1.
        -16    1    1    2    0    0 -0.12060219146E+03  0.12164982682E+03 -0.21810054239E+03  0.27732907446E+03  0.00000000000E+00 0.  1.
         16    1    4    4    0    0  0.10019928920E+03 -0.78083504521E+02 -0.39121922939E+02  0.13291898317E+03  0.00000000000E+00 0. -1.
    9900018    1    3    3    0    0 -0.19303278940E+02 -0.14907149621E+03  0.13808288426E+03  0.22355533740E+03  0.91187600000E+02 0.  0.
<mgrwt>
<rscale>  0 0.22471238E+04</rscale>
<asrwt>0</asrwt>
<pdfrwt beam="1">  1        1 0.24095875E+00 0.22471238E+04</pdfrwt>
<pdfrwt beam="2">  1       -1 0.12400083E+00 0.22471238E+04</pdfrwt>
<totfact> 0.30517041E+00</totfact>
</mgrwt>
</event>
<event>
11    1  0.9203139E-009  0.2406330E+04  0.7818608E-02  0.8437137E-01
          2   -1    0    0  501    0  0.00000000000E+00  0.00000000000E+00  0.11400830659E+04  0.11400830659E+04  0.00000000000E+00 0. -1.
         -2   -1    0    0    0  501 -0.00000000000E+00 -0.00000000000E+00 -0.12697376738E+04  0.12697376738E+04  0.00000000000E+00 0.  1.
    9900016    2    1    2    0    0  0.13222359539E+03 -0.41568215117E+03 -0.35652754489E+03  0.19181439562E+04  0.18335456407E+04 0.  0.
        -24    2    3    3    0    0  0.34113416978E+03 -0.10304465326E+03 -0.53847213230E+02  0.36774230898E+03  0.73103769274E+02 0.  0.
        -15    1    3    3    0    0 -0.11299485580E+03  0.20090948194E+03 -0.16139192781E+03  0.28138907536E+03  0.00000000000E+00 0.  1.
        -15    1    3    3    0    0  0.15900584716E+03 -0.57986652984E+03 -0.21212926005E+03  0.63759460069E+03  0.00000000000E+00 0.  1.
         15    1    3    3    0    0 -0.10004078799E+03  0.14875047639E+03  0.28704941502E+03  0.33842610737E+03  0.00000000000E+00 0. -1.
         15    1    4    4    0    0  0.53181877816E+02  0.76224013024E+01 -0.20319574928E+02  0.57439518234E+02  0.00000000000E+00 0. -1.
        -16    1    4    4    0    0  0.28795229197E+03 -0.11066705456E+03 -0.33527638302E+02  0.31030279074E+03  0.00000000000E+00 0.  1.
         16    1    1    2    0    0 -0.13222359539E+03  0.41568215117E+03  0.22687293700E+03  0.49167678359E+03  0.00000000000E+00 0. -1.
    9900018    1    3    3    0    0 -0.15488077777E+03 -0.82430926402E+02 -0.21620855881E+03  0.29299186379E+03  0.91187600000E+02 0.  0.
<mgrwt>
<rscale>  0 0.24063303E+04</rscale>
<asrwt>0</asrwt>
<pdfrwt beam="1">  1        2 0.17539739E+00 0.24063303E+04</pdfrwt>
<pdfrwt beam="2">  1       -2 0.19534426E+00 0.24063303E+04</pdfrwt>
<totfact> 0.26412738E+00</totfact>
</mgrwt>
</event>
<event>
11    1  0.9203139E-009  0.2479815E+04  0.7818608E-02  0.8410212E-01
         -2   -1    0    0    0  501 -0.00000000000E+00  0.00000000000E+00  0.19390404588E+04  0.19390404588E+04  0.00000000000E+00 0.  1.
          2   -1    0    0  501    0  0.00000000000E+00 -0.00000000000E+00 -0.79285131969E+03  0.79285131969E+03  0.00000000000E+00 0. -1.
    9900016    2    1    2    0    0  0.52800877836E+03 -0.14279938217E+03  0.93946988169E+03  0.21471544144E+04  0.18516164525E+04 0.  0.
        -24    2    3    3    0    0 -0.64333780029E+02 -0.15621163087E+03  0.95850097876E+02  0.20849263002E+03  0.75769562739E+02 0.  0.
        -15    1    3    3    0    0  0.30464881184E+03 -0.31772227537E+03  0.44898185644E+03  0.62876311138E+03  0.00000000000E+00 0.  1.
        -15    1    3    3    0    0  0.46283507020E+03  0.40646060061E+03 -0.11859235342E+03  0.62728834545E+03  0.00000000000E+00 0.  1.
         15    1    3    3    0    0 -0.29348122396E+03 -0.40525762141E+02  0.32445805849E+03  0.43937068397E+03  0.00000000000E+00 0. -1.
         15    1    4    4    0    0 -0.30278587288E+02 -0.50618204243E+02 -0.41490892946E+01  0.59128761114E+02  0.00000000000E+00 0. -1.
        -16    1    4    4    0    0 -0.34055192741E+02 -0.10559342662E+03  0.99999187170E+02  0.14936386890E+03  0.00000000000E+00 0.  1.
         16    1    1    2    0    0 -0.52800877836E+03  0.14279938217E+03  0.20671925738E+03  0.58473736407E+03  0.00000000000E+00 0. -1.
    9900018    1    3    3    0    0  0.11833990031E+03 -0.34800314400E+02  0.18877222231E+03  0.24323964355E+03  0.91187600000E+02 0.  0.
<mgrwt>
<rscale>  0 0.24798151E+04</rscale>
<asrwt>0</asrwt>
<pdfrwt beam="1">  1        2 0.12197713E+00 0.24798151E+04</pdfrwt>
<pdfrwt beam="2">  1       -2 0.29831392E+00 0.24798151E+04</pdfrwt>
<totfact> 0.10138158E+00</totfact>
</mgrwt>
</event>
<event>
11    1  0.9203139E-009  0.2802861E+04  0.7818608E-02  0.8302381E-01
         -1   -1    0    0    0  501 -0.00000000000E+00  0.00000000000E+00  0.11131195416E+04  0.11131195416E+04  0.00000000000E+00 0.  1.
          1   -1    0    0  501    0  0.00000000000E+00 -0.00000000000E+00 -0.17644176748E+04  0.17644176748E+04  0.00000000000E+00 0. -1.
    9900016    2    1    2    0    0  0.47651383265E+03 -0.63091028518E+03 -0.38745237379E+03  0.20440338839E+04  0.18446793640E+04 0.  0.
        -24    2    3    3    0    0 -0.91646341044E+02 -0.56624922840E+03  0.94713172836E+02  0.58684015652E+03  0.79834476901E+02 0.  0.
        -15    1    3    3    0    0  0.27850313988E+02 -0.23727100880E+03 -0.25469600614E+03  0.34920370437E+03  0.00000000000E+00 0.  1.
        -15    1    3    3    0    0  0.14099633149E+03  0.14506993399E+03 -0.16054167057E+02  0.20293591975E+03  0.00000000000E+00 0.  1.
         15    1    4    4    0    0 -0.30077854353E+02 -0.27076587394E+03  0.69894649845E+01  0.27252098715E+03  0.00000000000E+00 0. -1.
         15    1    3    3    0    0 -0.34230379057E+02  0.21497274943E+03  0.18190382512E+03  0.28367940256E+03  0.00000000000E+00 0. -1.
        -16    1    4    4    0    0 -0.61568486691E+02 -0.29548335446E+03  0.87723707852E+02  0.31431916937E+03  0.00000000000E+00 0.  1.
         16    1    1    2    0    0 -0.47651383265E+03  0.63091028518E+03 -0.26384575938E+03  0.83350333257E+03  0.00000000000E+00 0. -1.
    9900018    1    3    3    0    0  0.43354390727E+03 -0.18743273140E+03 -0.39331919855E+03  0.62137470070E+03  0.91187600000E+02 0.  0.
<mgrwt>
<rscale>  0 0.28028612E+04</rscale>
<asrwt>0</asrwt>
<pdfrwt beam="1">  1        1 0.27144887E+00 0.28028612E+04</pdfrwt>
<pdfrwt beam="2">  1       -1 0.17124916E+00 0.28028612E+04</pdfrwt>
<totfact> 0.89823071E-01</totfact>
</mgrwt>
</event>
<event>
11    1  0.9203139E-009  0.2277921E+04  0.7818608E-02  0.8486678E-01
          2   -1    0    0  501    0  0.00000000000E+00  0.00000000000E+00  0.41811209253E+04  0.41811209253E+04  0.00000000000E+00 0. -1.
         -2   -1    0    0    0  501 -0.00000000000E+00 -0.00000000000E+00 -0.31025928175E+03  0.31025928175E+03  0.00000000000E+00 0.  1.
    9900016    2    1    2    0    0 -0.16347788082E+03 -0.36236593321E+03  0.31542943948E+04  0.36719275184E+04  0.18372382763E+04 0.  0.
         24    2    3    3    0    0  0.43347657234E+03  0.26268404903E+03  0.39974478065E+03  0.65069943123E+03  0.81908557299E+02 0.  0.
        -15    1    4    4    0    0  0.88821183473E+02  0.47090557970E+02  0.41204495467E+02  0.10864867109E+03  0.00000000000E+00 0.  1.
        -15    1    3    3    0    0 -0.25617558879E+03 -0.20256453445E+03  0.32774847519E+03  0.46268497479E+03  0.00000000000E+00 0.  1.
         15    1    3    3    0    0 -0.26117297600E+03 -0.84445306802E+02  0.90938822327E+03  0.94991013989E+03  0.00000000000E+00 0. -1.
         15    1    3    3    0    0  0.11410412482E+03 -0.16389104437E+03  0.30041319076E+03  0.36073274166E+03  0.00000000000E+00 0. -1.
        -16    1    1    2    0    0  0.16347788082E+03  0.36236593321E+03  0.71656724876E+03  0.81945268873E+03  0.00000000000E+00 0.  1.
         16    1    4    4    0    0  0.34465538887E+03  0.21559349106E+03  0.35854028519E+03  0.54205076014E+03  0.00000000000E+00 0. -1.
    9900018    1    3    3    0    0 -0.19371001319E+03 -0.17414909661E+03  0.12169997250E+04  0.12479002308E+04  0.91187600000E+02 0.  0.
<mgrwt>
<rscale>  0 0.22779215E+04</rscale>
<asrwt>0</asrwt>
<pdfrwt beam="1">  1        2 0.64324933E+00 0.22779215E+04</pdfrwt>
<pdfrwt beam="2">  1       -2 0.47732200E-01 0.22779215E+04</pdfrwt>
<totfact> 0.91884122E-01</totfact>
</mgrwt>
</event>
<event>
11    1  0.9203139E-009  0.2124754E+04  0.7818608E-02  0.8550417E-01
         -2   -1    0    0    0  501 -0.00000000000E+00  0.00000000000E+00  0.41607942479E+03  0.41607942479E+03  0.00000000000E+00 0.  1.
          2   -1    0    0  501    0  0.00000000000E+00 -0.00000000000E+00 -0.27125695517E+04  0.27125695517E+04  0.00000000000E+00 0. -1.
    9900016    2    1    2    0    0  0.55435135342E+01 -0.26873756866E+03 -0.19859360730E+04  0.27179246994E+04  0.18360070736E+04 0.  0.
        -24    2    3    3    0    0 -0.59807021621E+02  0.25234003926E+03 -0.32275559419E+03  0.42153295636E+03  0.79161129750E+02 0.  0.
        -15    1    3    3    0    0  0.15111815959E+03  0.20907566691E+03 -0.88358615873E+03  0.92047478648E+03  0.00000000000E+00 0.  1.
        -15    1    3    3    0    0  0.49189144983E+02 -0.41074432874E+03 -0.11367477048E+03  0.42901332033E+03  0.00000000000E+00 0.  1.
         15    1    3    3    0    0 -0.16133361846E+03 -0.26007676875E+03 -0.74793540445E+03  0.80813107311E+03  0.00000000000E+00 0. -1.
         15    1    4    4    0    0 -0.75356393555E+00  0.16235496764E+03 -0.17477652212E+03  0.23855090874E+03  0.00000000000E+00 0. -1.
        -16    1    4    4    0    0 -0.59053457685E+02  0.89985071620E+02 -0.14797907207E+03  0.18298204762E+03  0.00000000000E+00 0.  1.
         16    1    1    2    0    0 -0.55435135342E+01  0.26873756866E+03 -0.31055405399E+03  0.41072427710E+03  0.00000000000E+00 0. -1.
    9900018    1    3    3    0    0  0.26376849042E+02 -0.59332177343E+02  0.82015854901E+02  0.13877256315E+03  0.91187600000E+02 0.  0.
<mgrwt>
<rscale>  0 0.21247535E+04</rscale>
<asrwt>0</asrwt>
<pdfrwt beam="1">  1        2 0.41731839E+00 0.21247535E+04</pdfrwt>
<pdfrwt beam="2">  1       -2 0.64012219E-01 0.21247535E+04</pdfrwt>
<totfact> 0.54196491E+00</totfact>
</mgrwt>
</event>
<event>
11    1  0.1121464E-008  0.2314868E+04  0.7818608E-02  0.8472082E-01
         -1   -1    0    0    0  501 -0.00000000000E+00  0.00000000000E+00  0.15068131690E+04  0.15068131690E+04  0.00000000000E+00 0.  1.
          1   -1    0    0  501    0  0.00000000000E+00 -0.00000000000E+00 -0.88906392717E+03  0.88906392717E+03  0.00000000000E+00 0. -1.
    9900016    2    1    2    0    0 -0.17366052612E+03  0.72905428602E+02  0.89039778386E+03  0.20645005620E+04  0.18530734409E+04 0.  0.
        -24    2    3    3    0    0  0.94116803975E+02 -0.24147873676E+03  0.39201346812E+03  0.47672321270E+03  0.80128080261E+02 0.  0.
        -15    1    3    3    0    0  0.18313248309E+03  0.18262806063E+03  0.20946607308E+00  0.25863209152E+03  0.00000000000E+00 0.  1.
        -15    1    3    3    0    0 -0.33019924920E+03 -0.10713338269E+03  0.12801100627E+03  0.36999449129E+03  0.00000000000E+00 0.  1.
         15    1    4    4    0    0  0.74190182517E+02 -0.17775371219E+03  0.34478681014E+03  0.39494114729E+03  0.00000000000E+00 0. -1.
         15    1    3    3    0    0  0.35956417123E+02 -0.22159627918E+02 -0.25466251102E+03  0.25814125506E+03  0.00000000000E+00 0. -1.
        -16    1    4    4    0    0  0.19926621458E+02 -0.63725024567E+02  0.47226657982E+02  0.81782065411E+02  0.00000000000E+00 0.  1.
         16    1    1    2    0    0  0.17366052612E+03 -0.72905428602E+02 -0.27264854207E+03  0.33137653409E+03  0.00000000000E+00 0. -1.
    9900018    1    3    3    0    0 -0.15666698110E+03  0.26104911534E+03  0.62482635442E+03  0.70100951146E+03  0.91187600000E+02 0.  0.
<mgrwt>
<rscale>  0 0.23148678E+04</rscale>
<asrwt>0</asrwt>
<pdfrwt beam="1">  1        1 0.13677907E+00 0.23148678E+04</pdfrwt>
<pdfrwt beam="2">  1       -1 0.23181741E+00 0.23148678E+04</pdfrwt>
<totfact> 0.15396171E+00</totfact>
</mgrwt>
</event>
<event>
11    1  0.9203139E-009  0.2416201E+04  0.7818608E-02  0.8433463E-01
          2   -1    0    0  501    0  0.00000000000E+00  0.00000000000E+00  0.20071741066E+04  0.20071741066E+04  0.00000000000E+00 0. -1.
         -2   -1    0    0    0  501 -0.00000000000E+00 -0.00000000000E+00 -0.72714484005E+03  0.72714484005E+03  0.00000000000E+00 0.  1.
    9900016    2    1    2    0    0  0.28089801045E+03 -0.14254128925E+03  0.14621933950E+04  0.23704433070E+04  0.18389590088E+04 0.  0.
         24    2    3    3    0    0 -0.38136458600E+02  0.80416317709E+02 -0.42530318517E+02  0.12836934917E+03  0.82150399787E+02 0.  0.
        -15    1    4    4    0    0 -0.53462104909E+02  0.88799100327E+02 -0.36371866295E+02  0.10984711893E+03  0.00000000000E+00 0.  1.
        -15    1    3    3    0    0  0.12041558915E+02  0.52966442088E+03  0.89197305933E+03  0.10374513658E+04  0.00000000000E+00 0.  1.
         15    1    3    3    0    0  0.18109427776E+03 -0.40543832911E+03  0.96211058526E+02  0.45434782264E+03  0.00000000000E+00 0. -1.
         15    1    3    3    0    0  0.35082169776E+02  0.75848289470E+02  0.16658488518E+03  0.18637125750E+03  0.00000000000E+00 0. -1.
        -16    1    1    2    0    0 -0.28089801045E+03  0.14254128925E+03 -0.18216412846E+03  0.36387563962E+03  0.00000000000E+00 0.  1.
         16    1    4    4    0    0  0.15325646310E+02 -0.83827826179E+01 -0.61584522227E+01  0.18522230239E+02  0.00000000000E+00 0. -1.
    9900018    1    3    3    0    0  0.90816462598E+02 -0.42303198820E+03  0.34995471045E+03  0.56390351185E+03  0.91187600000E+02 0.  0.
<mgrwt>
<rscale>  0 0.24162006E+04</rscale>
<asrwt>0</asrwt>
<pdfrwt beam="1">  1        2 0.30879601E+00 0.24162006E+04</pdfrwt>
<pdfrwt beam="2">  1       -2 0.11186844E+00 0.24162006E+04</pdfrwt>
<totfact> 0.37494105E+00</totfact>
</mgrwt>
</event>
<event>
11    1  0.9203139E-009  0.2134456E+04  0.7818608E-02  0.8546215E-01
          1   -1    0    0  501    0  0.00000000000E+00  0.00000000000E+00  0.10095470514E+04  0.10095470514E+04  0.00000000000E+00 0. -1.
         -1   -1    0    0    0  501 -0.00000000000E+00 -0.00000000000E+00 -0.11282050275E+04  0.11282050275E+04  0.00000000000E+00 0.  1.
    9900016    2    1    2    0    0  0.79836091131E+02 -0.86552339962E+02  0.13795955090E+03  0.18554089116E+04  0.18465222128E+04 0.  0.
         24    2    3    3    0    0 -0.21126670214E+03 -0.37993337405E+03 -0.31056074393E+03  0.54021341128E+03  0.79997286855E+02 0.  0.
        -15    1    4    4    0    0 -0.15029552118E+03 -0.31332145493E+03 -0.27503311058E+03  0.44317297946E+03  0.00000000000E+00 0.  1.
        -15    1    3    3    0    0  0.33614181738E+03  0.48055506424E+02 -0.27331858647E+03  0.43589414174E+03  0.00000000000E+00 0. -1.
         15    1    3    3    0    0  0.34944181058E+02  0.39051658886E+02  0.29809943690E+02  0.60288975729E+02  0.00000000000E+00 0.  1.
         15    1    3    3    0    0 -0.95608476313E+02  0.18698137880E+03  0.12548819966E+03  0.24464321984E+03  0.00000000000E+00 0. -1.
        -16    1    1    2    0    0 -0.79836091131E+02  0.86552339962E+02 -0.25661752693E+03  0.28234316731E+03  0.00000000000E+00 0.  1.
         16    1    4    4    0    0 -0.60971180956E+02 -0.66611919119E+02 -0.35527633348E+02  0.97040431817E+02  0.00000000000E+00 0. -1.
    9900018    1    3    3    0    0  0.15625271139E+02  0.19292489979E+02  0.56654073794E+03  0.57436916301E+03  0.91187600000E+02 0.  0.
<mgrwt>
<rscale>  0 0.21344564E+04</rscale>
<asrwt>0</asrwt>
<pdfrwt beam="1">  1        1 0.15531493E+00 0.21344564E+04</pdfrwt>
<pdfrwt beam="2">  1       -1 0.17357000E+00 0.21344564E+04</pdfrwt>
<totfact> 0.31597902E+00</totfact>
</mgrwt>
</event>
<event>
11    1  0.9203139E-009  0.2296330E+04  0.7818608E-02  0.8479370E-01
         -1   -1    0    0    0  501 -0.00000000000E+00  0.00000000000E+00  0.90051720094E+03  0.90051720094E+03  0.00000000000E+00 0.  1.
          1   -1    0    0  501    0  0.00000000000E+00 -0.00000000000E+00 -0.14639174124E+04  0.14639174124E+04  0.00000000000E+00 0. -1.
    9900016    2    1    2    0    0 -0.31543472442E+03  0.73457454349E+02 -0.20902061891E+03  0.18843513304E+04  0.18445040673E+04 0.  0.
        -24    2    3    3    0    0 -0.37263255740E+03  0.10148097144E+03  0.85259271984E+02  0.40320800901E+03  0.78448356731E+02 0.  0.
        -15    1    3    3    0    0  0.15337069432E+03 -0.19689985284E+02  0.16230603188E+03  0.22417295417E+03  0.00000000000E+00 0.  1.
        -15    1    3    3    0    0 -0.22396525968E+03 -0.20881491074E+02 -0.15373014991E+02  0.22546131331E+03  0.00000000000E+00 0.  1.
         15    1    4    4    0    0 -0.25875129740E+03  0.10661531670E+03  0.54199499425E+02  0.28505551284E+03  0.00000000000E+00 0. -1.
         15    1    3    3    0    0  0.28601167734E+03 -0.29360702732E+03 -0.52426683706E+03  0.66547988888E+03  0.00000000000E+00 0. -1.
        -16    1    4    4    0    0 -0.11388126000E+03 -0.51343452661E+01  0.31059772559E+02  0.11815249618E+03  0.00000000000E+00 0.  1.
         16    1    1    2    0    0  0.31543472442E+03 -0.73457454349E+02 -0.35437959252E+03  0.48008328295E+03  0.00000000000E+00 0. -1.
    9900018    1    3    3    0    0 -0.15821927900E+03  0.30615498659E+03  0.83053929279E+02  0.36602916499E+03  0.91187600000E+02 0.  0.
<mgrwt>
<rscale>  0 0.22963300E+04</rscale>
<asrwt>0</asrwt>
<pdfrwt beam="1">  1        1 0.22521806E+00 0.22963300E+04</pdfrwt>
<pdfrwt beam="2">  1       -1 0.13854111E+00 0.22963300E+04</pdfrwt>
<totfact> 0.26997110E+00</totfact>
</mgrwt>
</event>
<event>
11    1  0.9203139E-009  0.2004998E+04  0.7818608E-02  0.8604287E-01
          2   -1    0    0  501    0  0.00000000000E+00  0.00000000000E+00  0.20362706957E+04  0.20362706957E+04  0.00000000000E+00 0. -1.
         -2   -1    0    0    0  501 -0.00000000000E+00 -0.00000000000E+00 -0.49355145640E+03  0.49355145640E+03  0.00000000000E+00 0.  1.
    9900016    2    1    2    0    0 -0.14049258981E+03 -0.38217687418E+02  0.13721022879E+04  0.23055256886E+04  0.18470477127E+04 0.  0.
        -24    2    3    3    0    0  0.21952510219E+03 -0.29613273991E+03  0.69572437951E+03  0.79155844971E+03  0.81526050650E+02 0.  0.
        -15    1    3    3    0    0 -0.16744732419E+03 -0.52613274494E+02 -0.33339522870E+02  0.17865689692E+03  0.00000000000E+00 0.  1.
        -15    1    3    3    0    0  0.54749249395E+02  0.13680495358E+03  0.13689028901E+03  0.20112689243E+03  0.00000000000E+00 0.  1.
         15    1    3    3    0    0  0.11146866723E+02 -0.36936073749E+03  0.19123713851E+03  0.41608082169E+03  0.00000000000E+00 0. -1.
         15    1    4    4    0    0  0.14440264478E+03 -0.15992944377E+03  0.47439743377E+03  0.52103980267E+03  0.00000000000E+00 0. -1.
        -16    1    4    4    0    0  0.75122457417E+02 -0.13620329614E+03  0.22132694574E+03  0.27051864704E+03  0.00000000000E+00 0.  1.
         16    1    1    2    0    0  0.14049258981E+03  0.38217687418E+02  0.17061695142E+03  0.22429646349E+03  0.00000000000E+00 0. -1.
    9900018    1    3    3    0    0 -0.25846648393E+03  0.54308411089E+03  0.38159000375E+03  0.71810262788E+03  0.91187600000E+02 0.  0.
<mgrwt>
<rscale>  0 0.20049981E+04</rscale>
<asrwt>0</asrwt>
<pdfrwt beam="1">  1        2 0.31327241E+00 0.20049981E+04</pdfrwt>
<pdfrwt beam="2">  1       -2 0.75930994E-01 0.20049981E+04</pdfrwt>
<totfact> 0.92009507E+00</totfact>
</mgrwt>
</event>
<event>
11    1  0.9203139E-009  0.2643822E+04  0.7818608E-02  0.8353466E-01
         -2   -1    0    0    0  501 -0.00000000000E+00  0.00000000000E+00  0.76022042893E+03  0.76022042893E+03  0.00000000000E+00 0. -1.
          2   -1    0    0  501    0  0.00000000000E+00 -0.00000000000E+00 -0.22986080567E+04  0.22986080567E+04  0.00000000000E+00 0.  1.
    9900016    2    1    2    0    0  0.61683241907E+03  0.25437437184E+03 -0.96820875955E+03  0.21811653976E+04  0.18370807646E+04 0.  0.
        -24    2    3    3    0    0  0.42910214389E+03  0.69084871042E+03 -0.16255009144E+03  0.83351669944E+03  0.83228393248E+02 0.  0.
        -15    1    3    3    0    0  0.53784550769E+02 -0.29419570628E+03 -0.61350552837E+02  0.30529949530E+03  0.00000000000E+00 0.  1.
        -15    1    3    3    0    0  0.51838792760E+02 -0.11543143371E+03 -0.31045926508E+03  0.33525606870E+03  0.00000000000E+00 0.  1.
         15    1    4    4    0    0  0.32600582446E+03  0.53120991432E+03 -0.15994243056E+03  0.64346355899E+03  0.00000000000E+00 0. -1.
         15    1    3    3    0    0  0.16965306853E+03 -0.24808334486E+03 -0.27108903592E+03  0.40474285053E+03  0.00000000000E+00 0. -1.
        -16    1    4    4    0    0  0.10309631944E+03  0.15963879610E+03 -0.26076608723E+01  0.19005314045E+03  0.00000000000E+00 0.  1.
         16    1    1    2    0    0 -0.61683241907E+03 -0.25437437184E+03 -0.57017886821E+03  0.87766308799E+03  0.00000000000E+00 0. -1.
    9900018    1    3    3    0    0 -0.87546136883E+02  0.22123614627E+03 -0.16275981428E+03  0.30235028367E+03  0.91187600000E+02 0.  0.
<mgrwt>
<rscale>  0 0.26438221E+04</rscale>
<asrwt>0</asrwt>
<pdfrwt beam="1">  1        2 0.35363201E+00 0.26438221E+04</pdfrwt>
<pdfrwt beam="2">  1       -2 0.11695699E+00 0.26438221E+04</pdfrwt>
<totfact> 0.22645527E+00</totfact>
</mgrwt>
</event>
