<event>
12    1  0.7247162E-015  0.2562152E+04  0.7818608E-02  0.9180905E-01
          2   -1    0    0  501    0  0.00000000000E+00  0.00000000000E+00  0.99963783534E+03  0.99963783534E+03  0.00000000000E+00 0. -1.
         -2   -1    0    0    0  501 -0.00000000000E+00 -0.00000000000E+00 -0.19126806855E+04  0.19126806855E+04  0.00000000000E+00 0.  1.
         24    2    1    2    0    0  0.44070419420E+02 -0.28111817777E+02  0.11695607919E+03  0.15088373886E+03  0.79716384929E+02 0.  0.
    9900016    2    1    2    0    0 -0.26030820839E+03 -0.41220474149E+03 -0.11380135998E+04  0.22591354462E+04  0.18896943929E+04 0.  0.
        -24    2    4    4    0    0 -0.12119455078E+03  0.22464994599E+03  0.43331659932E+03  0.50942894670E+03  0.81233362117E+02 0.  0.
        -15    1    4    4    0    0 -0.99750050234E+02 -0.56549504290E+03 -0.15044579993E+04  0.16103194055E+04  0.00000000000E+00 0.  1.
        -15    1    3    3    0    0 -0.13421787105E+02 -0.18467576658E+02  0.76735581405E+02  0.80059635337E+02  0.00000000000E+00 0.  1.
         15    1    1    2    0    0  0.21623778897E+03  0.44031655927E+03  0.10801467042E+03  0.50229933582E+03  0.00000000000E+00 0. -1.
         15    1    5    5    0    0 -0.10532815286E+03  0.11123316215E+03  0.23919525004E+03  0.28404436940E+03  0.00000000000E+00 0. -1.
        -16    1    5    5    0    0 -0.15866397924E+02  0.11341678384E+03  0.19412134927E+03  0.22538457730E+03  0.00000000000E+00 0.  1.
         16    1    3    3    0    0  0.57492206524E+02 -0.96442411194E+01  0.40220497788E+02  0.70824103525E+02  0.00000000000E+00 0. -1.
    9900018    1    4    4    0    0 -0.39363607371E+02 -0.71359644581E+02 -0.66872199779E+02  0.13938709394E+03  0.91187600000E+02 0.  0.
<mgrwt>
<rscale>  0 0.11252715E+04</rscale>
<asrwt>0</asrwt>
<pdfrwt beam="1">  1        2 0.15379044E+00 0.25621523E+04</pdfrwt>
<pdfrwt beam="2">  1       -2 0.29425856E+00 0.25621523E+04</pdfrwt>
<totfact> 0.76560508E-01</totfact>
</mgrwt>
</event>
<event>
12    1  0.7247162E-015  0.5130650E+04  0.7818608E-02  0.8406857E-01
          1   -1    0    0  501    0  0.00000000000E+00  0.00000000000E+00  0.43612194908E+04  0.43612194908E+04  0.00000000000E+00 0. -1.
         -1   -1    0    0    0  501 -0.00000000000E+00 -0.00000000000E+00 -0.18966373001E+04  0.18966373001E+04  0.00000000000E+00 0.  1.
        -24    2    1    2    0    0 -0.27180636004E+03  0.23508940047E+02 -0.31365371748E+03  0.42329037704E+03  0.79779202725E+02 0.  0.
    9900016    2    1    2    0    0  0.99898497780E+03  0.17694126049E+04  0.95839268860E+03  0.28712946805E+04  0.17880225515E+04 0.  0.
         24    2    4    4    0    0 -0.16993226192E+02  0.85031258747E+03  0.12070025411E+04  0.14788998329E+04  0.83482425776E+02 0.  0.
        -15    1    5    5    0    0 -0.22833257285E+02  0.69338453795E+02  0.88689975889E+02  0.11486988568E+03  0.00000000000E+00 0.  1.
        -15    1    1    2    0    0 -0.74959312020E+03 -0.19772720591E+04  0.17503145098E+04  0.27450128460E+04  0.00000000000E+00 0.  1.
         15    1    3    3    0    0 -0.79173520506E+02  0.93925146079E+00 -0.14960162630E+03  0.16926303534E+03  0.00000000000E+00 0. -1.
         15    1    4    4    0    0  0.10159782040E+04  0.91910001740E+03 -0.24860985246E+03  0.13923948476E+04  0.00000000000E+00 0. -1.
        -16    1    3    3    0    0 -0.19263283953E+03  0.22569688586E+02 -0.16405209118E+03  0.25402734170E+03  0.00000000000E+00 0.  1.
         16    1    5    5    0    0  0.58400310931E+01  0.78097413368E+03  0.11183125652E+04  0.13640299472E+04  0.00000000000E+00 0. -1.
    9900018    1    1    2    0    0  0.22414502443E+02  0.18435051420E+03  0.69528709819E+02  0.21825888730E+03  0.91187600000E+02 0.  0.
<mgrwt>
<rscale>  0 0.24891619E+04</rscale>
<asrwt>0</asrwt>
<pdfrwt beam="1">  1        1 0.67095684E+00 0.51306501E+04</pdfrwt>
<pdfrwt beam="2">  1       -1 0.29179036E+00 0.51306501E+04</pdfrwt>
<totfact> 0.11526801E-03</totfact>
</mgrwt>
</event>
<event>
12    1  0.7247162E-015  0.3697118E+04  0.7818608E-02  0.8831025E-01
          2   -1    0    0  501    0  0.00000000000E+00  0.00000000000E+00  0.40178217614E+04  0.40178217614E+04  0.00000000000E+00 0. -1.
         -2   -1    0    0    0  501 -0.00000000000E+00 -0.00000000000E+00 -0.91202615579E+03  0.91202615579E+03  0.00000000000E+00 0.  1.
        -24    2    1    2    0    0  0.62815948196E+02 -0.70570404617E+02  0.52452645059E+02  0.13489412696E+03  0.80741068606E+02 0.  0.
    9900016    2    1    2    0    0 -0.81983445674E+03  0.11448201913E+04  0.17286377246E+04  0.29289597954E+04  0.18994407844E+04 0.  0.
         24    2    4    4    0    0 -0.13509410065E+04  0.81588146145E+03  0.96586023954E+03  0.18519463336E+04  0.78198835494E+02 0.  0.
        -15    1    5    5    0    0 -0.78270101623E+03  0.46154018377E+03  0.59977704616E+03  0.10887482386E+04  0.00000000000E+00 0.  1.
        -15    1    1    2    0    0  0.75701850854E+03 -0.10742497867E+04  0.13247052360E+04  0.18659939948E+04  0.00000000000E+00 0.  1.
         15    1    3    3    0    0  0.34485111929E+02 -0.12033479811E+01 -0.11511814376E+02  0.36375718019E+02  0.00000000000E+00 0. -1.
         15    1    4    4    0    0  0.56060426427E+03  0.19557231608E+03  0.63126911245E+03  0.86661777288E+03  0.00000000000E+00 0. -1.
        -16    1    3    3    0    0  0.28330836267E+02 -0.69367056636E+02  0.63964459435E+02  0.98518408944E+02  0.00000000000E+00 0.  1.
         16    1    5    5    0    0 -0.56823999030E+03  0.35434127768E+03  0.36608319339E+03  0.76319809494E+03  0.00000000000E+00 0. -1.
    9900018    1    4    4    0    0 -0.29497714481E+02  0.13336641376E+03  0.13150837257E+03  0.21039568894E+03  0.91187600000E+02 0.  0.
<mgrwt>
<rscale>  0 0.15830566E+04</rscale>
<asrwt>0</asrwt>
<pdfrwt beam="1">  1        2 0.61812642E+00 0.36971176E+04</pdfrwt>
<pdfrwt beam="2">  1       -2 0.14031172E+00 0.36971176E+04</pdfrwt>
<totfact> 0.94843943E-02</totfact>
</mgrwt>
</event>
<event>
12    1  0.7247162E-015  0.3135903E+04  0.7818608E-02  0.8899288E-01
         -1   -1    0    0    0  501 -0.00000000000E+00  0.00000000000E+00  0.10636031568E+04  0.10636031568E+04  0.00000000000E+00 0.  1.
          1   -1    0    0  501    0  0.00000000000E+00 -0.00000000000E+00 -0.26575787857E+04  0.26575787857E+04  0.00000000000E+00 0. -1.
        -24    2    1    2    0    0  0.10232315907E+02 -0.13280349971E+03  0.71531685927E+02  0.17043551057E+03  0.78676625160E+02 0.  0.
    9900016    2    1    2    0    0  0.29088868481E+03 -0.78830466251E+02 -0.20299414040E+04  0.27266894374E+04  0.17953670140E+04 0.  0.
         24    2    4    4    0    0  0.80490302024E+03 -0.44189170348E+03 -0.44932220689E+03  0.10254013239E+04  0.80126648301E+02 0.  0.
        -15    1    5    5    0    0  0.26544630445E+03 -0.18404503091E+03 -0.17802660373E+03  0.36881944849E+03  0.00000000000E+00 0.  1.
        -15    1    1    2    0    0 -0.35154698875E+03  0.20448127606E+03  0.50533770560E+03  0.64866329807E+03  0.00000000000E+00 0.  1.
         15    1    4    4    0    0 -0.51401433544E+03  0.36306123722E+03 -0.15806191971E+04  0.17012881135E+04  0.00000000000E+00 0. -1.
         15    1    3    3    0    0 -0.14521546893E+02 -0.23705750292E+02  0.48972361475E+02  0.56312788153E+02  0.00000000000E+00 0. -1.
        -16    1    3    3    0    0  0.24753862801E+02 -0.10909774942E+03  0.22559324452E+02  0.11412272241E+03  0.00000000000E+00 0.  1.
         16    1    5    5    0    0  0.53945671580E+03 -0.25784667257E+03 -0.27129560316E+03  0.65658187537E+03  0.00000000000E+00 0. -1.
    9900018    1    1    2    0    0  0.50425988039E+02  0.71526898990E+01 -0.14090361648E+03  0.17539369651E+03  0.91187600000E+02 0.  0.
<mgrwt>
<rscale>  0 0.14778937E+04</rscale>
<asrwt>0</asrwt>
<pdfrwt beam="1">  1        1 0.40885827E+00 0.31359027E+04</pdfrwt>
<pdfrwt beam="2">  1       -1 0.16363125E+00 0.31359027E+04</pdfrwt>
<totfact> 0.24078984E-01</totfact>
</mgrwt>
</event>
<event>
12    1  0.7247162E-015  0.4967985E+04  0.7818608E-02  0.8212623E-01
         -1   -1    0    0    0  501 -0.00000000000E+00  0.00000000000E+00  0.16946876679E+04  0.16946876679E+04  0.00000000000E+00 0.  1.
          1   -1    0    0  501    0  0.00000000000E+00 -0.00000000000E+00 -0.48492620180E+04  0.48492620180E+04  0.00000000000E+00 0. -1.
        -24    2    1    2    0    0 -0.12227882141E+03 -0.75037757592E+03 -0.46485702197E+03  0.89457340035E+03  0.78427680922E+02 0.  0.
    9900016    2    1    2    0    0 -0.19424825359E+04  0.71645873688E+03 -0.10028197040E+04  0.29829154206E+04  0.18988379404E+04 0.  0.
         24    2    4    4    0    0 -0.29157368310E+03 -0.55927580167E+03 -0.49772692078E+03  0.80747056287E+03  0.80448662043E+02 0.  0.
        -15    1    1    2    0    0  0.20647613573E+04  0.33918839037E+02 -0.16868976241E+04  0.26664608650E+04  0.00000000000E+00 0.  1.
        -15    1    5    5    0    0 -0.25500610323E+03 -0.45569492270E+03 -0.37579928172E+03  0.64335921179E+03  0.00000000000E+00 0.  1.
         15    1    3    3    0    0 -0.43186939653E+02 -0.40063829565E+03 -0.20782974325E+03  0.45339757153E+03  0.00000000000E+00 0. -1.
         15    1    4    4    0    0 -0.14500085929E+04  0.11999778270E+04 -0.43332044810E+03  0.19313824882E+04  0.00000000000E+00 0. -1.
        -16    1    3    3    0    0 -0.79091881757E+02 -0.34973928028E+03 -0.25702727872E+03  0.44117582882E+03  0.00000000000E+00 0.  1.
         16    1    5    5    0    0 -0.36567579870E+02 -0.10358087897E+03 -0.12192763906E+03  0.16411135108E+03  0.00000000000E+00 0. -1.
    9900018    1    4    4    0    0 -0.20090025987E+03  0.75756711537E+02 -0.71772335158E+02  0.24406236958E+03  0.91187600000E+02 0.  0.
<mgrwt>
<rscale>  0 0.31113764E+04</rscale>
<asrwt>0</asrwt>
<pdfrwt beam="1">  1        1 0.74604030E+00 0.49679848E+04</pdfrwt>
<pdfrwt beam="2">  1       -1 0.26072118E+00 0.49679848E+04</pdfrwt>
<totfact> 0.54983901E-04</totfact>
</mgrwt>
</event>
<event>
12    1  0.7247162E-015  0.4914636E+04  0.7818608E-02  0.8364067E-01
         -2   -1    0    0    0  501 -0.00000000000E+00  0.00000000000E+00  0.24217975246E+04  0.24217975246E+04  0.00000000000E+00 0.  1.
          2   -1    0    0  501    0  0.00000000000E+00 -0.00000000000E+00 -0.31063461492E+04  0.31063461492E+04  0.00000000000E+00 0. -1.
        -24    2    1    2    0    0 -0.11440240945E+03 -0.36650351064E+03 -0.46536635479E+03  0.60862215256E+03  0.80264225015E+02 0.  0.
    9900016    2    1    2    0    0  0.96689165277E+03  0.81869486769E+03 -0.19124494483E+04  0.29705811242E+04  0.18872595392E+04 0.  0.
         24    2    4    4    0    0 -0.31542514212E+03 -0.35681216241E+03 -0.36766107339E+03  0.60673691809E+03  0.78403337667E+02 0.  0.
        -15    1    1    2    0    0 -0.85248924331E+03 -0.45219135705E+03  0.16932671785E+04  0.19489403970E+04  0.00000000000E+00 0.  1.
        -15    1    5    5    0    0 -0.17220048814E+03 -0.17384495759E+03 -0.23454665530E+03  0.33895015992E+03  0.00000000000E+00 0.  1.
         15    1    4    4    0    0  0.12313828605E+04  0.11196184462E+04 -0.13866186905E+04  0.21662318913E+04  0.00000000000E+00 0. -1.
         15    1    3    3    0    0 -0.17016395617E+02 -0.70645937885E+01 -0.34612282016E+02  0.39210665278E+02  0.00000000000E+00 0. -1.
        -16    1    3    3    0    0 -0.97386013837E+02 -0.35943891685E+03 -0.43075407277E+03  0.56941148728E+03  0.00000000000E+00 0.  1.
         16    1    5    5    0    0 -0.14322465399E+03 -0.18296720482E+03 -0.13311441809E+03  0.26778675817E+03  0.00000000000E+00 0. -1.
    9900018    1    4    4    0    0  0.50933934415E+02  0.55888583931E+02 -0.15816968446E+03  0.19761231481E+03  0.91187600000E+02 0.  0.
<mgrwt>
<rscale>  0 0.26122069E+04</rscale>
<asrwt>0</asrwt>
<pdfrwt beam="1">  1        2 0.47789941E+00 0.49146364E+04</pdfrwt>
<pdfrwt beam="2">  1       -2 0.37258424E+00 0.49146364E+04</pdfrwt>
<totfact> 0.11953931E-02</totfact>
</mgrwt>
</event>
