<event>
11    1  0.3892013E-012  0.4459916E+04  0.7818608E-02  0.7917692E-01
          2   -1    0    0  501    0  0.00000000000E+00  0.00000000000E+00  0.35919892477E+04  0.35919892477E+04  0.00000000000E+00 0. -1.
         -2   -1    0    0    0  501 -0.00000000000E+00 -0.00000000000E+00 -0.13843893421E+04  0.13843893421E+04  0.00000000000E+00 0.  1.
    9900016    2    1    2    0    0  0.54139561451E+03  0.42511112111E+03  0.52809996829E+03  0.11242498443E+04  0.71499612525E+03 0.  0.
         23    2    3    3    0    0  0.22470724972E+03 -0.33588119485E+02 -0.11703594196E+03  0.27166738115E+03  0.92109958343E+02 0.  0.
        -15    1    4    4    0    0  0.15953120352E+03  0.99375283088E+01 -0.10770230546E+03  0.19274009953E+03  0.00000000000E+00 0.  1.
        -15    1    1    2    0    0 -0.17485101403E+02 -0.83826791842E+03 -0.32814852971E+03  0.90037785922E+03  0.00000000000E+00 0.  1.
         15    1    1    2    0    0  0.34244398553E+03 -0.65216181001E+03  0.85833019195E+03  0.11310674728E+04  0.00000000000E+00 0. -1.
         15    1    4    4    0    0  0.65176046197E+02 -0.43525647793E+02 -0.93336364952E+01  0.78927281620E+02  0.00000000000E+00 0. -1.
        -16    1    3    3    0    0  0.31668836479E+03  0.45869924059E+03  0.64513591025E+03  0.85258246311E+03  0.00000000000E+00 0.  1.
         16    1    1    2    0    0 -0.64528128051E+03  0.73450272858E+03  0.96179270340E+03  0.13714690640E+04  0.00000000000E+00 0. -1.
    9900018    1    1    2    0    0 -0.22107321812E+03  0.33081587873E+03  0.18752557162E+03  0.44921434950E+03  0.91187600000E+02 0.  0.
<mgrwt>
<rscale>  0 0.44599155E+04</rscale>
<asrwt>0</asrwt>
<pdfrwt beam="1">  1        2 0.55261373E+00 0.44599155E+04</pdfrwt>
<pdfrwt beam="2">  1       -2 0.21298298E+00 0.44599155E+04</pdfrwt>
<totfact> 0.58135822E-02</totfact>
</mgrwt>
</event>
<event>
11    1  0.3892013E-012  0.3863480E+04  0.7818608E-02  0.8032668E-01
          1   -1    0    0  501    0  0.00000000000E+00  0.00000000000E+00  0.38210289630E+04  0.38210289630E+04  0.00000000000E+00 0. -1.
         -1   -1    0    0    0  501 -0.00000000000E+00 -0.00000000000E+00 -0.97660079221E+03  0.97660079221E+03  0.00000000000E+00 0.  1.
    9900016    2    1    2    0    0 -0.39227891678E+03 -0.39534665214E+03  0.13792630854E+03  0.90397630070E+03  0.69854689301E+03 0.  0.
         23    2    3    3    0    0 -0.37403122523E+03 -0.12264963344E+03 -0.21481856810E+03  0.45774139592E+03  0.91857924572E+02 0.  0.
        -15    1    4    4    0    0 -0.14255746142E+03 -0.19733659729E+02 -0.11956280392E+03  0.18710240836E+03  0.00000000000E+00 0.  1.
        -15    1    1    2    0    0  0.29096758885E+03 -0.10983160016E+03  0.46598320340E+03  0.56023697130E+03  0.00000000000E+00 0.  1.
         15    1    4    4    0    0 -0.23147376381E+03 -0.10291597372E+03 -0.95255764179E+02  0.27063898756E+03  0.00000000000E+00 0. -1.
         15    1    1    2    0    0 -0.44879484337E+03 -0.25373216452E+03  0.22508835204E+04  0.23091715928E+04  0.00000000000E+00 0. -1.
        -16    1    1    2    0    0  0.53513367722E+03  0.54061380253E+03 -0.10716930843E+03  0.76819046899E+03  0.00000000000E+00 0.  1.
         16    1    3    3    0    0 -0.18247691546E+02 -0.27269701870E+03  0.35274487664E+03  0.44623490478E+03  0.00000000000E+00 0. -1.
    9900018    1    1    2    0    0  0.14972494077E+02  0.21829661429E+03  0.96804446911E+02  0.25605442142E+03  0.91187600000E+02 0.  0.
<mgrwt>
<rscale>  0 0.38634803E+04</rscale>
<asrwt>0</asrwt>
<pdfrwt beam="1">  1        1 0.58785060E+00 0.38634803E+04</pdfrwt>
<pdfrwt beam="2">  1       -1 0.15024628E+00 0.38634803E+04</pdfrwt>
<totfact> 0.37524849E-02</totfact>
</mgrwt>
</event>
<event>
11    1  0.3892013E-012  0.5683340E+04  0.7818608E-02  0.7730953E-01
          1   -1    0    0  501    0  0.00000000000E+00  0.00000000000E+00  0.39762884742E+04  0.39762884742E+04  0.00000000000E+00 0. -1.
         -1   -1    0    0    0  501 -0.00000000000E+00 -0.00000000000E+00 -0.20308105397E+04  0.20308105397E+04  0.00000000000E+00 0.  1.
    9900016    2    1    2    0    0 -0.98753228930E+03  0.27515589073E+03 -0.23613235573E+03  0.12710385512E+04  0.71333703293E+03 0.  0.
         23    2    3    3    0    0 -0.22434553110E+03 -0.46356006399E+02  0.21572820660E+03  0.32763943327E+03  0.91264135631E+02 0.  0.
        -15    1    4    4    0    0 -0.11449864889E+03 -0.67987118479E+02  0.13491501888E+03  0.18956331711E+03  0.00000000000E+00 0. -1.
        -15    1    1    2    0    0  0.10745151097E+04 -0.30171714126E+03 -0.11263688523E+03  0.11217410674E+04  0.00000000000E+00 0.  1.
         15    1    1    2    0    0  0.31834463477E+03 -0.10721460746E+04  0.20449830934E+04  0.23308359796E+04  0.00000000000E+00 0. -1.
         15    1    4    4    0    0 -0.10984688221E+03  0.21631112080E+02  0.80813187727E+02  0.13807611615E+03  0.00000000000E+00 0.  1.
        -16    1    1    2    0    0 -0.45791125407E+03  0.99129554425E+03  0.14742319807E+03  0.11018544241E+04  0.00000000000E+00 0.  1.
         16    1    3    3    0    0 -0.76318675820E+03  0.32151189713E+03 -0.45186056234E+03  0.94339911792E+03  0.00000000000E+00 0. -1.
    9900018    1    1    2    0    0  0.52583798908E+02  0.10741178084E+03  0.10184088402E+03  0.18162899169E+03  0.91187600000E+02 0.  0.
<mgrwt>
<rscale>  0 0.56833401E+04</rscale>
<asrwt>0</asrwt>
<pdfrwt beam="1">  1        1 0.61173669E+00 0.56833401E+04</pdfrwt>
<pdfrwt beam="2">  1       -1 0.31243239E+00 0.56833401E+04</pdfrwt>
<totfact> 0.18821745E-03</totfact>
</mgrwt>
</event>
<event>
11    1  0.3892013E-012  0.3049773E+04  0.7818608E-02  0.8229659E-01
         -1   -1    0    0    0  501 -0.00000000000E+00  0.00000000000E+00  0.13908530568E+04  0.13908530568E+04  0.00000000000E+00 0.  1.
          1   -1    0    0  501    0  0.00000000000E+00 -0.00000000000E+00 -0.16718366181E+04  0.16718366181E+04  0.00000000000E+00 0. -1.
    9900016    2    1    2    0    0 -0.25355037626E+03  0.17703043865E+03 -0.10185744566E+03  0.77696996319E+03  0.70546425491E+03 0.  0.
         23    2    3    3    0    0 -0.26353733674E+01  0.25836146792E+03  0.22768063547E+03  0.35486994908E+03  0.85654046571E+02 0.  0.
        -15    1    4    4    0    0 -0.10764600809E+02  0.77515769518E+02  0.12290788453E+03  0.14570833619E+03  0.00000000000E+00 0. -1.
        -15    1    1    2    0    0  0.31925768509E+02 -0.10151853645E+03  0.17871722680E+03  0.20800268050E+03  0.00000000000E+00 0.  1.
         15    1    4    4    0    0  0.81292274413E+01  0.18084569840E+03  0.10477275094E+03  0.20916161289E+03  0.00000000000E+00 0.  1.
         15    1    1    2    0    0 -0.31512773695E+03  0.64613366099E+03 -0.33952737613E+03  0.79503021175E+03  0.00000000000E+00 0. -1.
        -16    1    1    2    0    0  0.26193550628E+03 -0.36195735220E+03  0.44356340384E+03  0.62958067592E+03  0.00000000000E+00 0.  1.
         16    1    3    3    0    0 -0.25091500289E+03 -0.81331029265E+02 -0.32953808113E+03  0.42210001411E+03  0.00000000000E+00 0. -1.
    9900018    1    1    2    0    0  0.27481683842E+03 -0.35968821099E+03 -0.46187937016E+03  0.65310614357E+03  0.91187600000E+02 0.  0.
<mgrwt>
<rscale>  0 0.30497732E+04</rscale>
<asrwt>0</asrwt>
<pdfrwt beam="1">  1        1 0.25720563E+00 0.30497732E+04</pdfrwt>
<pdfrwt beam="2">  1       -1 0.21397739E+00 0.30497732E+04</pdfrwt>
<totfact> 0.51012514E-01</totfact>
</mgrwt>
</event>
<event>
11    1  0.3892013E-012  0.3295051E+04  0.7818608E-02  0.8164156E-01
          2   -1    0    0  501    0  0.00000000000E+00  0.00000000000E+00  0.20425244985E+04  0.20425244985E+04  0.00000000000E+00 0. -1.
         -2   -1    0    0    0  501 -0.00000000000E+00 -0.00000000000E+00 -0.13289143268E+04  0.13289143268E+04  0.00000000000E+00 0.  1.
    9900016    2    1    2    0    0  0.39489844836E+03  0.23884137610E+03  0.98559379212E+02  0.81742989393E+03  0.66744864432E+03 0.  0.
         23    2    3    3    0    0  0.15087835805E+02  0.12745822539E+03 -0.24639549841E+03  0.29240020404E+03  0.91180566329E+02 0.  0.
        -15    1    4    4    0    0 -0.26756202853E+02  0.42484555665E+02 -0.14592711721E+03  0.15432289331E+03  0.00000000000E+00 0. -1.
        -15    1    1    2    0    0 -0.13953513420E+03 -0.50224198410E+02  0.10831209475E+03  0.18364104566E+03  0.00000000000E+00 0.  1.
         15    1    4    4    0    0  0.41844038658E+02  0.84973669730E+02 -0.10046838120E+03  0.13807731073E+03  0.00000000000E+00 0.  1.
         15    1    1    2    0    0  0.91431841492E+03 -0.22668779472E+03  0.27219883610E+03  0.98053950788E+03  0.00000000000E+00 0. -1.
        -16    1    1    2    0    0 -0.11600990192E+04  0.18502508611E+03  0.11715769375E+03  0.11805888116E+04  0.00000000000E+00 0.  1.
         16    1    3    3    0    0  0.37981061256E+03  0.11138315071E+03  0.34495487762E+03  0.52502968989E+03  0.00000000000E+00 0. -1.
    9900018    1    1    2    0    0 -0.95827098748E+01 -0.14695446909E+03  0.11738216788E+03  0.20923956615E+03  0.91187600000E+02 0.  0.
<mgrwt>
<rscale>  0 0.32950509E+04</rscale>
<asrwt>0</asrwt>
<pdfrwt beam="1">  1        2 0.31423454E+00 0.32950509E+04</pdfrwt>
<pdfrwt beam="2">  1       -2 0.20444836E+00 0.32950509E+04</pdfrwt>
<totfact> 0.65754420E-01</totfact>
</mgrwt>
</event>
<event>
11    1  0.3892013E-012  0.2694851E+04  0.7818608E-02  0.8670473E-01
         -2   -1    0    0    0  501 -0.00000000000E+00  0.00000000000E+00  0.88297184317E+03  0.88297184317E+03  0.00000000000E+00 0.  1.
          2   -1    0    0  501    0  0.00000000000E+00 -0.00000000000E+00 -0.31176233875E+04  0.31176233875E+04  0.00000000000E+00 0. -1.
    9900016    2    1    2    0    0 -0.79059795306E+02  0.21046596872E+03 -0.26058841056E+03  0.77925816893E+03  0.69913560838E+03 0.  0.
         23    2    3    3    0    0  0.21521281706E+03 -0.13542991713E+03 -0.15856762663E+03  0.31380293522E+03  0.93116974052E+02 0.  0.
        -15    1    4    4    0    0  0.13182949156E+03 -0.12500196451E+03 -0.13557049848E+03  0.22668009625E+03  0.00000000000E+00 0. -1.
        -15    1    1    2    0    0 -0.48390417100E+03  0.21773330711E+03 -0.28264311301E+03  0.60121391291E+03  0.00000000000E+00 0.  1.
         15    1    4    4    0    0  0.83383325497E+02 -0.10427952617E+02 -0.22997128148E+02  0.87122838968E+02  0.00000000000E+00 0.  1.
         15    1    1    2    0    0 -0.50570510891E+02  0.43790257558E+02 -0.13057871993E+03  0.14671661571E+03  0.00000000000E+00 0. -1.
        -16    1    3    3    0    0 -0.29427261236E+03  0.34589588585E+03 -0.10202078393E+03  0.46545523371E+03  0.00000000000E+00 0.  1.
         16    1    1    2    0    0  0.54799936039E+03 -0.10451962443E+04 -0.14654532854E+04  0.18815663209E+04  0.00000000000E+00 0. -1.
    9900018    1    1    2    0    0  0.65535116809E+02  0.57320671091E+03 -0.95388015441E+02  0.59184021227E+03  0.91187600000E+02 0.  0.
<mgrwt>
<rscale>  0 0.18689410E+04</rscale>
<asrwt>0</asrwt>
<pdfrwt beam="1">  1        2 0.47963437E+00 0.26948509E+04</pdfrwt>
<pdfrwt beam="2">  1       -2 0.13584182E+00 0.26948509E+04</pdfrwt>
<totfact> 0.49074365E-01</totfact>
</mgrwt>
</event>
<event>
11    1  0.3892013E-012  0.4184892E+04  0.7818608E-02  0.7968252E-01
          2   -1    0    0  501    0  0.00000000000E+00  0.00000000000E+00  0.23039195268E+04  0.23039195268E+04  0.00000000000E+00 0. -1.
         -2   -1    0    0    0  501 -0.00000000000E+00 -0.00000000000E+00 -0.19003833470E+04  0.19003833470E+04  0.00000000000E+00 0.  1.
    9900016    2    1    2    0    0 -0.62340019087E+03 -0.99777027370E+02  0.11438824088E+03  0.96074863978E+03  0.71510140961E+03 0.  0.
         23    2    3    3    0    0 -0.45164255883E+03 -0.10229028591E+03 -0.26638501893E+03  0.54302232266E+03  0.97303448312E+02 0.  0.
        -15    1    1    2    0    0 -0.10347897086E+03 -0.43175794315E+03  0.69505938426E+02  0.44939280630E+03  0.00000000000E+00 0.  1.
        -15    1    4    4    0    0 -0.37177789583E+03 -0.11163712788E+03 -0.19027102843E+03  0.43230164978E+03  0.00000000000E+00 0. -1.
         15    1    4    4    0    0 -0.79864663005E+02  0.93468419633E+01 -0.76113990503E+02  0.11072067287E+03  0.00000000000E+00 0.  1.
         15    1    1    2    0    0  0.13019256810E+04  0.29549504524E+03 -0.88706306659E+02  0.13379822904E+04  0.00000000000E+00 0. -1.
        -16    1    1    2    0    0 -0.41377812158E+03 -0.78119942007E+02 -0.44901544015E+03  0.61557284275E+03  0.00000000000E+00 0.  1.
         16    1    3    3    0    0 -0.17175763204E+03  0.25132585445E+01  0.38077325981E+03  0.41772631713E+03  0.00000000000E+00 0. -1.
    9900018    1    1    2    0    0 -0.16126839768E+03  0.31415986729E+03  0.75736374727E+03  0.84060629452E+03  0.91187600000E+02 0.  0.
<mgrwt>
<rscale>  0 0.41848920E+04</rscale>
<asrwt>0</asrwt>
<pdfrwt beam="1">  1        2 0.35444915E+00 0.41848920E+04</pdfrwt>
<pdfrwt beam="2">  1       -2 0.29236667E+00 0.41848920E+04</pdfrwt>
<totfact> 0.12407196E-01</totfact>
</mgrwt>
</event>
<event>
11    1  0.3892013E-012  0.5032904E+04  0.7818608E-02  0.7823451E-01
         -2   -1    0    0    0  501 -0.00000000000E+00  0.00000000000E+00  0.38986236527E+04  0.38986236527E+04  0.00000000000E+00 0.  1.
          2   -1    0    0  501    0  0.00000000000E+00 -0.00000000000E+00 -0.16242988932E+04  0.16242988932E+04  0.00000000000E+00 0. -1.
    9900016    2    1    2    0    0  0.77422292204E+03  0.60269238469E+03  0.33429464203E+03  0.12666276168E+04  0.72796522463E+03 0.  0.
         23    2    3    3    0    0  0.48518083449E+03 -0.46220601404E+01 -0.43206583281E+02  0.49534080993E+03  0.89854902730E+02 0.  0.
        -15    1    1    2    0    0  0.96110198863E+03 -0.58245654547E+02  0.15438511057E+04  0.18195015321E+04  0.00000000000E+00 0.  1.
        -15    1    4    4    0    0  0.80343247717E+02 -0.20706562815E+02 -0.35140410943E+02  0.90103538657E+02  0.00000000000E+00 0.  1.
         15    1    1    2    0    0 -0.38586889226E+02  0.27026060440E+03  0.27288866870E+03  0.38600254898E+03  0.00000000000E+00 0. -1.
         15    1    4    4    0    0  0.40483758677E+03  0.16084502675E+02 -0.80661723387E+01  0.40523727127E+03  0.00000000000E+00 0. -1.
        -16    1    3    3    0    0  0.28904208755E+03  0.60731444483E+03  0.37750122531E+03  0.77128680683E+03  0.00000000000E+00 0.  1.
         16    1    1    2    0    0 -0.15412466046E+04 -0.64336596109E+03 -0.15530035566E+03  0.16773428559E+04  0.00000000000E+00 0. -1.
    9900018    1    1    2    0    0 -0.15549141689E+03 -0.17134137346E+03  0.27859069876E+03  0.37344799212E+03  0.91187600000E+02 0.  0.
<mgrwt>
<rscale>  0 0.50329038E+04</rscale>
<asrwt>0</asrwt>
<pdfrwt beam="1">  1        2 0.24989214E+00 0.50329038E+04</pdfrwt>
<pdfrwt beam="2">  1       -2 0.59978825E+00 0.50329038E+04</pdfrwt>
<totfact> 0.40353172E-03</totfact>
</mgrwt>
</event>
<event>
11    1  0.3892013E-012  0.3089829E+04  0.7818608E-02  0.8218535E-01
         -2   -1    0    0    0  501 -0.00000000000E+00  0.00000000000E+00  0.16161447482E+04  0.16161447482E+04  0.00000000000E+00 0.  1.
          2   -1    0    0  501    0  0.00000000000E+00 -0.00000000000E+00 -0.14768238030E+04  0.14768238030E+04  0.00000000000E+00 0. -1.
    9900016    2    1    2    0    0 -0.60124687280E+02 -0.36928394541E+02  0.38264413463E+03  0.80845287153E+03  0.70866129242E+03 0.  0.
         23    2    3    3    0    0 -0.70328158159E+02 -0.33916152301E+03  0.53271727998E+02  0.36131177857E+03  0.87930289508E+02 0.  0.
        -15    1    4    4    0    0 -0.48417128507E+00 -0.12901838411E+03 -0.14241468044E+02  0.12980291705E+03  0.00000000000E+00 0.  1.
        -15    1    1    2    0    0  0.25094975493E+03 -0.52445504103E+03  0.57175033912E+03  0.81543075723E+03  0.00000000000E+00 0.  1.
         15    1    1    2    0    0 -0.29372798607E+02  0.36276860622E+03 -0.73679610821E+00  0.36395654387E+03  0.00000000000E+00 0. -1.
         15    1    4    4    0    0 -0.69843986874E+02 -0.21014313889E+03  0.67513196041E+02  0.23150886153E+03  0.00000000000E+00 0. -1.
        -16    1    3    3    0    0  0.10203470879E+02  0.30223312846E+03  0.32937240664E+03  0.44714109296E+03  0.00000000000E+00 0.  1.
         16    1    1    2    0    0 -0.19068971536E+03  0.14256754472E+03 -0.92096421320E+03  0.95124295232E+03  0.00000000000E+00 0. -1.
    9900018    1    1    2    0    0  0.29237446323E+02  0.56047284627E+02  0.10662748066E+03  0.15388542623E+03  0.91187600000E+02 0.  0.
<mgrwt>
<rscale>  0 0.30898291E+04</rscale>
<asrwt>0</asrwt>
<pdfrwt beam="1">  1        2 0.22720366E+00 0.30898291E+04</pdfrwt>
<pdfrwt beam="2">  1       -2 0.24863765E+00 0.30898291E+04</pdfrwt>
<totfact> 0.72835620E-01</totfact>
</mgrwt>
</event>
