<event>
12    1  0.1960096E-005  0.3450477E+04  0.7818608E-02  0.8454682E-01
         -2   -1    0    0    0  501 -0.00000000000E+00  0.00000000000E+00  0.11322147711E+04  0.11322147711E+04  0.00000000000E+00 0.  1.
          2   -1    0    0  501    0  0.00000000000E+00 -0.00000000000E+00 -0.39209369858E+04  0.39209369858E+04  0.00000000000E+00 0. -1.
         24    2    1    2    0    0  0.68242181524E+03 -0.31258813896E+03 -0.38073593662E+03  0.84551679661E+03  0.80795553057E+02 0.  0.
    9900016    2    1    2    0    0 -0.11169601547E+03 -0.27933270940E+03 -0.23130677404E+03  0.18808277287E+04  0.18421474857E+04 0.  0.
        -24    2    4    4    0    0 -0.28771405677E+03  0.15794060134E+03 -0.40628743609E+03  0.52821572228E+03  0.78852752154E+02 0.  0.
        -15    1    4    4    0    0  0.19402339194E+03  0.35156647780E+03 -0.22818099566E+03  0.46185563948E+03  0.00000000000E+00 0.  1.
        -15    1    3    3    0    0  0.12522510779E+03 -0.26365213435E+02 -0.52539226337E+02  0.13833590425E+03  0.00000000000E+00 0.  1.
         15    1    5    5    0    0 -0.17577847334E+03  0.13582406384E+03 -0.24585656805E+03  0.33134830626E+03  0.00000000000E+00 0. -1.
         15    1    1    2    0    0 -0.57072579976E+03  0.59192084836E+03 -0.21766795040E+04  0.23268072315E+04  0.00000000000E+00 0. -1.
        -16    1    5    5    0    0 -0.11193558343E+03  0.22116537494E+02 -0.16043086805E+03  0.19686741602E+03  0.00000000000E+00 0.  1.
         16    1    3    3    0    0  0.55719670745E+03 -0.28622292552E+03 -0.32819671029E+03  0.70718089236E+03  0.00000000000E+00 0. -1.
    9900018    1    4    4    0    0 -0.18005350643E+02 -0.78883978854E+03  0.40316165771E+03  0.89075636696E+03  0.91187600000E+02 0.  0.
<mgrwt>
<rscale>  0 0.23598694E+04</rscale>
<asrwt>0</asrwt>
<pdfrwt beam="1">  1        2 0.60322107E+00 0.34504774E+04</pdfrwt>
<pdfrwt beam="2">  1       -2 0.17418689E+00 0.34504774E+04</pdfrwt>
<totfact> 0.63371132E-02</totfact>
</mgrwt>
</event>
<event>
12    1  0.1960096E-005  0.3661873E+04  0.7818608E-02  0.8488361E-01
          1   -1    0    0  501    0  0.00000000000E+00  0.00000000000E+00  0.19572306509E+04  0.19572306509E+04  0.00000000000E+00 0. -1.
         -1   -1    0    0    0  501 -0.00000000000E+00 -0.00000000000E+00 -0.23076029916E+04  0.23076029916E+04  0.00000000000E+00 0.  1.
         24    2    1    2    0    0 -0.19651187910E+03  0.49943075335E+03  0.16059032080E+03  0.56748355551E+03  0.90555721067E+02 0.  0.
    9900016    2    1    2    0    0  0.16078565639E+03  0.10355414324E+04 -0.35656176609E+03  0.21542183329E+04  0.18480590487E+04 0.  0.
        -24    2    4    4    0    0  0.55010556691E+03  0.14824568630E+02  0.17935285960E+03  0.58421465804E+03  0.79394054161E+02 0.  0.
        -15    1    3    3    0    0 -0.60369383165E+01  0.94952100889E+02  0.97602875806E+01  0.95643135149E+02  0.00000000000E+00 0.  1.
        -15    1    4    4    0    0 -0.66969523102E+03  0.38338232324E+03 -0.31938237732E+03  0.83515196890E+03  0.00000000000E+00 0.  1.
         15    1    5    5    0    0  0.39363795339E+03  0.44903174993E+02  0.11686989049E+03  0.41306864415E+03  0.00000000000E+00 0. -1.
         15    1    1    2    0    0  0.35726222714E+02 -0.15349721857E+04 -0.15440089545E+03  0.15431317541E+04  0.00000000000E+00 0. -1.
        -16    1    5    5    0    0  0.15646761352E+03 -0.30078606363E+02  0.62482969111E+02  0.17114601389E+03  0.00000000000E+00 0.  1.
         16    1    3    3    0    0 -0.19047494079E+03  0.40447865246E+03  0.15083003322E+03  0.47184042036E+03  0.00000000000E+00 0. -1.
    9900018    1    4    4    0    0  0.28037532049E+03  0.63733454048E+03 -0.21653224838E+03  0.73485170600E+03  0.91187600000E+02 0.  0.
<mgrwt>
<rscale>  0 0.22737071E+04</rscale>
<asrwt>0</asrwt>
<pdfrwt beam="1">  1        1 0.30111241E+00 0.36618731E+04</pdfrwt>
<pdfrwt beam="2">  1       -1 0.35501584E+00 0.36618731E+04</pdfrwt>
<totfact> 0.36175413E-02</totfact>
</mgrwt>
</event>
<event>
12    1  0.1960096E-005  0.4714593E+04  0.7818608E-02  0.7874108E-01
          2   -1    0    0  501    0  0.00000000000E+00  0.00000000000E+00  0.17554013918E+04  0.17554013918E+04  0.00000000000E+00 0. -1.
         -2   -1    0    0    0  501 -0.00000000000E+00 -0.00000000000E+00 -0.31655707958E+04  0.31655707958E+04  0.00000000000E+00 0.  1.
         24    2    1    2    0    0  0.95324450892E+03 -0.39440429671E+03 -0.51269344819E+03  0.11546375350E+04  0.78124402797E+02 0.  0.
    9900016    2    1    2    0    0 -0.11308563256E+04 -0.27792443151E+03 -0.16566961219E+04  0.27367778856E+04  0.18409870004E+04 0.  0.
        -24    2    4    4    0    0  0.11541912917E+03 -0.37479185676E+03  0.96120530813E+02  0.41137755747E+03  0.78751679829E+02 0.  0.
        -15    1    4    4    0    0 -0.39015847889E+03 -0.37938566105E+03 -0.62233893304E+03  0.82671812974E+03  0.00000000000E+00 0.  1.
        -15    1    3    3    0    0  0.70640082382E+03 -0.25855062348E+03 -0.39006889003E+03  0.84735133667E+03  0.00000000000E+00 0.  1.
         15    1    5    5    0    0  0.29908276265E+02 -0.18832207868E+03  0.16749120543E+02  0.19141641347E+03  0.00000000000E+00 0. -1.
         15    1    1    2    0    0  0.17761181671E+03  0.67232872822E+03  0.75922016606E+03  0.10295567671E+04  0.00000000000E+00 0. -1.
        -16    1    5    5    0    0  0.85510852906E+02 -0.18646977808E+03  0.79371410269E+02  0.21996114400E+03  0.00000000000E+00 0.  1.
         16    1    3    3    0    0  0.24684368510E+03 -0.13585367323E+03 -0.12262455817E+03  0.30728619831E+03  0.00000000000E+00 0. -1.
    9900018    1    4    4    0    0 -0.85611697591E+03  0.47625308630E+03 -0.11304777196E+04  0.14986821984E+04  0.91187600000E+02 0.  0.
<mgrwt>
<rscale>  0 0.47145933E+04</rscale>
<asrwt>0</asrwt>
<pdfrwt beam="1">  1        2 0.27006175E+00 0.47145933E+04</pdfrwt>
<pdfrwt beam="2">  1       -2 0.48701089E+00 0.47145933E+04</pdfrwt>
<totfact> 0.13603603E-02</totfact>
</mgrwt>
</event>
