<event>
12    1  0.1791915E-011  0.2548098E+04  0.7818608E-02  0.8386048E-01
          2   -1    0    0  501    0  0.00000000000E+00  0.00000000000E+00  0.39617640225E+04  0.39617640225E+04  0.00000000000E+00 0. -1.
         -2   -1    0    0    0  501 -0.00000000000E+00 -0.00000000000E+00 -0.40971665606E+03  0.40971665606E+03  0.00000000000E+00 0.  1.
    9900016    2    1    2    0    0  0.15358757379E+03 -0.37902948551E+02  0.30040924981E+04  0.38011471673E+04  0.23236011435E+04 0.  0.
         23    2    3    3    0    0  0.26100056544E+03  0.21174558879E+03  0.73676670041E+03  0.81505344614E+03  0.92355073963E+02 0.  0.
        -24    2    3    3    0    0 -0.19704329674E+03  0.17992781855E+03 -0.12632780337E+03  0.31358893245E+03  0.10573184938E+03 0.  0.
        -15    1    4    4    0    0  0.16641156018E+03  0.16231777539E+03  0.58520171168E+03  0.62968318297E+03  0.00000000000E+00 0. -1.
        -15    1    3    3    0    0  0.16635805461E+03 -0.59271505634E+03  0.23925381793E+04  0.24704706191E+04  0.00000000000E+00 0.  1.
         15    1    5    5    0    0 -0.10859166797E+03  0.13394610043E+03 -0.30117680196E+02  0.17504508800E+03  0.00000000000E+00 0. -1.
         15    1    4    4    0    0  0.94589005266E+02  0.49427813408E+02  0.15156498873E+03  0.18537026316E+03  0.00000000000E+00 0.  1.
        -16    1    5    5    0    0 -0.88451628770E+02  0.45981718117E+02 -0.96210123179E+02  0.13854384445E+03  0.00000000000E+00 0.  1.
         16    1    1    2    0    0 -0.15358757379E+03  0.37902948551E+02  0.54795486833E+03  0.57033351126E+03  0.00000000000E+00 0. -1.
    9900018    1    3    3    0    0 -0.76727749521E+02  0.16313870045E+03  0.11154217426E+01  0.20203416961E+03  0.91187600000E+02 0.  0.
<mgrwt>
<rscale>  0 0.25480979E+04</rscale>
<asrwt>0</asrwt>
<pdfrwt beam="1">  1        2 0.60950213E+00 0.25480979E+04</pdfrwt>
<pdfrwt beam="2">  1       -2 0.63033335E-01 0.25480979E+04</pdfrwt>
<totfact> 0.76290451E-01</totfact>
</mgrwt>
</event>
<event>
12    1  0.1791914E-011  0.4540362E+04  0.7818608E-02  0.7903608E-01
         -2   -1    0    0    0  501 -0.00000000000E+00  0.00000000000E+00  0.12896183854E+04  0.12896183854E+04  0.00000000000E+00 0.  1.
          2   -1    0    0  501    0  0.00000000000E+00 -0.00000000000E+00 -0.39963157000E+04  0.39963157000E+04  0.00000000000E+00 0. -1.
    9900016    2    1    2    0    0  0.16500429549E+03  0.35694522363E+03 -0.15625955407E+04  0.27972415359E+04  0.22865299202E+04 0.  0.
         23    2    3    3    0    0 -0.13520833921E+03  0.43202444572E+02 -0.19476659490E+02  0.17105552348E+03  0.93450016790E+02 0.  0.
         24    2    3    3    0    0 -0.57339200586E+03  0.41832140604E+02  0.23267987899E+03  0.62854197504E+03  0.10196454249E+03 0.  0.
        -15    1    5    5    0    0 -0.37534734937E+03  0.52995400943E+02  0.10762222573E+03  0.39405163199E+03  0.00000000000E+00 0.  1.
        -15    1    4    4    0    0 -0.46680592319E+02 -0.12257763661E+02  0.28554260124E+02  0.56077412926E+02  0.00000000000E+00 0. -1.
         15    1    4    4    0    0 -0.88527746890E+02  0.55460208233E+02 -0.48030919615E+02  0.11497811055E+03  0.00000000000E+00 0.  1.
         15    1    3    3    0    0  0.87360464056E+03  0.27191063845E+03 -0.17757987602E+04  0.19976440374E+04  0.00000000000E+00 0. -1.
        -16    1    1    2    0    0 -0.56137692142E+03 -0.29666869851E+02  0.50700518842E+03  0.75701943975E+03  0.00000000000E+00 0.  1.
         16    1    5    5    0    0 -0.19804465649E+03 -0.11163260339E+02  0.12505765326E+03  0.23449034305E+03  0.00000000000E+00 0. -1.
    9900018    1    1    2    0    0  0.39637262594E+03 -0.32727835378E+03 -0.16511069623E+04  0.17316731097E+04  0.91187600000E+02 0.  0.
<mgrwt>
<rscale>  0 0.45403622E+04</rscale>
<asrwt>0</asrwt>
<pdfrwt beam="1">  1        2 0.61481779E+00 0.45403622E+04</pdfrwt>
<pdfrwt beam="2">  1       -2 0.19840283E+00 0.45403622E+04</pdfrwt>
<totfact> 0.35300209E-02</totfact>
</mgrwt>
</event>
<event>
12    1  0.1791914E-011  0.3888457E+04  0.7818608E-02  0.8027434E-01
          2   -1    0    0  501    0  0.00000000000E+00  0.00000000000E+00  0.19296142544E+04  0.19296142544E+04  0.00000000000E+00 0. -1.
         -2   -1    0    0    0  501 -0.00000000000E+00 -0.00000000000E+00 -0.19589532190E+04  0.19589532190E+04  0.00000000000E+00 0.  1.
    9900016    2    1    2    0    0 -0.99571650947E+03  0.73951533991E+02  0.64256093568E+03  0.25825121589E+04  0.22933739988E+04 0.  0.
         23    2    3    3    0    0 -0.16479888113E+03  0.42278813627E+02 -0.19614308801E+03  0.27444535605E+03  0.88893043489E+02 0.  0.
        -24    2    3    3    0    0  0.61572609531E+03 -0.25938090588E+03  0.25575461704E+03  0.72146027090E+03  0.93259956905E+02 0.  0.
        -15    1    4    4    0    0 -0.17887689042E+02 -0.22653715026E+02 -0.47591880764E+02  0.55661003750E+02  0.00000000000E+00 0. -1.
        -15    1    3    3    0    0 -0.14466437237E+04  0.29105362625E+03  0.58294940665E+03  0.15866065320E+04  0.00000000000E+00 0.  1.
         15    1    5    5    0    0  0.25882980926E+03 -0.12839621269E+03  0.15629721374E+03  0.32849243007E+03  0.00000000000E+00 0. -1.
         15    1    4    4    0    0 -0.14691119209E+03  0.64932528653E+02 -0.14855120725E+03  0.21878435230E+03  0.00000000000E+00 0.  1.
        -16    1    5    5    0    0  0.35689628605E+03 -0.13098469319E+03  0.99457403300E+02  0.39296784082E+03  0.00000000000E+00 0.  1.
         16    1    1    2    0    0  0.24512654704E+03  0.18256776890E+03 -0.28865178209E+03  0.42040202855E+03  0.00000000000E+00 0. -1.
    9900018    1    1    2    0    0  0.75058996243E+03 -0.25651930290E+03 -0.38324811822E+03  0.88565328598E+03  0.91187600000E+02 0.  0.
<mgrwt>
<rscale>  0 0.38884568E+04</rscale>
<asrwt>0</asrwt>
<pdfrwt beam="1">  1        2 0.29686373E+00 0.38884568E+04</pdfrwt>
<pdfrwt beam="2">  1       -2 0.30137742E+00 0.38884568E+04</pdfrwt>
<totfact> 0.18142155E-01</totfact>
</mgrwt>
</event>
<event>
12    1  0.1791914E-011  0.3889171E+04  0.7818608E-02  0.8851354E-01
          3   -1    0    0  501    0  0.00000000000E+00  0.00000000000E+00  0.18651531501E+04  0.18651531501E+04  0.00000000000E+00 0. -1.
         -3   -1    0    0    0  501 -0.00000000000E+00 -0.00000000000E+00 -0.21983571386E+04  0.21983571386E+04  0.00000000000E+00 0.  1.
         23    2    1    2    0    0 -0.11880441886E+02  0.38156463209E+02  0.11188997636E+03  0.14895252760E+03  0.89835561360E+02 0.  0.
    9900016    2    1    2    0    0 -0.72051544791E+03  0.19844518797E+03  0.35785656060E+03  0.22925072145E+04  0.21375231010E+04 0.  0.
         24    2    4    4    0    0  0.63517533688E+03 -0.32021710101E+03 -0.18722767995E+03  0.74201538821E+03  0.97703284677E+02 0.  0.
        -15    1    3    3    0    0 -0.12261860401E+02 -0.27226245476E+02  0.19121091133E+02  0.35457549116E+02  0.00000000000E+00 0.  1.
        -15    1    5    5    0    0  0.41689705619E+03 -0.19999575500E+03 -0.73878239200E+02  0.46825148340E+03  0.00000000000E+00 0.  1.
         15    1    4    4    0    0 -0.13556907848E+04  0.51866228899E+03  0.54508424055E+03  0.15504918263E+04  0.00000000000E+00 0. -1.
         15    1    3    3    0    0  0.38141851503E+00  0.65382708684E+02  0.92768885223E+02  0.11349497848E+03  0.00000000000E+00 0. -1.
        -16    1    1    2    0    0 -0.23391000888E+03 -0.32702381695E+03 -0.40030593877E+03  0.56736523838E+03  0.00000000000E+00 0.  1.
         16    1    5    5    0    0  0.21827828069E+03 -0.12022134601E+03 -0.11334944075E+03  0.27376390481E+03  0.00000000000E+00 0. -1.
    9900018    1    1    2    0    0  0.96630589868E+03  0.90422165762E+02 -0.40264458664E+03  0.10546853082E+04  0.91187600000E+02 0.  0.
<mgrwt>
<rscale>  0 0.15508044E+04</rscale>
<asrwt>0</asrwt>
<pdfrwt beam="1">  1        3 0.28694664E+00 0.38891714E+04</pdfrwt>
<pdfrwt beam="2">  1       -3 0.33820879E+00 0.38891714E+04</pdfrwt>
<totfact> 0.21620754E-03</totfact>
</mgrwt>
</event>
<event>
11    1  0.1791914E-011  0.3084249E+04  0.7818608E-02  0.8220074E-01
         -2   -1    0    0    0  501 -0.00000000000E+00  0.00000000000E+00  0.13995411289E+04  0.13995411289E+04  0.00000000000E+00 0.  1.
          2   -1    0    0  501    0  0.00000000000E+00 -0.00000000000E+00 -0.16992342304E+04  0.16992342304E+04  0.00000000000E+00 0. -1.
    9900016    2    1    2    0    0 -0.25364727105E+02  0.13190110487E+03 -0.91206942513E+03  0.24718415250E+04  0.22934883077E+04 0.  0.
         23    2    3    3    0    0 -0.20783444955E+02  0.79364670703E+02  0.22240303928E+03  0.25357453079E+03  0.90034594707E+02 0.  0.
        -15    1    4    4    0    0 -0.49234227834E+01  0.96639532152E+02  0.19356814024E+03  0.21640717221E+03  0.00000000000E+00 0.  1.
        -15    1    3    3    0    0 -0.38486001403E+03 -0.43598550235E+03 -0.81618011628E+02  0.58724959641E+03  0.00000000000E+00 0.  1.
         15    1    3    3    0    0  0.23909519109E+03  0.70011518406E+03 -0.70300991490E+03  0.10205639234E+04  0.00000000000E+00 0. -1.
         15    1    4    4    0    0 -0.15860022171E+02 -0.17274861449E+02  0.28834899038E+02  0.37167358581E+02  0.00000000000E+00 0. -1.
        -16    1    1    2    0    0  0.25364727105E+02 -0.13190110487E+03  0.61237632358E+03  0.62693383426E+03  0.00000000000E+00 0.  1.
         16    1    3    3    0    0 -0.46159015798E+02 -0.19779853084E+03 -0.96783757498E-01  0.20311307912E+03  0.00000000000E+00 0. -1.
    9900018    1    3    3    0    0  0.18734255659E+03 -0.13794716699E+02 -0.34974775413E+03  0.40734039528E+03  0.91187600000E+02 0.  0.
<mgrwt>
<rscale>  0 0.30842491E+04</rscale>
<asrwt>0</asrwt>
<pdfrwt beam="1">  1        2 0.26142065E+00 0.30842491E+04</pdfrwt>
<pdfrwt beam="2">  1       -2 0.21531402E+00 0.30842491E+04</pdfrwt>
<totfact> 0.88350885E-01</totfact>
</mgrwt>
</event>
