<event>
11    1  0.2819202E-013  0.3363366E+04  0.7818608E-02  0.8146956E-01
         -2   -1    0    0    0  501 -0.00000000000E+00  0.00000000000E+00  0.13712531972E+04  0.13712531972E+04  0.00000000000E+00 0. -1.
          2   -1    0    0  501    0  0.00000000000E+00 -0.00000000000E+00 -0.20623892598E+04  0.20623892598E+04  0.00000000000E+00 0.  1.
    9900016    2    1    2    0    0 -0.36329987273E+02  0.13064188044E+03 -0.10171048639E+04  0.12471005223E+04  0.70878081206E+03 0.  0.
         23    2    3    3    0    0 -0.19660160399E+03 -0.69484669959E+02 -0.49667544106E+03  0.54430821051E+03  0.78132094702E+02 0.  0.
        -15    1    1    2    0    0  0.27208200206E+03 -0.36137628531E+02 -0.30732046941E+03  0.41204419054E+03  0.00000000000E+00 0.  1.
        -15    1    4    4    0    0 -0.88676921884E+02 -0.36505708219E+02 -0.13614499457E+03  0.16652844428E+03  0.00000000000E+00 0.  1.
         15    1    4    4    0    0 -0.10792468211E+03 -0.32978961740E+02 -0.36053044649E+03  0.37777976623E+03  0.00000000000E+00 0. -1.
         15    1    1    2    0    0  0.14364833214E+03 -0.16042345618E+03  0.11275525023E+04  0.11479308229E+04  0.00000000000E+00 0. -1.
        -16    1    1    2    0    0 -0.37940034692E+03  0.65919204279E+02 -0.49426323161E+03  0.62656692129E+03  0.00000000000E+00 0.  1.
         16    1    3    3    0    0 -0.12012155886E+02  0.62342955568E+01  0.59484581233E+02  0.61004702561E+02  0.00000000000E+00 0. -1.
    9900018    1    3    3    0    0  0.17228377260E+03  0.19389225484E+03 -0.57991400410E+03  0.64178760921E+03  0.91187600000E+02 0.  0.
<mgrwt>
<rscale>  0 0.33633661E+04</rscale>
<asrwt>0</asrwt>
<pdfrwt beam="1">  1        2 0.31729065E+00 0.33633661E+04</pdfrwt>
<pdfrwt beam="2">  1       -2 0.21096203E+00 0.33633661E+04</pdfrwt>
<totfact> 0.57850955E-01</totfact>
</mgrwt>
</event>
<event>
11    1  0.2819202E-013  0.4146285E+04  0.7818608E-02  0.7975669E-01
         -2   -1    0    0    0  501 -0.00000000000E+00  0.00000000000E+00  0.13149622605E+04  0.13149622605E+04  0.00000000000E+00 0.  1.
          2   -1    0    0  501    0  0.00000000000E+00 -0.00000000000E+00 -0.32684741594E+04  0.32684741594E+04  0.00000000000E+00 0. -1.
    9900016    2    1    2    0    0  0.93676483497E+03  0.39411647822E+03 -0.66693744332E+03  0.14098771910E+04  0.71420724303E+03 0.  0.
         23    2    3    3    0    0  0.35133910889E+03 -0.13741770776E+03 -0.20973550442E+03  0.43755682697E+03  0.71723072833E+02 0.  0.
        -15    1    1    2    0    0 -0.13392362924E+04 -0.11204065423E+04 -0.47061119922E+03  0.18084080203E+04  0.00000000000E+00 0.  1.
        -15    1    4    4    0    0  0.24563128850E+03 -0.11734114950E+03 -0.12018937518E+03  0.29757211087E+03  0.00000000000E+00 0.  1.
         15    1    4    4    0    0  0.10570782038E+03 -0.20076558254E+02 -0.89546129239E+02  0.13998471611E+03  0.00000000000E+00 0. -1.
         15    1    1    2    0    0 -0.19877743513E+03  0.12855823150E+03 -0.10617782755E+03  0.25944829671E+03  0.00000000000E+00 0. -1.
        -16    1    3    3    0    0  0.55719663631E+03  0.38463844482E+03 -0.40743708930E+03  0.79020238324E+03  0.00000000000E+00 0.  1.
         16    1    1    2    0    0  0.60124889256E+03  0.59773183260E+03 -0.70978542883E+03  0.11057029119E+04  0.00000000000E+00 0. -1.
    9900018    1    3    3    0    0  0.28229089779E+02  0.14689574116E+03 -0.49764849602E+02  0.18211798080E+03  0.91187600000E+02 0.  0.
<mgrwt>
<rscale>  0 0.41462852E+04</rscale>
<asrwt>0</asrwt>
<pdfrwt beam="1">  1        2 0.50284217E+00 0.41462852E+04</pdfrwt>
<pdfrwt beam="2">  1       -2 0.20230189E+00 0.41462852E+04</pdfrwt>
<totfact> 0.11693622E-01</totfact>
</mgrwt>
</event>
<event>
11    1  0.2819202E-013  0.3780712E+04  0.7818608E-02  0.8050307E-01
          2   -1    0    0  501    0  0.00000000000E+00  0.00000000000E+00  0.18458358618E+04  0.18458358618E+04  0.00000000000E+00 0. -1.
         -2   -1    0    0    0  501 -0.00000000000E+00 -0.00000000000E+00 -0.19359498687E+04  0.19359498687E+04  0.00000000000E+00 0.  1.
    9900016    2    1    2    0    0 -0.52253955547E+03  0.20016703417E+03  0.22255111395E+02  0.90663236769E+03  0.71300247654E+03 0.  0.
         23    2    3    3    0    0 -0.10406057497E+03  0.24717190171E+03  0.17751997533E+03  0.32958364277E+03  0.72038071063E+02 0.  0.
        -15    1    4    4    0    0 -0.27860754257E+02  0.10369883443E+03  0.33493841664E+02  0.11247891944E+03  0.00000000000E+00 0. -1.
        -15    1    1    2    0    0 -0.28373241121E+03  0.10047803605E+04 -0.34922090618E+03  0.11009281972E+04  0.00000000000E+00 0.  1.
         15    1    1    2    0    0 -0.16748539478E+03 -0.10309264882E+03  0.23147503288E+03  0.30374354734E+03  0.00000000000E+00 0. -1.
         15    1    4    4    0    0 -0.76199820716E+02  0.14347306728E+03  0.14402613367E+03  0.21710472333E+03  0.00000000000E+00 0.  1.
        -16    1    3    3    0    0 -0.43410912297E+03 -0.47110661304E+01 -0.18373378198E+03  0.47141386003E+03  0.00000000000E+00 0.  1.
         16    1    1    2    0    0  0.97375736145E+03 -0.11018547459E+04  0.53767550402E+01  0.14704816182E+04  0.00000000000E+00 0. -1.
    9900018    1    3    3    0    0  0.15630142475E+02 -0.42293801406E+02  0.28468918041E+02  0.10563486489E+03  0.91187600000E+02 0.  0.
<mgrwt>
<rscale>  0 0.37807119E+04</rscale>
<asrwt>0</asrwt>
<pdfrwt beam="1">  1        2 0.28397475E+00 0.37807119E+04</pdfrwt>
<pdfrwt beam="2">  1       -2 0.29783844E+00 0.37807119E+04</pdfrwt>
<totfact> 0.21413715E-01</totfact>
</mgrwt>
</event>
<event>
11    1  0.2819202E-013  0.2266623E+04  0.7818608E-02  0.8665737E-01
         -2   -1    0    0    0  501 -0.00000000000E+00  0.00000000000E+00  0.12805080901E+04  0.12805080901E+04  0.00000000000E+00 0.  1.
          2   -1    0    0  501    0  0.00000000000E+00 -0.00000000000E+00 -0.26171639242E+04  0.26171639242E+04  0.00000000000E+00 0. -1.
    9900016    2    1    2    0    0  0.24806313148E+03 -0.26549603098E+03 -0.11962614156E+04  0.14369116022E+04  0.70827262997E+03 0.  0.
         23    2    3    3    0    0 -0.12109599698E+02 -0.49581912180E+02 -0.52403920392E+03  0.53184382132E+03  0.75071663215E+02 0.  0.
        -15    1    1    2    0    0  0.59595362604E+02 -0.43066723181E+03  0.34611306851E+03  0.55571586984E+03  0.00000000000E+00 0.  1.
        -15    1    4    4    0    0 -0.39859048401E+02 -0.48771563642E+02 -0.36996115337E+03  0.37528477741E+03  0.00000000000E+00 0. -1.
         15    1    1    2    0    0  0.69958055334E+00 -0.54903113616E+03 -0.55789757862E+02  0.55185883609E+03  0.00000000000E+00 0. -1.
         15    1    4    4    0    0  0.27749448702E+02 -0.81034853813E+00 -0.15407805055E+03  0.15655904391E+03  0.00000000000E+00 0.  1.
        -16    1    3    3    0    0  0.27236549793E+03  0.65149831183E+02 -0.46895488066E+03  0.54621071489E+03  0.00000000000E+00 0.  1.
         16    1    1    2    0    0 -0.30835807464E+03  0.12451943990E+04 -0.43071772915E+03  0.13531857062E+04  0.00000000000E+00 0. -1.
    9900018    1    3    3    0    0 -0.12192766748E+02 -0.28106394998E+03 -0.20326733102E+03  0.35885706597E+03  0.91187600000E+02 0.  0.
<mgrwt>
<rscale>  0 0.18782934E+04</rscale>
<asrwt>0</asrwt>
<pdfrwt beam="1">  1        2 0.40264061E+00 0.22666234E+04</pdfrwt>
<pdfrwt beam="2">  1       -2 0.19700124E+00 0.22666234E+04</pdfrwt>
<totfact> 0.36299413E-01</totfact>
</mgrwt>
</event>
<event>
10    1  0.2819202E-013  0.3505139E+04  0.7818608E-02  0.8112573E-01
          2   -1    0    0  501    0  0.00000000000E+00  0.00000000000E+00  0.19876575560E+04  0.19876575560E+04  0.00000000000E+00 0.  1.
         -2   -1    0    0    0  501 -0.00000000000E+00 -0.00000000000E+00 -0.15452862102E+04  0.15452862102E+04  0.00000000000E+00 0. -1.
    9900016    2    1    2    0    0  0.18138509696E+03  0.20629800150E+03  0.25924798443E+03  0.81399081936E+03  0.72104931714E+03 0.  0.
        -15    1    1    2    0    0  0.50316683762E+03  0.52415146843E+03  0.11202218939E+04  0.13352186038E+04  0.00000000000E+00 0.  1.
        -15    1    3    3    0    0 -0.43676225845E+02  0.11232132872E+02 -0.30739311822E+02  0.54577273698E+02  0.00000000000E+00 0. -1.
         15    1    3    3    0    0 -0.99057805367E+02  0.78190615069E+02 -0.11945577370E+03  0.17376968366E+03  0.00000000000E+00 0.  1.
         15    1    1    2    0    0 -0.62040792975E+02 -0.16098725092E+03 -0.19205938759E+03  0.25817196462E+03  0.00000000000E+00 0. -1.
        -16    1    3    3    0    0  0.14472923581E+03  0.32731063503E+02  0.31451860232E+03  0.34776403699E+03  0.00000000000E+00 0.  1.
         16    1    1    2    0    0 -0.62251114161E+03 -0.56946221901E+03 -0.74503914492E+03  0.11255623784E+04  0.00000000000E+00 0. -1.
    9900018    1    3    3    0    0  0.17938989237E+03  0.84144190058E+02  0.94924467629E+02  0.23787982502E+03  0.91187600000E+02 0.  0.
<mgrwt>
<rscale>  0 0.35051390E+04</rscale>
<asrwt>0</asrwt>
<pdfrwt beam="1">  1        2 0.30579347E+00 0.35051390E+04</pdfrwt>
<pdfrwt beam="2">  1       -2 0.23773634E+00 0.35051390E+04</pdfrwt>
<totfact> 0.42658552E-01</totfact>
</mgrwt>
</event>
<event>
11    1  0.2819202E-013  0.1419888E+04  0.7818608E-02  0.9182103E-01
          2   -1    0    0  501    0  0.00000000000E+00  0.00000000000E+00  0.28313724813E+04  0.28313724813E+04  0.00000000000E+00 0. -1.
         -2   -1    0    0    0  501 -0.00000000000E+00 -0.00000000000E+00 -0.39977269399E+03  0.39977269399E+03  0.00000000000E+00 0.  1.
    9900016    2    1    2    0    0 -0.23942661764E+03  0.10174447961E+03  0.82315952567E+03  0.11147545824E+04  0.70527237987E+03 0.  0.
         23    2    3    3    0    0 -0.32858588129E+03  0.24857420495E+02  0.41476771865E+03  0.53439966657E+03  0.70456869534E+02 0.  0.
        -15    1    1    2    0    0 -0.37994531711E+03 -0.11462932909E+03  0.16163967375E+02  0.39718962842E+03  0.00000000000E+00 0.  1.
        -15    1    4    4    0    0 -0.20116683093E+03 -0.12154808470E+01  0.20238696224E+03  0.28535951665E+03  0.00000000000E+00 0.  1.
         15    1    4    4    0    0 -0.12741905035E+03  0.26072901342E+02  0.21238075641E+03  0.24904014992E+03  0.00000000000E+00 0. -1.
         15    1    1    2    0    0  0.18826463140E+02  0.29714268189E+02  0.19642747109E+03  0.19955231106E+03  0.00000000000E+00 0. -1.
        -16    1    3    3    0    0  0.79147727704E+02  0.15229779569E+03  0.18324630981E+02  0.17261162612E+03  0.00000000000E+00 0.  1.
         16    1    1    2    0    0  0.60054547161E+03 -0.16829418709E+02  0.13958488232E+04  0.15196486535E+04  0.00000000000E+00 0. -1.
    9900018    1    3    3    0    0  0.10011535938E+02 -0.75410736568E+02  0.39006717604E+03  0.40774328966E+03  0.91187600000E+02 0.  0.
<mgrwt>
<rscale>  0 0.11240075E+04</rscale>
<asrwt>0</asrwt>
<pdfrwt beam="1">  1        2 0.43559575E+00 0.14198881E+04</pdfrwt>
<pdfrwt beam="2">  1       -2 0.61503493E-01 0.14198881E+04</pdfrwt>
<totfact> 0.52824021E+00</totfact>
</mgrwt>
</event>
<event>
11    1  0.2819202E-013  0.2402782E+04  0.7818608E-02  0.8438463E-01
         -2   -1    0    0    0  501 -0.00000000000E+00  0.00000000000E+00  0.10240158734E+04  0.10240158734E+04  0.00000000000E+00 0.  1.
          2   -1    0    0  501    0  0.00000000000E+00 -0.00000000000E+00 -0.14094906466E+04  0.14094906466E+04  0.00000000000E+00 0. -1.
    9900016    2    1    2    0    0  0.22113201620E+03  0.43040016334E+03 -0.23898078827E+03  0.89297618204E+03  0.71144288270E+03 0.  0.
         23    2    3    3    0    0  0.26245931840E+03 -0.24327425463E+02 -0.29003657586E+03  0.39938572139E+03  0.76883168927E+02 0.  0.
        -15    1    4    4    0    0  0.22032490372E+03 -0.94368153770E+01 -0.19503747056E+03  0.29440063112E+03  0.00000000000E+00 0.  1.
        -15    1    1    2    0    0  0.26717843182E+01 -0.40449981644E+03 -0.37734146170E+03  0.55318515766E+03  0.00000000000E+00 0.  1.
         15    1    1    2    0    0  0.35322120511E+03 -0.80327552438E+02  0.18285485447E+03  0.40577534822E+03  0.00000000000E+00 0. -1.
         15    1    4    4    0    0  0.42134414683E+02 -0.14890610086E+02 -0.94999105303E+02  0.10498509026E+03  0.00000000000E+00 0. -1.
        -16    1    1    2    0    0 -0.57702500563E+03  0.54427205540E+02  0.47992622300E+02  0.58156983211E+03  0.00000000000E+00 0.  1.
         16    1    3    3    0    0 -0.90031649804E+00  0.31511052290E+03  0.63888562813E+02  0.32152325059E+03  0.00000000000E+00 0. -1.
    9900018    1    3    3    0    0 -0.40426985708E+02  0.13961706590E+03 -0.12832775225E+02  0.17206721006E+03  0.91187600000E+02 0.  0.
<mgrwt>
<rscale>  0 0.24027824E+04</rscale>
<asrwt>0</asrwt>
<pdfrwt beam="1">  1        2 0.21684472E+00 0.24027824E+04</pdfrwt>
<pdfrwt beam="2">  1       -2 0.15754090E+00 0.24027824E+04</pdfrwt>
<totfact> 0.33758910E+00</totfact>
</mgrwt>
</event>
<event>
10    1  0.2819202E-013  0.4372359E+04  0.7818608E-02  0.7933372E-01
         -2   -1    0    0    0  501 -0.00000000000E+00  0.00000000000E+00  0.14361943167E+04  0.14361943167E+04  0.00000000000E+00 0.  1.
          2   -1    0    0  501    0  0.00000000000E+00 -0.00000000000E+00 -0.33278094831E+04  0.33278094831E+04  0.00000000000E+00 0. -1.
    9900016    2    1    2    0    0 -0.70314298094E+03 -0.19930254284E+03 -0.96491582299E+03  0.13964417736E+04  0.69631568004E+03 0.  0.
        -15    1    1    2    0    0  0.16159617129E+04 -0.39569983677E+03 -0.87742392131E+03  0.18808996135E+04  0.00000000000E+00 0.  1.
        -15    1    3    3    0    0 -0.50608438991E+02 -0.34379346535E+02 -0.26180084316E+03  0.26885467272E+03  0.00000000000E+00 0.  1.
         15    1    1    2    0    0 -0.45766948861E+03 -0.12264469790E+03 -0.34582192109E+03  0.58659686654E+03  0.00000000000E+00 0. -1.
         15    1    3    3    0    0  0.10269315412E+02  0.13889187493E+02  0.43021814740E+02  0.46359949437E+02  0.00000000000E+00 0. -1.
        -16    1    3    3    0    0 -0.26849208442E+03  0.63950635568E+02 -0.12993143624E+03  0.30505714433E+03  0.00000000000E+00 0.  1.
         16    1    1    2    0    0 -0.45514924331E+03  0.71764707751E+03  0.29654649900E+03  0.90006554629E+03  0.00000000000E+00 0. -1.
    9900018    1    3    3    0    0 -0.39431177295E+03 -0.24276301937E+03 -0.61620535834E+03  0.77617000709E+03  0.91187600000E+02 0.  0.
<mgrwt>
<rscale>  0 0.43723591E+04</rscale>
<asrwt>0</asrwt>
<pdfrwt beam="1">  1        2 0.51197069E+00 0.43723591E+04</pdfrwt>
<pdfrwt beam="2">  1       -2 0.22095297E+00 0.43723591E+04</pdfrwt>
<totfact> 0.79518880E-02</totfact>
</mgrwt>
</event>
<event>
10    1  0.2819202E-013  0.1771996E+04  0.7818608E-02  0.8758201E-01
         -2   -1    0    0    0  501 -0.00000000000E+00  0.00000000000E+00  0.16039231434E+04  0.16039231434E+04  0.00000000000E+00 0.  1.
          2   -1    0    0  501    0  0.00000000000E+00 -0.00000000000E+00 -0.16907786758E+04  0.16907786758E+04  0.00000000000E+00 0. -1.
    9900016    2    1    2    0    0  0.30297909727E+03  0.29223541615E+03 -0.53739463188E+02  0.82242965546E+03  0.70448898958E+03 0.  0.
        -15    1    1    2    0    0 -0.19357549169E+03 -0.13237980592E+03  0.26399807855E+03  0.35311594339E+03  0.00000000000E+00 0.  1.
        -15    1    3    3    0    0  0.25332147269E+03  0.28119779098E+03  0.56631026692E+02  0.38268922034E+03  0.00000000000E+00 0. -1.
         15    1    1    2    0    0 -0.36704318725E+03 -0.10753290802E+04 -0.26925479783E+03  0.11677120699E+04  0.00000000000E+00 0. -1.
         15    1    3    3    0    0  0.90039259459E+02  0.13019198867E+03 -0.57524608003E+02  0.16842239365E+03  0.00000000000E+00 0.  1.
        -16    1    1    2    0    0  0.25763958167E+03  0.91547346993E+03 -0.27859349978E+02  0.95144415053E+03  0.00000000000E+00 0.  1.
         16    1    3    3    0    0 -0.57139131852E+01  0.33685677878E+02 -0.80919641303E+02  0.87837133643E+02  0.00000000000E+00 0. -1.
    9900018    1    3    3    0    0 -0.34667721693E+02 -0.15284004138E+03  0.28073759426E+02  0.18348090783E+03  0.91187600000E+02 0.  0.
<mgrwt>
<rscale>  0 0.17055578E+04</rscale>
<asrwt>0</asrwt>
<pdfrwt beam="1">  1        2 0.26011980E+00 0.17719960E+04</pdfrwt>
<pdfrwt beam="2">  1       -2 0.24675741E+00 0.17719960E+04</pdfrwt>
<totfact> 0.61141237E-01</totfact>
</mgrwt>
</event>
<event>
11    1  0.2819202E-013  0.1973069E+04  0.7818608E-02  0.8619316E-01
         -2   -1    0    0    0  501 -0.00000000000E+00  0.00000000000E+00  0.63262072008E+03  0.63262072008E+03  0.00000000000E+00 0.  1.
          2   -1    0    0  501    0  0.00000000000E+00 -0.00000000000E+00 -0.15384414660E+04  0.15384414660E+04  0.00000000000E+00 0. -1.
    9900016    2    1    2    0    0 -0.13081331256E+03  0.32304415007E+03 -0.22503946211E+03  0.81603238348E+03  0.70270651466E+03 0.  0.
         23    2    3    3    0    0 -0.24079443272E+03  0.13965140642E+03 -0.25004424743E+03  0.38897835395E+03  0.10628998081E+03 0.  0.
        -15    1    4    4    0    0 -0.84927231786E+02  0.10341057942E+03 -0.82057502994E+02  0.15697075024E+03  0.00000000000E+00 0. -1.
        -15    1    1    2    0    0 -0.45815503818E+02 -0.15053910457E+03 -0.48399294499E+03  0.50893049938E+03  0.00000000000E+00 0.  1.
         15    1    4    4    0    0 -0.15586720094E+03  0.36240826998E+02 -0.16798674444E+03  0.23200760370E+03  0.00000000000E+00 0.  1.
         15    1    1    2    0    0 -0.30493342694E+02  0.28413753702E+03  0.45231835841E+02  0.28932663698E+03  0.00000000000E+00 0. -1.
        -16    1    1    2    0    0  0.20712215907E+03 -0.45664258252E+03 -0.24202017467E+03  0.55677266626E+03  0.00000000000E+00 0.  1.
         16    1    3    3    0    0 -0.10779043854E+03  0.14882971551E+03  0.39663005098E+02  0.18799525747E+03  0.00000000000E+00 0. -1.
    9900018    1    3    3    0    0  0.21777155871E+03  0.34563028145E+02 -0.14658219774E+02  0.23905877206E+03  0.91187600000E+02 0.  0.
<mgrwt>
<rscale>  0 0.19730686E+04</rscale>
<asrwt>0</asrwt>
<pdfrwt beam="1">  1        2 0.23668330E+00 0.19730686E+04</pdfrwt>
<pdfrwt beam="2">  1       -2 0.97326265E-01 0.19730686E+04</pdfrwt>
<totfact> 0.99015861E+00</totfact>
</mgrwt>
</event>
<event>
10    1  0.2819202E-013  0.1725897E+04  0.7818608E-02  0.8746731E-01
         -2   -1    0    0    0  501 -0.00000000000E+00  0.00000000000E+00  0.60908879080E+03  0.60908879080E+03  0.00000000000E+00 0.  1.
          2   -1    0    0  501    0  0.00000000000E+00 -0.00000000000E+00 -0.12226131071E+04  0.12226131071E+04  0.00000000000E+00 0. -1.
    9900016    2    1    2    0    0  0.41706021897E+03  0.11168617868E+03 -0.50484305157E+03  0.97274011942E+03  0.71059398003E+03 0.  0.
        -15    1    1    2    0    0 -0.10684058481E+02 -0.26771784331E+03 -0.17020065412E+03  0.31741968338E+03  0.00000000000E+00 0.  1.
        -15    1    3    3    0    0  0.96207904476E+02 -0.44215022168E+02 -0.29538465607E+03  0.31378818351E+03  0.00000000000E+00 0. -1.
         15    1    3    3    0    0  0.21651326339E+03  0.62329328993E+02 -0.30202697974E+03  0.37680662808E+03  0.00000000000E+00 0.  1.
         15    1    1    2    0    0  0.57518353295E+01  0.51483109734E+02  0.10203670440E+03  0.11443375045E+03  0.00000000000E+00 0. -1.
        -16    1    3    3    0    0  0.78767885741E+02  0.12638746540E+02  0.12959701834E+03  0.15218247238E+03  0.00000000000E+00 0.  1.
         16    1    1    2    0    0 -0.41212799582E+03  0.10454855489E+03 -0.40517315042E+02  0.42710834467E+03  0.00000000000E+00 0. -1.
    9900018    1    3    3    0    0  0.25571165357E+02  0.80933125315E+02 -0.37028434104E+02  0.12996283545E+03  0.91187600000E+02 0.  0.
<mgrwt>
<rscale>  0 0.17258968E+04</rscale>
<asrwt>0</asrwt>
<pdfrwt beam="1">  1        2 0.18809432E+00 0.17258968E+04</pdfrwt>
<pdfrwt beam="2">  1       -2 0.93705969E-01 0.17258968E+04</pdfrwt>
<totfact> 0.16782449E+01</totfact>
</mgrwt>
</event>
<event>
11    1  0.2819202E-013  0.3230594E+04  0.7818608E-02  0.8180784E-01
          2   -1    0    0  501    0  0.00000000000E+00  0.00000000000E+00  0.32639871517E+04  0.32639871517E+04  0.00000000000E+00 0.  1.
         -2   -1    0    0    0  501 -0.00000000000E+00 -0.00000000000E+00 -0.79938573583E+03  0.79938573583E+03  0.00000000000E+00 0. -1.
    9900016    2    1    2    0    0 -0.27483816691E+03 -0.60777276136E+02  0.19796861776E+03  0.79157271438E+03  0.71285755467E+03 0.  0.
         23    2    3    3    0    0  0.36513614682E+02 -0.47133752730E+02  0.17854879248E+03  0.20116871222E+03  0.70953116731E+02 0.  0.
        -15    1    1    2    0    0 -0.17164048112E+03 -0.17930152054E+03  0.11419122012E+04  0.11685773253E+04  0.00000000000E+00 0.  1.
        -15    1    4    4    0    0 -0.19865586680E+02 -0.25061144505E+02  0.56321875164E+02  0.64767708930E+02  0.00000000000E+00 0.  1.
         15    1    4    4    0    0  0.56379201362E+02 -0.22072608225E+02  0.12222691732E+03  0.13640100329E+03  0.00000000000E+00 0. -1.
         15    1    1    2    0    0  0.38944505641E+03  0.50413573451E+03 -0.26318892743E+03  0.68926678601E+03  0.00000000000E+00 0. -1.
        -16    1    1    2    0    0  0.57033591620E+02 -0.26405693783E+03  0.13879095244E+04  0.14139560618E+04  0.00000000000E+00 0.  1.
         16    1    3    3    0    0 -0.25480574523E+03 -0.10058871003E+03 -0.19436713499E+03  0.33589081492E+03  0.00000000000E+00 0. -1.
    9900018    1    3    3    0    0 -0.56546036368E+02  0.86945186624E+02  0.21378696027E+03  0.25451318724E+03  0.91187600000E+02 0.  0.
<mgrwt>
<rscale>  0 0.32305942E+04</rscale>
<asrwt>0</asrwt>
<pdfrwt beam="1">  1        2 0.50215186E+00 0.32305942E+04</pdfrwt>
<pdfrwt beam="2">  1       -2 0.12298242E+00 0.32305942E+04</pdfrwt>
<totfact> 0.49324333E-01</totfact>
</mgrwt>
</event>
<event>
11    1  0.2819202E-013  0.1211607E+04  0.7818608E-02  0.9648741E-01
         -2   -1    0    0    0  501 -0.00000000000E+00  0.00000000000E+00  0.33682961259E+03  0.33682961259E+03  0.00000000000E+00 0.  1.
          2   -1    0    0  501    0  0.00000000000E+00 -0.00000000000E+00 -0.17493285216E+04  0.17493285216E+04  0.00000000000E+00 0. -1.
    9900016    2    1    2    0    0  0.73123073073E+02 -0.18052372733E+02 -0.95465128529E+03  0.11925169704E+04  0.71067909505E+03 0.  0.
         23    2    3    3    0    0 -0.34463705393E+02  0.15802271347E+03 -0.22685251619E+02  0.20495701630E+03  0.12382985475E+03 0.  0.
        -15    1    4    4    0    0  0.37365948035E+02  0.11195713152E+03 -0.73376380809E+01  0.11825588486E+03  0.00000000000E+00 0. -1.
        -15    1    1    2    0    0  0.72178285103E+02 -0.44775672002E+01 -0.38535776209E+03  0.39208463150E+03  0.00000000000E+00 0. -1.
         15    1    4    4    0    0 -0.71829653428E+02  0.46065581943E+02 -0.15347613538E+02  0.86701131438E+02  0.00000000000E+00 0.  1.
         15    1    1    2    0    0  0.64452257653E+02  0.59375839673E+02 -0.22377741098E+03  0.24032460032E+03  0.00000000000E+00 0.  1.
        -16    1    1    2    0    0 -0.20975361583E+03 -0.36845899739E+02  0.15128754939E+03  0.26123193197E+03  0.00000000000E+00 0.  1.
         16    1    3    3    0    0  0.97970985156E+02  0.27544555647E+02 -0.24830057153E+03  0.26834714513E+03  0.00000000000E+00 0. -1.
    9900018    1    3    3    0    0  0.96157933101E+01 -0.20361964185E+03 -0.68366546214E+03  0.71921280894E+03  0.91187600000E+02 0.  0.
<mgrwt>
<rscale>  0 0.74152491E+03</rscale>
<asrwt>0</asrwt>
<pdfrwt beam="1">  1        2 0.26912746E+00 0.12116074E+04</pdfrwt>
<pdfrwt beam="2">  1       -2 0.51819941E-01 0.12116074E+04</pdfrwt>
<totfact> 0.31860097E+01</totfact>
</mgrwt>
</event>
<event>
10    1  0.2819202E-013  0.1070236E+04  0.7818608E-02  0.9377880E-01
         -1   -1    0    0    0  501 -0.00000000000E+00  0.00000000000E+00  0.50369577211E+03  0.50369577211E+03  0.00000000000E+00 0.  1.
          1   -1    0    0  501    0  0.00000000000E+00 -0.00000000000E+00 -0.22370064274E+04  0.22370064274E+04  0.00000000000E+00 0. -1.
    9900016    2    1    2    0    0 -0.26260477513E+03 -0.15871819656E+03 -0.10430886629E+04  0.12991626099E+04  0.71108142600E+03 0.  0.
        -15    1    1    2    0    0 -0.25375937623E+03  0.13416824918E+03 -0.10588598085E+03  0.30595225290E+03  0.00000000000E+00 0.  1.
        -15    1    3    3    0    0  0.16722007532E+03 -0.77763715997E+02 -0.24596220341E+03  0.30742015975E+03  0.00000000000E+00 0.  1.
         15    1    1    2    0    0  0.27655930200E+03  0.41292727433E+02  0.18119590117E+03  0.33319977711E+03  0.00000000000E+00 0. -1.
         15    1    3    3    0    0  0.19881239063E+02 -0.16057292536E+02 -0.11256557682E+02  0.27925085516E+02  0.00000000000E+00 0. -1.
        -16    1    1    2    0    0  0.23980484936E+03 -0.16742780048E+02 -0.76553191271E+03  0.80238755962E+03  0.00000000000E+00 0.  1.
         16    1    3    3    0    0 -0.59900158262E+02  0.10379222436E+03 -0.21885671144E+03  0.24951776477E+03  0.00000000000E+00 0. -1.
    9900018    1    3    3    0    0 -0.38980593125E+03 -0.16868941239E+03 -0.56701319042E+03  0.71429959988E+03  0.91187600000E+02 0.  0.
<mgrwt>
<rscale>  0 0.93918617E+03</rscale>
<asrwt>0</asrwt>
<pdfrwt beam="1">  1        1 0.34415484E+00 0.10702358E+04</pdfrwt>
<pdfrwt beam="2">  1       -1 0.77491657E-01 0.10702358E+04</pdfrwt>
<totfact> 0.34488328E+00</totfact>
</mgrwt>
</event>
