<event>
11    1  0.8608473E-014  0.2641240E+04  0.7818608E-02  0.8354326E-01
          2   -1    0    0  501    0  0.00000000000E+00  0.00000000000E+00  0.20699304759E+04  0.20699304759E+04  0.00000000000E+00 0. -1.
         -2   -1    0    0    0  501 -0.00000000000E+00 -0.00000000000E+00 -0.84255805254E+03  0.84255805254E+03  0.00000000000E+00 0.  1.
    9900016    2    1    2    0    0 -0.27635561709E+03  0.85394504521E+02  0.14907348877E+04  0.25213051493E+04  0.20127157032E+04 0.  0.
         24    2    3    3    0    0  0.10766093770E+03  0.47295733972E+03 -0.31523250048E+03  0.58399663954E+03  0.80006393042E+02 0.  0.
        -15    1    4    4    0    0  0.18321292131E+01  0.23932104704E+02 -0.32685445279E+02  0.40551703616E+02  0.00000000000E+00 0.  1.
        -15    1    4    4    0    0  0.74446088760E+01  0.80218217443E+01 -0.11361844545E+02  0.15775402907E+02  0.00000000000E+00 0. -1.
         15    1    4    4    0    0  0.21698855464E+01  0.44934509447E+02 -0.29911136821E+02  0.54023093658E+02  0.00000000000E+00 0.  1.
         15    1    3    3    0    0 -0.51952609105E+02 -0.34787662519E+03  0.82298383365E+03  0.89499698904E+03  0.00000000000E+00 0. -1.
        -16    1    1    2    0    0  0.27635561709E+03 -0.85394504521E+02 -0.26336246436E+03  0.39118337916E+03  0.00000000000E+00 0.  1.
         16    1    4    4    0    0  0.96214314061E+02  0.39606890382E+03 -0.24127407384E+03  0.47364643935E+03  0.00000000000E+00 0. -1.
    9900018    1    3    3    0    0 -0.33206394568E+03 -0.39686210012E+02  0.98298355455E+03  0.10423115207E+04  0.91187600000E+02 0.  0.
<mgrwt>
<rscale>  0 0.26412396E+04</rscale>
<asrwt>0</asrwt>
<pdfrwt beam="1">  1        2 0.31845084E+00 0.26412396E+04</pdfrwt>
<pdfrwt beam="2">  1       -2 0.12962432E+00 0.26412396E+04</pdfrwt>
<totfact> 0.23555742E+00</totfact>
</mgrwt>
</event>
<event>
11    1  0.8608473E-014  0.2949035E+04  0.7818608E-02  0.8258436E-01
         -1   -1    0    0    0  501 -0.00000000000E+00  0.00000000000E+00  0.18976491015E+04  0.18976491015E+04  0.00000000000E+00 0.  1.
          1   -1    0    0  501    0  0.00000000000E+00 -0.00000000000E+00 -0.11457342311E+04  0.11457342311E+04  0.00000000000E+00 0. -1.
    9900016    2    1    2    0    0 -0.49166729705E+03 -0.55621639453E+03  0.80259926036E+03  0.22992850085E+04  0.20227289905E+04 0.  0.
         24    2    3    3    0    0  0.29577614089E+02 -0.19143817351E+03 -0.24079728602E+03  0.31913676693E+03  0.79633746111E+02 0.  0.
        -15    1    4    4    0    0  0.19071788228E+02 -0.29615753954E+02 -0.36356319851E+02  0.50622208383E+02  0.00000000000E+00 0.  1.
        -15    1    4    4    0    0  0.12210131038E+02 -0.59486267983E+01 -0.13491900409E+02  0.19144316060E+02  0.00000000000E+00 0. -1.
         15    1    3    3    0    0 -0.61670614114E+02  0.49777346967E+03  0.83900766991E+03  0.97750476312E+03  0.00000000000E+00 0. -1.
         15    1    4    4    0    0 -0.46093210971E+01 -0.79298479880E+02 -0.68344327785E+02  0.10478760372E+03  0.00000000000E+00 0.  1.
        -16    1    1    2    0    0  0.49166729705E+03  0.55621639453E+03 -0.50684390000E+02  0.74409832409E+03  0.00000000000E+00 0.  1.
         16    1    4    4    0    0  0.29050159193E+01 -0.76575312880E+02 -0.12260473798E+03  0.14458263877E+03  0.00000000000E+00 0. -1.
    9900018    1    3    3    0    0 -0.45957429703E+03 -0.86255169069E+03  0.20438887647E+03  0.10026434784E+04  0.91187600000E+02 0.  0.
<mgrwt>
<rscale>  0 0.29490348E+04</rscale>
<asrwt>0</asrwt>
<pdfrwt beam="1">  1        1 0.17626680E+00 0.29490348E+04</pdfrwt>
<pdfrwt beam="2">  1       -1 0.29194602E+00 0.29490348E+04</pdfrwt>
<totfact> 0.37298488E-01</totfact>
</mgrwt>
</event>
<event>
12    1  0.8608473E-014  0.2883018E+04  0.7818608E-02  0.8277948E-01
          2   -1    0    0  501    0  0.00000000000E+00  0.00000000000E+00  0.15809346222E+04  0.15809346222E+04  0.00000000000E+00 0.  1.
         -2   -1    0    0    0  501 -0.00000000000E+00 -0.00000000000E+00 -0.13143794535E+04  0.13143794535E+04  0.00000000000E+00 0. -1.
    9900016    2    1    2    0    0 -0.52382225758E+03  0.60296944246E+02 -0.31798146366E+03  0.21080983787E+04  0.20161699046E+04 0.  0.
         24    2    3    3    0    0 -0.19028963481E+03 -0.43954105173E+01  0.53589610378E+03  0.57441008316E+03  0.80826015902E+02 0.  0.
         24    2    4    4    0    0 -0.15174343308E+03  0.68037951526E+01  0.38948983064E+03  0.42087589052E+03  0.48598620663E+02 0.  0.
        -15    1    5    5    0    0 -0.92580556670E+02 -0.14999389320E+02  0.26907608317E+03  0.28495276746E+03  0.00000000000E+00 0.  1.
        -15    1    4    4    0    0 -0.18602599553E+02 -0.15235634150E+02  0.10022140862E+03  0.10306557138E+03  0.00000000000E+00 0.  1.
         15    1    4    4    0    0 -0.19943602174E+02  0.40364284797E+01  0.46184864511E+02  0.50468621265E+02  0.00000000000E+00 0. -1.
         15    1    3    3    0    0 -0.69011978789E+03  0.31809972800E+03 -0.28800512861E+03  0.81264980939E+03  0.00000000000E+00 0. -1.
        -16    1    1    2    0    0  0.52382225758E+03 -0.60296944246E+02  0.58453663231E+03  0.78721569696E+03  0.00000000000E+00 0.  1.
         16    1    5    5    0    0 -0.59162876413E+02  0.21803184473E+02  0.12041374748E+03  0.13592312305E+03  0.00000000000E+00 0. -1.
    9900018    1    3    3    0    0  0.35658716513E+03 -0.25340737324E+03 -0.56587243882E+03  0.72103848618E+03  0.91187600000E+02 0.  0.
<mgrwt>
<rscale>  0 0.28830179E+04</rscale>
<asrwt>0</asrwt>
<pdfrwt beam="1">  1        2 0.24322071E+00 0.28830179E+04</pdfrwt>
<pdfrwt beam="2">  1       -2 0.20221223E+00 0.28830179E+04</pdfrwt>
<totfact> 0.12707970E+00</totfact>
</mgrwt>
</event>
<event>
11    1  0.8608474E-014  0.3031736E+04  0.7818608E-02  0.8234726E-01
         -1   -1    0    0    0  501 -0.00000000000E+00  0.00000000000E+00  0.86175414817E+03  0.86175414817E+03  0.00000000000E+00 0.  1.
          1   -1    0    0  501    0  0.00000000000E+00 -0.00000000000E+00 -0.26664870533E+04  0.26664870533E+04  0.00000000000E+00 0. -1.
    9900016    2    1    2    0    0 -0.75446013127E+03  0.21542481746E+03 -0.97452717524E+03  0.23859367344E+04  0.20315936955E+04 0.  0.
        -24    2    3    3    0    0  0.21907254225E+03 -0.87196832545E+02  0.49534806650E+03  0.55384331342E+03  0.76004226622E+02 0.  0.
        -15    1    3    3    0    0 -0.68208985165E+03  0.59241357957E+02 -0.10907790901E+04  0.12878490314E+04  0.00000000000E+00 0.  1.
        -15    1    4    4    0    0  0.11109313234E+02  0.28492001836E+01  0.13318992693E+02  0.17576414554E+02  0.00000000000E+00 0.  1.
         15    1    4    4    0    0  0.83780595793E+02 -0.10225226772E+02  0.14593648804E+03  0.16858588919E+03  0.00000000000E+00 0. -1.
         15    1    4    4    0    0  0.43872640198E+02 -0.25441774587E+02  0.92518243204E+02  0.10550695606E+03  0.00000000000E+00 0. -1.
        -16    1    4    4    0    0  0.80309993025E+02 -0.54379031369E+02  0.24357434256E+03  0.26217405361E+03  0.00000000000E+00 0.  1.
         16    1    1    2    0    0  0.75446013127E+03 -0.21542481746E+03 -0.83020572988E+03  0.11423044671E+04  0.00000000000E+00 0. -1.
    9900018    1    3    3    0    0 -0.29144282187E+03  0.24338029205E+03 -0.37909615161E+03  0.54424438953E+03  0.91187600000E+02 0.  0.
<mgrwt>
<rscale>  0 0.30317363E+04</rscale>
<asrwt>0</asrwt>
<pdfrwt beam="1">  1        1 0.41022878E+00 0.30317363E+04</pdfrwt>
<pdfrwt beam="2">  1       -1 0.13257756E+00 0.30317363E+04</pdfrwt>
<totfact> 0.42413705E-01</totfact>
</mgrwt>
</event>
<event>
11    1  0.8608473E-014  0.3184266E+04  0.7818608E-02  0.8192985E-01
          1   -1    0    0  501    0  0.00000000000E+00  0.00000000000E+00  0.15292279084E+04  0.15292279084E+04  0.00000000000E+00 0. -1.
         -1   -1    0    0    0  501 -0.00000000000E+00 -0.00000000000E+00 -0.16576253863E+04  0.16576253863E+04  0.00000000000E+00 0.  1.
    9900016    2    1    2    0    0  0.27287588747E+03 -0.64405026475E+02 -0.10044959443E+04  0.22669849454E+04  0.20128585104E+04 0.  0.
        -24    2    3    3    0    0 -0.79388306552E+00  0.18188180290E+03  0.51219172126E+02  0.20497780871E+03  0.79441034712E+02 0.  0.
        -15    1    4    4    0    0 -0.11728857223E+01  0.53426615402E+02 -0.18745935845E+01  0.53472357301E+02  0.00000000000E+00 0. -1.
        -15    1    3    3    0    0 -0.63349444131E+03 -0.51968656695E+03 -0.49381164718E+03  0.95668138788E+03  0.00000000000E+00 0.  1.
         15    1    4    4    0    0 -0.64304069455E+00  0.14206751706E+02  0.14066179265E+02  0.20002567197E+02  0.00000000000E+00 0.  1.
         15    1    4    4    0    0 -0.18226028148E+02  0.12779148298E+02  0.81896758153E+01  0.23718463762E+02  0.00000000000E+00 0. -1.
        -16    1    4    4    0    0  0.19248071499E+02  0.10146928749E+03  0.30837910630E+02  0.10778442045E+03  0.00000000000E+00 0.  1.
         16    1    1    2    0    0 -0.27287588747E+03  0.64405026475E+02  0.87609846642E+03  0.91986834942E+03  0.00000000000E+00 0. -1.
    9900018    1    3    3    0    0  0.90716421184E+03  0.27339973758E+03 -0.56190346927E+03  0.11053257488E+04  0.91187600000E+02 0.  0.
<mgrwt>
<rscale>  0 0.31842657E+04</rscale>
<asrwt>0</asrwt>
<pdfrwt beam="1">  1        1 0.23526583E+00 0.31842657E+04</pdfrwt>
<pdfrwt beam="2">  1       -1 0.25501929E+00 0.31842657E+04</pdfrwt>
<totfact> 0.33818164E-01</totfact>
</mgrwt>
</event>
