<event>
11    1  0.1108199E-010  0.3752263E+04  0.7818608E-02  0.8380450E-01
          2   -1    0    0  501    0  0.00000000000E+00  0.00000000000E+00  0.36367406308E+04  0.36367406308E+04  0.00000000000E+00 0. -1.
         -2   -1    0    0    0  501 -0.00000000000E+00 -0.00000000000E+00 -0.19454223766E+04  0.19454223766E+04  0.00000000000E+00 0.  1.
    9900016    2    1    2    0    0  0.12102381075E+04  0.49874748104E+01  0.13890169338E+04  0.25923017433E+04  0.18237212326E+04 0.  0.
        -24    2    3    3    0    0  0.66905608233E+03  0.40632665837E+03  0.16824048714E+04  0.18574360369E+04  0.82735030260E+02 0.  0.
        -15    1    3    3    0    0  0.54118202515E+03 -0.40133918355E+03 -0.29338793757E+03  0.73486570645E+03  0.00000000000E+00 0.  1.
        -15    1    1    2    0    0 -0.56973757196E+03  0.22788319403E+03 -0.48507090171E+03  0.78219270689E+03  0.00000000000E+00 0.  1.
         15    1    1    2    0    0 -0.68534237281E+02 -0.18146445427E+03 -0.26127639170E+03  0.32540996097E+03  0.00000000000E+00 0. -1.
         15    1    4    4    0    0  0.42055033231E+03  0.27546264746E+03  0.99279123677E+03  0.11128237470E+04  0.00000000000E+00 0. -1.
        -16    1    4    4    0    0  0.24850575002E+03  0.13086401091E+03  0.68961363459E+03  0.74461228982E+03  0.00000000000E+00 0.  1.
         16    1    1    2    0    0 -0.97085364301E+02  0.21097664407E+03  0.12686592784E+04  0.12897414768E+04  0.00000000000E+00 0. -1.
    9900018    1    1    2    0    0 -0.47488093393E+03 -0.26238285865E+03 -0.22001066463E+03  0.59251711947E+03  0.91187600000E+02 0.  0.
<mgrwt>
<rscale>  0 0.25642419E+04</rscale>
<asrwt>0</asrwt>
<pdfrwt beam="1">  1        2 0.55949856E+00 0.37522629E+04</pdfrwt>
<pdfrwt beam="2">  1       -2 0.29929575E+00 0.37522629E+04</pdfrwt>
<totfact> 0.15953391E-02</totfact>
</mgrwt>
</event>
<event>
11    1  0.1108199E-010  0.4894311E+04  0.7818608E-02  0.8048044E-01
          2   -1    0    0  501    0  0.00000000000E+00  0.00000000000E+00  0.45991193089E+04  0.45991193089E+04  0.00000000000E+00 0. -1.
         -2   -1    0    0    0  501 -0.00000000000E+00 -0.00000000000E+00 -0.30130164976E+04  0.30130164976E+04  0.00000000000E+00 0.  1.
    9900016    2    1    2    0    0 -0.12094132723E+04  0.72947236215E+03 -0.19151959610E+03  0.23238427322E+04  0.18354168185E+04 0.  0.
         24    2    3    3    0    0 -0.74675851504E+03  0.49572030850E+03 -0.10114532022E+04  0.13538012045E+04  0.79707069322E+02 0.  0.
        -15    1    1    2    0    0  0.42019013357E+03 -0.59948975319E+03  0.16883276098E+03  0.75130034853E+03  0.00000000000E+00 0.  1.
        -15    1    4    4    0    0 -0.71585143681E+03  0.46659488597E+03 -0.93723418727E+03  0.12682909717E+04  0.00000000000E+00 0.  1.
         15    1    3    3    0    0 -0.46265475730E+03  0.23375205366E+03  0.81993360612E+03  0.97004152771E+03  0.00000000000E+00 0. -1.
         15    1    1    2    0    0 -0.37211610812E+03 -0.37386520754E+03  0.18725180377E+04  0.19453969756E+04  0.00000000000E+00 0. -1.
        -16    1    1    2    0    0  0.17035283023E+04 -0.40312610845E+02 -0.69178679645E+03  0.18390766039E+04  0.00000000000E+00 0.  1.
         16    1    4    4    0    0 -0.30907078230E+02  0.29125422529E+02 -0.74219014952E+02  0.85510232737E+02  0.00000000000E+00 0. -1.
    9900018    1    1    2    0    0 -0.54218905542E+03  0.28419520942E+03  0.42805840522E+03  0.75251914631E+03  0.91187600000E+02 0.  0.
<mgrwt>
<rscale>  0 0.37912071E+04</rscale>
<asrwt>0</asrwt>
<pdfrwt beam="1">  1        2 0.70755682E+00 0.48943115E+04</pdfrwt>
<pdfrwt beam="2">  1       -2 0.46354100E+00 0.48943115E+04</pdfrwt>
<totfact> 0.18670558E-04</totfact>
</mgrwt>
</event>
<event>
11    1  0.1108199E-010  0.2779999E+04  0.7818608E-02  0.8425043E-01
         -2   -1    0    0    0  501 -0.00000000000E+00  0.00000000000E+00  0.14227615135E+04  0.14227615135E+04  0.00000000000E+00 0.  1.
          2   -1    0    0  501    0  0.00000000000E+00 -0.00000000000E+00 -0.38838006262E+04  0.38838006262E+04  0.00000000000E+00 0. -1.
    9900016    2    1    2    0    0  0.67399607823E+03 -0.91479909356E+02 -0.11266246740E+04  0.22769383542E+04  0.18580973671E+04 0.  0.
         24    2    3    3    0    0 -0.41757353336E+03  0.52575735166E+03 -0.64249455538E+03  0.93273300344E+03  0.80019706485E+02 0.  0.
        -15    1    1    2    0    0  0.94448520942E+02 -0.32748524082E+03  0.25983991113E+02  0.34182199148E+03  0.00000000000E+00 0.  1.
        -15    1    4    4    0    0 -0.28452875299E+03  0.33736852675E+03 -0.37144494891E+03  0.57684095225E+03  0.00000000000E+00 0.  1.
         15    1    1    2    0    0 -0.82527390399E+03  0.61353164490E+03 -0.18439766310E+04  0.21113379435E+04  0.00000000000E+00 0. -1.
         15    1    3    3    0    0  0.10915696116E+04 -0.61723726102E+03 -0.48413011859E+03  0.13442053508E+04  0.00000000000E+00 0. -1.
        -16    1    1    2    0    0 -0.15116409788E+02  0.39940513232E+02  0.12820536704E+03  0.13513092385E+03  0.00000000000E+00 0.  1.
         16    1    4    4    0    0 -0.13304478037E+03  0.18838882492E+03 -0.27104960647E+03  0.35589205119E+03  0.00000000000E+00 0. -1.
    9900018    1    1    2    0    0  0.71945714608E+02 -0.23450700795E+03  0.35537283409E+03  0.44133292675E+03  0.91187600000E+02 0.  0.
<mgrwt>
<rscale>  0 0.24390048E+04</rscale>
<asrwt>0</asrwt>
<pdfrwt beam="1">  1        2 0.59750777E+00 0.27799992E+04</pdfrwt>
<pdfrwt beam="2">  1       -2 0.21888639E+00 0.27799992E+04</pdfrwt>
<totfact> 0.35321871E-02</totfact>
</mgrwt>
</event>
<event>
11    1  0.1108199E-010  0.2758291E+04  0.7818608E-02  0.8574592E-01
          2   -1    0    0  501    0  0.00000000000E+00  0.00000000000E+00  0.17209541457E+04  0.17209541457E+04  0.00000000000E+00 0. -1.
         -2   -1    0    0    0  501 -0.00000000000E+00 -0.00000000000E+00 -0.19282448566E+04  0.19282448566E+04  0.00000000000E+00 0.  1.
    9900016    2    1    2    0    0  0.23030986357E+03 -0.36899537359E+03  0.12885910121E+03  0.18818478889E+04  0.18263478831E+04 0.  0.
         24    2    3    3    0    0  0.95303647835E+03 -0.47884345966E+03 -0.18656818711E+03  0.10856728228E+04  0.79424188710E+02 0.  0.
        -15    1    4    4    0    0  0.79822191070E+03 -0.41434910544E+03 -0.18375734016E+03  0.91793799353E+03  0.00000000000E+00 0.  1.
        -15    1    1    2    0    0  0.60427838749E+01  0.23168770684E+03  0.99023565596E+02  0.25203447241E+03  0.00000000000E+00 0.  1.
         15    1    1    2    0    0  0.49142023399E+01 -0.58057558228E+03 -0.26587296775E+03  0.63857700483E+03  0.00000000000E+00 0. -1.
         15    1    3    3    0    0 -0.72272661479E+03  0.10984808607E+03  0.31542728832E+03  0.79617506614E+03  0.00000000000E+00 0. -1.
        -16    1    1    2    0    0 -0.55470192528E+02  0.58946903934E+03 -0.21311676945E+03  0.62926103329E+03  0.00000000000E+00 0.  1.
         16    1    4    4    0    0  0.15481456766E+03 -0.64494354214E+02 -0.28108469562E+01  0.16773482925E+03  0.00000000000E+00 0. -1.
    9900018    1    1    2    0    0 -0.18579665725E+03  0.12841420969E+03  0.43816359498E+02  0.24747860281E+03  0.91187600000E+02 0.  0.
<mgrwt>
<rscale>  0 0.20699630E+04</rscale>
<asrwt>0</asrwt>
<pdfrwt beam="1">  1        2 0.26476218E+00 0.27582911E+04</pdfrwt>
<pdfrwt beam="2">  1       -2 0.29665305E+00 0.27582911E+04</pdfrwt>
<totfact> 0.27011441E-01</totfact>
</mgrwt>
</event>
<event>
11    1  0.1108199E-010  0.7966746E+04  0.7818608E-02  0.7485198E-01
          2   -1    0    0  501    0  0.00000000000E+00  0.00000000000E+00  0.41179448749E+04  0.41179448749E+04  0.00000000000E+00 0. -1.
         -2   -1    0    0    0  501 -0.00000000000E+00 -0.00000000000E+00 -0.38531986930E+04  0.38531986930E+04  0.00000000000E+00 0.  1.
    9900016    2    1    2    0    0  0.42915899167E+03 -0.38667134987E+03  0.81479571048E+02  0.19286539380E+04  0.18383076236E+04 0.  0.
        -24    2    3    3    0    0  0.34225438742E+02  0.40669309923E+03 -0.65537050970E+03  0.77611426327E+03  0.79197140375E+02 0.  0.
        -15    1    3    3    0    0  0.39493355293E+03 -0.79336444910E+03  0.73685008075E+03  0.11525396747E+04  0.00000000000E+00 0.  1.
        -15    1    1    2    0    0 -0.79763682215E+03 -0.24047085639E+04 -0.78651962553E+03  0.26528213093E+04  0.00000000000E+00 0.  1.
         15    1    1    2    0    0  0.20783040377E+03  0.10573794258E+04  0.64603844727E+03  0.12564276351E+04  0.00000000000E+00 0. -1.
         15    1    4    4    0    0  0.40916219550E+02  0.90557496109E+02 -0.16618254555E+03  0.19362705278E+03  0.00000000000E+00 0. -1.
        -16    1    4    4    0    0 -0.66907808080E+01  0.31613560312E+03 -0.48918796415E+03  0.58248721048E+03  0.00000000000E+00 0.  1.
         16    1    1    2    0    0 -0.21205872933E+03  0.16844593134E+04  0.13596099853E+03  0.17031903817E+04  0.00000000000E+00 0. -1.
    9900018    1    1    2    0    0  0.37270615605E+03  0.49541174579E+02  0.18778679057E+03  0.43005030385E+03  0.91187600000E+02 0.  0.
<mgrwt>
<rscale>  0 0.79667458E+04</rscale>
<asrwt>0</asrwt>
<pdfrwt beam="1">  1        2 0.63352998E+00 0.79667458E+04</pdfrwt>
<pdfrwt beam="2">  1       -2 0.59279980E+00 0.79667458E+04</pdfrwt>
<totfact> 0.88488978E-05</totfact>
</mgrwt>
</event>
