<event>
11    1  0.9279270E-014  0.3525055E+04  0.7818608E-02  0.8107878E-01
          1   -1    0    0  501    0  0.00000000000E+00  0.00000000000E+00  0.21747001191E+04  0.21747001191E+04  0.00000000000E+00 0. -1.
         -1   -1    0    0    0  501 -0.00000000000E+00 -0.00000000000E+00 -0.14284739769E+04  0.14284739769E+04  0.00000000000E+00 0.  1.
         24    2    1    2    0    0  0.65426083666E+03  0.40222555877E+02  0.57165331514E+03  0.87194061866E+03  0.61788618548E+02 0.  0.
    9900016    2    1    2    0    0 -0.34093544891E+03  0.56094735940E+02 -0.17223789772E+03  0.19068601419E+04  0.18673687659E+04 0.  0.
        -15    1    4    4    0    0  0.23567390166E+03 -0.43588588177E+03  0.27908129289E+03  0.56870471942E+03  0.00000000000E+00 0.  1.
        -15    1    3    3    0    0  0.15437966165E+03  0.16054169288E+02  0.10282847560E+03  0.18618408008E+03  0.00000000000E+00 0.  1.
         15    1    1    2    0    0 -0.16440176165E+03  0.22581621810E+03  0.36248292807E+03  0.45761859308E+03  0.00000000000E+00 0. -1.
         15    1    4    4    0    0  0.21727036955E+03 -0.12773129289E+03 -0.73983969018E+02  0.26266961061E+03  0.00000000000E+00 0. -1.
        -16    1    4    4    0    0 -0.79387972011E+03  0.61971191060E+03 -0.37733522159E+03  0.10754858119E+04  0.00000000000E+00 0.  1.
         16    1    3    3    0    0  0.49988117501E+03  0.24168386589E+02  0.46882483954E+03  0.68575653858E+03  0.00000000000E+00 0. -1.
    9900018    1    1    2    0    0 -0.14892362610E+03 -0.32213350991E+03 -0.15672203290E+02  0.36675474226E+03  0.91187600000E+02 0.  0.
<mgrwt>
<rscale>  0 0.35250546E+04</rscale>
<asrwt>0</asrwt>
<pdfrwt beam="1">  1        1 0.33456925E+00 0.35250546E+04</pdfrwt>
<pdfrwt beam="2">  1       -1 0.21976523E+00 0.35250546E+04</pdfrwt>
<totfact> 0.20384727E-01</totfact>
</mgrwt>
</event>
<event>
10    1  0.9279270E-014  0.3147293E+04  0.7818608E-02  0.8895102E-01
         -2   -1    0    0    0  501 -0.00000000000E+00  0.00000000000E+00  0.12413874591E+04  0.12413874591E+04  0.00000000000E+00 0.  1.
          2   -1    0    0  501    0  0.00000000000E+00 -0.00000000000E+00 -0.22519462097E+04  0.22519462097E+04  0.00000000000E+00 0. -1.
         23    2    1    2    0    0 -0.13882857188E+03 -0.19793565968E+01  0.63146420779E+02  0.16793194081E+03  0.70259348579E+02 0.  0.
        -15    1    1    2    0    0 -0.56777531852E+03 -0.21806496127E+03  0.89908145090E+02  0.61482079845E+03  0.00000000000E+00 0.  1.
        -15    1    3    3    0    0 -0.10643560268E+03  0.22094134947E+02  0.23212010239E+02  0.11115523260E+03  0.00000000000E+00 0.  1.
         15    1    3    3    0    0 -0.32392969205E+02 -0.24073491544E+02  0.39934410540E+02  0.56776708202E+02  0.00000000000E+00 0. -1.
         15    1    1    2    0    0  0.57097265255E+03 -0.28716969013E+03 -0.61476552359E+03  0.88679921622E+03  0.00000000000E+00 0. -1.
        -16    1    1    2    0    0  0.43105347160E+03 -0.21375645359E+03 -0.41495504169E+03  0.63536336332E+03  0.00000000000E+00 0.  1.
         16    1    1    2    0    0  0.27261061535E+03  0.45953150815E+03 -0.15437590457E+03  0.55616335234E+03  0.00000000000E+00 0. -1.
    9900018    1    1    2    0    0 -0.56803284909E+03  0.26143895343E+03  0.20483153386E+02  0.63225499760E+03  0.91187600000E+02 0.  0.
<mgrwt>
<rscale>  0 0.14840908E+04</rscale>
<asrwt>0</asrwt>
<pdfrwt beam="1">  1        2 0.34645326E+00 0.31472931E+04</pdfrwt>
<pdfrwt beam="2">  1       -2 0.19098269E+00 0.31472931E+04</pdfrwt>
<totfact> 0.61880007E-01</totfact>
</mgrwt>
</event>
<event>
 9    1  0.9279270E-014  0.1761838E+04  0.7818608E-02  0.9115300E-01
          2   -1    0    0  501    0  0.00000000000E+00  0.00000000000E+00  0.18352526902E+04  0.18352526902E+04  0.00000000000E+00 0.  1.
         -2   -1    0    0    0  501 -0.00000000000E+00 -0.00000000000E+00 -0.81119328541E+03  0.81119328541E+03  0.00000000000E+00 0. -1.
        -15    1    1    2    0    0 -0.11665288605E+03  0.22133864810E+03 -0.10313702644E+02  0.25040979499E+03  0.00000000000E+00 0.  1.
        -15    1    1    2    0    0 -0.21272544329E+02  0.18166306372E+02  0.12061047727E+03  0.12381204730E+03  0.00000000000E+00 0.  1.
         15    1    1    2    0    0  0.26974636242E+03 -0.13550281917E+03  0.23649933565E+03  0.38347887792E+03  0.00000000000E+00 0. -1.
         15    1    1    2    0    0 -0.27797386026E+03 -0.19608454697E+03  0.66205533852E+03  0.74433587030E+03  0.00000000000E+00 0. -1.
        -16    1    1    2    0    0  0.12087325470E+03 -0.27576619971E+03 -0.30056583595E+03  0.42543761275E+03  0.00000000000E+00 0.  1.
         16    1    1    2    0    0 -0.16691288522E+02  0.34107449223E+03 -0.44176417239E+02  0.34432827970E+03  0.00000000000E+00 0. -1.
    9900018    1    1    2    0    0  0.41970962040E+02  0.26774119164E+02  0.35995020921E+03  0.37464349269E+03  0.91187600000E+02 0.  0.
<mgrwt>
<rscale>  0 0.11972122E+04</rscale>
<asrwt>0</asrwt>
<pdfrwt beam="1">  1        2 0.28234657E+00 0.17618380E+04</pdfrwt>
<pdfrwt beam="2">  1       -2 0.12479897E+00 0.17618380E+04</pdfrwt>
<totfact> 0.36980220E+00</totfact>
</mgrwt>
</event>
<event>
11    1  0.9279270E-014  0.3366737E+04  0.7818608E-02  0.8743483E-01
          2   -1    0    0  501    0  0.00000000000E+00  0.00000000000E+00  0.21732043613E+04  0.21732043613E+04  0.00000000000E+00 0. -1.
         -2   -1    0    0    0  501 -0.00000000000E+00 -0.00000000000E+00 -0.18131649368E+04  0.18131649368E+04  0.00000000000E+00 0.  1.
    9900016    2    1    2    0    0 -0.20624439074E+03  0.34293946209E+03  0.56787128948E+03  0.22493280368E+04  0.21393584535E+04 0.  0.
         23    2    1    2    0    0 -0.18567214590E+03 -0.12643263821E+03 -0.46385962154E+03  0.52028652868E+03  0.71224754567E+02 0.  0.
        -15    1    3    3    0    0 -0.45981557087E+03 -0.73080806206E+03 -0.21664503561E+03  0.89019427893E+03  0.00000000000E+00 0.  1.
        -15    1    4    4    0    0 -0.69730173290E+02 -0.38677924418E+02 -0.96411866514E+02  0.12511405560E+03  0.00000000000E+00 0.  1.
         15    1    4    4    0    0 -0.11594197261E+03 -0.87754713789E+02 -0.36744775503E+03  0.39517247308E+03  0.00000000000E+00 0. -1.
         15    1    3    3    0    0  0.11439480541E+03  0.26172232356E+03  0.21720389523E+03  0.35883461129E+03  0.00000000000E+00 0. -1.
        -16    1    3    3    0    0  0.13917637472E+03  0.81202520059E+03  0.56731242985E+03  0.10002991466E+04  0.00000000000E+00 0.  1.
         16    1    1    2    0    0 -0.15342870462E+03 -0.28749887227E+03  0.50916232028E+03  0.60451818612E+03  0.00000000000E+00 0. -1.
    9900018    1    1    2    0    0  0.54534524125E+03  0.70992048387E+02 -0.25313456378E+03  0.61223654649E+03  0.91187600000E+02 0.  0.
<mgrwt>
<rscale>  0 0.17317100E+04</rscale>
<asrwt>0</asrwt>
<pdfrwt beam="1">  1        2 0.33433913E+00 0.33667373E+04</pdfrwt>
<pdfrwt beam="2">  1       -2 0.27894845E+00 0.33667373E+04</pdfrwt>
<totfact> 0.18583780E-01</totfact>
</mgrwt>
</event>
