<event>
12    1  0.3693139E-007  0.4186063E+04  0.7818608E-02  0.8477274E-01
          2   -1    0    0  501    0  0.00000000000E+00  0.00000000000E+00  0.30819065263E+04  0.30819065263E+04  0.00000000000E+00 0. -1.
         -2   -1    0    0    0  501 -0.00000000000E+00 -0.00000000000E+00 -0.20376738263E+04  0.20376738263E+04  0.00000000000E+00 0.  1.
        -24    2    1    2    0    0  0.36589924112E+03 -0.78250568865E+02  0.84639151097E+03  0.92884525273E+03  0.79809194240E+02 0.  0.
    9900016    2    1    2    0    0  0.22183061680E+03 -0.10593144294E+04  0.10259837326E+04  0.26658414696E+04  0.22096860045E+04 0.  0.
         23    2    4    4    0    0 -0.43723731351E+03 -0.76420649754E+02 -0.42791942403E+03  0.62367252321E+03  0.93998929334E+02 0.  0.
        -15    1    1    2    0    0 -0.58772985791E+03  0.11375649983E+04 -0.82814254354E+03  0.15248936302E+04  0.00000000000E+00 0.  1.
        -15    1    5    5    0    0 -0.29303196313E+03 -0.84259993790E+02 -0.32936725920E+03  0.44883211717E+03  0.00000000000E+00 0.  1.
         15    1    3    3    0    0  0.14222829522E+03 -0.65681660419E+02  0.30350267326E+03  0.34155064215E+03  0.00000000000E+00 0. -1.
         15    1    5    5    0    0 -0.14420535038E+03  0.78393440360E+01 -0.98552164829E+02  0.17484040605E+03  0.00000000000E+00 0. -1.
        -16    1    3    3    0    0  0.22367094589E+03 -0.12568908446E+02  0.54288883772E+03  0.58729461058E+03  0.00000000000E+00 0.  1.
         16    1    4    4    0    0  0.80280301451E+03 -0.62978427716E+03  0.11998609307E+04  0.15750514813E+04  0.00000000000E+00 0. -1.
    9900018    1    4    4    0    0 -0.14373508420E+03 -0.35310950248E+03  0.25404222593E+03  0.46711746501E+03  0.91187600000E+02 0.  0.
<mgrwt>
<rscale>  0 0.23016414E+04</rscale>
<asrwt>0</asrwt>
<pdfrwt beam="1">  1        2 0.47413947E+00 0.41860625E+04</pdfrwt>
<pdfrwt beam="2">  1       -2 0.31348828E+00 0.41860625E+04</pdfrwt>
<totfact> 0.30623511E-02</totfact>
</mgrwt>
</event>
<event>
12    1  0.3693139E-007  0.3888002E+04  0.7818608E-02  0.8603420E-01
          2   -1    0    0  501    0  0.00000000000E+00  0.00000000000E+00  0.26156294796E+04  0.26156294796E+04  0.00000000000E+00 0. -1.
         -2   -1    0    0    0  501 -0.00000000000E+00 -0.00000000000E+00 -0.25083269727E+04  0.25083269727E+04  0.00000000000E+00 0.  1.
         24    2    1    2    0    0 -0.16411808407E+03  0.20701557094E+03  0.10811726258E+04  0.11158418048E+04  0.79865476920E+02 0.  0.
    9900016    2    1    2    0    0 -0.11557829387E+04 -0.32468652628E+03 -0.32430761179E+03  0.25323380336E+04  0.22059702962E+04 0.  0.
         23    2    4    4    0    0  0.29214412324E+03 -0.15519584956E+03  0.64915190560E+03  0.73421889280E+03  0.90803334396E+02 0.  0.
        -15    1    5    5    0    0  0.65278944899E+02 -0.82655032024E+01  0.19406833105E+03  0.20491992657E+03  0.00000000000E+00 0.  1.
        -15    1    3    3    0    0 -0.28348890502E+02  0.78527272655E+02  0.44545385283E+03  0.45321002542E+03  0.00000000000E+00 0.  1.
         15    1    1    2    0    0  0.13199010228E+04  0.11767095534E+03 -0.64956250711E+03  0.14757766140E+04  0.00000000000E+00 0. -1.
         15    1    5    5    0    0  0.22686517834E+03 -0.14693034635E+03  0.45508357455E+03  0.52929896623E+03  0.00000000000E+00 0. -1.
        -16    1    4    4    0    0 -0.13267022686E+04 -0.12496433571E+03 -0.76518665085E+03  0.15366410138E+04  0.00000000000E+00 0.  1.
         16    1    3    3    0    0 -0.13576919356E+03  0.12848829829E+03  0.63571877299E+03  0.66263177938E+03  0.00000000000E+00 0. -1.
    9900018    1    4    4    0    0 -0.12122479337E+03 -0.44526341012E+02 -0.20827286653E+03  0.26147812699E+03  0.91187600000E+02 0.  0.
<mgrwt>
<rscale>  0 0.20068593E+04</rscale>
<asrwt>0</asrwt>
<pdfrwt beam="1">  1        2 0.40240454E+00 0.38880021E+04</pdfrwt>
<pdfrwt beam="2">  1       -2 0.38589646E+00 0.38880021E+04</pdfrwt>
<totfact> 0.20870055E-02</totfact>
</mgrwt>
</event>
<event>
12    1  0.3693139E-007  0.3768161E+04  0.7818608E-02  0.8431652E-01
         -2   -1    0    0    0  501 -0.00000000000E+00  0.00000000000E+00  0.23713476814E+04  0.23713476814E+04  0.00000000000E+00 0.  1.
          2   -1    0    0  501    0  0.00000000000E+00 -0.00000000000E+00 -0.23115997561E+04  0.23115997561E+04  0.00000000000E+00 0. -1.
        -24    2    1    2    0    0 -0.54106009933E+03  0.33554263082E+03  0.59684179943E+03  0.87670133697E+03  0.83965543649E+02 0.  0.
    9900016    2    1    2    0    0 -0.80115720972E+03  0.53361075226E+02 -0.99371535541E+02  0.23418710656E+04  0.21976772071E+04 0.  0.
         23    2    4    4    0    0  0.43063314584E+03 -0.30780698737E+02  0.59937409137E+03  0.74395521182E+03  0.88474279229E+02 0.  0.
        -15    1    5    5    0    0  0.13041420677E+03 -0.12725462397E+02  0.11792607170E+03  0.17628488622E+03  0.00000000000E+00 0. -1.
        -15    1    1    2    0    0  0.13422173091E+04 -0.38890370605E+03 -0.43772233860E+03  0.14643750350E+04  0.00000000000E+00 0.  1.
         15    1    5    5    0    0  0.30021893906E+03 -0.18055236340E+02  0.48144801967E+03  0.56767032560E+03  0.00000000000E+00 0.  1.
         15    1    3    3    0    0 -0.24754184394E+03  0.19097716463E+03  0.32902812419E+03  0.45388186615E+03  0.00000000000E+00 0. -1.
        -16    1    3    3    0    0 -0.29351825540E+03  0.14456546619E+03  0.26781367523E+03  0.42281947082E+03  0.00000000000E+00 0.  1.
         16    1    4    4    0    0 -0.11198176243E+04 -0.18064947543E+03 -0.57757028872E+03  0.12728759496E+04  0.00000000000E+00 0. -1.
    9900018    1    4    4    0    0 -0.11197273122E+03  0.26479124939E+03 -0.12117533819E+03  0.32503990412E+03  0.91187600000E+02 0.  0.
<mgrwt>
<rscale>  0 0.24210847E+04</rscale>
<asrwt>0</asrwt>
<pdfrwt beam="1">  1        2 0.35563073E+00 0.37681613E+04</pdfrwt>
<pdfrwt beam="2">  1       -2 0.36482272E+00 0.37681613E+04</pdfrwt>
<totfact> 0.43583194E-02</totfact>
</mgrwt>
</event>
<event>
12    1  0.3693140E-007  0.3880522E+04  0.7818608E-02  0.8358999E-01
          2   -1    0    0  501    0  0.00000000000E+00  0.00000000000E+00  0.22245498374E+04  0.22245498374E+04  0.00000000000E+00 0. -1.
         -2   -1    0    0    0  501 -0.00000000000E+00 -0.00000000000E+00 -0.24788626605E+04  0.24788626605E+04  0.00000000000E+00 0.  1.
         24    2    1    2    0    0 -0.81148091482E+03  0.40744978552E+01 -0.74049050133E+02  0.81870596508E+03  0.79235842766E+02 0.  0.
    9900016    2    1    2    0    0 -0.61661839183E+03  0.54225691347E+03 -0.12651015092E+03  0.23547277446E+04  0.22032878004E+04 0.  0.
         23    2    4    4    0    0 -0.36673312223E+03  0.32533959851E+03 -0.11302600291E+04  0.12353657923E+04  0.91114598634E+02 0.  0.
        -15    1    3    3    0    0 -0.10868668534E+03 -0.26528567746E+02 -0.11733812518E+02  0.11249107891E+03  0.00000000000E+00 0.  1.
        -15    1    5    5    0    0 -0.34730651881E+03  0.32456427610E+03 -0.10468703889E+04  0.11497397090E+04  0.00000000000E+00 0. -1.
         15    1    5    5    0    0 -0.19426603417E+02  0.77532240787E+00 -0.83389640140E+02  0.85626083222E+02  0.00000000000E+00 0.  1.
         15    1    1    2    0    0  0.14280993067E+04 -0.54633141132E+03 -0.53753622034E+02  0.15299787883E+04  0.00000000000E+00 0. -1.
        -16    1    4    4    0    0 -0.24534740798E+03  0.27661847788E+03  0.87925456505E+03  0.95383527041E+03  0.00000000000E+00 0.  1.
         16    1    3    3    0    0 -0.70279422948E+03  0.30603065601E+02 -0.62315237615E+02  0.70621488618E+03  0.00000000000E+00 0. -1.
    9900018    1    4    4    0    0 -0.45378616235E+01 -0.59701162922E+02  0.12449531311E+03  0.16552668191E+03  0.91187600000E+02 0.  0.
<mgrwt>
<rscale>  0 0.26272640E+04</rscale>
<asrwt>0</asrwt>
<pdfrwt beam="1">  1        2 0.34223844E+00 0.38805218E+04</pdfrwt>
<pdfrwt beam="2">  1       -2 0.38136348E+00 0.38805218E+04</pdfrwt>
<totfact> 0.37993106E-02</totfact>
</mgrwt>
</event>
