<event>
11    1  0.8692618E-011  0.2412998E+04  0.7818608E-02  0.8434653E-01
          2   -1    0    0  501    0  0.00000000000E+00  0.00000000000E+00  0.15981259435E+04  0.15981259435E+04  0.00000000000E+00 0. -1.
         -2   -1    0    0    0  501 -0.00000000000E+00 -0.00000000000E+00 -0.91084206467E+03  0.91084206467E+03  0.00000000000E+00 0.  1.
    9900016    2    1    2    0    0 -0.12927836584E+03  0.24947983442E+03  0.83539774535E+03  0.21913348847E+04  0.20062667072E+04 0.  0.
         24    2    3    3    0    0 -0.23257990552E+03  0.55382319451E+02  0.65474674242E+03  0.70154709984E+03  0.79463342625E+02 0.  0.
        -15    1    3    3    0    0 -0.11898325469E+03  0.42016461041E+03  0.95705435206E+02  0.44705127790E+03  0.00000000000E+00 0.  1.
        -15    1    4    4    0    0 -0.20956519020E+03  0.71361015739E+02  0.54422694324E+03  0.58753121556E+03  0.00000000000E+00 0.  1.
         15    1    3    3    0    0 -0.31811220123E+02  0.12895986058E+03 -0.29350926824E+03  0.32216500417E+03  0.00000000000E+00 0. -1.
         15    1    3    3    0    0  0.78904192188E+02  0.90190498546E+02  0.35837927388E+02  0.12507819399E+03  0.00000000000E+00 0. -1.
        -16    1    1    2    0    0  0.12927836584E+03 -0.24947983442E+03 -0.14811386651E+03  0.31763312344E+03  0.00000000000E+00 0.  1.
         16    1    4    4    0    0 -0.23014715318E+02 -0.15978696288E+02  0.11051979918E+03  0.11401588428E+03  0.00000000000E+00 0. -1.
    9900018    1    3    3    0    0  0.17519182230E+03 -0.44521745457E+03  0.34261690857E+03  0.59549330885E+03  0.91187600000E+02 0.  0.
<mgrwt>
<rscale>  0 0.24129984E+04</rscale>
<asrwt>0</asrwt>
<pdfrwt beam="1">  1        2 0.24586553E+00 0.24129984E+04</pdfrwt>
<pdfrwt beam="2">  1       -2 0.14012955E+00 0.24129984E+04</pdfrwt>
<totfact> 0.35985195E+00</totfact>
</mgrwt>
</event>
<event>
11    1  0.8692618E-011  0.2417855E+04  0.7818608E-02  0.8432849E-01
          1   -1    0    0  501    0  0.00000000000E+00  0.00000000000E+00  0.13301175801E+04  0.13301175801E+04  0.00000000000E+00 0. -1.
         -1   -1    0    0    0  501 -0.00000000000E+00 -0.00000000000E+00 -0.10987792419E+04  0.10987792419E+04  0.00000000000E+00 0.  1.
    9900016    2    1    2    0    0 -0.32116953680E+03  0.30715611774E+03  0.52536540353E+03  0.18960303592E+04  0.17667562265E+04 0.  0.
         24    2    3    3    0    0 -0.75431324010E+03  0.25812537574E+03  0.47106295577E+03  0.92959338490E+03  0.81402574654E+02 0.  0.
        -15    1    3    3    0    0  0.11925860354E+03 -0.47104167269E+02  0.32214827143E+02  0.13220897164E+03  0.00000000000E+00 0.  1.
        -15    1    4    4    0    0 -0.24368355115E+03  0.11183341521E+03  0.12659596941E+03  0.29650451149E+03  0.00000000000E+00 0.  1.
         15    1    3    3    0    0 -0.53886154061E+02  0.16976257823E+03  0.32448711121E+02  0.18104134727E+03  0.00000000000E+00 0. -1.
         15    1    3    3    0    0  0.43397553956E+03 -0.54156648561E+02 -0.15926421921E+03  0.46543829133E+03  0.00000000000E+00 0. -1.
        -16    1    1    2    0    0  0.32116953680E+03 -0.30715611774E+03 -0.29402706528E+03  0.53286646278E+03  0.00000000000E+00 0.  1.
         16    1    4    4    0    0 -0.51062968894E+03  0.14629196053E+03  0.34446698636E+03  0.63308887341E+03  0.00000000000E+00 0. -1.
    9900018    1    3    3    0    0 -0.66204285748E+02 -0.19471020396E+02  0.14890312870E+03  0.18774836409E+03  0.91187600000E+02 0.  0.
<mgrwt>
<rscale>  0 0.24178549E+04</rscale>
<asrwt>0</asrwt>
<pdfrwt beam="1">  1        1 0.20463347E+00 0.24178549E+04</pdfrwt>
<pdfrwt beam="2">  1       -1 0.16904296E+00 0.24178549E+04</pdfrwt>
<totfact> 0.19265110E+00</totfact>
</mgrwt>
</event>
<event>
11    1  0.8692618E-011  0.4743875E+04  0.7818608E-02  0.8232040E-01
         -2   -1    0    0    0  501 -0.00000000000E+00  0.00000000000E+00  0.33535269825E+04  0.33535269825E+04  0.00000000000E+00 0.  1.
          2   -1    0    0  501    0  0.00000000000E+00 -0.00000000000E+00 -0.24331751415E+04  0.24331751415E+04  0.00000000000E+00 0. -1.
    9900016    2    1    2    0    0  0.11047212174E+04  0.80605669666E+03 -0.37603861301E+03  0.22663504257E+04  0.17677111889E+04 0.  0.
        -24    2    3    3    0    0  0.58671142225E+03 -0.16889335687E+03  0.25093638227E+03  0.66486472442E+03  0.79503300848E+02 0.  0.
        -15    1    1    2    0    0  0.33111107084E+03  0.91671908684E+02 -0.97999839148E+02  0.35727055371E+03  0.00000000000E+00 0.  1.
        -15    1    3    3    0    0 -0.23578501460E+03  0.55406117949E+03 -0.20380762623E+03  0.63570111864E+03  0.00000000000E+00 0.  1.
         15    1    4    4    0    0  0.48364708316E+03 -0.10888008281E+03  0.21443246895E+03  0.54013947942E+03  0.00000000000E+00 0. -1.
         15    1    1    2    0    0  0.44918709135E+03 -0.45188025005E+02 -0.25385142473E+03  0.51793005944E+03  0.00000000000E+00 0. -1.
        -16    1    4    4    0    0  0.10306433908E+03 -0.60013274060E+02  0.36503913320E+02  0.12472524501E+03  0.00000000000E+00 0.  1.
         16    1    1    2    0    0 -0.18850193796E+04 -0.85254058034E+03  0.16482417179E+04  0.26451510851E+04  0.00000000000E+00 0. -1.
    9900018    1    3    3    0    0  0.75379480974E+03  0.42088887404E+03 -0.42316736905E+03  0.96578458266E+03  0.91187600000E+02 0.  0.
<mgrwt>
<rscale>  0 0.30412823E+04</rscale>
<asrwt>0</asrwt>
<pdfrwt beam="1">  1        2 0.37433464E+00 0.47438746E+04</pdfrwt>
<pdfrwt beam="2">  1       -2 0.51592723E+00 0.47438746E+04</pdfrwt>
<totfact> 0.36347109E-03</totfact>
</mgrwt>
</event>
<event>
10    1  0.9089928E-011  0.2746489E+04  0.7818608E-02  0.8320076E-01
         -1   -1    0    0    0  501 -0.00000000000E+00  0.00000000000E+00  0.93558060181E+03  0.93558060181E+03  0.00000000000E+00 0.  1.
          1   -1    0    0  501    0  0.00000000000E+00 -0.00000000000E+00 -0.20156478058E+04  0.20156478058E+04  0.00000000000E+00 0. -1.
        -24    2    1    2    0    0 -0.21794022137E+03 -0.40375103800E+03 -0.84359202251E+02  0.47359492774E+03  0.81626220023E+02 0.  0.
        -15    1    1    2    0    0 -0.10049477335E+03  0.54009932997E+03 -0.39608394477E+02  0.55079516212E+03  0.00000000000E+00 0.  1.
        -15    1    1    2    0    0 -0.20730237107E+03  0.41620424247E+02 -0.45658015261E+03  0.50316197047E+03  0.00000000000E+00 0.  1.
         15    1    1    2    0    0  0.28836954757E+03  0.47215574430E+02  0.17637537575E+03  0.34131302291E+03  0.00000000000E+00 0. -1.
         15    1    3    3    0    0 -0.14354238915E+03 -0.29694886642E+03 -0.25686144806E+02  0.33082143943E+03  0.00000000000E+00 0. -1.
        -16    1    3    3    0    0 -0.74397832221E+02 -0.10680217158E+03 -0.58673057444E+02  0.14277348831E+03  0.00000000000E+00 0.  1.
         16    1    1    2    0    0  0.41243899624E+03 -0.97202273845E+02 -0.72713517458E+03  0.84159358943E+03  0.00000000000E+00 0. -1.
    9900018    1    1    2    0    0 -0.17507117802E+03 -0.12798201680E+03  0.51240344179E+02  0.24076973494E+03  0.91187600000E+02 0.  0.
<mgrwt>
<rscale>  0 0.27464894E+04</rscale>
<asrwt>0</asrwt>
<pdfrwt beam="1">  1        1 0.31009966E+00 0.27464894E+04</pdfrwt>
<pdfrwt beam="2">  1       -1 0.14393548E+00 0.27464894E+04</pdfrwt>
<totfact> 0.98527262E-01</totfact>
</mgrwt>
</event>
<event>
10    1  0.8692618E-011  0.2169145E+04  0.7818608E-02  0.8879147E-01
          2   -1    0    0  501    0  0.00000000000E+00  0.00000000000E+00  0.33832104892E+04  0.33832104892E+04  0.00000000000E+00 0. -1.
         -2   -1    0    0    0  501 -0.00000000000E+00 -0.00000000000E+00 -0.52914829701E+03  0.52914829701E+03  0.00000000000E+00 0.  1.
         24    2    1    2    0    0 -0.29933530685E+03  0.45536915581E+03  0.14948146019E+03  0.57064218608E+03  0.79530519933E+02 0.  0.
        -15    1    3    3    0    0 -0.12130806769E+03  0.24280130222E+03  0.49494897889E+02  0.27589466208E+03  0.00000000000E+00 0.  1.
        -15    1    1    2    0    0 -0.19574407183E+03  0.11256600298E+03  0.27528036777E+03  0.35604231148E+03  0.00000000000E+00 0.  1.
         15    1    1    2    0    0  0.19078735500E+03 -0.44484430636E+03  0.94639596652E+03  0.10629918143E+04  0.00000000000E+00 0. -1.
         15    1    1    2    0    0  0.19536068919E+02  0.27715848913E+03  0.24941994743E+03  0.37337487363E+03  0.00000000000E+00 0. -1.
        -16    1    1    2    0    0  0.43633427385E+01 -0.55546261740E+03  0.51573003476E+03  0.75798102010E+03  0.00000000000E+00 0.  1.
         16    1    3    3    0    0 -0.17802723916E+03  0.21256785359E+03  0.99986562303E+02  0.29474752400E+03  0.00000000000E+00 0. -1.
    9900018    1    1    2    0    0  0.28039261202E+03  0.15521327584E+03  0.71775441551E+03  0.79132658066E+03  0.91187600000E+02 0.  0.
<mgrwt>
<rscale>  0 0.15080055E+04</rscale>
<asrwt>0</asrwt>
<pdfrwt beam="1">  1        2 0.52049391E+00 0.21691451E+04</pdfrwt>
<pdfrwt beam="2">  1       -2 0.81407432E-01 0.21691451E+04</pdfrwt>
<totfact> 0.11823659E+00</totfact>
</mgrwt>
</event>
<event>
11    1  0.8692618E-011  0.6173302E+04  0.7818608E-02  0.7669278E-01
          2   -1    0    0  501    0  0.00000000000E+00  0.00000000000E+00  0.22183563817E+04  0.22183563817E+04  0.00000000000E+00 0.  1.
         -2   -1    0    0    0  501 -0.00000000000E+00 -0.00000000000E+00 -0.42948079069E+04  0.42948079069E+04  0.00000000000E+00 0. -1.
    9900016    2    1    2    0    0 -0.57493660917E+03  0.10139693684E+04 -0.21510192541E+03  0.22581145116E+04  0.19220110106E+04 0.  0.
        -24    2    3    3    0    0  0.18934055928E+03  0.46477203049E+03 -0.70592183805E+03  0.86985615525E+03  0.80381600323E+02 0.  0.
        -15    1    3    3    0    0 -0.18274018191E+03  0.13660852005E+03  0.61753562206E+03  0.65833586135E+03  0.00000000000E+00 0.  1.
        -15    1    1    2    0    0  0.19876247944E+04 -0.84396858577E+03 -0.12509261082E+04  0.24955463180E+04  0.00000000000E+00 0.  1.
         15    1    4    4    0    0  0.94250222167E+02  0.28668344175E+03 -0.36451350933E+03  0.47322362434E+03  0.00000000000E+00 0. -1.
         15    1    1    2    0    0 -0.11090479692E+04 -0.43028694587E+03 -0.65346950191E+03  0.13572607132E+04  0.00000000000E+00 0. -1.
        -16    1    4    4    0    0  0.95090337111E+02  0.17808858874E+03 -0.34140832873E+03  0.39663253091E+03  0.00000000000E+00 0.  1.
         16    1    1    2    0    0 -0.30364021604E+03  0.26028616322E+03  0.43046010294E+02  0.40224274581E+03  0.00000000000E+00 0. -1.
    9900018    1    3    3    0    0 -0.58153698653E+03  0.41258881789E+03 -0.12671570942E+03  0.72992249504E+03  0.91187600000E+02 0.  0.
<mgrwt>
<rscale>  0 0.61733020E+04</rscale>
<asrwt>0</asrwt>
<pdfrwt beam="1">  1        2 0.34128560E+00 0.61733020E+04</pdfrwt>
<pdfrwt beam="2">  1       -2 0.66073967E+00 0.61733020E+04</pdfrwt>
<totfact> 0.10594495E-03</totfact>
</mgrwt>
</event>
