<event>
12    1  0.3280109E-009  0.2752638E+04  0.7818608E-02  0.8926854E-01
         -2   -1    0    0    0  501 -0.00000000000E+00  0.00000000000E+00  0.10385406961E+04  0.10385406961E+04  0.00000000000E+00 0.  1.
          2   -1    0    0  501    0  0.00000000000E+00 -0.00000000000E+00 -0.23093037821E+04  0.23093037821E+04  0.00000000000E+00 0. -1.
         24    2    1    2    0    0 -0.17197511570E+03 -0.76369953411E+02 -0.41900087063E+03  0.46643637551E+03  0.81199461894E+02 0.  0.
    9900016    2    1    2    0    0 -0.40922585556E+03 -0.42551822303E+03 -0.51156724215E+03  0.20415158891E+04  0.18861480650E+04 0.  0.
        -24    2    4    4    0    0 -0.39755971075E+03  0.61102856032E+03  0.12078931736E+03  0.74267679154E+03  0.74626619676E+02 0.  0.
        -15    1    3    3    0    0 -0.32831778752E+02 -0.31075955423E+02 -0.40729838750E+02  0.60848668564E+02  0.00000000000E+00 0.  1.
        -15    1    4    4    0    0  0.40827249091E+00 -0.10121321289E+04 -0.64884519575E+03  0.12022527609E+04  0.00000000000E+00 0.  1.
         15    1    1    2    0    0  0.58120097126E+03  0.50188817644E+03 -0.34019497319E+03  0.83989221358E+03  0.00000000000E+00 0. -1.
         15    1    5    5    0    0 -0.33623825359E+03  0.46751983809E+03  0.80272055576E+02  0.58144179854E+03  0.00000000000E+00 0. -1.
        -16    1    5    5    0    0 -0.61321457156E+02  0.14350872223E+03  0.40517261783E+02  0.16123499299E+03  0.00000000000E+00 0.  1.
         16    1    3    3    0    0 -0.13914333694E+03 -0.45293997988E+02 -0.37827103188E+03  0.40558770695E+03  0.00000000000E+00 0. -1.
    9900018    1    4    4    0    0 -0.12074417307E+02 -0.24414654423E+02  0.16488636242E+02  0.96586336626E+02  0.91187600000E+02 0.  0.
<mgrwt>
<rscale>  0 0.14378694E+04</rscale>
<asrwt>0</asrwt>
<pdfrwt beam="1">  1        2 0.35527750E+00 0.27526376E+04</pdfrwt>
<pdfrwt beam="2">  1       -2 0.15977549E+00 0.27526376E+04</pdfrwt>
<totfact> 0.97789724E-01</totfact>
</mgrwt>
</event>
<event>
12    1  0.3280109E-009  0.2773709E+04  0.7818608E-02  0.8415066E-01
         -1   -1    0    0    0  501 -0.00000000000E+00  0.00000000000E+00  0.20023579675E+04  0.20023579675E+04  0.00000000000E+00 0. -1.
          1   -1    0    0  501    0  0.00000000000E+00 -0.00000000000E+00 -0.25401427805E+04  0.25401427805E+04  0.00000000000E+00 0.  1.
         24    2    1    2    0    0  0.34043441556E+03 -0.16983816491E+04 -0.12845349351E+03  0.17387504036E+04  0.79729849584E+02 0.  0.
    9900016    2    1    2    0    0 -0.31323340845E+03  0.11675111450E+04 -0.26994764397E+03  0.21789334443E+04  0.17926744775E+04 0.  0.
        -24    2    4    4    0    0 -0.60445182295E+03 -0.46941271313E+02  0.42919825518E+03  0.74767252303E+03  0.85073910385E+02 0.  0.
        -15    1    4    4    0    0  0.29121841450E+03  0.12144524163E+04 -0.69914589915E+03  0.14312609212E+04  0.00000000000E+00 0.  1.
        -15    1    3    3    0    0  0.14508270593E+03 -0.53586329488E+03 -0.45488887676E+02  0.55701678724E+03  0.00000000000E+00 0.  1.
         15    1    1    2    0    0 -0.12345973336E+02  0.51270265695E+03 -0.98786560137E+02  0.52227887375E+03  0.00000000000E+00 0. -1.
         15    1    5    5    0    0 -0.29477889306E+03 -0.64899920588E+02  0.20261529865E+03  0.36353755615E+03  0.00000000000E+00 0. -1.
        -16    1    5    5    0    0 -0.30967292989E+03  0.17958649275E+02  0.22658295652E+03  0.38413496688E+03  0.00000000000E+00 0.  1.
         16    1    3    3    0    0  0.19535170963E+03 -0.11625183542E+04 -0.82964605838E+02  0.11817336164E+04  0.00000000000E+00 0. -1.
    9900018    1    1    2    0    0 -0.14855033777E+02  0.18167847126E+02 -0.40597115382E+02  0.10253802645E+03  0.91187600000E+02 0.  0.
<mgrwt>
<rscale>  0 0.24663683E+04</rscale>
<asrwt>0</asrwt>
<pdfrwt beam="1">  1        1 0.39079119E+00 0.27737094E+04</pdfrwt>
<pdfrwt beam="2">  1       -1 0.30805508E+00 0.27737094E+04</pdfrwt>
<totfact> 0.30816622E-02</totfact>
</mgrwt>
</event>
<event>
12    1  0.3280109E-009  0.3446978E+04  0.7818608E-02  0.8418337E-01
         -1   -1    0    0    0  501 -0.00000000000E+00  0.00000000000E+00  0.16690485661E+04  0.16690485661E+04  0.00000000000E+00 0.  1.
          1   -1    0    0  501    0  0.00000000000E+00 -0.00000000000E+00 -0.28448746370E+04  0.28448746370E+04  0.00000000000E+00 0. -1.
         24    2    1    2    0    0 -0.44361983200E+03 -0.76789305261E+03 -0.42289460215E+03  0.98567084899E+03  0.79049873026E+02 0.  0.
    9900016    2    1    2    0    0 -0.11322537867E+03  0.63730245960E+03 -0.13959298687E+04  0.23594773824E+04  0.17887254983E+04 0.  0.
        -24    2    4    4    0    0 -0.62983121258E+03 -0.31906393277E+03 -0.94588280761E+03  0.11830163242E+04  0.79650412147E+02 0.  0.
        -15    1    3    3    0    0 -0.29025267194E+03 -0.48386811109E+03 -0.30942277517E+03  0.64351955394E+03  0.00000000000E+00 0.  1.
        -15    1    4    4    0    0  0.51660583391E+03  0.95636639237E+03 -0.45004706112E+03  0.11764610581E+04  0.00000000000E+00 0.  1.
         15    1    1    2    0    0  0.53739300801E+03  0.29670701042E+02  0.79743324995E+03  0.96206620546E+03  0.00000000000E+00 0. -1.
         15    1    5    5    0    0 -0.28080140931E+03 -0.10769515919E+03 -0.36093121595E+03  0.46980743016E+03  0.00000000000E+00 0. -1.
        -16    1    5    5    0    0 -0.34902980326E+03 -0.21136877358E+03 -0.58495159165E+03  0.71320889407E+03  0.00000000000E+00 0.  1.
         16    1    3    3    0    0 -0.15336716005E+03 -0.28402494152E+03 -0.11347182698E+03  0.34215129505E+03  0.00000000000E+00 0. -1.
    9900018    1    1    2    0    0  0.19452202653E+02  0.10091989198E+03 -0.15443484999E+03  0.20670876631E+03  0.91187600000E+02 0.  0.
<mgrwt>
<rscale>  0 0.24573559E+04</rscale>
<asrwt>0</asrwt>
<pdfrwt beam="1">  1        1 0.43767302E+00 0.34469782E+04</pdfrwt>
<pdfrwt beam="2">  1       -1 0.25677671E+00 0.34469782E+04</pdfrwt>
<totfact> 0.38799841E-02</totfact>
</mgrwt>
</event>
<event>
12    1  0.3280109E-009  0.4495549E+04  0.7818608E-02  0.7911417E-01
          2   -1    0    0  501    0  0.00000000000E+00  0.00000000000E+00  0.26890281915E+04  0.26890281915E+04  0.00000000000E+00 0. -1.
         -2   -1    0    0    0  501 -0.00000000000E+00 -0.00000000000E+00 -0.18789277019E+04  0.18789277019E+04  0.00000000000E+00 0.  1.
        -24    2    1    2    0    0  0.67414103129E+03  0.41202050681E+03 -0.75515179065E+03  0.10958647442E+04  0.80238909851E+02 0.  0.
    9900016    2    1    2    0    0 -0.80562747559E+03 -0.99492470825E+03  0.69782133635E+03  0.23100105296E+04  0.17917263253E+04 0.  0.
         24    2    4    4    0    0 -0.50330919819E+03 -0.52111453095E+03  0.12972064987E+04  0.14883323701E+04  0.86648948875E+02 0.  0.
        -15    1    5    5    0    0 -0.29647977336E+03 -0.36649966266E+03  0.83396722886E+03  0.95797891289E+03  0.00000000000E+00 0.  1.
        -15    1    1    2    0    0  0.17562925943E+03  0.58591712427E+03  0.86659501970E+03  0.10607221321E+04  0.00000000000E+00 0.  1.
         15    1    4    4    0    0 -0.30231827740E+03 -0.47381017730E+03 -0.59938516231E+03  0.82167815948E+03  0.00000000000E+00 0. -1.
         15    1    3    3    0    0  0.41410247662E+03  0.29723752898E+03 -0.49541565182E+03  0.71082183270E+03  0.00000000000E+00 0. -1.
        -16    1    3    3    0    0  0.26003855467E+03  0.11478297783E+03 -0.25973613883E+03  0.38504291154E+03  0.00000000000E+00 0.  1.
         16    1    5    5    0    0 -0.20682942483E+03 -0.15461486829E+03  0.46323926981E+03  0.53035345720E+03  0.00000000000E+00 0. -1.
    9900018    1    1    2    0    0 -0.44142815125E+02 -0.30129228251E+01  0.83592422014E+00  0.10135848753E+03  0.91187600000E+02 0.  0.
<mgrwt>
<rscale>  0 0.44955487E+04</rscale>
<asrwt>0</asrwt>
<pdfrwt beam="1">  1        2 0.41369665E+00 0.44955487E+04</pdfrwt>
<pdfrwt beam="2">  1       -2 0.28906580E+00 0.44955487E+04</pdfrwt>
<totfact> 0.75746916E-02</totfact>
</mgrwt>
</event>
<event>
12    1  0.3280109E-009  0.3145890E+04  0.7818608E-02  0.8203256E-01
          1   -1    0    0  501    0  0.00000000000E+00  0.00000000000E+00  0.23895821385E+04  0.23895821385E+04  0.00000000000E+00 0. -1.
         -1   -1    0    0    0  501 -0.00000000000E+00 -0.00000000000E+00 -0.10353924937E+04  0.10353924937E+04  0.00000000000E+00 0.  1.
        -24    2    1    2    0    0 -0.38281363608E+03 -0.25429700696E+03 -0.34520906352E+03  0.57993026913E+03  0.77049151808E+02 0.  0.
    9900016    2    1    2    0    0  0.35086907422E+03  0.78255890195E+02  0.16809864013E+04  0.24866786932E+04  0.17968368179E+04 0.  0.
         24    2    4    4    0    0  0.64112556130E+03  0.81499341705E+03  0.98475308167E+03  0.14322727718E+04  0.80065009192E+02 0.  0.
        -15    1    1    2    0    0  0.74865264646E+01  0.12658641647E+03 -0.12607951606E+03  0.17881893995E+03  0.00000000000E+00 0.  1.
        -15    1    5    5    0    0  0.57235034974E+03  0.69356922118E+03  0.87555666325E+03  0.12550787457E+04  0.00000000000E+00 0.  1.
         15    1    3    3    0    0 -0.43831849349E+02 -0.11429938635E+02 -0.14047612734E+02  0.47425836187E+02  0.00000000000E+00 0. -1.
         15    1    4    4    0    0 -0.29025648708E+03 -0.73673752686E+03  0.69623331960E+03  0.10544059214E+04  0.00000000000E+00 0. -1.
        -16    1    3    3    0    0 -0.33898178673E+03 -0.24286706832E+03 -0.33116145079E+03  0.53250443294E+03  0.00000000000E+00 0.  1.
         16    1    5    5    0    0  0.68775211560E+02  0.12142419587E+03  0.10919641842E+03  0.17719402604E+03  0.00000000000E+00 0. -1.
    9900018    1    1    2    0    0  0.24458035397E+02  0.49454700293E+02  0.14449182315E+03  0.17954672993E+03  0.91187600000E+02 0.  0.
<mgrwt>
<rscale>  0 0.31458896E+04</rscale>
<asrwt>0</asrwt>
<pdfrwt beam="1">  1        1 0.36762802E+00 0.31458896E+04</pdfrwt>
<pdfrwt beam="2">  1       -1 0.15929115E+00 0.31458896E+04</pdfrwt>
<totfact> 0.40159478E-01</totfact>
</mgrwt>
</event>
<event>
12    1  0.3280109E-009  0.2846124E+04  0.7818608E-02  0.8442917E-01
         -2   -1    0    0    0  501 -0.00000000000E+00  0.00000000000E+00  0.16546631770E+04  0.16546631770E+04  0.00000000000E+00 0.  1.
          2   -1    0    0  501    0  0.00000000000E+00 -0.00000000000E+00 -0.36231059328E+04  0.36231059328E+04  0.00000000000E+00 0. -1.
        -24    2    1    2    0    0 -0.62145609940E+03 -0.12711427358E+04 -0.19758234734E+04  0.24316360123E+04  0.83449146648E+02 0.  0.
    9900016    2    1    2    0    0  0.44195593799E+02  0.11805475832E+04 -0.17952465057E+03  0.22326424377E+04  0.18859526261E+04 0.  0.
         24    2    4    4    0    0 -0.11073691418E+03  0.14699437548E+04 -0.57144068206E+03  0.15830615791E+04  0.80883890472E+02 0.  0.
        -15    1    5    5    0    0 -0.11773466396E+03  0.12434109421E+04 -0.46573596371E+03  0.13329824492E+04  0.00000000000E+00 0.  1.
        -15    1    1    2    0    0  0.57726050560E+03  0.90595152579E+02  0.18690536817E+03  0.61349065979E+03  0.00000000000E+00 0.  1.
         15    1    4    4    0    0  0.13040990716E+03 -0.35506602195E+03  0.37621848774E+03  0.53349693002E+03  0.00000000000E+00 0. -1.
         15    1    3    3    0    0 -0.54965152597E+03 -0.10948688295E+04 -0.17517320135E+04  0.21376200787E+04  0.00000000000E+00 0. -1.
        -16    1    3    3    0    0 -0.71804573433E+02 -0.17627390634E+03 -0.22409145995E+03  0.29401593366E+03  0.00000000000E+00 0.  1.
         16    1    5    5    0    0  0.69977497775E+01  0.22653281273E+03 -0.10570471835E+03  0.25007912993E+03  0.00000000000E+00 0. -1.
    9900018    1    4    4    0    0  0.24522600823E+02  0.65669850348E+02  0.15697543752E+02  0.11608392856E+03  0.91187600000E+02 0.  0.
<mgrwt>
<rscale>  0 0.23909043E+04</rscale>
<asrwt>0</asrwt>
<pdfrwt beam="1">  1        2 0.55740091E+00 0.28461235E+04</pdfrwt>
<pdfrwt beam="2">  1       -2 0.25456357E+00 0.28461235E+04</pdfrwt>
<totfact> 0.32896939E-02</totfact>
</mgrwt>
</event>
<event>
12    1  0.3280109E-009  0.2776327E+04  0.7818608E-02  0.8569084E-01
         -2   -1    0    0    0  501 -0.00000000000E+00  0.00000000000E+00  0.15221420249E+04  0.15221420249E+04  0.00000000000E+00 0.  1.
          2   -1    0    0  501    0  0.00000000000E+00 -0.00000000000E+00 -0.30063868116E+04  0.30063868116E+04  0.00000000000E+00 0. -1.
         24    2    1    2    0    0  0.38340014762E+03  0.78640027164E+03  0.59402181689E+03  0.10605054465E+04  0.79930110822E+02 0.  0.
    9900016    2    1    2    0    0 -0.12173744949E+03 -0.71413799315E+02 -0.18540055569E+04  0.25873160441E+04  0.17991519585E+04 0.  0.
        -24    2    4    4    0    0  0.76072458504E+03  0.13296819001E+03 -0.13320510528E+04  0.15418746329E+04  0.81455156097E+02 0.  0.
        -15    1    4    4    0    0 -0.88246203453E+03 -0.20438198932E+03 -0.52195450409E+03  0.10454414112E+04  0.00000000000E+00 0.  1.
        -15    1    3    3    0    0  0.15592191063E+03  0.30320091032E+03  0.18574615968E+03  0.38825773665E+03  0.00000000000E+00 0.  1.
         15    1    1    2    0    0 -0.24190819399E+03 -0.69964621262E+03 -0.13866101990E+03  0.75316085639E+03  0.00000000000E+00 0. -1.
         15    1    5    5    0    0  0.21656441811E+03  0.28160769243E+02 -0.30911698674E+03  0.37847917724E+03  0.00000000000E+00 0. -1.
        -16    1    5    5    0    0  0.54416016694E+03  0.10480742077E+03 -0.10229340661E+04  0.11633954557E+04  0.00000000000E+00 0.  1.
         16    1    3    3    0    0  0.22747823699E+03  0.48319936132E+03  0.40827565721E+03  0.67224770982E+03  0.00000000000E+00 0. -1.
    9900018    1    1    2    0    0 -0.19754504134E+02 -0.15340259707E+02 -0.85600026831E+02  0.12754648952E+03  0.91187600000E+02 0.  0.
<mgrwt>
<rscale>  0 0.20822931E+04</rscale>
<asrwt>0</asrwt>
<pdfrwt beam="1">  1        2 0.46252104E+00 0.27763275E+04</pdfrwt>
<pdfrwt beam="2">  1       -2 0.23417570E+00 0.27763275E+04</pdfrwt>
<totfact> 0.11605615E-01</totfact>
</mgrwt>
</event>
<event>
12    1  0.3280110E-009  0.2928812E+04  0.7818608E-02  0.8445375E-01
          2   -1    0    0  501    0  0.00000000000E+00  0.00000000000E+00  0.26316515272E+04  0.26316515272E+04  0.00000000000E+00 0. -1.
         -2   -1    0    0    0  501 -0.00000000000E+00 -0.00000000000E+00 -0.19160372454E+04  0.19160372454E+04  0.00000000000E+00 0.  1.
         24    2    1    2    0    0  0.12806329902E+04 -0.91702835096E+02 -0.49505908988E+03  0.13785135608E+04  0.82376388196E+02 0.  0.
    9900016    2    1    2    0    0 -0.10784543471E+04 -0.32887691691E+03  0.44092254967E+03  0.21713044120E+04  0.18024778361E+04 0.  0.
        -24    2    4    4    0    0  0.37417166934E+03  0.31549466501E+03 -0.72411487575E+02  0.50131970758E+03  0.80849884907E+02 0.  0.
        -15    1    3    3    0    0  0.61375284001E+03 -0.36709318950E+01 -0.22668484368E+03  0.65428743127E+03  0.00000000000E+00 0.  1.
        -15    1    4    4    0    0 -0.14526260164E+04 -0.64437158192E+03  0.51333403725E+03  0.16699847044E+04  0.00000000000E+00 0.  1.
         15    1    1    2    0    0 -0.11126323914E+03  0.46076910024E+03  0.70166010552E+03  0.84676713198E+03  0.00000000000E+00 0. -1.
         15    1    5    5    0    0  0.37996824914E+01  0.14346033037E+02 -0.14007220633E+02  0.20407069383E+02  0.00000000000E+00 0. -1.
        -16    1    5    5    0    0  0.37037198685E+03  0.30114863197E+03 -0.58404266942E+02  0.48091263820E+03  0.00000000000E+00 0.  1.
         16    1    3    3    0    0  0.66688015017E+03 -0.88031903201E+02 -0.26837424620E+03  0.72422612953E+03  0.00000000000E+00 0. -1.
    9900018    1    1    2    0    0 -0.90915403973E+02 -0.40189348234E+02  0.68090716420E+02  0.15110366788E+03  0.91187600000E+02 0.  0.
<mgrwt>
<rscale>  0 0.23843804E+04</rscale>
<asrwt>0</asrwt>
<pdfrwt beam="1">  1        2 0.40486946E+00 0.29288123E+04</pdfrwt>
<pdfrwt beam="2">  1       -2 0.29477496E+00 0.29288123E+04</pdfrwt>
<totfact> 0.82027645E-02</totfact>
</mgrwt>
</event>
<event>
12    1  0.3280109E-009  0.4106188E+04  0.7818608E-02  0.7983461E-01
          1   -1    0    0  501    0  0.00000000000E+00  0.00000000000E+00  0.29040156165E+04  0.29040156165E+04  0.00000000000E+00 0. -1.
         -1   -1    0    0    0  501 -0.00000000000E+00 -0.00000000000E+00 -0.14515056210E+04  0.14515056210E+04  0.00000000000E+00 0.  1.
        -24    2    1    2    0    0 -0.68143168774E+03 -0.74392942735E+03  0.55602081466E+03  0.11545912167E+04  0.78368318574E+02 0.  0.
    9900016    2    1    2    0    0 -0.13885891117E+03  0.68020803256E+03  0.80321288280E+02  0.19373068648E+04  0.18068596000E+04 0.  0.
         24    2    4    4    0    0  0.18826111144E+03  0.11062285542E+04 -0.42238199202E+03  0.12016360266E+04  0.79616160408E+02 0.  0.
        -15    1    1    2    0    0  0.83577586107E+03  0.22559016198E+02  0.80692525056E+03  0.11619632348E+04  0.00000000000E+00 0.  1.
        -15    1    5    5    0    0  0.79795738600E+02  0.35418403469E+03 -0.10277784250E+03  0.37732873630E+03  0.00000000000E+00 0.  1.
         15    1    3    3    0    0 -0.15261647581E+03 -0.13000127519E+03  0.88886439762E+02  0.21930097905E+03  0.00000000000E+00 0. -1.
         15    1    4    4    0    0 -0.32712002261E+03 -0.42602052166E+03  0.50270328030E+03  0.73567083815E+03  0.00000000000E+00 0. -1.
        -16    1    3    3    0    0 -0.52881521194E+03 -0.61392815217E+03  0.46713437490E+03  0.93529023763E+03  0.00000000000E+00 0.  1.
         16    1    5    5    0    0  0.10846537284E+03  0.75204451953E+03 -0.31960414952E+03  0.82430729031E+03  0.00000000000E+00 0. -1.
    9900018    1    1    2    0    0 -0.15485262153E+02  0.41162378591E+02  0.92426419496E+01  0.10165992120E+03  0.91187600000E+02 0.  0.
<mgrwt>
<rscale>  0 0.41061880E+04</rscale>
<asrwt>0</asrwt>
<pdfrwt beam="1">  1        1 0.44677163E+00 0.41061880E+04</pdfrwt>
<pdfrwt beam="2">  1       -1 0.22330856E+00 0.41061880E+04</pdfrwt>
<totfact> 0.56927905E-02</totfact>
</mgrwt>
</event>
