<event>
11    1  0.2166677E-013  0.2709129E+04  0.7818608E-02  0.8332049E-01
          2   -1    0    0  501    0  0.00000000000E+00  0.00000000000E+00  0.29546601348E+04  0.29546601348E+04  0.00000000000E+00 0. -1.
         -2   -1    0    0    0  501 -0.00000000000E+00 -0.00000000000E+00 -0.62100019229E+03  0.62100019229E+03  0.00000000000E+00 0.  1.
    9900016    2    1    2    0    0  0.16492146959E+03 -0.27675513540E+03  0.97959370186E+03  0.12942831250E+04  0.78215886554E+03 0.  0.
         23    2    3    3    0    0  0.27481780341E+03 -0.14417418574E+02  0.62504736145E+03  0.68690992643E+03  0.73677377367E+02 0.  0.
        -15    1    4    4    0    0  0.20406611192E+03 -0.42399124547E+02  0.44181435134E+03  0.48850853098E+03  0.00000000000E+00 0.  1.
        -15    1    3    3    0    0  0.94217830293E+02 -0.86797600817E+02  0.63757749541E+02  0.14309393306E+03  0.00000000000E+00 0.  1.
         15    1    3    3    0    0 -0.10113475017E+03  0.22097126175E+02  0.19689489599E+03  0.22245026577E+03  0.00000000000E+00 0. -1.
         15    1    4    4    0    0  0.70751691492E+02  0.27981705973E+02  0.18323301012E+03  0.19840139544E+03  0.00000000000E+00 0. -1.
        -16    1    1    2    0    0 -0.42303668498E+03 -0.36701396493E+02 -0.33558776432E+03  0.54122654859E+03  0.00000000000E+00 0.  1.
         16    1    3    3    0    0 -0.10297941395E+03 -0.19763724219E+03  0.93893694876E+02  0.24182899978E+03  0.00000000000E+00 0. -1.
    9900018    1    1    2    0    0  0.25811521539E+03  0.31345653189E+03  0.16896540050E+04  0.17401506534E+04  0.91187600000E+02 0.  0.
<mgrwt>
<rscale>  0 0.27091287E+04</rscale>
<asrwt>0</asrwt>
<pdfrwt beam="1">  1        2 0.45456309E+00 0.27091287E+04</pdfrwt>
<pdfrwt beam="2">  1       -2 0.95538493E-01 0.27091287E+04</pdfrwt>
<totfact> 0.14980345E+00</totfact>
</mgrwt>
</event>
<event>
11    1  0.2166677E-013  0.1085285E+04  0.7818608E-02  0.9219653E-01
          1   -1    0    0  501    0  0.00000000000E+00  0.00000000000E+00  0.19433818146E+04  0.19433818146E+04  0.00000000000E+00 0. -1.
         -1   -1    0    0    0  501 -0.00000000000E+00 -0.00000000000E+00 -0.15151995695E+03  0.15151995695E+03  0.00000000000E+00 0.  1.
    9900016    2    1    2    0    0 -0.11746740832E+03  0.30007505805E+02  0.14631783689E+04  0.16962447262E+04  0.84950349575E+03 0.  0.
    9900016    2    3    3    0    0  0.96246976620E+02 -0.88187962494E+02  0.11410516634E+04  0.12766016266E+04  0.55737977826E+03 0.  0.
        -15    1    4    4    0    0  0.15794290556E+03 -0.31341982579E+02  0.43649224327E+02  0.16683385769E+03  0.00000000000E+00 0.  1.
        -15    1    3    3    0    0 -0.14456649431E+03  0.79740682428E+02  0.29109165518E+03  0.33465265490E+03  0.00000000000E+00 0.  1.
         15    1    3    3    0    0 -0.69147890630E+02  0.38454785871E+02  0.31035050337E+02  0.84990444665E+02  0.00000000000E+00 0. -1.
         15    1    4    4    0    0  0.11130286061E+02 -0.13337696692E+02  0.12136610683E+02  0.21191383620E+02  0.00000000000E+00 0. -1.
        -16    1    1    2    0    0  0.15836758875E+02  0.40641857399E+02  0.17844690396E+03  0.18370046553E+03  0.00000000000E+00 0.  1.
         16    1    4    4    0    0 -0.72826214998E+02 -0.43508283223E+02  0.10852658284E+04  0.10885763853E+04  0.00000000000E+00 0. -1.
    9900018    1    1    2    0    0  0.10163064945E+03 -0.70649363203E+02  0.15023658476E+03  0.21495657985E+03  0.91187600000E+02 0.  0.
<mgrwt>
<rscale>  0 0.10852855E+04</rscale>
<asrwt>0</asrwt>
<pdfrwt beam="1">  1        1 0.29898180E+00 0.10852855E+04</pdfrwt>
<pdfrwt beam="2">  1       -1 0.23310764E-01 0.10852855E+04</pdfrwt>
<totfact> 0.51404598E+01</totfact>
</mgrwt>
</event>
<event>
11    1  0.2166677E-013  0.2355276E+04  0.7818608E-02  0.8456440E-01
         -1   -1    0    0    0  501 -0.00000000000E+00  0.00000000000E+00  0.74693653489E+03  0.74693653489E+03  0.00000000000E+00 0.  1.
          1   -1    0    0  501    0  0.00000000000E+00 -0.00000000000E+00 -0.18566923390E+04  0.18566923390E+04  0.00000000000E+00 0. -1.
    9900016    2    1    2    0    0 -0.58782450467E+03 -0.53059409296E+02 -0.30536389480E+03  0.10257781802E+04  0.78142230420E+03 0.  0.
         23    2    3    3    0    0 -0.10962551354E+03 -0.16453415291E+01  0.67751957028E+02  0.14597902687E+03  0.68549895964E+02 0.  0.
        -15    1    4    4    0    0 -0.32464431505E+02  0.30880126889E+02  0.31284936549E+02  0.54646763898E+02  0.00000000000E+00 0. -1.
        -15    1    3    3    0    0 -0.14556255456E+03 -0.22140386770E+02 -0.10233199002E+03  0.17930557771E+03  0.00000000000E+00 0. -1.
         15    1    3    3    0    0  0.34488782921E+02 -0.20248245967E+03 -0.20328378502E+03  0.28898602020E+03  0.00000000000E+00 0.  1.
         15    1    4    4    0    0 -0.77161082036E+02 -0.32525468418E+02  0.36467020479E+02  0.91332262971E+02  0.00000000000E+00 0.  1.
        -16    1    3    3    0    0 -0.36712521949E+03  0.17320877867E+03 -0.67500076789E+02  0.41150755541E+03  0.00000000000E+00 0.  1.
         16    1    1    2    0    0  0.92936021234E+03 -0.31821842860E+02 -0.77958825436E+03  0.12134582318E+04  0.00000000000E+00 0. -1.
    9900018    1    1    2    0    0 -0.34153570767E+03  0.84881252156E+02 -0.24803654932E+02  0.36439246188E+03  0.91187600000E+02 0.  0.
<mgrwt>
<rscale>  0 0.23552761E+04</rscale>
<asrwt>0</asrwt>
<pdfrwt beam="1">  1        1 0.28564497E+00 0.23552761E+04</pdfrwt>
<pdfrwt beam="2">  1       -1 0.11491331E+00 0.23552761E+04</pdfrwt>
<totfact> 0.23059403E+00</totfact>
</mgrwt>
</event>
