<event>
11    1  0.1129771E-013  0.3381648E+04  0.7818608E-02  0.8398491E-01
          2   -1    0    0  501    0  0.00000000000E+00  0.00000000000E+00  0.23022316674E+04  0.23022316674E+04  0.00000000000E+00 0. -1.
         -2   -1    0    0    0  501 -0.00000000000E+00 -0.00000000000E+00 -0.21678004777E+04  0.21678004777E+04  0.00000000000E+00 0.  1.
    9900016    2    1    2    0    0  0.34764081438E+03  0.48298987645E+03  0.18788663197E+03  0.21651602575E+04  0.20732786107E+04 0.  0.
        -24    2    3    3    0    0 -0.57122017859E+02  0.31696643270E+03  0.10670172758E+04  0.11172349483E+04  0.77184315055E+02 0.  0.
        -15    1    3    3    0    0  0.38900316207E+03  0.10830540661E+03 -0.84006795686E+03  0.93207708552E+03  0.00000000000E+00 0.  1.
        -15    1    1    2    0    0 -0.24942794488E+03  0.53498482688E+03 -0.41777155807E+03  0.72315706413E+03  0.00000000000E+00 0.  1.
         15    1    1    2    0    0  0.26847208302E+03  0.14742410953E+03  0.15107987968E+03  0.34152050813E+03  0.00000000000E+00 0. -1.
         15    1    4    4    0    0 -0.11201925649E+02  0.20444996339E+03  0.57284617629E+03  0.60834037541E+03  0.00000000000E+00 0. -1.
        -16    1    4    4    0    0 -0.45920092210E+02  0.11251646931E+03  0.49417109950E+03  0.50889457289E+03  0.00000000000E+00 0.  1.
         16    1    1    2    0    0 -0.36668495252E+03 -0.11653988129E+04  0.21323623608E+03  0.12401943153E+04  0.00000000000E+00 0. -1.
    9900018    1    3    3    0    0  0.15759670172E+02  0.57718037139E+02 -0.39062686957E+02  0.11584822364E+03  0.91187600000E+02 0.  0.
<mgrwt>
<rscale>  0 0.25126556E+04</rscale>
<asrwt>0</asrwt>
<pdfrwt beam="1">  1        2 0.35418949E+00 0.33816476E+04</pdfrwt>
<pdfrwt beam="2">  1       -2 0.33350777E+00 0.33816476E+04</pdfrwt>
<totfact> 0.71436450E-02</totfact>
</mgrwt>
</event>
<event>
11    1  0.1129771E-013  0.2549294E+04  0.7818608E-02  0.8642072E-01
          1   -1    0    0  501    0  0.00000000000E+00  0.00000000000E+00  0.19589749417E+04  0.19589749417E+04  0.00000000000E+00 0. -1.
         -1   -1    0    0    0  501 -0.00000000000E+00 -0.00000000000E+00 -0.15075527820E+04  0.15075527820E+04  0.00000000000E+00 0.  1.
    9900016    2    1    2    0    0 -0.54539164741E+03 -0.10558602722E+03  0.51053421532E+03  0.22039720958E+04  0.20708083822E+04 0.  0.
        -24    2    3    3    0    0 -0.37134272150E+03  0.56311861533E+03  0.10265643897E+04  0.12311706169E+04  0.83358561831E+02 0.  0.
        -15    1    1    2    0    0  0.55490308108E+03  0.48503054021E+03 -0.71267515873E+02  0.74043981062E+03  0.00000000000E+00 0.  1.
        -15    1    3    3    0    0 -0.18813961628E+03 -0.62978332515E+03 -0.55993893085E+03  0.86345535967E+03  0.00000000000E+00 0.  1.
         15    1    4    4    0    0 -0.12593221198E+03  0.26443956024E+03  0.42765401307E+03  0.51833884470E+03  0.00000000000E+00 0. -1.
         15    1    1    2    0    0  0.54746269909E+02  0.20689327289E+02 -0.87045025129E+02  0.10489060364E+03  0.00000000000E+00 0. -1.
        -16    1    4    4    0    0 -0.24541050952E+03  0.29867905508E+03  0.59891037666E+03  0.71283177216E+03  0.00000000000E+00 0.  1.
         16    1    1    2    0    0 -0.64257703578E+02 -0.40013384027E+03  0.99200485337E+02  0.41722521363E+03  0.00000000000E+00 0. -1.
    9900018    1    3    3    0    0  0.14090690362E+02 -0.38921317399E+02  0.43908756441E+02  0.10934611922E+03  0.91187600000E+02 0.  0.
<mgrwt>
<rscale>  0 0.19258982E+04</rscale>
<asrwt>0</asrwt>
<pdfrwt beam="1">  1        1 0.30138076E+00 0.25492938E+04</pdfrwt>
<pdfrwt beam="2">  1       -1 0.23193120E+00 0.25492938E+04</pdfrwt>
<totfact> 0.25101561E-01</totfact>
</mgrwt>
</event>
<event>
11    1  0.1129771E-013  0.3577460E+04  0.7818608E-02  0.8275594E-01
         -1   -1    0    0    0  501 -0.00000000000E+00  0.00000000000E+00  0.26959067940E+04  0.26959067940E+04  0.00000000000E+00 0.  1.
          1   -1    0    0  501    0  0.00000000000E+00 -0.00000000000E+00 -0.26789561514E+04  0.26789561514E+04  0.00000000000E+00 0. -1.
    9900016    2    1    2    0    0  0.14664102341E+03 -0.32157710245E+03  0.58979901026E+03  0.20837015228E+04  0.19669859534E+04 0.  0.
        -24    2    3    3    0    0 -0.32153675499E+03  0.70850539267E+03 -0.49943692494E+02  0.78388187967E+03  0.81305919868E+02 0.  0.
        -15    1    1    2    0    0  0.16276443373E+03  0.31262867317E+03  0.11853398447E+04  0.12366323203E+04  0.00000000000E+00 0.  1.
        -15    1    3    3    0    0  0.46817777840E+03 -0.10300824951E+04  0.63974270276E+03  0.12998196431E+04  0.00000000000E+00 0.  1.
         15    1    1    2    0    0 -0.25989466187E+03 -0.46135274178E+02 -0.39990135477E+03  0.47916050790E+03  0.00000000000E+00 0. -1.
         15    1    4    4    0    0 -0.94192580736E+02  0.22922265619E+03 -0.52902353437E+02  0.25340467118E+03  0.00000000000E+00 0. -1.
        -16    1    4    4    0    0 -0.22734417425E+03  0.47928273648E+03  0.29586609423E+01  0.53047720849E+03  0.00000000000E+00 0.  1.
         16    1    1    2    0    0 -0.10953445139E+03  0.12106664852E+03 -0.14229976160E+04  0.14323327632E+04  0.00000000000E+00 0. -1.
    9900018    1    1    2    0    0  0.60023656119E+02 -0.65982945067E+02  0.64710758338E+02  0.14303583108E+03  0.91187600000E+02 0.  0.
<mgrwt>
<rscale>  0 0.28908887E+04</rscale>
<asrwt>0</asrwt>
<pdfrwt beam="1">  1        1 0.41214710E+00 0.35774601E+04</pdfrwt>
<pdfrwt beam="2">  1       -1 0.41475489E+00 0.35774601E+04</pdfrwt>
<totfact> 0.44252073E-03</totfact>
</mgrwt>
</event>
<event>
11    1  0.1129771E-013  0.3873492E+04  0.7818608E-02  0.8358217E-01
         -2   -1    0    0    0  501 -0.00000000000E+00  0.00000000000E+00  0.16783257928E+04  0.16783257928E+04  0.00000000000E+00 0.  1.
          2   -1    0    0  501    0  0.00000000000E+00 -0.00000000000E+00 -0.33224435183E+04  0.33224435183E+04  0.00000000000E+00 0. -1.
    9900016    2    1    2    0    0  0.18322300011E+03 -0.30681575373E+02 -0.19653669006E+04  0.27896098395E+04  0.19709753869E+04 0.  0.
         24    2    3    3    0    0  0.76437514271E+03  0.64401974241E+03 -0.62665332162E+03  0.11817809532E+04  0.69864500635E+02 0.  0.
        -15    1    1    2    0    0  0.26783047719E+03  0.41150222842E+02 -0.19850979877E+02  0.27169940514E+03  0.00000000000E+00 0.  1.
        -15    1    4    4    0    0  0.55721196006E+03  0.50541478161E+03 -0.48530046096E+03  0.89523505702E+03  0.00000000000E+00 0.  1.
         15    1    3    3    0    0 -0.58115214260E+03 -0.67470131778E+03 -0.13387135790E+04  0.16078288863E+04  0.00000000000E+00 0. -1.
         15    1    1    2    0    0 -0.39459499697E+03  0.30365447207E+03 -0.47632831271E+03  0.68905726288E+03  0.00000000000E+00 0. -1.
        -16    1    1    2    0    0 -0.51408599455E+02 -0.27504636678E+03  0.10022507969E+04  0.10405767669E+04  0.00000000000E+00 0.  1.
         16    1    4    4    0    0  0.20716318265E+03  0.13860496079E+03 -0.14135286066E+03  0.28654589618E+03  0.00000000000E+00 0. -1.
    9900018    1    1    2    0    0 -0.50498808737E+01 -0.39076752756E+02 -0.18482232917E+03  0.20982603665E+03  0.91187600000E+02 0.  0.
<mgrwt>
<rscale>  0 0.26295977E+04</rscale>
<asrwt>0</asrwt>
<pdfrwt beam="1">  1        2 0.51114515E+00 0.38734919E+04</pdfrwt>
<pdfrwt beam="2">  1       -2 0.25820397E+00 0.38734919E+04</pdfrwt>
<totfact> 0.47624922E-02</totfact>
</mgrwt>
</event>
<event>
11    1  0.1129771E-013  0.3190733E+04  0.7818608E-02  0.8269542E-01
          1   -1    0    0  501    0  0.00000000000E+00  0.00000000000E+00  0.26549695934E+04  0.26549695934E+04  0.00000000000E+00 0. -1.
         -1   -1    0    0    0  501 -0.00000000000E+00 -0.00000000000E+00 -0.35109522718E+04  0.35109522718E+04  0.00000000000E+00 0.  1.
    9900016    2    1    2    0    0 -0.26624437062E+03 -0.95032685086E+03 -0.16655867690E+04  0.27669500280E+04  0.19768221933E+04 0.  0.
         24    2    3    3    0    0  0.36649191935E+02 -0.99523276754E+03 -0.20469695212E+04  0.22778550931E+04  0.81903478958E+02 0.  0.
        -15    1    4    4    0    0  0.26186886865E+02 -0.20527367304E+03 -0.49041176028E+03  0.53228444323E+03  0.00000000000E+00 0.  1.
        -15    1    1    2    0    0 -0.33963412144E+02 -0.79596974767E+03 -0.15385176911E+03  0.81141340846E+03  0.00000000000E+00 0.  1.
         15    1    1    2    0    0 -0.13018842085E+03  0.17950346109E+04  0.77507317835E+03  0.19595501298E+04  0.00000000000E+00 0. -1.
         15    1    3    3    0    0 -0.30289356255E+03  0.44905916686E+02  0.38138275221E+03  0.48909493483E+03  0.00000000000E+00 0. -1.
        -16    1    1    2    0    0  0.40334588928E+03  0.16735520624E+01  0.27639253388E+03  0.48896169580E+03  0.00000000000E+00 0.  1.
         16    1    4    4    0    0  0.10462305070E+02 -0.78995909450E+03 -0.15565577609E+04  0.17455706499E+04  0.00000000000E+00 0. -1.
    9900018    1    1    2    0    0  0.27050314331E+02 -0.50411564426E+02 -0.88009852598E+02  0.13904660327E+03  0.91187600000E+02 0.  0.
<mgrwt>
<rscale>  0 0.29112357E+04</rscale>
<asrwt>0</asrwt>
<pdfrwt beam="1">  1        1 0.40845686E+00 0.31907332E+04</pdfrwt>
<pdfrwt beam="2">  1       -1 0.54014650E+00 0.31907332E+04</pdfrwt>
<totfact> 0.69727195E-04</totfact>
</mgrwt>
</event>
