<event>
12    1  0.8198259E-013  0.1486850E+04  0.7818608E-02  0.9422488E-01
          3   -1    0    0  501    0  0.00000000000E+00  0.00000000000E+00  0.90516597194E+03  0.90516597194E+03  0.00000000000E+00 0. -1.
         -3   -1    0    0    0  501 -0.00000000000E+00 -0.00000000000E+00 -0.78850501305E+03  0.78850501305E+03  0.00000000000E+00 0.  1.
         23    2    1    2    0    0  0.16748048341E+03  0.64322954907E+01  0.32777771067E+02  0.20445624395E+03  0.11241390780E+03 0.  0.
    9900016    2    1    2    0    0  0.31537319571E+03 -0.49543344503E+02  0.44064826442E+03  0.88731146156E+03  0.70088225924E+03 0.  0.
         23    2    4    4    0    0  0.30093339781E+03 -0.10427254453E+03 -0.85220558529E+02  0.33738651843E+03  0.71648068793E+02 0.  0.
        -15    1    3    3    0    0  0.14044248551E+03  0.26034145983E+02  0.66003221187E+02  0.15734768413E+03  0.00000000000E+00 0.  1.
        -15    1    5    5    0    0  0.24742702943E+03 -0.94081996666E+02 -0.96520936312E+02  0.28175849257E+03  0.00000000000E+00 0.  1.
         15    1    5    5    0    0  0.53506368377E+02 -0.10190547868E+02  0.11300377783E+02  0.55628025857E+02  0.00000000000E+00 0. -1.
         15    1    3    3    0    0  0.27037997894E+02 -0.19601850493E+02 -0.33225450121E+02  0.47108559823E+02  0.00000000000E+00 0. -1.
        -16    1    1    2    0    0 -0.48285367911E+03  0.43111049013E+02 -0.35676507659E+03  0.60190327948E+03  0.00000000000E+00 0.  1.
         16    1    4    4    0    0  0.39717446897E+02  0.43346749114E+02  0.12888847662E+03  0.14166388267E+03  0.00000000000E+00 0. -1.
    9900018    1    4    4    0    0 -0.25277648997E+02  0.11382450917E+02  0.39698034633E+03  0.40826106046E+03  0.91187600000E+02 0.  0.
<mgrwt>
<rscale>  0 0.90247890E+03</rscale>
<asrwt>0</asrwt>
<pdfrwt beam="1">  1        3 0.13925630E+00 0.14868504E+04</pdfrwt>
<pdfrwt beam="2">  1       -3 0.12130846E+00 0.14868504E+04</pdfrwt>
<totfact> 0.54064319E-01</totfact>
</mgrwt>
</event>
<event>
11    1  0.8198259E-013  0.2100148E+04  0.7818608E-02  0.9166990E-01
         -2   -1    0    0    0  501 -0.00000000000E+00  0.00000000000E+00  0.53860265635E+03  0.53860265635E+03  0.00000000000E+00 0.  1.
          2   -1    0    0  501    0  0.00000000000E+00 -0.00000000000E+00 -0.25752534400E+04  0.25752534400E+04  0.00000000000E+00 0. -1.
         23    2    1    2    0    0 -0.16442314853E+03 -0.15781909359E+02  0.82975229014E+01  0.18257063616E+03  0.77324949827E+02 0.  0.
    9900016    2    1    2    0    0 -0.80728545783E+03  0.16292519928E+03 -0.11567952232E+04  0.16066403519E+04  0.75157408212E+03 0.  0.
        -15    1    3    3    0    0 -0.83099727363E+02 -0.32290057597E+02 -0.25869035707E+02  0.92830057179E+02  0.00000000000E+00 0.  1.
        -15    1    4    4    0    0 -0.11111964286E+03  0.13596578688E+03 -0.24644049314E+02  0.17731779211E+03  0.00000000000E+00 0. -1.
         15    1    4    4    0    0  0.20863830612E+01 -0.28018407585E+02  0.31457044490E+02  0.42177361297E+02  0.00000000000E+00 0. -1.
         15    1    3    3    0    0 -0.81323421171E+02  0.16508148239E+02  0.34166558608E+02  0.89740578984E+02  0.00000000000E+00 0.  1.
        -16    1    1    2    0    0  0.97170860636E+03 -0.14714328992E+03 -0.88815308337E+03  0.13246451083E+04  0.00000000000E+00 0.  1.
         16    1    4    4    0    0 -0.37791032139E+03 -0.43753107920E+01 -0.83008160331E+03  0.91206952723E+03  0.00000000000E+00 0. -1.
    9900018    1    4    4    0    0 -0.32034187664E+03  0.59353130783E+02 -0.33352661505E+03  0.47507567124E+03  0.91187600000E+02 0.  0.
<mgrwt>
<rscale>  0 0.11400736E+04</rscale>
<asrwt>0</asrwt>
<pdfrwt beam="1">  1        2 0.39619284E+00 0.21001478E+04</pdfrwt>
<pdfrwt beam="2">  1       -2 0.82861947E-01 0.21001478E+04</pdfrwt>
<totfact> 0.36803867E+00</totfact>
</mgrwt>
</event>
<event>
11    1  0.8198259E-013  0.1261917E+04  0.7818608E-02  0.9419440E-01
         -2   -1    0    0    0  501 -0.00000000000E+00  0.00000000000E+00  0.12549596008E+04  0.12549596008E+04  0.00000000000E+00 0.  1.
          2   -1    0    0  501    0  0.00000000000E+00 -0.00000000000E+00 -0.55720416917E+03  0.55720416917E+03  0.00000000000E+00 0. -1.
    9900016    2    1    2    0    0 -0.17937213797E+03 -0.52593684181E+02 -0.45639104322E+01  0.72098177331E+03  0.69631417382E+03 0.  0.
         23    2    3    3    0    0 -0.27410630372E+03 -0.53141897062E+02  0.67696225170E+02  0.29745363387E+03  0.77055554240E+02 0.  0.
        -15    1    1    2    0    0 -0.86115504317E+02  0.48524054365E+02  0.71612341721E+02  0.12206060553E+03  0.00000000000E+00 0. -1.
        -15    1    4    4    0    0 -0.95212960057E+02 -0.41524736829E+01 -0.11065729369E+02  0.95943739593E+02  0.00000000000E+00 0. -1.
         15    1    1    2    0    0 -0.21398344231E+03 -0.76803755022E+02  0.31834248575E+03  0.39119006711E+03  0.00000000000E+00 0.  1.
         15    1    4    4    0    0 -0.17889334367E+03 -0.48989423379E+02  0.78761954539E+02  0.20150989428E+03  0.00000000000E+00 0.  1.
        -16    1    1    2    0    0  0.47947108459E+03  0.80873384837E+02  0.31236451462E+03  0.57793132406E+03  0.00000000000E+00 0.  1.
         16    1    3    3    0    0  0.12979586373E+03 -0.59624829554E+02  0.12860502314E+03  0.19220129687E+03  0.00000000000E+00 0. -1.
    9900018    1    3    3    0    0 -0.35061697973E+02  0.60173042435E+02 -0.20086515874E+03  0.23132684257E+03  0.91187600000E+02 0.  0.
<mgrwt>
<rscale>  0 0.90492986E+03</rscale>
<asrwt>0</asrwt>
<pdfrwt beam="1">  1        2 0.85723718E-01 0.12619168E+04</pdfrwt>
<pdfrwt beam="2">  1       -2 0.19307071E+00 0.12619168E+04</pdfrwt>
<totfact> 0.78148943E+00</totfact>
</mgrwt>
</event>
<event>
12    1  0.8198259E-013  0.1639766E+04  0.7818608E-02  0.9472714E-01
         -3   -1    0    0    0  501 -0.00000000000E+00  0.00000000000E+00  0.22545215701E+04  0.22545215701E+04  0.00000000000E+00 0.  1.
          3   -1    0    0  501    0  0.00000000000E+00 -0.00000000000E+00 -0.37463517309E+03  0.37463517309E+03  0.00000000000E+00 0. -1.
         23    2    1    2    0    0 -0.12549903500E+01  0.10301202351E+03 -0.10841919295E+02  0.12642080076E+03  0.72468059596E+02 0.  0.
    9900016    2    1    2    0    0  0.90592008435E+02  0.56731666833E+02  0.12049820408E+03  0.72306917598E+03  0.70489986669E+03 0.  0.
         23    2    4    4    0    0 -0.18647385693E+03  0.21688580324E+03  0.13378692854E+03  0.32097447093E+03  0.57564900582E+02 0.  0.
        -15    1    3    3    0    0 -0.32255481534E+02  0.62971144288E+02 -0.22901425919E+02  0.74365693778E+02  0.00000000000E+00 0.  1.
        -15    1    5    5    0    0 -0.92253123489E+02  0.11988199956E+03  0.40203699930E+02  0.15652051016E+03  0.00000000000E+00 0.  1.
         15    1    5    5    0    0 -0.94220733437E+02  0.97003803681E+02  0.93583228609E+02  0.16445396078E+03  0.00000000000E+00 0. -1.
         15    1    3    3    0    0  0.31000491184E+02  0.40040879223E+02  0.12059506624E+02  0.52055106979E+02  0.00000000000E+00 0. -1.
        -16    1    1    2    0    0 -0.89337018085E+02 -0.15974369034E+03  0.17702301122E+04  0.17796667664E+04  0.00000000000E+00 0.  1.
         16    1    4    4    0    0  0.22003606783E+03 -0.11937694453E+03  0.70171450324E+02  0.25998222722E+03  0.00000000000E+00 0. -1.
    9900018    1    4    4    0    0  0.57029797526E+02 -0.40777191884E+02 -0.83460174786E+02  0.14211247782E+03  0.91187600000E+02 0.  0.
<mgrwt>
<rscale>  0 0.86325750E+03</rscale>
<asrwt>0</asrwt>
<pdfrwt beam="1">  1        3 0.57636182E-01 0.16397663E+04</pdfrwt>
<pdfrwt beam="2">  1       -3 0.34684946E+00 0.16397663E+04</pdfrwt>
<totfact> 0.15365574E-01</totfact>
</mgrwt>
</event>
<event>
12    1  0.8198259E-013  0.2132764E+04  0.7818608E-02  0.8546946E-01
         -1   -1    0    0    0  501 -0.00000000000E+00  0.00000000000E+00  0.17335221686E+04  0.17335221686E+04  0.00000000000E+00 0.  1.
          1   -1    0    0  501    0  0.00000000000E+00 -0.00000000000E+00 -0.65598838925E+03  0.65598838925E+03  0.00000000000E+00 0. -1.
         23    2    1    2    0    0  0.54064487450E+03 -0.24769646069E+03  0.12160450791E+04  0.13553230025E+04  0.66965585624E+02 0.  0.
    9900016    2    1    2    0    0 -0.54858717444E+03  0.27183059020E+03 -0.20603359338E+03  0.96204328000E+03  0.71290789956E+03 0.  0.
         23    2    4    4    0    0 -0.30364764256E+03 -0.17238851863E+02  0.39197257330E+01  0.32244218781E+03  0.10702584445E+03 0.  0.
        -15    1    5    5    0    0 -0.14130463854E+03 -0.40322297274E+02 -0.40749920479E+02  0.15249080152E+03  0.00000000000E+00 0.  1.
        -15    1    3    3    0    0  0.41120707598E+02 -0.30185348884E+02  0.14418153365E+03  0.15293914648E+03  0.00000000000E+00 0.  1.
         15    1    3    3    0    0  0.49952416690E+03 -0.21751111181E+03  0.10718635455E+04  0.12023838560E+04  0.00000000000E+00 0. -1.
         15    1    5    5    0    0 -0.16234300403E+03  0.23083445412E+02  0.44669646212E+02  0.16995138629E+03  0.00000000000E+00 0. -1.
        -16    1    1    2    0    0  0.79422999423E+01 -0.24134129512E+02  0.67522293610E+02  0.72144275380E+02  0.00000000000E+00 0.  1.
         16    1    4    4    0    0  0.11458167258E+03  0.13197088906E+03  0.19783502865E+02  0.17588820949E+03  0.00000000000E+00 0. -1.
    9900018    1    4    4    0    0 -0.35952120446E+03  0.15709855300E+03 -0.22973682197E+03  0.46371288270E+03  0.91187600000E+02 0.  0.
<mgrwt>
<rscale>  0 0.21327639E+04</rscale>
<asrwt>0</asrwt>
<pdfrwt beam="1">  1        1 0.10092129E+00 0.21327639E+04</pdfrwt>
<pdfrwt beam="2">  1       -1 0.26669572E+00 0.21327639E+04</pdfrwt>
<totfact> 0.14957843E+00</totfact>
</mgrwt>
</event>
<event>
12    1  0.8198259E-013  0.1492334E+04  0.7818608E-02  0.9326200E-01
         -2   -1    0    0    0  501 -0.00000000000E+00  0.00000000000E+00  0.32956589607E+03  0.32956589607E+03  0.00000000000E+00 0.  1.
          2   -1    0    0  501    0  0.00000000000E+00 -0.00000000000E+00 -0.23887795361E+04  0.23887795361E+04  0.00000000000E+00 0. -1.
         23    2    1    2    0    0  0.67481090933E+02 -0.26262154254E+03 -0.33579021732E+03  0.43859794840E+03  0.78034082647E+02 0.  0.
    9900016    2    1    2    0    0 -0.29580892262E+03 -0.11030155819E+03 -0.16658404962E+04  0.18387020992E+04  0.71142919429E+03 0.  0.
         23    2    4    4    0    0 -0.27688928789E+03  0.17897995028E+03 -0.10312782007E+04  0.10843714390E+04  0.60209551550E+02 0.  0.
        -15    1    3    3    0    0  0.23332782693E+02 -0.70899963528E+02 -0.15213853878E+03  0.16946196788E+03  0.00000000000E+00 0. -1.
        -15    1    5    5    0    0 -0.23388981399E+02  0.19746047779E+02 -0.51814060802E+02  0.60180127538E+02  0.00000000000E+00 0.  1.
         15    1    3    3    0    0  0.44148308240E+02 -0.19172157901E+03 -0.18365167854E+03  0.26913598052E+03  0.00000000000E+00 0.  1.
         15    1    5    5    0    0 -0.25350030649E+03  0.15923390250E+03 -0.97946413991E+03  0.10241913115E+04  0.00000000000E+00 0. -1.
        -16    1    1    2    0    0  0.22832783169E+03  0.37292310073E+03 -0.57582926499E+02  0.44104538452E+03  0.00000000000E+00 0.  1.
         16    1    4    4    0    0 -0.99737865758E+02 -0.24873059558E+03 -0.33940268717E+03  0.43244506599E+03  0.00000000000E+00 0. -1.
    9900018    1    4    4    0    0  0.80818231026E+02 -0.40550912885E+02 -0.29515960833E+03  0.32188559425E+03  0.91187600000E+02 0.  0.
<mgrwt>
<rscale>  0 0.98406220E+03</rscale>
<asrwt>0</asrwt>
<pdfrwt beam="1">  1        2 0.36750455E+00 0.14923338E+04</pdfrwt>
<pdfrwt beam="2">  1       -2 0.50702445E-01 0.14923338E+04</pdfrwt>
<totfact> 0.14323907E+01</totfact>
</mgrwt>
</event>
<event>
12    1  0.8198259E-013  0.2568468E+04  0.7818608E-02  0.8915626E-01
         -1   -1    0    0    0  501 -0.00000000000E+00  0.00000000000E+00  0.11189258709E+04  0.11189258709E+04  0.00000000000E+00 0.  1.
          1   -1    0    0  501    0  0.00000000000E+00 -0.00000000000E+00 -0.18170275524E+04  0.18170275524E+04  0.00000000000E+00 0. -1.
         23    2    1    2    0    0  0.23963782653E+03  0.29902360711E+02  0.32043847634E+02  0.26572155001E+03  0.10611642137E+03 0.  0.
    9900016    2    1    2    0    0 -0.63449455626E+02  0.28589342124E+03 -0.15731223656E+04  0.17529645922E+04  0.71582819355E+03 0.  0.
         23    2    4    4    0    0  0.44300437462E+02 -0.98936985121E+02 -0.24130956029E+02  0.13283458402E+03  0.72881190224E+02 0.  0.
        -15    1    3    3    0    0  0.16778671186E+03 -0.24737861991E+02  0.42518028219E+02  0.17484886393E+03  0.00000000000E+00 0.  1.
        -15    1    5    5    0    0  0.45949125665E+02 -0.46046326974E+02  0.15320438821E+02  0.66830398943E+02  0.00000000000E+00 0. -1.
         15    1    3    3    0    0  0.71851114673E+02  0.54640222701E+02 -0.10474180585E+02  0.90872686081E+02  0.00000000000E+00 0. -1.
         15    1    5    5    0    0 -0.16486882023E+01 -0.52890658147E+02 -0.39451394850E+02  0.66004185077E+02  0.00000000000E+00 0.  1.
        -16    1    1    2    0    0 -0.17618837091E+03 -0.31579578195E+03  0.84297683647E+03  0.91726728099E+03  0.00000000000E+00 0.  1.
         16    1    4    4    0    0 -0.10005438465E+03  0.90074594249E+02 -0.23935775170E+03  0.27462054860E+03  0.00000000000E+00 0. -1.
    9900018    1    4    4    0    0 -0.76955084400E+01  0.29475581211E+03 -0.13096336579E+04  0.13455094596E+04  0.91187600000E+02 0.  0.
<mgrwt>
<rscale>  0 0.14540087E+04</rscale>
<asrwt>0</asrwt>
<pdfrwt beam="1">  1        1 0.27954270E+00 0.25684676E+04</pdfrwt>
<pdfrwt beam="2">  1       -1 0.17214244E+00 0.25684676E+04</pdfrwt>
<totfact> 0.82386013E-01</totfact>
</mgrwt>
</event>
<event>
12    1  0.8198259E-013  0.1620258E+04  0.7818608E-02  0.9228186E-01
          2   -1    0    0  501    0  0.00000000000E+00  0.00000000000E+00  0.71786570905E+03  0.71786570905E+03  0.00000000000E+00 0. -1.
         -2   -1    0    0    0  501 -0.00000000000E+00 -0.00000000000E+00 -0.13192029533E+04  0.13192029533E+04  0.00000000000E+00 0.  1.
         23    2    1    2    0    0 -0.83903381870E+02  0.29649093650E+03 -0.23473320024E+02  0.31684717087E+03  0.69960560472E+02 0.  0.
    9900016    2    1    2    0    0 -0.39883439061E+03 -0.46673934903E+02  0.13509939395E+03  0.82369431156E+03  0.70638031209E+03 0.  0.
         23    2    4    4    0    0 -0.13843376597E+03 -0.27685735233E+03 -0.10148770574E+03  0.34485214866E+03  0.11317839423E+03 0.  0.
        -15    1    3    3    0    0 -0.86118719564E+02  0.20088091504E+03 -0.81522015527E+00  0.21856404204E+03  0.00000000000E+00 0. -1.
        -15    1    5    5    0    0 -0.11819656447E+03 -0.11255439941E+03 -0.62552336981E+02  0.17479049042E+03  0.00000000000E+00 0. -1.
         15    1    5    5    0    0 -0.20237201494E+02 -0.16430295292E+03 -0.38935368764E+02  0.17006165824E+03  0.00000000000E+00 0.  1.
         15    1    3    3    0    0  0.22153376940E+01  0.95610021457E+02 -0.22658099869E+02  0.98283128835E+02  0.00000000000E+00 0.  1.
        -16    1    1    2    0    0  0.48273777248E+03 -0.24981700160E+03 -0.71296331813E+03  0.89652717988E+03  0.00000000000E+00 0.  1.
         16    1    4    4    0    0 -0.69277734749E+02 -0.16680006776E+02  0.10737902505E+03  0.12887157242E+03  0.00000000000E+00 0. -1.
    9900018    1    4    4    0    0 -0.19112288989E+03  0.24686342420E+03  0.12920807465E+03  0.34997059048E+03  0.91187600000E+02 0.  0.
<mgrwt>
<rscale>  0 0.10767175E+04</rscale>
<asrwt>0</asrwt>
<pdfrwt beam="1">  1        2 0.11044088E+00 0.16202578E+04</pdfrwt>
<pdfrwt beam="2">  1       -2 0.20295430E+00 0.16202578E+04</pdfrwt>
<totfact> 0.47887505E+00</totfact>
</mgrwt>
</event>
<event>
12    1  0.8198259E-013  0.1174982E+04  0.7818608E-02  0.9603740E-01
          1   -1    0    0  501    0  0.00000000000E+00  0.00000000000E+00  0.50988971039E+03  0.50988971039E+03  0.00000000000E+00 0. -1.
         -1   -1    0    0    0  501 -0.00000000000E+00 -0.00000000000E+00 -0.13492348128E+04  0.13492348128E+04  0.00000000000E+00 0.  1.
         23    2    1    2    0    0 -0.82521648853E+02  0.16817051735E+03 -0.62899892272E+03  0.66546295081E+03  0.11004612075E+03 0.  0.
    9900016    2    1    2    0    0 -0.24500422446E+03  0.80771431149E+02 -0.18862470854E+03  0.78169420265E+03  0.71338310303E+03 0.  0.
         23    2    4    4    0    0 -0.19182958621E+03  0.97435515745E+02  0.79058675417E+02  0.25965736827E+03  0.12198116602E+03 0.  0.
        -15    1    3    3    0    0 -0.71020877914E+02  0.58873555087E+02 -0.41223374559E+03  0.42242954631E+03  0.00000000000E+00 0. -1.
        -15    1    5    5    0    0 -0.89673324422E+01  0.25353746053E+02  0.55528072763E+02  0.61697587917E+02  0.00000000000E+00 0. -1.
         15    1    5    5    0    0 -0.18286225377E+03  0.72081769692E+02  0.23530602654E+02  0.19795978035E+03  0.00000000000E+00 0.  1.
         15    1    3    3    0    0 -0.11500770939E+02  0.10929696226E+03 -0.21676517712E+03  0.24303340450E+03  0.00000000000E+00 0.  1.
        -16    1    1    2    0    0  0.32752587331E+03 -0.24894194850E+03 -0.21721471159E+02  0.41196736973E+03  0.00000000000E+00 0.  1.
         16    1    4    4    0    0  0.82478330957E+02 -0.16634632281E+03 -0.15523035824E+02  0.18631891699E+03  0.00000000000E+00 0. -1.
    9900018    1    4    4    0    0 -0.13565296920E+03  0.14968223821E+03 -0.25216034814E+03  0.33571791739E+03  0.91187600000E+02 0.  0.
<mgrwt>
<rscale>  0 0.77049108E+03</rscale>
<asrwt>0</asrwt>
<pdfrwt beam="1">  1        1 0.78444570E-01 0.11749819E+04</pdfrwt>
<pdfrwt beam="2">  1       -1 0.20757459E+00 0.11749819E+04</pdfrwt>
<totfact> 0.56941543E+00</totfact>
</mgrwt>
</event>
<event>
12    1  0.8198259E-013  0.1097358E+04  0.7818608E-02  0.9788865E-01
          2   -1    0    0  501    0  0.00000000000E+00  0.00000000000E+00  0.64403113079E+03  0.64403113079E+03  0.00000000000E+00 0. -1.
         -2   -1    0    0    0  501 -0.00000000000E+00 -0.00000000000E+00 -0.90251326541E+03  0.90251326541E+03  0.00000000000E+00 0.  1.
         23    2    1    2    0    0  0.32650032902E+02  0.86666992163E+02  0.28723292499E+03  0.32098362892E+03  0.10931854672E+03 0.  0.
    9900016    2    1    2    0    0 -0.28698235874E+03  0.83810646934E+02 -0.26210462735E+03  0.80820907544E+03  0.70364762145E+03 0.  0.
         23    2    4    4    0    0 -0.18448388480E+03 -0.15663714431E+03 -0.30217095443E+03  0.39486827468E+03  0.77744259747E+02 0.  0.
        -15    1    3    3    0    0 -0.34951331585E+02  0.71209253558E+01  0.46613295520E+02  0.58694995330E+02  0.00000000000E+00 0. -1.
        -15    1    5    5    0    0 -0.12600872994E+03 -0.81976491549E+02 -0.13199797919E+03  0.20005452181E+03  0.00000000000E+00 0.  1.
         15    1    3    3    0    0  0.67601364487E+02  0.79546066807E+02  0.24061962947E+03  0.26228863359E+03  0.00000000000E+00 0.  1.
         15    1    5    5    0    0 -0.58475154865E+02 -0.74660652758E+02 -0.17017297524E+03  0.19481375287E+03  0.00000000000E+00 0. -1.
        -16    1    1    2    0    0  0.25433232584E+03 -0.17047763910E+03 -0.28361043226E+03  0.41735169184E+03  0.00000000000E+00 0.  1.
         16    1    4    4    0    0 -0.70213022261E+02  0.28295050652E+03  0.76799018026E+02  0.30147793751E+03  0.00000000000E+00 0. -1.
    9900018    1    4    4    0    0 -0.32285451678E+02 -0.42502715276E+02 -0.36732690955E+02  0.11186286325E+03  0.91187600000E+02 0.  0.
<mgrwt>
<rscale>  0 0.65963523E+03</rscale>
<asrwt>0</asrwt>
<pdfrwt beam="1">  1        2 0.99081712E-01 0.10973579E+04</pdfrwt>
<pdfrwt beam="2">  1       -2 0.13884820E+00 0.10973579E+04</pdfrwt>
<totfact> 0.16468483E+01</totfact>
</mgrwt>
</event>
