<event>
11    1  0.1463487E-012  0.3405401E+04  0.7818608E-02  0.8136582E-01
         -1   -1    0    0    0  501 -0.00000000000E+00  0.00000000000E+00  0.14891557065E+04  0.14891557065E+04  0.00000000000E+00 0.  1.
          1   -1    0    0  501    0  0.00000000000E+00 -0.00000000000E+00 -0.19468679713E+04  0.19468679713E+04  0.00000000000E+00 0. -1.
    9900016    2    1    2    0    0  0.47006771060E+03  0.41009556862E+03 -0.10052543749E+04  0.24543848973E+04  0.21504248041E+04 0.  0.
         24    2    3    3    0    0  0.26739332411E+03  0.41771027171E+03 -0.67369544556E+03  0.84060447394E+03  0.82275557533E+02 0.  0.
        -15    1    3    3    0    0  0.88038683069E+02 -0.16720648102E+03 -0.14607381517E+03  0.23884383285E+03  0.00000000000E+00 0.  1.
        -15    1    4    4    0    0  0.28287603117E+02  0.91658945516E+02 -0.16423165634E+03  0.19019355333E+03  0.00000000000E+00 0.  1.
         15    1    3    3    0    0 -0.51916939679E+03  0.17054149399E+02  0.26621913051E+03  0.58369541031E+03  0.00000000000E+00 0. -1.
         15    1    3    3    0    0  0.63380510021E+03  0.14253762853E+03 -0.45170424469E+03  0.79124118022E+03  0.00000000000E+00 0. -1.
        -16    1    1    2    0    0 -0.51106348075E+03 -0.37930231443E+03  0.59084172519E+03  0.86841814313E+03  0.00000000000E+00 0.  1.
         16    1    4    4    0    0  0.23910572099E+03  0.32605132619E+03 -0.50946378922E+03  0.65041092061E+03  0.00000000000E+00 0. -1.
    9900018    1    1    2    0    0  0.40995770148E+02 -0.30793254185E+02 -0.43299615031E+02  0.11322063738E+03  0.91187600000E+02 0.  0.
<mgrwt>
<rscale>  0 0.34054013E+04</rscale>
<asrwt>0</asrwt>
<pdfrwt beam="1">  1        1 0.29951815E+00 0.34054013E+04</pdfrwt>
<pdfrwt beam="2">  1       -1 0.22910088E+00 0.34054013E+04</pdfrwt>
<totfact> 0.25483770E-01</totfact>
</mgrwt>
</event>
<event>
11    1  0.1463487E-012  0.3493692E+04  0.7818608E-02  0.8115286E-01
         -2   -1    0    0    0  501 -0.00000000000E+00  0.00000000000E+00  0.16412531416E+04  0.16412531416E+04  0.00000000000E+00 0.  1.
          2   -1    0    0  501    0  0.00000000000E+00 -0.00000000000E+00 -0.18592327600E+04  0.18592327600E+04  0.00000000000E+00 0. -1.
    9900016    2    1    2    0    0  0.50941035169E+03 -0.12348826021E+03  0.67766869279E+03  0.23175925324E+04  0.21534279724E+04 0.  0.
        -24    2    3    3    0    0  0.43442500638E+03  0.24775592360E+03  0.62599838646E+03  0.80522978354E+03  0.80080837915E+02 0.  0.
        -15    1    3    3    0    0  0.13089808506E+03  0.38510505914E+03 -0.17694440589E+03  0.44356458157E+03  0.00000000000E+00 0.  1.
        -15    1    3    3    0    0 -0.44815954636E+02 -0.19025191291E+03  0.42638148659E+03  0.46904736676E+03  0.00000000000E+00 0.  1.
         15    1    4    4    0    0  0.22504051236E+03  0.17344347930E+03  0.34074765164E+03  0.44366072038E+03  0.00000000000E+00 0. -1.
         15    1    3    3    0    0 -0.11096785107E+02 -0.56609733005E+03 -0.19776677438E+03  0.59975080056E+03  0.00000000000E+00 0. -1.
        -16    1    4    4    0    0  0.20938449402E+03  0.74312444298E+02  0.28525073482E+03  0.36156906316E+03  0.00000000000E+00 0.  1.
         16    1    1    2    0    0 -0.51248226053E+03  0.80669220555E+02 -0.93930946863E+03  0.10730553892E+04  0.00000000000E+00 0. -1.
    9900018    1    1    2    0    0  0.30719088350E+01  0.42819039657E+02  0.43661157437E+02  0.10983797997E+03  0.91187600000E+02 0.  0.
<mgrwt>
<rscale>  0 0.34936924E+04</rscale>
<asrwt>0</asrwt>
<pdfrwt beam="1">  1        2 0.28603581E+00 0.34936924E+04</pdfrwt>
<pdfrwt beam="2">  1       -2 0.25250048E+00 0.34936924E+04</pdfrwt>
<totfact> 0.40795162E-01</totfact>
</mgrwt>
</event>
<event>
11    1  0.1463487E-012  0.2750712E+04  0.7818608E-02  0.8318736E-01
          2   -1    0    0  501    0  0.00000000000E+00  0.00000000000E+00  0.12851590917E+04  0.12851590917E+04  0.00000000000E+00 0. -1.
         -2   -1    0    0    0  501 -0.00000000000E+00 -0.00000000000E+00 -0.14718833660E+04  0.14718833660E+04  0.00000000000E+00 0.  1.
    9900016    2    1    2    0    0 -0.27063193927E+03  0.71162829287E+01 -0.45591746601E+03  0.22203505037E+04  0.21561083775E+04 0.  0.
        -24    2    3    3    0    0 -0.10632914117E+03 -0.45277024415E+03 -0.45141328722E+03  0.65302395751E+03  0.79746805237E+02 0.  0.
        -15    1    3    3    0    0  0.30205582585E+03  0.41294082003E+03 -0.12986983646E+03  0.52784847939E+03  0.00000000000E+00 0.  1.
        -15    1    3    3    0    0 -0.39230252510E+03  0.46035133045E+03  0.14081428694E+02  0.60499826883E+03  0.00000000000E+00 0.  1.
         15    1    3    3    0    0 -0.74056098849E+02 -0.41340562340E+03  0.11128422897E+03  0.43447979798E+03  0.00000000000E+00 0. -1.
         15    1    4    4    0    0 -0.70694028114E+02 -0.21130512774E+03 -0.16839081175E+03  0.27929011458E+03  0.00000000000E+00 0. -1.
        -16    1    4    4    0    0 -0.35635113052E+02 -0.24146511641E+03 -0.28302247547E+03  0.37373384293E+03  0.00000000000E+00 0.  1.
         16    1    1    2    0    0  0.26371791137E+03  0.11668804320E+02  0.33201343060E+03  0.42416531668E+03  0.00000000000E+00 0. -1.
    9900018    1    1    2    0    0  0.69140278963E+01 -0.18785087249E+02 -0.62820238871E+02  0.11252663725E+03  0.91187600000E+02 0.  0.
<mgrwt>
<rscale>  0 0.27507121E+04</rscale>
<asrwt>0</asrwt>
<pdfrwt beam="1">  1        2 0.19771678E+00 0.27507121E+04</pdfrwt>
<pdfrwt beam="2">  1       -2 0.22644359E+00 0.27507121E+04</pdfrwt>
<totfact> 0.13261803E+00</totfact>
</mgrwt>
</event>
<event>
11    1  0.1463487E-012  0.3159248E+04  0.7818608E-02  0.8199663E-01
         -1   -1    0    0    0  501 -0.00000000000E+00  0.00000000000E+00  0.74932785842E+03  0.74932785842E+03  0.00000000000E+00 0.  1.
          1   -1    0    0  501    0  0.00000000000E+00 -0.00000000000E+00 -0.33299341880E+04  0.33299341880E+04  0.00000000000E+00 0. -1.
    9900016    2    1    2    0    0  0.36806946119E+03 -0.30620609978E+03 -0.10848517440E+04  0.24591811869E+04  0.21543981757E+04 0.  0.
         24    2    3    3    0    0  0.20830272232E+01 -0.98190774058E+02 -0.35916581985E+03  0.38065095507E+03  0.79052490993E+02 0.  0.
        -15    1    4    4    0    0  0.22969837022E+02 -0.72793216024E+02 -0.14393352213E+03  0.16292122178E+03  0.00000000000E+00 0.  1.
        -15    1    3    3    0    0  0.45692159717E+03  0.47092576561E+03  0.13502766299E+03  0.66991110787E+03  0.00000000000E+00 0.  1.
         15    1    3    3    0    0  0.22228645148E+03 -0.49834314042E+02 -0.62845011530E+03  0.66846411481E+03  0.00000000000E+00 0. -1.
         15    1    3    3    0    0 -0.31322161469E+03 -0.62910677729E+03 -0.23226347189E+03  0.74015500911E+03  0.00000000000E+00 0. -1.
        -16    1    1    2    0    0 -0.36025103969E+03  0.32654086494E+03 -0.14154622689E+04  0.14966439733E+04  0.00000000000E+00 0.  1.
         16    1    4    4    0    0 -0.20886809799E+02 -0.25397558034E+02 -0.21523229772E+03  0.21772973329E+03  0.00000000000E+00 0. -1.
    9900018    1    1    2    0    0 -0.78184214994E+01 -0.20334765158E+02 -0.80292316608E+02  0.12343688626E+03  0.91187600000E+02 0.  0.
<mgrwt>
<rscale>  0 0.31592483E+04</rscale>
<asrwt>0</asrwt>
<pdfrwt beam="1">  1        1 0.51229757E+00 0.31592483E+04</pdfrwt>
<pdfrwt beam="2">  1       -1 0.11528121E+00 0.31592483E+04</pdfrwt>
<totfact> 0.19388996E-01</totfact>
</mgrwt>
</event>
<event>
11    1  0.1463487E-012  0.3605836E+04  0.7818608E-02  0.8089156E-01
         -1   -1    0    0    0  501 -0.00000000000E+00  0.00000000000E+00  0.25657864319E+04  0.25657864319E+04  0.00000000000E+00 0.  1.
          1   -1    0    0  501    0  0.00000000000E+00 -0.00000000000E+00 -0.12668682859E+04  0.12668682859E+04  0.00000000000E+00 0. -1.
    9900016    2    1    2    0    0  0.15667384217E+03  0.35905951153E+03 -0.19821202237E+03  0.22851182347E+04  0.22425447410E+04 0.  0.
         24    2    3    3    0    0  0.26057938844E+03 -0.31702288077E+03 -0.30701921280E+03  0.51856192009E+03  0.78997109637E+02 0.  0.
        -15    1    4    4    0    0  0.16076063392E+03 -0.19909959589E+03 -0.23755457634E+03  0.34916587353E+03  0.00000000000E+00 0.  1.
        -15    1    3    3    0    0  0.30166704213E+03  0.41999966793E+02  0.35716126642E+03  0.46939447350E+03  0.00000000000E+00 0.  1.
         15    1    3    3    0    0 -0.25602688699E+03  0.47230847375E+03 -0.57620070210E+03  0.78780220255E+03  0.00000000000E+00 0. -1.
         15    1    3    3    0    0 -0.14140444729E+03  0.15165625638E+03  0.35691414084E+03  0.41277420188E+03  0.00000000000E+00 0. -1.
        -16    1    1    2    0    0 -0.15667384217E+03 -0.35905951153E+03  0.14971301683E+04  0.15475364831E+04  0.00000000000E+00 0.  1.
         16    1    4    4    0    0  0.99818754514E+02 -0.11792328489E+03 -0.69464636460E+02  0.16939604656E+03  0.00000000000E+00 0. -1.
    9900018    1    3    3    0    0 -0.81412541199E+01  0.10117695381E+02 -0.29067514729E+02  0.96585436711E+02  0.91187600000E+02 0.  0.
<mgrwt>
<rscale>  0 0.36058361E+04</rscale>
<asrwt>0</asrwt>
<pdfrwt beam="1">  1        1 0.19490281E+00 0.36058361E+04</pdfrwt>
<pdfrwt beam="2">  1       -1 0.39473637E+00 0.36058361E+04</pdfrwt>
<totfact> 0.59996250E-02</totfact>
</mgrwt>
</event>
<event>
11    1  0.1463487E-012  0.2466317E+04  0.7818608E-02  0.8415084E-01
         -2   -1    0    0    0  501 -0.00000000000E+00  0.00000000000E+00  0.35610021237E+03  0.35610021237E+03  0.00000000000E+00 0. -1.
          2   -1    0    0  501    0  0.00000000000E+00 -0.00000000000E+00 -0.42703713851E+04  0.42703713851E+04  0.00000000000E+00 0.  1.
    9900016    2    1    2    0    0 -0.84596713494E+02 -0.11891785758E+03 -0.34233065913E+04  0.40433269136E+04  0.21466640286E+04 0.  0.
         24    2    3    3    0    0 -0.29733965831E+02  0.11848967879E+03  0.42599072174E+02  0.15303649352E+03  0.81740899769E+02 0.  0.
        -15    1    3    3    0    0  0.64551751940E+03  0.15183961696E+03 -0.15191027073E+04  0.16575346671E+04  0.00000000000E+00 0.  1.
        -15    1    4    4    0    0  0.17073777451E+02  0.90746847797E+02  0.30985756312E+02  0.97399288271E+02  0.00000000000E+00 0.  1.
         15    1    3    3    0    0 -0.28745193055E+03  0.18082253148E+03 -0.34993716754E+03  0.48762836412E+03  0.00000000000E+00 0. -1.
         15    1    3    3    0    0 -0.41292833652E+03 -0.57006968482E+03 -0.15968657886E+04  0.17451273889E+04  0.00000000000E+00 0. -1.
        -16    1    1    2    0    0  0.91274081766E+02  0.16678278021E+03 -0.41012157899E+03  0.45204774453E+03  0.00000000000E+00 0.  1.
         16    1    4    4    0    0 -0.46807743282E+02  0.27742830996E+02  0.11613315862E+02  0.55637205251E+02  0.00000000000E+00 0. -1.
    9900018    1    1    2    0    0 -0.66773682719E+01 -0.47864922624E+02 -0.80843002398E+02  0.13109693931E+03  0.91187600000E+02 0.  0.
<mgrwt>
<rscale>  0 0.24663172E+04</rscale>
<asrwt>0</asrwt>
<pdfrwt beam="1">  1        2 0.65698020E+00 0.24663172E+04</pdfrwt>
<pdfrwt beam="2">  1       -2 0.54784649E-01 0.24663172E+04</pdfrwt>
<totfact> 0.56822178E-01</totfact>
</mgrwt>
</event>
<event>
11    1  0.1463487E-012  0.3192020E+04  0.7818608E-02  0.8190928E-01
          1   -1    0    0  501    0  0.00000000000E+00  0.00000000000E+00  0.18658975279E+04  0.18658975279E+04  0.00000000000E+00 0. -1.
         -1   -1    0    0    0  501 -0.00000000000E+00 -0.00000000000E+00 -0.13651599860E+04  0.13651599860E+04  0.00000000000E+00 0.  1.
    9900016    2    1    2    0    0 -0.53077728066E+03  0.10268375123E+03 -0.23908074741E+03  0.23147608504E+04  0.22380102137E+04 0.  0.
        -24    2    3    3    0    0 -0.21963906176E+03  0.56265698573E+02 -0.36719608744E+03  0.44063594847E+03  0.88993967042E+02 0.  0.
        -15    1    3    3    0    0 -0.19177400676E+03  0.98947727211E+02 -0.46783731899E+03  0.51520838447E+03  0.00000000000E+00 0.  1.
        -15    1    3    3    0    0  0.20081863534E+03 -0.36879192326E+03  0.68633250296E+03  0.80460419560E+03  0.00000000000E+00 0.  1.
         15    1    4    4    0    0 -0.77875722355E+02 -0.14426073392E+02 -0.79547133581E+02  0.11225188723E+03  0.00000000000E+00 0. -1.
         15    1    3    3    0    0 -0.32621676845E+03  0.31777935795E+03 -0.71686058133E+02  0.46102059747E+03  0.00000000000E+00 0. -1.
        -16    1    4    4    0    0 -0.14176333940E+03  0.70691771965E+02 -0.28764895386E+03  0.32838406124E+03  0.00000000000E+00 0.  1.
         16    1    1    2    0    0  0.53077728066E+03 -0.10268375123E+03  0.73981828932E+03  0.91629666356E+03  0.00000000000E+00 0. -1.
    9900018    1    3    3    0    0  0.60339209584E+01 -0.15171092442E+01 -0.18693785809E+02  0.93291724415E+02  0.91187600000E+02 0.  0.
<mgrwt>
<rscale>  0 0.31920205E+04</rscale>
<asrwt>0</asrwt>
<pdfrwt beam="1">  1        1 0.28706116E+00 0.31920205E+04</pdfrwt>
<pdfrwt beam="2">  1       -1 0.21002461E+00 0.31920205E+04</pdfrwt>
<totfact> 0.39541448E-01</totfact>
</mgrwt>
</event>
<event>
11    1  0.1463487E-012  0.2681160E+04  0.7818608E-02  0.8341144E-01
         -2   -1    0    0    0  501 -0.00000000000E+00  0.00000000000E+00  0.12792990957E+04  0.12792990957E+04  0.00000000000E+00 0.  1.
          2   -1    0    0  501    0  0.00000000000E+00 -0.00000000000E+00 -0.14047966488E+04  0.14047966488E+04  0.00000000000E+00 0. -1.
    9900016    2    1    2    0    0 -0.91852146079E+02  0.44620436172E+02 -0.45645282212E+03  0.22143220562E+04  0.21643579163E+04 0.  0.
         24    2    3    3    0    0 -0.27294607577E+03  0.66578880641E+02 -0.82614846648E+03  0.87597559831E+03  0.76678892392E+02 0.  0.
        -15    1    4    4    0    0 -0.10835182092E+03  0.23975506923E+01 -0.23101185647E+03  0.25517120366E+03  0.00000000000E+00 0.  1.
        -15    1    3    3    0    0  0.60318571290E+03  0.80945766023E+01  0.24698251203E+03  0.65184268629E+03  0.00000000000E+00 0.  1.
         15    1    3    3    0    0 -0.47920328423E+02  0.39558798899E+02 -0.18621764390E+03  0.19631165872E+03  0.00000000000E+00 0. -1.
         15    1    3    3    0    0 -0.37417145478E+03 -0.69611819970E+02  0.30893077624E+03  0.49019211291E+03  0.00000000000E+00 0. -1.
        -16    1    1    2    0    0  0.10644494884E+03 -0.36195178094E+02  0.35631911221E+03  0.37363609004E+03  0.00000000000E+00 0.  1.
         16    1    4    4    0    0 -0.16459425485E+03  0.64181329948E+02 -0.59513661002E+03  0.62080439466E+03  0.00000000000E+00 0. -1.
    9900018    1    1    2    0    0 -0.14592802758E+02 -0.84252580780E+01 -0.25363843114E+02  0.96137598250E+02  0.91187600000E+02 0.  0.
<mgrwt>
<rscale>  0 0.26811603E+04</rscale>
<asrwt>0</asrwt>
<pdfrwt beam="1">  1        2 0.21612256E+00 0.26811603E+04</pdfrwt>
<pdfrwt beam="2">  1       -2 0.19681525E+00 0.26811603E+04</pdfrwt>
<totfact> 0.17638271E+00</totfact>
</mgrwt>
</event>
<event>
11    1  0.1463487E-012  0.2435403E+04  0.7818608E-02  0.8426367E-01
          1   -1    0    0  501    0  0.00000000000E+00  0.00000000000E+00  0.17748990017E+04  0.17748990017E+04  0.00000000000E+00 0. -1.
         -1   -1    0    0    0  501 -0.00000000000E+00 -0.00000000000E+00 -0.83542632991E+03  0.83542632991E+03  0.00000000000E+00 0.  1.
    9900016    2    1    2    0    0 -0.13801391285E+03  0.23678331108E+02  0.72893724976E+03  0.23574742540E+04  0.22375716393E+04 0.  0.
        -24    2    3    3    0    0  0.37702697456E+03 -0.42702098471E+03 -0.42501991094E+02  0.57630072790E+03  0.76287933570E+02 0.  0.
        -15    1    3    3    0    0 -0.21675980347E+03 -0.34445028321E+03  0.18398602380E+03  0.44663370558E+03  0.00000000000E+00 0.  1.
        -15    1    3    3    0    0 -0.16777038511E+03  0.77925588827E+03  0.16422582614E+03  0.81385303556E+03  0.00000000000E+00 0.  1.
         15    1    3    3    0    0 -0.12161103498E+03  0.15517606606E+02  0.41021840418E+03  0.42814621226E+03  0.00000000000E+00 0. -1.
         15    1    4    4    0    0  0.28259673178E+03 -0.32028309122E+03 -0.64910218508E+02  0.43203646582E+03  0.00000000000E+00 0. -1.
        -16    1    4    4    0    0  0.94430242775E+02 -0.10673789349E+03  0.22408227415E+02  0.14426426208E+03  0.00000000000E+00 0.  1.
         16    1    1    2    0    0  0.13801391285E+03 -0.23678331108E+02  0.21053542198E+03  0.25285107754E+03  0.00000000000E+00 0. -1.
    9900018    1    3    3    0    0 -0.88996638477E+01  0.37610415006E+00  0.13008986738E+02  0.92540572727E+02  0.91187600000E+02 0.  0.
<mgrwt>
<rscale>  0 0.24354033E+04</rscale>
<asrwt>0</asrwt>
<pdfrwt beam="1">  1        1 0.27306138E+00 0.24354033E+04</pdfrwt>
<pdfrwt beam="2">  1       -1 0.12852713E+00 0.24354033E+04</pdfrwt>
<totfact> 0.19757258E+00</totfact>
</mgrwt>
</event>
<event>
11    1  0.1463487E-012  0.2763565E+04  0.7818608E-02  0.8314670E-01
          2   -1    0    0  501    0  0.00000000000E+00  0.00000000000E+00  0.30396831910E+04  0.30396831910E+04  0.00000000000E+00 0. -1.
         -2   -1    0    0    0  501 -0.00000000000E+00 -0.00000000000E+00 -0.62813216062E+03  0.62813216062E+03  0.00000000000E+00 0.  1.
    9900016    2    1    2    0    0 -0.31438576656E+03  0.21316655099E+03  0.18308689105E+04  0.28456136381E+04  0.21450309138E+04 0.  0.
         24    2    3    3    0    0 -0.25511396760E+03 -0.64357253013E+03  0.15046256297E+04  0.16581836818E+04  0.80038109176E+02 0.  0.
        -15    1    3    3    0    0  0.76752765273E+02  0.11683177298E+03 -0.17993629292E+03  0.22785460203E+03  0.00000000000E+00 0.  1.
        -15    1    4    4    0    0 -0.15251348723E+03 -0.46151862612E+03  0.11062266812E+04  0.12083034703E+04  0.00000000000E+00 0.  1.
         15    1    3    3    0    0 -0.91265171941E+02  0.64783590646E+03  0.28063168422E+03  0.71188119479E+03  0.00000000000E+00 0. -1.
         15    1    3    3    0    0 -0.44759392287E+02  0.92071401687E+02  0.22554788946E+03  0.24769415949E+03  0.00000000000E+00 0. -1.
        -16    1    1    2    0    0  0.39544711424E+03 -0.23081884707E+03  0.43801720907E+03  0.63365198316E+03  0.00000000000E+00 0.  1.
         16    1    4    4    0    0 -0.10260048037E+03 -0.18205390402E+03  0.39839894847E+03  0.44988021148E+03  0.00000000000E+00 0. -1.
    9900018    1    1    2    0    0 -0.81061347680E+02  0.17652296078E+02  0.14266491084E+03  0.18854973037E+03  0.91187600000E+02 0.  0.
<mgrwt>
<rscale>  0 0.27635649E+04</rscale>
<asrwt>0</asrwt>
<pdfrwt beam="1">  1        2 0.46764356E+00 0.27635649E+04</pdfrwt>
<pdfrwt beam="2">  1       -2 0.96635718E-01 0.27635649E+04</pdfrwt>
<totfact> 0.12841719E+00</totfact>
</mgrwt>
</event>
<event>
11    1  0.1463487E-012  0.3035995E+04  0.7818608E-02  0.8233526E-01
          2   -1    0    0  501    0  0.00000000000E+00  0.00000000000E+00  0.25420780035E+04  0.25420780035E+04  0.00000000000E+00 0.  1.
         -2   -1    0    0    0  501 -0.00000000000E+00 -0.00000000000E+00 -0.90646962154E+03  0.90646962154E+03  0.00000000000E+00 0. -1.
    9900016    2    1    2    0    0 -0.48461062598E+03  0.43057561275E+03  0.15171473017E+04  0.27895515366E+04  0.22493596918E+04 0.  0.
        -24    2    3    3    0    0 -0.17927736582E+03  0.24536948713E+03  0.44912252749E+03  0.54785170391E+03  0.77999267100E+02 0.  0.
        -15    1    3    3    0    0  0.20872688287E+03 -0.51356429801E+03  0.10782969812E+04  0.12124518875E+04  0.00000000000E+00 0.  1.
        -15    1    3    3    0    0 -0.49683474046E+03  0.45274787954E+03 -0.96308417106E+02  0.67904396983E+03  0.00000000000E+00 0.  1.
         15    1    3    3    0    0  0.35149782649E+02  0.18704699770E+03 -0.17712507402E+02  0.19114345264E+03  0.00000000000E+00 0. -1.
         15    1    4    4    0    0 -0.75666266043E+02  0.92790614963E+02  0.24536756016E+03  0.27302146733E+03  0.00000000000E+00 0. -1.
        -16    1    4    4    0    0 -0.10361109978E+03  0.15257887217E+03  0.20375496733E+03  0.27483023658E+03  0.00000000000E+00 0.  1.
         16    1    1    2    0    0  0.48461062598E+03 -0.43057561275E+03  0.11846108029E+03  0.65899608849E+03  0.00000000000E+00 0. -1.
    9900018    1    3    3    0    0 -0.52375185207E+02  0.58975546390E+02  0.10374871747E+03  0.15906052266E+03  0.91187600000E+02 0.  0.
<mgrwt>
<rscale>  0 0.30359950E+04</rscale>
<asrwt>0</asrwt>
<pdfrwt beam="1">  1        2 0.39108892E+00 0.30359950E+04</pdfrwt>
<pdfrwt beam="2">  1       -2 0.13945687E+00 0.30359950E+04</pdfrwt>
<totfact> 0.10186292E+00</totfact>
</mgrwt>
</event>
<event>
11    1  0.1463487E-012  0.3622851E+04  0.7818608E-02  0.8085277E-01
          2   -1    0    0  501    0  0.00000000000E+00  0.00000000000E+00  0.25582972120E+04  0.25582972120E+04  0.00000000000E+00 0. -1.
         -2   -1    0    0    0  501 -0.00000000000E+00 -0.00000000000E+00 -0.12825964542E+04  0.12825964542E+04  0.00000000000E+00 0.  1.
    9900016    2    1    2    0    0 -0.78710906917E+03 -0.40542621205E+03  0.15950385309E+04  0.28996775839E+04  0.22539013012E+04 0.  0.
         24    2    3    3    0    0 -0.25956534803E+03 -0.42838989930E+02 -0.89494383921E+02  0.28891571394E+03  0.79080313931E+02 0.  0.
        -15    1    3    3    0    0 -0.84978589056E+03  0.21993849927E+03  0.10009574647E+04  0.13313244719E+04  0.00000000000E+00 0.  1.
        -15    1    4    4    0    0 -0.48120940875E+02  0.22692658415E+02 -0.20957653636E+02  0.57182208269E+02  0.00000000000E+00 0.  1.
         15    1    3    3    0    0 -0.12339505266E+03 -0.29604307211E+03  0.50869041452E+03  0.60135993996E+03  0.00000000000E+00 0. -1.
         15    1    3    3    0    0  0.43980075461E+03 -0.32094378033E+03  0.96690193250E+02  0.55297251953E+03  0.00000000000E+00 0. -1.
        -16    1    1    2    0    0  0.78710906917E+03  0.40542621205E+03 -0.31933777305E+03  0.94121608225E+03  0.00000000000E+00 0.  1.
         16    1    4    4    0    0 -0.21144440716E+03 -0.65531648345E+02 -0.68536730285E+02  0.23173350567E+03  0.00000000000E+00 0. -1.
    9900018    1    3    3    0    0  0.58364674712E+01  0.34461131048E+02  0.78194842321E+02  0.12510493861E+03  0.91187600000E+02 0.  0.
<mgrwt>
<rscale>  0 0.36228513E+04</rscale>
<asrwt>0</asrwt>
<pdfrwt beam="1">  1        2 0.39358419E+00 0.36228513E+04</pdfrwt>
<pdfrwt beam="2">  1       -2 0.19732253E+00 0.36228513E+04</pdfrwt>
<totfact> 0.36273277E-01</totfact>
</mgrwt>
</event>
<event>
11    1  0.1463487E-012  0.2441671E+04  0.7818608E-02  0.8424065E-01
         -1   -1    0    0    0  501 -0.00000000000E+00  0.00000000000E+00  0.11839401996E+04  0.11839401996E+04  0.00000000000E+00 0.  1.
          1   -1    0    0  501    0  0.00000000000E+00 -0.00000000000E+00 -0.12588804668E+04  0.12588804668E+04  0.00000000000E+00 0. -1.
    9900016    2    1    2    0    0  0.11071251572E+03  0.87252290219E+02 -0.82091120714E+01  0.21584198404E+04  0.21537963216E+04 0.  0.
        -24    2    3    3    0    0 -0.58635961933E+03  0.18860113248E+03 -0.54963094034E+03  0.82920886135E+03  0.78135618084E+02 0.  0.
        -15    1    3    3    0    0  0.11752534918E+03 -0.24134954925E+03  0.12764506053E+03  0.29724581427E+03  0.00000000000E+00 0.  1.
        -15    1    3    3    0    0  0.38225015301E+03 -0.21136143680E+03 -0.23377523457E+02  0.43741895826E+03  0.00000000000E+00 0.  1.
         15    1    3    3    0    0  0.19729663286E+03  0.35136214379E+03  0.43715429119E+03  0.59454620656E+03  0.00000000000E+00 0. -1.
         15    1    4    4    0    0 -0.26199671191E+03  0.12221639991E+03 -0.23669994591E+03  0.37363884950E+03  0.00000000000E+00 0. -1.
        -16    1    4    4    0    0 -0.32436290742E+03  0.66384732567E+02 -0.31293099443E+03  0.45557001186E+03  0.00000000000E+00 0.  1.
         16    1    1    2    0    0 -0.15198488046E+03 -0.50870740279E+02 -0.76231572954E+02  0.17747813618E+03  0.00000000000E+00 0. -1.
    9900018    1    1    2    0    0  0.41272364746E+02 -0.36381549941E+02  0.95004177936E+01  0.10692268983E+03  0.91187600000E+02 0.  0.
<mgrwt>
<rscale>  0 0.24416709E+04</rscale>
<asrwt>0</asrwt>
<pdfrwt beam="1">  1        1 0.19367392E+00 0.24416709E+04</pdfrwt>
<pdfrwt beam="2">  1       -1 0.18214465E+00 0.24416709E+04</pdfrwt>
<totfact> 0.17367372E+00</totfact>
</mgrwt>
</event>
<event>
11    1  0.1463487E-012  0.3074744E+04  0.7818608E-02  0.8222704E-01
          2   -1    0    0  501    0  0.00000000000E+00  0.00000000000E+00  0.13567613167E+04  0.13567613167E+04  0.00000000000E+00 0. -1.
         -2   -1    0    0    0  501 -0.00000000000E+00 -0.00000000000E+00 -0.17420250865E+04  0.17420250865E+04  0.00000000000E+00 0.  1.
    9900016    2    1    2    0    0  0.48140666505E+03 -0.46979690460E+03 -0.28286850456E+02  0.22460029970E+04  0.21427243891E+04 0.  0.
         24    2    3    3    0    0  0.80817017655E+03 -0.17169716418E+03  0.51669143172E+03  0.97772820367E+03  0.79771261664E+02 0.  0.
        -15    1    3    3    0    0  0.52268801009E+02 -0.14991314739E+03 -0.40306013088E+03  0.43320139476E+03  0.00000000000E+00 0.  1.
        -15    1    4    4    0    0  0.49194975693E+03 -0.83704198009E+02  0.35054751494E+03  0.60983974644E+03  0.00000000000E+00 0.  1.
         15    1    3    3    0    0 -0.53825723017E+02  0.29092401529E+02  0.27248523007E+03  0.27927007876E+03  0.00000000000E+00 0. -1.
         15    1    3    3    0    0 -0.32520658949E+03 -0.17727899456E+03 -0.41440338138E+03  0.55580331976E+03  0.00000000000E+00 0. -1.
        -16    1    1    2    0    0 -0.47413907854E+03  0.43564457719E+03 -0.38623851522E+03  0.75084902216E+03  0.00000000000E+00 0.  1.
         16    1    4    4    0    0  0.31622041962E+03 -0.87992966167E+02  0.16614391678E+03  0.36788845723E+03  0.00000000000E+00 0. -1.
    9900018    1    1    2    0    0 -0.72675865137E+01  0.34152327409E+02  0.29261595841E+02  0.10193438412E+03  0.91187600000E+02 0.  0.
<mgrwt>
<rscale>  0 0.30747437E+04</rscale>
<asrwt>0</asrwt>
<pdfrwt beam="1">  1        2 0.20873251E+00 0.30747437E+04</pdfrwt>
<pdfrwt beam="2">  1       -2 0.26800386E+00 0.30747437E+04</pdfrwt>
<totfact> 0.64984482E-01</totfact>
</mgrwt>
</event>
<event>
11    1  0.1463487E-012  0.3166110E+04  0.7818608E-02  0.8197825E-01
         -2   -1    0    0    0  501 -0.00000000000E+00  0.00000000000E+00  0.23414296297E+04  0.23414296297E+04  0.00000000000E+00 0.  1.
          2   -1    0    0  501    0  0.00000000000E+00 -0.00000000000E+00 -0.10703133055E+04  0.10703133055E+04  0.00000000000E+00 0. -1.
    9900016    2    1    2    0    0  0.10458808278E+03  0.80675003007E+01  0.11823380286E+03  0.22540979725E+04  0.22485494626E+04 0.  0.
         24    2    3    3    0    0 -0.18896276018E+03 -0.53046260649E+03 -0.34386054609E+03  0.66464028243E+03  0.80057031240E+02 0.  0.
        -15    1    3    3    0    0  0.48775772530E+03  0.80226538920E+02  0.50630168116E+03  0.70759118739E+03  0.00000000000E+00 0.  1.
        -15    1    4    4    0    0 -0.16692475759E+03 -0.36247753625E+03 -0.25094751025E+03  0.47141117072E+03  0.00000000000E+00 0.  1.
         15    1    3    3    0    0 -0.19666385182E+02  0.20282196052E+03 -0.28099015017E+03  0.34710081945E+03  0.00000000000E+00 0. -1.
         15    1    3    3    0    0 -0.18786225802E+03  0.29664060855E+03  0.25268141366E+03  0.43259192716E+03  0.00000000000E+00 0. -1.
        -16    1    1    2    0    0 -0.10458808278E+03 -0.80675003007E+01  0.11528825213E+04  0.11576449627E+04  0.00000000000E+00 0.  1.
         16    1    4    4    0    0 -0.22038002596E+02 -0.16798507025E+03 -0.92913035841E+02  0.19322911171E+03  0.00000000000E+00 0. -1.
    9900018    1    3    3    0    0  0.13321760868E+02 -0.41159001198E+02 -0.15898595691E+02  0.10217375608E+03  0.91187600000E+02 0.  0.
<mgrwt>
<rscale>  0 0.31661101E+04</rscale>
<asrwt>0</asrwt>
<pdfrwt beam="1">  1        2 0.16466359E+00 0.31661101E+04</pdfrwt>
<pdfrwt beam="2">  1       -2 0.36021994E+00 0.31661101E+04</pdfrwt>
<totfact> 0.25717346E-01</totfact>
</mgrwt>
</event>
<event>
11    1  0.1463487E-012  0.2910710E+04  0.7818608E-02  0.8269698E-01
          1   -1    0    0  501    0  0.00000000000E+00  0.00000000000E+00  0.10911529807E+04  0.10911529807E+04  0.00000000000E+00 0. -1.
         -1   -1    0    0    0  501 -0.00000000000E+00 -0.00000000000E+00 -0.19411190129E+04  0.19411190129E+04  0.00000000000E+00 0.  1.
    9900016    2    1    2    0    0 -0.34138584069E+03 -0.23775003750E+03 -0.97042160524E+03  0.23975332155E+04  0.21525282937E+04 0.  0.
        -24    2    3    3    0    0 -0.38298095186E+03  0.46360077877E+03 -0.48850225945E+02  0.60892906358E+03  0.82511625449E+02 0.  0.
        -15    1    3    3    0    0 -0.79796612350E+02 -0.37462365656E+03 -0.10469954094E+04  0.11148586326E+04  0.00000000000E+00 0.  1.
        -15    1    3    3    0    0 -0.22007106900E+03 -0.20008511781E+03  0.67225497346E+02  0.30493375883E+03  0.00000000000E+00 0.  1.
         15    1    3    3    0    0  0.34146279252E+03 -0.12664204191E+03  0.58198532766E+02  0.36881176048E+03  0.00000000000E+00 0. -1.
         15    1    4    4    0    0 -0.13559993639E+03  0.14137461022E+03  0.19959693959E+02  0.19690737047E+03  0.00000000000E+00 0. -1.
        -16    1    4    4    0    0 -0.24738101547E+03  0.32222616855E+03 -0.68809919904E+02  0.41202169311E+03  0.00000000000E+00 0.  1.
         16    1    1    2    0    0  0.39045256921E+03  0.28055964420E+03  0.17300559516E+03  0.51097735636E+03  0.00000000000E+00 0. -1.
    9900018    1    1    2    0    0 -0.49066728517E+02 -0.42809606699E+02 -0.52550022102E+02  0.12376142165E+03  0.91187600000E+02 0.  0.
<mgrwt>
<rscale>  0 0.29107097E+04</rscale>
<asrwt>0</asrwt>
<pdfrwt beam="1">  1        1 0.16786969E+00 0.29107097E+04</pdfrwt>
<pdfrwt beam="2">  1       -1 0.29863369E+00 0.29107097E+04</pdfrwt>
<totfact> 0.37212519E-01</totfact>
</mgrwt>
</event>
<event>
11    1  0.1463487E-012  0.2624675E+04  0.7818608E-02  0.8359868E-01
         -2   -1    0    0    0  501 -0.00000000000E+00  0.00000000000E+00  0.71797972516E+03  0.71797972516E+03  0.00000000000E+00 0.  1.
          2   -1    0    0  501    0  0.00000000000E+00 -0.00000000000E+00 -0.23987157705E+04  0.23987157705E+04  0.00000000000E+00 0. -1.
    9900016    2    1    2    0    0 -0.12713837033E+02  0.14743204551E+03 -0.10800316477E+04  0.24980327257E+04  0.22476212512E+04 0.  0.
        -24    2    3    3    0    0 -0.17129120278E+03  0.29691932937E+03  0.29619293068E+03  0.46019429446E+03  0.80912126249E+02 0.  0.
        -15    1    3    3    0    0 -0.16973315160E+03 -0.24259899762E+03 -0.54067977947E+03  0.61643997301E+03  0.00000000000E+00 0.  1.
        -15    1    3    3    0    0  0.53854936531E+03 -0.23174160684E+03 -0.22235260385E+03  0.62704088516E+03  0.00000000000E+00 0.  1.
         15    1    4    4    0    0 -0.83868406164E+02  0.71026466321E+02  0.97092264753E+02  0.14664779693E+03  0.00000000000E+00 0. -1.
         15    1    3    3    0    0 -0.18207422106E+03  0.31711431804E+03 -0.59272243250E+03  0.69644267149E+03  0.00000000000E+00 0. -1.
        -16    1    4    4    0    0 -0.87422796614E+02  0.22589286305E+03  0.19910066592E+03  0.31354649753E+03  0.00000000000E+00 0.  1.
         16    1    1    2    0    0  0.12713837033E+02 -0.14743204551E+03 -0.60070439756E+03  0.61866276997E+03  0.00000000000E+00 0. -1.
    9900018    1    3    3    0    0 -0.28164626908E+02  0.77390025665E+01 -0.20469762593E+02  0.97914901542E+02  0.91187600000E+02 0.  0.
<mgrwt>
<rscale>  0 0.26246747E+04</rscale>
<asrwt>0</asrwt>
<pdfrwt beam="1">  1        2 0.36903320E+00 0.26246747E+04</pdfrwt>
<pdfrwt beam="2">  1       -2 0.11045842E+00 0.26246747E+04</pdfrwt>
<totfact> 0.22860404E+00</totfact>
</mgrwt>
</event>
<event>
11    1  0.1463487E-012  0.3007503E+04  0.7818608E-02  0.8241592E-01
         -2   -1    0    0    0  501 -0.00000000000E+00  0.00000000000E+00  0.69751325954E+03  0.69751325954E+03  0.00000000000E+00 0.  1.
          2   -1    0    0  501    0  0.00000000000E+00 -0.00000000000E+00 -0.32419010879E+04  0.32419010879E+04  0.00000000000E+00 0. -1.
    9900016    2    1    2    0    0 -0.22625164377E+03  0.16233765383E+03 -0.27716404342E+04  0.35799883230E+04  0.22487290580E+04 0.  0.
         24    2    3    3    0    0  0.45659304766E+03  0.22455876807E+03 -0.95722872119E+03  0.10872521091E+04  0.83225431902E+02 0.  0.
        -15    1    3    3    0    0 -0.30687679420E+03  0.21552289300E+03 -0.43879218307E+03  0.57720192667E+03  0.00000000000E+00 0.  1.
        -15    1    4    4    0    0  0.13385978044E+03  0.40362375521E+02 -0.32687803180E+03  0.35552329016E+03  0.00000000000E+00 0.  1.
         15    1    3    3    0    0  0.34310542965E+03 -0.34639287105E+03 -0.43287896993E+03  0.65199199349E+03  0.00000000000E+00 0. -1.
         15    1    3    3    0    0 -0.72402562094E+03  0.53556268129E+02 -0.72069717007E+03  0.10229788779E+04  0.00000000000E+00 0. -1.
        -16    1    1    2    0    0  0.22625164377E+03 -0.16233765383E+03  0.22725260585E+03  0.35942602441E+03  0.00000000000E+00 0.  1.
         16    1    4    4    0    0  0.32273326722E+03  0.18419639255E+03 -0.63035068939E+03  0.73172881891E+03  0.00000000000E+00 0. -1.
    9900018    1    3    3    0    0  0.49522940507E+01  0.15092595681E+02 -0.22204338995E+03  0.24056341591E+03  0.91187600000E+02 0.  0.
<mgrwt>
<rscale>  0 0.30075033E+04</rscale>
<asrwt>0</asrwt>
<pdfrwt beam="1">  1        2 0.49875401E+00 0.30075033E+04</pdfrwt>
<pdfrwt beam="2">  1       -2 0.10730973E+00 0.30075033E+04</pdfrwt>
<totfact> 0.72584042E-01</totfact>
</mgrwt>
</event>
<event>
11    1  0.1463487E-012  0.2464953E+04  0.7818608E-02  0.8415579E-01
          2   -1    0    0  501    0  0.00000000000E+00  0.00000000000E+00  0.13213310820E+04  0.13213310820E+04  0.00000000000E+00 0. -1.
         -2   -1    0    0    0  501 -0.00000000000E+00 -0.00000000000E+00 -0.11495967926E+04  0.11495967926E+04  0.00000000000E+00 0.  1.
    9900016    2    1    2    0    0 -0.30698808776E+02  0.19724263921E+03  0.18009782946E+03  0.22711354213E+04  0.22551660245E+04 0.  0.
         24    2    3    3    0    0 -0.10555076441E+03 -0.16256264419E+03  0.77139601858E+02  0.22303763076E+03  0.78915710776E+02 0.  0.
        -15    1    4    4    0    0 -0.31875442263E+02 -0.49716089788E+02 -0.13556799275E+02  0.60593070642E+02  0.00000000000E+00 0.  1.
        -15    1    3    3    0    0 -0.84034678088E+03 -0.37674929767E+02  0.12073938065E+03  0.84981180888E+03  0.00000000000E+00 0.  1.
         15    1    3    3    0    0  0.36861413583E+03 -0.70030714864E+02  0.73735032003E+02  0.38238401784E+03  0.00000000000E+00 0. -1.
         15    1    3    3    0    0  0.51070334626E+03  0.44573282394E+03 -0.15731378644E+03  0.69587591252E+03  0.00000000000E+00 0. -1.
        -16    1    1    2    0    0  0.30698808776E+02 -0.19724263921E+03 -0.83635400486E+01  0.19979245328E+03  0.00000000000E+00 0.  1.
         16    1    4    4    0    0 -0.73675322148E+02 -0.11284655440E+03  0.90696401133E+02  0.16244456012E+03  0.00000000000E+00 0. -1.
    9900018    1    3    3    0    0  0.35881254419E+02  0.21778104089E+02  0.65797601388E+02  0.12002605125E+03  0.91187600000E+02 0.  0.
<mgrwt>
<rscale>  0 0.24649527E+04</rscale>
<asrwt>0</asrwt>
<pdfrwt beam="1">  1        2 0.20328171E+00 0.24649527E+04</pdfrwt>
<pdfrwt beam="2">  1       -2 0.17686104E+00 0.24649527E+04</pdfrwt>
<totfact> 0.27400233E+00</totfact>
</mgrwt>
</event>
<event>
11    1  0.1463487E-012  0.3614490E+04  0.7818608E-02  0.8087181E-01
          2   -1    0    0  501    0  0.00000000000E+00  0.00000000000E+00  0.23618710618E+04  0.23618710618E+04  0.00000000000E+00 0. -1.
         -2   -1    0    0    0  501 -0.00000000000E+00 -0.00000000000E+00 -0.13828587368E+04  0.13828587368E+04  0.00000000000E+00 0.  1.
    9900016    2    1    2    0    0  0.71153311249E+03  0.44749598257E+03 -0.26126139156E+02  0.23121158026E+04  0.21537559947E+04 0.  0.
        -24    2    3    3    0    0  0.92771812391E+03 -0.47269436133E+03 -0.36178231884E+03  0.11049307486E+04  0.76711382712E+02 0.  0.
        -15    1    3    3    0    0 -0.16877395574E+03  0.71613222671E+03  0.30069942679E+03  0.79482712557E+03  0.00000000000E+00 0.  1.
        -15    1    3    3    0    0 -0.17038404842E+03 -0.80298339820E+00  0.32223657975E+02  0.17340626538E+03  0.00000000000E+00 0.  1.
         15    1    3    3    0    0  0.12297299275E+03  0.20486110058E+03  0.27330949113E+01  0.23895166307E+03  0.00000000000E+00 0. -1.
         15    1    4    4    0    0  0.31186578008E+03 -0.11878048697E+03 -0.11652268071E+03  0.35347786916E+03  0.00000000000E+00 0. -1.
        -16    1    4    4    0    0  0.61585234383E+03 -0.35391387435E+03 -0.24525963812E+03  0.75145287940E+03  0.00000000000E+00 0.  1.
         16    1    1    2    0    0 -0.73593978644E+03 -0.45678872030E+03  0.10182891367E+04  0.13368530473E+04  0.00000000000E+00 0. -1.
    9900018    1    1    2    0    0  0.24406673955E+02  0.92927377239E+01 -0.13150672504E+02  0.95760948664E+02  0.91187600000E+02 0.  0.
<mgrwt>
<rscale>  0 0.36144897E+04</rscale>
<asrwt>0</asrwt>
<pdfrwt beam="1">  1        2 0.36336478E+00 0.36144897E+04</pdfrwt>
<pdfrwt beam="2">  1       -2 0.21274750E+00 0.36144897E+04</pdfrwt>
<totfact> 0.37414470E-01</totfact>
</mgrwt>
</event>
<event>
11    1  0.1463487E-012  0.4685523E+04  0.7818608E-02  0.7878939E-01
          2   -1    0    0  501    0  0.00000000000E+00  0.00000000000E+00  0.32402247321E+04  0.32402247321E+04  0.00000000000E+00 0. -1.
         -2   -1    0    0    0  501 -0.00000000000E+00 -0.00000000000E+00 -0.16938734626E+04  0.16938734626E+04  0.00000000000E+00 0.  1.
    9900016    2    1    2    0    0 -0.66771023516E+03  0.46248486988E+03  0.25005445464E+04  0.33992854474E+04  0.21546900731E+04 0.  0.
         24    2    3    3    0    0  0.59485990901E+03  0.11702894012E+03  0.40998068146E+03  0.73682210485E+03  0.85255913937E+02 0.  0.
        -15    1    4    4    0    0  0.51324359110E+03  0.96649159132E+02  0.31483277362E+03  0.60981941516E+03  0.00000000000E+00 0.  1.
        -15    1    3    3    0    0 -0.67836704273E+02  0.15708832763E+02  0.10899894240E+02  0.70479738705E+02  0.00000000000E+00 0.  1.
         15    1    3    3    0    0  0.15572479615E+03 -0.10691677161E+01  0.18327960304E+03  0.24050523517E+03  0.00000000000E+00 0. -1.
         15    1    3    3    0    0 -0.13504582360E+04  0.33081626471E+03  0.18963843676E+04  0.23514783686E+04  0.00000000000E+00 0. -1.
        -16    1    1    2    0    0  0.68201351397E+03 -0.45282511771E+03 -0.10943754961E+04  0.13666933625E+04  0.00000000000E+00 0.  1.
         16    1    4    4    0    0  0.81616317906E+02  0.20379780990E+02  0.95147907842E+02  0.12700268969E+03  0.00000000000E+00 0. -1.
    9900018    1    1    2    0    0 -0.14303278813E+02 -0.96597521755E+01  0.14018221925E+03  0.16811938492E+03  0.91187600000E+02 0.  0.
<mgrwt>
<rscale>  0 0.46855227E+04</rscale>
<asrwt>0</asrwt>
<pdfrwt beam="1">  1        2 0.49849611E+00 0.46855227E+04</pdfrwt>
<pdfrwt beam="2">  1       -2 0.26059592E+00 0.46855227E+04</pdfrwt>
<totfact> 0.50342384E-02</totfact>
</mgrwt>
</event>
<event>
11    1  0.1463487E-012  0.2674233E+04  0.7818608E-02  0.8343414E-01
         -2   -1    0    0    0  501 -0.00000000000E+00  0.00000000000E+00  0.10857321361E+04  0.10857321361E+04  0.00000000000E+00 0. -1.
          2   -1    0    0  501    0  0.00000000000E+00 -0.00000000000E+00 -0.16467044675E+04  0.16467044675E+04  0.00000000000E+00 0.  1.
    9900016    2    1    2    0    0  0.35037592837E+03 -0.11629486879E+03 -0.34623755753E+03  0.23053548658E+04  0.22491093400E+04 0.  0.
         24    2    3    3    0    0  0.31750816586E+03 -0.29391873590E+03  0.65977547946E+03  0.79276126149E+03  0.77246849313E+02 0.  0.
        -15    1    3    3    0    0  0.18615688174E+03 -0.21991049344E+03 -0.46926342378E+03  0.55065703540E+03  0.00000000000E+00 0.  1.
        -15    1    4    4    0    0  0.18089084857E+03 -0.20492389353E+03  0.45771734815E+03  0.53312331785E+03  0.00000000000E+00 0.  1.
         15    1    3    3    0    0 -0.10575037248E+03  0.29007908229E+03 -0.39527364510E+02  0.31127387910E+03  0.00000000000E+00 0. -1.
         15    1    3    3    0    0 -0.95659100076E+02  0.12986794292E+03 -0.51851424634E+03  0.54302243940E+03  0.00000000000E+00 0. -1.
        -16    1    1    2    0    0 -0.35037592837E+03  0.11629486879E+03 -0.21473477390E+03  0.42708173786E+03  0.00000000000E+00 0.  1.
         16    1    4    4    0    0  0.13661731729E+03 -0.88994842376E+02  0.20205813130E+03  0.25963794365E+03  0.00000000000E+00 0. -1.
    9900018    1    3    3    0    0  0.48120353323E+02 -0.22412664662E+02  0.21291997647E+02  0.10764025037E+03  0.91187600000E+02 0.  0.
<mgrwt>
<rscale>  0 0.26742326E+04</rscale>
<asrwt>0</asrwt>
<pdfrwt beam="1">  1        2 0.25333915E+00 0.26742326E+04</pdfrwt>
<pdfrwt beam="2">  1       -2 0.16703571E+00 0.26742326E+04</pdfrwt>
<totfact> 0.20665708E+00</totfact>
</mgrwt>
</event>
<event>
11    1  0.1463487E-012  0.2569740E+04  0.7818608E-02  0.8378553E-01
          1   -1    0    0  501    0  0.00000000000E+00  0.00000000000E+00  0.12545393383E+04  0.12545393383E+04  0.00000000000E+00 0. -1.
         -1   -1    0    0    0  501 -0.00000000000E+00 -0.00000000000E+00 -0.13159339757E+04  0.13159339757E+04  0.00000000000E+00 0.  1.
    9900016    2    1    2    0    0  0.14974238790E+03 -0.14493128161E+03 -0.28050380999E+03  0.22680883134E+04  0.22410074410E+04 0.  0.
        -24    2    3    3    0    0  0.33301460761E+03  0.15613909184E+03  0.15934464736E+03  0.40859188763E+03  0.79236791382E+02 0.  0.
        -15    1    3    3    0    0 -0.37306726376E+03  0.62292812055E+03 -0.22047524568E+02  0.72643287371E+03  0.00000000000E+00 0.  1.
        -15    1    3    3    0    0  0.23608326231E+03 -0.53438261160E+03 -0.28712155533E+03  0.65095227924E+03  0.00000000000E+00 0.  1.
         15    1    4    4    0    0  0.28856606413E+03  0.16242358385E+03  0.14470739733E+03  0.36137518564E+03  0.00000000000E+00 0. -1.
         15    1    3    3    0    0 -0.54136812364E+02 -0.36534203454E+03 -0.10663369919E+03  0.38441688628E+03  0.00000000000E+00 0. -1.
        -16    1    4    4    0    0  0.44448543488E+02 -0.62844920097E+01  0.14637250029E+02  0.47216701986E+02  0.00000000000E+00 0.  1.
         16    1    1    2    0    0 -0.14974238790E+03  0.14493128161E+03  0.21910917256E+03  0.30238500067E+03  0.00000000000E+00 0. -1.
    9900018    1    3    3    0    0  0.78485941103E+01 -0.24273847869E+02 -0.24045678262E+02  0.97694386516E+02  0.91187600000E+02 0.  0.
<mgrwt>
<rscale>  0 0.25697400E+04</rscale>
<asrwt>0</asrwt>
<pdfrwt beam="1">  1        1 0.19300605E+00 0.25697400E+04</pdfrwt>
<pdfrwt beam="2">  1       -1 0.20245138E+00 0.25697400E+04</pdfrwt>
<totfact> 0.12467837E+00</totfact>
</mgrwt>
</event>
<event>
11    1  0.1463487E-012  0.3083738E+04  0.7818608E-02  0.8220215E-01
          2   -1    0    0  501    0  0.00000000000E+00  0.00000000000E+00  0.96956269773E+03  0.96956269773E+03  0.00000000000E+00 0. -1.
         -2   -1    0    0    0  501 -0.00000000000E+00 -0.00000000000E+00 -0.24519916321E+04  0.24519916321E+04  0.00000000000E+00 0.  1.
    9900016    2    1    2    0    0 -0.49441899452E+03  0.16136538177E+03 -0.17006272812E+04  0.28575512739E+04  0.22367336017E+04 0.  0.
        -24    2    3    3    0    0  0.10965417158E+03  0.11583688591E+03  0.13578364917E+03  0.22425233670E+03  0.80060537415E+02 0.  0.
        -15    1    3    3    0    0  0.17419599770E+03 -0.50781905872E+02 -0.23605186243E+03  0.29773063217E+03  0.00000000000E+00 0.  1.
        -15    1    3    3    0    0 -0.31173378561E+03  0.72649906594E+03 -0.95761059669E+03  0.12417716782E+04  0.00000000000E+00 0.  1.
         15    1    4    4    0    0  0.11410493079E+03  0.75701093824E+02  0.93664870115E+02  0.16590267849E+03  0.00000000000E+00 0. -1.
         15    1    3    3    0    0 -0.45949462240E+03 -0.64521490537E+03 -0.58289557577E+03  0.98346572609E+03  0.00000000000E+00 0. -1.
        -16    1    4    4    0    0 -0.44507592120E+01  0.40135792090E+02  0.42118779051E+02  0.58349658208E+02  0.00000000000E+00 0.  1.
         16    1    1    2    0    0  0.49441899452E+03 -0.16136538177E+03  0.21819834681E+03  0.56400305595E+03  0.00000000000E+00 0. -1.
    9900018    1    3    3    0    0 -0.70407557717E+01  0.15026241162E+02 -0.59852895435E+02  0.11033090071E+03  0.91187600000E+02 0.  0.
<mgrwt>
<rscale>  0 0.30837377E+04</rscale>
<asrwt>0</asrwt>
<pdfrwt beam="1">  1        2 0.14916349E+00 0.30837377E+04</pdfrwt>
<pdfrwt beam="2">  1       -2 0.37722948E+00 0.30837377E+04</pdfrwt>
<totfact> 0.23366047E-01</totfact>
</mgrwt>
</event>
<event>
11    1  0.1463487E-012  0.3204302E+04  0.7818608E-02  0.8187682E-01
         -2   -1    0    0    0  501 -0.00000000000E+00  0.00000000000E+00  0.10275927904E+04  0.10275927904E+04  0.00000000000E+00 0.  1.
          2   -1    0    0  501    0  0.00000000000E+00 -0.00000000000E+00 -0.24979619750E+04  0.24979619750E+04  0.00000000000E+00 0. -1.
    9900016    2    1    2    0    0  0.51385194434E+03  0.61822946593E+03 -0.12145975393E+04  0.26819490353E+04  0.22519662414E+04 0.  0.
        -24    2    3    3    0    0 -0.12357333353E+03 -0.15452656570E+03 -0.86067998430E+03  0.88671792780E+03  0.79685756773E+02 0.  0.
        -15    1    3    3    0    0  0.60112397783E+03  0.57394924528E+03  0.34403056436E+03  0.89951364753E+03  0.00000000000E+00 0.  1.
        -15    1    3    3    0    0  0.56590940992E+02  0.19407703907E+03 -0.65328203817E+03  0.68384636659E+03  0.00000000000E+00 0.  1.
         15    1    3    3    0    0 -0.62194174253E+02 -0.57336764419E+02 -0.40534596362E+02  0.93801243954E+02  0.00000000000E+00 0. -1.
         15    1    4    4    0    0 -0.11505551867E+03 -0.13354034329E+03 -0.60831707365E+03  0.63334071223E+03  0.00000000000E+00 0. -1.
        -16    1    4    4    0    0 -0.85178148630E+01 -0.20986222416E+02 -0.25236291065E+03  0.25337721558E+03  0.00000000000E+00 0.  1.
         16    1    1    2    0    0 -0.51385194434E+03 -0.61822946593E+03 -0.25577164536E+03  0.84360573008E+03  0.00000000000E+00 0. -1.
    9900018    1    3    3    0    0  0.41904533296E+02  0.62066511701E+02 -0.41314847784E+01  0.11806984944E+03  0.91187600000E+02 0.  0.
<mgrwt>
<rscale>  0 0.32043019E+04</rscale>
<asrwt>0</asrwt>
<pdfrwt beam="1">  1        2 0.38430183E+00 0.32043019E+04</pdfrwt>
<pdfrwt beam="2">  1       -2 0.15809120E+00 0.32043019E+04</pdfrwt>
<totfact> 0.76453979E-01</totfact>
</mgrwt>
</event>
<event>
11    1  0.1505554E-012  0.2725406E+04  0.7818608E-02  0.8326808E-01
          1   -1    0    0  501    0  0.00000000000E+00  0.00000000000E+00  0.46040999098E+04  0.46040999098E+04  0.00000000000E+00 0. -1.
         -1   -1    0    0    0  501 -0.00000000000E+00 -0.00000000000E+00 -0.40332734052E+03  0.40332734052E+03  0.00000000000E+00 0.  1.
    9900016    2    1    2    0    0  0.54294149140E+02  0.18020796172E+03  0.42475250641E+04  0.48134979852E+04  0.22567390013E+04 0.  0.
         24    2    3    3    0    0 -0.51551426356E+03  0.41696107671E+03  0.36320453736E+03  0.76024324576E+03  0.80254354109E+02 0.  0.
        -15    1    3    3    0    0  0.84021126327E+02 -0.25505230618E+02  0.17267150029E+03  0.19371503161E+03  0.00000000000E+00 0.  1.
        -15    1    4    4    0    0 -0.35396786072E+03  0.30095075661E+03  0.29322652236E+03  0.54940549482E+03  0.00000000000E+00 0.  1.
         15    1    3    3    0    0  0.66970440533E+03 -0.30202585438E+03  0.30650474256E+04  0.31518628346E+04  0.00000000000E+00 0. -1.
         15    1    3    3    0    0 -0.15706516616E+03  0.84928514552E+02  0.30880542686E+03  0.35671152303E+03  0.00000000000E+00 0. -1.
        -16    1    1    2    0    0 -0.54294149140E+02 -0.18020796172E+03 -0.46752494773E+02  0.19392926511E+03  0.00000000000E+00 0.  1.
         16    1    4    4    0    0 -0.16154640284E+03  0.11601032010E+03  0.69978014998E+02  0.21083775094E+03  0.00000000000E+00 0. -1.
    9900018    1    3    3    0    0 -0.26851952795E+02  0.58494554570E+01  0.33779617397E+03  0.35096535020E+03  0.91187600000E+02 0.  0.
<mgrwt>
<rscale>  0 0.27254059E+04</rscale>
<asrwt>0</asrwt>
<pdfrwt beam="1">  1        1 0.70832303E+00 0.27254059E+04</pdfrwt>
<pdfrwt beam="2">  1       -1 0.62050363E-01 0.27254059E+04</pdfrwt>
<totfact> 0.57662044E-02</totfact>
</mgrwt>
</event>
<event>
11    1  0.1463487E-012  0.3798077E+04  0.7818608E-02  0.8046568E-01
          2   -1    0    0  501    0  0.00000000000E+00  0.00000000000E+00  0.22354994932E+04  0.22354994932E+04  0.00000000000E+00 0. -1.
         -2   -1    0    0    0  501 -0.00000000000E+00 -0.00000000000E+00 -0.16132177479E+04  0.16132177479E+04  0.00000000000E+00 0.  1.
    9900016    2    1    2    0    0 -0.41737914507E+03  0.42489585320E+03  0.15153879932E+04  0.27752273218E+04  0.22473860552E+04 0.  0.
         24    2    3    3    0    0 -0.47445735612E+03  0.44725342506E+03  0.49722182222E+03  0.82390028726E+03  0.80229258037E+02 0.  0.
        -15    1    3    3    0    0  0.40252625286E+03 -0.24124828489E+02 -0.95517966228E+02  0.41440689361E+03  0.00000000000E+00 0.  1.
        -15    1    4    4    0    0 -0.17624017871E+03  0.21439092535E+03  0.23356613472E+03  0.36273572853E+03  0.00000000000E+00 0.  1.
         15    1    3    3    0    0  0.22715164684E+03  0.26661476154E+03  0.46537146670E+03  0.58245334899E+03  0.00000000000E+00 0. -1.
         15    1    3    3    0    0 -0.54306583454E+03 -0.26089973218E+03  0.53248595181E+03  0.80407117830E+03  0.00000000000E+00 0. -1.
        -16    1    1    2    0    0  0.41737914507E+03 -0.42489585320E+03 -0.89310624787E+03  0.10734899193E+04  0.00000000000E+00 0.  1.
         16    1    4    4    0    0 -0.29821717742E+03  0.23286249971E+03  0.26365568749E+03  0.46116455873E+03  0.00000000000E+00 0. -1.
    9900018    1    3    3    0    0 -0.29533854112E+02 -0.39477727304E+01  0.11582671867E+03  0.15039561363E+03  0.91187600000E+02 0.  0.
<mgrwt>
<rscale>  0 0.37980771E+04</rscale>
<asrwt>0</asrwt>
<pdfrwt beam="1">  1        2 0.34392300E+00 0.37980771E+04</pdfrwt>
<pdfrwt beam="2">  1       -2 0.24818735E+00 0.37980771E+04</pdfrwt>
<totfact> 0.26076252E-01</totfact>
</mgrwt>
</event>
<event>
11    1  0.1463487E-012  0.3348329E+04  0.7818608E-02  0.8150706E-01
          1   -1    0    0  501    0  0.00000000000E+00  0.00000000000E+00  0.19159323186E+04  0.19159323186E+04  0.00000000000E+00 0. -1.
         -1   -1    0    0    0  501 -0.00000000000E+00 -0.00000000000E+00 -0.14629045053E+04  0.14629045053E+04  0.00000000000E+00 0.  1.
    9900016    2    1    2    0    0 -0.23935752160E+03 -0.63355581993E+03  0.94655485350E+03  0.25408308933E+04  0.22585771047E+04 0.  0.
         24    2    3    3    0    0  0.38015158620E+03  0.17193719555E+03  0.75988054932E+03  0.87058228253E+03  0.80108886630E+02 0.  0.
        -15    1    4    4    0    0  0.71707657765E+02  0.17076088769E+01  0.10922876147E+03  0.13067450571E+03  0.00000000000E+00 0.  1.
        -15    1    3    3    0    0 -0.22884388467E+03 -0.80941644778E+01  0.34083513299E+02  0.23150966487E+03  0.00000000000E+00 0.  1.
         15    1    3    3    0    0  0.88999262933E+02 -0.30041843893E+03  0.50248842991E+03  0.59217119944E+03  0.00000000000E+00 0. -1.
         15    1    3    3    0    0 -0.48839375052E+03 -0.43125967327E+03 -0.33567412856E+03  0.73293279496E+03  0.00000000000E+00 0. -1.
        -16    1    1    2    0    0  0.23935752160E+03  0.63355581993E+03 -0.49352704021E+03  0.83800593049E+03  0.00000000000E+00 0.  1.
         16    1    4    4    0    0  0.30844392843E+03  0.17022958667E+03  0.65065178785E+03  0.73990777682E+03  0.00000000000E+00 0. -1.
    9900018    1    3    3    0    0  0.87292644619E+01 -0.65720738801E+02 -0.14223510467E+02  0.11363495154E+03  0.91187600000E+02 0.  0.
<mgrwt>
<rscale>  0 0.33483286E+04</rscale>
<asrwt>0</asrwt>
<pdfrwt beam="1">  1        1 0.29475882E+00 0.33483286E+04</pdfrwt>
<pdfrwt beam="2">  1       -1 0.22506223E+00 0.33483286E+04</pdfrwt>
<totfact> 0.28588201E-01</totfact>
</mgrwt>
</event>
<event>
11    1  0.1463487E-012  0.3078532E+04  0.7818608E-02  0.8221655E-01
          2   -1    0    0  501    0  0.00000000000E+00  0.00000000000E+00  0.11876886583E+04  0.11876886583E+04  0.00000000000E+00 0. -1.
         -2   -1    0    0    0  501 -0.00000000000E+00 -0.00000000000E+00 -0.19949160571E+04  0.19949160571E+04  0.00000000000E+00 0.  1.
    9900016    2    1    2    0    0 -0.52749830927E+03  0.30068129812E+03 -0.30433279081E+03  0.22618042622E+04  0.21574235476E+04 0.  0.
         24    2    3    3    0    0  0.21821112276E+03 -0.76550214479E+02 -0.58022015914E+03  0.62944390404E+03  0.77898432761E+02 0.  0.
        -15    1    4    4    0    0  0.97910430578E+02  0.59573168245E+01 -0.22709536405E+03  0.24737470852E+03  0.00000000000E+00 0.  1.
        -15    1    3    3    0    0 -0.28507957375E+03  0.22139994969E+03 -0.67487414534E+02  0.36720954809E+03  0.00000000000E+00 0.  1.
         15    1    3    3    0    0 -0.17363130308E+03 -0.28642084757E+03  0.59359450537E+03  0.68157110277E+03  0.00000000000E+00 0. -1.
         15    1    3    3    0    0 -0.28699855519E+03  0.44225241048E+03 -0.25021972250E+03  0.58357970731E+03  0.00000000000E+00 0. -1.
        -16    1    1    2    0    0  0.53795778300E+03 -0.33931750048E+03 -0.51773816613E+03  0.82011447438E+03  0.00000000000E+00 0.  1.
         16    1    4    4    0    0  0.12030069218E+03 -0.82507531304E+02 -0.35312479509E+03  0.38206919552E+03  0.00000000000E+00 0. -1.
    9900018    1    1    2    0    0 -0.10459473732E+02  0.38636202359E+02  0.14843558115E+02  0.10068597884E+03  0.91187600000E+02 0.  0.
<mgrwt>
<rscale>  0 0.30785316E+04</rscale>
<asrwt>0</asrwt>
<pdfrwt beam="1">  1        2 0.18272133E+00 0.30785316E+04</pdfrwt>
<pdfrwt beam="2">  1       -2 0.30691016E+00 0.30785316E+04</pdfrwt>
<totfact> 0.47232286E-01</totfact>
</mgrwt>
</event>
<event>
11    1  0.1463487E-012  0.2647814E+04  0.7818608E-02  0.8352139E-01
         -1   -1    0    0    0  501 -0.00000000000E+00  0.00000000000E+00  0.41173953096E+03  0.41173953096E+03  0.00000000000E+00 0.  1.
          1   -1    0    0  501    0  0.00000000000E+00 -0.00000000000E+00 -0.42568896877E+04  0.42568896877E+04  0.00000000000E+00 0. -1.
    9900016    2    1    2    0    0  0.71748844074E+02  0.34147042878E+03 -0.35396571739E+04  0.42048664421E+04  0.22427614534E+04 0.  0.
         24    2    3    3    0    0 -0.36304573755E+03 -0.27756698791E+03 -0.76669663605E+03  0.89652505401E+03  0.84189075283E+02 0.  0.
        -15    1    3    3    0    0 -0.38890649291E+03  0.71140745637E+03 -0.12100118733E+04  0.14565292866E+04  0.00000000000E+00 0.  1.
        -15    1    4    4    0    0 -0.96300821851E+02 -0.32825756421E+02 -0.14552565261E+03  0.17756433803E+03  0.00000000000E+00 0.  1.
         15    1    3    3    0    0 -0.20587368620E+02  0.34161005091E+02 -0.14466411700E+02  0.42427480281E+02  0.00000000000E+00 0. -1.
         15    1    3    3    0    0  0.81169242283E+03 -0.16850310793E+03 -0.13398352807E+04  0.15755622698E+04  0.00000000000E+00 0. -1.
        -16    1    1    2    0    0 -0.71748844074E+02 -0.34147042878E+03 -0.30549298280E+03  0.46376277653E+03  0.00000000000E+00 0.  1.
         16    1    4    4    0    0 -0.26674491570E+03 -0.24474123148E+03 -0.62117098344E+03  0.71896071597E+03  0.00000000000E+00 0. -1.
    9900018    1    3    3    0    0  0.32596020331E+02  0.41972063156E+02 -0.20864697221E+03  0.23382235144E+03  0.91187600000E+02 0.  0.
<mgrwt>
<rscale>  0 0.26478140E+04</rscale>
<asrwt>0</asrwt>
<pdfrwt beam="1">  1        1 0.65490608E+00 0.26478140E+04</pdfrwt>
<pdfrwt beam="2">  1       -1 0.63344546E-01 0.26478140E+04</pdfrwt>
<totfact> 0.12426355E-01</totfact>
</mgrwt>
</event>
<event>
11    1  0.1463487E-012  0.2774248E+04  0.7818608E-02  0.8311308E-01
         -1   -1    0    0    0  501 -0.00000000000E+00  0.00000000000E+00  0.61155308650E+03  0.61155308650E+03  0.00000000000E+00 0.  1.
          1   -1    0    0  501    0  0.00000000000E+00 -0.00000000000E+00 -0.31462735304E+04  0.31462735304E+04  0.00000000000E+00 0. -1.
    9900016    2    1    2    0    0 -0.52791866178E+02 -0.22557971398E+03 -0.25045497396E+04  0.33081494326E+04  0.21488159720E+04 0.  0.
         24    2    3    3    0    0 -0.64489396150E+03  0.37454108487E+02 -0.71256887588E+03  0.96507674663E+03  0.79546792454E+02 0.  0.
        -15    1    3    3    0    0  0.89021122264E+02 -0.49968763954E+03 -0.28727470394E+03  0.58321458559E+03  0.00000000000E+00 0.  1.
        -15    1    4    4    0    0 -0.57010818353E+03  0.21175222601E+02 -0.65909556455E+03  0.87171021228E+03  0.00000000000E+00 0.  1.
         15    1    3    3    0    0  0.36342940886E+03  0.44759930981E+03 -0.13378596994E+04  0.14568097517E+04  0.00000000000E+00 0. -1.
         15    1    3    3    0    0  0.13965156420E+03 -0.21094549273E+03 -0.16684646037E+03  0.30304834866E+03  0.00000000000E+00 0. -1.
        -16    1    1    2    0    0  0.48498321311E+02  0.19414897147E+03  0.14673022292E+03  0.24814445110E+03  0.00000000000E+00 0.  1.
         16    1    4    4    0    0 -0.74785777970E+02  0.16278885886E+02 -0.53473311333E+02  0.93366534354E+02  0.00000000000E+00 0. -1.
    9900018    1    1    2    0    0  0.42935448666E+01  0.31430742506E+02 -0.17690092724E+03  0.20153273321E+03  0.91187600000E+02 0.  0.
<mgrwt>
<rscale>  0 0.27742482E+04</rscale>
<asrwt>0</asrwt>
<pdfrwt beam="1">  1        1 0.48404209E+00 0.27742482E+04</pdfrwt>
<pdfrwt beam="2">  1       -1 0.94085088E-01 0.27742482E+04</pdfrwt>
<totfact> 0.44247276E-01</totfact>
</mgrwt>
</event>
<event>
11    1  0.1463487E-012  0.2670828E+04  0.7818608E-02  0.8344533E-01
         -2   -1    0    0    0  501 -0.00000000000E+00  0.00000000000E+00  0.26327836388E+04  0.26327836388E+04  0.00000000000E+00 0.  1.
          2   -1    0    0  501    0  0.00000000000E+00 -0.00000000000E+00 -0.67735547392E+03  0.67735547392E+03  0.00000000000E+00 0. -1.
    9900016    2    1    2    0    0 -0.11426172149E+03  0.27361349471E+03  0.12609796922E+04  0.25122486465E+04  0.21525341791E+04 0.  0.
        -24    2    3    3    0    0 -0.46213763488E+03 -0.14824801209E+03  0.48634314560E+03  0.69159722568E+03  0.78920216878E+02 0.  0.
        -15    1    3    3    0    0  0.40814498021E+03 -0.35100747296E+03 -0.14185033270E+03  0.55669568691E+03  0.00000000000E+00 0.  1.
        -15    1    3    3    0    0  0.94307462369E+02  0.29700524204E+03  0.14327031962E+03  0.34297579469E+03  0.00000000000E+00 0.  1.
         15    1    4    4    0    0 -0.15021285110E+03 -0.39213433189E+02  0.10715460039E+03  0.18863642904E+03  0.00000000000E+00 0. -1.
         15    1    3    3    0    0 -0.15457652918E+03  0.47586373772E+03  0.77321655967E+03  0.92097993919E+03  0.00000000000E+00 0. -1.
        -16    1    4    4    0    0 -0.31192478379E+03 -0.10903457890E+03  0.37918854521E+03  0.50296079664E+03  0.00000000000E+00 0.  1.
         16    1    1    2    0    0  0.12036603266E+03 -0.26325165106E+03  0.59934848536E+03  0.66558847685E+03  0.00000000000E+00 0. -1.
    9900018    1    1    2    0    0 -0.61043111742E+01 -0.10361843650E+02  0.95099987363E+02  0.13230198944E+03  0.91187600000E+02 0.  0.
<mgrwt>
<rscale>  0 0.26708279E+04</rscale>
<asrwt>0</asrwt>
<pdfrwt beam="1">  1        2 0.10420854E+00 0.26708279E+04</pdfrwt>
<pdfrwt beam="2">  1       -2 0.40504363E+00 0.26708279E+04</pdfrwt>
<totfact> 0.25828162E-01</totfact>
</mgrwt>
</event>
<event>
11    1  0.1463487E-012  0.2620735E+04  0.7818608E-02  0.8361192E-01
         -1   -1    0    0    0  501 -0.00000000000E+00  0.00000000000E+00  0.42602961780E+03  0.42602961780E+03  0.00000000000E+00 0.  1.
          1   -1    0    0  501    0  0.00000000000E+00 -0.00000000000E+00 -0.40303839154E+04  0.40303839154E+04  0.00000000000E+00 0. -1.
    9900016    2    1    2    0    0 -0.14652076356E+03 -0.49225895134E+00 -0.25822840697E+04  0.34238942223E+04  0.22435222425E+04 0.  0.
        -24    2    3    3    0    0  0.16416630055E+03 -0.15533074773E+03  0.22302957885E+03  0.32974830479E+03  0.88958057784E+02 0.  0.
        -15    1    3    3    0    0  0.27930706108E+03 -0.22783616598E+03 -0.95429547753E+03  0.10200988243E+04  0.00000000000E+00 0.  1.
        -15    1    3    3    0    0 -0.11053259678E+03 -0.91803362004E+02 -0.43307045687E+03  0.45628426758E+03  0.00000000000E+00 0.  1.
         15    1    3    3    0    0 -0.48299192909E+03  0.46633196781E+03 -0.13343675770E+04  0.14937481509E+04  0.00000000000E+00 0. -1.
         15    1    4    4    0    0  0.94500902628E+02 -0.14389910152E+03  0.16301773091E+03  0.23709102178E+03  0.00000000000E+00 0. -1.
        -16    1    4    4    0    0  0.69665397923E+02 -0.11431646210E+02  0.60011847940E+02  0.92657283016E+02  0.00000000000E+00 0.  1.
         16    1    1    2    0    0  0.14652076356E+03  0.49225895134E+00 -0.10220702279E+04  0.10325193108E+04  0.00000000000E+00 0. -1.
    9900018    1    3    3    0    0  0.35304006799E+01  0.81460489627E+01 -0.83580137120E+02  0.12401467477E+03  0.91187600000E+02 0.  0.
<mgrwt>
<rscale>  0 0.26207349E+04</rscale>
<asrwt>0</asrwt>
<pdfrwt beam="1">  1        1 0.62005906E+00 0.26207349E+04</pdfrwt>
<pdfrwt beam="2">  1       -1 0.65543018E-01 0.26207349E+04</pdfrwt>
<totfact> 0.18742499E-01</totfact>
</mgrwt>
</event>
<event>
11    1  0.1463487E-012  0.4207182E+04  0.7818608E-02  0.7964008E-01
          2   -1    0    0  501    0  0.00000000000E+00  0.00000000000E+00  0.21267654340E+04  0.21267654340E+04  0.00000000000E+00 0. -1.
         -2   -1    0    0    0  501 -0.00000000000E+00 -0.00000000000E+00 -0.20806688538E+04  0.20806688538E+04  0.00000000000E+00 0.  1.
    9900016    2    1    2    0    0  0.13492458168E+02  0.45700111385E+03 -0.13419757855E+04  0.25795142847E+04  0.21549855850E+04 0.  0.
        -24    2    3    3    0    0 -0.34690307783E+03  0.26545339787E+03  0.41207622445E+03  0.60591502502E+03  0.80740020674E+02 0.  0.
        -15    1    3    3    0    0 -0.93265321540E+02  0.11683418632E+02 -0.12413090182E+03  0.15570293273E+03  0.00000000000E+00 0.  1.
        -15    1    3    3    0    0  0.49591890697E+03  0.30788259527E+03 -0.15608336400E+04  0.16664119859E+04  0.00000000000E+00 0.  1.
         15    1    4    4    0    0 -0.23100670549E+03  0.13874935232E+03  0.28551367359E+03  0.39259844441E+03  0.00000000000E+00 0. -1.
         15    1    3    3    0    0 -0.42258049434E+02 -0.12801829792E+03 -0.69087468139E+02  0.15148434110E+03  0.00000000000E+00 0. -1.
        -16    1    4    4    0    0 -0.11589637234E+03  0.12670404555E+03  0.12656255086E+03  0.21331658061E+03  0.00000000000E+00 0.  1.
         16    1    1    2    0    0 -0.22493750414E+02 -0.48695767500E+03  0.14386917447E+04  0.15190351156E+04  0.00000000000E+00 0. -1.
    9900018    1    1    2    0    0  0.90012922456E+01  0.29956561151E+02 -0.50619378931E+02  0.10888488754E+03  0.91187600000E+02 0.  0.
<mgrwt>
<rscale>  0 0.42071818E+04</rscale>
<asrwt>0</asrwt>
<pdfrwt beam="1">  1        2 0.32719468E+00 0.42071818E+04</pdfrwt>
<pdfrwt beam="2">  1       -2 0.32010290E+00 0.42071818E+04</pdfrwt>
<totfact> 0.10529522E-01</totfact>
</mgrwt>
</event>
<event>
11    1  0.1463487E-012  0.2788386E+04  0.7818608E-02  0.8306883E-01
         -1   -1    0    0    0  501 -0.00000000000E+00  0.00000000000E+00  0.13784508921E+04  0.13784508921E+04  0.00000000000E+00 0.  1.
          1   -1    0    0  501    0  0.00000000000E+00 -0.00000000000E+00 -0.14101153463E+04  0.14101153463E+04  0.00000000000E+00 0. -1.
    9900016    2    1    2    0    0  0.30360439000E+03 -0.11915184853E+03 -0.33126775739E+03  0.22027989609E+04  0.21531865099E+04 0.  0.
         24    2    3    3    0    0  0.32054239612E+03  0.23093551438E+03 -0.45486408262E+03  0.60745473888E+03  0.77596949753E+02 0.  0.
        -15    1    3    3    0    0 -0.39304797240E+03  0.30767578630E+03  0.32428427869E+03  0.59524061647E+03  0.00000000000E+00 0.  1.
        -15    1    4    4    0    0  0.50071606152E+02  0.14971180428E+02 -0.93241677425E+02  0.10688925294E+03  0.00000000000E+00 0.  1.
         15    1    3    3    0    0  0.50514957397E+03 -0.29819115584E+03 -0.19459394644E+03  0.61802982249E+03  0.00000000000E+00 0. -1.
         15    1    3    3    0    0 -0.12903960768E+03 -0.35957199337E+03 -0.60940070232E+01  0.38207378305E+03  0.00000000000E+00 0. -1.
        -16    1    1    2    0    0 -0.32004075483E+03  0.12773652784E+03  0.34021200122E+03  0.48423848574E+03  0.00000000000E+00 0.  1.
         16    1    4    4    0    0  0.27047078997E+03  0.21596433395E+03 -0.36162240520E+03  0.50056548593E+03  0.00000000000E+00 0. -1.
    9900018    1    1    2    0    0  0.16436364826E+02 -0.85846793014E+01 -0.40608698076E+02  0.10152879178E+03  0.91187600000E+02 0.  0.
<mgrwt>
<rscale>  0 0.27883865E+04</rscale>
<asrwt>0</asrwt>
<pdfrwt beam="1">  1        1 0.21694082E+00 0.27883865E+04</pdfrwt>
<pdfrwt beam="2">  1       -1 0.21206937E+00 0.27883865E+04</pdfrwt>
<totfact> 0.81526571E-01</totfact>
</mgrwt>
</event>
<event>
11    1  0.1463487E-012  0.3350155E+04  0.7818608E-02  0.8150249E-01
         -1   -1    0    0    0  501 -0.00000000000E+00  0.00000000000E+00  0.14111852785E+04  0.14111852785E+04  0.00000000000E+00 0.  1.
          1   -1    0    0  501    0  0.00000000000E+00 -0.00000000000E+00 -0.19883178156E+04  0.19883178156E+04  0.00000000000E+00 0. -1.
    9900016    2    1    2    0    0  0.32227281784E+03 -0.74714371223E+03 -0.86415818513E+03  0.25366779563E+04  0.22418479407E+04 0.  0.
         24    2    3    3    0    0 -0.81493961248E+02 -0.47536558408E+03  0.31900920282E+03  0.58363134738E+03  0.79025147297E+02 0.  0.
        -15    1    3    3    0    0 -0.61576312896E+02  0.12439451295E+03 -0.83921090260E+02  0.16219860219E+03  0.00000000000E+00 0.  1.
        -15    1    4    4    0    0 -0.14967871589E+02 -0.36737066636E+02  0.47359514137E+01  0.39950950937E+02  0.00000000000E+00 0.  1.
         15    1    3    3    0    0  0.63054585550E+02  0.42649215870E+03 -0.42004760393E+03  0.60192311117E+03  0.00000000000E+00 0. -1.
         15    1    3    3    0    0  0.34095115598E+03 -0.78553109490E+03 -0.62904142116E+03  0.10625440703E+04  0.00000000000E+00 0. -1.
        -16    1    1    2    0    0 -0.32227281784E+03  0.74714371223E+03  0.28702564803E+03  0.86282513783E+03  0.00000000000E+00 0.  1.
         16    1    4    4    0    0 -0.66526089659E+02 -0.43862851745E+03  0.31427325141E+03  0.54368039644E+03  0.00000000000E+00 0. -1.
    9900018    1    3    3    0    0  0.61337350448E+02 -0.37133704907E+02 -0.50157272606E+02  0.12638082524E+03  0.91187600000E+02 0.  0.
<mgrwt>
<rscale>  0 0.33501551E+04</rscale>
<asrwt>0</asrwt>
<pdfrwt beam="1">  1        1 0.30589505E+00 0.33501551E+04</pdfrwt>
<pdfrwt beam="2">  1       -1 0.21710543E+00 0.33501551E+04</pdfrwt>
<totfact> 0.28858044E-01</totfact>
</mgrwt>
</event>
<event>
11    1  0.1463487E-012  0.2687870E+04  0.7818608E-02  0.8338951E-01
         -2   -1    0    0    0  501 -0.00000000000E+00  0.00000000000E+00  0.97282001003E+03  0.97282001003E+03  0.00000000000E+00 0.  1.
          2   -1    0    0  501    0  0.00000000000E+00 -0.00000000000E+00 -0.18566244717E+04  0.18566244717E+04  0.00000000000E+00 0. -1.
    9900016    2    1    2    0    0 -0.30740295437E+03  0.15820164772E+03 -0.98616534019E+03  0.24688864599E+04  0.22368178146E+04 0.  0.
         24    2    3    3    0    0  0.24354849160E+03 -0.26740628624E+03 -0.51898910367E+03  0.63769520315E+03  0.80520138513E+02 0.  0.
        -15    1    3    3    0    0 -0.20878794833E+03 -0.36471789122E+03 -0.53112167508E+03  0.67727526257E+03  0.00000000000E+00 0.  1.
        -15    1    4    4    0    0  0.65843566016E+02 -0.92518579899E+02 -0.10635892310E+03  0.15558689963E+03  0.00000000000E+00 0.  1.
         15    1    3    3    0    0 -0.10477363999E+03 -0.16101087881E+02 -0.15691505019E+03  0.18936497470E+03  0.00000000000E+00 0. -1.
         15    1    3    3    0    0 -0.22269919965E+03  0.77468808946E+03  0.27647848042E+03  0.85216014904E+03  0.00000000000E+00 0. -1.
        -16    1    1    2    0    0  0.30740295437E+03 -0.15820164772E+03  0.10236087852E+03  0.36055802189E+03  0.00000000000E+00 0.  1.
         16    1    4    4    0    0  0.17770492558E+03 -0.17488770634E+03 -0.41263018057E+03  0.48210830352E+03  0.00000000000E+00 0. -1.
    9900018    1    3    3    0    0 -0.14690658006E+02  0.31738823601E+02 -0.55617991669E+02  0.11239087039E+03  0.91187600000E+02 0.  0.
<mgrwt>
<rscale>  0 0.26878701E+04</rscale>
<asrwt>0</asrwt>
<pdfrwt beam="1">  1        2 0.28563453E+00 0.26878701E+04</pdfrwt>
<pdfrwt beam="2">  1       -2 0.14966462E+00 0.26878701E+04</pdfrwt>
<totfact> 0.21246896E+00</totfact>
</mgrwt>
</event>
<event>
11    1  0.1463487E-012  0.2987872E+04  0.7818608E-02  0.8247203E-01
         -1   -1    0    0    0  501 -0.00000000000E+00  0.00000000000E+00  0.58711716982E+03  0.58711716982E+03  0.00000000000E+00 0.  1.
          1   -1    0    0  501    0  0.00000000000E+00 -0.00000000000E+00 -0.38013606368E+04  0.38013606368E+04  0.00000000000E+00 0. -1.
    9900016    2    1    2    0    0 -0.29967143036E+03  0.56899317358E+02 -0.16757175558E+04  0.28200064241E+04  0.22475245064E+04 0.  0.
        -24    2    3    3    0    0 -0.13111927004E+03  0.58510399802E+03 -0.10170575763E+03  0.61357667870E+03  0.81199310577E+02 0.  0.
        -15    1    3    3    0    0  0.35676699141E+03  0.59176705199E+02 -0.50202948380E+03  0.61872301655E+03  0.00000000000E+00 0.  1.
        -15    1    3    3    0    0 -0.47940417587E+03 -0.47126068293E+03 -0.30982183569E+03  0.74020575855E+03  0.00000000000E+00 0.  1.
         15    1    3    3    0    0 -0.50329430634E+02 -0.15773684300E+03 -0.71979236073E+03  0.73858987658E+03  0.00000000000E+00 0. -1.
         15    1    4    4    0    0 -0.27284225433E+02  0.24689956341E+03 -0.12492462060E+02  0.24871647509E+03  0.00000000000E+00 0. -1.
        -16    1    4    4    0    0 -0.10383504461E+03  0.33820443460E+03 -0.89213295574E+02  0.36486020361E+03  0.00000000000E+00 0.  1.
         16    1    1    2    0    0  0.29967143036E+03 -0.56899317358E+02 -0.15385259111E+04  0.15684713825E+04  0.00000000000E+00 0. -1.
    9900018    1    3    3    0    0  0.44144547764E+01  0.41616140070E+02 -0.42368117990E+02  0.10891109375E+03  0.91187600000E+02 0.  0.
<mgrwt>
<rscale>  0 0.29878715E+04</rscale>
<asrwt>0</asrwt>
<pdfrwt beam="1">  1        1 0.58482472E+00 0.29878715E+04</pdfrwt>
<pdfrwt beam="2">  1       -1 0.90325717E-01 0.29878715E+04</pdfrwt>
<totfact> 0.14501220E-01</totfact>
</mgrwt>
</event>
<event>
11    1  0.1463487E-012  0.2737193E+04  0.7818608E-02  0.8323037E-01
          2   -1    0    0  501    0  0.00000000000E+00  0.00000000000E+00  0.65868023840E+03  0.65868023840E+03  0.00000000000E+00 0.  1.
         -2   -1    0    0    0  501 -0.00000000000E+00 -0.00000000000E+00 -0.28436510448E+04  0.28436510448E+04  0.00000000000E+00 0. -1.
    9900016    2    1    2    0    0 -0.18792624132E+03 -0.13359418141E+03 -0.12755077763E+04  0.25126209681E+04  0.21524823726E+04 0.  0.
        -24    2    3    3    0    0 -0.21716161303E+03 -0.63027346321E+03 -0.33611385503E+03  0.75086748157E+03  0.80160131799E+02 0.  0.
        -15    1    3    3    0    0  0.25784742078E+03  0.12011167110E+03  0.25913823766E+03  0.38479180365E+03  0.00000000000E+00 0.  1.
        -15    1    3    3    0    0 -0.20710688874E+03  0.25778342949E+02 -0.87406691835E+03  0.89863828323E+03  0.00000000000E+00 0.  1.
         15    1    4    4    0    0 -0.74478957850E+02 -0.31745038611E+03 -0.18904000591E+03  0.37690580605E+03  0.00000000000E+00 0. -1.
         15    1    3    3    0    0 -0.21505160336E+02  0.35078926776E+03 -0.32446524063E+03  0.47832339967E+03  0.00000000000E+00 0. -1.
        -16    1    4    4    0    0 -0.14268265518E+03 -0.31282307711E+03 -0.14707384912E+03  0.37396167552E+03  0.00000000000E+00 0.  1.
         16    1    1    2    0    0  0.18704462444E+03  0.17728893123E+03 -0.80092713313E+03  0.84136872371E+03  0.00000000000E+00 0. -1.
    9900018    1    1    2    0    0  0.88161688530E+00 -0.43694749820E+02 -0.10853589692E+03  0.14834159135E+03  0.91187600000E+02 0.  0.
<mgrwt>
<rscale>  0 0.27371933E+04</rscale>
<asrwt>0</asrwt>
<pdfrwt beam="1">  1        2 0.10133542E+00 0.27371933E+04</pdfrwt>
<pdfrwt beam="2">  1       -2 0.43748478E+00 0.27371933E+04</pdfrwt>
<totfact> 0.16232230E-01</totfact>
</mgrwt>
</event>
<event>
11    1  0.1463487E-012  0.2973248E+04  0.7818608E-02  0.8251412E-01
         -1   -1    0    0    0  501 -0.00000000000E+00  0.00000000000E+00  0.65519147176E+03  0.65519147176E+03  0.00000000000E+00 0.  1.
          1   -1    0    0  501    0  0.00000000000E+00 -0.00000000000E+00 -0.33731378911E+04  0.33731378911E+04  0.00000000000E+00 0. -1.
    9900016    2    1    2    0    0  0.36084299743E+03 -0.14430436727E+03 -0.14495839868E+04  0.26187596429E+04  0.21460607898E+04 0.  0.
        -24    2    3    3    0    0 -0.64578682226E+03 -0.16251140117E+03 -0.17966421635E+02  0.67091760578E+03  0.79731211703E+02 0.  0.
        -15    1    3    3    0    0  0.95496872030E+02  0.11982835202E+03  0.38341663270E+02  0.15795116225E+03  0.00000000000E+00 0.  1.
        -15    1    3    3    0    0  0.53773901428E+03  0.13597790775E+03 -0.10054457053E+04  0.11482919076E+04  0.00000000000E+00 0.  1.
         15    1    4    4    0    0 -0.38183665045E+03 -0.13609836484E+03 -0.71848574186E+01  0.40543016010E+03  0.00000000000E+00 0. -1.
         15    1    3    3    0    0  0.37339393339E+03 -0.23759922588E+03 -0.46451352318E+03  0.64159896730E+03  0.00000000000E+00 0. -1.
        -16    1    4    4    0    0 -0.26395017181E+03 -0.26413036323E+02 -0.10781564216E+02  0.26548744568E+03  0.00000000000E+00 0.  1.
         16    1    1    2    0    0 -0.39792247186E+03  0.90903235299E+02 -0.12219917045E+04  0.12883591959E+04  0.00000000000E+00 0. -1.
    9900018    1    1    2    0    0  0.37079474431E+02  0.53401131974E+02 -0.46370728062E+02  0.12121052403E+03  0.91187600000E+02 0.  0.
<mgrwt>
<rscale>  0 0.29732482E+04</rscale>
<asrwt>0</asrwt>
<pdfrwt beam="1">  1        1 0.51894429E+00 0.29732482E+04</pdfrwt>
<pdfrwt beam="2">  1       -1 0.10079869E+00 0.29732482E+04</pdfrwt>
<totfact> 0.25034431E-01</totfact>
</mgrwt>
</event>
<event>
11    1  0.1463487E-012  0.2702046E+04  0.7818608E-02  0.8334341E-01
         -2   -1    0    0    0  501 -0.00000000000E+00  0.00000000000E+00  0.83695564702E+03  0.83695564702E+03  0.00000000000E+00 0.  1.
          2   -1    0    0  501    0  0.00000000000E+00 -0.00000000000E+00 -0.21808360646E+04  0.21808360646E+04  0.00000000000E+00 0. -1.
    9900016    2    1    2    0    0 -0.65284068310E+02 -0.37803990723E+03 -0.10977537341E+04  0.24418025815E+04  0.21471284091E+04 0.  0.
        -24    2    3    3    0    0 -0.27781999648E+03  0.20649154201E+03 -0.33339369290E+03  0.48871008647E+03  0.88676303456E+02 0.  0.
        -15    1    3    3    0    0  0.75315838981E+03  0.12420876969E+03 -0.47585241090E+03  0.89950591747E+03  0.00000000000E+00 0.  1.
        -15    1    3    3    0    0 -0.18558429538E+03 -0.28953263749E+03  0.12508711030E+03  0.36594735144E+03  0.00000000000E+00 0.  1.
         15    1    3    3    0    0 -0.35503816627E+03 -0.41920758144E+03 -0.41359474058E+03  0.68763922610E+03  0.00000000000E+00 0. -1.
         15    1    4    4    0    0 -0.56068016472E+02  0.90420742462E+02 -0.11313361749E+03  0.15530212022E+03  0.00000000000E+00 0. -1.
        -16    1    4    4    0    0 -0.22175198000E+03  0.11607079955E+03 -0.22026007541E+03  0.33340796625E+03  0.00000000000E+00 0.  1.
         16    1    1    2    0    0  0.17683636302E+02  0.40967078402E+03 -0.21959147699E+03  0.46514866337E+03  0.00000000000E+00 0. -1.
    9900018    1    1    2    0    0  0.47600432008E+02 -0.31630876787E+02 -0.26535206526E+02  0.11084046677E+03  0.91187600000E+02 0.  0.
<mgrwt>
<rscale>  0 0.27020459E+04</rscale>
<asrwt>0</asrwt>
<pdfrwt beam="1">  1        2 0.33551323E+00 0.27020459E+04</pdfrwt>
<pdfrwt beam="2">  1       -2 0.12876241E+00 0.27020459E+04</pdfrwt>
<totfact> 0.20658942E+00</totfact>
</mgrwt>
</event>
<event>
11    1  0.1463487E-012  0.3022175E+04  0.7818608E-02  0.8237427E-01
          1   -1    0    0  501    0  0.00000000000E+00  0.00000000000E+00  0.22172041178E+04  0.22172041178E+04  0.00000000000E+00 0. -1.
         -1   -1    0    0    0  501 -0.00000000000E+00 -0.00000000000E+00 -0.10298493240E+04  0.10298493240E+04  0.00000000000E+00 0.  1.
    9900016    2    1    2    0    0 -0.67930060035E+03 -0.45537816475E+02  0.98902098618E+03  0.25379277142E+04  0.22359319249E+04 0.  0.
         24    2    3    3    0    0 -0.93245691895E+03  0.24663990586E+03  0.59559184568E+03  0.11363419802E+04  0.78970251196E+02 0.  0.
        -15    1    3    3    0    0  0.21246284323E+03 -0.40692317351E+03  0.32934574111E+03  0.56497393399E+03  0.00000000000E+00 0.  1.
        -15    1    4    4    0    0 -0.44091777562E+03  0.95005812109E+02  0.31756411111E+03  0.55161721679E+03  0.00000000000E+00 0.  1.
         15    1    3    3    0    0 -0.18990214996E+03 -0.20048453420E+03 -0.11357841494E+03  0.29859157951E+03  0.00000000000E+00 0. -1.
         15    1    3    3    0    0  0.24518851189E+03  0.33248242685E+03  0.15618379656E+03  0.44165070908E+03  0.00000000000E+00 0. -1.
        -16    1    1    2    0    0  0.67930060035E+03  0.45537816475E+02  0.19833380763E+03  0.70912572765E+03  0.00000000000E+00 0.  1.
         16    1    4    4    0    0 -0.49153914333E+03  0.15163409375E+03  0.27802773457E+03  0.58472476346E+03  0.00000000000E+00 0. -1.
    9900018    1    3    3    0    0 -0.14592886554E+02 -0.17252441461E+02  0.21478017769E+02  0.96369511337E+02  0.91187600000E+02 0.  0.
<mgrwt>
<rscale>  0 0.30221755E+04</rscale>
<asrwt>0</asrwt>
<pdfrwt beam="1">  1        1 0.34110833E+00 0.30221755E+04</pdfrwt>
<pdfrwt beam="2">  1       -1 0.15843836E+00 0.30221755E+04</pdfrwt>
<totfact> 0.54088606E-01</totfact>
</mgrwt>
</event>
<event>
11    1  0.1463487E-012  0.3127380E+04  0.7818608E-02  0.8208264E-01
          2   -1    0    0  501    0  0.00000000000E+00  0.00000000000E+00  0.10656488488E+04  0.10656488488E+04  0.00000000000E+00 0. -1.
         -2   -1    0    0    0  501 -0.00000000000E+00 -0.00000000000E+00 -0.22944952154E+04  0.22944952154E+04  0.00000000000E+00 0.  1.
    9900016    2    1    2    0    0  0.69442980308E+03 -0.11039245723E+03 -0.96951056943E+03  0.24602428801E+04  0.21490521257E+04 0.  0.
        -24    2    3    3    0    0  0.22164855132E+03 -0.58284019511E+03  0.26098268285E+03  0.68069874824E+03  0.80050307698E+02 0.  0.
        -15    1    3    3    0    0  0.33904281934E+03  0.36574699094E+03 -0.47391411914E+03  0.68797927806E+03  0.00000000000E+00 0.  1.
        -15    1    3    3    0    0  0.33948535901E+03 -0.14123253962E+03 -0.13544771955E+03  0.39184566345E+03  0.00000000000E+00 0.  1.
         15    1    4    4    0    0  0.72673862665E+02 -0.11027813822E+03  0.71772579127E+02  0.15031321033E+03  0.00000000000E+00 0. -1.
         15    1    3    3    0    0 -0.20574692660E+03  0.24793328656E+03 -0.62113141360E+03  0.69971919035E+03  0.00000000000E+00 0. -1.
        -16    1    4    4    0    0  0.14897468866E+03 -0.47256205689E+03  0.18921010373E+03  0.53038553792E+03  0.00000000000E+00 0.  1.
         16    1    1    2    0    0 -0.72834516851E+03  0.16749275708E+03 -0.20667704085E+03  0.77540693018E+03  0.00000000000E+00 0. -1.
    9900018    1    1    2    0    0  0.33915365426E+02 -0.57100299849E+02 -0.52658756359E+02  0.12449425396E+03  0.91187600000E+02 0.  0.
<mgrwt>
<rscale>  0 0.31273799E+04</rscale>
<asrwt>0</asrwt>
<pdfrwt beam="1">  1        2 0.16394598E+00 0.31273799E+04</pdfrwt>
<pdfrwt beam="2">  1       -2 0.35299926E+00 0.31273799E+04</pdfrwt>
<totfact> 0.28862858E-01</totfact>
</mgrwt>
</event>
<event>
11    1  0.1463487E-012  0.4519789E+04  0.7818608E-02  0.7907181E-01
         -1   -1    0    0    0  501 -0.00000000000E+00  0.00000000000E+00  0.20332710437E+04  0.20332710437E+04  0.00000000000E+00 0.  1.
          1   -1    0    0  501    0  0.00000000000E+00 -0.00000000000E+00 -0.25117770888E+04  0.25117770888E+04  0.00000000000E+00 0. -1.
    9900016    2    1    2    0    0 -0.10194252636E+04 -0.67652924431E+03 -0.13918433615E+04  0.28408157355E+04  0.21531573129E+04 0.  0.
         24    2    3    3    0    0 -0.25246394914E+03  0.40498616945E+03 -0.39236298336E+03  0.62209021546E+03  0.72771439450E+02 0.  0.
        -15    1    4    4    0    0 -0.24566205278E+03  0.39701187435E+03 -0.36445854816E+03  0.59228228564E+03  0.00000000000E+00 0.  1.
        -15    1    3    3    0    0 -0.10331293421E+02  0.14991271079E+03  0.13074584387E+03  0.19918592362E+03  0.00000000000E+00 0.  1.
         15    1    3    3    0    0 -0.49739368736E+03 -0.45427436143E+03 -0.97600925579E+03  0.11859003934E+04  0.00000000000E+00 0. -1.
         15    1    3    3    0    0 -0.25923633364E+03 -0.77715376312E+03 -0.15421696621E+03  0.83363920306E+03  0.00000000000E+00 0. -1.
        -16    1    1    2    0    0  0.10455736835E+04  0.72017469059E+03  0.95817688227E+03  0.15905907237E+04  0.00000000000E+00 0.  1.
         16    1    4    4    0    0 -0.68018963597E+01  0.79742950916E+01 -0.27904435199E+02  0.29807929819E+02  0.00000000000E+00 0. -1.
    9900018    1    1    2    0    0 -0.26148419898E+02 -0.43645446281E+02 -0.44839565946E+02  0.11364167331E+03  0.91187600000E+02 0.  0.
<mgrwt>
<rscale>  0 0.45197892E+04</rscale>
<asrwt>0</asrwt>
<pdfrwt beam="1">  1        1 0.38642724E+00 0.45197892E+04</pdfrwt>
<pdfrwt beam="2">  1       -1 0.31281093E+00 0.45197892E+04</pdfrwt>
<totfact> 0.27194325E-02</totfact>
</mgrwt>
</event>
<event>
11    1  0.1463487E-012  0.3071920E+04  0.7818608E-02  0.8223487E-01
          2   -1    0    0  501    0  0.00000000000E+00  0.00000000000E+00  0.38739484335E+04  0.38739484335E+04  0.00000000000E+00 0. -1.
         -2   -1    0    0    0  501 -0.00000000000E+00 -0.00000000000E+00 -0.60898397534E+03  0.60898397534E+03  0.00000000000E+00 0.  1.
    9900016    2    1    2    0    0 -0.47584811128E+02 -0.67998812599E+03  0.21252189746E+04  0.30985754778E+04  0.21494106485E+04 0.  0.
        -24    2    3    3    0    0 -0.50181619433E+03  0.31082752519E+03  0.53110270895E+03  0.79800009949E+03  0.79377755215E+02 0.  0.
        -15    1    3    3    0    0  0.29078006243E+03 -0.86503481561E+03  0.96445645621E+03  0.13277855749E+04  0.00000000000E+00 0.  1.
        -15    1    3    3    0    0 -0.23894426275E+03 -0.21721408944E+03  0.21601248061E+03  0.38850703100E+03  0.00000000000E+00 0.  1.
         15    1    3    3    0    0  0.40239558353E+03  0.91433253868E+02  0.41364732882E+03  0.58428277246E+03  0.00000000000E+00 0. -1.
         15    1    4    4    0    0 -0.30913020873E+03  0.21429133961E+03  0.38080546438E+03  0.53525233851E+03  0.00000000000E+00 0. -1.
        -16    1    4    4    0    0 -0.19268598560E+03  0.96536185582E+02  0.15029724457E+03  0.26274776098E+03  0.00000000000E+00 0.  1.
         16    1    1    2    0    0  0.62244080129E+02  0.66953899756E+03  0.10850371551E+04  0.12765039846E+04  0.00000000000E+00 0. -1.
    9900018    1    1    2    0    0 -0.14659269001E+02  0.10449128435E+02  0.54708328470E+02  0.10785294642E+03  0.91187600000E+02 0.  0.
<mgrwt>
<rscale>  0 0.30719196E+04</rscale>
<asrwt>0</asrwt>
<pdfrwt beam="1">  1        2 0.59599205E+00 0.30719196E+04</pdfrwt>
<pdfrwt beam="2">  1       -2 0.93689845E-01 0.30719196E+04</pdfrwt>
<totfact> 0.35257808E-01</totfact>
</mgrwt>
</event>
<event>
11    1  0.1463487E-012  0.2720837E+04  0.7818608E-02  0.8328275E-01
          2   -1    0    0  501    0  0.00000000000E+00  0.00000000000E+00  0.24987718455E+04  0.24987718455E+04  0.00000000000E+00 0.  1.
         -2   -1    0    0    0  501 -0.00000000000E+00 -0.00000000000E+00 -0.74065950314E+03  0.74065950314E+03  0.00000000000E+00 0. -1.
    9900016    2    1    2    0    0 -0.55353841520E+02  0.27817066513E+02  0.19003132335E+04  0.28709678879E+04  0.21511458320E+04 0.  0.
        -24    2    3    3    0    0 -0.32541536337E+03  0.38401828401E+02  0.54835267737E+03  0.64376022813E+03  0.79791687587E+02 0.  0.
        -15    1    3    3    0    0  0.46899493824E+03 -0.72566480324E+03  0.11447640542E+04  0.14342351267E+04  0.00000000000E+00 0.  1.
        -15    1    3    3    0    0 -0.45003699136E+02  0.49385498838E+03  0.13187820228E+03  0.51313735269E+03  0.00000000000E+00 0.  1.
         15    1    3    3    0    0 -0.15392971725E+03  0.22122505297E+03  0.75318299661E+02  0.27983518038E+03  0.00000000000E+00 0. -1.
         15    1    4    4    0    0 -0.13557595239E+03  0.23683814840E+02  0.30622989715E+03  0.33573577686E+03  0.00000000000E+00 0. -1.
        -16    1    4    4    0    0 -0.18983941098E+03  0.14718013561E+02  0.24212278021E+03  0.30802445127E+03  0.00000000000E+00 0.  1.
         16    1    1    2    0    0  0.69958699588E+01 -0.18857571302E+02 -0.23108328142E+03  0.23195696399E+03  0.00000000000E+00 0. -1.
    9900018    1    1    2    0    0  0.48357971561E+02 -0.89594952113E+01  0.88882390240E+02  0.13650649676E+03  0.91187600000E+02 0.  0.
<mgrwt>
<rscale>  0 0.27208375E+04</rscale>
<asrwt>0</asrwt>
<pdfrwt beam="1">  1        2 0.38442643E+00 0.27208375E+04</pdfrwt>
<pdfrwt beam="2">  1       -2 0.11394762E+00 0.27208375E+04</pdfrwt>
<totfact> 0.18411028E+00</totfact>
</mgrwt>
</event>
<event>
11    1  0.1463487E-012  0.3159958E+04  0.7818608E-02  0.8199473E-01
         -2   -1    0    0    0  501 -0.00000000000E+00  0.00000000000E+00  0.16817190124E+04  0.16817190124E+04  0.00000000000E+00 0.  1.
          2   -1    0    0  501    0  0.00000000000E+00 -0.00000000000E+00 -0.14843941788E+04  0.14843941788E+04  0.00000000000E+00 0. -1.
    9900016    2    1    2    0    0  0.12836427086E+03  0.73455606835E+03  0.34773297919E+03  0.23131352881E+04  0.21618572184E+04 0.  0.
        -24    2    3    3    0    0  0.23720938340E+03 -0.21255582998E+03 -0.12331409462E+03  0.34970184921E+03  0.75078259018E+02 0.  0.
        -15    1    3    3    0    0 -0.40922547001E+03  0.62065865055E+02 -0.73422060863E+02  0.42036704905E+03  0.00000000000E+00 0.  1.
        -15    1    3    3    0    0  0.50759460907E+03  0.55685709851E+03 -0.13026397903E+03  0.76466386050E+03  0.00000000000E+00 0.  1.
         15    1    3    3    0    0 -0.20721425161E+03  0.32818893477E+03  0.67473311369E+03  0.77840252934E+03  0.00000000000E+00 0. -1.
         15    1    4    4    0    0  0.23851038827E+03 -0.19108118998E+03 -0.11743351560E+03  0.32739862105E+03  0.00000000000E+00 0. -1.
        -16    1    4    4    0    0 -0.13010048735E+01 -0.21474639999E+02 -0.58805790228E+01  0.22303228161E+02  0.00000000000E+00 0.  1.
         16    1    1    2    0    0 -0.14004020413E+03 -0.73359247794E+03 -0.14570955529E+03  0.76092079547E+03  0.00000000000E+00 0. -1.
    9900018    1    1    2    0    0  0.11675933276E+02 -0.96359040203E+00 -0.46985903124E+01  0.92057107651E+02  0.91187600000E+02 0.  0.
<mgrwt>
<rscale>  0 0.31599582E+04</rscale>
<asrwt>0</asrwt>
<pdfrwt beam="1">  1        2 0.22836834E+00 0.31599582E+04</pdfrwt>
<pdfrwt beam="2">  1       -2 0.25872600E+00 0.31599582E+04</pdfrwt>
<totfact> 0.62169788E-01</totfact>
</mgrwt>
</event>
<event>
11    1  0.1463487E-012  0.2670454E+04  0.7818608E-02  0.8344656E-01
          2   -1    0    0  501    0  0.00000000000E+00  0.00000000000E+00  0.28783195415E+04  0.28783195415E+04  0.00000000000E+00 0.  1.
         -2   -1    0    0    0  501 -0.00000000000E+00 -0.00000000000E+00 -0.61939987396E+03  0.61939987396E+03  0.00000000000E+00 0. -1.
    9900016    2    1    2    0    0 -0.92354479867E+02 -0.15362135222E+03  0.14566532546E+04  0.26140022303E+04  0.21631088937E+04 0.  0.
         24    2    3    3    0    0  0.44507714716E+03 -0.15990663067E+03 -0.99099976763E+02  0.48944573468E+03  0.77926403430E+02 0.  0.
        -15    1    3    3    0    0 -0.87977432338E+02 -0.85680481600E+02  0.28810882129E+03  0.31318982492E+03  0.00000000000E+00 0.  1.
        -15    1    4    4    0    0  0.24662598741E+03 -0.99384439916E+02 -0.17407097562E+02  0.26646698034E+03  0.00000000000E+00 0.  1.
         15    1    3    3    0    0  0.13759099759E+03  0.17862290886E+03 -0.15251919983E+03  0.27221229308E+03  0.00000000000E+00 0. -1.
         15    1    3    3    0    0 -0.58704519228E+03 -0.86657148806E+02  0.14201636099E+04  0.15391543776E+04  0.00000000000E+00 0. -1.
        -16    1    1    2    0    0  0.74807378602E+02  0.16070992152E+03  0.76183813938E+03  0.78218998548E+03  0.00000000000E+00 0.  1.
         16    1    4    4    0    0  0.19845115975E+03 -0.60522190757E+02 -0.81692879201E+02  0.22297875435E+03  0.00000000000E+00 0. -1.
    9900018    1    1    2    0    0  0.17547101265E+02 -0.70885693006E+01  0.40428273535E+02  0.10152719967E+03  0.91187600000E+02 0.  0.
<mgrwt>
<rscale>  0 0.26704537E+04</rscale>
<asrwt>0</asrwt>
<pdfrwt beam="1">  1        2 0.44281838E+00 0.26704537E+04</pdfrwt>
<pdfrwt beam="2">  1       -2 0.95292290E-01 0.26704537E+04</pdfrwt>
<totfact> 0.16853911E+00</totfact>
</mgrwt>
</event>
<event>
11    1  0.1463487E-012  0.2761027E+04  0.7818608E-02  0.8315471E-01
          2   -1    0    0  501    0  0.00000000000E+00  0.00000000000E+00  0.28009489460E+04  0.28009489460E+04  0.00000000000E+00 0. -1.
         -2   -1    0    0    0  501 -0.00000000000E+00 -0.00000000000E+00 -0.68041851525E+03  0.68041851525E+03  0.00000000000E+00 0.  1.
    9900016    2    1    2    0    0  0.66864938426E+02 -0.24757571461E+03  0.21458952922E+04  0.30578100627E+04  0.21632316380E+04 0.  0.
         24    2    3    3    0    0  0.25768038902E+03  0.21111961535E+03  0.11634183329E+04  0.12126859592E+04  0.78066276537E+02 0.  0.
        -15    1    4    4    0    0  0.21711789516E+03  0.15284910134E+03  0.81692000799E+03  0.85898854919E+03  0.00000000000E+00 0.  1.
        -15    1    3    3    0    0 -0.19635751645E+03  0.32761008745E+02 -0.26574777672E+03  0.33204132091E+03  0.00000000000E+00 0.  1.
         15    1    3    3    0    0 -0.12627570963E+03 -0.81886837835E+02 -0.39316820933E+02  0.15555327532E+03  0.00000000000E+00 0. -1.
         15    1    3    3    0    0  0.13181777549E+03 -0.40956950087E+03  0.12875415570E+04  0.13575295072E+04  0.00000000000E+00 0. -1.
        -16    1    1    2    0    0 -0.64249151062E+02  0.23754757799E+03 -0.13491931617E+03  0.28064216913E+03  0.00000000000E+00 0.  1.
         16    1    4    4    0    0  0.40562493854E+02  0.58270514006E+02  0.34649832488E+03  0.35369741002E+03  0.00000000000E+00 0. -1.
    9900018    1    1    2    0    0 -0.26157873643E+01  0.10028136619E+02  0.10955445467E+03  0.14291522942E+03  0.91187600000E+02 0.  0.
<mgrwt>
<rscale>  0 0.27610270E+04</rscale>
<asrwt>0</asrwt>
<pdfrwt beam="1">  1        2 0.43091522E+00 0.27610270E+04</pdfrwt>
<pdfrwt beam="2">  1       -2 0.10467977E+00 0.27610270E+04</pdfrwt>
<totfact> 0.14922429E+00</totfact>
</mgrwt>
</event>
<event>
11    1  0.1463487E-012  0.2809016E+04  0.7818608E-02  0.8300475E-01
          2   -1    0    0  501    0  0.00000000000E+00  0.00000000000E+00  0.24713962165E+04  0.24713962165E+04  0.00000000000E+00 0. -1.
         -2   -1    0    0    0  501 -0.00000000000E+00 -0.00000000000E+00 -0.79818972444E+03  0.79818972444E+03  0.00000000000E+00 0.  1.
    9900016    2    1    2    0    0 -0.47384650440E+03 -0.10449230028E+03  0.15360715241E+04  0.27653487448E+04  0.22477074549E+04 0.  0.
         24    2    3    3    0    0  0.18584408558E+03 -0.22220761787E+03  0.93204903038E+03  0.97924601150E+03  0.79329101942E+02 0.  0.
        -15    1    3    3    0    0 -0.37092321307E+03 -0.14452763547E+03  0.28584010794E+03  0.49007839650E+03  0.00000000000E+00 0.  1.
        -15    1    4    4    0    0  0.44842434892E+02 -0.70589406004E+02  0.16834488838E+03  0.18797263006E+03  0.00000000000E+00 0.  1.
         15    1    3    3    0    0 -0.52600455783E+03  0.40037968791E+03 -0.15823567119E+03  0.67972289720E+03  0.00000000000E+00 0. -1.
         15    1    3    3    0    0  0.23826169852E+03 -0.12667064558E+03  0.44258939239E+03  0.51836228614E+03  0.00000000000E+00 0. -1.
        -16    1    1    2    0    0  0.47384650440E+03  0.10449230028E+03  0.13713496796E+03  0.50423719615E+03  0.00000000000E+00 0.  1.
         16    1    4    4    0    0  0.14100165069E+03 -0.15161821187E+03  0.76370414200E+03  0.79127338144E+03  0.00000000000E+00 0. -1.
    9900018    1    3    3    0    0 -0.10245175914E+01 -0.11466089261E+02  0.33828664601E+02  0.97939153466E+02  0.91187600000E+02 0.  0.
<mgrwt>
<rscale>  0 0.28090162E+04</rscale>
<asrwt>0</asrwt>
<pdfrwt beam="1">  1        2 0.38021480E+00 0.28090162E+04</pdfrwt>
<pdfrwt beam="2">  1       -2 0.12279842E+00 0.28090162E+04</pdfrwt>
<totfact> 0.15761117E+00</totfact>
</mgrwt>
</event>
<event>
11    1  0.1463487E-012  0.3187849E+04  0.7818608E-02  0.8192034E-01
         -1   -1    0    0    0  501 -0.00000000000E+00  0.00000000000E+00  0.81399844222E+03  0.81399844222E+03  0.00000000000E+00 0.  1.
          1   -1    0    0  501    0  0.00000000000E+00 -0.00000000000E+00 -0.31211298985E+04  0.31211298985E+04  0.00000000000E+00 0. -1.
    9900016    2    1    2    0    0 -0.52549942687E+03 -0.13165309952E+03 -0.10068551447E+04  0.25265117596E+04  0.22530029300E+04 0.  0.
        -24    2    3    3    0    0 -0.27534032527E+03 -0.48214800355E+03 -0.19122252378E+03  0.59268105101E+03  0.80160979131E+02 0.  0.
        -15    1    3    3    0    0 -0.57652286963E+03 -0.28701752554E+03 -0.27180317204E+03  0.69902406504E+03  0.00000000000E+00 0.  1.
        -15    1    3    3    0    0  0.56051971310E+03  0.43516413334E+03 -0.21429425592E+03  0.74126392051E+03  0.00000000000E+00 0.  1.
         15    1    4    4    0    0 -0.71664801556E+02 -0.10757113647E+03 -0.10797596531E+02  0.12970729075E+03  0.00000000000E+00 0. -1.
         15    1    3    3    0    0 -0.16474631009E+03  0.17485147438E+03 -0.27033971985E+03  0.36165999075E+03  0.00000000000E+00 0. -1.
        -16    1    4    4    0    0 -0.20367552371E+03 -0.37457686709E+03 -0.18042492725E+03  0.46297376026E+03  0.00000000000E+00 0.  1.
         16    1    1    2    0    0  0.52549942687E+03  0.13165309952E+03 -0.13002763116E+04  0.14086165812E+04  0.00000000000E+00 0. -1.
    9900018    1    3    3    0    0 -0.69409634976E+02  0.27496821853E+02 -0.59195473117E+02  0.13188273227E+03  0.91187600000E+02 0.  0.
<mgrwt>
<rscale>  0 0.31878487E+04</rscale>
<asrwt>0</asrwt>
<pdfrwt beam="1">  1        1 0.48017383E+00 0.31878487E+04</pdfrwt>
<pdfrwt beam="2">  1       -1 0.12523053E+00 0.31878487E+04</pdfrwt>
<totfact> 0.22689653E-01</totfact>
</mgrwt>
</event>
<event>
11    1  0.1463487E-012  0.3539599E+04  0.7818608E-02  0.8104469E-01
         -2   -1    0    0    0  501 -0.00000000000E+00  0.00000000000E+00  0.67320131617E+03  0.67320131617E+03  0.00000000000E+00 0.  1.
          2   -1    0    0  501    0  0.00000000000E+00 -0.00000000000E+00 -0.46526811694E+04  0.46526811694E+04  0.00000000000E+00 0. -1.
    9900016    2    1    2    0    0 -0.30460937028E+03 -0.99410150131E+03 -0.28044381223E+04  0.36856094648E+04  0.21535596769E+04 0.  0.
         24    2    3    3    0    0  0.46534168645E+03 -0.75260090964E+03 -0.10706827962E+04  0.13913140804E+04  0.80263352507E+02 0.  0.
        -15    1    3    3    0    0 -0.65399675307E+03 -0.29783673844E+03 -0.77386291895E+03  0.10560692653E+04  0.00000000000E+00 0.  1.
        -15    1    4    4    0    0  0.33663951007E+03 -0.55905033605E+03 -0.84155891729E+03  0.10649341995E+04  0.00000000000E+00 0.  1.
         15    1    3    3    0    0 -0.32533889108E+03  0.13495807942E+03 -0.12476026464E+03  0.37366321853E+03  0.00000000000E+00 0. -1.
         15    1    3    3    0    0  0.20938458742E+03 -0.78621932662E+02 -0.83513214247E+03  0.86456290062E+03  0.00000000000E+00 0. -1.
        -16    1    1    2    0    0  0.28724924063E+03  0.10094607059E+04 -0.10604581508E+04  0.14920102321E+04  0.00000000000E+00 0.  1.
         16    1    4    4    0    0  0.12870217637E+03 -0.19355057358E+03 -0.22912387893E+03  0.32637988087E+03  0.00000000000E+00 0. -1.
    9900018    1    1    2    0    0  0.17360129649E+02 -0.15359204609E+02 -0.11458358016E+03  0.14826278867E+03  0.91187600000E+02 0.  0.
<mgrwt>
<rscale>  0 0.35395995E+04</rscale>
<asrwt>0</asrwt>
<pdfrwt beam="1">  1        2 0.71579712E+00 0.35395995E+04</pdfrwt>
<pdfrwt beam="2">  1       -2 0.10356943E+00 0.35395995E+04</pdfrwt>
<totfact> 0.53301495E-02</totfact>
</mgrwt>
</event>
<event>
11    1  0.1463487E-012  0.2990669E+04  0.7818608E-02  0.8246401E-01
          1   -1    0    0  501    0  0.00000000000E+00  0.00000000000E+00  0.17920687354E+04  0.17920687354E+04  0.00000000000E+00 0. -1.
         -1   -1    0    0    0  501 -0.00000000000E+00 -0.00000000000E+00 -0.12477338050E+04  0.12477338050E+04  0.00000000000E+00 0.  1.
    9900016    2    1    2    0    0 -0.18022228165E+03 -0.61671904926E+03  0.47100131222E+03  0.23931184784E+04  0.22566238851E+04 0.  0.
        -24    2    3    3    0    0  0.21222844034E+03 -0.44788394401E+03  0.64337902289E+03  0.81602438550E+03  0.79487687306E+02 0.  0.
        -15    1    3    3    0    0 -0.19526962248E+03 -0.28814595249E+03 -0.11219005668E+03  0.36571153143E+03  0.00000000000E+00 0.  1.
        -15    1    3    3    0    0 -0.13476819137E+03  0.54828683312E+03 -0.28588010728E+03  0.63285729238E+03  0.00000000000E+00 0.  1.
         15    1    3    3    0    0 -0.10782870086E+03 -0.38615083582E+03  0.23973139444E+03  0.46713021548E+03  0.00000000000E+00 0. -1.
         15    1    4    4    0    0  0.12861429302E+03 -0.21713548497E+03  0.27370118349E+03  0.37229261750E+03  0.00000000000E+00 0. -1.
        -16    1    4    4    0    0  0.83614147319E+02 -0.23074845904E+03  0.36967783941E+03  0.44373176800E+03  0.00000000000E+00 0.  1.
         16    1    1    2    0    0  0.18022228165E+03  0.61671904926E+03  0.73333618135E+02  0.64668406202E+03  0.00000000000E+00 0. -1.
    9900018    1    3    3    0    0  0.45415792721E+02 -0.42825150050E+02 -0.14038941150E+02  0.11139505361E+03  0.91187600000E+02 0.  0.
<mgrwt>
<rscale>  0 0.29906686E+04</rscale>
<asrwt>0</asrwt>
<pdfrwt beam="1">  1        1 0.27570288E+00 0.29906686E+04</pdfrwt>
<pdfrwt beam="2">  1       -1 0.19195905E+00 0.29906686E+04</pdfrwt>
<totfact> 0.60150789E-01</totfact>
</mgrwt>
</event>
<event>
11    1  0.1463487E-012  0.2605829E+04  0.7818608E-02  0.8366224E-01
          1   -1    0    0  501    0  0.00000000000E+00  0.00000000000E+00  0.11511824378E+04  0.11511824378E+04  0.00000000000E+00 0. -1.
         -1   -1    0    0    0  501 -0.00000000000E+00 -0.00000000000E+00 -0.14746461382E+04  0.14746461382E+04  0.00000000000E+00 0.  1.
    9900016    2    1    2    0    0 -0.26258730286E+03  0.18538393116E+03 -0.21526789369E+03  0.22866742953E+04  0.22537124424E+04 0.  0.
         24    2    3    3    0    0 -0.32022358091E+02  0.31194186689E+03  0.17826537852E+03  0.36970322206E+03  0.81047933221E+02 0.  0.
        -15    1    4    4    0    0 -0.30100768287E+02  0.13109995067E+03  0.11840758771E+03  0.17920270686E+03  0.00000000000E+00 0.  1.
        -15    1    3    3    0    0  0.52346264914E+03 -0.23766446785E+02  0.15814927656E-03  0.52400189794E+03  0.00000000000E+00 0.  1.
         15    1    3    3    0    0 -0.15608467326E+03  0.38521632992E+03 -0.29612072649E+03  0.51033472420E+03  0.00000000000E+00 0. -1.
         15    1    3    3    0    0 -0.59889429494E+03 -0.47899186056E+03 -0.14329179537E+03  0.78015390636E+03  0.00000000000E+00 0. -1.
        -16    1    1    2    0    0  0.26258730286E+03 -0.18538393116E+03 -0.10819580676E+03  0.33915428076E+03  0.00000000000E+00 0.  1.
         16    1    4    4    0    0 -0.19215898043E+01  0.18084191622E+03  0.59857790814E+02  0.19050051520E+03  0.00000000000E+00 0. -1.
    9900018    1    3    3    0    0  0.95137428282E+00 -0.90159583097E+01  0.45879091504E+02  0.10248054473E+03  0.91187600000E+02 0.  0.
<mgrwt>
<rscale>  0 0.26058294E+04</rscale>
<asrwt>0</asrwt>
<pdfrwt beam="1">  1        1 0.17710499E+00 0.26058294E+04</pdfrwt>
<pdfrwt beam="2">  1       -1 0.22686864E+00 0.26058294E+04</pdfrwt>
<totfact> 0.10119213E+00</totfact>
</mgrwt>
</event>
<event>
11    1  0.1463487E-012  0.3321598E+04  0.7818608E-02  0.8157421E-01
         -2   -1    0    0    0  501 -0.00000000000E+00  0.00000000000E+00  0.20861233553E+04  0.20861233553E+04  0.00000000000E+00 0.  1.
          2   -1    0    0  501    0  0.00000000000E+00 -0.00000000000E+00 -0.13221912738E+04  0.13221912738E+04  0.00000000000E+00 0. -1.
    9900016    2    1    2    0    0  0.43865832751E+03  0.56473962029E+03 -0.53112127266E+01  0.23580350412E+04  0.22469866665E+04 0.  0.
         24    2    3    3    0    0  0.50253213433E+03  0.43375084371E+03 -0.78659613654E+03  0.10320779285E+04  0.75980444623E+02 0.  0.
        -15    1    4    4    0    0  0.43924468567E+03  0.40124354646E+03 -0.67524885148E+03  0.89994071410E+03  0.00000000000E+00 0.  1.
        -15    1    3    3    0    0 -0.20305021067E+03  0.26432506591E+03  0.24691954367E+03  0.41480885907E+03  0.00000000000E+00 0.  1.
         15    1    3    3    0    0 -0.17355634791E+03 -0.22481319054E+02  0.39291768317E+02  0.17936292444E+03  0.00000000000E+00 0. -1.
         15    1    3    3    0    0  0.30237336439E+03 -0.13726971997E+03  0.53385776699E+03  0.62871038077E+03  0.00000000000E+00 0. -1.
        -16    1    1    2    0    0 -0.43865832751E+03 -0.56473962029E+03  0.76924329425E+03  0.10502795879E+04  0.00000000000E+00 0.  1.
         16    1    4    4    0    0  0.63287448662E+02  0.32507297251E+02 -0.11134728506E+03  0.13213721438E+03  0.00000000000E+00 0. -1.
    9900018    1    3    3    0    0  0.10359387367E+02  0.26414749692E+02 -0.38784155157E+02  0.10307494843E+03  0.91187600000E+02 0.  0.
<mgrwt>
<rscale>  0 0.33215985E+04</rscale>
<asrwt>0</asrwt>
<pdfrwt beam="1">  1        2 0.20341404E+00 0.33215985E+04</pdfrwt>
<pdfrwt beam="2">  1       -2 0.32094205E+00 0.33215985E+04</pdfrwt>
<totfact> 0.31600493E-01</totfact>
</mgrwt>
</event>
<event>
11    1  0.1463487E-012  0.3218613E+04  0.7818608E-02  0.8183919E-01
          2   -1    0    0  501    0  0.00000000000E+00  0.00000000000E+00  0.16782813830E+04  0.16782813830E+04  0.00000000000E+00 0. -1.
         -2   -1    0    0    0  501 -0.00000000000E+00 -0.00000000000E+00 -0.15431667222E+04  0.15431667222E+04  0.00000000000E+00 0.  1.
    9900016    2    1    2    0    0 -0.80906438305E+02  0.48472760640E+03  0.76747690701E+03  0.24205806289E+04  0.22424725358E+04 0.  0.
         24    2    3    3    0    0  0.44163603804E+03  0.11379593808E+03  0.28370536392E+03  0.54199335207E+03  0.72637143032E+02 0.  0.
        -15    1    3    3    0    0  0.31296969369E+03  0.56256133649E+03  0.20790491995E+03  0.67649814650E+03  0.00000000000E+00 0.  1.
        -15    1    4    4    0    0  0.16949056667E+03  0.30744386976E+02  0.69096459843E+02  0.18559792640E+03  0.00000000000E+00 0.  1.
         15    1    3    3    0    0  0.70648217538E+02 -0.16320695640E+03 -0.17121123615E+02  0.17866396988E+03  0.00000000000E+00 0. -1.
         15    1    3    3    0    0 -0.87905757315E+03 -0.50442776795E+02  0.24142667862E+03  0.91300248181E+03  0.00000000000E+00 0. -1.
        -16    1    1    2    0    0  0.80906438305E+02 -0.48472760640E+03 -0.63236224623E+03  0.80086747632E+03  0.00000000000E+00 0.  1.
         16    1    4    4    0    0  0.27214547137E+03  0.83051551106E+02  0.21460890407E+03  0.35639542567E+03  0.00000000000E+00 0. -1.
    9900018    1    3    3    0    0 -0.27102814429E+02  0.22020065025E+02  0.51561068141E+02  0.11042267863E+03  0.91187600000E+02 0.  0.
<mgrwt>
<rscale>  0 0.32186134E+04</rscale>
<asrwt>0</asrwt>
<pdfrwt beam="1">  1        2 0.25819713E+00 0.32186134E+04</pdfrwt>
<pdfrwt beam="2">  1       -2 0.23741027E+00 0.32186134E+04</pdfrwt>
<totfact> 0.65173900E-01</totfact>
</mgrwt>
</event>
<event>
11    1  0.1463487E-012  0.4974737E+04  0.7818608E-02  0.7832416E-01
          1   -1    0    0  501    0  0.00000000000E+00  0.00000000000E+00  0.26376787359E+04  0.26376787359E+04  0.00000000000E+00 0. -1.
         -1   -1    0    0    0  501 -0.00000000000E+00 -0.00000000000E+00 -0.23456236812E+04  0.23456236812E+04  0.00000000000E+00 0.  1.
    9900016    2    1    2    0    0  0.85956071322E+03  0.13440103505E+04  0.11042591152E+04  0.28929345111E+04  0.21458036840E+04 0.  0.
         24    2    3    3    0    0 -0.27367042914E+03  0.36512733314E+03  0.69958256684E+03  0.83924776143E+03  0.81899719465E+02 0.  0.
        -15    1    4    4    0    0 -0.15373326078E+03  0.16840623780E+03  0.41052703260E+03  0.46960304609E+03  0.00000000000E+00 0.  1.
        -15    1    3    3    0    0  0.23783457658E+03  0.13759361177E+02 -0.40656087832E+02  0.24167648482E+03  0.00000000000E+00 0.  1.
         15    1    3    3    0    0 -0.17058099104E+03  0.36073535854E+03  0.42985427671E+03  0.58651732507E+03  0.00000000000E+00 0. -1.
         15    1    3    3    0    0  0.10659775568E+04  0.60438829760E+03  0.15478359471E+02  0.12254929398E+04  0.00000000000E+00 0. -1.
        -16    1    1    2    0    0 -0.86956597293E+03 -0.14328586743E+04 -0.92985148868E+03  0.19167297026E+04  0.00000000000E+00 0.  1.
         16    1    4    4    0    0 -0.11993716837E+03  0.19672109534E+03  0.28905553423E+03  0.36964471534E+03  0.00000000000E+00 0. -1.
    9900018    1    1    2    0    0  0.10005259709E+02  0.88848323887E+02  0.11764742819E+03  0.17363820327E+03  0.91187600000E+02 0.  0.
<mgrwt>
<rscale>  0 0.49747369E+04</rscale>
<asrwt>0</asrwt>
<pdfrwt beam="1">  1        1 0.40579673E+00 0.49747369E+04</pdfrwt>
<pdfrwt beam="2">  1       -1 0.36086518E+00 0.49747369E+04</pdfrwt>
<totfact> 0.10333717E-02</totfact>
</mgrwt>
</event>
<event>
11    1  0.1463487E-012  0.2505678E+04  0.7818608E-02  0.8400966E-01
          1   -1    0    0  501    0  0.00000000000E+00  0.00000000000E+00  0.24904590461E+04  0.24904590461E+04  0.00000000000E+00 0.  1.
         -1   -1    0    0    0  501 -0.00000000000E+00 -0.00000000000E+00 -0.63024735354E+03  0.63024735354E+03  0.00000000000E+00 0. -1.
    9900016    2    1    2    0    0 -0.34828376217E+02 -0.21129447678E+03  0.18207696983E+04  0.29029587416E+04  0.22508018103E+04 0.  0.
         24    2    3    3    0    0 -0.81828361792E+03 -0.34352547979E+03  0.50066838408E+03  0.10219840306E+04  0.78642821208E+02 0.  0.
        -15    1    4    4    0    0 -0.51140587703E+03 -0.19165419921E+03  0.27090143937E+03  0.60963504902E+03  0.00000000000E+00 0.  1.
        -15    1    3    3    0    0  0.41677009797E+03  0.19303289001E+02  0.65423287682E+03  0.77594496496E+03  0.00000000000E+00 0.  1.
         15    1    3    3    0    0 -0.13089402139E+03 -0.11532896925E+03  0.35167700298E+03  0.39256939566E+03  0.00000000000E+00 0. -1.
         15    1    3    3    0    0  0.45798782851E+03  0.26462556704E+03  0.22815476161E+03  0.57605046397E+03  0.00000000000E+00 0. -1.
        -16    1    1    2    0    0  0.34828376217E+02  0.21129447678E+03  0.39441994304E+02  0.21774765813E+03  0.00000000000E+00 0.  1.
         16    1    4    4    0    0 -0.30687774089E+03 -0.15187128057E+03  0.22976694470E+03  0.41234898156E+03  0.00000000000E+00 0. -1.
    9900018    1    3    3    0    0  0.39591336621E+02 -0.36368883777E+02  0.86036672798E+02  0.13640988638E+03  0.91187600000E+02 0.  0.
<mgrwt>
<rscale>  0 0.25056777E+04</rscale>
<asrwt>0</asrwt>
<pdfrwt beam="1">  1        1 0.38314754E+00 0.25056777E+04</pdfrwt>
<pdfrwt beam="2">  1       -1 0.96961132E-01 0.25056777E+04</pdfrwt>
<totfact> 0.12485314E+00</totfact>
</mgrwt>
</event>
<event>
11    1  0.1463487E-012  0.2489995E+04  0.7818608E-02  0.8406558E-01
         -1   -1    0    0    0  501 -0.00000000000E+00  0.00000000000E+00  0.93061498873E+03  0.93061498873E+03  0.00000000000E+00 0.  1.
          1   -1    0    0  501    0  0.00000000000E+00 -0.00000000000E+00 -0.16655859058E+04  0.16655859058E+04  0.00000000000E+00 0. -1.
    9900016    2    1    2    0    0  0.58942406449E+01  0.23282402928E+03 -0.68965772123E+03  0.23589351018E+04  0.22438148924E+04 0.  0.
        -24    2    3    3    0    0  0.58537243165E+03 -0.17325876716E+03  0.41673729018E+03  0.74335272779E+03  0.78891221057E+02 0.  0.
        -15    1    3    3    0    0 -0.46011981169E+02  0.46910724576E+03 -0.66191313994E+03  0.81259320404E+03  0.00000000000E+00 0.  1.
        -15    1    3    3    0    0 -0.17268238663E+03 -0.34302182728E+02 -0.36980253759E+02  0.17989826447E+03  0.00000000000E+00 0.  1.
         15    1    4    4    0    0  0.46652980446E+03 -0.10456944119E+03  0.33120328012E+03  0.58161880923E+03  0.00000000000E+00 0. -1.
         15    1    3    3    0    0 -0.33270934843E+03 -0.56003062853E+02 -0.40040979063E+03  0.52360276357E+03  0.00000000000E+00 0. -1.
        -16    1    4    4    0    0  0.11884262718E+03 -0.68689325966E+02  0.85534010059E+02  0.16173391856E+03  0.00000000000E+00 0.  1.
         16    1    1    2    0    0 -0.58942406449E+01 -0.23282402928E+03 -0.45313195824E+02  0.23726579273E+03  0.00000000000E+00 0. -1.
    9900018    1    3    3    0    0 -0.28074474773E+02  0.27280796255E+02 -0.70918270879E+01  0.99488141923E+02  0.91187600000E+02 0.  0.
<mgrwt>
<rscale>  0 0.24899953E+04</rscale>
<asrwt>0</asrwt>
<pdfrwt beam="1">  1        1 0.25624398E+00 0.24899953E+04</pdfrwt>
<pdfrwt beam="2">  1       -1 0.14317154E+00 0.24899953E+04</pdfrwt>
<totfact> 0.17677826E+00</totfact>
</mgrwt>
</event>
<event>
11    1  0.1463487E-012  0.2877043E+04  0.7818608E-02  0.8279741E-01
         -2   -1    0    0    0  501 -0.00000000000E+00  0.00000000000E+00  0.79772856352E+03  0.79772856352E+03  0.00000000000E+00 0.  1.
          2   -1    0    0  501    0  0.00000000000E+00 -0.00000000000E+00 -0.25940446748E+04  0.25940446748E+04  0.00000000000E+00 0. -1.
    9900016    2    1    2    0    0  0.40686157921E+03 -0.16138407236E+03 -0.15898593559E+04  0.27082834449E+04  0.21483866698E+04 0.  0.
        -24    2    3    3    0    0  0.28988266017E+03 -0.25529072660E+03 -0.16686449810E+04  0.17146060868E+04  0.79326215582E+02 0.  0.
        -15    1    3    3    0    0  0.14572988272E+03 -0.21377149677E+03  0.84696863396E+02  0.27222970121E+03  0.00000000000E+00 0.  1.
        -15    1    3    3    0    0  0.16186035702E+03  0.44916548391E+03 -0.49836967078E+02  0.48003346800E+03  0.00000000000E+00 0.  1.
         15    1    3    3    0    0 -0.19061132070E+03 -0.14148733290E+03  0.43925728835E+02  0.24141418890E+03  0.00000000000E+00 0. -1.
         15    1    4    4    0    0  0.30298316051E+02 -0.32394591108E+02 -0.10534867479E+03  0.11430547130E+03  0.00000000000E+00 0. -1.
        -16    1    4    4    0    0  0.25958434412E+03 -0.22289613549E+03 -0.15632963062E+04  0.16003006155E+04  0.00000000000E+00 0.  1.
         16    1    1    2    0    0 -0.44445055163E+03  0.21816789095E+03 -0.61079420335E+02  0.49886292414E+03  0.00000000000E+00 0. -1.
    9900018    1    1    2    0    0  0.37588972416E+02 -0.56783818597E+02 -0.14537733504E+03  0.18462686922E+03  0.91187600000E+02 0.  0.
<mgrwt>
<rscale>  0 0.28770426E+04</rscale>
<asrwt>0</asrwt>
<pdfrwt beam="1">  1        2 0.39908380E+00 0.28770426E+04</pdfrwt>
<pdfrwt beam="2">  1       -2 0.12272747E+00 0.28770426E+04</pdfrwt>
<totfact> 0.13314213E+00</totfact>
</mgrwt>
</event>
<event>
11    1  0.1463487E-012  0.2464650E+04  0.7818608E-02  0.8415688E-01
         -2   -1    0    0    0  501 -0.00000000000E+00  0.00000000000E+00  0.11081651393E+04  0.11081651393E+04  0.00000000000E+00 0.  1.
          2   -1    0    0  501    0  0.00000000000E+00 -0.00000000000E+00 -0.13703961304E+04  0.13703961304E+04  0.00000000000E+00 0. -1.
    9900016    2    1    2    0    0  0.15875656583E+03  0.84266057167E+02 -0.30510678746E+03  0.21725153529E+04  0.21434617774E+04 0.  0.
        -24    2    3    3    0    0  0.55014501705E+03  0.12100807548E+03  0.14355710638E+02  0.56912980950E+03  0.80000996977E+02 0.  0.
        -15    1    3    3    0    0 -0.57852463315E+03  0.14580480448E+03  0.37386014885E+03  0.70407471413E+03  0.00000000000E+00 0.  1.
        -15    1    3    3    0    0  0.34248694949E+03 -0.17135496445E+02 -0.37203322651E+03  0.50596408710E+03  0.00000000000E+00 0.  1.
         15    1    4    4    0    0  0.29866600445E+03  0.64079880677E+02  0.47614320996E+02  0.30915164060E+03  0.00000000000E+00 0. -1.
         15    1    3    3    0    0 -0.15535076757E+03 -0.16541132634E+03 -0.32128942043E+03  0.39334674214E+03  0.00000000000E+00 0. -1.
        -16    1    4    4    0    0  0.25147901260E+03  0.56928194799E+02 -0.33258610357E+02  0.25997816890E+03  0.00000000000E+00 0.  1.
         16    1    1    2    0    0 -0.16076661050E+03 -0.11563557206E+03 -0.55640646122E+01  0.19811220909E+03  0.00000000000E+00 0. -1.
    9900018    1    1    2    0    0  0.20100446710E+01  0.31369514897E+02  0.48439861018E+02  0.10793370777E+03  0.91187600000E+02 0.  0.
<mgrwt>
<rscale>  0 0.24646503E+04</rscale>
<asrwt>0</asrwt>
<pdfrwt beam="1">  1        2 0.21083017E+00 0.24646503E+04</pdfrwt>
<pdfrwt beam="2">  1       -2 0.17048695E+00 0.24646503E+04</pdfrwt>
<totfact> 0.28464210E+00</totfact>
</mgrwt>
</event>
<event>
11    1  0.1463487E-012  0.3215693E+04  0.7818608E-02  0.8184685E-01
          1   -1    0    0  501    0  0.00000000000E+00  0.00000000000E+00  0.13131877532E+04  0.13131877532E+04  0.00000000000E+00 0. -1.
         -1   -1    0    0    0  501 -0.00000000000E+00 -0.00000000000E+00 -0.19686220983E+04  0.19686220983E+04  0.00000000000E+00 0.  1.
    9900016    2    1    2    0    0  0.13000464274E+03 -0.79009562814E+03 -0.71227418393E+03  0.24790751033E+04  0.22354700950E+04 0.  0.
        -24    2    3    3    0    0  0.35247558980E+03 -0.80740224932E+03 -0.10197312677E+04  0.13502234413E+04  0.84344823771E+02 0.  0.
        -15    1    3    3    0    0 -0.17900294823E+03  0.20201440432E+03  0.27354638838E+03  0.38429090755E+03  0.00000000000E+00 0.  1.
        -15    1    3    3    0    0 -0.15165828603E+03 -0.29223680640E+03 -0.11798083275E+03  0.34974571282E+03  0.00000000000E+00 0.  1.
         15    1    3    3    0    0  0.11106832737E+03  0.17322123226E+03  0.18595336767E+03  0.27734531472E+03  0.00000000000E+00 0. -1.
         15    1    4    4    0    0  0.12067134451E+03 -0.29834729208E+03 -0.31310523641E+03  0.44900731524E+03  0.00000000000E+00 0. -1.
        -16    1    4    4    0    0  0.23180424529E+03 -0.50905495724E+03 -0.70662603134E+03  0.90121612601E+03  0.00000000000E+00 0.  1.
         16    1    1    2    0    0 -0.13000464274E+03  0.79009562814E+03  0.56839838788E+02  0.80273474823E+03  0.00000000000E+00 0. -1.
    9900018    1    3    3    0    0 -0.28780401878E+01 -0.65692208993E+02 -0.34061839487E+02  0.11746972691E+03  0.91187600000E+02 0.  0.
<mgrwt>
<rscale>  0 0.32156930E+04</rscale>
<asrwt>0</asrwt>
<pdfrwt beam="1">  1        1 0.20202889E+00 0.32156930E+04</pdfrwt>
<pdfrwt beam="2">  1       -1 0.30286494E+00 0.32156930E+04</pdfrwt>
<totfact> 0.23397106E-01</totfact>
</mgrwt>
</event>
<event>
11    1  0.1463487E-012  0.2998218E+04  0.7818608E-02  0.8244240E-01
          1   -1    0    0  501    0  0.00000000000E+00  0.00000000000E+00  0.31514578521E+04  0.31514578521E+04  0.00000000000E+00 0. -1.
         -1   -1    0    0    0  501 -0.00000000000E+00 -0.00000000000E+00 -0.71310738214E+03  0.71310738214E+03  0.00000000000E+00 0.  1.
    9900016    2    1    2    0    0 -0.15264012010E+03 -0.53345315134E+02  0.99225543187E+03  0.23697201341E+04  0.21458932739E+04 0.  0.
        -24    2    3    3    0    0  0.17429340911E+03 -0.48350468174E+03  0.52127841280E+03  0.73622811578E+03  0.78394420051E+02 0.  0.
        -15    1    3    3    0    0  0.46533497646E+02  0.39784400945E+03  0.55592659869E+03  0.68520041258E+03  0.00000000000E+00 0.  1.
        -15    1    3    3    0    0 -0.43983885837E+03 -0.23970251218E+03 -0.30998331280E+03  0.58907144719E+03  0.00000000000E+00 0.  1.
         15    1    3    3    0    0  0.66371831505E+02  0.27201786934E+03  0.22503373318E+03  0.35922015857E+03  0.00000000000E+00 0. -1.
         15    1    4    4    0    0  0.57392721731E+02 -0.11825481818E+03  0.91130509259E+02  0.15994654184E+03  0.00000000000E+00 0. -1.
        -16    1    4    4    0    0  0.11690068738E+03 -0.36524986356E+03  0.43014790354E+03  0.57628157394E+03  0.00000000000E+00 0.  1.
         16    1    1    2    0    0  0.17841141824E+03  0.72821813553E+02  0.13292710856E+04  0.13431661363E+04  0.00000000000E+00 0. -1.
    9900018    1    1    2    0    0 -0.25771298134E+02 -0.19476498419E+02  0.11682395252E+03  0.15167896385E+03  0.91187600000E+02 0.  0.
<mgrwt>
<rscale>  0 0.29982180E+04</rscale>
<asrwt>0</asrwt>
<pdfrwt beam="1">  1        1 0.48483966E+00 0.29982180E+04</pdfrwt>
<pdfrwt beam="2">  1       -1 0.10970883E+00 0.29982180E+04</pdfrwt>
<totfact> 0.30185539E-01</totfact>
</mgrwt>
</event>
<event>
11    1  0.1463487E-012  0.3300580E+04  0.7818608E-02  0.8162748E-01
          2   -1    0    0  501    0  0.00000000000E+00  0.00000000000E+00  0.23469002713E+04  0.23469002713E+04  0.00000000000E+00 0. -1.
         -2   -1    0    0    0  501 -0.00000000000E+00 -0.00000000000E+00 -0.11604486822E+04  0.11604486822E+04  0.00000000000E+00 0.  1.
    9900016    2    1    2    0    0  0.61940649750E+03  0.40663335560E+03  0.35487785477E+03  0.23935581425E+04  0.22481475029E+04 0.  0.
        -24    2    3    3    0    0  0.48456298527E+03 -0.13748920197E+03  0.86918557612E+03  0.10079243708E+04  0.81996366376E+02 0.  0.
        -15    1    3    3    0    0 -0.13634883052E+03  0.47367358701E+03 -0.64438904205E+03  0.81129212256E+03  0.00000000000E+00 0.  1.
        -15    1    3    3    0    0  0.32713552249E+03  0.50659284415E+02  0.13806938151E+03  0.35867417984E+03  0.00000000000E+00 0.  1.
         15    1    4    4    0    0  0.17443573999E+03 -0.87625354257E+02  0.30281508361E+03  0.36028184100E+03  0.00000000000E+00 0. -1.
         15    1    3    3    0    0 -0.99115642451E+02 -0.16627985656E+02  0.24781055264E+02  0.10351087472E+03  0.00000000000E+00 0. -1.
        -16    1    4    4    0    0  0.31012724528E+03 -0.49863847716E+02  0.56637049251E+03  0.64764252977E+03  0.00000000000E+00 0.  1.
         16    1    1    2    0    0 -0.61940649750E+03 -0.40663335560E+03  0.83157373432E+03  0.11137908110E+04  0.00000000000E+00 0. -1.
    9900018    1    3    3    0    0  0.43172462703E+02  0.36417671807E+02 -0.32769116080E+02  0.11215659463E+03  0.91187600000E+02 0.  0.
<mgrwt>
<rscale>  0 0.33005801E+04</rscale>
<asrwt>0</asrwt>
<pdfrwt beam="1">  1        2 0.36106158E+00 0.33005801E+04</pdfrwt>
<pdfrwt beam="2">  1       -2 0.17853057E+00 0.33005801E+04</pdfrwt>
<totfact> 0.66092761E-01</totfact>
</mgrwt>
</event>
<event>
11    1  0.1463487E-012  0.2479540E+04  0.7818608E-02  0.8410311E-01
         -1   -1    0    0    0  501 -0.00000000000E+00  0.00000000000E+00  0.61671660811E+03  0.61671660811E+03  0.00000000000E+00 0.  1.
          1   -1    0    0  501    0  0.00000000000E+00 -0.00000000000E+00 -0.24922782868E+04  0.24922782868E+04  0.00000000000E+00 0. -1.
    9900016    2    1    2    0    0  0.29949983547E+02 -0.20078239115E+03 -0.18329949247E+04  0.29015762394E+04  0.22401035041E+04 0.  0.
         24    2    3    3    0    0  0.70359217801E+02 -0.95563232799E+02  0.39905552728E+03  0.42352042564E+03  0.77726997139E+02 0.  0.
        -15    1    3    3    0    0 -0.21877958881E+03  0.25397710377E+02 -0.35905692961E+03  0.42122610422E+03  0.00000000000E+00 0.  1.
        -15    1    4    4    0    0  0.44313432490E+02 -0.40374785303E+01  0.94651272398E+02  0.10458893296E+03  0.00000000000E+00 0.  1.
         15    1    3    3    0    0 -0.90939672088E+02 -0.34502426633E+03 -0.75435586653E+03  0.83448459644E+03  0.00000000000E+00 0. -1.
         15    1    3    3    0    0  0.22784935549E+03  0.22497349894E+03 -0.10565868968E+04  0.11040399787E+04  0.00000000000E+00 0. -1.
        -16    1    1    2    0    0 -0.29949983547E+02  0.20078239115E+03 -0.42566754062E+02  0.20741865553E+03  0.00000000000E+00 0.  1.
         16    1    4    4    0    0  0.26045785311E+02 -0.91525754269E+02  0.30440425488E+03  0.31893149267E+03  0.00000000000E+00 0. -1.
    9900018    1    3    3    0    0  0.41460671155E+02 -0.10566101333E+02 -0.62050759007E+02  0.11830513445E+03  0.91187600000E+02 0.  0.
<mgrwt>
<rscale>  0 0.24795398E+04</rscale>
<asrwt>0</asrwt>
<pdfrwt beam="1">  1        1 0.38342742E+00 0.24795398E+04</pdfrwt>
<pdfrwt beam="2">  1       -1 0.94879480E-01 0.24795398E+04</pdfrwt>
<totfact> 0.13103793E+00</totfact>
</mgrwt>
</event>
<event>
11    1  0.1463487E-012  0.3603333E+04  0.7818608E-02  0.8089729E-01
          2   -1    0    0  501    0  0.00000000000E+00  0.00000000000E+00  0.41698977835E+04  0.41698977835E+04  0.00000000000E+00 0. -1.
         -2   -1    0    0    0  501 -0.00000000000E+00 -0.00000000000E+00 -0.77843696608E+03  0.77843696608E+03  0.00000000000E+00 0.  1.
    9900016    2    1    2    0    0 -0.35830817023E+03  0.51729505083E+03  0.32961888953E+04  0.39829316795E+04  0.21454380941E+04 0.  0.
         24    2    3    3    0    0 -0.24693758041E+03 -0.37566069487E+03  0.13286950376E+04  0.14049987227E+04  0.80571591978E+02 0.  0.
        -15    1    4    4    0    0 -0.80670567248E+02 -0.18254935928E+03  0.51432616958E+03  0.55169141529E+03  0.00000000000E+00 0.  1.
        -15    1    3    3    0    0 -0.33637599188E+03 -0.25894005525E+03  0.32928340178E+03  0.53723953579E+03  0.00000000000E+00 0.  1.
         15    1    3    3    0    0 -0.51173897393E+02  0.25082145046E+03  0.50996721609E+03  0.57061083873E+03  0.00000000000E+00 0. -1.
         15    1    3    3    0    0  0.27617929946E+03  0.90107435050E+03  0.11282432398E+04  0.14700825823E+04  0.00000000000E+00 0. -1.
        -16    1    1    2    0    0  0.43424265788E+03 -0.51704374077E+03 -0.15113420495E+03  0.69191217918E+03  0.00000000000E+00 0.  1.
         16    1    4    4    0    0 -0.16626701316E+03 -0.19311133559E+03  0.81436886802E+03  0.85330730736E+03  0.00000000000E+00 0. -1.
    9900018    1    1    2    0    0 -0.75934487651E+02 -0.25131006442E+00  0.24640612713E+03  0.27349089099E+03  0.91187600000E+02 0.  0.
<mgrwt>
<rscale>  0 0.36033332E+04</rscale>
<asrwt>0</asrwt>
<pdfrwt beam="1">  1        2 0.64152272E+00 0.36033332E+04</pdfrwt>
<pdfrwt beam="2">  1       -2 0.11975954E+00 0.36033332E+04</pdfrwt>
<totfact> 0.10696454E-01</totfact>
</mgrwt>
</event>
<event>
11    1  0.1463487E-012  0.3974548E+04  0.7818608E-02  0.8009701E-01
          2   -1    0    0  501    0  0.00000000000E+00  0.00000000000E+00  0.27502027382E+04  0.27502027382E+04  0.00000000000E+00 0. -1.
         -2   -1    0    0    0  501 -0.00000000000E+00 -0.00000000000E+00 -0.14359878085E+04  0.14359878085E+04  0.00000000000E+00 0.  1.
    9900016    2    1    2    0    0 -0.50798228869E+03  0.56892650627E+03  0.19481596610E+04  0.29979221330E+04  0.21472046190E+04 0.  0.
         24    2    3    3    0    0  0.59479778722E+03  0.48676947060E+03  0.68965647484E+03  0.10358408183E+04  0.81309424096E+02 0.  0.
        -15    1    3    3    0    0 -0.55054007542E+03  0.39081550705E+02  0.10836968214E+04  0.12161498851E+04  0.00000000000E+00 0.  1.
        -15    1    4    4    0    0  0.21929112460E+03  0.14682461101E+03  0.27602456643E+03  0.38188430839E+03  0.00000000000E+00 0.  1.
         15    1    3    3    0    0 -0.28566115928E+02 -0.40629071558E+02  0.20869964707E+03  0.21452805672E+03  0.00000000000E+00 0. -1.
         15    1    3    3    0    0 -0.52367388456E+03  0.83704556523E+02 -0.33893282321E+02  0.53140337291E+03  0.00000000000E+00 0. -1.
        -16    1    1    2    0    0  0.48610539996E+03 -0.55667193974E+03 -0.74022734184E+03  0.10460012552E+04  0.00000000000E+00 0.  1.
         16    1    4    4    0    0  0.37550666262E+03  0.33994485959E+03  0.41363190841E+03  0.65395650994E+03  0.00000000000E+00 0. -1.
    9900018    1    1    2    0    0  0.21876888730E+02 -0.12254566535E+02  0.10628261062E+03  0.14226715845E+03  0.91187600000E+02 0.  0.
<mgrwt>
<rscale>  0 0.39745478E+04</rscale>
<asrwt>0</asrwt>
<pdfrwt beam="1">  1        2 0.42310811E+00 0.39745478E+04</pdfrwt>
<pdfrwt beam="2">  1       -2 0.22092120E+00 0.39745478E+04</pdfrwt>
<totfact> 0.19097845E-01</totfact>
</mgrwt>
</event>
<event>
11    1  0.1463487E-012  0.3639810E+04  0.7818608E-02  0.8081433E-01
          2   -1    0    0  501    0  0.00000000000E+00  0.00000000000E+00  0.37862776151E+04  0.37862776151E+04  0.00000000000E+00 0. -1.
         -2   -1    0    0    0  501 -0.00000000000E+00 -0.00000000000E+00 -0.87475205907E+03  0.87475205907E+03  0.00000000000E+00 0.  1.
    9900016    2    1    2    0    0 -0.20423932949E+03 -0.67012321008E+03  0.28814046130E+04  0.36594287796E+04  0.21443291793E+04 0.  0.
         24    2    3    3    0    0  0.26569328275E+03 -0.39614677933E+03  0.73562261445E+03  0.88031734095E+03  0.79327161789E+02 0.  0.
        -15    1    4    4    0    0  0.18570962739E+03 -0.32846555037E+03  0.54646343286E+03  0.66407828374E+03  0.00000000000E+00 0.  1.
        -15    1    3    3    0    0 -0.45603665653E+02  0.17634962669E+03  0.33381484100E+03  0.38027783689E+03  0.00000000000E+00 0.  1.
         15    1    3    3    0    0 -0.42307928344E+02 -0.91840803236E+03  0.79261866936E+03  0.12138812255E+04  0.00000000000E+00 0. -1.
         15    1    3    3    0    0 -0.38202101825E+03  0.46808197492E+03  0.10193484882E+04  0.11849523763E+04  0.00000000000E+00 0. -1.
        -16    1    1    2    0    0  0.14972894850E+03  0.72774558590E+03 -0.17518527617E+03  0.76336248061E+03  0.00000000000E+00 0.  1.
         16    1    4    4    0    0  0.79983655362E+02 -0.67681228968E+02  0.18915918160E+03  0.21623905721E+03  0.00000000000E+00 0. -1.
    9900018    1    1    2    0    0  0.54510380992E+02 -0.57622375828E+02  0.20530621920E+03  0.23823841392E+03  0.91187600000E+02 0.  0.
<mgrwt>
<rscale>  0 0.36398100E+04</rscale>
<asrwt>0</asrwt>
<pdfrwt beam="1">  1        2 0.58250424E+00 0.36398100E+04</pdfrwt>
<pdfrwt beam="2">  1       -2 0.13457724E+00 0.36398100E+04</pdfrwt>
<totfact> 0.16213379E-01</totfact>
</mgrwt>
</event>
<event>
11    1  0.1463487E-012  0.3541457E+04  0.7818608E-02  0.8104035E-01
          2   -1    0    0  501    0  0.00000000000E+00  0.00000000000E+00  0.11005426598E+04  0.11005426598E+04  0.00000000000E+00 0.  1.
         -2   -1    0    0    0  501 -0.00000000000E+00 -0.00000000000E+00 -0.28490305021E+04  0.28490305021E+04  0.00000000000E+00 0. -1.
    9900016    2    1    2    0    0 -0.42551659434E+03  0.95387652030E+03 -0.10529195763E+04  0.26946787438E+04  0.22498242398E+04 0.  0.
         24    2    3    3    0    0 -0.64695880181E+02  0.12870262761E+04 -0.10476600006E+03  0.12953420693E+04  0.79454196989E+02 0.  0.
        -15    1    4    4    0    0 -0.41341134129E+02  0.40031519186E+03 -0.62955750556E+02  0.40733864135E+03  0.00000000000E+00 0.  1.
        -15    1    3    3    0    0 -0.83156054715E+02 -0.74536099610E+02 -0.67342028349E+02  0.13040517000E+03  0.00000000000E+00 0.  1.
         15    1    3    3    0    0 -0.42086064160E+03 -0.29146711277E+03 -0.84434263995E+03  0.98741645273E+03  0.00000000000E+00 0. -1.
         15    1    3    3    0    0  0.13576104216E+03 -0.51979466479E+02  0.15826332279E+02  0.14623063392E+03  0.00000000000E+00 0. -1.
        -16    1    1    2    0    0  0.42551659434E+03 -0.95387652030E+03 -0.69556826591E+03  0.12548944181E+04  0.00000000000E+00 0.  1.
         16    1    4    4    0    0 -0.23354746052E+02  0.88671108425E+03 -0.41810249499E+02  0.88800342795E+03  0.00000000000E+00 0. -1.
    9900018    1    3    3    0    0  0.74349400010E+01  0.84832923049E+02 -0.52295240226E+02  0.13528441784E+03  0.91187600000E+02 0.  0.
<mgrwt>
<rscale>  0 0.35414571E+04</rscale>
<asrwt>0</asrwt>
<pdfrwt beam="1">  1        2 0.16931426E+00 0.35414571E+04</pdfrwt>
<pdfrwt beam="2">  1       -2 0.43831238E+00 0.35414571E+04</pdfrwt>
<totfact> 0.73869601E-02</totfact>
</mgrwt>
</event>
<event>
11    1  0.1463487E-012  0.2737047E+04  0.7818608E-02  0.8323084E-01
         -1   -1    0    0    0  501 -0.00000000000E+00  0.00000000000E+00  0.51249066723E+03  0.51249066723E+03  0.00000000000E+00 0.  1.
          1   -1    0    0  501    0  0.00000000000E+00 -0.00000000000E+00 -0.36544210952E+04  0.36544210952E+04  0.00000000000E+00 0. -1.
    9900016    2    1    2    0    0  0.76067981906E+02  0.37430805722E+02 -0.19206183663E+04  0.28886468110E+04  0.21559958457E+04 0.  0.
        -24    2    3    3    0    0 -0.14739152713E+03 -0.42607390571E+03 -0.27722120637E+02  0.45895064434E+03  0.81264645250E+02 0.  0.
        -15    1    3    3    0    0  0.34027532840E+03  0.20888979458E+03 -0.18405848037E+04  0.18833944528E+04  0.00000000000E+00 0.  1.
        -15    1    3    3    0    0  0.11804140714E+03 -0.56209112740E+02  0.55575336156E+02  0.14206285983E+03  0.00000000000E+00 0.  1.
         15    1    3    3    0    0 -0.23485722650E+03  0.31082402960E+03 -0.10788677814E+03  0.40423885404E+03  0.00000000000E+00 0. -1.
         15    1    4    4    0    0 -0.11368404818E+03 -0.22069840814E+03 -0.34928222336E+02  0.25070267426E+03  0.00000000000E+00 0. -1.
        -16    1    4    4    0    0 -0.33707478955E+02 -0.20537549758E+03  0.72061016992E+01  0.20824797008E+03  0.00000000000E+00 0.  1.
         16    1    1    2    0    0 -0.10201214336E+03 -0.33471500091E+02 -0.11607315535E+04  0.11656863034E+04  0.00000000000E+00 0. -1.
    9900018    1    1    2    0    0  0.25944161458E+02 -0.39593056308E+01 -0.60580508167E+02  0.11257864797E+03  0.91187600000E+02 0.  0.
<mgrwt>
<rscale>  0 0.27370471E+04</rscale>
<asrwt>0</asrwt>
<pdfrwt beam="1">  1        1 0.56221862E+00 0.27370471E+04</pdfrwt>
<pdfrwt beam="2">  1       -1 0.78844719E-01 0.27370471E+04</pdfrwt>
<totfact> 0.26326816E-01</totfact>
</mgrwt>
</event>
<event>
11    1  0.1463487E-012  0.3287768E+04  0.7818608E-02  0.8166015E-01
          2   -1    0    0  501    0  0.00000000000E+00  0.00000000000E+00  0.20545436529E+04  0.20545436529E+04  0.00000000000E+00 0. -1.
         -2   -1    0    0    0  501 -0.00000000000E+00 -0.00000000000E+00 -0.13153065326E+04  0.13153065326E+04  0.00000000000E+00 0.  1.
    9900016    2    1    2    0    0  0.11308611184E+03 -0.84846585261E+03  0.74024856177E+03  0.25138806797E+04  0.22447595343E+04 0.  0.
        -24    2    3    3    0    0  0.61203115593E+02  0.87437926351E+02 -0.90500494152E+01  0.13392379529E+03  0.80389472124E+02 0.  0.
        -15    1    3    3    0    0  0.88025780976E+01 -0.37325216079E+03  0.64070736990E+03  0.74155282668E+03  0.00000000000E+00 0.  1.
        -15    1    3    3    0    0  0.34209750020E+03 -0.85601494934E+03  0.32537808160E+03  0.97758027247E+03  0.00000000000E+00 0.  1.
         15    1    4    4    0    0  0.30414932034E+02  0.76532130052E+02  0.25662718806E+02  0.86260130753E+02  0.00000000000E+00 0. -1.
         15    1    3    3    0    0 -0.34175074260E+03  0.35177774616E+03 -0.23352267519E+03  0.54320713599E+03  0.00000000000E+00 0. -1.
        -16    1    4    4    0    0  0.30788183559E+02  0.10905796299E+02 -0.34712768222E+02  0.47663664540E+02  0.00000000000E+00 0.  1.
         16    1    1    2    0    0 -0.11308611184E+03  0.84846585261E+03 -0.10114414830E+01  0.85596950573E+03  0.00000000000E+00 0. -1.
    9900018    1    3    3    0    0  0.42733660554E+02 -0.58414414989E+02  0.16735834876E+02  0.11761664927E+03  0.91187600000E+02 0.  0.
<mgrwt>
<rscale>  0 0.32877681E+04</rscale>
<asrwt>0</asrwt>
<pdfrwt beam="1">  1        2 0.31608364E+00 0.32877681E+04</pdfrwt>
<pdfrwt beam="2">  1       -2 0.20235485E+00 0.32877681E+04</pdfrwt>
<totfact> 0.66854625E-01</totfact>
</mgrwt>
</event>
<event>
11    1  0.1463487E-012  0.2547178E+04  0.7818608E-02  0.8386368E-01
          1   -1    0    0  501    0  0.00000000000E+00  0.00000000000E+00  0.11626669825E+04  0.11626669825E+04  0.00000000000E+00 0. -1.
         -1   -1    0    0    0  501 -0.00000000000E+00 -0.00000000000E+00 -0.13950938011E+04  0.13950938011E+04  0.00000000000E+00 0.  1.
    9900016    2    1    2    0    0 -0.16362172786E+03 -0.10366546102E+03 -0.33431616446E+03  0.21956576669E+04  0.21613946180E+04 0.  0.
        -24    2    3    3    0    0  0.11194430057E+03 -0.52234696776E+03  0.25505667228E+03  0.59751989606E+03  0.81229544812E+02 0.  0.
        -15    1    3    3    0    0 -0.19282215622E+03 -0.31247659409E+03 -0.48790375969E+03  0.61063252821E+03  0.00000000000E+00 0.  1.
        -15    1    3    3    0    0  0.46801303879E+02  0.81413651770E+03 -0.14353373208E+03  0.82801604075E+03  0.00000000000E+00 0.  1.
         15    1    4    4    0    0  0.76078598649E+02 -0.46296434204E+03  0.20517438613E+03  0.51207466633E+03  0.00000000000E+00 0. -1.
         15    1    3    3    0    0 -0.12954517608E+03 -0.82978416867E+02  0.42064655025E+02  0.15948920188E+03  0.00000000000E+00 0. -1.
        -16    1    4    4    0    0  0.35865701920E+02 -0.59382625727E+02  0.49882286151E+02  0.85445229733E+02  0.00000000000E+00 0.  1.
         16    1    1    2    0    0  0.16298779983E+03  0.12985365372E+03  0.14899527738E+03  0.25617686656E+03  0.00000000000E+00 0. -1.
    9900018    1    1    2    0    0  0.63392802649E+00 -0.26188192700E+02 -0.47105931451E+02  0.10592625016E+03  0.91187600000E+02 0.  0.
<mgrwt>
<rscale>  0 0.25471784E+04</rscale>
<asrwt>0</asrwt>
<pdfrwt beam="1">  1        1 0.17887184E+00 0.25471784E+04</pdfrwt>
<pdfrwt beam="2">  1       -1 0.21462981E+00 0.25471784E+04</pdfrwt>
<totfact> 0.12046053E+00</totfact>
</mgrwt>
</event>
<event>
11    1  0.1463487E-012  0.3027334E+04  0.7818608E-02  0.8235968E-01
         -2   -1    0    0    0  501 -0.00000000000E+00  0.00000000000E+00  0.15504736366E+04  0.15504736366E+04  0.00000000000E+00 0.  1.
          2   -1    0    0  501    0  0.00000000000E+00 -0.00000000000E+00 -0.14777339723E+04  0.14777339723E+04  0.00000000000E+00 0. -1.
    9900016    2    1    2    0    0  0.32728842713E+02  0.57533657065E+03  0.40811265403E+03  0.22624508438E+04  0.21494288859E+04 0.  0.
         24    2    3    3    0    0 -0.14888458411E+03 -0.31509446031E+03  0.14271110155E+03  0.38517623418E+03  0.80889644408E+02 0.  0.
        -15    1    4    4    0    0 -0.94526303025E+02 -0.21790019132E+03  0.55988273607E+02  0.24402951076E+03  0.00000000000E+00 0.  1.
        -15    1    3    3    0    0  0.55807404571E+03  0.15402664624E+03  0.41329094951E+03  0.71132289236E+03  0.00000000000E+00 0.  1.
         15    1    3    3    0    0 -0.62054546316E+03  0.56898834749E+03 -0.16400213369E+02  0.84207682454E+03  0.00000000000E+00 0. -1.
         15    1    3    3    0    0  0.24408484427E+03  0.16741603723E+03 -0.13148918366E+03  0.32387489273E+03  0.00000000000E+00 0. -1.
        -16    1    1    2    0    0 -0.13115398434E+01 -0.56955281784E+03 -0.34930482416E+03  0.66813620814E+03  0.00000000000E+00 0.  1.
         16    1    4    4    0    0 -0.54358281081E+02 -0.97194268989E+02  0.86722827944E+02  0.14114672342E+03  0.00000000000E+00 0. -1.
    9900018    1    1    2    0    0 -0.31417302869E+02 -0.57837528036E+01  0.13931834428E+02  0.97620556853E+02  0.91187600000E+02 0.  0.
<mgrwt>
<rscale>  0 0.30273339E+04</rscale>
<asrwt>0</asrwt>
<pdfrwt beam="1">  1        2 0.22734369E+00 0.30273339E+04</pdfrwt>
<pdfrwt beam="2">  1       -2 0.23853441E+00 0.30273339E+04</pdfrwt>
<totfact> 0.84427251E-01</totfact>
</mgrwt>
</event>
<event>
11    1  0.1463487E-012  0.2744716E+04  0.7818608E-02  0.8320640E-01
         -2   -1    0    0    0  501 -0.00000000000E+00  0.00000000000E+00  0.97575920798E+03  0.97575920798E+03  0.00000000000E+00 0.  1.
          2   -1    0    0  501    0  0.00000000000E+00 -0.00000000000E+00 -0.19301552008E+04  0.19301552008E+04  0.00000000000E+00 0. -1.
    9900016    2    1    2    0    0 -0.19736387026E+03  0.39049394658E+03 -0.88149769612E+03  0.24623468477E+04  0.22571388505E+04 0.  0.
         24    2    3    3    0    0  0.23561092353E+03  0.29062358106E+03  0.18039805159E+03  0.42387592409E+03  0.84574043591E+02 0.  0.
        -15    1    3    3    0    0 -0.24821655794E+03  0.57177250685E+03 -0.98733054453E+02  0.63109704109E+03  0.00000000000E+00 0.  1.
        -15    1    4    4    0    0  0.17975035451E+03  0.24952569308E+03  0.11432907999E+03  0.32809206023E+03  0.00000000000E+00 0.  1.
         15    1    3    3    0    0 -0.21678378927E+03  0.16005287508E+03 -0.44283476486E+03  0.51837704721E+03  0.00000000000E+00 0. -1.
         15    1    3    3    0    0 -0.10324557813E+02 -0.60420218104E+03 -0.49627716454E+03  0.78195773295E+03  0.00000000000E+00 0. -1.
        -16    1    1    2    0    0  0.19736387026E+03 -0.39049394658E+03 -0.72898296686E+02  0.44356756110E+03  0.00000000000E+00 0.  1.
         16    1    4    4    0    0  0.55860569020E+02  0.41097887983E+02  0.66068971603E+02  0.95783863863E+02  0.00000000000E+00 0. -1.
    9900018    1    3    3    0    0  0.42350111227E+02 -0.27752835372E+02 -0.24050763853E+02  0.10703910233E+03  0.91187600000E+02 0.  0.
<mgrwt>
<rscale>  0 0.27447162E+04</rscale>
<asrwt>0</asrwt>
<pdfrwt beam="1">  1        2 0.29694696E+00 0.27447162E+04</pdfrwt>
<pdfrwt beam="2">  1       -2 0.15011680E+00 0.27447162E+04</pdfrwt>
<totfact> 0.19097005E+00</totfact>
</mgrwt>
</event>
<event>
11    1  0.1463487E-012  0.4874845E+04  0.7818608E-02  0.7848109E-01
          2   -1    0    0  501    0  0.00000000000E+00  0.00000000000E+00  0.28551625031E+04  0.28551625031E+04  0.00000000000E+00 0. -1.
         -2   -1    0    0    0  501 -0.00000000000E+00 -0.00000000000E+00 -0.20808020585E+04  0.20808020585E+04  0.00000000000E+00 0.  1.
    9900016    2    1    2    0    0  0.80615281306E+03 -0.33621370808E+03  0.20669644896E+04  0.31081670652E+04  0.21506832143E+04 0.  0.
         24    2    3    3    0    0  0.33655650363E+03  0.59466081450E+03  0.47302556106E+03  0.83479131388E+03  0.78940432536E+02 0.  0.
        -15    1    3    3    0    0 -0.66877942904E+02 -0.26604933968E+03  0.78896630670E+03  0.83529799683E+03  0.00000000000E+00 0.  1.
        -15    1    4    4    0    0  0.20619555379E+03  0.30298430155E+03  0.22198567730E+03  0.42847839422E+03  0.00000000000E+00 0.  1.
         15    1    3    3    0    0  0.40362238640E+03 -0.85653405610E+02  0.73082340280E+03  0.83925585061E+03  0.00000000000E+00 0. -1.
         15    1    3    3    0    0  0.13285186595E+03 -0.57917177728E+03  0.74149219049E+02  0.59882190389E+03  0.00000000000E+00 0. -1.
        -16    1    1    2    0    0 -0.86197212025E+03  0.31681203756E+03 -0.14004503271E+04  0.16747020397E+04  0.00000000000E+00 0.  1.
         16    1    4    4    0    0  0.13036094984E+03  0.29167651295E+03  0.25103988375E+03  0.40631291966E+03  0.00000000000E+00 0. -1.
    9900018    1    1    2    0    0  0.55819307181E+02  0.19401670514E+02  0.10784628217E+03  0.15309545664E+03  0.91187600000E+02 0.  0.
<mgrwt>
<rscale>  0 0.48748448E+04</rscale>
<asrwt>0</asrwt>
<pdfrwt beam="1">  1        2 0.43925577E+00 0.48748448E+04</pdfrwt>
<pdfrwt beam="2">  1       -2 0.32012339E+00 0.48748448E+04</pdfrwt>
<totfact> 0.37608721E-02</totfact>
</mgrwt>
</event>
<event>
11    1  0.1463487E-012  0.2839475E+04  0.7818608E-02  0.8291117E-01
         -1   -1    0    0    0  501 -0.00000000000E+00  0.00000000000E+00  0.87364575833E+03  0.87364575833E+03  0.00000000000E+00 0.  1.
          1   -1    0    0  501    0  0.00000000000E+00 -0.00000000000E+00 -0.23071757474E+04  0.23071757474E+04  0.00000000000E+00 0. -1.
    9900016    2    1    2    0    0  0.47035030185E+03 -0.34054644752E+02 -0.11905588735E+04  0.25128942108E+04  0.21621326875E+04 0.  0.
        -24    2    3    3    0    0 -0.15366066923E+03 -0.83602632618E+02  0.24602183568E+03  0.31242223754E+03  0.80497884622E+02 0.  0.
        -15    1    3    3    0    0  0.53811850788E+02 -0.43777613417E+03 -0.71653269171E+03  0.84140522771E+03  0.00000000000E+00 0.  1.
        -15    1    3    3    0    0  0.57447769249E+03 -0.78107210322E+02 -0.28741215588E+03  0.64709435388E+03  0.00000000000E+00 0.  1.
         15    1    4    4    0    0 -0.73781479473E+02 -0.26334948014E+02  0.49433620702E+02  0.92633250271E+02  0.00000000000E+00 0. -1.
         15    1    3    3    0    0 -0.42785721905E+01  0.56543133236E+03 -0.43263586157E+03  0.71197239168E+03  0.00000000000E+00 0. -1.
        -16    1    4    4    0    0 -0.79879189759E+02 -0.57267684604E+02  0.19658821498E+03  0.21978898727E+03  0.00000000000E+00 0.  1.
         16    1    1    2    0    0 -0.51121658949E+03  0.65610443559E+02 -0.18147430938E+03  0.54642479505E+03  0.00000000000E+00 0. -1.
    9900018    1    1    2    0    0  0.40866287639E+02 -0.31555798807E+02 -0.61496806173E+02  0.12150249984E+03  0.91187600000E+02 0.  0.
<mgrwt>
<rscale>  0 0.28394748E+04</rscale>
<asrwt>0</asrwt>
<pdfrwt beam="1">  1        1 0.35495011E+00 0.28394748E+04</pdfrwt>
<pdfrwt beam="2">  1       -1 0.13440704E+00 0.28394748E+04</pdfrwt>
<totfact> 0.73946653E-01</totfact>
</mgrwt>
</event>
<event>
11    1  0.1463487E-012  0.2797066E+04  0.7818608E-02  0.8304180E-01
         -2   -1    0    0    0  501 -0.00000000000E+00  0.00000000000E+00  0.10926572299E+04  0.10926572299E+04  0.00000000000E+00 0.  1.
          2   -1    0    0  501    0  0.00000000000E+00 -0.00000000000E+00 -0.17900342428E+04  0.17900342428E+04  0.00000000000E+00 0. -1.
    9900016    2    1    2    0    0  0.40140073629E+03  0.28263696767E+03 -0.47732147591E+03  0.23447038837E+04  0.22424973365E+04 0.  0.
         24    2    3    3    0    0  0.66709668059E+03  0.75103001652E+02 -0.88837453802E+03  0.11157207120E+04  0.70462368404E+02 0.  0.
        -15    1    4    4    0    0  0.35139327185E+03  0.16982392974E+02 -0.50920601863E+03  0.61891550520E+03  0.00000000000E+00 0.  1.
        -15    1    3    3    0    0 -0.11179221950E+03  0.39892652976E+03  0.15983360201E+02  0.41460263421E+03  0.00000000000E+00 0.  1.
         15    1    3    3    0    0  0.98831195877E+02  0.13197992307E+03  0.70660587377E+02  0.17938568499E+03  0.00000000000E+00 0. -1.
         15    1    3    3    0    0 -0.25899727868E+03 -0.33701504647E+03  0.33606576142E+03  0.54184769808E+03  0.00000000000E+00 0. -1.
        -16    1    1    2    0    0 -0.40140073629E+03 -0.28263696767E+03 -0.22005553703E+03  0.53798758904E+03  0.00000000000E+00 0.  1.
         16    1    4    4    0    0  0.31570340874E+03  0.58120608678E+02 -0.37916851939E+03  0.49680520684E+03  0.00000000000E+00 0. -1.
    9900018    1    3    3    0    0  0.62623580008E+01  0.13642559667E+02 -0.11656646888E+02  0.93147154398E+02  0.91187600000E+02 0.  0.
<mgrwt>
<rscale>  0 0.27970655E+04</rscale>
<asrwt>0</asrwt>
<pdfrwt beam="1">  1        2 0.27538988E+00 0.27970655E+04</pdfrwt>
<pdfrwt beam="2">  1       -2 0.16810111E+00 0.27970655E+04</pdfrwt>
<totfact> 0.16728908E+00</totfact>
</mgrwt>
</event>
<event>
11    1  0.1463487E-012  0.3441538E+04  0.7818608E-02  0.8127786E-01
         -2   -1    0    0    0  501 -0.00000000000E+00  0.00000000000E+00  0.30613756665E+04  0.30613756665E+04  0.00000000000E+00 0. -1.
          2   -1    0    0  501    0  0.00000000000E+00 -0.00000000000E+00 -0.96722703356E+03  0.96722703356E+03  0.00000000000E+00 0.  1.
    9900016    2    1    2    0    0 -0.60360181349E+03  0.49933096410E+03  0.77343939673E+03  0.24930443496E+04  0.22368270089E+04 0.  0.
        -24    2    3    3    0    0 -0.44096697310E+03  0.60888105821E+02 -0.36607668290E+03  0.58179922343E+03  0.79491923018E+02 0.  0.
        -15    1    3    3    0    0 -0.83476953968E+02 -0.15885174839E+03 -0.42918818999E+02  0.18451098838E+03  0.00000000000E+00 0.  1.
        -15    1    3    3    0    0  0.32416022832E+03  0.65161324531E+03  0.81865287353E+03  0.10953867821E+04  0.00000000000E+00 0.  1.
         15    1    3    3    0    0 -0.40586467771E+03 -0.77540629477E+02  0.33775601608E+03  0.53368325084E+03  0.00000000000E+00 0. -1.
         15    1    4    4    0    0 -0.18640264818E+03  0.63925629345E+02 -0.14554630571E+03  0.24498195942E+03  0.00000000000E+00 0. -1.
        -16    1    4    4    0    0 -0.25456432491E+03 -0.30375235244E+01 -0.22053037719E+03  0.33681726400E+03  0.00000000000E+00 0.  1.
         16    1    1    2    0    0  0.60360181349E+03 -0.49933096410E+03  0.13207092362E+04  0.15355583504E+04  0.00000000000E+00 0. -1.
    9900018    1    3    3    0    0  0.25465629654E+01  0.23221990834E+02  0.26026009019E+02  0.97664104872E+02  0.91187600000E+02 0.  0.
<mgrwt>
<rscale>  0 0.34415376E+04</rscale>
<asrwt>0</asrwt>
<pdfrwt beam="1">  1        2 0.14880416E+00 0.34415376E+04</pdfrwt>
<pdfrwt beam="2">  1       -2 0.47098087E+00 0.34415376E+04</pdfrwt>
<totfact> 0.55108407E-02</totfact>
</mgrwt>
</event>
<event>
11    1  0.1463487E-012  0.2755281E+04  0.7818608E-02  0.8317288E-01
          2   -1    0    0  501    0  0.00000000000E+00  0.00000000000E+00  0.28011659674E+04  0.28011659674E+04  0.00000000000E+00 0. -1.
         -2   -1    0    0    0  501 -0.00000000000E+00 -0.00000000000E+00 -0.67753696043E+03  0.67753696043E+03  0.00000000000E+00 0.  1.
    9900016    2    1    2    0    0  0.45140517788E+03 -0.75670116957E+02  0.16400056072E+04  0.28128319238E+04  0.22389534249E+04 0.  0.
        -24    2    3    3    0    0  0.30799102359E+03  0.59340265539E+03  0.18680477741E+03  0.69995839053E+03  0.89780518865E+02 0.  0.
        -15    1    3    3    0    0 -0.29764141919E+03 -0.34073899009E+02  0.56822289031E+03  0.64236181244E+03  0.00000000000E+00 0.  1.
        -15    1    3    3    0    0  0.50126560019E+03 -0.47530731657E+03  0.21424164105E+03  0.72324527505E+03  0.00000000000E+00 0.  1.
         15    1    4    4    0    0  0.87435071122E+02  0.17609511722E+03  0.13243169250E+02  0.19705269220E+03  0.00000000000E+00 0. -1.
         15    1    3    3    0    0 -0.53446277018E+02 -0.16232226066E+03  0.61903465744E+03  0.64219072552E+03  0.00000000000E+00 0. -1.
        -16    1    4    4    0    0  0.22055595247E+03  0.41730753817E+03  0.17356160816E+03  0.50290569833E+03  0.00000000000E+00 0.  1.
         16    1    1    2    0    0 -0.45140517788E+03  0.75670116957E+02  0.48362339980E+03  0.66587100407E+03  0.00000000000E+00 0. -1.
    9900018    1    3    3    0    0 -0.67637496940E+01  0.26307038913E+01  0.51701640993E+02  0.10507572026E+03  0.91187600000E+02 0.  0.
<mgrwt>
<rscale>  0 0.27552811E+04</rscale>
<asrwt>0</asrwt>
<pdfrwt beam="1">  1        2 0.43094861E+00 0.27552811E+04</pdfrwt>
<pdfrwt beam="2">  1       -2 0.10423646E+00 0.27552811E+04</pdfrwt>
<totfact> 0.15077785E+00</totfact>
</mgrwt>
</event>
<event>
11    1  0.1463487E-012  0.2427564E+04  0.7818608E-02  0.8429255E-01
         -1   -1    0    0    0  501 -0.00000000000E+00  0.00000000000E+00  0.59242113588E+03  0.59242113588E+03  0.00000000000E+00 0.  1.
          1   -1    0    0  501    0  0.00000000000E+00 -0.00000000000E+00 -0.24868577823E+04  0.24868577823E+04  0.00000000000E+00 0. -1.
    9900016    2    1    2    0    0 -0.29389632881E+02 -0.66750367735E+02 -0.19551443664E+04  0.29843853495E+04  0.22535853786E+04 0.  0.
         24    2    3    3    0    0  0.24478195348E+03 -0.47223640720E+02 -0.80429645161E+03  0.84570846962E+03  0.78624147224E+02 0.  0.
        -15    1    4    4    0    0  0.13067364303E+03  0.31810648828E+01 -0.50074873054E+03  0.51752778795E+03  0.00000000000E+00 0.  1.
        -15    1    3    3    0    0 -0.45616894717E+03 -0.22118342782E+03 -0.62517056548E+03  0.80489157844E+03  0.00000000000E+00 0.  1.
         15    1    3    3    0    0 -0.20497112453E+03  0.52520349506E+03 -0.20780443400E+03  0.60086151142E+03  0.00000000000E+00 0. -1.
         15    1    3    3    0    0  0.37838525998E+03 -0.36851488898E+03 -0.17313600888E+03  0.55583694187E+03  0.00000000000E+00 0. -1.
        -16    1    1    2    0    0  0.29389632881E+02  0.66750367735E+02  0.60707719994E+02  0.94893568700E+02  0.00000000000E+00 0.  1.
         16    1    4    4    0    0  0.11410831044E+03 -0.50404705602E+02 -0.30354772106E+03  0.32818068167E+03  0.00000000000E+00 0. -1.
    9900018    1    3    3    0    0  0.85832253528E+01  0.44968094726E+02 -0.14473690648E+03  0.17708684816E+03  0.91187600000E+02 0.  0.
<mgrwt>
<rscale>  0 0.24275643E+04</rscale>
<asrwt>0</asrwt>
<pdfrwt beam="1">  1        1 0.38259351E+00 0.24275643E+04</pdfrwt>
<pdfrwt beam="2">  1       -1 0.91141713E-01 0.24275643E+04</pdfrwt>
<totfact> 0.14525087E+00</totfact>
</mgrwt>
</event>
<event>
11    1  0.1463487E-012  0.2542875E+04  0.7818608E-02  0.8387868E-01
         -1   -1    0    0    0  501 -0.00000000000E+00  0.00000000000E+00  0.93243980086E+03  0.93243980086E+03  0.00000000000E+00 0.  1.
          1   -1    0    0  501    0  0.00000000000E+00 -0.00000000000E+00 -0.17336811864E+04  0.17336811864E+04  0.00000000000E+00 0. -1.
    9900016    2    1    2    0    0 -0.33765696699E+02 -0.20966591659E+03 -0.91223155841E+03  0.24264989154E+04  0.22384438013E+04 0.  0.
         24    2    3    3    0    0  0.21747311848E+03 -0.76241107309E+02  0.81230032850E+02  0.25788398466E+03  0.82453426861E+02 0.  0.
        -15    1    4    4    0    0  0.12480718629E+03 -0.52910419844E+00  0.35246685144E+02  0.12968979341E+03  0.00000000000E+00 0.  1.
        -15    1    3    3    0    0  0.46458061312E+03  0.34279181647E+03 -0.31149989178E+03  0.65602862598E+03  0.00000000000E+00 0.  1.
         15    1    3    3    0    0 -0.12508314039E+03  0.22712799826E+03 -0.39746004828E+03  0.47456022756E+03  0.00000000000E+00 0. -1.
         15    1    3    3    0    0 -0.60556717265E+03 -0.66152092749E+03 -0.25335508951E+03  0.93193902133E+03  0.00000000000E+00 0. -1.
        -16    1    1    2    0    0  0.33765696699E+02  0.20966591659E+03  0.11099017284E+03  0.23962207185E+03  0.00000000000E+00 0.  1.
         16    1    4    4    0    0  0.92665932191E+02 -0.75712003111E+02  0.45983347706E+02  0.12819419125E+03  0.00000000000E+00 0. -1.
    9900018    1    3    3    0    0  0.14830884731E+02 -0.41823696520E+02 -0.31146561680E+02  0.10608705591E+03  0.91187600000E+02 0.  0.
<mgrwt>
<rscale>  0 0.25428750E+04</rscale>
<asrwt>0</asrwt>
<pdfrwt beam="1">  1        1 0.26672018E+00 0.25428750E+04</pdfrwt>
<pdfrwt beam="2">  1       -1 0.14345228E+00 0.25428750E+04</pdfrwt>
<totfact> 0.15728294E+00</totfact>
</mgrwt>
</event>
<event>
11    1  0.1463487E-012  0.3036309E+04  0.7818608E-02  0.8233438E-01
          1   -1    0    0  501    0  0.00000000000E+00  0.00000000000E+00  0.16054251220E+04  0.16054251220E+04  0.00000000000E+00 0. -1.
         -1   -1    0    0    0  501 -0.00000000000E+00 -0.00000000000E+00 -0.14356282946E+04  0.14356282946E+04  0.00000000000E+00 0.  1.
    9900016    2    1    2    0    0 -0.15149511886E+03 -0.38625715034E+03 -0.35324630291E+03  0.22265848029E+04  0.21588773881E+04 0.  0.
        -24    2    3    3    0    0 -0.33605343787E+03 -0.52530856320E+03  0.57054118019E+03  0.84901477203E+03  0.80173843302E+02 0.  0.
        -15    1    3    3    0    0  0.10886229373E+03 -0.21454008153E+03 -0.31336972272E+03  0.39506838483E+03  0.00000000000E+00 0.  1.
        -15    1    3    3    0    0  0.16744551549E+03  0.46413741565E+03 -0.17424732772E+03  0.52328163782E+03  0.00000000000E+00 0.  1.
         15    1    4    4    0    0 -0.12149565244E+03 -0.26408245832E+03  0.26294146696E+03  0.39196805150E+03  0.00000000000E+00 0. -1.
         15    1    3    3    0    0 -0.91749490214E+02 -0.11054592126E+03 -0.43617043266E+03  0.45922000826E+03  0.00000000000E+00 0. -1.
        -16    1    4    4    0    0 -0.21455778543E+03 -0.26122610489E+03  0.30759971323E+03  0.45704672052E+03  0.00000000000E+00 0.  1.
         16    1    1    2    0    0  0.17039399500E+03  0.42814324550E+03  0.54115102998E+03  0.71076380708E+03  0.00000000000E+00 0. -1.
    9900018    1    1    2    0    0 -0.18898876140E+02 -0.41886095158E+02 -0.18107899674E+02  0.10370480660E+03  0.91187600000E+02 0.  0.
<mgrwt>
<rscale>  0 0.30363094E+04</rscale>
<asrwt>0</asrwt>
<pdfrwt beam="1">  1        1 0.24698848E+00 0.30363094E+04</pdfrwt>
<pdfrwt beam="2">  1       -1 0.22086589E+00 0.30363094E+04</pdfrwt>
<totfact> 0.50972810E-01</totfact>
</mgrwt>
</event>
<event>
11    1  0.2551990E-012  0.3289384E+04  0.7818608E-02  0.8165602E-01
         -1   -1    0    0    0  501 -0.00000000000E+00  0.00000000000E+00  0.20442335057E+04  0.20442335057E+04  0.00000000000E+00 0.  1.
          1   -1    0    0  501    0  0.00000000000E+00 -0.00000000000E+00 -0.13232403389E+04  0.13232403389E+04  0.00000000000E+00 0. -1.
    9900016    2    1    2    0    0 -0.39415874451E+03 -0.30100770810E+03 -0.21000144996E+03  0.23126194790E+04  0.22490312335E+04 0.  0.
         24    2    3    3    0    0 -0.81871372154E+02 -0.17867747244E+03 -0.49722796169E+03  0.54069217016E+03  0.80522147582E+02 0.  0.
        -15    1    3    3    0    0 -0.21878134278E+03  0.25011764468E+03  0.50680285180E+03  0.60603072753E+03  0.00000000000E+00 0.  1.
        -15    1    4    4    0    0 -0.55203323215E+01 -0.68043020667E+02 -0.25149382656E+03  0.26059445798E+03  0.00000000000E+00 0.  1.
         15    1    3    3    0    0 -0.25894837626E+03  0.24993504116E+03  0.82789385282E+02  0.36929103520E+03  0.00000000000E+00 0. -1.
         15    1    3    3    0    0  0.17079182389E+03 -0.61994017629E+03 -0.24188252380E+03  0.68702461717E+03  0.00000000000E+00 0. -1.
        -16    1    1    2    0    0  0.39415874451E+03  0.30100770810E+03  0.93099461677E+03  0.10548543656E+04  0.00000000000E+00 0.  1.
         16    1    4    4    0    0 -0.76351039833E+02 -0.11063445177E+03 -0.24573413513E+03  0.28009771218E+03  0.00000000000E+00 0. -1.
    9900018    1    3    3    0    0 -0.53494772113E+01 -0.24427452080E+01 -0.60483201559E+02  0.10958092888E+03  0.91187600000E+02 0.  0.
<mgrwt>
<rscale>  0 0.32893843E+04</rscale>
<asrwt>0</asrwt>
<pdfrwt beam="1">  1        1 0.20357544E+00 0.32893843E+04</pdfrwt>
<pdfrwt beam="2">  1       -1 0.31449746E+00 0.32893843E+04</pdfrwt>
<totfact> 0.19213984E-01</totfact>
</mgrwt>
</event>
<event>
12    1  0.1463487E-012  0.3046205E+04  0.7818608E-02  0.8230659E-01
         -1   -1    0    0    0  501 -0.00000000000E+00  0.00000000000E+00  0.14426681753E+04  0.14426681753E+04  0.00000000000E+00 0.  1.
          1   -1    0    0  501    0  0.00000000000E+00 -0.00000000000E+00 -0.16080209002E+04  0.16080209002E+04  0.00000000000E+00 0. -1.
    9900016    2    1    2    0    0  0.43654114289E+03  0.42983393675E+03 -0.44706505078E+03  0.23763840872E+04  0.22521120726E+04 0.  0.
         24    2    3    3    0    0  0.50074493911E+03 -0.23858301138E+03 -0.44790292147E+02  0.56220142666E+03  0.79980788315E+02 0.  0.
         23    2    3    3    0    0  0.41190434776E+03 -0.13167304508E+03  0.29725358237E+03  0.53855616183E+03  0.12116131690E+03 0.  0.
        -15    1    5    5    0    0  0.20811744844E+03 -0.12083021756E+03  0.19794377752E+03  0.31159998857E+03  0.00000000000E+00 0.  1.
        -15    1    4    4    0    0  0.26491002862E+03 -0.12915852411E+03  0.16183061731E+02  0.29516290264E+03  0.00000000000E+00 0.  1.
         15    1    3    3    0    0 -0.53405215864E+03  0.79602546725E+03 -0.62607389143E+03  0.11449178006E+04  0.00000000000E+00 0. -1.
         15    1    5    5    0    0  0.20378689931E+03 -0.10842827527E+02  0.99309804852E+02  0.22695617326E+03  0.00000000000E+00 0. -1.
        -16    1    1    2    0    0 -0.43654114289E+03 -0.42983393675E+03  0.28171232584E+03  0.67430498823E+03  0.00000000000E+00 0.  1.
         16    1    4    4    0    0  0.23583491050E+03 -0.10942448728E+03 -0.60973353878E+02  0.26703852401E+03  0.00000000000E+00 0. -1.
    9900018    1    3    3    0    0  0.57944014662E+02  0.40645259667E+01 -0.73454449572E+02  0.13070869811E+03  0.91187600000E+02 0.  0.
<mgrwt>
<rscale>  0 0.30462046E+04</rscale>
<asrwt>0</asrwt>
<pdfrwt beam="1">  1        1 0.24738783E+00 0.30462046E+04</pdfrwt>
<pdfrwt beam="2">  1       -1 0.22194895E+00 0.30462046E+04</pdfrwt>
<totfact> 0.49881520E-01</totfact>
</mgrwt>
</event>
<event>
11    1  0.1463487E-012  0.3779080E+04  0.7818608E-02  0.8050659E-01
          2   -1    0    0  501    0  0.00000000000E+00  0.00000000000E+00  0.18760457508E+04  0.18760457508E+04  0.00000000000E+00 0. -1.
         -2   -1    0    0    0  501 -0.00000000000E+00 -0.00000000000E+00 -0.19031317070E+04  0.19031317070E+04  0.00000000000E+00 0.  1.
    9900016    2    1    2    0    0 -0.57521744158E+03 -0.10645887090E+04 -0.18256113139E+03  0.25591787878E+04  0.22476305917E+04 0.  0.
        -24    2    3    3    0    0 -0.19581827134E+03 -0.10842776077E+03 -0.70387583281E+02  0.24686333106E+03  0.76718430947E+02 0.  0.
        -15    1    3    3    0    0 -0.34353164780E+02 -0.50741588152E+03 -0.25486433252E+03  0.56886452231E+03  0.00000000000E+00 0.  1.
        -15    1    3    3    0    0  0.46193761841E+03  0.28534900426E+03 -0.57781352641E+02  0.54603031257E+03  0.00000000000E+00 0.  1.
         15    1    3    3    0    0 -0.80564366946E+03 -0.68789494021E+03  0.24269492104E+03  0.10868127693E+04  0.00000000000E+00 0. -1.
         15    1    4    4    0    0 -0.10262276705E+03 -0.30923887975E+02 -0.65381004342E+02  0.12554837671E+03  0.00000000000E+00 0. -1.
        -16    1    4    4    0    0 -0.93195504285E+02 -0.77503872793E+02 -0.50065789387E+01  0.12131495435E+03  0.00000000000E+00 0.  1.
         16    1    1    2    0    0  0.57521744158E+03  0.10645887090E+04  0.15547517514E+03  0.12199986699E+04  0.00000000000E+00 0. -1.
    9900018    1    3    3    0    0 -0.13399544057E+01 -0.46199130811E+02 -0.42222783986E+02  0.11060785255E+03  0.91187600000E+02 0.  0.
<mgrwt>
<rscale>  0 0.37790804E+04</rscale>
<asrwt>0</asrwt>
<pdfrwt beam="1">  1        2 0.28862242E+00 0.37790804E+04</pdfrwt>
<pdfrwt beam="2">  1       -2 0.29278949E+00 0.37790804E+04</pdfrwt>
<totfact> 0.22124254E-01</totfact>
</mgrwt>
</event>
<event>
11    1  0.1463487E-012  0.3147835E+04  0.7818608E-02  0.8202731E-01
         -2   -1    0    0    0  501 -0.00000000000E+00  0.00000000000E+00  0.17001406601E+04  0.17001406601E+04  0.00000000000E+00 0.  1.
          2   -1    0    0  501    0  0.00000000000E+00 -0.00000000000E+00 -0.14570651873E+04  0.14570651873E+04  0.00000000000E+00 0. -1.
    9900016    2    1    2    0    0  0.61930525810E+03 -0.31571520208E+03  0.50198415795E+03  0.24154182776E+04  0.22581059030E+04 0.  0.
        -24    2    3    3    0    0  0.25188366790E+03  0.30775194910E+03 -0.20521279809E+03  0.45426193927E+03  0.78006234588E+02 0.  0.
        -15    1    3    3    0    0  0.79910275437E+03 -0.23699688510E+03  0.21463224695E+03  0.86069723888E+03  0.00000000000E+00 0.  1.
        -15    1    3    3    0    0 -0.36519605520E+03 -0.37552735456E+03  0.55029148044E+03  0.75974315805E+03  0.00000000000E+00 0.  1.
         15    1    3    3    0    0 -0.15190132657E+03 -0.24231674003E+02 -0.12498500512E+03  0.19819797815E+03  0.00000000000E+00 0. -1.
         15    1    4    4    0    0  0.13440717546E+03  0.14847545433E+03 -0.14545870874E+03  0.24752471655E+03  0.00000000000E+00 0. -1.
        -16    1    4    4    0    0  0.11747649244E+03  0.15927649477E+03 -0.59754089346E+02  0.20673722272E+03  0.00000000000E+00 0.  1.
         16    1    1    2    0    0 -0.61930525810E+03  0.31571520208E+03 -0.25890868521E+03  0.74178756986E+03  0.00000000000E+00 0. -1.
    9900018    1    3    3    0    0  0.85416217597E+02  0.13288762486E+02  0.67258233772E+02  0.14251796322E+03  0.91187600000E+02 0.  0.
<mgrwt>
<rscale>  0 0.31478347E+04</rscale>
<asrwt>0</asrwt>
<pdfrwt beam="1">  1        2 0.22416388E+00 0.31478347E+04</pdfrwt>
<pdfrwt beam="2">  1       -2 0.26156010E+00 0.31478347E+04</pdfrwt>
<totfact> 0.61967906E-01</totfact>
</mgrwt>
</event>
<event>
11    1  0.1463487E-012  0.3201571E+04  0.7818608E-02  0.8188402E-01
         -2   -1    0    0    0  501 -0.00000000000E+00  0.00000000000E+00  0.16164618260E+04  0.16164618260E+04  0.00000000000E+00 0. -1.
          2   -1    0    0  501    0  0.00000000000E+00 -0.00000000000E+00 -0.15852615512E+04  0.15852615512E+04  0.00000000000E+00 0.  1.
    9900016    2    1    2    0    0  0.38031439113E+03  0.13665725519E+03 -0.54605816589E+03  0.22501860933E+04  0.21451908289E+04 0.  0.
        -24    2    3    3    0    0 -0.59081541815E+03  0.34269514913E+03 -0.49350459609E+03  0.84646871340E+03  0.80372089992E+02 0.  0.
        -15    1    3    3    0    0  0.40240336116E+03  0.36794387333E+02  0.11098995552E+03  0.41904780424E+03  0.00000000000E+00 0.  1.
        -15    1    3    3    0    0  0.34608371131E+03 -0.37351828014E+03 -0.38989089768E+03  0.64133045532E+03  0.00000000000E+00 0.  1.
         15    1    4    4    0    0 -0.17426513885E+03  0.66426772740E+02 -0.15847846565E+03  0.24473716275E+03  0.00000000000E+00 0. -1.
         15    1    3    3    0    0  0.22264273681E+03  0.13068599886E+03  0.22634737236E+03  0.34333912029E+03  0.00000000000E+00 0. -1.
        -16    1    4    4    0    0 -0.41655027930E+03  0.27626837639E+03 -0.33502613044E+03  0.60173155066E+03  0.00000000000E+00 0.  1.
         16    1    1    2    0    0 -0.44027273169E+03 -0.12864872071E+03  0.66735919506E+03  0.80978939660E+03  0.00000000000E+00 0. -1.
    9900018    1    1    2    0    0  0.59958340568E+02 -0.80085344761E+01 -0.90100754337E+02  0.14174788730E+03  0.91187600000E+02 0.  0.
<mgrwt>
<rscale>  0 0.32015714E+04</rscale>
<asrwt>0</asrwt>
<pdfrwt beam="1">  1        2 0.24388639E+00 0.32015714E+04</pdfrwt>
<pdfrwt beam="2">  1       -2 0.24868643E+00 0.32015714E+04</pdfrwt>
<totfact> 0.62654398E-01</totfact>
</mgrwt>
</event>
<event>
11    1  0.1463487E-012  0.2997707E+04  0.7818608E-02  0.8244386E-01
          1   -1    0    0  501    0  0.00000000000E+00  0.00000000000E+00  0.89193332080E+03  0.89193332080E+03  0.00000000000E+00 0. -1.
         -1   -1    0    0    0  501 -0.00000000000E+00 -0.00000000000E+00 -0.25187548754E+04  0.25187548754E+04  0.00000000000E+00 0.  1.
    9900016    2    1    2    0    0  0.20985015154E+03 -0.59127448345E+03 -0.10737511145E+04  0.25743093870E+04  0.22539930707E+04 0.  0.
         24    2    3    3    0    0 -0.47588862516E+03  0.15826284133E+03 -0.40216720373E+03  0.64752261324E+03  0.77652845400E+02 0.  0.
        -15    1    3    3    0    0  0.77176708764E+02  0.21674953107E+03 -0.26433019557E+03  0.35043837673E+03  0.00000000000E+00 0.  1.
        -15    1    4    4    0    0 -0.12326560988E+03  0.29919212277E+02 -0.62653190311E+02  0.14147435138E+03  0.00000000000E+00 0.  1.
         15    1    3    3    0    0  0.81321491037E+03 -0.84358949517E+03 -0.32651852709E+03  0.12163782616E+04  0.00000000000E+00 0. -1.
         15    1    3    3    0    0 -0.21808046014E+03 -0.11687209225E+03 -0.97802190628E+02  0.26605157683E+03  0.00000000000E+00 0. -1.
        -16    1    1    2    0    0 -0.20985015154E+03  0.59127448345E+03 -0.55307044000E+03  0.83637880920E+03  0.00000000000E+00 0.  1.
         16    1    4    4    0    0 -0.35262301528E+03  0.12834362906E+03 -0.33951401342E+03  0.50604826186E+03  0.00000000000E+00 0. -1.
    9900018    1    3    3    0    0  0.13427617706E+02 -0.58252684314E+01  0.17067002469E+02  0.93918558531E+02  0.91187600000E+02 0.  0.
<mgrwt>
<rscale>  0 0.29977067E+04</rscale>
<asrwt>0</asrwt>
<pdfrwt beam="1">  1        1 0.13722051E+00 0.29977067E+04</pdfrwt>
<pdfrwt beam="2">  1       -1 0.38750075E+00 0.29977067E+04</pdfrwt>
<totfact> 0.13681472E-01</totfact>
</mgrwt>
</event>
<event>
11    1  0.1463487E-012  0.2727346E+04  0.7818608E-02  0.8326186E-01
          2   -1    0    0  501    0  0.00000000000E+00  0.00000000000E+00  0.10977207038E+04  0.10977207038E+04  0.00000000000E+00 0. -1.
         -2   -1    0    0    0  501 -0.00000000000E+00 -0.00000000000E+00 -0.16940590716E+04  0.16940590716E+04  0.00000000000E+00 0.  1.
    9900016    2    1    2    0    0 -0.20431605575E+03  0.13724807460E+03 -0.87135249435E+03  0.23296625378E+04  0.21465065306E+04 0.  0.
        -24    2    3    3    0    0 -0.27998338289E+03 -0.49411612714E+02 -0.32973809424E+03  0.44406142994E+03  0.87356399936E+02 0.  0.
        -15    1    3    3    0    0 -0.30698973575E+03 -0.52847919896E+03 -0.71295848628E+03  0.93906483523E+03  0.00000000000E+00 0.  1.
        -15    1    3    3    0    0  0.26415040759E+03  0.10203690910E+03 -0.42797643714E+02  0.28638890858E+03  0.00000000000E+00 0.  1.
         15    1    3    3    0    0  0.11850665530E+03  0.61310197718E+03  0.21414172988E+03  0.66014736404E+03  0.00000000000E+00 0. -1.
         15    1    4    4    0    0 -0.17401958115E+03  0.12681532548E+02 -0.18702199427E+03  0.25577502269E+03  0.00000000000E+00 0. -1.
        -16    1    4    4    0    0 -0.10596380174E+03 -0.62093145262E+02 -0.14271609997E+03  0.18828640726E+03  0.00000000000E+00 0.  1.
         16    1    1    2    0    0  0.15371235860E+03 -0.12798145558E+03  0.29412259517E+03  0.35568925082E+03  0.00000000000E+00 0. -1.
    9900018    1    1    2    0    0  0.50603697148E+02 -0.92666190220E+01 -0.19108468637E+02  0.10642798674E+03  0.91187600000E+02 0.  0.
<mgrwt>
<rscale>  0 0.27273458E+04</rscale>
<asrwt>0</asrwt>
<pdfrwt beam="1">  1        2 0.16888011E+00 0.27273458E+04</pdfrwt>
<pdfrwt beam="2">  1       -2 0.26062447E+00 0.27273458E+04</pdfrwt>
<totfact> 0.10580467E+00</totfact>
</mgrwt>
</event>
<event>
11    1  0.1463487E-012  0.2631981E+04  0.7818608E-02  0.8357418E-01
         -2   -1    0    0    0  501 -0.00000000000E+00  0.00000000000E+00  0.12767621443E+04  0.12767621443E+04  0.00000000000E+00 0.  1.
          2   -1    0    0  501    0  0.00000000000E+00 -0.00000000000E+00 -0.13564240630E+04  0.13564240630E+04  0.00000000000E+00 0. -1.
    9900016    2    1    2    0    0 -0.12348702974E+03  0.66639054166E+02 -0.39527633248E+03  0.22877846030E+04  0.22490053803E+04 0.  0.
         24    2    3    3    0    0  0.30854481659E+03  0.67367994418E+03  0.44076993981E+03  0.86567641448E+03  0.77929094249E+02 0.  0.
        -15    1    4    4    0    0  0.28255574655E+03  0.54960167718E+03  0.35622109464E+03  0.71329742866E+03  0.00000000000E+00 0.  1.
        -15    1    3    3    0    0 -0.31670829663E+03 -0.17544262347E+03 -0.27538399031E+03  0.45488526180E+03  0.00000000000E+00 0.  1.
         15    1    3    3    0    0 -0.30357292250E+03 -0.38693793595E+03 -0.40624119440E+03  0.63789450035E+03  0.00000000000E+00 0. -1.
         15    1    3    3    0    0  0.15665527635E+03 -0.83682261265E+02 -0.13581340700E+03  0.22358192677E+03  0.00000000000E+00 0. -1.
        -16    1    1    2    0    0  0.12348702974E+03 -0.66639054166E+02  0.31561441375E+03  0.34540160425E+03  0.00000000000E+00 0.  1.
         16    1    4    4    0    0  0.25989070042E+02  0.12407826699E+03  0.84548845167E+02  0.15237898582E+03  0.00000000000E+00 0. -1.
    9900018    1    3    3    0    0  0.31594096456E+02  0.39021930673E+02 -0.18607680576E+02  0.10574649959E+03  0.91187600000E+02 0.  0.
<mgrwt>
<rscale>  0 0.26319809E+04</rscale>
<asrwt>0</asrwt>
<pdfrwt beam="1">  1        2 0.20868063E+00 0.26319809E+04</pdfrwt>
<pdfrwt beam="2">  1       -2 0.19642494E+00 0.26319809E+04</pdfrwt>
<totfact> 0.18993716E+00</totfact>
</mgrwt>
</event>
<event>
11    1  0.1463487E-012  0.4770431E+04  0.7818608E-02  0.7864930E-01
          1   -1    0    0  501    0  0.00000000000E+00  0.00000000000E+00  0.24150699164E+04  0.24150699164E+04  0.00000000000E+00 0. -1.
         -1   -1    0    0    0  501 -0.00000000000E+00 -0.00000000000E+00 -0.23557298729E+04  0.23557298729E+04  0.00000000000E+00 0.  1.
    9900016    2    1    2    0    0  0.11836132174E+04  0.57012323479E+03  0.12311031579E+04  0.28070715145E+04  0.21536143460E+04 0.  0.
         24    2    3    3    0    0  0.65029995222E+02 -0.28957623782E+03 -0.13306478218E+03  0.33469753030E+03  0.78948734874E+02 0.  0.
        -15    1    4    4    0    0  0.19777700998E+02 -0.18911907083E+03 -0.49711393989E+02  0.19654109774E+03  0.00000000000E+00 0.  1.
        -15    1    3    3    0    0 -0.43243548828E+02  0.25099053759E+03 -0.70464384154E+02  0.26425647373E+03  0.00000000000E+00 0.  1.
         15    1    3    3    0    0  0.81028380290E+03  0.90349298913E+03  0.95415834332E+03  0.15437867621E+04  0.00000000000E+00 0. -1.
         15    1    3    3    0    0  0.35154296812E+03 -0.29478405411E+03  0.48047398089E+03  0.66433074842E+03  0.00000000000E+00 0. -1.
        -16    1    1    2    0    0 -0.12223328425E+04 -0.58156790090E+03 -0.12456954278E+04  0.18395857958E+04  0.00000000000E+00 0.  1.
         16    1    4    4    0    0  0.45252294223E+02 -0.10045716699E+03 -0.83353388195E+02  0.13815643255E+03  0.00000000000E+00 0. -1.
    9900018    1    1    2    0    0  0.38719625125E+02  0.11444666108E+02  0.73932313371E+02  0.12414247906E+03  0.91187600000E+02 0.  0.
<mgrwt>
<rscale>  0 0.47704307E+04</rscale>
<asrwt>0</asrwt>
<pdfrwt beam="1">  1        1 0.37154922E+00 0.47704307E+04</pdfrwt>
<pdfrwt beam="2">  1       -1 0.36241998E+00 0.47704307E+04</pdfrwt>
<totfact> 0.14647789E-02</totfact>
</mgrwt>
</event>
<event>
11    1  0.1463487E-012  0.2427721E+04  0.7818608E-02  0.8429198E-01
          1   -1    0    0  501    0  0.00000000000E+00  0.00000000000E+00  0.29949029506E+04  0.29949029506E+04  0.00000000000E+00 0. -1.
         -1   -1    0    0    0  501 -0.00000000000E+00 -0.00000000000E+00 -0.49198828170E+03  0.49198828170E+03  0.00000000000E+00 0.  1.
    9900016    2    1    2    0    0  0.65379412464E+02 -0.13205819919E+03  0.24609782662E+04  0.33336838649E+04  0.22439519266E+04 0.  0.
         24    2    3    3    0    0 -0.51492041151E+02  0.66900293753E+03  0.18713204019E+04  0.19894714350E+04  0.77072585731E+02 0.  0.
        -15    1    3    3    0    0  0.14967862412E+03  0.49215245590E+02  0.20682214442E+03  0.26000236603E+03  0.00000000000E+00 0.  1.
        -15    1    4    4    0    0 -0.50777852775E+02  0.20316241086E+03  0.56171093508E+03  0.59947688038E+03  0.00000000000E+00 0.  1.
         15    1    3    3    0    0  0.35296045205E+02 -0.77560592497E+03  0.28477907299E+03  0.82698819947E+03  0.00000000000E+00 0. -1.
         15    1    3    3    0    0 -0.74488943744E+02 -0.27599543680E+02 -0.36876169772E+02  0.87579617768E+02  0.00000000000E+00 0. -1.
        -16    1    1    2    0    0 -0.65379412464E+02  0.13205819919E+03  0.41936402702E+02  0.15320736738E+03  0.00000000000E+00 0.  1.
         16    1    4    4    0    0 -0.71418837553E+00  0.46584052667E+03  0.13096094668E+04  0.13899945547E+04  0.00000000000E+00 0. -1.
    9900018    1    3    3    0    0  0.63857280282E+01 -0.47070913659E+02  0.13493281661E+03  0.16964224659E+03  0.91187600000E+02 0.  0.
<mgrwt>
<rscale>  0 0.24277209E+04</rscale>
<asrwt>0</asrwt>
<pdfrwt beam="1">  1        1 0.46075429E+00 0.24277209E+04</pdfrwt>
<pdfrwt beam="2">  1       -1 0.75690507E-01 0.24277209E+04</pdfrwt>
<totfact> 0.94542903E-01</totfact>
</mgrwt>
</event>
<event>
12    1  0.1463487E-012  0.3142109E+04  0.7818608E-02  0.8204275E-01
          2   -1    0    0  501    0  0.00000000000E+00  0.00000000000E+00  0.97691159447E+03  0.97691159447E+03  0.00000000000E+00 0. -1.
         -2   -1    0    0    0  501 -0.00000000000E+00 -0.00000000000E+00 -0.25265466427E+04  0.25265466427E+04  0.00000000000E+00 0.  1.
    9900016    2    1    2    0    0 -0.26150014537E+03 -0.69076154369E+03 -0.12637684790E+04  0.25972712673E+04  0.21455007414E+04 0.  0.
        -24    2    3    3    0    0 -0.60128097619E+02 -0.11837343457E+03  0.21921556868E+03  0.26685236973E+03  0.74344223357E+02 0.  0.
         23    2    3    3    0    0 -0.18931841733E+03 -0.22480078064E+03  0.34734163270E+03  0.46734231912E+03  0.10670416732E+03 0.  0.
        -15    1    3    3    0    0 -0.12053630419E+02 -0.34758732848E+03 -0.18303256804E+04  0.18630765785E+04  0.00000000000E+00 0.  1.
        -15    1    5    5    0    0 -0.81262279089E+02 -0.30305982147E+02  0.13025117693E+03  0.15648443900E+03  0.00000000000E+00 0. -1.
         15    1    5    5    0    0 -0.10805613824E+03 -0.19449479849E+03  0.21709045576E+03  0.31085788013E+03  0.00000000000E+00 0. -1.
         15    1    4    4    0    0 -0.77395418548E+00 -0.17445030238E+02 -0.95053019117E+00  0.17488041421E+02  0.00000000000E+00 0.  1.
        -16    1    4    4    0    0 -0.59354143434E+02 -0.10092840433E+03  0.22016609887E+03  0.24936432831E+03  0.00000000000E+00 0.  1.
         16    1    1    2    0    0  0.29214209388E+03  0.67562474031E+03 -0.17116175664E+03  0.75571961710E+03  0.00000000000E+00 0. -1.
    9900018    1    1    2    0    0 -0.30641948510E+02  0.15136803382E+02 -0.11470481261E+03  0.15046735279E+03  0.91187600000E+02 0.  0.
<mgrwt>
<rscale>  0 0.31421093E+04</rscale>
<asrwt>0</asrwt>
<pdfrwt beam="1">  1        2 0.15029409E+00 0.31421093E+04</pdfrwt>
<pdfrwt beam="2">  1       -2 0.38869949E+00 0.31421093E+04</pdfrwt>
<totfact> 0.19384178E-01</totfact>
</mgrwt>
</event>
<event>
11    1  0.1463487E-012  0.2517073E+04  0.7818608E-02  0.8396928E-01
         -2   -1    0    0    0  501 -0.00000000000E+00  0.00000000000E+00  0.98080061792E+03  0.98080061792E+03  0.00000000000E+00 0.  1.
          2   -1    0    0  501    0  0.00000000000E+00 -0.00000000000E+00 -0.16149190224E+04  0.16149190224E+04  0.00000000000E+00 0. -1.
    9900016    2    1    2    0    0  0.18062957389E+03 -0.14376022564E+03 -0.46352907123E+03  0.22138796036E+04  0.21524659472E+04 0.  0.
         24    2    3    3    0    0 -0.91766227264E+02 -0.20881105192E+03 -0.45029063590E+03  0.51125439488E+03  0.81217631248E+02 0.  0.
        -15    1    4    4    0    0 -0.55889991978E+02 -0.18938906513E+03 -0.33387402671E+03  0.38789660337E+03  0.00000000000E+00 0.  1.
        -15    1    3    3    0    0  0.55999565496E+02  0.59360472624E+03 -0.28871333036E+03  0.66246351558E+03  0.00000000000E+00 0.  1.
         15    1    3    3    0    0 -0.55869015463E+02 -0.60155737693E+03  0.40766419624E+03  0.72882283274E+03  0.00000000000E+00 0. -1.
         15    1    3    3    0    0  0.27226525112E+03  0.73003476975E+02 -0.13218930121E+03  0.31133886036E+03  0.00000000000E+00 0. -1.
        -16    1    1    2    0    0 -0.20633362300E+03  0.13469255549E+03 -0.12056790278E+03  0.27432146774E+03  0.00000000000E+00 0.  1.
         16    1    4    4    0    0 -0.35876235286E+02 -0.19421986795E+02 -0.11641660919E+03  0.12335779151E+03  0.00000000000E+00 0. -1.
    9900018    1    1    2    0    0  0.25704049110E+02  0.90676701476E+01 -0.50021430470E+02  0.10751856901E+03  0.91187600000E+02 0.  0.
<mgrwt>
<rscale>  0 0.25170726E+04</rscale>
<asrwt>0</asrwt>
<pdfrwt beam="1">  1        2 0.24844908E+00 0.25170726E+04</pdfrwt>
<pdfrwt beam="2">  1       -2 0.15089240E+00 0.25170726E+04</pdfrwt>
<totfact> 0.28740457E+00</totfact>
</mgrwt>
</event>
<event>
11    1  0.1463487E-012  0.3536274E+04  0.7818608E-02  0.8105247E-01
          1   -1    0    0  501    0  0.00000000000E+00  0.00000000000E+00  0.35427177098E+04  0.35427177098E+04  0.00000000000E+00 0. -1.
         -1   -1    0    0    0  501 -0.00000000000E+00 -0.00000000000E+00 -0.88246058334E+03  0.88246058334E+03  0.00000000000E+00 0.  1.
    9900016    2    1    2    0    0 -0.64306891895E+03  0.67729868077E+03  0.24715899001E+04  0.34723580269E+04  0.22530518181E+04 0.  0.
         24    2    3    3    0    0  0.45760343770E+03 -0.11904156187E+03  0.79480509709E+03  0.92828636457E+03  0.80178754241E+02 0.  0.
        -15    1    4    4    0    0  0.41104615545E+03 -0.13096565952E+03  0.72116207962E+03  0.84034855326E+03  0.00000000000E+00 0.  1.
        -15    1    3    3    0    0 -0.25370789205E+02 -0.14373763678E+03  0.33896152733E+02  0.14984369970E+03  0.00000000000E+00 0.  1.
         15    1    3    3    0    0 -0.10719728243E+04  0.89145123114E+03  0.16372919328E+04  0.21504734145E+04  0.00000000000E+00 0. -1.
         15    1    3    3    0    0  0.18845603756E+02 -0.30238529207E+02 -0.84445920000E+02  0.91654998959E+02  0.00000000000E+00 0. -1.
        -16    1    1    2    0    0  0.64306891895E+03 -0.67729868077E+03  0.18866722637E+03  0.95282026626E+03  0.00000000000E+00 0.  1.
         16    1    4    4    0    0  0.46557282258E+02  0.11924097649E+02  0.73643017473E+02  0.87937811314E+02  0.00000000000E+00 0. -1.
    9900018    1    3    3    0    0 -0.22174346949E+02  0.78865177477E+02  0.90042637489E+02  0.15209954911E+03  0.91187600000E+02 0.  0.
<mgrwt>
<rscale>  0 0.35362742E+04</rscale>
<asrwt>0</asrwt>
<pdfrwt beam="1">  1        1 0.54503349E+00 0.35362742E+04</pdfrwt>
<pdfrwt beam="2">  1       -1 0.13576317E+00 0.35362742E+04</pdfrwt>
<totfact> 0.85226456E-02</totfact>
</mgrwt>
</event>
<event>
11    1  0.1463487E-012  0.2779218E+04  0.7818608E-02  0.8309749E-01
         -2   -1    0    0    0  501 -0.00000000000E+00  0.00000000000E+00  0.60295951698E+03  0.60295951698E+03  0.00000000000E+00 0.  1.
          2   -1    0    0  501    0  0.00000000000E+00 -0.00000000000E+00 -0.32025590344E+04  0.32025590344E+04  0.00000000000E+00 0. -1.
    9900016    2    1    2    0    0  0.20014150179E+01  0.38324131700E+03 -0.17792871572E+04  0.28246693216E+04  0.21600963117E+04 0.  0.
        -24    2    3    3    0    0  0.57304291280E+02  0.57471925034E+03 -0.88293183210E+03  0.10581089770E+04  0.80249539967E+02 0.  0.
        -15    1    3    3    0    0 -0.66869738940E+02 -0.23640659978E+03 -0.64332200385E+02  0.25396510471E+03  0.00000000000E+00 0.  1.
        -15    1    3    3    0    0 -0.34719483659E+03 -0.42565320140E+03 -0.72767987310E+03  0.91172523280E+03  0.00000000000E+00 0.  1.
         15    1    3    3    0    0  0.35876169927E+03  0.47058186785E+03 -0.10434325166E+03  0.60087000706E+03  0.00000000000E+00 0. -1.
         15    1    4    4    0    0  0.64320677331E+02  0.39128470901E+03 -0.55186647410E+03  0.67955682490E+03  0.00000000000E+00 0. -1.
        -16    1    4    4    0    0 -0.70163860506E+01  0.18343454133E+03 -0.33106535800E+03  0.37855215215E+03  0.00000000000E+00 0.  1.
         16    1    1    2    0    0  0.21742177058E+02 -0.41277559814E+03 -0.76001547586E+03  0.86514735174E+03  0.00000000000E+00 0. -1.
    9900018    1    1    2    0    0 -0.23743592076E+02  0.29534281137E+02 -0.60296884334E+02  0.11570187804E+03  0.91187600000E+02 0.  0.
<mgrwt>
<rscale>  0 0.27792182E+04</rscale>
<asrwt>0</asrwt>
<pdfrwt beam="1">  1        2 0.49270141E+00 0.27792182E+04</pdfrwt>
<pdfrwt beam="2">  1       -2 0.92762998E-01 0.27792182E+04</pdfrwt>
<totfact> 0.11090161E+00</totfact>
</mgrwt>
</event>
<event>
11    1  0.1463487E-012  0.2453217E+04  0.7818608E-02  0.8419844E-01
          2   -1    0    0  501    0  0.00000000000E+00  0.00000000000E+00  0.98220352780E+03  0.98220352780E+03  0.00000000000E+00 0. -1.
         -2   -1    0    0    0  501 -0.00000000000E+00 -0.00000000000E+00 -0.15318297518E+04  0.15318297518E+04  0.00000000000E+00 0.  1.
    9900016    2    1    2    0    0 -0.15249935488E+03 -0.25509926358E+02 -0.37871304566E+03  0.22835595846E+04  0.22466227978E+04 0.  0.
         24    2    3    3    0    0 -0.29898111354E+03 -0.17595856451E+03  0.43045635772E+03  0.55874103201E+03  0.80918120807E+02 0.  0.
        -15    1    4    4    0    0 -0.11684770609E+03 -0.28060124906E+02  0.17011391499E+03  0.20827746182E+03  0.00000000000E+00 0.  1.
        -15    1    3    3    0    0 -0.50626657583E+02  0.49329218917E+03 -0.57418177079E+03  0.75867314983E+03  0.00000000000E+00 0.  1.
         15    1    3    3    0    0  0.25918855360E+03 -0.43620107677E+03 -0.37746119703E+03  0.63239785022E+03  0.00000000000E+00 0. -1.
         15    1    3    3    0    0 -0.56644438388E+02  0.13142399348E+03  0.17818261977E+03  0.22853862792E+03  0.00000000000E+00 0. -1.
        -16    1    1    2    0    0  0.15249935488E+03  0.25509926358E+02 -0.17091317838E+03  0.23047369508E+03  0.00000000000E+00 0.  1.
         16    1    4    4    0    0 -0.18213340744E+03 -0.14789843960E+03  0.26034244273E+03  0.35046357019E+03  0.00000000000E+00 0. -1.
    9900018    1    3    3    0    0 -0.54356989718E+01 -0.38066467731E+02 -0.35709055322E+02  0.10520892460E+03  0.91187600000E+02 0.  0.
<mgrwt>
<rscale>  0 0.24532171E+04</rscale>
<asrwt>0</asrwt>
<pdfrwt beam="1">  1        2 0.15110824E+00 0.24532171E+04</pdfrwt>
<pdfrwt beam="2">  1       -2 0.23566612E+00 0.24532171E+04</pdfrwt>
<totfact> 0.18246987E+00</totfact>
</mgrwt>
</event>
<event>
11    1  0.1463487E-012  0.3006111E+04  0.7818608E-02  0.8241988E-01
         -2   -1    0    0    0  501 -0.00000000000E+00  0.00000000000E+00  0.10265833598E+04  0.10265833598E+04  0.00000000000E+00 0.  1.
          2   -1    0    0  501    0  0.00000000000E+00 -0.00000000000E+00 -0.22006742272E+04  0.22006742272E+04  0.00000000000E+00 0. -1.
    9900016    2    1    2    0    0  0.59906487094E+03 -0.11844406951E+03 -0.10048327502E+04  0.24597106557E+04  0.21604582701E+04 0.  0.
         24    2    3    3    0    0 -0.13598604535E+02  0.62695220287E+03  0.12939580168E+01  0.63208432901E+03  0.79214505747E+02 0.  0.
        -15    1    4    4    0    0 -0.33779172776E+02  0.12339873391E+03  0.64368098900E+01  0.12810040033E+03  0.00000000000E+00 0.  1.
        -15    1    3    3    0    0 -0.26700928923E+03 -0.14112422803E+03 -0.12072428227E+03  0.32524507775E+03  0.00000000000E+00 0.  1.
         15    1    3    3    0    0  0.42118068409E+03 -0.28168667992E+02 -0.54997096563E+03  0.69329265505E+03  0.00000000000E+00 0. -1.
         15    1    3    3    0    0  0.45849208062E+03 -0.57610337636E+03 -0.33543146032E+03  0.80908859392E+03  0.00000000000E+00 0. -1.
        -16    1    1    2    0    0 -0.63458104755E+03  0.96013091060E+02 -0.11058245805E+03  0.65126039308E+03  0.00000000000E+00 0.  1.
         16    1    4    4    0    0  0.20180568241E+02  0.50355346897E+03 -0.51428518733E+01  0.50398392868E+03  0.00000000000E+00 0. -1.
    9900018    1    1    2    0    0  0.35516176614E+02  0.22430978447E+02 -0.58675659081E+02  0.11628653816E+03  0.91187600000E+02 0.  0.
<mgrwt>
<rscale>  0 0.30061108E+04</rscale>
<asrwt>0</asrwt>
<pdfrwt beam="1">  1        2 0.33856526E+00 0.30061108E+04</pdfrwt>
<pdfrwt beam="2">  1       -2 0.15793590E+00 0.30061108E+04</pdfrwt>
<totfact> 0.11518549E+00</totfact>
</mgrwt>
</event>
<event>
11    1  0.1463487E-012  0.2655258E+04  0.7818608E-02  0.8349670E-01
         -2   -1    0    0    0  501 -0.00000000000E+00  0.00000000000E+00  0.15422117398E+04  0.15422117398E+04  0.00000000000E+00 0.  1.
          2   -1    0    0  501    0  0.00000000000E+00 -0.00000000000E+00 -0.11429032027E+04  0.11429032027E+04  0.00000000000E+00 0. -1.
    9900016    2    1    2    0    0  0.27283823563E+03 -0.13414751219E+03  0.11631333565E+03  0.22697566130E+04  0.22462925081E+04 0.  0.
         24    2    3    3    0    0  0.26795773734E+03 -0.11961208990E+03 -0.14370258761E+03  0.33691265992E+03  0.82166329355E+02 0.  0.
        -15    1    3    3    0    0 -0.46441868178E+03  0.50906545541E+02 -0.11397075084E+03  0.48090073863E+03  0.00000000000E+00 0.  1.
        -15    1    4    4    0    0  0.10068322873E+03 -0.42294543152E+01 -0.36648947408E+02  0.10722940911E+03  0.00000000000E+00 0.  1.
         15    1    3    3    0    0  0.13177482533E+03  0.50403634675E+03 -0.94739953806E+02  0.52952138983E+03  0.00000000000E+00 0. -1.
         15    1    3    3    0    0  0.32750674907E+03 -0.58232739799E+03  0.48857140335E+03  0.82768827786E+03  0.00000000000E+00 0. -1.
        -16    1    1    2    0    0 -0.27283823563E+03  0.13414751219E+03  0.28299520145E+03  0.41535832951E+03  0.00000000000E+00 0.  1.
         16    1    4    4    0    0  0.16727450861E+03 -0.11538263558E+03 -0.10705364020E+03  0.22968325082E+03  0.00000000000E+00 0. -1.
    9900018    1    3    3    0    0  0.10017605671E+02  0.12849083399E+02 -0.19844775450E+02  0.94733546719E+02  0.91187600000E+02 0.  0.
<mgrwt>
<rscale>  0 0.26552580E+04</rscale>
<asrwt>0</asrwt>
<pdfrwt beam="1">  1        2 0.17583126E+00 0.26552580E+04</pdfrwt>
<pdfrwt beam="2">  1       -2 0.23726334E+00 0.26552580E+04</pdfrwt>
<totfact> 0.13907218E+00</totfact>
</mgrwt>
</event>
<event>
11    1  0.1463487E-012  0.2618919E+04  0.7818608E-02  0.8361803E-01
         -2   -1    0    0    0  501 -0.00000000000E+00  0.00000000000E+00  0.11563824478E+04  0.11563824478E+04  0.00000000000E+00 0.  1.
          2   -1    0    0  501    0  0.00000000000E+00 -0.00000000000E+00 -0.14828006472E+04  0.14828006472E+04  0.00000000000E+00 0. -1.
    9900016    2    1    2    0    0 -0.26347571143E+03 -0.47648245761E+02 -0.51599892261E+03  0.23111119801E+04  0.22368043926E+04 0.  0.
         24    2    3    3    0    0 -0.13079722515E+03  0.84583020576E+03  0.21950869964E+03  0.88738163517E+03  0.82008817357E+02 0.  0.
        -15    1    4    4    0    0 -0.12301732890E+03  0.57045238051E+03  0.13174961150E+03  0.59825340933E+03  0.00000000000E+00 0.  1.
        -15    1    3    3    0    0 -0.77379067570E+02 -0.34608906468E+03 -0.84079413377E+02  0.36446468765E+03  0.00000000000E+00 0.  1.
         15    1    3    3    0    0  0.80113041620E+02 -0.51185135665E+03 -0.26997654267E+03  0.58420650830E+03  0.00000000000E+00 0. -1.
         15    1    3    3    0    0 -0.10445473730E+03 -0.39572521542E+02 -0.35916353261E+03  0.37613191803E+03  0.00000000000E+00 0. -1.
        -16    1    1    2    0    0  0.26347571143E+03  0.47648245761E+02  0.18958072316E+03  0.32807111489E+03  0.00000000000E+00 0.  1.
         16    1    4    4    0    0 -0.77798962491E+01  0.27537782525E+03  0.87759088135E+02  0.28912822584E+03  0.00000000000E+00 0. -1.
    9900018    1    3    3    0    0 -0.30957723027E+02  0.40344913516E+01 -0.22288133593E+02  0.98927230975E+02  0.91187600000E+02 0.  0.
<mgrwt>
<rscale>  0 0.26189194E+04</rscale>
<asrwt>0</asrwt>
<pdfrwt beam="1">  1        2 0.22812318E+00 0.26189194E+04</pdfrwt>
<pdfrwt beam="2">  1       -2 0.17790499E+00 0.26189194E+04</pdfrwt>
<totfact> 0.21499789E+00</totfact>
</mgrwt>
</event>
<event>
11    1  0.1463487E-012  0.2843880E+04  0.7818608E-02  0.8289773E-01
          2   -1    0    0  501    0  0.00000000000E+00  0.00000000000E+00  0.14118723477E+04  0.14118723477E+04  0.00000000000E+00 0. -1.
         -2   -1    0    0    0  501 -0.00000000000E+00 -0.00000000000E+00 -0.14320798238E+04  0.14320798238E+04  0.00000000000E+00 0.  1.
    9900016    2    1    2    0    0 -0.46387779963E+03 -0.13436972078E+03  0.21221360071E+03  0.23079881879E+04  0.22468949749E+04 0.  0.
         24    2    3    3    0    0 -0.64393438291E+03  0.16070229101E+03  0.32756551669E+03  0.74449860192E+03  0.80636745467E+02 0.  0.
        -15    1    3    3    0    0  0.21696282338E+03 -0.43682986611E+02 -0.23089010838E+03  0.31983013022E+03  0.00000000000E+00 0.  1.
        -15    1    4    4    0    0 -0.34436745478E+03  0.95718107706E+02  0.13266006638E+03  0.38124741739E+03  0.00000000000E+00 0.  1.
         15    1    3    3    0    0  0.45657022805E+03 -0.23305810396E+03  0.33427676048E+03  0.61197500403E+03  0.00000000000E+00 0. -1.
         15    1    3    3    0    0 -0.44201977842E+03 -0.37651770300E+02 -0.26373355799E+03  0.51609546591E+03  0.00000000000E+00 0. -1.
        -16    1    1    2    0    0  0.46387779963E+03  0.13436972078E+03 -0.23242107679E+03  0.53596398366E+03  0.00000000000E+00 0.  1.
         16    1    4    4    0    0 -0.29956692812E+03  0.64984183307E+02  0.19490545030E+03  0.36325118453E+03  0.00000000000E+00 0. -1.
    9900018    1    3    3    0    0 -0.51456689730E+02  0.19320849072E+02  0.44994989907E+02  0.11558898580E+03  0.91187600000E+02 0.  0.
<mgrwt>
<rscale>  0 0.28438804E+04</rscale>
<asrwt>0</asrwt>
<pdfrwt beam="1">  1        2 0.21721113E+00 0.28438804E+04</pdfrwt>
<pdfrwt beam="2">  1       -2 0.22031997E+00 0.28438804E+04</pdfrwt>
<totfact> 0.12151680E+00</totfact>
</mgrwt>
</event>
<event>
11    1  0.1463487E-012  0.2851800E+04  0.7818608E-02  0.8287365E-01
          1   -1    0    0  501    0  0.00000000000E+00  0.00000000000E+00  0.29762521280E+04  0.29762521280E+04  0.00000000000E+00 0. -1.
         -1   -1    0    0    0  501 -0.00000000000E+00 -0.00000000000E+00 -0.68313790332E+03  0.68313790332E+03  0.00000000000E+00 0.  1.
    9900016    2    1    2    0    0  0.21295139118E+02 -0.12465374914E+03  0.25383057786E+04  0.33835079220E+04  0.22336377486E+04 0.  0.
         24    2    3    3    0    0  0.33503765805E+03 -0.26296670819E+03  0.55987086459E+03  0.70788206406E+03  0.78993098867E+02 0.  0.
        -15    1    3    3    0    0 -0.18356301044E+03 -0.51003856068E+02  0.47507976048E+03  0.51185696337E+03  0.00000000000E+00 0.  1.
        -15    1    4    4    0    0  0.12043760682E+03 -0.11160332679E+03  0.15837978057E+03  0.22813301949E+03  0.00000000000E+00 0.  1.
         15    1    3    3    0    0  0.60758793913E+03  0.31408353567E+03  0.44901218628E+03  0.81818305689E+03  0.00000000000E+00 0. -1.
         15    1    3    3    0    0 -0.73413985921E+03 -0.96222951241E+02  0.93304144313E+03  0.11911282567E+04  0.00000000000E+00 0. -1.
        -16    1    1    2    0    0 -0.21295139118E+02  0.12465374914E+03 -0.24519155396E+03  0.27588210935E+03  0.00000000000E+00 0.  1.
         16    1    4    4    0    0  0.21460005123E+03 -0.15136338140E+03  0.40149108402E+03  0.47974904457E+03  0.00000000000E+00 0. -1.
    9900018    1    3    3    0    0 -0.36275884159E+01 -0.28543769311E+02  0.12130152417E+03  0.15445758098E+03  0.91187600000E+02 0.  0.
<mgrwt>
<rscale>  0 0.28517999E+04</rscale>
<asrwt>0</asrwt>
<pdfrwt beam="1">  1        1 0.45788494E+00 0.28517999E+04</pdfrwt>
<pdfrwt beam="2">  1       -1 0.10509814E+00 0.28517999E+04</pdfrwt>
<totfact> 0.45517471E-01</totfact>
</mgrwt>
</event>
<event>
11    1  0.1463487E-012  0.2778503E+04  0.7818608E-02  0.8309974E-01
         -2   -1    0    0    0  501 -0.00000000000E+00  0.00000000000E+00  0.12340837233E+04  0.12340837233E+04  0.00000000000E+00 0.  1.
          2   -1    0    0  501    0  0.00000000000E+00 -0.00000000000E+00 -0.15639291436E+04  0.15639291436E+04  0.00000000000E+00 0. -1.
    9900016    2    1    2    0    0  0.90673473011E+02  0.18805724419E+03  0.16763937617E+03  0.22584961122E+04  0.22425687331E+04 0.  0.
        -24    2    3    3    0    0  0.28182520926E+03  0.11032970243E+03 -0.66110626054E+03  0.73147184819E+03  0.79946764552E+02 0.  0.
        -15    1    3    3    0    0  0.26282880549E+03  0.59870711669E+02  0.21409096095E+03  0.34423599851E+03  0.00000000000E+00 0.  1.
        -15    1    3    3    0    0 -0.26188210047E+03 -0.17443873876E+02  0.75444319156E+03  0.79879349808E+03  0.00000000000E+00 0.  1.
         15    1    4    4    0    0  0.73734923816E+02  0.66519931044E+02 -0.23949855641E+03  0.25927070551E+03  0.00000000000E+00 0. -1.
         15    1    3    3    0    0 -0.23664230202E+03  0.37846528749E+02 -0.14878455620E+03  0.28207939132E+03  0.00000000000E+00 0. -1.
        -16    1    4    4    0    0  0.20809028544E+03  0.43809771391E+02 -0.42160770413E+03  0.47220114268E+03  0.00000000000E+00 0.  1.
         16    1    1    2    0    0 -0.90673473011E+02 -0.18805724419E+03 -0.49748479645E+03  0.53951675461E+03  0.00000000000E+00 0. -1.
    9900018    1    3    3    0    0  0.44543860754E+02 -0.25458247849E+01  0.89960404063E+01  0.10191537613E+03  0.91187600000E+02 0.  0.
<mgrwt>
<rscale>  0 0.27785028E+04</rscale>
<asrwt>0</asrwt>
<pdfrwt beam="1">  1        2 0.24060448E+00 0.27785028E+04</pdfrwt>
<pdfrwt beam="2">  1       -2 0.18985903E+00 0.27785028E+04</pdfrwt>
<totfact> 0.15822539E+00</totfact>
</mgrwt>
</event>
<event>
11    1  0.1463487E-012  0.3023196E+04  0.7818608E-02  0.8237138E-01
         -2   -1    0    0    0  501 -0.00000000000E+00  0.00000000000E+00  0.94208526399E+03  0.94208526399E+03  0.00000000000E+00 0.  1.
          2   -1    0    0  501    0  0.00000000000E+00 -0.00000000000E+00 -0.24253946400E+04  0.24253946400E+04  0.00000000000E+00 0. -1.
    9900016    2    1    2    0    0 -0.15367127911E+03  0.16324050118E+03 -0.17186187273E+04  0.27590572062E+04  0.21467379938E+04 0.  0.
         24    2    3    3    0    0 -0.21615099159E+03 -0.61940741378E+03 -0.65167304187E+03  0.92795318141E+03  0.77669543389E+02 0.  0.
        -15    1    4    4    0    0 -0.17722316316E+03 -0.39604663384E+03 -0.42917413242E+03  0.61028798257E+03  0.00000000000E+00 0.  1.
        -15    1    3    3    0    0  0.48526519358E+03  0.62661584540E+03 -0.68884399039E+03  0.10500646499E+04  0.00000000000E+00 0.  1.
         15    1    3    3    0    0 -0.18404043119E+03  0.22641298111E+02  0.11427335523E+03  0.21781163515E+03  0.00000000000E+00 0. -1.
         15    1    3    3    0    0 -0.23874504991E+03  0.13339077145E+03 -0.49237505022E+03  0.56322773977E+03  0.00000000000E+00 0. -1.
        -16    1    1    2    0    0  0.18032683384E+03 -0.11547550064E+03  0.37562122655E+03  0.43236982329E+03  0.00000000000E+00 0.  1.
         16    1    4    4    0    0 -0.38927828427E+02 -0.22336077995E+03 -0.22249890945E+03  0.31766519883E+03  0.00000000000E+00 0. -1.
    9900018    1    1    2    0    0 -0.26655554737E+02 -0.47765000532E+02 -0.14031187526E+03  0.17605287447E+03  0.91187600000E+02 0.  0.
<mgrwt>
<rscale>  0 0.30231960E+04</rscale>
<asrwt>0</asrwt>
<pdfrwt beam="1">  1        2 0.37313764E+00 0.30231960E+04</pdfrwt>
<pdfrwt beam="2">  1       -2 0.14493619E+00 0.30231960E+04</pdfrwt>
<totfact> 0.10773152E+00</totfact>
</mgrwt>
</event>
<event>
11    1  0.1463487E-012  0.2702433E+04  0.7818608E-02  0.8334216E-01
         -2   -1    0    0    0  501 -0.00000000000E+00  0.00000000000E+00  0.71347151409E+03  0.71347151409E+03  0.00000000000E+00 0.  1.
          2   -1    0    0  501    0  0.00000000000E+00 -0.00000000000E+00 -0.25590178791E+04  0.25590178791E+04  0.00000000000E+00 0. -1.
    9900016    2    1    2    0    0 -0.20012850903E+03 -0.34678366603E+03 -0.14271008650E+04  0.26933460882E+04  0.22488187880E+04 0.  0.
        -24    2    3    3    0    0  0.17735227566E+03  0.74575950471E+03 -0.53978039303E+03  0.94184443374E+03  0.89983310269E+02 0.  0.
        -15    1    3    3    0    0  0.52420241614E+02  0.25409705446E+02  0.35813828916E+02  0.68382491935E+02  0.00000000000E+00 0.  1.
        -15    1    3    3    0    0 -0.55336982657E+03 -0.10219763825E+04 -0.73080362662E+03  0.13728539004E+04  0.00000000000E+00 0.  1.
         15    1    4    4    0    0  0.26768604743E+01  0.17118393610E+03 -0.11427782017E+03  0.20584102055E+03  0.00000000000E+00 0. -1.
         15    1    3    3    0    0  0.12094768306E+03 -0.36952346183E+02 -0.14311415726E+03  0.19098554902E+03  0.00000000000E+00 0. -1.
        -16    1    4    4    0    0  0.17467541518E+03  0.57457556861E+03 -0.42550257286E+03  0.73600341318E+03  0.00000000000E+00 0.  1.
         16    1    1    2    0    0  0.20012850903E+03  0.34678366603E+03 -0.41844550006E+03  0.57914330495E+03  0.00000000000E+00 0. -1.
    9900018    1    3    3    0    0  0.25211172191E+01 -0.59024147545E+02 -0.49216516976E+02  0.11927971312E+03  0.91187600000E+02 0.  0.
<mgrwt>
<rscale>  0 0.27024332E+04</rscale>
<asrwt>0</asrwt>
<pdfrwt beam="1">  1        2 0.39369507E+00 0.27024332E+04</pdfrwt>
<pdfrwt beam="2">  1       -2 0.10976485E+00 0.27024332E+04</pdfrwt>
<totfact> 0.18626351E+00</totfact>
</mgrwt>
</event>
<event>
12    1  0.1463487E-012  0.3401169E+04  0.7818608E-02  0.8137620E-01
         -1   -1    0    0    0  501 -0.00000000000E+00  0.00000000000E+00  0.14811514310E+04  0.14811514310E+04  0.00000000000E+00 0.  1.
          1   -1    0    0  501    0  0.00000000000E+00 -0.00000000000E+00 -0.19525262136E+04  0.19525262136E+04  0.00000000000E+00 0. -1.
    9900016    2    1    2    0    0  0.20283092647E+03  0.29799470874E+03 -0.12412288319E+04  0.25836091248E+04  0.22370618824E+04 0.  0.
         24    2    3    3    0    0 -0.50992325389E+03  0.54709119898E+03 -0.90533685046E+03  0.11767338637E+04  0.75744758414E+02 0.  0.
         23    2    3    3    0    0  0.14443596552E+03 -0.36173104969E+03  0.29674826327E+03  0.50369448899E+03  0.11805721512E+03 0.  0.
        -15    1    4    4    0    0 -0.56790499286E+02  0.10072583189E+03 -0.13632294138E+03  0.17875905114E+03  0.00000000000E+00 0.  1.
        -15    1    5    5    0    0  0.84383601606E+02 -0.13406302082E+03  0.18351198423E+03  0.24242552285E+03  0.00000000000E+00 0.  1.
         15    1    3    3    0    0  0.52890572287E+03  0.11324180053E+03 -0.56973361745E+03  0.78559618375E+03  0.00000000000E+00 0. -1.
         15    1    5    5    0    0  0.60052363912E+02 -0.22766802886E+03  0.11323627904E+03  0.26126896614E+03  0.00000000000E+00 0. -1.
        -16    1    1    2    0    0 -0.20283092647E+03 -0.29799470874E+03  0.76985404927E+03  0.85006851979E+03  0.00000000000E+00 0.  1.
         16    1    4    4    0    0 -0.45313275460E+03  0.44636536709E+03 -0.76901390908E+03  0.99797481260E+03  0.00000000000E+00 0. -1.
    9900018    1    3    3    0    0  0.39412491969E+02 -0.60724108562E+00 -0.62906627241E+02  0.11758458832E+03  0.91187600000E+02 0.  0.
<mgrwt>
<rscale>  0 0.34011686E+04</rscale>
<asrwt>0</asrwt>
<pdfrwt beam="1">  1        1 0.30038865E+00 0.34011686E+04</pdfrwt>
<pdfrwt beam="2">  1       -1 0.22786945E+00 0.34011686E+04</pdfrwt>
<totfact> 0.25748737E-01</totfact>
</mgrwt>
</event>
<event>
11    1  0.1463487E-012  0.2599762E+04  0.7818608E-02  0.8368282E-01
          2   -1    0    0  501    0  0.00000000000E+00  0.00000000000E+00  0.12149358161E+04  0.12149358161E+04  0.00000000000E+00 0. -1.
         -2   -1    0    0    0  501 -0.00000000000E+00 -0.00000000000E+00 -0.13907658440E+04  0.13907658440E+04  0.00000000000E+00 0.  1.
    9900016    2    1    2    0    0 -0.23149530518E+03 -0.22340316348E+03 -0.18999062663E+03  0.22836774803E+04  0.22529064219E+04 0.  0.
         24    2    3    3    0    0 -0.28974962722E+03 -0.48277759208E+03  0.45810801110E+03  0.73026314164E+03  0.79951587315E+02 0.  0.
        -15    1    4    4    0    0 -0.60095266440E+02 -0.75244944860E+02  0.11580430177E+03  0.15061168309E+03  0.00000000000E+00 0.  1.
        -15    1    3    3    0    0  0.52732615595E+02  0.47050303952E+03 -0.73918627296E+03  0.87780987980E+03  0.00000000000E+00 0.  1.
         15    1    3    3    0    0  0.13904984054E+03 -0.28755982496E+03 -0.11330555046E+03  0.33891541548E+03  0.00000000000E+00 0. -1.
         15    1    3    3    0    0 -0.11686286262E+03  0.35677570898E+02  0.20117795247E+03  0.23537711504E+03  0.00000000000E+00 0. -1.
        -16    1    1    2    0    0  0.23149530518E+03  0.22340316348E+03  0.14160598755E+02  0.32202417973E+03  0.00000000000E+00 0.  1.
         16    1    4    4    0    0 -0.22965436078E+03 -0.40753264722E+03  0.34230370934E+03  0.57965145855E+03  0.00000000000E+00 0. -1.
    9900018    1    3    3    0    0 -0.16665271476E+02  0.40753643145E+02  0.32152332197E+01  0.10131192833E+03  0.91187600000E+02 0.  0.
<mgrwt>
<rscale>  0 0.25997625E+04</rscale>
<asrwt>0</asrwt>
<pdfrwt beam="1">  1        2 0.18691320E+00 0.25997625E+04</pdfrwt>
<pdfrwt beam="2">  1       -2 0.21396397E+00 0.25997625E+04</pdfrwt>
<totfact> 0.17724493E+00</totfact>
</mgrwt>
</event>
<event>
11    1  0.1463487E-012  0.2594734E+04  0.7818608E-02  0.8369992E-01
         -2   -1    0    0    0  501 -0.00000000000E+00  0.00000000000E+00  0.13562194282E+04  0.13562194282E+04  0.00000000000E+00 0.  1.
          2   -1    0    0  501    0  0.00000000000E+00 -0.00000000000E+00 -0.12410680862E+04  0.12410680862E+04  0.00000000000E+00 0. -1.
    9900016    2    1    2    0    0  0.56885394056E+02  0.26739851961E+03 -0.28307834153E+02  0.21730018241E+04  0.21555504349E+04 0.  0.
         24    2    3    3    0    0  0.35150553714E+03  0.11250982702E+03 -0.36111055501E+03  0.52297415935E+03  0.82985146771E+02 0.  0.
        -15    1    3    3    0    0 -0.44210819040E+02  0.14764782330E+03  0.46982581990E+02  0.16112678007E+03  0.00000000000E+00 0.  1.
        -15    1    4    4    0    0  0.15460471139E+03  0.33089691483E+02 -0.20772069048E+03  0.26104679604E+03  0.00000000000E+00 0.  1.
         15    1    3    3    0    0 -0.47960008642E+03  0.21086012223E+03  0.76070014516E+03  0.92365737419E+03  0.00000000000E+00 0. -1.
         15    1    3    3    0    0  0.22919076238E+03 -0.20361925294E+03 -0.47488000629E+03  0.56524351045E+03  0.00000000000E+00 0. -1.
        -16    1    1    2    0    0 -0.50653715834E+02 -0.29379387300E+03  0.13928010802E+03  0.32905863799E+03  0.00000000000E+00 0.  1.
         16    1    4    4    0    0  0.19690082575E+03  0.79420135533E+02 -0.15338986453E+03  0.26192736331E+03  0.00000000000E+00 0. -1.
    9900018    1    1    2    0    0 -0.62316782222E+01  0.26395353395E+02  0.41790681499E+01  0.95227052347E+02  0.91187600000E+02 0.  0.
<mgrwt>
<rscale>  0 0.25947336E+04</rscale>
<asrwt>0</asrwt>
<pdfrwt beam="1">  1        2 0.19093355E+00 0.25947336E+04</pdfrwt>
<pdfrwt beam="2">  1       -2 0.20864914E+00 0.25947336E+04</pdfrwt>
<totfact> 0.18510303E+00</totfact>
</mgrwt>
</event>
<event>
11    1  0.1463487E-012  0.2694746E+04  0.7818608E-02  0.8336712E-01
          2   -1    0    0  501    0  0.00000000000E+00  0.00000000000E+00  0.15730366094E+04  0.15730366094E+04  0.00000000000E+00 0. -1.
         -2   -1    0    0    0  501 -0.00000000000E+00 -0.00000000000E+00 -0.11540820681E+04  0.11540820681E+04  0.00000000000E+00 0.  1.
    9900016    2    1    2    0    0 -0.33134432703E+02 -0.13649631078E+03  0.70911612825E+03  0.22721600026E+04  0.21540975513E+04 0.  0.
         24    2    3    3    0    0  0.23320323619E+03 -0.13122071271E+02 -0.14609535785E+03  0.28452788507E+03  0.71107845400E+02 0.  0.
        -15    1    3    3    0    0  0.60959977972E+03  0.63476008833E+02  0.34935941315E+03  0.70547366690E+03  0.00000000000E+00 0.  1.
        -15    1    4    4    0    0  0.46996049212E+02 -0.22684298284E+02 -0.58906484332E+02  0.78696759314E+02  0.00000000000E+00 0.  1.
         15    1    3    3    0    0  0.12144778695E+03 -0.13182282707E+03  0.74958783287E+02  0.19428237666E+03  0.00000000000E+00 0. -1.
         15    1    3    3    0    0 -0.99738523556E+03 -0.55027421273E+02  0.43089328966E+03  0.10878760740E+04  0.00000000000E+00 0. -1.
        -16    1    1    2    0    0  0.77402809178E+02  0.14767158339E+03 -0.30913448057E+03  0.35122958088E+03  0.00000000000E+00 0.  1.
         16    1    4    4    0    0  0.18620718697E+03  0.95622270135E+01 -0.87188873514E+02  0.20583112576E+03  0.00000000000E+00 0. -1.
    9900018    1    1    2    0    0 -0.44268376475E+02 -0.11175272612E+02  0.18972893594E+02  0.10372909408E+03  0.91187600000E+02 0.  0.
<mgrwt>
<rscale>  0 0.26947455E+04</rscale>
<asrwt>0</asrwt>
<pdfrwt beam="1">  1        2 0.24200563E+00 0.26947455E+04</pdfrwt>
<pdfrwt beam="2">  1       -2 0.17755109E+00 0.26947455E+04</pdfrwt>
<totfact> 0.19113022E+00</totfact>
</mgrwt>
</event>
