<event>
13    1  0.1621898E-005  0.5142789E+04  0.7818608E-02  0.7806850E-01
          2   -1    0    0  501    0  0.00000000000E+00  0.00000000000E+00  0.25331962699E+04  0.25331962699E+04  0.00000000000E+00 0. -1.
         -2   -1    0    0    0  501 -0.00000000000E+00 -0.00000000000E+00 -0.26101685227E+04  0.26101685227E+04  0.00000000000E+00 0.  1.
    9900016    2    1    2    0    0 -0.37574705677E+02 -0.12322893280E+04  0.12542691841E+04  0.25566109783E+04  0.18555645130E+04 0.  0.
         24    2    3    3    0    0 -0.82652505624E+03 -0.73670455087E+03  0.16309845880E+03  0.11217937500E+04  0.77089859728E+02 0.  0.
    9900016    2    1    2    0    0  0.37574705677E+02  0.12322893280E+04 -0.13312414368E+04  0.25867538142E+04  0.18436764049E+04 0.  0.
        -24    2    5    5    0    0 -0.20204513294E+03  0.23562424539E+03  0.40752490195E+03  0.51846005309E+03  0.79895307587E+02 0.  0.
        -15    1    5    5    0    0  0.28443765025E+03  0.29377159972E+03 -0.59470534421E+03  0.72172084362E+03  0.00000000000E+00 0.  1.
        -15    1    4    4    0    0 -0.41136508822E+03 -0.39376172179E+03  0.11696356335E+03  0.58133467513E+03  0.00000000000E+00 0.  1.
         15    1    3    3    0    0  0.78895035056E+03 -0.49558477712E+03  0.10911707253E+04  0.14348172283E+04  0.00000000000E+00 0. -1.
         15    1    6    6    0    0 -0.84168627393E+02  0.52140146223E+02  0.16388471710E+03  0.19147102440E+03  0.00000000000E+00 0. -1.
        -16    1    6    6    0    0 -0.11787650555E+03  0.18348409916E+03  0.24364018485E+03  0.32698902869E+03  0.00000000000E+00 0.  1.
         16    1    4    4    0    0 -0.41515996802E+03 -0.34294282907E+03  0.46134895449E+02  0.54045907490E+03  0.00000000000E+00 0. -1.
    9900018    1    5    5    0    0 -0.44817811628E+02  0.70289348288E+03 -0.11440609946E+04  0.13465729175E+04  0.91187600000E+02 0.  0.
<mgrwt>
<rscale>  0 0.51427888E+04</rscale>
<asrwt>0</asrwt>
<pdfrwt beam="1">  1        2 0.38972250E+00 0.51427888E+04</pdfrwt>
<pdfrwt beam="2">  1       -2 0.40156439E+00 0.51427888E+04</pdfrwt>
<totfact> 0.17391338E-02</totfact>
</mgrwt>
</event>
<event>
13    1  0.1621898E-005  0.4087810E+04  0.7818608E-02  0.7987063E-01
         -2   -1    0    0    0  501 -0.00000000000E+00  0.00000000000E+00  0.22490587889E+04  0.22490587889E+04  0.00000000000E+00 0.  1.
          2   -1    0    0  501    0  0.00000000000E+00 -0.00000000000E+00 -0.18574647570E+04  0.18574647570E+04  0.00000000000E+00 0. -1.
    9900016    2    1    2    0    0  0.30175593322E+03 -0.64622472744E+03  0.70722025024E+03  0.21008876813E+04  0.18452386094E+04 0.  0.
        -24    2    3    3    0    0  0.67014691481E+03  0.18054355670E+03  0.93535588474E+03  0.11674512460E+04  0.79742820619E+02 0.  0.
    9900016    2    1    2    0    0 -0.30175593322E+03  0.64622472744E+03 -0.31562621835E+03  0.20056358645E+04  0.18477803630E+04 0.  0.
         24    2    5    5    0    0  0.56383227816E+03 -0.10173826851E+03  0.50390497344E+02  0.58082491004E+03  0.80999140235E+02 0.  0.
        -15    1    6    6    0    0  0.14534167648E+03 -0.55122936840E+02  0.35696678685E+02  0.15948979264E+03  0.00000000000E+00 0.  1.
        -15    1    3    3    0    0 -0.36839098160E+03 -0.82676828414E+03 -0.22813563450E+03  0.93343643528E+03  0.00000000000E+00 0.  1.
         15    1    4    4    0    0  0.27550806127E+03  0.88591225679E+02  0.45207492418E+03  0.53677260937E+03  0.00000000000E+00 0. -1.
         15    1    5    5    0    0 -0.62692735559E+03  0.48757723990E+02 -0.11529786783E+03  0.63930338898E+03  0.00000000000E+00 0. -1.
        -16    1    4    4    0    0  0.39463885354E+03  0.91952331021E+02  0.48328096056E+03  0.63067863666E+03  0.00000000000E+00 0.  1.
         16    1    6    6    0    0  0.41849060168E+03 -0.46615331674E+02  0.14693818659E+02  0.42133511739E+03  0.00000000000E+00 0. -1.
    9900018    1    5    5    0    0 -0.23866085579E+03  0.69920527196E+03 -0.25071884787E+03  0.78550756552E+03  0.91187600000E+02 0.  0.
<mgrwt>
<rscale>  0 0.40878099E+04</rscale>
<asrwt>0</asrwt>
<pdfrwt beam="1">  1        2 0.28576381E+00 0.40878099E+04</pdfrwt>
<pdfrwt beam="2">  1       -2 0.34600905E+00 0.40878099E+04</pdfrwt>
<totfact> 0.10351535E-01</totfact>
</mgrwt>
</event>
<event>
13    1  0.1621898E-005  0.5047098E+04  0.7818608E-02  0.7821283E-01
          1   -1    0    0  501    0  0.00000000000E+00  0.00000000000E+00  0.27581897991E+04  0.27581897991E+04  0.00000000000E+00 0. -1.
         -1   -1    0    0    0  501 -0.00000000000E+00 -0.00000000000E+00 -0.23088691808E+04  0.23088691808E+04  0.00000000000E+00 0.  1.
    9900016    2    1    2    0    0 -0.77032002362E+03 -0.16508182143E+03  0.17596380117E+04  0.26653337451E+04  0.18403893865E+04 0.  0.
         24    2    3    3    0    0 -0.32061482940E+03  0.57330414646E+02 -0.35678784586E+03  0.49025664876E+03  0.83506702889E+02 0.  0.
    9900016    2    1    2    0    0  0.77032002362E+03  0.16508182143E+03 -0.13103173935E+04  0.24017252348E+04  0.18522169109E+04 0.  0.
        -24    2    5    5    0    0 -0.45593912713E+02  0.60641907328E+03 -0.95339608326E+03  0.11336446762E+04  0.79770063201E+02 0.  0.
        -15    1    5    5    0    0  0.99349498231E+02 -0.42386324947E+03  0.51004470826E+02  0.43832845344E+03  0.00000000000E+00 0.  1.
        -15    1    4    4    0    0 -0.22874985345E+03  0.21398725382E+02 -0.29480509395E+03  0.37375719969E+03  0.00000000000E+00 0.  1.
         15    1    6    6    0    0 -0.19443085145E+02  0.24154022642E+03 -0.45370293344E+03  0.51435986075E+03  0.00000000000E+00 0. -1.
         15    1    3    3    0    0 -0.44970519422E+03 -0.22241223608E+03  0.21164258576E+04  0.21750770964E+04  0.00000000000E+00 0. -1.
        -16    1    6    6    0    0 -0.26150827568E+02  0.36487884685E+03 -0.49969314982E+03  0.61928481545E+03  0.00000000000E+00 0.  1.
         16    1    4    4    0    0 -0.91864975948E+02  0.35931689264E+02 -0.61982751908E+02  0.11649944907E+03  0.00000000000E+00 0. -1.
    9900018    1    5    5    0    0  0.71656443810E+03 -0.17474002372E+02 -0.40792578107E+03  0.82975210513E+03  0.91187600000E+02 0.  0.
<mgrwt>
<rscale>  0 0.50470979E+04</rscale>
<asrwt>0</asrwt>
<pdfrwt beam="1">  1        1 0.42433689E+00 0.50470979E+04</pdfrwt>
<pdfrwt beam="2">  1       -1 0.35521064E+00 0.50470979E+04</pdfrwt>
<totfact> 0.92119060E-03</totfact>
</mgrwt>
</event>
<event>
13    1  0.1621898E-005  0.5245336E+04  0.7818608E-02  0.7791737E-01
          2   -1    0    0  501    0  0.00000000000E+00  0.00000000000E+00  0.20197526911E+04  0.20197526911E+04  0.00000000000E+00 0. -1.
         -2   -1    0    0    0  501 -0.00000000000E+00 -0.00000000000E+00 -0.34055595070E+04  0.34055595070E+04  0.00000000000E+00 0.  1.
    9900016    2    1    2    0    0  0.56792091147E+03  0.17362218035E+04 -0.10781746835E+04  0.28148673803E+04  0.18504100648E+04 0.  0.
        -24    2    3    3    0    0  0.11539134457E+03 -0.16688708448E+03 -0.81173602320E+03  0.84063436258E+03  0.81143692351E+02 0.  0.
    9900016    2    1    2    0    0 -0.56792091147E+03 -0.17362218035E+04 -0.30763213243E+03  0.26104448178E+04  0.18392347064E+04 0.  0.
         24    2    5    5    0    0 -0.24931568793E+03 -0.35449073687E+03 -0.94398771596E+03  0.10417096398E+04  0.78893415703E+02 0.  0.
        -15    1    3    3    0    0  0.45252956691E+03  0.19031088880E+04 -0.26643866027E+03  0.19742330177E+04  0.00000000000E+00 0.  1.
        -15    1    6    6    0    0 -0.19392980357E+03 -0.28037268006E+03 -0.65707706546E+03  0.74024852474E+03  0.00000000000E+00 0.  1.
         15    1    4    4    0    0  0.10963079528E+03 -0.11258570169E+03 -0.49875383650E+03  0.52292431663E+03  0.00000000000E+00 0. -1.
         15    1    5    5    0    0 -0.15187217344E+03 -0.80547322133E+03  0.28637090642E+03  0.86825144018E+03  0.00000000000E+00 0. -1.
        -16    1    4    4    0    0  0.57605492875E+01 -0.54301382789E+02 -0.31298218671E+03  0.31771004595E+03  0.00000000000E+00 0.  1.
         16    1    6    6    0    0 -0.55385884354E+02 -0.74118056807E+02 -0.28691065050E+03  0.30146111508E+03  0.00000000000E+00 0. -1.
    9900018    1    5    5    0    0 -0.16673305010E+03 -0.57625784533E+03  0.34998467711E+03  0.70048373779E+03  0.91187600000E+02 0.  0.
<mgrwt>
<rscale>  0 0.52453362E+04</rscale>
<asrwt>0</asrwt>
<pdfrwt beam="1">  1        2 0.31073119E+00 0.52453362E+04</pdfrwt>
<pdfrwt beam="2">  1       -2 0.52393222E+00 0.52453362E+04</pdfrwt>
<totfact> 0.55706645E-03</totfact>
</mgrwt>
</event>
<event>
13    1  0.1621898E-005  0.4533634E+04  0.7818608E-02  0.7904775E-01
         -1   -1    0    0    0  501 -0.00000000000E+00  0.00000000000E+00  0.28826577401E+04  0.28826577401E+04  0.00000000000E+00 0.  1.
          1   -1    0    0  501    0  0.00000000000E+00 -0.00000000000E+00 -0.17825420983E+04  0.17825420983E+04  0.00000000000E+00 0. -1.
    9900016    2    1    2    0    0  0.12844897061E+04 -0.21142301029E+03  0.70268761474E+03  0.23699160531E+04  0.18515179504E+04 0.  0.
        -24    2    3    3    0    0 -0.16975879271E+02  0.66231656772E+03  0.41388728501E+02  0.66857842145E+03  0.79578027294E+02 0.  0.
    9900016    2    1    2    0    0 -0.12844897061E+04  0.21142301029E+03  0.39742802706E+03  0.22952837853E+04  0.18481788670E+04 0.  0.
         24    2    5    5    0    0  0.45493272778E+03  0.17049976663E+03 -0.43559349285E+02  0.49418905152E+03  0.79318626475E+02 0.  0.
        -15    1    3    3    0    0  0.13014655853E+04 -0.87373957801E+03  0.66129888624E+03  0.17013376317E+04  0.00000000000E+00 0.  1.
        -15    1    6    6    0    0  0.34611641926E+03  0.15826697674E+03 -0.53104118133E+02  0.38427211579E+03  0.00000000000E+00 0.  1.
         15    1    5    5    0    0 -0.46635737235E+03  0.56946047616E+02  0.12294778669E+03  0.48564205887E+03  0.00000000000E+00 0. -1.
         15    1    4    4    0    0  0.28640542591E+02  0.32972925946E+03  0.60915448781E+01  0.33102684505E+03  0.00000000000E+00 0. -1.
        -16    1    4    4    0    0 -0.45616421862E+02  0.33258730826E+03  0.35297183623E+02  0.33755157640E+03  0.00000000000E+00 0.  1.
         16    1    6    6    0    0  0.10881630852E+03  0.12232789883E+02  0.95447688482E+01  0.10991693574E+03  0.00000000000E+00 0. -1.
    9900018    1    5    5    0    0 -0.12730650615E+04 -0.16022803948E+02  0.31803958966E+03  0.13154526749E+04  0.91187600000E+02 0.  0.
<mgrwt>
<rscale>  0 0.45336338E+04</rscale>
<asrwt>0</asrwt>
<pdfrwt beam="1">  1        1 0.27423725E+00 0.45336338E+04</pdfrwt>
<pdfrwt beam="2">  1       -1 0.44348581E+00 0.45336338E+04</pdfrwt>
<totfact> 0.11269035E-02</totfact>
</mgrwt>
</event>
<event>
13    1  0.1621898E-005  0.4213114E+04  0.7818608E-02  0.7962882E-01
          2   -1    0    0  501    0  0.00000000000E+00  0.00000000000E+00  0.24515024966E+04  0.24515024966E+04  0.00000000000E+00 0. -1.
         -2   -1    0    0    0  501 -0.00000000000E+00 -0.00000000000E+00 -0.18101480858E+04  0.18101480858E+04  0.00000000000E+00 0.  1.
    9900016    2    1    2    0    0 -0.22331064642E+03  0.84827074488E+03 -0.21261074876E+03  0.20498555188E+04  0.18404546764E+04 0.  0.
        -24    2    3    3    0    0  0.11502256337E+03  0.11636561657E+04  0.43830255044E+03  0.12513409932E+04  0.80120493019E+02 0.  0.
    9900016    2    1    2    0    0  0.22331064642E+03 -0.84827074488E+03  0.85396515961E+03  0.22117950636E+04  0.18421047767E+04 0.  0.
         24    2    5    5    0    0 -0.49899829105E+03  0.24253391237E+03  0.57470785493E+03  0.80256426155E+03  0.77448578251E+02 0.  0.
        -15    1    3    3    0    0 -0.33833320979E+03 -0.31538542084E+03 -0.65091329921E+03  0.79851452561E+03  0.00000000000E+00 0.  1.
        -15    1    6    6    0    0 -0.17604502933E+03  0.45880578701E+02  0.17788613432E+03  0.25444126363E+03  0.00000000000E+00 0.  1.
         15    1    5    5    0    0  0.66921684689E+03 -0.67144698518E+03  0.21479932708E+03  0.97202417305E+03  0.00000000000E+00 0. -1.
         15    1    4    4    0    0  0.55014118711E+02  0.86185554044E+03  0.34273434430E+03  0.92913312104E+03  0.00000000000E+00 0. -1.
        -16    1    4    4    0    0  0.60008444659E+02  0.30180062528E+03  0.95568206142E+02  0.32220787215E+03  0.00000000000E+00 0.  1.
         16    1    6    6    0    0 -0.32295326172E+03  0.19665333367E+03  0.39682172061E+03  0.54812299792E+03  0.00000000000E+00 0. -1.
    9900018    1    5    5    0    0  0.53092090576E+02 -0.41935767207E+03  0.64457977599E+02  0.43720662904E+03  0.91187600000E+02 0.  0.
<mgrwt>
<rscale>  0 0.42131141E+04</rscale>
<asrwt>0</asrwt>
<pdfrwt beam="1">  1        2 0.37715423E+00 0.42131141E+04</pdfrwt>
<pdfrwt beam="2">  1       -2 0.27848432E+00 0.42131141E+04</pdfrwt>
<totfact> 0.12387736E-01</totfact>
</mgrwt>
</event>
<event>
13    1  0.1621898E-005  0.4939225E+04  0.7818608E-02  0.7837951E-01
         -2   -1    0    0    0  501 -0.00000000000E+00  0.00000000000E+00  0.20438708685E+04  0.20438708685E+04  0.00000000000E+00 0.  1.
          2   -1    0    0  501    0  0.00000000000E+00 -0.00000000000E+00 -0.29840363489E+04  0.29840363489E+04  0.00000000000E+00 0. -1.
    9900016    2    1    2    0    0 -0.10323724343E+04  0.31320322575E+03 -0.17327619353E+04  0.27476392409E+04  0.18393391123E+04 0.  0.
         24    2    3    3    0    0  0.27037231885E+03 -0.39392838017E+03 -0.22793098171E+02  0.48463848441E+03  0.77936998582E+02 0.  0.
    9900016    2    1    2    0    0  0.10323724343E+04 -0.31320322575E+03  0.79259645491E+03  0.22802679765E+04  0.18459479410E+04 0.  0.
        -24    2    5    5    0    0  0.73798488724E+03  0.44466606335E+03 -0.71371206067E+02  0.86830201894E+03  0.80653241476E+02 0.  0.
        -15    1    5    5    0    0  0.20764600720E+02 -0.31026965022E+03  0.82081512097E+03  0.87774477344E+03  0.00000000000E+00 0.  1.
        -15    1    4    4    0    0  0.84149641950E+01 -0.84193555049E+01  0.12442563164E+02  0.17219597777E+02  0.00000000000E+00 0.  1.
         15    1    6    6    0    0  0.48678643872E+03  0.25133500642E+03 -0.30415569334E+02  0.54868518226E+03  0.00000000000E+00 0. -1.
         15    1    3    3    0    0 -0.13027447531E+04  0.70713160592E+03 -0.17099688371E+04  0.22630007565E+04  0.00000000000E+00 0. -1.
        -16    1    6    6    0    0  0.25119844851E+03  0.19333105693E+03 -0.40955636733E+02  0.31961683668E+03  0.00000000000E+00 0.  1.
         16    1    4    4    0    0  0.26195735465E+03 -0.38550902467E+03 -0.35235661335E+02  0.46741888664E+03  0.00000000000E+00 0. -1.
    9900018    1    5    5    0    0  0.27362294630E+03 -0.44759963888E+03  0.43152540014E+02  0.53422118413E+03  0.91187600000E+02 0.  0.
<mgrwt>
<rscale>  0 0.49392246E+04</rscale>
<asrwt>0</asrwt>
<pdfrwt beam="1">  1        2 0.45908252E+00 0.49392246E+04</pdfrwt>
<pdfrwt beam="2">  1       -2 0.31444167E+00 0.49392246E+04</pdfrwt>
<totfact> 0.33757199E-02</totfact>
</mgrwt>
</event>
<event>
13    1  0.1621898E-005  0.5400982E+04  0.7818608E-02  0.7769463E-01
         -2   -1    0    0    0  501 -0.00000000000E+00  0.00000000000E+00  0.16489682149E+04  0.16489682149E+04  0.00000000000E+00 0.  1.
          2   -1    0    0  501    0  0.00000000000E+00 -0.00000000000E+00 -0.44225546858E+04  0.44225546858E+04  0.00000000000E+00 0. -1.
    9900016    2    1    2    0    0 -0.54553677067E+03 -0.15041078293E+04 -0.26799578372E+04  0.36255984778E+04  0.18446787208E+04 0.  0.
        -24    2    3    3    0    0  0.37358749127E+03 -0.78630973175E+03 -0.21749822251E+03  0.90094604647E+03  0.80917822444E+02 0.  0.
    9900016    2    1    2    0    0  0.54553677067E+03  0.15041078293E+04 -0.93628633731E+02  0.24459244229E+04  0.18476550628E+04 0.  0.
         24    2    5    5    0    0 -0.19823674023E+03 -0.83642470046E+02 -0.47682765690E+03  0.52902117775E+03  0.78771340911E+02 0.  0.
        -15    1    3    3    0    0 -0.91912426194E+03 -0.71779809759E+03 -0.24624596146E+04  0.27246524313E+04  0.00000000000E+00 0.  1.
        -15    1    6    6    0    0 -0.11483023660E+03 -0.28163961049E+02 -0.33604046033E+03  0.35623360723E+03  0.00000000000E+00 0.  1.
         15    1    5    5    0    0  0.19161069231E+03  0.10297079981E+04  0.41336856032E+03  0.11260047892E+04  0.00000000000E+00 0. -1.
         15    1    4    4    0    0  0.93041186256E+02 -0.21018498284E+03 -0.21600522408E+02  0.23087003253E+03  0.00000000000E+00 0. -1.
        -16    1    4    4    0    0  0.28054630502E+03 -0.57612474891E+03 -0.19589770010E+03  0.67007601394E+03  0.00000000000E+00 0.  1.
         16    1    6    6    0    0 -0.83406503632E+02 -0.55478508997E+02 -0.14078719657E+03  0.17278757052E+03  0.00000000000E+00 0. -1.
    9900018    1    5    5    0    0  0.55216281858E+03  0.55804230132E+03 -0.30169537157E+02  0.79089845597E+03  0.91187600000E+02 0.  0.
<mgrwt>
<rscale>  0 0.54009822E+04</rscale>
<asrwt>0</asrwt>
<pdfrwt beam="1">  1        2 0.68039303E+00 0.54009822E+04</pdfrwt>
<pdfrwt beam="2">  1       -2 0.25368742E+00 0.54009822E+04</pdfrwt>
<totfact> 0.62270041E-03</totfact>
</mgrwt>
</event>
<event>
13    1  0.1621898E-005  0.4500501E+04  0.7818608E-02  0.7910549E-01
         -1   -1    0    0    0  501 -0.00000000000E+00  0.00000000000E+00  0.12509374173E+04  0.12509374173E+04  0.00000000000E+00 0.  1.
          1   -1    0    0  501    0  0.00000000000E+00 -0.00000000000E+00 -0.40478667939E+04  0.40478667939E+04  0.00000000000E+00 0. -1.
    9900016    2    1    2    0    0  0.25893615564E+03 -0.90895483632E+03 -0.35497209354E+03  0.20961240148E+04  0.18369768292E+04 0.  0.
        -24    2    3    3    0    0 -0.47281752423E+03  0.35760251864E+03 -0.39158363279E+02  0.59967177917E+03  0.81467126893E+02 0.  0.
    9900016    2    1    2    0    0 -0.25893615564E+03  0.90895483632E+03 -0.24419572830E+04  0.32026801964E+04  0.18441144870E+04 0.  0.
         24    2    5    5    0    0  0.63317145883E+03  0.11281402816E+02 -0.37243975374E+03  0.73915061967E+03  0.81233626484E+02 0.  0.
        -15    1    3    3    0    0  0.73175367986E+03 -0.12665573550E+04 -0.31581373026E+03  0.14964522357E+04  0.00000000000E+00 0.  1.
        -15    1    6    6    0    0  0.44318940825E+03 -0.28428169864E+02 -0.24916733141E+03  0.50922428405E+03  0.00000000000E+00 0.  1.
         15    1    5    5    0    0 -0.21086882458E+03  0.56734855773E+02 -0.58274199627E+03  0.62231241291E+03  0.00000000000E+00 0. -1.
         15    1    4    4    0    0 -0.29058749086E+03  0.25704580007E+03 -0.40292946322E+00  0.38796107476E+03  0.00000000000E+00 0. -1.
        -16    1    4    4    0    0 -0.18223003337E+03  0.10055671857E+03 -0.38755433816E+02  0.21171070441E+03  0.00000000000E+00 0.  1.
         16    1    6    6    0    0  0.18998205058E+03  0.39709572680E+02 -0.12327242233E+03  0.22992633562E+03  0.00000000000E+00 0. -1.
    9900018    1    5    5    0    0 -0.68123878988E+03  0.84093857773E+03 -0.14867755330E+04  0.18412171638E+04  0.91187600000E+02 0.  0.
<mgrwt>
<rscale>  0 0.45005013E+04</rscale>
<asrwt>0</asrwt>
<pdfrwt beam="1">  1        1 0.62274875E+00 0.45005013E+04</pdfrwt>
<pdfrwt beam="2">  1       -1 0.19245191E+00 0.45005013E+04</pdfrwt>
<totfact> 0.11064141E-02</totfact>
</mgrwt>
</event>
<event>
13    1  0.1621898E-005  0.4859599E+04  0.7818608E-02  0.7850538E-01
         -2   -1    0    0    0  501 -0.00000000000E+00  0.00000000000E+00  0.21829283299E+04  0.21829283299E+04  0.00000000000E+00 0.  1.
          2   -1    0    0  501    0  0.00000000000E+00 -0.00000000000E+00 -0.27045892540E+04  0.27045892540E+04  0.00000000000E+00 0. -1.
    9900016    2    1    2    0    0  0.79976558876E+03  0.61194765247E+03  0.96710384247E+03  0.23099955802E+04  0.18402947623E+04 0.  0.
         24    2    3    3    0    0  0.47963832825E+03 -0.64425234161E+02  0.13735434660E+04  0.14584352991E+04  0.78792969503E+02 0.  0.
    9900016    2    1    2    0    0 -0.79976558876E+03 -0.61194765247E+03 -0.14887647666E+04  0.25775220037E+04  0.18474561491E+04 0.  0.
        -24    2    5    5    0    0 -0.11057274439E+04 -0.72879847139E+03 -0.15141577184E+04  0.20131350124E+04  0.79111250104E+02 0.  0.
        -15    1    4    4    0    0  0.25968019944E+03 -0.63302208510E+02  0.83377014969E+03  0.87556475380E+03  0.00000000000E+00 0.  1.
        -15    1    5    5    0    0  0.14362051290E+03  0.13492016978E+03 -0.19368497007E+03  0.27630449069E+03  0.00000000000E+00 0.  1.
         15    1    3    3    0    0  0.32012726051E+03  0.67637288663E+03 -0.40643962352E+03  0.85156028105E+03  0.00000000000E+00 0. -1.
         15    1    6    6    0    0 -0.52385255339E+03 -0.32610072589E+03 -0.65073669155E+03  0.89678393320E+03  0.00000000000E+00 0. -1.
        -16    1    6    6    0    0 -0.58187489054E+03 -0.40269774550E+03 -0.86342102687E+03  0.11163510792E+04  0.00000000000E+00 0.  1.
         16    1    4    4    0    0  0.21995812881E+03 -0.11230256509E+01  0.53977331630E+03  0.58287054533E+03  0.00000000000E+00 0. -1.
    9900018    1    5    5    0    0  0.16234134227E+03 -0.18069350853E+02  0.21907792194E+03  0.28808250055E+03  0.91187600000E+02 0.  0.
<mgrwt>
<rscale>  0 0.48595985E+04</rscale>
<asrwt>0</asrwt>
<pdfrwt beam="1">  1        2 0.41609065E+00 0.48595985E+04</pdfrwt>
<pdfrwt beam="2">  1       -2 0.33583513E+00 0.48595985E+04</pdfrwt>
<totfact> 0.37085791E-02</totfact>
</mgrwt>
</event>
