<event>
11    1  0.1431252E-009  0.3061455E+04  0.7818608E-02  0.8226397E-01
          1   -1    0    0  501    0  0.00000000000E+00  0.00000000000E+00  0.12283123649E+04  0.12283123649E+04  0.00000000000E+00 0. -1.
         -1   -1    0    0    0  501 -0.00000000000E+00 -0.00000000000E+00 -0.19075984799E+04  0.19075984799E+04  0.00000000000E+00 0.  1.
    9900016    2    1    2    0    0  0.53060475835E+03  0.31532756843E+03 -0.38848454886E+03  0.23226830859E+04  0.22052128214E+04 0.  0.
        -24    2    3    3    0    0  0.63007055287E+03 -0.28871244819E+03 -0.90849700528E+02  0.70502228185E+03  0.91972661563E+02 0.  0.
        -15    1    3    3    0    0 -0.14591510431E+03 -0.33297525194E+03  0.28753788605E+03  0.46351027172E+03  0.00000000000E+00 0.  1.
        -15    1    3    3    0    0 -0.13050425990E+03  0.58457862766E+03 -0.32198003041E+03  0.68002549493E+03  0.00000000000E+00 0.  1.
         15    1    3    3    0    0  0.17695356969E+03  0.35243664090E+03 -0.26319270397E+03  0.47412503741E+03  0.00000000000E+00 0. -1.
         15    1    4    4    0    0  0.27700973800E+03 -0.17255960279E+03 -0.62274950358E+02  0.33224897427E+03  0.00000000000E+00 0. -1.
        -16    1    4    4    0    0  0.35306081488E+03 -0.11615284540E+03 -0.28574750171E+02  0.37277330758E+03  0.00000000000E+00 0.  1.
         16    1    1    2    0    0 -0.12254182124E+03 -0.23626935963E+03 -0.28176396061E+03  0.38759597231E+03  0.00000000000E+00 0. -1.
    9900018    1    1    2    0    0 -0.40806293711E+03 -0.79058208796E+02 -0.90376055431E+01  0.42563178656E+03  0.91187600000E+02 0.  0.
<mgrwt>
<rscale>  0 0.30614551E+04</rscale>
<asrwt>0</asrwt>
<pdfrwt beam="1">  1        1 0.18897113E+00 0.30614551E+04</pdfrwt>
<pdfrwt beam="2">  1       -1 0.29347669E+00 0.30614551E+04</pdfrwt>
<totfact> 0.31397983E-01</totfact>
</mgrwt>
</event>
<event>
11    1  0.1431252E-009  0.4639312E+04  0.7818608E-02  0.7886691E-01
         -2   -1    0    0    0  501 -0.00000000000E+00  0.00000000000E+00  0.33803580394E+04  0.33803580394E+04  0.00000000000E+00 0.  1.
          2   -1    0    0  501    0  0.00000000000E+00 -0.00000000000E+00 -0.15917850972E+04  0.15917850972E+04  0.00000000000E+00 0. -1.
    9900016    2    1    2    0    0 -0.35788931185E+03 -0.76907803981E+03  0.12007609859E+04  0.26398083590E+04  0.21925317412E+04 0.  0.
         24    2    3    3    0    0 -0.22194730640E+03 -0.25745566192E+03  0.91625005498E+03  0.98193919162E+03  0.95636750840E+02 0.  0.
        -15    1    3    3    0    0  0.22991620520E+03 -0.25415617450E+03  0.60266202843E+02  0.34797821434E+03  0.00000000000E+00 0.  1.
        -15    1    4    4    0    0 -0.99956334067E+02 -0.10819842004E+03  0.53243062717E+03  0.55243147952E+03  0.00000000000E+00 0.  1.
         15    1    3    3    0    0 -0.15458963813E+03  0.48911101256E+03  0.56410619588E+02  0.51605202919E+03  0.00000000000E+00 0. -1.
         15    1    3    3    0    0 -0.21126857251E+03 -0.74657721594E+03  0.16783410849E+03  0.79383892388E+03  0.00000000000E+00 0. -1.
        -16    1    1    2    0    0  0.78604640120E+03  0.12775858816E+04  0.10113139004E+03  0.15034367921E+04  0.00000000000E+00 0.  1.
         16    1    4    4    0    0 -0.12199097234E+03 -0.14925724188E+03  0.38381942781E+03  0.42950771209E+03  0.00000000000E+00 0. -1.
    9900018    1    1    2    0    0 -0.42815708936E+03 -0.50850784179E+03  0.48668056629E+03  0.82889798548E+03  0.91187600000E+02 0.  0.
<mgrwt>
<rscale>  0 0.46393118E+04</rscale>
<asrwt>0</asrwt>
<pdfrwt beam="1">  1        2 0.24489002E+00 0.46393118E+04</pdfrwt>
<pdfrwt beam="2">  1       -2 0.52005508E+00 0.46393118E+04</pdfrwt>
<totfact> 0.10603782E-02</totfact>
</mgrwt>
</event>
<event>
11    1  0.1431252E-009  0.3925387E+04  0.7818608E-02  0.8019770E-01
         -1   -1    0    0    0  501 -0.00000000000E+00  0.00000000000E+00  0.10805959532E+04  0.10805959532E+04  0.00000000000E+00 0.  1.
          1   -1    0    0  501    0  0.00000000000E+00 -0.00000000000E+00 -0.35648534894E+04  0.35648534894E+04  0.00000000000E+00 0. -1.
    9900016    2    1    2    0    0 -0.88479152033E+02  0.77702420711E+03 -0.94032935419E+03  0.25209354407E+04  0.22043822317E+04 0.  0.
        -24    2    3    3    0    0  0.64969046128E+03  0.79073518455E+03 -0.71218709109E+03  0.12482912456E+04  0.60504162271E+02 0.  0.
        -15    1    3    3    0    0 -0.37312065316E+03 -0.14255480706E+03  0.30577799005E+03  0.50303188173E+03  0.00000000000E+00 0.  1.
        -15    1    3    3    0    0 -0.73430288512E+02  0.10238693415E+03 -0.44663011831E+03  0.46406201540E+03  0.00000000000E+00 0.  1.
         15    1    4    4    0    0  0.32531706310E+03  0.34882509908E+03 -0.32648074546E+03  0.57801368361E+03  0.00000000000E+00 0. -1.
         15    1    3    3    0    0 -0.29161867164E+03  0.26456895474E+02 -0.87290134836E+02  0.30555029799E+03  0.00000000000E+00 0. -1.
        -16    1    4    4    0    0  0.32437339818E+03  0.44191008547E+03 -0.38570634563E+03  0.67027756202E+03  0.00000000000E+00 0.  1.
         16    1    1    2    0    0 -0.37878486777E+03 -0.83263967892E+03 -0.12919399243E+04  0.15829957609E+04  0.00000000000E+00 0. -1.
    9900018    1    1    2    0    0  0.46726401980E+03  0.55615471812E+02 -0.25198825763E+03  0.54151824095E+03  0.91187600000E+02 0.  0.
<mgrwt>
<rscale>  0 0.39253872E+04</rscale>
<asrwt>0</asrwt>
<pdfrwt beam="1">  1        1 0.54843900E+00 0.39253872E+04</pdfrwt>
<pdfrwt beam="2">  1       -1 0.16624553E+00 0.39253872E+04</pdfrwt>
<totfact> 0.45765557E-02</totfact>
</mgrwt>
</event>
<event>
10    1  0.1431252E-009  0.3102925E+04  0.7818608E-02  0.8214936E-01
          2   -1    0    0  501    0  0.00000000000E+00  0.00000000000E+00  0.14665796626E+04  0.14665796626E+04  0.00000000000E+00 0. -1.
         -2   -1    0    0    0  501 -0.00000000000E+00 -0.00000000000E+00 -0.16412579753E+04  0.16412579753E+04  0.00000000000E+00 0.  1.
    9900016    2    1    2    0    0 -0.36146383212E+03  0.33429006858E+03 -0.27896099490E+03  0.22741103080E+04  0.22025786035E+04 0.  0.
        -15    1    3    3    0    0  0.10868465821E+03  0.18875735160E+03  0.99824389736E+02  0.23959674768E+03  0.00000000000E+00 0.  1.
        -15    1    3    3    0    0  0.71342801899E+02 -0.81993345814E+02  0.50667232784E+03  0.51819837122E+03  0.00000000000E+00 0.  1.
         15    1    3    3    0    0  0.38920764083E+02  0.11547168034E+03 -0.26737396543E+03  0.29383221781E+03  0.00000000000E+00 0. -1.
         15    1    3    3    0    0 -0.60860947918E+03  0.16319657131E+03 -0.80750847354E+03  0.10242600031E+04  0.00000000000E+00 0. -1.
        -16    1    1    2    0    0  0.28385857055E+03 -0.36948630633E+03 -0.19832873160E+03  0.50638928150E+03  0.00000000000E+00 0.  1.
         16    1    3    3    0    0  0.28197422874E+02 -0.51142188854E+02  0.18942472650E+03  0.19822296826E+03  0.00000000000E+00 0. -1.
    9900018    1    1    2    0    0  0.77605261570E+02  0.35196237750E+02  0.30261141375E+03  0.32733804835E+03  0.91187600000E+02 0.  0.
<mgrwt>
<rscale>  0 0.31029248E+04</rscale>
<asrwt>0</asrwt>
<pdfrwt beam="1">  1        2 0.22562764E+00 0.31029248E+04</pdfrwt>
<pdfrwt beam="2">  1       -2 0.25250123E+00 0.31029248E+04</pdfrwt>
<totfact> 0.69808673E-01</totfact>
</mgrwt>
</event>
<event>
11    1  0.1431252E-009  0.3232563E+04  0.7818608E-02  0.8180270E-01
          1   -1    0    0  501    0  0.00000000000E+00  0.00000000000E+00  0.17449943476E+04  0.17449943476E+04  0.00000000000E+00 0. -1.
         -1   -1    0    0    0  501 -0.00000000000E+00 -0.00000000000E+00 -0.14970622424E+04  0.14970622424E+04  0.00000000000E+00 0.  1.
    9900016    2    1    2    0    0 -0.62638025879E+02  0.12349515429E+03 -0.64757275871E+02  0.22096218820E+04  0.22043277390E+04 0.  0.
        -24    2    3    3    0    0 -0.97371819052E+03 -0.47991773937E+02  0.18715635918E+03  0.99688596033E+03  0.91234808097E+02 0.  0.
        -15    1    3    3    0    0  0.58049872921E+03  0.38572967262E+03 -0.14042464398E+02  0.69711071270E+03  0.00000000000E+00 0.  1.
        -15    1    3    3    0    0  0.67787747424E+02 -0.13354005678E+03 -0.18095477429E+03  0.23488881584E+03  0.00000000000E+00 0.  1.
         15    1    3    3    0    0  0.26279368800E+03 -0.80702687609E+02 -0.56916396363E+02  0.28073639311E+03  0.00000000000E+00 0. -1.
         15    1    4    4    0    0 -0.30002454389E+03  0.88992130499E+01  0.22288684455E+02  0.30098290381E+03  0.00000000000E+00 0. -1.
        -16    1    4    4    0    0 -0.67369364662E+03 -0.56890986987E+02  0.16486767473E+03  0.69590305652E+03  0.00000000000E+00 0.  1.
         16    1    1    2    0    0 -0.28937798486E+03 -0.71780832682E+02  0.52823330403E+03  0.60656617903E+03  0.00000000000E+00 0. -1.
    9900018    1    1    2    0    0  0.35201601074E+03 -0.51714321609E+02 -0.21554392299E+03  0.42586852902E+03  0.91187600000E+02 0.  0.
<mgrwt>
<rscale>  0 0.32325625E+04</rscale>
<asrwt>0</asrwt>
<pdfrwt beam="1">  1        1 0.26846067E+00 0.32325625E+04</pdfrwt>
<pdfrwt beam="2">  1       -1 0.23031727E+00 0.32325625E+04</pdfrwt>
<totfact> 0.34806480E-01</totfact>
</mgrwt>
</event>
<event>
10    1  0.1431252E-009  0.3202110E+04  0.7818608E-02  0.8188260E-01
         -2   -1    0    0    0  501 -0.00000000000E+00  0.00000000000E+00  0.10220843715E+04  0.10220843715E+04  0.00000000000E+00 0.  1.
          2   -1    0    0  501    0  0.00000000000E+00 -0.00000000000E+00 -0.25079895570E+04  0.25079895570E+04  0.00000000000E+00 0. -1.
    9900016    2    1    2    0    0 -0.24155534944E+03  0.55031490267E+03 -0.83152844964E+03  0.24350684735E+04  0.22083757445E+04 0.  0.
        -15    1    3    3    0    0 -0.12449005271E+03 -0.17965490122E+03 -0.21379335966E+03  0.30574704805E+03  0.00000000000E+00 0.  1.
        -15    1    3    3    0    0  0.13176319182E+03  0.29008709160E+03 -0.39795283407E+01  0.31863442387E+03  0.00000000000E+00 0.  1.
         15    1    3    3    0    0 -0.83190519509E+03 -0.11368914802E+03 -0.38270040310E+03  0.92274106581E+03  0.00000000000E+00 0. -1.
         15    1    3    3    0    0  0.43014612035E+03  0.27879171679E+03 -0.25509204485E+03  0.57255782027E+03  0.00000000000E+00 0. -1.
        -16    1    1    2    0    0 -0.40243699516E+02 -0.56739956743E+03 -0.33976444324E+03  0.66257203485E+03  0.00000000000E+00 0.  1.
         16    1    3    3    0    0  0.15293058620E+03  0.27478014353E+03  0.24036886311E+02  0.31538811547E+03  0.00000000000E+00 0. -1.
    9900018    1    1    2    0    0  0.28179904895E+03  0.17084664761E+02 -0.31461229262E+03  0.43243342010E+03  0.91187600000E+02 0.  0.
<mgrwt>
<rscale>  0 0.32021099E+04</rscale>
<asrwt>0</asrwt>
<pdfrwt beam="1">  1        2 0.38584455E+00 0.32021099E+04</pdfrwt>
<pdfrwt beam="2">  1       -2 0.15724375E+00 0.32021099E+04</pdfrwt>
<totfact> 0.76556992E-01</totfact>
</mgrwt>
</event>
<event>
11    1  0.1431252E-009  0.3368390E+04  0.7818608E-02  0.8145708E-01
         -2   -1    0    0    0  501 -0.00000000000E+00  0.00000000000E+00  0.26430252647E+04  0.26430252647E+04  0.00000000000E+00 0.  1.
          2   -1    0    0  501    0  0.00000000000E+00 -0.00000000000E+00 -0.10732065606E+04  0.10732065606E+04  0.00000000000E+00 0. -1.
    9900016    2    1    2    0    0  0.35712325692E+02  0.67172957038E+03  0.11419058558E+04  0.25698793854E+04  0.22017799813E+04 0.  0.
         24    2    3    3    0    0  0.66906016377E+03  0.70184979896E+03  0.77495143317E+03  0.12431517269E+04  0.68131118465E+02 0.  0.
        -15    1    4    4    0    0  0.20630933339E+03  0.20320042055E+03  0.19393481674E+03  0.34851781174E+03  0.00000000000E+00 0.  1.
        -15    1    3    3    0    0 -0.10434597551E+02  0.25848406229E+03  0.10576109587E+03  0.27947862295E+03  0.00000000000E+00 0.  1.
         15    1    3    3    0    0 -0.43636235404E+03 -0.36819779276E+03  0.48216689155E+03  0.74730624909E+03  0.00000000000E+00 0. -1.
         15    1    3    3    0    0 -0.18655088649E+03  0.79593501893E+02 -0.22097356479E+03  0.29994278643E+03  0.00000000000E+00 0. -1.
        -16    1    1    2    0    0  0.20330871873E+03 -0.53403586050E+03  0.58357251699E+03  0.81675309488E+03  0.00000000000E+00 0.  1.
         16    1    4    4    0    0  0.46275083038E+03  0.49864937841E+03  0.58101661644E+03  0.89463391518E+03  0.00000000000E+00 0. -1.
    9900018    1    1    2    0    0 -0.23902104442E+03 -0.13769370987E+03 -0.15565966868E+03  0.32959934505E+03  0.91187600000E+02 0.  0.
<mgrwt>
<rscale>  0 0.33683896E+04</rscale>
<asrwt>0</asrwt>
<pdfrwt beam="1">  1        2 0.16510870E+00 0.33683896E+04</pdfrwt>
<pdfrwt beam="2">  1       -2 0.40661927E+00 0.33683896E+04</pdfrwt>
<totfact> 0.12616478E-01</totfact>
</mgrwt>
</event>
<event>
11    1  0.1431252E-009  0.2871143E+04  0.7818608E-02  0.8281515E-01
          2   -1    0    0  501    0  0.00000000000E+00  0.00000000000E+00  0.11640003464E+04  0.11640003464E+04  0.00000000000E+00 0. -1.
         -2   -1    0    0    0  501 -0.00000000000E+00 -0.00000000000E+00 -0.17705022265E+04  0.17705022265E+04  0.00000000000E+00 0.  1.
    9900016    2    1    2    0    0 -0.43815211802E+03  0.16136118669E+03 -0.81920985528E+03  0.23755858517E+04  0.21804331315E+04 0.  0.
        -24    2    3    3    0    0 -0.81540285951E+03 -0.12000725634E+03 -0.13990139992E+01  0.83008838293E+03  0.98798792356E+02 0.  0.
        -15    1    3    3    0    0  0.17470496354E+03  0.26276675366E+03  0.19139097836E+03  0.36905107737E+03  0.00000000000E+00 0.  1.
        -15    1    3    3    0    0 -0.14862973751E+03  0.13831357233E+03 -0.19413958629E+03  0.28091212527E+03  0.00000000000E+00 0.  1.
         15    1    4    4    0    0 -0.35006321371E+03 -0.10001096328E+03  0.94713981019E+01  0.36419246800E+03  0.00000000000E+00 0. -1.
         15    1    3    3    0    0  0.35117551545E+03 -0.11971188295E+03 -0.81506223335E+03  0.89553426613E+03  0.00000000000E+00 0. -1.
        -16    1    4    4    0    0 -0.46533964580E+03 -0.19996293063E+02 -0.10870412101E+02  0.46589591493E+03  0.00000000000E+00 0.  1.
         16    1    1    2    0    0  0.35939192656E+03 -0.10260321150E+03  0.20094764176E+03  0.42434647473E+03  0.00000000000E+00 0. -1.
    9900018    1    1    2    0    0  0.78760191461E+02 -0.58757975191E+02  0.11760333386E+02  0.13457024650E+03  0.91187600000E+02 0.  0.
<mgrwt>
<rscale>  0 0.28711428E+04</rscale>
<asrwt>0</asrwt>
<pdfrwt beam="1">  1        2 0.17907698E+00 0.28711428E+04</pdfrwt>
<pdfrwt beam="2">  1       -2 0.27238496E+00 0.28711428E+04</pdfrwt>
<totfact> 0.80723033E-01</totfact>
</mgrwt>
</event>
<event>
10    1  0.1431252E-009  0.3121121E+04  0.7818608E-02  0.8209965E-01
         -2   -1    0    0    0  501 -0.00000000000E+00  0.00000000000E+00  0.82995596844E+03  0.82995596844E+03  0.00000000000E+00 0.  1.
          2   -1    0    0  501    0  0.00000000000E+00 -0.00000000000E+00 -0.29343112446E+04  0.29343112446E+04  0.00000000000E+00 0. -1.
    9900016    2    1    2    0    0 -0.44832142200E+03  0.23850961558E+03 -0.12285395575E+04  0.25729734202E+04  0.22029534363E+04 0.  0.
        -15    1    3    3    0    0 -0.19614205474E+03  0.55859505841E+03  0.29342258395E+03  0.66075483933E+03  0.00000000000E+00 0.  1.
        -15    1    3    3    0    0  0.29026568826E+03 -0.28213058864E+01 -0.20138931634E+03  0.35329843799E+03  0.00000000000E+00 0.  1.
         15    1    3    3    0    0 -0.43239698174E+03  0.57975893677E+02 -0.66557470956E+03  0.79581282226E+03  0.00000000000E+00 0. -1.
         15    1    3    3    0    0 -0.98958167247E+02 -0.34596317375E+03 -0.59257966985E+03  0.69327765114E+03  0.00000000000E+00 0. -1.
        -16    1    3    3    0    0 -0.11089906541E+02 -0.29276856875E+02 -0.62418445698E+02  0.69829669475E+02  0.00000000000E+00 0.  1.
         16    1    1    2    0    0  0.62942762557E+02 -0.20725586074E+03 -0.74065590238E+03  0.77167865650E+03  0.00000000000E+00 0. -1.
    9900018    1    1    2    0    0  0.38537865944E+03 -0.31253754836E+02 -0.13515981631E+03  0.41961513639E+03  0.91187600000E+02 0.  0.
<mgrwt>
<rscale>  0 0.31211210E+04</rscale>
<asrwt>0</asrwt>
<pdfrwt beam="1">  1        2 0.45143250E+00 0.31211210E+04</pdfrwt>
<pdfrwt beam="2">  1       -2 0.12768553E+00 0.31211210E+04</pdfrwt>
<totfact> 0.73657243E-01</totfact>
</mgrwt>
</event>
<event>
11    1  0.1431252E-009  0.3807812E+04  0.7818608E-02  0.8044480E-01
         -2   -1    0    0    0  501 -0.00000000000E+00  0.00000000000E+00  0.22456970541E+04  0.22456970541E+04  0.00000000000E+00 0.  1.
          2   -1    0    0  501    0  0.00000000000E+00 -0.00000000000E+00 -0.16141352687E+04  0.16141352687E+04  0.00000000000E+00 0. -1.
    9900016    2    1    2    0    0  0.52305512254E+03 -0.18043751774E+03  0.30171533734E+03  0.22810954584E+04  0.21923092817E+04 0.  0.
        -24    2    3    3    0    0  0.48911211214E-01 -0.53732607865E+03 -0.22663972209E+02  0.54784779344E+03  0.10442333048E+03 0.  0.
        -15    1    3    3    0    0  0.15803803371E+03 -0.19685292107E+03 -0.94474285533E+02  0.26954124593E+03  0.00000000000E+00 0.  1.
        -15    1    3    3    0    0  0.45369627457E+03 -0.67589714013E+02  0.64940257266E+03  0.79506753196E+03  0.00000000000E+00 0.  1.
         15    1    3    3    0    0 -0.88728096955E+02  0.62133119599E+03 -0.23054897759E+03  0.66863888711E+03  0.00000000000E+00 0. -1.
         15    1    4    4    0    0  0.13416612425E+01 -0.73580552930E+02  0.33224208733E+02  0.80744943311E+02  0.00000000000E+00 0. -1.
        -16    1    4    4    0    0 -0.12927500313E+01 -0.46374552572E+03 -0.55888180941E+02  0.46710285013E+03  0.00000000000E+00 0.  1.
         16    1    1    2    0    0 -0.36697063571E+03  0.20523105591E+03 -0.54315002124E+03  0.68687639307E+03  0.00000000000E+00 0. -1.
    9900018    1    1    2    0    0 -0.15608448683E+03 -0.24793538168E+02  0.87299646930E+03  0.89186047136E+03  0.91187600000E+02 0.  0.
<mgrwt>
<rscale>  0 0.38078124E+04</rscale>
<asrwt>0</asrwt>
<pdfrwt beam="1">  1        2 0.24832850E+00 0.38078124E+04</pdfrwt>
<pdfrwt beam="2">  1       -2 0.34549186E+00 0.38078124E+04</pdfrwt>
<totfact> 0.14569590E-01</totfact>
</mgrwt>
</event>
<event>
11    1  0.1431252E-009  0.3019749E+04  0.7818608E-02  0.8238114E-01
          1   -1    0    0  501    0  0.00000000000E+00  0.00000000000E+00  0.30879305803E+04  0.30879305803E+04  0.00000000000E+00 0. -1.
         -1   -1    0    0    0  501 -0.00000000000E+00 -0.00000000000E+00 -0.73826832925E+03  0.73826832925E+03  0.00000000000E+00 0.  1.
    9900016    2    1    2    0    0  0.11404814076E+03  0.88028039008E+02  0.20426585066E+04  0.30071251993E+04  0.22021789835E+04 0.  0.
         24    2    3    3    0    0  0.22462066083E+03  0.63022280546E+03  0.91406238668E+03  0.11346168134E+04  0.64884826167E+02 0.  0.
        -15    1    3    3    0    0 -0.10104321133E+02  0.47833877226E+02 -0.14421053479E+03  0.15227230694E+03  0.00000000000E+00 0.  1.
        -15    1    4    4    0    0  0.10377555369E+03  0.23636200700E+03  0.30943409011E+03  0.40297123969E+03  0.00000000000E+00 0.  1.
         15    1    3    3    0    0  0.21835303134E+03  0.12554350605E+03  0.33493135139E+02  0.25408858359E+03  0.00000000000E+00 0. -1.
         15    1    3    3    0    0 -0.31882123028E+03 -0.71557214973E+03  0.12393135196E+04  0.14661474954E+04  0.00000000000E+00 0. -1.
        -16    1    1    2    0    0  0.75729789534E+02 -0.14816053714E+03 -0.20392790712E+03  0.26319790480E+03  0.00000000000E+00 0.  1.
         16    1    4    4    0    0  0.12084510714E+03  0.39386079846E+03  0.60462829657E+03  0.73164557369E+03  0.00000000000E+00 0. -1.
    9900018    1    1    2    0    0 -0.18977793029E+03  0.60132498134E+02  0.51093165152E+03  0.55587580545E+03  0.91187600000E+02 0.  0.
<mgrwt>
<rscale>  0 0.30197492E+04</rscale>
<asrwt>0</asrwt>
<pdfrwt beam="1">  1        1 0.47506624E+00 0.30197492E+04</pdfrwt>
<pdfrwt beam="2">  1       -1 0.11357974E+00 0.30197492E+04</pdfrwt>
<totfact> 0.30925483E-01</totfact>
</mgrwt>
</event>
<event>
10    1  0.1431252E-009  0.2853034E+04  0.7818608E-02  0.8286990E-01
          2   -1    0    0  501    0  0.00000000000E+00  0.00000000000E+00  0.17437846895E+04  0.17437846895E+04  0.00000000000E+00 0. -1.
         -2   -1    0    0    0  501 -0.00000000000E+00 -0.00000000000E+00 -0.11669739744E+04  0.11669739744E+04  0.00000000000E+00 0.  1.
    9900016    2    1    2    0    0  0.14474443959E+03  0.42471543311E+03  0.36895539768E+03  0.22615837280E+04  0.21857032555E+04 0.  0.
        -15    1    3    3    0    0 -0.13847857267E+03 -0.41982903967E+02  0.25385879544E+02  0.14691263456E+03  0.00000000000E+00 0.  1.
        -15    1    3    3    0    0  0.40771588937E+03  0.69010056199E+03 -0.46127690730E+03  0.92479587872E+03  0.00000000000E+00 0.  1.
         15    1    3    3    0    0 -0.26939528436E+03  0.10184896084E+03  0.77951985491E+03  0.83102240298E+03  0.00000000000E+00 0. -1.
         15    1    3    3    0    0  0.99339361110E+02 -0.22024578508E+03  0.34310314904E+02  0.24403629284E+03  0.00000000000E+00 0. -1.
        -16    1    3    3    0    0  0.45563046140E+02 -0.10500540066E+03 -0.89837443767E+01  0.11481651887E+03  0.00000000000E+00 0.  1.
         16    1    1    2    0    0 -0.25781047739E+03 -0.37316198914E+03  0.19750191830E+03  0.49469497685E+03  0.00000000000E+00 0. -1.
    9900018    1    1    2    0    0  0.11306603780E+03 -0.51553443971E+02  0.10353399184E+02  0.15447995908E+03  0.91187600000E+02 0.  0.
<mgrwt>
<rscale>  0 0.28530344E+04</rscale>
<asrwt>0</asrwt>
<pdfrwt beam="1">  1        2 0.26827457E+00 0.28530344E+04</pdfrwt>
<pdfrwt beam="2">  1       -2 0.17953446E+00 0.28530344E+04</pdfrwt>
<totfact> 0.14677007E+00</totfact>
</mgrwt>
</event>
<event>
11    1  0.1431252E-009  0.2909833E+04  0.7818608E-02  0.8269958E-01
          2   -1    0    0  501    0  0.00000000000E+00  0.00000000000E+00  0.22028408472E+04  0.22028408472E+04  0.00000000000E+00 0.  1.
         -2   -1    0    0    0  501 -0.00000000000E+00 -0.00000000000E+00 -0.96093286441E+03  0.96093286441E+03  0.00000000000E+00 0. -1.
    9900016    2    1    2    0    0 -0.41235143742E+03 -0.28970036165E+03  0.72885052945E+03  0.23594162736E+04  0.21867011800E+04 0.  0.
        -24    2    3    3    0    0  0.35598475480E+03  0.17627097236E+03  0.60347033456E+03  0.72842944159E+03  0.92932262066E+02 0.  0.
        -15    1    3    3    0    0 -0.85379393411E+02 -0.30512978700E+03  0.39868378943E+03  0.50925690147E+03  0.00000000000E+00 0.  1.
        -15    1    3    3    0    0 -0.93812413174E+02 -0.35712825027E+03 -0.33386327430E+03  0.49780120724E+03  0.00000000000E+00 0.  1.
         15    1    4    4    0    0  0.68324360982E+02 -0.39049510499E+01  0.95402952545E+02  0.11741035006E+03  0.00000000000E+00 0. -1.
         15    1    3    3    0    0 -0.58914438564E+03  0.19628670326E+03  0.60559679765E+02  0.62392872335E+03  0.00000000000E+00 0. -1.
        -16    1    4    4    0    0  0.28766039382E+03  0.18017592341E+03  0.50806738201E+03  0.61101909153E+03  0.00000000000E+00 0.  1.
         16    1    1    2    0    0  0.34400195311E+03  0.95248378279E+02  0.17367940849E+03  0.39695608603E+03  0.00000000000E+00 0. -1.
    9900018    1    1    2    0    0  0.68349484315E+02  0.19445198337E+03  0.33937804490E+03  0.40740135198E+03  0.91187600000E+02 0.  0.
<mgrwt>
<rscale>  0 0.29098331E+04</rscale>
<asrwt>0</asrwt>
<pdfrwt beam="1">  1        2 0.33889859E+00 0.29098331E+04</pdfrwt>
<pdfrwt beam="2">  1       -2 0.14783583E+00 0.29098331E+04</pdfrwt>
<totfact> 0.13814382E+00</totfact>
</mgrwt>
</event>
<event>
10    1  0.1431252E-009  0.2544388E+04  0.7818608E-02  0.8387341E-01
         -2   -1    0    0    0  501 -0.00000000000E+00  0.00000000000E+00  0.16551683152E+04  0.16551683152E+04  0.00000000000E+00 0.  1.
          2   -1    0    0  501    0  0.00000000000E+00 -0.00000000000E+00 -0.97783254113E+03  0.97783254113E+03  0.00000000000E+00 0. -1.
    9900016    2    1    2    0    0  0.20170990787E+03 -0.58651389620E+02  0.64329696330E+03  0.23047986232E+04  0.22032110290E+04 0.  0.
        -15    1    3    3    0    0  0.35432357081E+02 -0.95594973129E+02  0.10379680120E+03  0.14549098513E+03  0.00000000000E+00 0.  1.
        -15    1    3    3    0    0  0.58540282904E+03 -0.16120095944E+03  0.66156094161E+03  0.89796720488E+03  0.00000000000E+00 0.  1.
         15    1    3    3    0    0 -0.15659847065E+03  0.94591055366E+01 -0.60314182711E+03  0.62321153655E+03  0.00000000000E+00 0. -1.
         15    1    3    3    0    0 -0.29494805252E+03  0.22415807302E+03  0.43723593510E+03  0.57307631108E+03  0.00000000000E+00 0. -1.
        -16    1    1    2    0    0 -0.14132227814E+03 -0.60370424862E+02  0.59061005248E+02  0.16463528430E+03  0.00000000000E+00 0.  1.
         16    1    3    3    0    0  0.32421244917E+02 -0.35472635602E+02  0.43845112496E+02  0.65052585562E+02  0.00000000000E+00 0. -1.
    9900018    1    1    2    0    0 -0.60387629731E+02  0.11902181448E+03 -0.25022194441E+02  0.16356694885E+03  0.91187600000E+02 0.  0.
<mgrwt>
<rscale>  0 0.25443879E+04</rscale>
<asrwt>0</asrwt>
<pdfrwt beam="1">  1        2 0.15043578E+00 0.25443879E+04</pdfrwt>
<pdfrwt beam="2">  1       -2 0.25464128E+00 0.25443879E+04</pdfrwt>
<totfact> 0.13920136E+00</totfact>
</mgrwt>
</event>
<event>
10    1  0.1431252E-009  0.2652826E+04  0.7818608E-02  0.8350476E-01
         -2   -1    0    0    0  501 -0.00000000000E+00  0.00000000000E+00  0.96470980925E+03  0.96470980925E+03  0.00000000000E+00 0. -1.
          2   -1    0    0  501    0  0.00000000000E+00 -0.00000000000E+00 -0.18237307101E+04  0.18237307101E+04  0.00000000000E+00 0.  1.
    9900016    2    1    2    0    0 -0.56407085070E+02  0.12777642149E+03 -0.94650711098E+03  0.23834174977E+04  0.21829554930E+04 0.  0.
        -15    1    3    3    0    0 -0.13661332025E+03 -0.67427319650E+03 -0.75183812448E+03  0.10191016182E+04  0.00000000000E+00 0.  1.
        -15    1    3    3    0    0 -0.16001790705E+03  0.40550932050E+03 -0.63802765472E+02  0.44058408105E+03  0.00000000000E+00 0.  1.
         15    1    3    3    0    0  0.12410007892E+03  0.19741323591E+03 -0.26586724175E+02  0.23469058183E+03  0.00000000000E+00 0. -1.
         15    1    3    3    0    0 -0.15004149363E+03 -0.16220287929E+03 -0.94060475946E+02  0.24014494997E+03  0.00000000000E+00 0. -1.
        -16    1    3    3    0    0  0.26616555694E+03  0.36132994087E+03 -0.10219020901E+02  0.44889626670E+03  0.00000000000E+00 0.  1.
         16    1    1    2    0    0 -0.53632012652E+02  0.16573207787E+01  0.18239019000E+03  0.19011922812E+03  0.00000000000E+00 0. -1.
    9900018    1    1    2    0    0  0.11003909772E+03 -0.12943374226E+03 -0.94903979841E+02  0.21490379347E+03  0.91187600000E+02 0.  0.
<mgrwt>
<rscale>  0 0.26528256E+04</rscale>
<asrwt>0</asrwt>
<pdfrwt beam="1">  1        2 0.28057395E+00 0.26528256E+04</pdfrwt>
<pdfrwt beam="2">  1       -2 0.14841689E+00 0.26528256E+04</pdfrwt>
<totfact> 0.22721841E+00</totfact>
</mgrwt>
</event>
<event>
11    1  0.1431252E-009  0.3644525E+04  0.7818608E-02  0.8080368E-01
          1   -1    0    0  501    0  0.00000000000E+00  0.00000000000E+00  0.46378352256E+04  0.46378352256E+04  0.00000000000E+00 0. -1.
         -1   -1    0    0    0  501 -0.00000000000E+00 -0.00000000000E+00 -0.71598949274E+03  0.71598949274E+03  0.00000000000E+00 0.  1.
    9900016    2    1    2    0    0 -0.71852739663E+03  0.27675529428E+03  0.25671544431E+04  0.34659978878E+04  0.21977225282E+04 0.  0.
         24    2    3    3    0    0 -0.93318657865E+03  0.17842385232E+03  0.15692010487E+04  0.18355727385E+04  0.65292309427E+02 0.  0.
        -15    1    4    4    0    0 -0.32886610045E+03  0.94761107956E+02  0.56520566476E+03  0.66074959181E+03  0.00000000000E+00 0.  1.
        -15    1    3    3    0    0  0.58044229421E+02  0.10948871920E+03  0.84364091729E+02  0.14991401593E+03  0.00000000000E+00 0.  1.
         15    1    3    3    0    0  0.58924918159E+03  0.25931449242E+03  0.60953328216E+03  0.88656044692E+03  0.00000000000E+00 0. -1.
         15    1    3    3    0    0 -0.43263422899E+03 -0.27047176966E+03  0.30405602058E+03  0.59395068645E+03  0.00000000000E+00 0. -1.
        -16    1    1    2    0    0  0.91690414288E+03 -0.37207218230E+03  0.13159392089E+04  0.16464649761E+04  0.00000000000E+00 0.  1.
         16    1    4    4    0    0 -0.60432047820E+03  0.83662744360E+02  0.10039953839E+04  0.11748231467E+04  0.00000000000E+00 0. -1.
    9900018    1    1    2    0    0 -0.19837674625E+03  0.95316888024E+02  0.38752080848E+02  0.24136185440E+03  0.91187600000E+02 0.  0.
<mgrwt>
<rscale>  0 0.36445254E+04</rscale>
<asrwt>0</asrwt>
<pdfrwt beam="1">  1        1 0.71351309E+00 0.36445254E+04</pdfrwt>
<pdfrwt beam="2">  1       -1 0.11015223E+00 0.36445254E+04</pdfrwt>
<totfact> 0.14057959E-02</totfact>
</mgrwt>
</event>
<event>
11    1  0.1431252E-009  0.3420961E+04  0.7818608E-02  0.8132781E-01
          2   -1    0    0  501    0  0.00000000000E+00  0.00000000000E+00  0.21071529543E+04  0.21071529543E+04  0.00000000000E+00 0. -1.
         -2   -1    0    0    0  501 -0.00000000000E+00 -0.00000000000E+00 -0.13884817785E+04  0.13884817785E+04  0.00000000000E+00 0.  1.
    9900016    2    1    2    0    0 -0.17132451002E+03 -0.52807583886E+03  0.65684367069E+03  0.23536539183E+04  0.21908963874E+04 0.  0.
         24    2    3    3    0    0  0.48553037840E+02 -0.76220124546E+03 -0.38272584075E+03  0.85596800898E+03  0.53796163134E+02 0.  0.
        -15    1    4    4    0    0 -0.52666569779E+01 -0.31986402683E+03 -0.15212349201E+03  0.35423479524E+03  0.00000000000E+00 0.  1.
        -15    1    3    3    0    0 -0.24896627886E+03 -0.13389069125E+03  0.22259485526E+03  0.35980466200E+03  0.00000000000E+00 0.  1.
         15    1    3    3    0    0  0.63816783045E+01  0.54111584270E+03  0.36334907912E+03  0.65182024696E+03  0.00000000000E+00 0. -1.
         15    1    3    3    0    0  0.22707052693E+02 -0.17309974486E+03  0.45362557706E+03  0.48606100036E+03  0.00000000000E+00 0. -1.
        -16    1    1    2    0    0  0.20013265019E+03  0.75932756741E+03 -0.16707577555E+03  0.80283606489E+03  0.00000000000E+00 0.  1.
         16    1    4    4    0    0  0.53819694818E+02 -0.44233721863E+03 -0.23060234874E+03  0.50173321375E+03  0.00000000000E+00 0. -1.
    9900018    1    1    2    0    0 -0.28808140174E+02 -0.23125172855E+03  0.22890328068E+03  0.33914474963E+03  0.91187600000E+02 0.  0.
<mgrwt>
<rscale>  0 0.34209610E+04</rscale>
<asrwt>0</asrwt>
<pdfrwt beam="1">  1        2 0.32417738E+00 0.34209610E+04</pdfrwt>
<pdfrwt beam="2">  1       -2 0.21361258E+00 0.34209610E+04</pdfrwt>
<totfact> 0.52267526E-01</totfact>
</mgrwt>
</event>
