<event>
12    1  0.4041632E-011  0.1561267E+04  0.7818608E-02  0.9234588E-01
          2   -1    0    0  501    0  0.00000000000E+00  0.00000000000E+00  0.46276487804E+03  0.46276487804E+03  0.00000000000E+00 0. -1.
         -2   -1    0    0    0  501 -0.00000000000E+00 -0.00000000000E+00 -0.21241735695E+04  0.21241735695E+04  0.00000000000E+00 0.  1.
         23    2    1    2    0    0  0.31780691457E+03 -0.82648975340E+02 -0.62234952430E+03  0.71151848129E+03  0.10539227081E+03 0.  0.
    9900016    2    1    2    0    0 -0.18582812292E+03 -0.50618022708E+02 -0.92384077497E+03  0.11872973141E+04  0.72048515535E+03 0.  0.
         23    2    4    4    0    0  0.27116785181E+02 -0.33366453788E+03 -0.25386664098E+03  0.42945418795E+03  0.88967883372E+02 0.  0.
        -15    1    5    5    0    0  0.57270755082E+02 -0.15923037903E+03 -0.13033245074E+03  0.21359026361E+03  0.00000000000E+00 0.  1.
        -15    1    3    3    0    0  0.47012575448E+02 -0.16783039101E+02 -0.33696165182E+02  0.60226939153E+02  0.00000000000E+00 0. -1.
         15    1    5    5    0    0 -0.30153969900E+02 -0.17443415885E+03 -0.12353419024E+03  0.21586392434E+03  0.00000000000E+00 0. -1.
         15    1    3    3    0    0  0.27079433913E+03 -0.65865936239E+02 -0.58865335912E+03  0.65129154214E+03  0.00000000000E+00 0.  1.
        -16    1    4    4    0    0 -0.21294490810E+03  0.28304651517E+03 -0.66997413399E+03  0.75784312615E+03  0.00000000000E+00 0.  1.
         16    1    1    2    0    0 -0.55158463625E+01  0.11604932922E+03  0.25817957078E+03  0.28311581047E+03  0.00000000000E+00 0. -1.
    9900018    1    1    2    0    0 -0.12646294530E+03  0.17217668834E+02 -0.37339796294E+03  0.40500684163E+03  0.91187600000E+02 0.  0.
<mgrwt>
<rscale>  0 0.10703450E+04</rscale>
<asrwt>0</asrwt>
<pdfrwt beam="1">  1        2 0.71194599E-01 0.15612675E+04</pdfrwt>
<pdfrwt beam="2">  1       -2 0.32679592E+00 0.15612675E+04</pdfrwt>
<totfact> 0.14033180E+00</totfact>
</mgrwt>
</event>
<event>
12    1  0.4041632E-011  0.3048726E+04  0.7818608E-02  0.8646044E-01
         -1   -1    0    0    0  501 -0.00000000000E+00  0.00000000000E+00  0.94873755787E+03  0.94873755787E+03  0.00000000000E+00 0.  1.
          1   -1    0    0  501    0  0.00000000000E+00 -0.00000000000E+00 -0.33148150973E+04  0.33148150973E+04  0.00000000000E+00 0. -1.
         23    2    1    2    0    0 -0.43166630724E+03  0.16361340754E+03 -0.48861487270E+03  0.68310658404E+03  0.12159343487E+03 0.  0.
    9900016    2    1    2    0    0  0.74020142210E+03 -0.27850911229E+03  0.30687986143E+03  0.10951297844E+04  0.69258105975E+03 0.  0.
         23    2    4    4    0    0  0.46344984688E+03  0.13761956366E+03 -0.28919909624E+02  0.49303677196E+03  0.92325470292E+02 0.  0.
        -15    1    3    3    0    0 -0.24818142154E+03  0.13864817601E+03 -0.23358272070E+03  0.36793779653E+03  0.00000000000E+00 0.  1.
        -15    1    5    5    0    0  0.35636204047E+03  0.64012313634E+02 -0.27103370446E+02  0.36307860427E+03  0.00000000000E+00 0. -1.
         15    1    3    3    0    0 -0.18348488570E+03  0.24965231530E+02 -0.25503215200E+03  0.31516878751E+03  0.00000000000E+00 0. -1.
         15    1    5    5    0    0  0.10708780640E+03  0.73607250025E+02 -0.18165391781E+01  0.12995816769E+03  0.00000000000E+00 0.  1.
        -16    1    4    4    0    0  0.27675157522E+03 -0.41612867595E+03  0.33579977106E+03  0.60209301239E+03  0.00000000000E+00 0.  1.
         16    1    1    2    0    0 -0.45112057155E+03  0.12271415786E+03 -0.22541109488E+04  0.23020826884E+04  0.00000000000E+00 0. -1.
    9900018    1    1    2    0    0  0.14258545669E+03 -0.78184531141E+01  0.69768420639E+02  0.18323359840E+03  0.91187600000E+02 0.  0.
<mgrwt>
<rscale>  0 0.19178050E+04</rscale>
<asrwt>0</asrwt>
<pdfrwt beam="1">  1        1 0.50997156E+00 0.30487256E+04</pdfrwt>
<pdfrwt beam="2">  1       -1 0.14595962E+00 0.30487256E+04</pdfrwt>
<totfact> 0.10901394E-01</totfact>
</mgrwt>
</event>
<event>
12    1  0.4041632E-011  0.1880854E+04  0.7818608E-02  0.9097531E-01
          2   -1    0    0  501    0  0.00000000000E+00  0.00000000000E+00  0.35714405037E+04  0.35714405037E+04  0.00000000000E+00 0. -1.
         -2   -1    0    0    0  501 -0.00000000000E+00 -0.00000000000E+00 -0.36988253478E+03  0.36988253478E+03  0.00000000000E+00 0.  1.
         23    2    1    2    0    0  0.10169890610E+03 -0.29558920370E+03  0.95962223553E+03  0.10149106616E+04  0.10701948991E+03 0.  0.
    9900016    2    1    2    0    0 -0.14875367682E+03 -0.19385438566E+03  0.53001467563E+03  0.92047963669E+03  0.71180055210E+03 0.  0.
         23    2    4    4    0    0 -0.21048597072E+02  0.19024129134E+03  0.46440702611E+03  0.51042788366E+03  0.90708026949E+02 0.  0.
        -15    1    5    5    0    0 -0.20886022817E+02  0.14555567594E+03  0.23883673433E+03  0.28047400309E+03  0.00000000000E+00 0.  1.
        -15    1    3    3    0    0  0.13112482623E+02 -0.56448957935E+02  0.33929310112E+03  0.34420666833E+03  0.00000000000E+00 0. -1.
         15    1    5    5    0    0 -0.16257425543E+00  0.44685615394E+02  0.22557029178E+03  0.22995388057E+03  0.00000000000E+00 0. -1.
         15    1    3    3    0    0  0.88586423480E+02 -0.23914024577E+03  0.62032913441E+03  0.67070399325E+03  0.00000000000E+00 0.  1.
        -16    1    4    4    0    0 -0.12770507975E+03 -0.38409567700E+03  0.65607649518E+02  0.41005175303E+03  0.00000000000E+00 0.  1.
         16    1    1    2    0    0  0.23901007007E+03  0.42507843021E+03  0.17158973417E+04  0.17838500982E+04  0.00000000000E+00 0. -1.
    9900018    1    1    2    0    0 -0.19195529935E+03  0.64365159158E+02 -0.39762839708E+01  0.22208264203E+03  0.91187600000E+02 0.  0.
<mgrwt>
<rscale>  0 0.12176675E+04</rscale>
<asrwt>0</asrwt>
<pdfrwt beam="1">  1        2 0.54945236E+00 0.18808545E+04</pdfrwt>
<pdfrwt beam="2">  1       -2 0.56905008E-01 0.18808545E+04</pdfrwt>
<totfact> 0.19667270E+00</totfact>
</mgrwt>
</event>
<event>
12    1  0.4041632E-011  0.1046688E+04  0.7818608E-02  0.9666506E-01
          2   -1    0    0  501    0  0.00000000000E+00  0.00000000000E+00  0.11212060201E+04  0.11212060201E+04  0.00000000000E+00 0. -1.
         -2   -1    0    0    0  501 -0.00000000000E+00 -0.00000000000E+00 -0.41248534316E+03  0.41248534316E+03  0.00000000000E+00 0.  1.
         23    2    1    2    0    0 -0.15110818438E+03 -0.16088178467E+03 -0.33527340688E+02  0.25053567437E+03  0.11369876663E+03 0.  0.
    9900016    2    1    2    0    0  0.12039236513E+03  0.10799218449E+03  0.69875338491E+03  0.10388433077E+04  0.75152012054E+03 0.  0.
         23    2    4    4    0    0  0.14084527003E+02  0.38764299799E+03  0.60664869177E+03  0.72581102753E+03  0.91178641461E+02 0.  0.
        -15    1    5    5    0    0  0.46019419912E+02  0.13761986254E+03  0.25046533569E+03  0.28946484753E+03  0.00000000000E+00 0.  1.
        -15    1    3    3    0    0 -0.96654066067E+02 -0.15237748311E+03 -0.58962509290E+02  0.18983541121E+03  0.00000000000E+00 0.  1.
         15    1    5    5    0    0 -0.31934892909E+02  0.25002313546E+03  0.35618335608E+03  0.43634618000E+03  0.00000000000E+00 0. -1.
         15    1    3    3    0    0 -0.54454118311E+02 -0.85043015567E+01  0.25435168602E+02  0.60700263161E+02  0.00000000000E+00 0. -1.
        -16    1    4    4    0    0  0.10630783812E+03 -0.27965081351E+03  0.92104693135E+02  0.31303228019E+03  0.00000000000E+00 0.  1.
         16    1    1    2    0    0  0.35631960068E+02  0.85671557821E+02  0.96400727872E+02  0.13379967389E+03  0.00000000000E+00 0. -1.
    9900018    1    1    2    0    0 -0.49161408157E+01 -0.32781957639E+02 -0.52906095118E+02  0.11051270733E+03  0.91187600000E+02 0.  0.
<mgrwt>
<rscale>  0 0.73046501E+03</rscale>
<asrwt>0</asrwt>
<pdfrwt beam="1">  1        2 0.17249323E+00 0.10466883E+04</pdfrwt>
<pdfrwt beam="2">  1       -2 0.63459284E-01 0.10466883E+04</pdfrwt>
<totfact> 0.48292197E+01</totfact>
</mgrwt>
</event>
