<event>
12    1  0.4008156E-011  0.4130509E+04  0.7818608E-02  0.8315495E-01
          2   -1    0    0  501    0  0.00000000000E+00  0.00000000000E+00  0.43348611612E+04  0.43348611612E+04  0.00000000000E+00 0. -1.
         -2   -1    0    0    0  501 -0.00000000000E+00 -0.00000000000E+00 -0.14246909780E+04  0.14246909780E+04  0.00000000000E+00 0.  1.
         24    2    1    2    0    0 -0.19008985524E+03 -0.79838372045E+03  0.32227981445E+03  0.88530575300E+03  0.79694914277E+02 0.  0.
    9900016    2    1    2    0    0  0.96566421621E+03 -0.95698177841E+01  0.68019060957E+02  0.20620165934E+04  0.18206281551E+04 0.  0.
        -24    2    4    4    0    0 -0.21521156105E+03  0.64516992557E+03 -0.13116787712E+03  0.69716232680E+03  0.79183641278E+02 0.  0.
        -15    1    4    4    0    0  0.11808757773E+04 -0.65473974336E+03  0.19918693808E+03  0.13648542666E+04  0.00000000000E+00 0.  1.
        -15    1    3    3    0    0 -0.19088236488E+03 -0.76332338302E+03  0.29297035544E+03  0.83960127051E+03  0.00000000000E+00 0.  1.
         15    1    1    2    0    0 -0.77388810398E+03  0.54259618966E+03  0.21447911139E+04  0.23438093662E+04  0.00000000000E+00 0. -1.
         15    1    5    5    0    0 -0.99648347442E+02  0.29575340293E+03 -0.20096090477E+02  0.31273586514E+03  0.00000000000E+00 0. -1.
        -16    1    5    5    0    0 -0.11556321361E+03  0.34941652265E+03 -0.11107178664E+03  0.38442646166E+03  0.00000000000E+00 0.  1.
         16    1    3    3    0    0  0.79250963963E+00 -0.35060337428E+02  0.29309459010E+02  0.45704482489E+02  0.00000000000E+00 0. -1.
    9900018    1    1    2    0    0 -0.16862569905E+01  0.26535734857E+03  0.37508019384E+03  0.46842042666E+03  0.91187600000E+02 0.  0.
<mgrwt>
<rscale>  0 0.27609497E+04</rscale>
<asrwt>0</asrwt>
<pdfrwt beam="1">  1        2 0.66690171E+00 0.41305086E+04</pdfrwt>
<pdfrwt beam="2">  1       -2 0.21918323E+00 0.41305086E+04</pdfrwt>
<totfact> 0.13323043E-02</totfact>
</mgrwt>
</event>
<event>
12    1  0.4008156E-011  0.2593793E+04  0.7818608E-02  0.8602381E-01
          2   -1    0    0  501    0  0.00000000000E+00  0.00000000000E+00  0.27983296441E+04  0.27983296441E+04  0.00000000000E+00 0. -1.
         -2   -1    0    0    0  501 -0.00000000000E+00 -0.00000000000E+00 -0.13352904883E+04  0.13352904883E+04  0.00000000000E+00 0.  1.
         24    2    1    2    0    0 -0.63250734002E+03 -0.68205738690E+03 -0.31898394827E+03  0.98665849827E+03  0.80476199883E+02 0.  0.
    9900016    2    1    2    0    0  0.38449138504E+03  0.17474035105E+03  0.13259436685E+04  0.23004301708E+04  0.18317981720E+04 0.  0.
        -24    2    4    4    0    0  0.89449031416E+03 -0.41311621865E+03  0.11231566046E+04  0.14961933602E+04  0.79598243989E+02 0.  0.
        -15    1    3    3    0    0 -0.19786143521E+03 -0.17384510194E+03 -0.64682890974E+02  0.27121051491E+03  0.00000000000E+00 0.  1.
        -15    1    4    4    0    0 -0.50999892912E+03  0.58785656969E+03  0.20278706398E+03  0.80423681062E+03  0.00000000000E+00 0.  1.
         15    1    5    5    0    0  0.52115012297E+03 -0.24800294864E+03  0.59874930429E+03  0.83162710549E+03  0.00000000000E+00 0. -1.
         15    1    1    2    0    0  0.31785382653E+03  0.19474111716E+03  0.17994276746E+03  0.41392578721E+03  0.00000000000E+00 0. -1.
        -16    1    5    5    0    0  0.37334019119E+03 -0.16511327001E+03  0.52440730028E+03  0.66456625469E+03  0.00000000000E+00 0.  1.
         16    1    3    3    0    0 -0.43464590480E+03 -0.50821228496E+03 -0.25430105729E+03  0.71544798336E+03  0.00000000000E+00 0. -1.
    9900018    1    1    2    0    0 -0.69837871555E+02  0.31257591869E+03  0.27613666806E+03  0.43260567621E+03  0.91187600000E+02 0.  0.
<mgrwt>
<rscale>  0 0.20090935E+04</rscale>
<asrwt>0</asrwt>
<pdfrwt beam="1">  1        2 0.43051225E+00 0.25937928E+04</pdfrwt>
<pdfrwt beam="2">  1       -2 0.20542931E+00 0.25937928E+04</pdfrwt>
<totfact> 0.24255959E-01</totfact>
</mgrwt>
</event>
<event>
12    1  0.4008156E-011  0.4094033E+04  0.7818608E-02  0.8538828E-01
         -1   -1    0    0    0  501 -0.00000000000E+00  0.00000000000E+00  0.20282746849E+04  0.20282746849E+04  0.00000000000E+00 0.  1.
          1   -1    0    0  501    0  0.00000000000E+00 -0.00000000000E+00 -0.25240585614E+04  0.25240585614E+04  0.00000000000E+00 0. -1.
        -24    2    1    2    0    0  0.28399322184E+03 -0.10262709125E+03 -0.33083014614E+03  0.45497837250E+03  0.79826461418E+02 0.  0.
    9900016    2    1    2    0    0  0.73336572693E+02 -0.33210464660E+03 -0.86470507842E+03  0.20804770933E+04  0.18614505940E+04 0.  0.
         24    2    4    4    0    0  0.58526533624E+03  0.25194586752E+03  0.27712882496E+03  0.69954598532E+03  0.80944215265E+02 0.  0.
        -15    1    1    2    0    0 -0.54258447038E+03  0.61206149954E+03  0.11971436441E+04  0.14498862339E+04  0.00000000000E+00 0.  1.
        -15    1    5    5    0    0  0.79313534043E+02  0.53567995521E+02  0.17640905552E+02  0.97320955478E+02  0.00000000000E+00 0.  1.
         15    1    4    4    0    0 -0.51192876355E+03 -0.58405051412E+03 -0.11418339034E+04  0.13809311080E+04  0.00000000000E+00 0. -1.
         15    1    3    3    0    0  0.10720840347E+03 -0.51560578813E+02 -0.77920601516E+02  0.14221024999E+03  0.00000000000E+00 0. -1.
        -16    1    3    3    0    0  0.17678481837E+03 -0.51066512436E+02 -0.25290954462E+03  0.31276812251E+03  0.00000000000E+00 0.  1.
         16    1    5    5    0    0  0.50595180220E+03  0.19837787200E+03  0.25948791941E+03  0.60222502984E+03  0.00000000000E+00 0. -1.
    9900018    1    1    2    0    0  0.18525467585E+03 -0.17732976169E+03 -0.49739229609E+03  0.56699154660E+03  0.91187600000E+02 0.  0.
<mgrwt>
<rscale>  0 0.21516453E+04</rscale>
<asrwt>0</asrwt>
<pdfrwt beam="1">  1        1 0.38831670E+00 0.40940331E+04</pdfrwt>
<pdfrwt beam="2">  1       -1 0.31204226E+00 0.40940331E+04</pdfrwt>
<totfact> 0.27507670E-02</totfact>
</mgrwt>
</event>
