<event>
11    1  0.4593018E-013  0.3428561E+04  0.7818608E-02  0.8130932E-01
          2   -1    0    0  501    0  0.00000000000E+00  0.00000000000E+00  0.16277663442E+04  0.16277663442E+04  0.00000000000E+00 0.  1.
         -2   -1    0    0    0  501 -0.00000000000E+00 -0.00000000000E+00 -0.18053932538E+04  0.18053932538E+04  0.00000000000E+00 0. -1.
    9900016    2    1    2    0    0 -0.17662997173E+03  0.34617604231E+03 -0.52683959041E+03  0.95506115096E+03  0.69537461045E+03 0.  0.
         23    2    3    3    0    0 -0.42057528120E+02  0.52742886877E+03 -0.48896389675E+03  0.72615746411E+03  0.90933619066E+02 0.  0.
        -15    1    4    4    0    0 -0.36245274417E+02  0.65669458234E+02 -0.72007193736E+02  0.10397708215E+03  0.00000000000E+00 0.  1.
        -15    1    1    2    0    0 -0.91058459568E+02 -0.20429099207E+03  0.31199990591E+03  0.38388851739E+03  0.00000000000E+00 0.  1.
         15    1    1    2    0    0  0.43628555395E+03  0.41965940394E+03 -0.76353864025E+03  0.97439743178E+03  0.00000000000E+00 0. -1.
         15    1    4    4    0    0 -0.58122537027E+01  0.46175941054E+03 -0.41695670301E+03  0.62218038196E+03  0.00000000000E+00 0. -1.
        -16    1    1    2    0    0 -0.19593576156E+03 -0.40856630530E+03  0.82176523822E+03  0.93841108009E+03  0.00000000000E+00 0.  1.
         16    1    3    3    0    0 -0.13457244361E+03 -0.18125282647E+03 -0.37875693663E+02  0.22890368685E+03  0.00000000000E+00 0. -1.
    9900018    1    1    2    0    0  0.27338638913E+02 -0.15297814887E+03 -0.21013823038E+02  0.18140141775E+03  0.91187600000E+02 0.  0.
<mgrwt>
<rscale>  0 0.34285614E+04</rscale>
<asrwt>0</asrwt>
<pdfrwt beam="1">  1        2 0.25042559E+00 0.34285614E+04</pdfrwt>
<pdfrwt beam="2">  1       -2 0.27775281E+00 0.34285614E+04</pdfrwt>
<totfact> 0.38652512E-01</totfact>
</mgrwt>
</event>
<event>
11    1  0.4593018E-013  0.3711382E+04  0.7818608E-02  0.8065444E-01
          1   -1    0    0  501    0  0.00000000000E+00  0.00000000000E+00  0.21179717535E+04  0.21179717535E+04  0.00000000000E+00 0. -1.
         -1   -1    0    0    0  501 -0.00000000000E+00 -0.00000000000E+00 -0.16258901762E+04  0.16258901762E+04  0.00000000000E+00 0.  1.
    9900016    2    1    2    0    0  0.10309107269E+03 -0.21558796843E+03  0.44433527047E+03  0.86740158569E+03  0.70558184278E+03 0.  0.
         23    2    3    3    0    0  0.36919124784E+03 -0.11938638412E+03  0.80394551311E+02  0.40640603787E+03  0.90262381634E+02 0.  0.
        -15    1    4    4    0    0  0.22990393166E+03 -0.11429226714E+03  0.72574980719E+02  0.26680642411E+03  0.00000000000E+00 0.  1.
        -15    1    1    2    0    0  0.11271798077E+03 -0.36152230423E+03  0.23677121579E+03  0.44661429474E+03  0.00000000000E+00 0.  1.
         15    1    1    2    0    0  0.52434970942E+03  0.77812369306E+03  0.34113550706E+03  0.99839497878E+03  0.00000000000E+00 0. -1.
         15    1    4    4    0    0  0.13928731618E+03 -0.50941169845E+01  0.78195705919E+01  0.13959961376E+03  0.00000000000E+00 0. -1.
        -16    1    1    2    0    0 -0.69842716659E+03  0.28818653791E+03 -0.81141202428E+02  0.75989202022E+03  0.00000000000E+00 0.  1.
         16    1    3    3    0    0 -0.26610017516E+03 -0.96201584307E+02  0.36394071916E+03  0.46099554782E+03  0.00000000000E+00 0. -1.
    9900018    1    1    2    0    0 -0.41731596292E+02 -0.48919995832E+03 -0.44901921364E+03  0.67155905024E+03  0.91187600000E+02 0.  0.
<mgrwt>
<rscale>  0 0.37113822E+04</rscale>
<asrwt>0</asrwt>
<pdfrwt beam="1">  1        1 0.32584181E+00 0.37113822E+04</pdfrwt>
<pdfrwt beam="2">  1       -1 0.25013695E+00 0.37113822E+04</pdfrwt>
<totfact> 0.13819167E-01</totfact>
</mgrwt>
</event>
<event>
11    1  0.4593018E-013  0.1469024E+04  0.7818608E-02  0.9158873E-01
          2   -1    0    0  501    0  0.00000000000E+00  0.00000000000E+00  0.10768818544E+04  0.10768818544E+04  0.00000000000E+00 0.  1.
         -2   -1    0    0    0  501 -0.00000000000E+00 -0.00000000000E+00 -0.10094960072E+04  0.10094960072E+04  0.00000000000E+00 0. -1.
    9900016    2    1    2    0    0  0.52891155438E+03 -0.17754062675E+03  0.45675571152E+03  0.10063668566E+04  0.70205438782E+03 0.  0.
         23    2    3    3    0    0 -0.65404202841E+02  0.15541406274E+03  0.20327835458E+03  0.27951005152E+03  0.91501578204E+02 0.  0.
        -15    1    4    4    0    0 -0.44497101561E+02  0.90896072093E+02  0.18231937601E+03  0.20852444182E+03  0.00000000000E+00 0.  1.
        -15    1    1    2    0    0 -0.44017827610E+03  0.24240832193E+02 -0.11458680882E+03  0.45549387422E+03  0.00000000000E+00 0.  1.
         15    1    4    4    0    0 -0.20907101280E+02  0.64517990650E+02  0.20958978567E+02  0.70985609696E+02  0.00000000000E+00 0. -1.
         15    1    1    2    0    0  0.98041292349E+02  0.15287282418E+03  0.61930707344E+01  0.18171557309E+03  0.00000000000E+00 0. -1.
        -16    1    3    3    0    0  0.59431575723E+03 -0.33295468949E+03  0.25347735694E+03  0.72685680503E+03  0.00000000000E+00 0.  1.
         16    1    1    2    0    0  0.30385641079E+02 -0.83687257987E+02 -0.10122778102E+03  0.13481063750E+03  0.00000000000E+00 0. -1.
    9900018    1    1    2    0    0 -0.21716021172E+03  0.84114228359E+02 -0.17974834518E+03  0.30799092024E+03  0.91187600000E+02 0.  0.
<mgrwt>
<rscale>  0 0.11488194E+04</rscale>
<asrwt>0</asrwt>
<pdfrwt beam="1">  1        2 0.16567413E+00 0.14690245E+04</pdfrwt>
<pdfrwt beam="2">  1       -2 0.15530708E+00 0.14690245E+04</pdfrwt>
<totfact> 0.58686444E+00</totfact>
</mgrwt>
</event>
<event>
11    1  0.4593018E-013  0.1966272E+04  0.7818608E-02  0.8751524E-01
         -1   -1    0    0    0  501 -0.00000000000E+00  0.00000000000E+00  0.10795557780E+04  0.10795557780E+04  0.00000000000E+00 0. -1.
          1   -1    0    0  501    0  0.00000000000E+00 -0.00000000000E+00 -0.22879354758E+04  0.22879354758E+04  0.00000000000E+00 0.  1.
    9900016    2    1    2    0    0  0.48136690327E+03  0.76035873283E+02 -0.23633816882E+03  0.89565186694E+03  0.71333090998E+03 0.  0.
         23    2    3    3    0    0  0.10631579059E+02 -0.17946747104E+03  0.13600223269E+03  0.24333976448E+03  0.91629853466E+02 0.  0.
        -15    1    4    4    0    0  0.36005015604E+02 -0.15747365034E+03  0.13368563811E+03  0.20968109485E+03  0.00000000000E+00 0.  1.
        -15    1    1    2    0    0 -0.10323790495E+03 -0.19352770823E+03 -0.77325984657E+03  0.80376727302E+03  0.00000000000E+00 0.  1.
         15    1    4    4    0    0 -0.25373436545E+02 -0.21993820702E+02  0.23165945833E+01  0.33658669636E+02  0.00000000000E+00 0. -1.
         15    1    1    2    0    0 -0.39308953160E+03  0.75677698451E+03 -0.32621227492E+03  0.91304174738E+03  0.00000000000E+00 0. -1.
        -16    1    3    3    0    0  0.47073532421E+03  0.25550334433E+03 -0.37234040151E+03  0.65231210246E+03  0.00000000000E+00 0.  1.
         16    1    1    2    0    0 -0.13668100221E+03 -0.50184600587E+03  0.91590439889E+02  0.52812869516E+03  0.00000000000E+00 0. -1.
    9900018    1    1    2    0    0  0.15164153550E+03 -0.13743914369E+03  0.35840152635E+02  0.22690167131E+03  0.91187600000E+02 0.  0.
<mgrwt>
<rscale>  0 0.17173606E+04</rscale>
<asrwt>0</asrwt>
<pdfrwt beam="1">  1        1 0.35199007E+00 0.19662717E+04</pdfrwt>
<pdfrwt beam="2">  1       -1 0.16608551E+00 0.19662717E+04</pdfrwt>
<totfact> 0.45232741E-01</totfact>
</mgrwt>
</event>
<event>
11    1  0.4738676E-013  0.5044452E+04  0.7818608E-02  0.7821687E-01
         -2   -1    0    0    0  501 -0.00000000000E+00  0.00000000000E+00  0.29719748057E+04  0.29719748057E+04  0.00000000000E+00 0.  1.
          2   -1    0    0  501    0  0.00000000000E+00 -0.00000000000E+00 -0.21405373147E+04  0.21405373147E+04  0.00000000000E+00 0. -1.
    9900016    2    1    2    0    0  0.24752567712E+03 -0.24046047579E+03 -0.11879240148E+03  0.80168279382E+03  0.71378811002E+03 0.  0.
         23    2    3    3    0    0  0.47541210037E+03 -0.95624190849E+02  0.29334432177E+02  0.49370336238E+03  0.87874057981E+02 0.  0.
        -15    1    1    2    0    0  0.55263221230E+03 -0.65656574480E+03 -0.41448498249E+03  0.95303658902E+03  0.00000000000E+00 0.  1.
        -15    1    4    4    0    0  0.36466928292E+03 -0.11055914234E+03  0.24779875805E+02  0.38186522768E+03  0.00000000000E+00 0. -1.
         15    1    4    4    0    0  0.11074281744E+03  0.14934951487E+02  0.45545563718E+01  0.11183813471E+03  0.00000000000E+00 0.  1.
         15    1    1    2    0    0  0.59941766442E+03  0.11741249390E+04  0.12561140677E+04  0.18209045719E+04  0.00000000000E+00 0. -1.
        -16    1    1    2    0    0 -0.12345590495E+04 -0.55368632388E+02  0.33269685124E+02  0.12362477923E+04  0.00000000000E+00 0.  1.
         16    1    3    3    0    0 -0.22788642325E+03 -0.14483628494E+03 -0.14812683365E+03  0.30797943143E+03  0.00000000000E+00 0. -1.
    9900018    1    1    2    0    0 -0.16501650436E+03 -0.22173008600E+03  0.75331122106E+02  0.30064037337E+03  0.91187600000E+02 0.  0.
<mgrwt>
<rscale>  0 0.50444516E+04</rscale>
<asrwt>0</asrwt>
<pdfrwt beam="1">  1        2 0.32931343E+00 0.50444516E+04</pdfrwt>
<pdfrwt beam="2">  1       -2 0.45722689E+00 0.50444516E+04</pdfrwt>
<totfact> 0.12623012E-02</totfact>
</mgrwt>
</event>
<event>
11    1  0.4593018E-013  0.1553202E+04  0.7818608E-02  0.9287911E-01
          3   -1    0    0  501    0  0.00000000000E+00  0.00000000000E+00  0.66378485051E+03  0.66378485051E+03  0.00000000000E+00 0. -1.
         -3   -1    0    0    0  501 -0.00000000000E+00 -0.00000000000E+00 -0.13015491008E+04  0.13015491008E+04  0.00000000000E+00 0.  1.
    9900016    2    1    2    0    0  0.64667908522E+02 -0.10888953990E+03  0.29531873369E+03  0.78425770737E+03  0.71540766476E+03 0.  0.
         23    2    3    3    0    0  0.74707694836E+02 -0.38511493539E+03  0.30728319671E+03  0.50759109428E+03  0.96597116353E+02 0.  0.
        -15    1    1    2    0    0 -0.99782940189E+02  0.14287308121E+03 -0.13200284999E+03  0.21861862888E+03  0.00000000000E+00 0.  1.
        -15    1    4    4    0    0  0.23909891547E+02 -0.11873640523E+03  0.41900432911E+02  0.12816264323E+03  0.00000000000E+00 0. -1.
         15    1    1    2    0    0 -0.40017631052E+02 -0.14441597944E+03 -0.66269268536E+03  0.67942547872E+03  0.00000000000E+00 0. -1.
         15    1    4    4    0    0  0.50797803289E+02 -0.26637853015E+03  0.26538276380E+03  0.37942845105E+03  0.00000000000E+00 0.  1.
        -16    1    3    3    0    0 -0.10039786314E+02  0.27622539549E+03 -0.11964463018E+02  0.27666661309E+03  0.00000000000E+00 0.  1.
         16    1    1    2    0    0 -0.22095208899E+02  0.11099276169E+03 -0.71812892260E+02  0.13403239496E+03  0.00000000000E+00 0. -1.
    9900018    1    1    2    0    0  0.97227871618E+02 -0.56032356318E+00 -0.66574556383E+02  0.14899974139E+03  0.91187600000E+02 0.  0.
<mgrwt>
<rscale>  0 0.10190347E+04</rscale>
<asrwt>0</asrwt>
<pdfrwt beam="1">  1        3 0.10212075E+00 0.15532015E+04</pdfrwt>
<pdfrwt beam="2">  1       -3 0.20023832E+00 0.15532015E+04</pdfrwt>
<totfact> 0.30204677E-01</totfact>
</mgrwt>
</event>
<event>
11    1  0.4593018E-013  0.1185521E+04  0.7818608E-02  0.9394534E-01
         -2   -1    0    0    0  501 -0.00000000000E+00  0.00000000000E+00  0.77286455127E+03  0.77286455127E+03  0.00000000000E+00 0.  1.
          2   -1    0    0  501    0  0.00000000000E+00 -0.00000000000E+00 -0.86191820938E+03  0.86191820938E+03  0.00000000000E+00 0. -1.
    9900016    2    1    2    0    0  0.31950627799E+03 -0.51118348744E+02 -0.23845559155E+03  0.81793978640E+03  0.71236723520E+03 0.  0.
         23    2    3    3    0    0  0.14492144796E+03  0.29476738917E+03 -0.26149678816E+03  0.42980617111E+03  0.91993123171E+02 0.  0.
        -15    1    1    2    0    0 -0.19475997062E+03 -0.26271033175E+01  0.19422939867E+02  0.19574370596E+03  0.00000000000E+00 0.  1.
        -15    1    4    4    0    0  0.11204113761E+03  0.12520035243E+03 -0.13890657839E+03  0.21799858322E+03  0.00000000000E+00 0. -1.
         15    1    1    2    0    0  0.60470800492E+02 -0.19361051704E+03  0.14007017084E+03  0.24649828149E+03  0.00000000000E+00 0. -1.
         15    1    4    4    0    0  0.32880310351E+02  0.16956703674E+03 -0.12259020977E+03  0.21180758789E+03  0.00000000000E+00 0.  1.
        -16    1    3    3    0    0  0.17458483003E+03 -0.34588573792E+03  0.23041196609E+02  0.38813361529E+03  0.00000000000E+00 0.  1.
         16    1    1    2    0    0 -0.18268696421E+03  0.16341612559E+03  0.23303229176E+02  0.24621616008E+03  0.00000000000E+00 0. -1.
    9900018    1    1    2    0    0 -0.25301436547E+01  0.83939843514E+02 -0.33394406438E+02  0.12838482672E+03  0.91187600000E+02 0.  0.
<mgrwt>
<rscale>  0 0.92526900E+03</rscale>
<asrwt>0</asrwt>
<pdfrwt beam="1">  1        2 0.13260280E+00 0.11855212E+04</pdfrwt>
<pdfrwt beam="2">  1       -2 0.11890224E+00 0.11855212E+04</pdfrwt>
<totfact> 0.16581002E+01</totfact>
</mgrwt>
</event>
<event>
11    1  0.4593018E-013  0.1115413E+04  0.7818608E-02  0.9424254E-01
         -1   -1    0    0    0  501 -0.00000000000E+00  0.00000000000E+00  0.16553001328E+03  0.16553001328E+03  0.00000000000E+00 0.  1.
          1   -1    0    0  501    0  0.00000000000E+00 -0.00000000000E+00 -0.38310740380E+04  0.38310740380E+04  0.00000000000E+00 0. -1.
    9900016    2    1    2    0    0  0.30834247964E+03 -0.96920204703E+02 -0.14278832952E+04  0.16234440368E+04  0.70160617522E+03 0.  0.
         23    2    3    3    0    0  0.46124304365E+03 -0.89205332069E+02 -0.13838186619E+04  0.14641336679E+04  0.89613458904E+02 0.  0.
        -15    1    4    4    0    0  0.11798802408E+03  0.73156132119E+01 -0.42599814051E+03  0.44209626524E+03  0.00000000000E+00 0.  1.
        -15    1    1    2    0    0 -0.11769414192E+03  0.18026990527E+03 -0.71478353505E+03  0.74650160869E+03  0.00000000000E+00 0.  1.
         15    1    1    2    0    0 -0.82814094144E+02 -0.23629076310E+03 -0.86526851126E+03  0.90076694849E+03  0.00000000000E+00 0. -1.
         15    1    4    4    0    0  0.34325501957E+03 -0.96520945281E+02 -0.95782052135E+03  0.10220374027E+04  0.00000000000E+00 0. -1.
        -16    1    1    2    0    0 -0.10605269558E+03  0.16834878167E+03 -0.32875000407E+03  0.38427210633E+03  0.00000000000E+00 0.  1.
         16    1    3    3    0    0 -0.15290056401E+03 -0.77148726341E+01 -0.44064633388E+02  0.15931036894E+03  0.00000000000E+00 0. -1.
    9900018    1    1    2    0    0 -0.17815479910E+01 -0.15407719134E+02 -0.32885867910E+03  0.34161935094E+03  0.91187600000E+02 0.  0.
<mgrwt>
<rscale>  0 0.90106280E+03</rscale>
<asrwt>0</asrwt>
<pdfrwt beam="1">  1        1 0.58939602E+00 0.11154131E+04</pdfrwt>
<pdfrwt beam="2">  1       -1 0.25466155E-01 0.11154131E+04</pdfrwt>
<totfact> 0.18723028E+00</totfact>
</mgrwt>
</event>
<event>
11    1  0.4593018E-013  0.3027701E+04  0.7818608E-02  0.8235865E-01
          1   -1    0    0  501    0  0.00000000000E+00  0.00000000000E+00  0.13631908140E+04  0.13631908140E+04  0.00000000000E+00 0. -1.
         -1   -1    0    0    0  501 -0.00000000000E+00 -0.00000000000E+00 -0.16811614881E+04  0.16811614881E+04  0.00000000000E+00 0.  1.
    9900016    2    1    2    0    0  0.25174014449E+03 -0.96626554069E+02  0.49218522666E+03  0.91723813634E+03  0.72551341140E+03 0.  0.
         23    2    3    3    0    0 -0.49747912002E+02 -0.35171388500E+03  0.32348440432E+03  0.48779132698E+03  0.84384282858E+02 0.  0.
        -15    1    1    2    0    0  0.43197000722E+03 -0.45134965079E+03 -0.19505947126E+02  0.62505605859E+03  0.00000000000E+00 0.  1.
        -15    1    4    4    0    0 -0.50374748424E+02 -0.88472470162E+02  0.86632952982E+02  0.13367969852E+03  0.00000000000E+00 0. -1.
         15    1    4    4    0    0  0.62683642198E+00 -0.26324141484E+03  0.23685145133E+03  0.35411162846E+03  0.00000000000E+00 0.  1.
         15    1    1    2    0    0  0.50153209343E+02  0.36770464520E+03 -0.27250776322E+03  0.46041560738E+03  0.00000000000E+00 0. -1.
        -16    1    3    3    0    0  0.30148805649E+03  0.25508733093E+03  0.16870082234E+03  0.42944680936E+03  0.00000000000E+00 0.  1.
         16    1    1    2    0    0 -0.56133300560E+03  0.23336661881E+03 -0.15720537651E+03  0.62790783747E+03  0.00000000000E+00 0. -1.
    9900018    1    1    2    0    0 -0.17253035545E+03 -0.53095059144E+02 -0.36093681389E+03  0.41373466240E+03  0.91187600000E+02 0.  0.
<mgrwt>
<rscale>  0 0.30277014E+04</rscale>
<asrwt>0</asrwt>
<pdfrwt beam="1">  1        1 0.20972166E+00 0.30277014E+04</pdfrwt>
<pdfrwt beam="2">  1       -1 0.25864023E+00 0.30277014E+04</pdfrwt>
<totfact> 0.42404042E-01</totfact>
</mgrwt>
</event>
<event>
11    1  0.4593018E-013  0.3898047E+04  0.7818608E-02  0.8025436E-01
         -1   -1    0    0    0  501 -0.00000000000E+00  0.00000000000E+00  0.23388249161E+04  0.23388249161E+04  0.00000000000E+00 0.  1.
          1   -1    0    0  501    0  0.00000000000E+00 -0.00000000000E+00 -0.16241884587E+04  0.16241884587E+04  0.00000000000E+00 0. -1.
    9900016    2    1    2    0    0 -0.36707545151E+03 -0.15363522757E+03 -0.93105458051E+02  0.81856643572E+03  0.70924904872E+03 0.  0.
         23    2    3    3    0    0 -0.26189260143E+03 -0.18829497654E+03  0.27548745055E+03  0.43369572701E+03  0.90310106568E+02 0.  0.
        -15    1    1    2    0    0 -0.46445603709E+03 -0.37533521610E+03 -0.43726404168E+03  0.74013226992E+03  0.00000000000E+00 0.  1.
        -15    1    4    4    0    0 -0.99737915028E+02 -0.56702002057E+02  0.15419468089E+03  0.19219461061E+03  0.00000000000E+00 0. -1.
         15    1    4    4    0    0 -0.16215468640E+03 -0.13159297448E+03  0.12129276965E+03  0.24150111640E+03  0.00000000000E+00 0.  1.
         15    1    1    2    0    0  0.66425136466E+03 -0.25862085338E+03  0.13563623115E+04  0.15322641225E+04  0.00000000000E+00 0. -1.
        -16    1    1    2    0    0  0.30568475422E+02  0.64120599374E+03 -0.51598153938E+02  0.64400460214E+03  0.00000000000E+00 0.  1.
         16    1    3    3    0    0 -0.10518285009E+03  0.34659748968E+02 -0.36859290860E+03  0.38487070870E+03  0.00000000000E+00 0. -1.
    9900018    1    1    2    0    0  0.13671164852E+03  0.14638530331E+03 -0.59758200431E+02  0.22804594444E+03  0.91187600000E+02 0.  0.
<mgrwt>
<rscale>  0 0.38980469E+04</rscale>
<asrwt>0</asrwt>
<pdfrwt beam="1">  1        1 0.24987515E+00 0.38980469E+04</pdfrwt>
<pdfrwt beam="2">  1       -1 0.35981922E+00 0.38980469E+04</pdfrwt>
<totfact> 0.56634175E-02</totfact>
</mgrwt>
</event>
<event>
11    1  0.4593018E-013  0.1575588E+04  0.7818608E-02  0.9253499E-01
         -2   -1    0    0    0  501 -0.00000000000E+00  0.00000000000E+00  0.87535256182E+03  0.87535256182E+03  0.00000000000E+00 0. -1.
          2   -1    0    0  501    0  0.00000000000E+00 -0.00000000000E+00 -0.10189636630E+04  0.10189636630E+04  0.00000000000E+00 0.  1.
    9900016    2    1    2    0    0 -0.39942048477E+03  0.59876886158E+02  0.20478058381E+03  0.86770253609E+03  0.74016933095E+03 0.  0.
         23    2    3    3    0    0 -0.20620378596E+03  0.38976646683E+03  0.44145517165E+02  0.45301777296E+03  0.94012637049E+02 0.  0.
        -15    1    4    4    0    0 -0.12683693614E+03  0.18873629038E+03  0.63295526576E+02  0.23604092730E+03  0.00000000000E+00 0.  1.
        -15    1    1    2    0    0 -0.31202428871E+02 -0.22577437456E+03 -0.15221344428E+03  0.27407406371E+03  0.00000000000E+00 0.  1.
         15    1    4    4    0    0 -0.79366849827E+02  0.20103017645E+03 -0.19150009410E+02  0.21697684567E+03  0.00000000000E+00 0. -1.
         15    1    1    2    0    0 -0.46281691610E+02  0.45577739531E+02  0.10673850837E+03  0.12494972784E+03  0.00000000000E+00 0. -1.
        -16    1    1    2    0    0  0.80351127441E+02  0.93551005893E+02 -0.14487058366E+03  0.19025136108E+03  0.00000000000E+00 0.  1.
         16    1    3    3    0    0 -0.19321669881E+03 -0.32988958067E+03  0.16063506665E+03  0.41468476313E+03  0.00000000000E+00 0. -1.
    9900018    1    1    2    0    0  0.39655347781E+03  0.26768742979E+02 -0.15804616542E+03  0.43733853610E+03  0.91187600000E+02 0.  0.
<mgrwt>
<rscale>  0 0.10517891E+04</rscale>
<asrwt>0</asrwt>
<pdfrwt beam="1">  1        2 0.15676364E+00 0.15755884E+04</pdfrwt>
<pdfrwt beam="2">  1       -2 0.13466963E+00 0.15755884E+04</pdfrwt>
<totfact> 0.92616315E+00</totfact>
</mgrwt>
</event>
<event>
11    1  0.4593018E-013  0.4108432E+04  0.7818608E-02  0.7983023E-01
          2   -1    0    0  501    0  0.00000000000E+00  0.00000000000E+00  0.27340810180E+04  0.27340810180E+04  0.00000000000E+00 0. -1.
         -2   -1    0    0    0  501 -0.00000000000E+00 -0.00000000000E+00 -0.15434080086E+04  0.15434080086E+04  0.00000000000E+00 0.  1.
    9900016    2    1    2    0    0 -0.23878265119E+02  0.22088661032E+03  0.28627802858E+03  0.78848740492E+03  0.70028295132E+03 0.  0.
         23    2    3    3    0    0  0.12108503176E+02  0.42472341783E+03  0.36456004885E+03  0.56718994383E+03  0.90905476558E+02 0.  0.
        -15    1    1    2    0    0  0.33088608133E+03  0.78059026556E+03  0.48049279333E+03  0.97451530822E+03  0.00000000000E+00 0.  1.
        -15    1    4    4    0    0  0.27010778422E+02  0.16342898186E+03  0.19259543279E+03  0.25403073632E+03  0.00000000000E+00 0. -1.
         15    1    4    4    0    0 -0.14902275246E+02  0.26129443597E+03  0.17196461606E+03  0.31315920752E+03  0.00000000000E+00 0.  1.
         15    1    1    2    0    0  0.59410490027E+03 -0.21983093090E+03  0.81615068994E+03  0.10331448201E+04  0.00000000000E+00 0. -1.
        -16    1    1    2    0    0 -0.13143079426E+03 -0.58430956365E+03 -0.20200863568E+02  0.59924935940E+03  0.00000000000E+00 0.  1.
         16    1    3    3    0    0 -0.35986768295E+02 -0.20383680750E+03 -0.78282020273E+02  0.22129746109E+03  0.00000000000E+00 0. -1.
    9900018    1    1    2    0    0 -0.76968192222E+03 -0.19733638134E+03 -0.37204763888E+03  0.88209213396E+03  0.91187600000E+02 0.  0.
<mgrwt>
<rscale>  0 0.41084316E+04</rscale>
<asrwt>0</asrwt>
<pdfrwt beam="1">  1        2 0.42062785E+00 0.41084316E+04</pdfrwt>
<pdfrwt beam="2">  1       -2 0.23744739E+00 0.41084316E+04</pdfrwt>
<totfact> 0.15220308E-01</totfact>
</mgrwt>
</event>
<event>
11    1  0.4593018E-013  0.4106399E+04  0.7818608E-02  0.7983420E-01
         -1   -1    0    0    0  501 -0.00000000000E+00  0.00000000000E+00  0.18968588755E+04  0.18968588755E+04  0.00000000000E+00 0.  1.
          1   -1    0    0  501    0  0.00000000000E+00 -0.00000000000E+00 -0.22224263679E+04  0.22224263679E+04  0.00000000000E+00 0. -1.
    9900016    2    1    2    0    0 -0.10775273717E+02 -0.14774959240E+03 -0.21718203906E+03  0.70732870180E+03  0.65665805845E+03 0.  0.
         23    2    3    3    0    0 -0.25845207593E+03 -0.19102693412E+03 -0.29449763055E+03  0.44428036528E+03  0.85833696546E+02 0.  0.
        -15    1    1    2    0    0  0.13600417174E+03 -0.11259068272E+04  0.77372686404E+03  0.13728862219E+04  0.00000000000E+00 0.  1.
        -15    1    4    4    0    0 -0.10757630259E+03 -0.12426601356E+03 -0.17819810138E+03  0.24242373304E+03  0.00000000000E+00 0.  1.
         15    1    4    4    0    0 -0.15087577333E+03 -0.66760920558E+02 -0.11629952916E+03  0.20185663223E+03  0.00000000000E+00 0. -1.
         15    1    1    2    0    0 -0.19751419016E+03 -0.15405705767E+03 -0.47128374978E+03  0.53371697101E+03  0.00000000000E+00 0. -1.
        -16    1    3    3    0    0  0.24767680221E+03  0.43277341721E+02  0.77315591489E+02  0.26304833652E+03  0.00000000000E+00 0.  1.
         16    1    1    2    0    0  0.67200601232E+02  0.12073180548E+04 -0.32907458382E+03  0.12531651479E+04  0.00000000000E+00 0. -1.
    9900018    1    1    2    0    0  0.50846909004E+01  0.22039542246E+03 -0.81753983825E+02  0.25218820073E+03  0.91187600000E+02 0.  0.
<mgrwt>
<rscale>  0 0.41063995E+04</rscale>
<asrwt>0</asrwt>
<pdfrwt beam="1">  1        1 0.34191175E+00 0.41063995E+04</pdfrwt>
<pdfrwt beam="2">  1       -1 0.29182444E+00 0.41063995E+04</pdfrwt>
<totfact> 0.60884077E-02</totfact>
</mgrwt>
</event>
<event>
11    1  0.4935695E-013  0.3427435E+04  0.7818608E-02  0.8131206E-01
          2   -1    0    0  501    0  0.00000000000E+00  0.00000000000E+00  0.14965091030E+04  0.14965091030E+04  0.00000000000E+00 0.  1.
         -2   -1    0    0    0  501 -0.00000000000E+00 -0.00000000000E+00 -0.19624518796E+04  0.19624518796E+04  0.00000000000E+00 0. -1.
    9900016    2    1    2    0    0  0.74979324924E+02  0.10484908801E+03 -0.33994877023E+03  0.79837761890E+03  0.71079281479E+03 0.  0.
         23    2    3    3    0    0 -0.23080077642E+03  0.64163329309E+02  0.88218204654E+02  0.27066201395E+03  0.89941886458E+02 0.  0.
        -15    1    1    2    0    0  0.49252599884E+03  0.10152467669E+04 -0.36261028853E+02  0.11289919041E+04  0.00000000000E+00 0.  1.
        -15    1    4    4    0    0 -0.69125271069E+02  0.60509408382E+02  0.14770632023E+02  0.93047639269E+02  0.00000000000E+00 0. -1.
         15    1    4    4    0    0 -0.16167550535E+03  0.36539209277E+01  0.73447572631E+02  0.17761437468E+03  0.00000000000E+00 0.  1.
         15    1    1    2    0    0 -0.31414944148E+03 -0.39407967743E+03 -0.30285840742E+03  0.58797268532E+03  0.00000000000E+00 0. -1.
        -16    1    3    3    0    0  0.30578010134E+03  0.40685758705E+02 -0.42816697488E+03  0.52771560496E+03  0.00000000000E+00 0.  1.
         16    1    1    2    0    0 -0.34098101185E+03 -0.71118044999E+03  0.21030296715E+03  0.81625548750E+03  0.00000000000E+00 0. -1.
    9900018    1    1    2    0    0  0.87625129557E+02 -0.14835727479E+02  0.28224627108E+01  0.12736328682E+03  0.91187600000E+02 0.  0.
<mgrwt>
<rscale>  0 0.34274347E+04</rscale>
<asrwt>0</asrwt>
<pdfrwt beam="1">  1        2 0.23023217E+00 0.34274347E+04</pdfrwt>
<pdfrwt beam="2">  1       -2 0.30191567E+00 0.34274347E+04</pdfrwt>
<totfact> 0.32604433E-01</totfact>
</mgrwt>
</event>
