<event>
11    1  0.7691902E-014  0.2069132E+04  0.7818608E-02  0.8574964E-01
          1   -1    0    0  501    0  0.00000000000E+00  0.00000000000E+00  0.27724565887E+04  0.27724565887E+04  0.00000000000E+00 0. -1.
         -1   -1    0    0    0  501 -0.00000000000E+00 -0.00000000000E+00 -0.38605716871E+03  0.38605716871E+03  0.00000000000E+00 0.  1.
    9900016    2    1    2    0    0 -0.16580304841E+03  0.83514799555E+03  0.83771308441E+03  0.13912016199E+04  0.71324323347E+03 0.  0.
         23    2    3    3    0    0 -0.14426050004E+03  0.12422516900E+03  0.61470190734E+02  0.21492601442E+03  0.78559676951E+02 0.  0.
        -15    1    4    4    0    0 -0.67850740256E+02  0.95677489596E+02  0.63405051149E+02  0.13333456221E+03  0.00000000000E+00 0.  1.
        -15    1    3    3    0    0  0.10196878480E+03 -0.15363133715E+02  0.87294969575E+02  0.13510762622E+03  0.00000000000E+00 0.  1.
         15    1    3    3    0    0  0.26174156331E+02  0.27460661129E+03  0.27376236475E+03  0.38863827627E+03  0.00000000000E+00 0. -1.
         15    1    4    4    0    0 -0.76409759783E+02  0.28547679405E+02 -0.19348604156E+01  0.81591452213E+02  0.00000000000E+00 0. -1.
        -16    1    3    3    0    0 -0.21285243465E+02  0.17213451150E+03  0.88839360841E+02  0.19487376343E+03  0.00000000000E+00 0.  1.
         16    1    1    2    0    0  0.16580304841E+03 -0.83514799555E+03  0.15486863355E+04  0.17673121375E+04  0.00000000000E+00 0. -1.
    9900018    1    3    3    0    0 -0.12840024603E+03  0.27954483747E+03  0.32634619851E+03  0.45765593956E+03  0.91187600000E+02 0.  0.
<mgrwt>
<rscale>  0 0.20691319E+04</rscale>
<asrwt>0</asrwt>
<pdfrwt beam="1">  1        1 0.42653177E+00 0.20691319E+04</pdfrwt>
<pdfrwt beam="2">  1       -1 0.59393412E-01 0.20691319E+04</pdfrwt>
<totfact> 0.23126011E+00</totfact>
</mgrwt>
</event>
<event>
11    1  0.7691902E-014  0.1109363E+04  0.7818608E-02  0.9196114E-01
          1   -1    0    0  501    0  0.00000000000E+00  0.00000000000E+00  0.17707894899E+04  0.17707894899E+04  0.00000000000E+00 0. -1.
         -1   -1    0    0    0  501 -0.00000000000E+00 -0.00000000000E+00 -0.17374825758E+03  0.17374825758E+03  0.00000000000E+00 0.  1.
    9900016    2    1    2    0    0  0.19755020206E+03  0.22234217817E+03  0.90967818592E+03  0.11955850894E+04  0.71655228523E+03 0.  0.
         23    2    3    3    0    0  0.23430317061E+03  0.20098799360E+03  0.38823559818E+03  0.50751010379E+03  0.10744987864E+03 0.  0.
        -15    1    3    3    0    0  0.37883333440E+01  0.23540878876E+02  0.10329004741E+03  0.10600640708E+03  0.00000000000E+00 0.  1.
        -15    1    4    4    0    0  0.53326735882E+02  0.89577282392E+02  0.19084623036E+03  0.21746290241E+03  0.00000000000E+00 0. -1.
         15    1    4    4    0    0  0.18097643472E+03  0.11141071121E+03  0.19738936782E+03  0.29004720138E+03  0.00000000000E+00 0.  1.
         15    1    3    3    0    0 -0.41440581071E+02  0.19221023433E+02 -0.42455779763E+01  0.45878038685E+02  0.00000000000E+00 0. -1.
        -16    1    3    3    0    0  0.34811984790E+02 -0.35840111828E+02  0.43425892289E+03  0.43712378111E+03  0.00000000000E+00 0.  1.
         16    1    1    2    0    0 -0.19755020206E+03 -0.22234217817E+03  0.68736304643E+03  0.74895265813E+03  0.00000000000E+00 0. -1.
    9900018    1    3    3    0    0 -0.33912705608E+02  0.14432394081E+02 -0.11860804599E+02  0.99066758704E+02  0.91187600000E+02 0.  0.
<mgrwt>
<rscale>  0 0.11093630E+04</rscale>
<asrwt>0</asrwt>
<pdfrwt beam="1">  1        1 0.27242914E+00 0.11093630E+04</pdfrwt>
<pdfrwt beam="2">  1       -1 0.26730502E-01 0.11093630E+04</pdfrwt>
<totfact> 0.53060432E+01</totfact>
</mgrwt>
</event>
<event>
11    1  0.7691902E-014  0.9706605E+03  0.7818608E-02  0.9341322E-01
          2   -1    0    0  501    0  0.00000000000E+00  0.00000000000E+00  0.13097076658E+04  0.13097076658E+04  0.00000000000E+00 0.  1.
         -2   -1    0    0    0  501 -0.00000000000E+00 -0.00000000000E+00 -0.17984581252E+03  0.17984581252E+03  0.00000000000E+00 0. -1.
    9900016    2    1    2    0    0 -0.14050026856E+03  0.13119106572E+03  0.72725069851E+03  0.10434064587E+04  0.72308508373E+03 0.  0.
         23    2    3    3    0    0  0.11480961686E+03  0.15364748031E+03  0.14735839951E+03  0.25394840369E+03  0.77372459584E+02 0.  0.
        -15    1    4    4    0    0  0.47621395948E+02  0.58551541078E+02  0.10654146156E+03  0.13056478601E+03  0.00000000000E+00 0. -1.
        -15    1    3    3    0    0  0.43489417418E+02 -0.71383304422E+02  0.20448637789E+03  0.22091080626E+03  0.00000000000E+00 0.  1.
         15    1    3    3    0    0 -0.48483867997E+02  0.16201084655E+01  0.18190241517E+01  0.48545020922E+02  0.00000000000E+00 0. -1.
         15    1    4    4    0    0  0.67188220916E+02  0.95095939236E+02  0.40816937945E+02  0.12338361768E+03  0.00000000000E+00 0.  1.
        -16    1    1    2    0    0  0.14050026856E+03 -0.13119106572E+03  0.40261115473E+03  0.44614701961E+03  0.00000000000E+00 0.  1.
         16    1    3    3    0    0 -0.99781121115E+02  0.59762668955E+02  0.11078499480E+02  0.11683570466E+03  0.00000000000E+00 0. -1.
    9900018    1    3    3    0    0 -0.15053431373E+03 -0.12455887591E+02  0.36250839748E+03  0.40316652314E+03  0.91187600000E+02 0.  0.
<mgrwt>
<rscale>  0 0.97066047E+03</rscale>
<asrwt>0</asrwt>
<pdfrwt beam="1">  1        2 0.20149348E+00 0.97066047E+03</pdfrwt>
<pdfrwt beam="2">  1       -2 0.27668587E-01 0.97066047E+03</pdfrwt>
<totfact> 0.19412117E+02</totfact>
</mgrwt>
</event>
<event>
11    1  0.7691902E-014  0.8886432E+03  0.7818608E-02  0.9439890E-01
          2   -1    0    0  501    0  0.00000000000E+00  0.00000000000E+00  0.20765865236E+04  0.20765865236E+04  0.00000000000E+00 0. -1.
         -2   -1    0    0    0  501 -0.00000000000E+00 -0.00000000000E+00 -0.95070288704E+02  0.95070288704E+02  0.00000000000E+00 0.  1.
    9900016    2    1    2    0    0 -0.14935839258E+03  0.30126374406E+02  0.15109372757E+04  0.16770255509E+04  0.71152492548E+03 0.  0.
         23    2    3    3    0    0 -0.25267442413E+02  0.29717288653E+02  0.14516310845E+02  0.86300257655E+02  0.75600597218E+02 0.  0.
        -15    1    4    4    0    0  0.22007146840E+02  0.14520683433E+02  0.24106999762E+02  0.35725511850E+02  0.00000000000E+00 0.  1.
        -15    1    3    3    0    0 -0.11306585240E+03 -0.12462702321E+03  0.20908720761E+03  0.26839009348E+03  0.00000000000E+00 0.  1.
         15    1    4    4    0    0 -0.47274589253E+02  0.15196605221E+02 -0.95906889168E+01  0.50574745805E+02  0.00000000000E+00 0. -1.
         15    1    3    3    0    0  0.63566106958E+02  0.98926690477E+02  0.51246988304E+03  0.52578752464E+03  0.00000000000E+00 0. -1.
        -16    1    1    2    0    0  0.14935839258E+03 -0.30126374406E+02  0.47057895922E+03  0.49463126138E+03  0.00000000000E+00 0.  1.
         16    1    3    3    0    0 -0.51338908149E+02 -0.33895393006E+02  0.15584313381E+03  0.16754600417E+03  0.00000000000E+00 0. -1.
    9900018    1    3    3    0    0 -0.23252296570E+02  0.60004811493E+02  0.61902074039E+03  0.62900167100E+03  0.91187600000E+02 0.  0.
<mgrwt>
<rscale>  0 0.88864319E+03</rscale>
<asrwt>0</asrwt>
<pdfrwt beam="1">  1        2 0.31947482E+00 0.88864319E+03</pdfrwt>
<pdfrwt beam="2">  1       -2 0.14626200E-01 0.88864319E+03</pdfrwt>
<totfact> 0.22455365E+02</totfact>
</mgrwt>
</event>
<event>
11    1  0.7691902E-014  0.9769028E+03  0.7818608E-02  0.9334247E-01
         -1   -1    0    0    0  501 -0.00000000000E+00  0.00000000000E+00  0.47437878287E+03  0.47437878287E+03  0.00000000000E+00 0.  1.
          1   -1    0    0  501    0  0.00000000000E+00 -0.00000000000E+00 -0.50294149378E+03  0.50294149378E+03  0.00000000000E+00 0. -1.
    9900016    2    1    2    0    0 -0.46079074946E+02  0.19226231690E+03  0.85572718299E+02  0.74903322961E+03  0.71738414346E+03 0.  0.
         23    2    3    3    0    0  0.49428869185E+02  0.83828024766E+02  0.20109847880E+03  0.23003703897E+03  0.54827823912E+02 0.  0.
        -15    1    3    3    0    0 -0.16196182182E+03  0.13941299630E+03 -0.59252262480E+02  0.22176213806E+03  0.00000000000E+00 0. -1.
        -15    1    4    4    0    0  0.38058705376E+02  0.48392571175E+02  0.17233577733E+03  0.18300253044E+03  0.00000000000E+00 0.  1.
         15    1    3    3    0    0 -0.46347808963E+02  0.73676514953E+02 -0.57148685480E+02  0.10412646399E+03  0.00000000000E+00 0.  1.
         15    1    4    4    0    0  0.11370163809E+02  0.35435453591E+02  0.28762701471E+02  0.47034508524E+02  0.00000000000E+00 0. -1.
        -16    1    3    3    0    0  0.43275982473E+02 -0.26102914461E+02  0.16673363071E+02  0.53218172070E+02  0.00000000000E+00 0.  1.
         16    1    1    2    0    0  0.46079074946E+02 -0.19226231690E+03 -0.11413542921E+03  0.22828704705E+03  0.00000000000E+00 0. -1.
    9900018    1    3    3    0    0  0.69525704182E+02 -0.78552304656E+02 -0.15798175617E+02  0.13988941652E+03  0.91187600000E+02 0.  0.
<mgrwt>
<rscale>  0 0.97690281E+03</rscale>
<asrwt>0</asrwt>
<pdfrwt beam="1">  1        1 0.77375614E-01 0.97690281E+03</pdfrwt>
<pdfrwt beam="2">  1       -1 0.72981352E-01 0.97690281E+03</pdfrwt>
<totfact> 0.83580259E+01</totfact>
</mgrwt>
</event>
<event>
11    1  0.7691902E-014  0.9257274E+03  0.7818608E-02  0.9393980E-01
         -1   -1    0    0    0  501 -0.00000000000E+00  0.00000000000E+00  0.31841739308E+03  0.31841739308E+03  0.00000000000E+00 0.  1.
          1   -1    0    0  501    0  0.00000000000E+00 -0.00000000000E+00 -0.67283636467E+03  0.67283636467E+03  0.00000000000E+00 0. -1.
    9900016    2    1    2    0    0  0.72512793386E+02 -0.17387292834E+03 -0.30269426257E+03  0.79589422782E+03  0.71157143343E+03 0.  0.
         23    2    3    3    0    0  0.53929827247E+02 -0.86032188578E+02 -0.13059051202E+03  0.19608943857E+03  0.10529588003E+03 0.  0.
        -15    1    3    3    0    0 -0.13675108032E+03  0.39156519425E+02 -0.81769686945E+02  0.16407429014E+03  0.00000000000E+00 0.  1.
        -15    1    4    4    0    0  0.16222355939E+02 -0.39450680425E+02  0.95150551706E+01  0.43704202236E+02  0.00000000000E+00 0.  1.
         15    1    3    3    0    0 -0.96814332184E+02 -0.28068904453E+02  0.25788047350E+02  0.10404759343E+03  0.00000000000E+00 0. -1.
         15    1    4    4    0    0  0.37707471309E+02 -0.46581508153E+02 -0.14010556719E+03  0.15238523633E+03  0.00000000000E+00 0. -1.
        -16    1    1    2    0    0 -0.72512793386E+02  0.17387292834E+03 -0.51724709011E+02  0.19535952993E+03  0.00000000000E+00 0.  1.
         16    1    3    3    0    0  0.90260044803E+02 -0.63627604338E+02 -0.13220005129E+01  0.11044046091E+03  0.00000000000E+00 0. -1.
    9900018    1    3    3    0    0  0.16188833384E+03 -0.35300750394E+02 -0.11480011044E+03  0.22124244476E+03  0.91187600000E+02 0.  0.
<mgrwt>
<rscale>  0 0.92572739E+03</rscale>
<asrwt>0</asrwt>
<pdfrwt beam="1">  1        1 0.10351329E+00 0.92572739E+03</pdfrwt>
<pdfrwt beam="2">  1       -1 0.48987291E-01 0.92572739E+03</pdfrwt>
<totfact> 0.12146348E+02</totfact>
</mgrwt>
</event>
<event>
11    1  0.7691902E-014  0.1515157E+04  0.7818608E-02  0.8874436E-01
          2   -1    0    0  501    0  0.00000000000E+00  0.00000000000E+00  0.44303998346E+03  0.44303998346E+03  0.00000000000E+00 0. -1.
         -2   -1    0    0    0  501 -0.00000000000E+00 -0.00000000000E+00 -0.12954245395E+04  0.12954245395E+04  0.00000000000E+00 0.  1.
    9900016    2    1    2    0    0 -0.48857315039E+03  0.18965732237E+03 -0.82738254857E+03  0.12137753545E+04  0.71694846830E+03 0.  0.
         23    2    3    3    0    0 -0.22575144597E+03  0.70881934695E+02 -0.52752346842E+03  0.58805907662E+03  0.10744535278E+03 0.  0.
        -15    1    4    4    0    0 -0.17391645952E+03  0.96673483952E+02 -0.36793297354E+03  0.41829101163E+03  0.00000000000E+00 0.  1.
        -15    1    3    3    0    0 -0.30150536058E+02  0.22754218051E+02 -0.17617621546E+03  0.18018009922E+03  0.00000000000E+00 0.  1.
         15    1    3    3    0    0 -0.97981268809E+02  0.82588991628E+02 -0.35662889693E+02  0.13301545879E+03  0.00000000000E+00 0. -1.
         15    1    4    4    0    0 -0.51834986447E+02 -0.25791549257E+02 -0.15959049489E+03  0.16976806499E+03  0.00000000000E+00 0. -1.
        -16    1    3    3    0    0 -0.11621427764E+03 -0.31563723422E+02  0.57970451428E+02  0.13365103891E+03  0.00000000000E+00 0.  1.
         16    1    1    2    0    0  0.48857315039E+03 -0.18965732237E+03 -0.25002007504E+02  0.52468916854E+03  0.00000000000E+00 0. -1.
    9900018    1    3    3    0    0 -0.18475621916E+02  0.44995901413E+02 -0.14599042642E+03  0.17886968091E+03  0.91187600000E+02 0.  0.
<mgrwt>
<rscale>  0 0.15151566E+04</rscale>
<asrwt>0</asrwt>
<pdfrwt beam="1">  1        2 0.68159999E-01 0.15151566E+04</pdfrwt>
<pdfrwt beam="2">  1       -2 0.19929608E+00 0.15151566E+04</pdfrwt>
<totfact> 0.91757690E+00</totfact>
</mgrwt>
</event>
<event>
10    1  0.7691902E-014  0.1241376E+04  0.7818608E-02  0.9077392E-01
          1   -1    0    0  501    0  0.00000000000E+00  0.00000000000E+00  0.79064310025E+03  0.79064310025E+03  0.00000000000E+00 0. -1.
         -1   -1    0    0    0  501 -0.00000000000E+00 -0.00000000000E+00 -0.48726614861E+03  0.48726614861E+03  0.00000000000E+00 0.  1.
    9900016    2    1    2    0    0  0.30873191111E+03  0.94656635639E+02 -0.50433584809E+02  0.79889237305E+03  0.72897887873E+03 0.  0.
        -15    1    3    3    0    0  0.93853371801E+01  0.10507332748E+03 -0.54809203312E+02  0.11888034938E+03  0.00000000000E+00 0.  1.
        -15    1    3    3    0    0  0.13291695335E+02 -0.40418554891E+02 -0.93035634835E+01  0.43553243712E+02  0.00000000000E+00 0.  1.
         15    1    3    3    0    0  0.88204063375E+02  0.25729490597E+02 -0.75040045932E+02  0.11862955777E+03  0.00000000000E+00 0. -1.
         15    1    3    3    0    0  0.19598430840E+03  0.16648470466E+03  0.16097149688E+03  0.30337901844E+03  0.00000000000E+00 0. -1.
        -16    1    3    3    0    0 -0.61224271212E+01  0.33377419667E+01  0.65077480396E+01  0.95381035766E+01  0.00000000000E+00 0.  1.
         16    1    1    2    0    0 -0.30873191111E+03 -0.94656635639E+02  0.35381053645E+03  0.47901687581E+03  0.00000000000E+00 0. -1.
    9900018    1    3    3    0    0  0.79889339411E+01 -0.16555007417E+03 -0.78760017000E+02  0.20491210017E+03  0.91187600000E+02 0.  0.
<mgrwt>
<rscale>  0 0.12413760E+04</rscale>
<asrwt>0</asrwt>
<pdfrwt beam="1">  1        1 0.12163740E+00 0.12413760E+04</pdfrwt>
<pdfrwt beam="2">  1       -1 0.74964023E-01 0.12413760E+04</pdfrwt>
<totfact> 0.39805425E+01</totfact>
</mgrwt>
</event>
<event>
10    1  0.7691902E-014  0.8795755E+03  0.7818608E-02  0.9451479E-01
         -1   -1    0    0    0  501 -0.00000000000E+00  0.00000000000E+00  0.11672090244E+03  0.11672090244E+03  0.00000000000E+00 0. -1.
          1   -1    0    0  501    0  0.00000000000E+00 -0.00000000000E+00 -0.16570577018E+04  0.16570577018E+04  0.00000000000E+00 0.  1.
    9900016    2    1    2    0    0 -0.60680713070E+02  0.58947037630E+00 -0.10093114806E+04  0.12392971868E+04  0.71656496981E+03 0.  0.
        -15    1    3    3    0    0 -0.70472128474E+02 -0.20343097671E+02 -0.66282558175E+02  0.98861216019E+02  0.00000000000E+00 0.  1.
        -15    1    3    3    0    0  0.11095558535E+02 -0.67203253914E+02 -0.14830970696E+03  0.16320281228E+03  0.00000000000E+00 0.  1.
         15    1    3    3    0    0 -0.15499084363E+02  0.15863714694E+03 -0.13223710285E+03  0.20710532918E+03  0.00000000000E+00 0. -1.
         15    1    3    3    0    0  0.16368134090E+02 -0.80095223459E+02 -0.91402130959E+02  0.12262752619E+03  0.00000000000E+00 0. -1.
        -16    1    3    3    0    0  0.25425298928E+02 -0.28418430770E+02 -0.53853798722E+03  0.53988629980E+03  0.00000000000E+00 0.  1.
         16    1    1    2    0    0  0.60680713070E+02 -0.58947037630E+00 -0.53102531873E+03  0.53448141740E+03  0.00000000000E+00 0. -1.
    9900018    1    3    3    0    0 -0.27598491786E+02  0.38012329252E+02 -0.32541994452E+02  0.10761400337E+03  0.91187600000E+02 0.  0.
<mgrwt>
<rscale>  0 0.87957551E+03</rscale>
<asrwt>0</asrwt>
<pdfrwt beam="1">  1        1 0.25493195E+00 0.87957551E+03</pdfrwt>
<pdfrwt beam="2">  1       -1 0.17957063E-01 0.87957551E+03</pdfrwt>
<totfact> 0.12632542E+02</totfact>
</mgrwt>
</event>
<event>
10    1  0.7691902E-014  0.7789629E+03  0.7818608E-02  0.9590977E-01
         -2   -1    0    0    0  501 -0.00000000000E+00  0.00000000000E+00  0.32488739663E+03  0.32488739663E+03  0.00000000000E+00 0.  1.
          2   -1    0    0  501    0  0.00000000000E+00 -0.00000000000E+00 -0.46691812595E+03  0.46691812595E+03  0.00000000000E+00 0. -1.
    9900016    2    1    2    0    0 -0.25399092047E+02 -0.57778756855E+02 -0.99253664208E+02  0.71556002488E+03  0.70582672146E+03 0.  0.
        -15    1    3    3    0    0 -0.13847117434E+01 -0.21263534792E+02  0.10822145537E+02  0.23899250459E+02  0.00000000000E+00 0.  1.
        -15    1    3    3    0    0 -0.37627073963E+02 -0.28667323453E+02  0.26123186360E+02  0.54037329640E+02  0.00000000000E+00 0.  1.
         15    1    3    3    0    0  0.19755475690E+02 -0.21743980276E+02  0.61521173418E+01  0.30015463444E+02  0.00000000000E+00 0. -1.
         15    1    3    3    0    0 -0.37814867778E+02 -0.67162854199E+02  0.20778543265E+03  0.22162039444E+03  0.00000000000E+00 0. -1.
        -16    1    1    2    0    0  0.25399092047E+02  0.57778756855E+02 -0.42777065114E+02  0.76245497705E+02  0.00000000000E+00 0.  1.
         16    1    3    3    0    0  0.15676070925E+02 -0.19656519677E+02 -0.44026103893E+02  0.50699268136E+02  0.00000000000E+00 0. -1.
    9900018    1    3    3    0    0  0.15996014823E+02  0.10071545554E+03 -0.30611044221E+03  0.33528831876E+03  0.91187600000E+02 0.  0.
<mgrwt>
<rscale>  0 0.77896294E+03</rscale>
<asrwt>0</asrwt>
<pdfrwt beam="1">  1        2 0.71833557E-01 0.77896294E+03</pdfrwt>
<pdfrwt beam="2">  1       -2 0.49982677E-01 0.77896294E+03</pdfrwt>
<totfact> 0.25438056E+02</totfact>
</mgrwt>
</event>
<event>
11    1  0.7691902E-014  0.8358701E+03  0.7818608E-02  0.9509500E-01
         -2   -1    0    0    0  501 -0.00000000000E+00  0.00000000000E+00  0.14068451027E+03  0.14068451027E+03  0.00000000000E+00 0.  1.
          2   -1    0    0  501    0  0.00000000000E+00 -0.00000000000E+00 -0.12415703363E+04  0.12415703363E+04  0.00000000000E+00 0. -1.
    9900016    2    1    2    0    0  0.59317245533E+02  0.23699428224E+02 -0.11097707663E+04  0.13177634465E+04  0.70769283488E+03 0.  0.
         23    2    3    3    0    0 -0.12085932937E+03  0.49382272043E+02 -0.47839817067E+03  0.50175933198E+03  0.76498570188E+02 0.  0.
        -15    1    4    4    0    0  0.82687519710E+00 -0.12711733073E+02 -0.69090385240E+02  0.70254915935E+02  0.00000000000E+00 0. -1.
        -15    1    3    3    0    0  0.47426849111E+02  0.73690834526E+01 -0.22588174455E+02  0.53045593904E+02  0.00000000000E+00 0.  1.
         15    1    3    3    0    0 -0.99811596426E+02  0.22240773114E+02 -0.15762956205E+03  0.18789381469E+03  0.00000000000E+00 0.  1.
         15    1    4    4    0    0 -0.12168620457E+03  0.62094005116E+02 -0.40930778543E+03  0.43150441604E+03  0.00000000000E+00 0. -1.
        -16    1    1    2    0    0 -0.59317245533E+02 -0.23699428224E+02  0.88849403498E+01  0.64491400053E+02  0.00000000000E+00 0.  1.
         16    1    3    3    0    0  0.16106362661E+03  0.66697989856E+02 -0.14946764680E+03  0.22963164222E+03  0.00000000000E+00 0. -1.
    9900018    1    3    3    0    0  0.71497695609E+02 -0.12199069024E+03 -0.30168721237E+03  0.34543306368E+03  0.91187600000E+02 0.  0.
<mgrwt>
<rscale>  0 0.83587012E+03</rscale>
<asrwt>0</asrwt>
<pdfrwt beam="1">  1        2 0.19101082E+00 0.83587012E+03</pdfrwt>
<pdfrwt beam="2">  1       -2 0.21643771E-01 0.83587012E+03</pdfrwt>
<totfact> 0.33373693E+02</totfact>
</mgrwt>
</event>
<event>
11    1  0.8134936E-014  0.8867711E+03  0.7818608E-02  0.9442271E-01
         -2   -1    0    0    0  501 -0.00000000000E+00  0.00000000000E+00  0.28254634223E+03  0.28254634223E+03  0.00000000000E+00 0.  1.
          2   -1    0    0  501    0  0.00000000000E+00 -0.00000000000E+00 -0.69578226778E+03  0.69578226778E+03  0.00000000000E+00 0. -1.
    9900016    2    1    2    0    0 -0.72015368814E+02  0.13983940818E+03 -0.34500569659E+03  0.80687413335E+03  0.71223287130E+03 0.  0.
         23    2    3    3    0    0 -0.13030245224E+03  0.18442184392E+02 -0.39462106493E+01  0.17310690296E+03  0.11239032008E+03 0.  0.
        -15    1    3    3    0    0  0.25444674156E+02  0.39245983379E+02 -0.13796243679E+03  0.14567536724E+03  0.00000000000E+00 0.  1.
        -15    1    4    4    0    0 -0.14624878456E+02  0.38448408430E+02 -0.32340942038E+02  0.52326892823E+02  0.00000000000E+00 0. -1.
         15    1    3    3    0    0 -0.10388641290E+03 -0.78804766038E+02  0.31935815818E+02  0.13424780917E+03  0.00000000000E+00 0. -1.
         15    1    4    4    0    0 -0.11567757378E+03 -0.20006224038E+02  0.28394731388E+02  0.12078001013E+03  0.00000000000E+00 0.  1.
        -16    1    1    2    0    0  0.72015368814E+02 -0.13983940818E+03 -0.68230228959E+02  0.17145447667E+03  0.00000000000E+00 0.  1.
         16    1    3    3    0    0  0.23603735251E+02  0.10677911605E+03 -0.10148610177E+03  0.14919230809E+03  0.00000000000E+00 0. -1.
    9900018    1    3    3    0    0  0.11312508691E+03  0.54176890395E+02 -0.13354676320E+03  0.20465174589E+03  0.91187600000E+02 0.  0.
<mgrwt>
<rscale>  0 0.88677107E+03</rscale>
<asrwt>0</asrwt>
<pdfrwt beam="1">  1        2 0.10704343E+00 0.88677107E+03</pdfrwt>
<pdfrwt beam="2">  1       -2 0.43468668E-01 0.88677107E+03</pdfrwt>
<totfact> 0.20787240E+02</totfact>
</mgrwt>
</event>
<event>
11    1  0.7691902E-014  0.7971737E+03  0.7818608E-02  0.9564117E-01
         -2   -1    0    0    0  501 -0.00000000000E+00  0.00000000000E+00  0.17221275590E+03  0.17221275590E+03  0.00000000000E+00 0.  1.
          2   -1    0    0  501    0  0.00000000000E+00 -0.00000000000E+00 -0.92253016048E+03  0.92253016048E+03  0.00000000000E+00 0. -1.
    9900016    2    1    2    0    0 -0.95893483342E+01 -0.13703206653E+02 -0.60579208709E+03  0.94925305119E+03  0.73062820158E+03 0.  0.
         23    2    3    3    0    0  0.13380102279E+03  0.12634877566E+03 -0.27973563015E+03  0.33961557306E+03  0.56744937030E+02 0.  0.
        -15    1    3    3    0    0 -0.11720333894E-01 -0.79469106716E+02 -0.35665989714E+03  0.36540610461E+03  0.00000000000E+00 0.  1.
        -15    1    4    4    0    0  0.28500134106E+02  0.56544628618E+02 -0.12263915726E+03  0.13802143154E+03  0.00000000000E+00 0.  1.
         15    1    4    4    0    0  0.10530088869E+03  0.69804147040E+02 -0.15709647289E+03  0.20159414152E+03  0.00000000000E+00 0. -1.
         15    1    3    3    0    0 -0.74346268181E+02 -0.83105896485E+02  0.46119395731E+02  0.12066878754E+03  0.00000000000E+00 0. -1.
        -16    1    1    2    0    0  0.95893483342E+01  0.13703206653E+02 -0.14452531749E+03  0.14548986518E+03  0.00000000000E+00 0.  1.
         16    1    3    3    0    0 -0.58560368744E+01  0.75806264107E+01  0.31437978844E+01  0.10081791993E+02  0.00000000000E+00 0. -1.
    9900018    1    3    3    0    0 -0.63176345738E+02  0.14942394480E+02 -0.18659753411E+02  0.11348079399E+03  0.91187600000E+02 0.  0.
<mgrwt>
<rscale>  0 0.79717366E+03</rscale>
<asrwt>0</asrwt>
<pdfrwt beam="1">  1        2 0.14192772E+00 0.79717366E+03</pdfrwt>
<pdfrwt beam="2">  1       -2 0.26494270E-01 0.79717366E+03</pdfrwt>
<totfact> 0.36683287E+02</totfact>
</mgrwt>
</event>
<event>
11    1  0.7691902E-014  0.1040441E+04  0.7818608E-02  0.9265269E-01
         -5   -1    0    0    0  501 -0.00000000000E+00  0.00000000000E+00  0.38985032492E+03  0.38985032492E+03  0.00000000000E+00 0.  1.
          5   -1    0    0  501    0  0.00000000000E+00 -0.00000000000E+00 -0.69418838137E+03  0.69418838137E+03  0.00000000000E+00 0. -1.
    9900016    2    1    2    0    0 -0.79636407244E+02  0.26685259006E+03 -0.25119901478E+03  0.80053205746E+03  0.70724703450E+03 0.  0.
         23    2    3    3    0    0  0.68074788392E+02  0.59990938948E+02 -0.12548473519E+03  0.16775524699E+03  0.64516002337E+02 0.  0.
        -15    1    4    4    0    0  0.64764130812E+02  0.33458877293E+02 -0.51959225272E+02  0.89518993518E+02  0.00000000000E+00 0.  1.
        -15    1    3    3    0    0 -0.56096335251E+02  0.76889617849E+02 -0.22973703127E+03  0.24867230585E+03  0.00000000000E+00 0.  1.
         15    1    3    3    0    0 -0.39860882298E+02 -0.47241521708E+02 -0.22760785664E+02  0.65868844493E+02  0.00000000000E+00 0. -1.
         15    1    4    4    0    0  0.33106575798E+01  0.26532061655E+02 -0.73525509916E+02  0.78236253474E+02  0.00000000000E+00 0. -1.
        -16    1    3    3    0    0 -0.59861027656E+02  0.18915421218E+03  0.73093603722E+02  0.21143635809E+03  0.00000000000E+00 0.  1.
         16    1    1    2    0    0  0.79636407244E+02 -0.26685259006E+03 -0.53139041668E+02  0.28350664883E+03  0.00000000000E+00 0. -1.
    9900018    1    3    3    0    0  0.81070495695E+01 -0.11940657210E+02  0.53689933622E+02  0.10679930203E+03  0.91187600000E+02 0.  0.
<mgrwt>
<rscale>  0 0.10404414E+04</rscale>
<asrwt>0</asrwt>
<pdfrwt beam="1">  1        5 0.10679821E+00 0.10404414E+04</pdfrwt>
<pdfrwt beam="2">  1       -5 0.59976973E-01 0.10404414E+04</pdfrwt>
<totfact> 0.16604339E+00</totfact>
</mgrwt>
</event>
<event>
11    1  0.7691902E-014  0.2589981E+04  0.7818608E-02  0.8371612E-01
          1   -1    0    0  501    0  0.00000000000E+00  0.00000000000E+00  0.10850571034E+04  0.10850571034E+04  0.00000000000E+00 0. -1.
         -1   -1    0    0    0  501 -0.00000000000E+00 -0.00000000000E+00 -0.15455411376E+04  0.15455411376E+04  0.00000000000E+00 0.  1.
    9900016    2    1    2    0    0  0.83423343104E+03  0.25995184919E+03  0.58270407610E+03  0.12698036882E+04  0.71367848838E+03 0.  0.
         23    2    3    3    0    0 -0.83097374539E+02 -0.50803086294E+01  0.65004776391E+02  0.13122401322E+03  0.77866151195E+02 0.  0.
        -15    1    4    4    0    0 -0.13973066858E+02  0.63653967701E+00  0.60082562396E+02  0.61689270415E+02  0.00000000000E+00 0. -1.
        -15    1    3    3    0    0  0.15340772470E+02  0.17388506992E+02  0.85275098160E+01  0.24706636741E+02  0.00000000000E+00 0. -1.
         15    1    4    4    0    0 -0.69124307681E+02 -0.57168483064E+01  0.49222139942E+01  0.69534742809E+02  0.00000000000E+00 0.  1.
         15    1    3    3    0    0  0.58386129232E+03  0.15379504856E+03  0.29255785548E+03  0.67092251746E+03  0.00000000000E+00 0.  1.
        -16    1    1    2    0    0 -0.83423343104E+03 -0.25995184919E+03 -0.10431881103E+04  0.13607945528E+04  0.00000000000E+00 0.  1.
         16    1    3    3    0    0  0.98676493522E+02  0.90408828845E+02  0.13893807201E+03  0.19291084614E+03  0.00000000000E+00 0. -1.
    9900018    1    3    3    0    0  0.21945224727E+03  0.34397734258E+01  0.77675862409E+02  0.25003967459E+03  0.91187600000E+02 0.  0.
<mgrwt>
<rscale>  0 0.25899810E+04</rscale>
<asrwt>0</asrwt>
<pdfrwt beam="1">  1        1 0.16693186E+00 0.25899810E+04</pdfrwt>
<pdfrwt beam="2">  1       -1 0.23777556E+00 0.25899810E+04</pdfrwt>
<totfact> 0.96184375E-01</totfact>
</mgrwt>
</event>
