<event>
12    1  0.1466921E-011  0.4155066E+04  0.7818608E-02  0.7973975E-01
          1   -1    0    0  501    0  0.00000000000E+00  0.00000000000E+00  0.20687494830E+04  0.20687494830E+04  0.00000000000E+00 0. -1.
         -1   -1    0    0    0  501 -0.00000000000E+00 -0.00000000000E+00 -0.20863536828E+04  0.20863536828E+04  0.00000000000E+00 0.  1.
    9900016    2    1    2    0    0  0.37903636091E+02  0.97739191781E+02 -0.41282556504E+03  0.18974150481E+04  0.18489914230E+04 0.  0.
         23    2    3    3    0    0  0.18643863356E+03  0.21997607885E+03 -0.11231783665E+04  0.11614764605E+04  0.65947599972E+02 0.  0.
    9900016    2    1    2    0    0 -0.41687663906E+03 -0.27610083661E+03  0.33961615423E+03  0.18254375756E+04  0.17224591159E+04 0.  0.
        -15    1    5    5    0    0  0.11883200304E+02 -0.40276724445E+03 -0.63560013843E+03  0.75256242241E+03  0.00000000000E+00 0.  1.
        -15    1    4    4    0    0  0.39485805604E+02  0.37546254921E+02 -0.12829295639E+03  0.13938411948E+03  0.00000000000E+00 0.  1.
         15    1    4    4    0    0  0.14695282795E+03  0.18242982392E+03 -0.99488541015E+03  0.10220923410E+04  0.00000000000E+00 0. -1.
         15    1    5    5    0    0 -0.83821188970E+02  0.29589001221E+02  0.19328063289E+03  0.21274140115E+03  0.00000000000E+00 0. -1.
        -16    1    5    5    0    0 -0.34493865039E+03  0.97077406616E+02  0.78193565977E+03  0.86013375206E+03  0.00000000000E+00 0.  1.
         16    1    3    3    0    0 -0.14853499747E+03 -0.12223688707E+03  0.71035280150E+03  0.73593858754E+03  0.00000000000E+00 0. -1.
    9900018    1    1    2    0    0  0.37897300297E+03  0.17836164483E+03  0.55605211026E+02  0.43225054218E+03  0.91187600000E+02 0.  0.
<mgrwt>
<rscale>  0 0.41550659E+04</rscale>
<asrwt>0</asrwt>
<pdfrwt beam="1">  1        1 0.31826915E+00 0.41550659E+04</pdfrwt>
<pdfrwt beam="2">  1       -1 0.32097749E+00 0.41550659E+04</pdfrwt>
<totfact> 0.49877856E-02</totfact>
</mgrwt>
</event>
<event>
13    1  0.1466921E-011  0.4835068E+04  0.7818608E-02  0.7854466E-01
          2   -1    0    0  501    0  0.00000000000E+00  0.00000000000E+00  0.27888665092E+04  0.27888665092E+04  0.00000000000E+00 0. -1.
         -2   -1    0    0    0  501 -0.00000000000E+00 -0.00000000000E+00 -0.20956433555E+04  0.20956433555E+04  0.00000000000E+00 0.  1.
    9900016    2    1    2    0    0  0.12190991601E+03  0.23487236039E+03 -0.97496958401E+03  0.20998603887E+04  0.18408750389E+04 0.  0.
         23    2    3    3    0    0  0.35371574298E+02 -0.27183346815E+03  0.47627404556E+03  0.56026701586E+03  0.10916766884E+03 0.  0.
    9900016    2    1    2    0    0  0.30334252063E+03 -0.41015503906E+03  0.11385470916E+04  0.20772575471E+04  0.16608629071E+04 0.  0.
         24    2    5    5    0    0  0.70147796862E+03 -0.87341042845E+03  0.68827682709E+03  0.13184026849E+04  0.97691002022E+02 0.  0.
        -15    1    6    6    0    0  0.40056017314E+03 -0.55433850409E+03  0.45725280155E+03  0.82269055784E+03  0.00000000000E+00 0.  1.
        -15    1    4    4    0    0  0.64279947409E+02 -0.19335656200E+03  0.39052817134E+03  0.44048941454E+03  0.00000000000E+00 0.  1.
         15    1    5    5    0    0 -0.39813544799E+03  0.46325538938E+03  0.45027026456E+03  0.75885486220E+03  0.00000000000E+00 0. -1.
         15    1    4    4    0    0 -0.28908373111E+02 -0.78476906148E+02  0.85745874212E+02  0.11977760132E+03  0.00000000000E+00 0. -1.
        -16    1    3    3    0    0  0.86538341710E+02  0.50670582854E+03 -0.14512436296E+04  0.15395933728E+04  0.00000000000E+00 0.  1.
         16    1    6    6    0    0  0.30091779548E+03 -0.31907192435E+03  0.23102402554E+03  0.49571212707E+03  0.00000000000E+00 0. -1.
    9900018    1    1    2    0    0 -0.42525243664E+03  0.17528267867E+03  0.52964564610E+03  0.70739192894E+03  0.91187600000E+02 0.  0.
<mgrwt>
<rscale>  0 0.48350676E+04</rscale>
<asrwt>0</asrwt>
<pdfrwt beam="1">  1        2 0.42905638E+00 0.48350676E+04</pdfrwt>
<pdfrwt beam="2">  1       -2 0.32240667E+00 0.48350676E+04</pdfrwt>
<totfact> 0.40074210E-02</totfact>
</mgrwt>
</event>
<event>
12    1  0.1466921E-011  0.4688819E+04  0.7818608E-02  0.7878389E-01
          1   -1    0    0  501    0  0.00000000000E+00  0.00000000000E+00  0.23946735581E+04  0.23946735581E+04  0.00000000000E+00 0. -1.
         -1   -1    0    0    0  501 -0.00000000000E+00 -0.00000000000E+00 -0.22952007108E+04  0.22952007108E+04  0.00000000000E+00 0.  1.
    9900016    2    1    2    0    0 -0.64006748765E+03 -0.40796032408E+03  0.96347583572E+03  0.22150425700E+04  0.18444538178E+04 0.  0.
         23    2    3    3    0    0  0.22354141612E+03 -0.19660701328E+03 -0.45004067806E+03  0.54515649740E+03  0.77678261798E+02 0.  0.
        -24    2    1    2    0    0 -0.38167155699E+03  0.79268133843E+03  0.15686365992E+03  0.89820965708E+03  0.90318871541E+02 0.  0.
        -15    1    4    4    0    0  0.16262781249E+03 -0.18358746684E+03 -0.35271528602E+03  0.42960474435E+03  0.00000000000E+00 0.  1.
        -15    1    1    2    0    0  0.35709572637E+03 -0.32577189903E+03 -0.22242289749E+03  0.53208705427E+03  0.00000000000E+00 0.  1.
         15    1    4    4    0    0  0.60913603633E+02 -0.13019546438E+02 -0.97325392039E+02  0.11555175305E+03  0.00000000000E+00 0. -1.
         15    1    5    5    0    0 -0.85169804419E+02  0.10395103159E+03  0.30332834909E+02  0.13776717108E+03  0.00000000000E+00 0. -1.
        -16    1    5    5    0    0 -0.29650175257E+03  0.68873030684E+03  0.12653082501E+03  0.76044248600E+03  0.00000000000E+00 0.  1.
         16    1    3    3    0    0 -0.86360890377E+03 -0.21135331080E+03  0.14135165138E+04  0.16698860726E+04  0.00000000000E+00 0. -1.
    9900018    1    1    2    0    0  0.66464331827E+03 -0.58949115314E+02 -0.79844375080E+03  0.10445349876E+04  0.91187600000E+02 0.  0.
<mgrwt>
<rscale>  0 0.46888192E+04</rscale>
<asrwt>0</asrwt>
<pdfrwt beam="1">  1        1 0.36841132E+00 0.46888192E+04</pdfrwt>
<pdfrwt beam="2">  1       -1 0.35310780E+00 0.46888192E+04</pdfrwt>
<totfact> 0.17568097E-02</totfact>
</mgrwt>
</event>
<event>
12    1  0.1466921E-011  0.5183242E+04  0.7818608E-02  0.7800846E-01
          2   -1    0    0  501    0  0.00000000000E+00  0.00000000000E+00  0.44372010068E+04  0.44372010068E+04  0.00000000000E+00 0. -1.
         -2   -1    0    0    0  501 -0.00000000000E+00 -0.00000000000E+00 -0.15136791270E+04  0.15136791270E+04  0.00000000000E+00 0.  1.
    9900016    2    1    2    0    0  0.73541914239E+03  0.90315555561E+03  0.30066910324E+04  0.37122484387E+04  0.18395831684E+04 0.  0.
         23    2    3    3    0    0 -0.48652835913E+03 -0.37744777647E+02  0.26548621156E+03  0.56698962526E+03  0.11340103238E+03 0.  0.
    9900016    2    1    2    0    0 -0.73541914239E+03 -0.90315555561E+03 -0.83169152643E+02  0.22386316951E+04  0.19099799700E+04 0.  0.
        -15    1    5    5    0    0  0.34248393276E+03 -0.30511378300E+02  0.30622179718E+03  0.46043238100E+03  0.00000000000E+00 0.  1.
        -15    1    4    4    0    0 -0.14610330139E+03  0.39455568935E+02  0.67804640224E+02  0.16583240284E+03  0.00000000000E+00 0. -1.
         15    1    5    5    0    0 -0.69337783475E+03 -0.33355834650E+03 -0.26314046023E+01  0.76944195138E+03  0.00000000000E+00 0. -1.
         15    1    4    4    0    0 -0.34042505774E+03 -0.77200346582E+02  0.19768157134E+03  0.40115722241E+03  0.00000000000E+00 0.  1.
        -16    1    5    5    0    0 -0.43452122086E+03 -0.22057769983E+03  0.12594718050E+02  0.48746470638E+03  0.00000000000E+00 0.  1.
         16    1    3    3    0    0  0.12219475015E+04  0.94090033326E+03  0.27412048209E+04  0.31452588134E+04  0.00000000000E+00 0. -1.
    9900018    1    5    5    0    0  0.49995980469E+02 -0.31850813098E+03 -0.39935426327E+03  0.52129265633E+03  0.91187600000E+02 0.  0.
<mgrwt>
<rscale>  0 0.51832417E+04</rscale>
<asrwt>0</asrwt>
<pdfrwt beam="1">  1        2 0.68264630E+00 0.51832417E+04</pdfrwt>
<pdfrwt beam="2">  1       -2 0.23287371E+00 0.51832417E+04</pdfrwt>
<totfact> 0.82535855E-03</totfact>
</mgrwt>
</event>
