<event>
12    1  0.2773506E-014  0.3361904E+04  0.7818608E-02  0.8147320E-01
         -2   -1    0    0    0  501 -0.00000000000E+00  0.00000000000E+00  0.99136423299E+03  0.99136423299E+03  0.00000000000E+00 0.  1.
          2   -1    0    0  501    0  0.00000000000E+00 -0.00000000000E+00 -0.28502131187E+04  0.28502131187E+04  0.00000000000E+00 0. -1.
    9900016    2    1    2    0    0 -0.27792833043E+02 -0.13679817432E+03 -0.24104325740E+04  0.32726039365E+04  0.22091322163E+04 0.  0.
         24    2    3    3    0    0  0.19737475570E+03  0.89543759796E+02  0.15736646469E+01  0.23415317119E+03  0.88602212466E+02 0.  0.
         23    2    4    4    0    0  0.10004650216E+03  0.37541614372E+02 -0.16767537617E+02  0.12187065346E+03  0.56148289850E+02 0.  0.
        -15    1    5    5    0    0  0.38955901657E+02  0.42477995272E+02  0.23037334208E+01  0.57682315695E+02  0.00000000000E+00 0.  1.
        -15    1    4    4    0    0  0.18013533473E+02  0.70896886109E+01  0.62136792067E+01  0.20331278417E+02  0.00000000000E+00 0. -1.
         15    1    3    3    0    0 -0.31054394340E+03  0.77157773534E+03 -0.12531580857E+04  0.15040528349E+04  0.00000000000E+00 0. -1.
         15    1    5    5    0    0  0.61090600498E+02 -0.49363809004E+01 -0.19071271038E+02  0.64188337762E+02  0.00000000000E+00 0.  1.
        -16    1    1    2    0    0  0.27792833043E+02  0.13679817432E+03  0.55158368830E+03  0.56897341525E+03  0.00000000000E+00 0.  1.
         16    1    4    4    0    0  0.79314720071E+02  0.44912456814E+02  0.12127523058E+02  0.91951239320E+02  0.00000000000E+00 0. -1.
    9900018    1    3    3    0    0  0.85376354663E+02 -0.99791966945E+03 -0.11588481529E+04  0.15343979303E+04  0.91187600000E+02 0.  0.
<mgrwt>
<rscale>  0 0.33619038E+04</rscale>
<asrwt>0</asrwt>
<pdfrwt beam="1">  1        2 0.43849433E+00 0.33619038E+04</pdfrwt>
<pdfrwt beam="2">  1       -2 0.15251757E+00 0.33619038E+04</pdfrwt>
<totfact> 0.51314877E-01</totfact>
</mgrwt>
</event>
<event>
11    1  0.2773506E-014  0.3071629E+04  0.7818608E-02  0.8223567E-01
          1   -1    0    0  501    0  0.00000000000E+00  0.00000000000E+00  0.36830368527E+04  0.36830368527E+04  0.00000000000E+00 0. -1.
         -1   -1    0    0    0  501 -0.00000000000E+00 -0.00000000000E+00 -0.64042966559E+03  0.64042966559E+03  0.00000000000E+00 0.  1.
    9900016    2    1    2    0    0  0.36184999401E+03  0.55627234745E+02  0.32210514285E+04  0.39161924648E+04  0.21971256925E+04 0.  0.
         24    2    3    3    0    0 -0.39730213024E+03 -0.31933094970E+03  0.15448472257E+02  0.51619815675E+03  0.80004022455E+02 0.  0.
        -15    1    4    4    0    0 -0.16162670540E+02 -0.12235073894E+02 -0.61429632652E+01  0.21181712628E+02  0.00000000000E+00 0.  1.
        -15    1    4    4    0    0 -0.12308873812E+02 -0.12054860511E+02  0.12930057411E+02  0.21540993968E+02  0.00000000000E+00 0.  1.
         15    1    3    3    0    0  0.48561964724E+01  0.35890414036E+03  0.12942991257E+04  0.13431477921E+04  0.00000000000E+00 0. -1.
         15    1    4    4    0    0 -0.33118877317E+02 -0.25974732044E+02  0.99169975720E+01  0.43242266134E+02  0.00000000000E+00 0. -1.
        -16    1    1    2    0    0 -0.36184999401E+03 -0.55627234745E+02 -0.17844424138E+03  0.40727405355E+03  0.00000000000E+00 0.  1.
         16    1    4    4    0    0 -0.33571170857E+03 -0.26906628325E+03 -0.12556194610E+01  0.43023318402E+03  0.00000000000E+00 0. -1.
    9900018    1    3    3    0    0  0.75429592778E+03  0.16054044082E+02  0.19113038306E+04  0.20568465160E+04  0.91187600000E+02 0.  0.
<mgrwt>
<rscale>  0 0.30716289E+04</rscale>
<asrwt>0</asrwt>
<pdfrwt beam="1">  1        1 0.56662104E+00 0.30716289E+04</pdfrwt>
<pdfrwt beam="2">  1       -1 0.98527644E-01 0.30716289E+04</pdfrwt>
<totfact> 0.14841049E-01</totfact>
</mgrwt>
</event>
<event>
11    1  0.2773506E-014  0.2778105E+04  0.7818608E-02  0.8310098E-01
          1   -1    0    0  501    0  0.00000000000E+00  0.00000000000E+00  0.39343391156E+04  0.39343391156E+04  0.00000000000E+00 0. -1.
         -1   -1    0    0    0  501 -0.00000000000E+00 -0.00000000000E+00 -0.49041695599E+03  0.49041695599E+03  0.00000000000E+00 0.  1.
    9900016    2    1    2    0    0 -0.20052190879E+03  0.40096726241E+03  0.32087871400E+04  0.39185226681E+04  0.22039784955E+04 0.  0.
         24    2    3    3    0    0  0.99828912796E+02  0.42920888309E+03 -0.56367763658E+02  0.45201191735E+03  0.83374885267E+02 0.  0.
        -15    1    4    4    0    0 -0.54553765068E+01  0.40396695325E+02 -0.16504663150E+02  0.43977926642E+02  0.00000000000E+00 0.  1.
        -15    1    4    4    0    0  0.12573440629E+02  0.13795286478E+02  0.38394146248E+01  0.19056296674E+02  0.00000000000E+00 0.  1.
         15    1    4    4    0    0  0.26044705916E+02  0.95451750272E+02 -0.16232047715E+02  0.10026386542E+03  0.00000000000E+00 0. -1.
         15    1    3    3    0    0  0.31490495451E+03 -0.23504297690E+03  0.20353908903E+04  0.20729752549E+04  0.00000000000E+00 0. -1.
        -16    1    1    2    0    0  0.20052190879E+03 -0.40096726241E+03  0.23513501961E+03  0.50623340356E+03  0.00000000000E+00 0.  1.
         16    1    4    4    0    0  0.66666142757E+02  0.27956515101E+03 -0.27470467418E+02  0.28871382861E+03  0.00000000000E+00 0. -1.
    9900018    1    3    3    0    0 -0.61525577609E+03  0.20680135622E+03  0.12297640134E+04  0.13935354958E+04  0.91187600000E+02 0.  0.
<mgrwt>
<rscale>  0 0.27781048E+04</rscale>
<asrwt>0</asrwt>
<pdfrwt beam="1">  1        1 0.60528292E+00 0.27781048E+04</pdfrwt>
<pdfrwt beam="2">  1       -1 0.75448765E-01 0.27781048E+04</pdfrwt>
<totfact> 0.16774892E-01</totfact>
</mgrwt>
</event>
