<event>
13    1  0.2242069E-008  0.4376934E+04  0.7818608E-02  0.7932543E-01
         -2   -1    0    0    0  501 -0.00000000000E+00  0.00000000000E+00  0.15636169521E+04  0.15636169521E+04  0.00000000000E+00 0.  1.
          2   -1    0    0  501    0  0.00000000000E+00 -0.00000000000E+00 -0.30630187774E+04  0.30630187774E+04  0.00000000000E+00 0. -1.
    9900016    2    1    2    0    0 -0.40502894112E+03  0.71387609471E+03 -0.15322404982E+04  0.25336843578E+04  0.18434011931E+04 0.  0.
         24    2    3    3    0    0  0.52104172431E+03 -0.39264333582E+02 -0.11740852504E+04  0.12874490014E+04  0.77605344604E+02 0.  0.
    9900016    2    1    2    0    0  0.40502894112E+03 -0.71387609471E+03  0.32838672938E+02  0.20929513717E+04  0.19250193620E+04 0.  0.
        -24    2    5    5    0    0 -0.25565716254E+03 -0.49879774117E+03 -0.57575951321E+03  0.80973166765E+03  0.10003292054E+03 0.  0.
        -15    1    4    4    0    0  0.99774440242E+02 -0.66888697921E+00 -0.15861754063E+03  0.18738972899E+03  0.00000000000E+00 0.  1.
        -15    1    5    5    0    0 -0.16060394618E+03 -0.87508365673E+02  0.37157262553E+03  0.41414678271E+03  0.00000000000E+00 0.  1.
         15    1    3    3    0    0 -0.92607066544E+03  0.75314042829E+03 -0.35815524783E+03  0.12462353564E+04  0.00000000000E+00 0. -1.
         15    1    6    6    0    0 -0.14128180398E+03 -0.31166286137E+03 -0.28374709274E+03  0.44452975146E+03  0.00000000000E+00 0. -1.
        -16    1    6    6    0    0 -0.11437535856E+03 -0.18713487980E+03 -0.29201242046E+03  0.36520191619E+03  0.00000000000E+00 0.  1.
         16    1    4    4    0    0  0.42126728407E+03 -0.38595446603E+02 -0.10154677098E+04  0.11000592724E+04  0.00000000000E+00 0. -1.
    9900018    1    5    5    0    0  0.82129004984E+03 -0.12756998787E+03  0.23702556062E+03  0.86907292131E+03  0.91187600000E+02 0.  0.
<mgrwt>
<rscale>  0 0.43769341E+04</rscale>
<asrwt>0</asrwt>
<pdfrwt beam="1">  1        2 0.47123365E+00 0.43769341E+04</pdfrwt>
<pdfrwt beam="2">  1       -2 0.24055646E+00 0.43769341E+04</pdfrwt>
<totfact> 0.89292005E-02</totfact>
</mgrwt>
</event>
<event>
13    1  0.2242069E-008  0.4498214E+04  0.7818608E-02  0.7910950E-01
         -1   -1    0    0    0  501 -0.00000000000E+00  0.00000000000E+00  0.17326933720E+04  0.17326933720E+04  0.00000000000E+00 0.  1.
          1   -1    0    0  501    0  0.00000000000E+00 -0.00000000000E+00 -0.29194325507E+04  0.29194325507E+04  0.00000000000E+00 0. -1.
    9900016    2    1    2    0    0  0.62592224659E+02 -0.69467138254E+03 -0.15803576613E+04  0.25236208585E+04  0.18397406838E+04 0.  0.
        -24    2    3    3    0    0 -0.33638059734E+03 -0.11863857000E+04 -0.64463853721E+03  0.13937834535E+04  0.80065824056E+02 0.  0.
    9900016    2    1    2    0    0 -0.62592224659E+02  0.69467138254E+03  0.39361848255E+03  0.21285050642E+04  0.19720832087E+04 0.  0.
         24    2    5    5    0    0 -0.66751582584E+02  0.97750909561E+03  0.88938759041E+03  0.13265216998E+04  0.93111375139E+02 0.  0.
        -15    1    3    3    0    0  0.39897282200E+03  0.49171431743E+03 -0.93571912408E+03  0.11298374050E+04  0.00000000000E+00 0.  1.
        -15    1    6    6    0    0  0.33111912322E+01  0.13932902400E+03  0.16926935278E+03  0.21926161248E+03  0.00000000000E+00 0.  1.
         15    1    4    4    0    0 -0.18948174358E+03 -0.58117015500E+03 -0.35565597626E+03  0.70721513958E+03  0.00000000000E+00 0. -1.
         15    1    5    5    0    0 -0.10452416819E+03  0.96671910502E+02 -0.33876245664E+03  0.36746532087E+03  0.00000000000E+00 0. -1.
        -16    1    4    4    0    0 -0.14689885376E+03 -0.60521554497E+03 -0.28898256095E+03  0.68656831389E+03  0.00000000000E+00 0.  1.
         16    1    6    6    0    0 -0.70062773817E+02  0.83818007161E+03  0.72011823763E+03  0.11072600873E+04  0.00000000000E+00 0. -1.
    9900018    1    5    5    0    0  0.10868352611E+03 -0.37950962358E+03 -0.15700665122E+03  0.43451804354E+03  0.91187600000E+02 0.  0.
<mgrwt>
<rscale>  0 0.44982136E+04</rscale>
<asrwt>0</asrwt>
<pdfrwt beam="1">  1        1 0.44914347E+00 0.44982136E+04</pdfrwt>
<pdfrwt beam="2">  1       -1 0.26656821E+00 0.44982136E+04</pdfrwt>
<totfact> 0.27954593E-02</totfact>
</mgrwt>
</event>
<event>
13    1  0.2242069E-008  0.4266789E+04  0.7818608E-02  0.7952788E-01
         -2   -1    0    0    0  501 -0.00000000000E+00  0.00000000000E+00  0.13406327375E+04  0.13406327375E+04  0.00000000000E+00 0.  1.
          2   -1    0    0  501    0  0.00000000000E+00 -0.00000000000E+00 -0.33949438369E+04  0.33949438369E+04  0.00000000000E+00 0. -1.
    9900016    2    1    2    0    0 -0.17125254738E+03  0.23998174288E+03 -0.10623711142E+04  0.21480832567E+04  0.18435592265E+04 0.  0.
        -24    2    3    3    0    0 -0.42751825216E+03 -0.70833003720E+03 -0.74304946822E+03  0.11151584496E+04  0.83381999659E+02 0.  0.
    9900016    2    1    2    0    0  0.50917263533E+03 -0.12632875313E+03 -0.93979185639E+03  0.22158192755E+04  0.19368610177E+04 0.  0.
         24    2    5    5    0    0 -0.10513893638E+03 -0.60563337562E+03  0.34651438310E+03  0.71192587166E+03  0.94447061565E+02 0.  0.
        -15    1    3    3    0    0  0.25626570478E+03  0.94831178008E+03 -0.31932164598E+03  0.10329248072E+04  0.00000000000E+00 0.  1.
        -15    1    6    6    0    0 -0.17887955199E+02 -0.26929557596E+03  0.10917757554E+03  0.29113541381E+03  0.00000000000E+00 0.  1.
         15    1    4    4    0    0 -0.19089326781E+03 -0.25813697469E+03 -0.32456775614E+03  0.45652947958E+03  0.00000000000E+00 0. -1.
         15    1    5    5    0    0  0.61431157171E+03  0.47930462249E+03 -0.12863062395E+04  0.15038934038E+04  0.00000000000E+00 0. -1.
        -16    1    4    4    0    0 -0.23662498434E+03 -0.45019306251E+03 -0.41848171208E+03  0.65862896998E+03  0.00000000000E+00 0.  1.
         16    1    6    6    0    0 -0.87250981186E+02 -0.33633779966E+03  0.23733680756E+03  0.42079045785E+03  0.00000000000E+00 0. -1.
    9900018    1    1    2    0    0 -0.33792008795E+03 -0.11365298975E+03 -0.52148128764E+02  0.37167404220E+03  0.91187600000E+02 0.  0.
<mgrwt>
<rscale>  0 0.42667894E+04</rscale>
<asrwt>0</asrwt>
<pdfrwt beam="1">  1        2 0.52229904E+00 0.42667894E+04</pdfrwt>
<pdfrwt beam="2">  1       -2 0.20625119E+00 0.42667894E+04</pdfrwt>
<totfact> 0.89699703E-02</totfact>
</mgrwt>
</event>
