<event>
10    1  0.1331341E-009  0.2571082E+04  0.7818608E-02  0.8378091E-01
         -1   -1    0    0    0  501 -0.00000000000E+00  0.00000000000E+00  0.50349638749E+03  0.50349638749E+03  0.00000000000E+00 0.  1.
          1   -1    0    0  501    0  0.00000000000E+00 -0.00000000000E+00 -0.32822783959E+04  0.32822783959E+04  0.00000000000E+00 0. -1.
    9900016    2    1    2    0    0  0.44435118607E+02 -0.29608388913E+03 -0.14985465073E+04  0.24006919451E+04  0.18514967003E+04 0.  0.
        -15    1    3    3    0    0 -0.43836852005E+03  0.57785581933E+02 -0.78882354195E+03  0.90429459425E+03  0.00000000000E+00 0.  1.
        -15    1    3    3    0    0 -0.20356703013E+03  0.20189527780E+02  0.12702043400E+03  0.24079315489E+03  0.00000000000E+00 0.  1.
         15    1    3    3    0    0  0.29532457887E+03  0.60864840125E+02 -0.10805202194E+03  0.32030668912E+03  0.00000000000E+00 0. -1.
         15    1    3    3    0    0  0.10436895391E+03 -0.10471953228E+03 -0.15882441419E+03  0.21698906314E+03  0.00000000000E+00 0. -1.
        -16    1    3    3    0    0  0.28667713601E+03 -0.33020430669E+03 -0.56986696321E+03  0.71830844366E+03  0.00000000000E+00 0.  1.
         16    1    1    2    0    0  0.89911013360E+02 -0.67969048224E+02 -0.45304271652E+03  0.46685274427E+03  0.00000000000E+00 0. -1.
    9900018    1    1    2    0    0 -0.13434613197E+03  0.36405293736E+03 -0.82719278460E+03  0.91823009407E+03  0.91187600000E+02 0.  0.
<mgrwt>
<rscale>  0 0.25710817E+04</rscale>
<asrwt>0</asrwt>
<pdfrwt beam="1">  1        1 0.50496592E+00 0.25710817E+04</pdfrwt>
<pdfrwt beam="2">  1       -1 0.77460981E-01 0.25710817E+04</pdfrwt>
<totfact> 0.54344571E-01</totfact>
</mgrwt>
</event>
<event>
11    1  0.1331341E-009  0.2304930E+04  0.7818608E-02  0.8475980E-01
         -2   -1    0    0    0  501 -0.00000000000E+00  0.00000000000E+00  0.63540765311E+03  0.63540765311E+03  0.00000000000E+00 0. -1.
          2   -1    0    0  501    0  0.00000000000E+00 -0.00000000000E+00 -0.20902740484E+04  0.20902740484E+04  0.00000000000E+00 0.  1.
    9900016    2    1    2    0    0  0.19315120142E+02 -0.22516113477E+03 -0.13667446057E+04  0.23069888012E+04  0.18447590361E+04 0.  0.
        -24    2    3    3    0    0  0.12424673470E+03 -0.62515834928E+03 -0.31745592091E+03  0.71439805055E+03  0.57672351686E+02 0.  0.
        -15    1    3    3    0    0  0.64977629614E+02 -0.15220064938E+03 -0.86446900418E+01  0.16571620527E+03  0.00000000000E+00 0.  1.
        -15    1    3    3    0    0 -0.27272163361E+02  0.64611580182E+03 -0.10732338505E+04  0.12530124892E+04  0.00000000000E+00 0.  1.
         15    1    4    4    0    0  0.97767104055E+02 -0.34768476672E+03 -0.17336297681E+03  0.40062179842E+03  0.00000000000E+00 0. -1.
         15    1    3    3    0    0 -0.14263708081E+03 -0.93917937933E+02  0.32589855742E+02  0.17386205620E+03  0.00000000000E+00 0. -1.
        -16    1    4    4    0    0  0.26479630644E+02 -0.27747358256E+03 -0.14409294410E+03  0.31377625213E+03  0.00000000000E+00 0.  1.
         16    1    1    2    0    0 -0.34427798216E+02  0.26731618092E+03  0.20083397246E+02  0.27027126506E+03  0.00000000000E+00 0. -1.
    9900018    1    1    2    0    0  0.15112678075E+02 -0.42155046150E+02 -0.10820518688E+03  0.14842163527E+03  0.91187600000E+02 0.  0.
<mgrwt>
<rscale>  0 0.23049305E+04</rscale>
<asrwt>0</asrwt>
<pdfrwt beam="1">  1        2 0.32158062E+00 0.23049305E+04</pdfrwt>
<pdfrwt beam="2">  1       -2 0.97755024E-01 0.23049305E+04</pdfrwt>
<totfact> 0.46988520E+00</totfact>
</mgrwt>
</event>
<event>
11    1  0.1331341E-009  0.3233333E+04  0.7818608E-02  0.8180069E-01
          2   -1    0    0  501    0  0.00000000000E+00  0.00000000000E+00  0.12587476340E+04  0.12587476340E+04  0.00000000000E+00 0. -1.
         -2   -1    0    0    0  501 -0.00000000000E+00 -0.00000000000E+00 -0.20763584470E+04  0.20763584470E+04  0.00000000000E+00 0.  1.
    9900016    2    1    2    0    0  0.58741060912E+03  0.23188594438E+03 -0.85229996501E+02  0.19462572014E+04  0.18389754285E+04 0.  0.
         24    2    3    3    0    0  0.23283516013E+03  0.21546450254E+02  0.24574426872E+03  0.34363294916E+03  0.54926285364E+02 0.  0.
        -15    1    3    3    0    0  0.29038243692E+03  0.45097701068E+03 -0.25134617409E+03  0.59234881874E+03  0.00000000000E+00 0.  1.
        -15    1    4    4    0    0  0.81850322432E+02 -0.52541832877E+01  0.11985732425E+03  0.14523381115E+03  0.00000000000E+00 0.  1.
         15    1    3    3    0    0 -0.31414290791E+03 -0.19126572486E+03  0.29806745656E+03  0.47340527327E+03  0.00000000000E+00 0. -1.
         15    1    3    3    0    0  0.37833591998E+03 -0.49371791702E+02 -0.37769554770E+03  0.53687016020E+03  0.00000000000E+00 0. -1.
        -16    1    1    2    0    0 -0.67547436633E+03  0.21856896367E+03 -0.48207810485E+03  0.85815925714E+03  0.00000000000E+00 0.  1.
         16    1    4    4    0    0  0.15098483770E+03  0.26800633541E+02  0.12588694447E+03  0.19839913800E+03  0.00000000000E+00 0. -1.
    9900018    1    1    2    0    0  0.88063757208E+02 -0.45045490804E+03 -0.25030271173E+03  0.53068962248E+03  0.91187600000E+02 0.  0.
<mgrwt>
<rscale>  0 0.32333334E+04</rscale>
<asrwt>0</asrwt>
<pdfrwt beam="1">  1        2 0.19365348E+00 0.32333334E+04</pdfrwt>
<pdfrwt beam="2">  1       -2 0.31943976E+00 0.32333334E+04</pdfrwt>
<totfact> 0.35418678E-01</totfact>
</mgrwt>
</event>
<event>
10    1  0.1331341E-009  0.3001156E+04  0.7818608E-02  0.8243401E-01
          1   -1    0    0  501    0  0.00000000000E+00  0.00000000000E+00  0.13176113691E+04  0.13176113691E+04  0.00000000000E+00 0. -1.
         -1   -1    0    0    0  501 -0.00000000000E+00 -0.00000000000E+00 -0.17089514336E+04  0.17089514336E+04  0.00000000000E+00 0.  1.
    9900016    2    1    2    0    0 -0.68596433545E+03  0.31066164039E+02 -0.64034186366E+03  0.20578986311E+04  0.18312282484E+04 0.  0.
        -15    1    3    3    0    0 -0.46031961857E+03 -0.90137552394E+02 -0.32090345603E+03  0.56832909277E+03  0.00000000000E+00 0.  1.
        -15    1    3    3    0    0  0.22986316380E+02 -0.15732399907E+03 -0.33517484342E+03  0.37097356656E+03  0.00000000000E+00 0.  1.
         15    1    3    3    0    0 -0.30972610194E+03  0.60648694395E+03  0.14625043372E+03  0.69652412791E+03  0.00000000000E+00 0. -1.
         15    1    3    3    0    0  0.14594746202E+03 -0.20585513198E+03 -0.73570431095E+02  0.26284901629E+03  0.00000000000E+00 0. -1.
        -16    1    1    2    0    0  0.68372692931E+03 -0.53794488687E+02 -0.17506177467E+02  0.68606328216E+03  0.00000000000E+00 0.  1.
         16    1    3    3    0    0 -0.84852393340E+02 -0.12210409647E+03 -0.56943566830E+02  0.15922282761E+03  0.00000000000E+00 0. -1.
    9900018    1    1    2    0    0  0.22374061376E+01  0.22728324648E+02  0.26650797660E+03  0.28260088944E+03  0.91187600000E+02 0.  0.
<mgrwt>
<rscale>  0 0.30011557E+04</rscale>
<asrwt>0</asrwt>
<pdfrwt beam="1">  1        1 0.20270944E+00 0.30011557E+04</pdfrwt>
<pdfrwt beam="2">  1       -1 0.26291561E+00 0.30011557E+04</pdfrwt>
<totfact> 0.42950729E-01</totfact>
</mgrwt>
</event>
<event>
11    1  0.1331341E-009  0.3136806E+04  0.7818608E-02  0.8205709E-01
         -1   -1    0    0    0  501 -0.00000000000E+00  0.00000000000E+00  0.73371528317E+03  0.73371528317E+03  0.00000000000E+00 0.  1.
          1   -1    0    0  501    0  0.00000000000E+00 -0.00000000000E+00 -0.33526456380E+04  0.33526456380E+04  0.00000000000E+00 0. -1.
    9900016    2    1    2    0    0 -0.33619303285E+03  0.50140912982E+03 -0.13550781750E+04  0.23627453612E+04  0.18389920910E+04 0.  0.
        -24    2    3    3    0    0 -0.32515039246E+03 -0.21109296733E+02 -0.37520509973E+03  0.49983753846E+03  0.53761676513E+02 0.  0.
        -15    1    3    3    0    0  0.46958933114E+03  0.22293640927E+03 -0.40369260720E+03  0.65816601523E+03  0.00000000000E+00 0.  1.
        -15    1    3    3    0    0 -0.65766385187E+02  0.55781512013E+03 -0.23556114118E+03  0.60907468910E+03  0.00000000000E+00 0.  1.
         15    1    4    4    0    0 -0.14537626280E+03  0.77757133322E+01 -0.13606542457E+03  0.19926996580E+03  0.00000000000E+00 0. -1.
         15    1    3    3    0    0 -0.41486558634E+03 -0.25823310285E+03 -0.34061932688E+03  0.59566711843E+03  0.00000000000E+00 0. -1.
        -16    1    4    4    0    0 -0.17977412966E+03 -0.28885010065E+02 -0.23913967516E+03  0.30056757266E+03  0.00000000000E+00 0.  1.
         16    1    1    2    0    0  0.46255424138E+03 -0.74498094502E+03 -0.10221035002E+04  0.13467177135E+04  0.00000000000E+00 0. -1.
    9900018    1    1    2    0    0 -0.12636120852E+03  0.24357181520E+03 -0.24174867965E+03  0.37689784648E+03  0.91187600000E+02 0.  0.
<mgrwt>
<rscale>  0 0.31368056E+04</rscale>
<asrwt>0</asrwt>
<pdfrwt beam="1">  1        1 0.51579164E+00 0.31368056E+04</pdfrwt>
<pdfrwt beam="2">  1       -1 0.11287927E+00 0.31368056E+04</pdfrwt>
<totfact> 0.19627844E-01</totfact>
</mgrwt>
</event>
<event>
10    1  0.1331341E-009  0.3766284E+04  0.7818608E-02  0.8053429E-01
          2   -1    0    0  501    0  0.00000000000E+00  0.00000000000E+00  0.27306672492E+04  0.27306672492E+04  0.00000000000E+00 0. -1.
         -2   -1    0    0    0  501 -0.00000000000E+00 -0.00000000000E+00 -0.12986654203E+04  0.12986654203E+04  0.00000000000E+00 0.  1.
    9900016    2    1    2    0    0  0.30756766535E+03 -0.37294413795E+03  0.77437875308E+03  0.20601921151E+04  0.18469011612E+04 0.  0.
        -15    1    3    3    0    0 -0.31773459023E+03 -0.44259915816E+03 -0.14014777165E+03  0.56257504614E+03  0.00000000000E+00 0.  1.
        -15    1    3    3    0    0  0.66778469909E+02 -0.11090011440E+03 -0.15354055267E+03  0.20083052739E+03  0.00000000000E+00 0.  1.
         15    1    3    3    0    0  0.66584235081E+02 -0.20931916421E+01  0.83771276637E+02  0.10703022284E+03  0.00000000000E+00 0. -1.
         15    1    3    3    0    0 -0.34087022510E+02  0.74787818272E+02  0.34603170660E+03  0.35565866338E+03  0.00000000000E+00 0. -1.
        -16    1    3    3    0    0  0.52602657310E+03  0.10786050798E+03  0.63826409417E+03  0.83409765537E+03  0.00000000000E+00 0.  1.
         16    1    1    2    0    0 -0.64300416236E+03 -0.14952016941E+03  0.10417953688E+04  0.12333483792E+04  0.00000000000E+00 0. -1.
    9900018    1    1    2    0    0  0.33543649701E+03  0.52246430737E+03 -0.38417229295E+03  0.73579217518E+03  0.91187600000E+02 0.  0.
<mgrwt>
<rscale>  0 0.37662836E+04</rscale>
<asrwt>0</asrwt>
<pdfrwt beam="1">  1        2 0.42010265E+00 0.37662836E+04</pdfrwt>
<pdfrwt beam="2">  1       -2 0.19979468E+00 0.37662836E+04</pdfrwt>
<totfact> 0.27301264E-01</totfact>
</mgrwt>
</event>
<event>
11    1  0.1331341E-009  0.2853210E+04  0.7818608E-02  0.8286937E-01
          1   -1    0    0  501    0  0.00000000000E+00  0.00000000000E+00  0.17766849162E+04  0.17766849162E+04  0.00000000000E+00 0. -1.
         -1   -1    0    0    0  501 -0.00000000000E+00 -0.00000000000E+00 -0.11455051659E+04  0.11455051659E+04  0.00000000000E+00 0.  1.
    9900016    2    1    2    0    0 -0.42866526103E+03 -0.27270311251E+03 -0.17447087909E+03  0.19152557240E+04  0.18383806752E+04 0.  0.
         24    2    3    3    0    0 -0.26415931636E+03 -0.21656639990E+03  0.31458914522E+03  0.46929646676E+03  0.67762035334E+02 0.  0.
        -15    1    4    4    0    0 -0.20278974173E+03 -0.18034620932E+03  0.21193520258E+03  0.34433263664E+03  0.00000000000E+00 0.  1.
        -15    1    3    3    0    0 -0.15606289368E+03  0.35935873592E+03 -0.43942946752E+03  0.58872114349E+03  0.00000000000E+00 0.  1.
         15    1    3    3    0    0  0.33329623302E+02 -0.79132501058E+02  0.33426898102E+03  0.34512109206E+03  0.00000000000E+00 0. -1.
         15    1    3    3    0    0 -0.41772674289E+02 -0.33636294747E+03 -0.38389953782E+03  0.51211702168E+03  0.00000000000E+00 0. -1.
        -16    1    1    2    0    0  0.29391638074E+03  0.30560802345E+03  0.47339950841E+03  0.63552356166E+03  0.00000000000E+00 0.  1.
         16    1    4    4    0    0 -0.61369574634E+02 -0.36220190583E+02  0.10265394264E+03  0.12496383011E+03  0.00000000000E+00 0. -1.
    9900018    1    1    2    0    0  0.13474888030E+03 -0.32904910939E+02  0.33225112101E+03  0.37141079644E+03  0.91187600000E+02 0.  0.
<mgrwt>
<rscale>  0 0.28532099E+04</rscale>
<asrwt>0</asrwt>
<pdfrwt beam="1">  1        1 0.27333614E+00 0.28532099E+04</pdfrwt>
<pdfrwt beam="2">  1       -1 0.17623156E+00 0.28532099E+04</pdfrwt>
<totfact> 0.80689937E-01</totfact>
</mgrwt>
</event>
<event>
11    1  0.1331341E-009  0.2529645E+04  0.7818608E-02  0.8392500E-01
          2   -1    0    0  501    0  0.00000000000E+00  0.00000000000E+00  0.31583432982E+04  0.31583432982E+04  0.00000000000E+00 0. -1.
         -2   -1    0    0    0  501 -0.00000000000E+00 -0.00000000000E+00 -0.50652373827E+03  0.50652373827E+03  0.00000000000E+00 0.  1.
    9900016    2    1    2    0    0  0.34901681902E+02  0.23280302142E+02  0.16802612342E+04  0.25228408942E+04  0.18814059271E+04 0.  0.
        -24    2    3    3    0    0  0.17397493516E+03  0.49357084231E+03  0.58090660614E+03  0.78882032390E+03  0.10442970792E+03 0.  0.
        -15    1    3    3    0    0 -0.36411681155E+03 -0.23796174824E+03  0.56980933131E+02  0.43869542147E+03  0.00000000000E+00 0.  1.
        -15    1    3    3    0    0  0.36251259560E+03 -0.28247199380E+03  0.32424957018E+03  0.56244430214E+03  0.00000000000E+00 0.  1.
         15    1    3    3    0    0 -0.13746903731E+03  0.50143201871E+02  0.71812412477E+03  0.73288084672E+03  0.00000000000E+00 0. -1.
         15    1    4    4    0    0  0.12698392839E+03  0.32519757777E+03  0.45446670928E+03  0.57307798117E+03  0.00000000000E+00 0. -1.
        -16    1    4    4    0    0  0.46991006767E+02  0.16837326453E+03  0.12643989686E+03  0.21574234273E+03  0.00000000000E+00 0.  1.
         16    1    1    2    0    0  0.11861452424E+02 -0.45694742845E+02  0.10237639785E+04  0.10248518855E+04  0.00000000000E+00 0. -1.
    9900018    1    1    2    0    0 -0.46763134326E+02  0.22414440703E+02 -0.52205652727E+02  0.11717425679E+03  0.91187600000E+02 0.  0.
<mgrwt>
<rscale>  0 0.25296449E+04</rscale>
<asrwt>0</asrwt>
<pdfrwt beam="1">  1        2 0.48589896E+00 0.25296449E+04</pdfrwt>
<pdfrwt beam="2">  1       -2 0.77926731E-01 0.25296449E+04</pdfrwt>
<totfact> 0.18010813E+00</totfact>
</mgrwt>
</event>
<event>
11    1  0.1331341E-009  0.2585664E+04  0.7818608E-02  0.8373087E-01
          2   -1    0    0  501    0  0.00000000000E+00  0.00000000000E+00  0.23095036836E+04  0.23095036836E+04  0.00000000000E+00 0. -1.
         -2   -1    0    0    0  501 -0.00000000000E+00 -0.00000000000E+00 -0.72371171793E+03  0.72371171793E+03  0.00000000000E+00 0.  1.
    9900016    2    1    2    0    0  0.35093608830E+03  0.28854834406E+03  0.80393352431E+03  0.20681041234E+04  0.18504943310E+04 0.  0.
         24    2    3    3    0    0 -0.24637089468E+03  0.40256944565E+03  0.31868631241E+03  0.57363586691E+03  0.68821259567E+02 0.  0.
        -15    1    4    4    0    0 -0.46877433452E+01  0.12285742099E+02 -0.24859158067E+01  0.13382607145E+02  0.00000000000E+00 0.  1.
        -15    1    3    3    0    0 -0.75612963274E+02 -0.79641226791E+02  0.47107189765E+02  0.11949532437E+03  0.00000000000E+00 0.  1.
         15    1    3    3    0    0  0.37382436788E+03 -0.84073110276E+02 -0.35717809076E+03  0.52382166279E+03  0.00000000000E+00 0. -1.
         15    1    3    3    0    0  0.29909557837E+03  0.49693235484E+02  0.79531811289E+03  0.85115126937E+03  0.00000000000E+00 0. -1.
        -16    1    1    2    0    0 -0.37564579020E+03 -0.28350654183E+03  0.66669025619E+03  0.81606471352E+03  0.00000000000E+00 0.  1.
         16    1    4    4    0    0 -0.24168315133E+03  0.39028370355E+03  0.32117222822E+03  0.56025325976E+03  0.00000000000E+00 0. -1.
    9900018    1    1    2    0    0  0.24709701906E+02 -0.50418022352E+01  0.11516818519E+03  0.14904656457E+03  0.91187600000E+02 0.  0.
<mgrwt>
<rscale>  0 0.25856642E+04</rscale>
<asrwt>0</asrwt>
<pdfrwt beam="1">  1        2 0.35530826E+00 0.25856642E+04</pdfrwt>
<pdfrwt beam="2">  1       -2 0.11134027E+00 0.25856642E+04</pdfrwt>
<totfact> 0.25294901E+00</totfact>
</mgrwt>
</event>
<event>
11    1  0.1331341E-009  0.2893815E+04  0.7818608E-02  0.8274720E-01
         -2   -1    0    0    0  501 -0.00000000000E+00  0.00000000000E+00  0.71791364066E+03  0.71791364066E+03  0.00000000000E+00 0.  1.
          2   -1    0    0  501    0  0.00000000000E+00 -0.00000000000E+00 -0.29161467755E+04  0.29161467755E+04  0.00000000000E+00 0. -1.
    9900016    2    1    2    0    0  0.11584070662E+03 -0.21736496610E+03 -0.11725159936E+04  0.21995694873E+04  0.18446261346E+04 0.  0.
        -24    2    3    3    0    0  0.24520374646E+03 -0.61394843664E+03 -0.83833610672E+03  0.10697359871E+04  0.66858762303E+02 0.  0.
        -15    1    3    3    0    0 -0.44982251284E+03  0.44223719643E+03 -0.15000656971E+03  0.64839494285E+03  0.00000000000E+00 0.  1.
        -15    1    3    3    0    0  0.24438327345E+03 -0.14559795451E+03 -0.35287968251E+02  0.28664819798E+03  0.00000000000E+00 0.  1.
         15    1    4    4    0    0  0.16357059544E+03 -0.43217732688E+03 -0.63173603906E+03  0.78270237294E+03  0.00000000000E+00 0. -1.
         15    1    3    3    0    0  0.76076199540E+02  0.99944228631E+02 -0.14888534893E+03  0.19479035936E+03  0.00000000000E+00 0. -1.
        -16    1    4    4    0    0  0.81633151021E+02 -0.18177110976E+03 -0.20660006766E+03  0.28703361414E+03  0.00000000000E+00 0.  1.
         16    1    1    2    0    0 -0.33793660877E+03  0.40714155750E+03 -0.99497514045E+03  0.11269165584E+04  0.00000000000E+00 0. -1.
    9900018    1    1    2    0    0  0.22209590216E+03 -0.18977659140E+03 -0.30742000774E+02  0.30757437053E+03  0.91187600000E+02 0.  0.
<mgrwt>
<rscale>  0 0.28938152E+04</rscale>
<asrwt>0</asrwt>
<pdfrwt beam="1">  1        2 0.44863797E+00 0.28938152E+04</pdfrwt>
<pdfrwt beam="2">  1       -2 0.11044825E+00 0.28938152E+04</pdfrwt>
<totfact> 0.11025068E+00</totfact>
</mgrwt>
</event>
<event>
11    1  0.1331341E-009  0.3257793E+04  0.7818608E-02  0.8173719E-01
         -2   -1    0    0    0  501 -0.00000000000E+00  0.00000000000E+00  0.24964560731E+04  0.24964560731E+04  0.00000000000E+00 0.  1.
          2   -1    0    0  501    0  0.00000000000E+00 -0.00000000000E+00 -0.10628278650E+04  0.10628278650E+04  0.00000000000E+00 0. -1.
    9900016    2    1    2    0    0  0.57485942774E+03  0.59252334235E+03  0.61757832306E+03  0.21337599616E+04  0.18681491684E+04 0.  0.
        -24    2    3    3    0    0  0.74688869440E+02 -0.23008843013E+03  0.69660842293E+03  0.74057214131E+03  0.68298526293E+02 0.  0.
        -15    1    3    3    0    0  0.32437219986E+03 -0.13259170613E+03  0.23466126501E+02  0.35121011328E+03  0.00000000000E+00 0.  1.
        -15    1    3    3    0    0  0.13587346259E+03  0.26814294097E+03 -0.17844827276E+03  0.34957977728E+03  0.00000000000E+00 0.  1.
         15    1    4    4    0    0 -0.11680356749E+02 -0.40226364408E+02  0.14146989741E+03  0.14754091975E+03  0.00000000000E+00 0. -1.
         15    1    3    3    0    0  0.39924895847E+02  0.68706053764E+03  0.75952046391E+02  0.69239792969E+03  0.00000000000E+00 0. -1.
        -16    1    4    4    0    0  0.86369226189E+02 -0.18986206572E+03  0.55513852552E+03  0.59303122157E+03  0.00000000000E+00 0.  1.
         16    1    1    2    0    0 -0.86689635647E+02 -0.28770122264E+03 -0.11948180992E+03  0.32336200974E+03  0.00000000000E+00 0. -1.
    9900018    1    1    2    0    0 -0.48816979209E+03 -0.30482211971E+03  0.93553169497E+03  0.11021619669E+04  0.91187600000E+02 0.  0.
<mgrwt>
<rscale>  0 0.32577926E+04</rscale>
<asrwt>0</asrwt>
<pdfrwt beam="1">  1        2 0.16351198E+00 0.32577926E+04</pdfrwt>
<pdfrwt beam="2">  1       -2 0.38407016E+00 0.32577926E+04</pdfrwt>
<totfact> 0.18134078E-01</totfact>
</mgrwt>
</event>
