<event>
12    1  0.1139294E-012  0.2770325E+04  0.7818608E-02  0.9149628E-01
         -1   -1    0    0    0  501 -0.00000000000E+00  0.00000000000E+00  0.10075953524E+04  0.10075953524E+04  0.00000000000E+00 0.  1.
          1   -1    0    0  501    0  0.00000000000E+00 -0.00000000000E+00 -0.20226466432E+04  0.20226466432E+04  0.00000000000E+00 0. -1.
         24    2    1    2    0    0  0.27856510631E+02  0.73708006670E+01 -0.28294331751E+02  0.89427271044E+02  0.79789433575E+02 0.  0.
    9900016    2    1    2    0    0 -0.21188399885E+03  0.18363074368E+03 -0.36718302560E+03  0.22668565913E+04  0.22192792416E+04 0.  0.
         23    2    4    4    0    0  0.55636835283E+03  0.12776376248E+03  0.12497676970E+02  0.58169846351E+03  0.11111969893E+03 0.  0.
        -15    1    3    3    0    0 -0.17590477596E+02 -0.56675272066E+01 -0.36993886983E+02  0.41353276059E+02  0.00000000000E+00 0.  1.
        -15    1    5    5    0    0  0.40520178371E+03  0.45405266938E+02 -0.11426841970E+02  0.40789789960E+03  0.00000000000E+00 0.  1.
         15    1    5    5    0    0  0.15116656912E+03  0.82358495538E+02  0.23924518940E+02  0.17380056390E+03  0.00000000000E+00 0. -1.
         15    1    1    2    0    0  0.18402748822E+03 -0.19100154435E+03 -0.61957393348E+03  0.67395813328E+03  0.00000000000E+00 0. -1.
        -16    1    4    4    0    0 -0.69335582517E+03 -0.51780124552E+03 -0.60687478385E+03  0.10569566847E+04  0.00000000000E+00 0.  1.
         16    1    3    3    0    0  0.45446988227E+02  0.13038327874E+02  0.86995552324E+01  0.48073994985E+02  0.00000000000E+00 0. -1.
    9900018    1    4    4    0    0 -0.74896526508E+02  0.57366822673E+03  0.22719408127E+03  0.62820144301E+03  0.91187600000E+02 0.  0.
<mgrwt>
<rscale>  0 0.11588828E+04</rscale>
<asrwt>0</asrwt>
<pdfrwt beam="1">  1        1 0.31117641E+00 0.27703252E+04</pdfrwt>
<pdfrwt beam="2">  1       -1 0.15501467E+00 0.27703252E+04</pdfrwt>
<totfact> 0.79415171E-01</totfact>
</mgrwt>
</event>
<event>
12    1  0.1139294E-012  0.2661012E+04  0.7818608E-02  0.9017421E-01
          2   -1    0    0  501    0  0.00000000000E+00  0.00000000000E+00  0.35917248669E+04  0.35917248669E+04  0.00000000000E+00 0. -1.
         -2   -1    0    0    0  501 -0.00000000000E+00 -0.00000000000E+00 -0.55737053722E+03  0.55737053722E+03  0.00000000000E+00 0.  1.
         24    2    1    2    0    0 -0.12644611775E+03  0.54036759027E+02  0.99483332936E+02  0.18747313227E+03  0.79628197074E+02 0.  0.
    9900016    2    1    2    0    0  0.37187312888E+03  0.24912479756E+03  0.23545354621E+04  0.32623864891E+04  0.22133629555E+04 0.  0.
         23    2    4    4    0    0 -0.42542895069E+03  0.29581297491E+03  0.26570175011E+03  0.59173638979E+03  0.10516380923E+03 0.  0.
        -15    1    5    5    0    0 -0.12098663997E+03  0.32011645150E+02  0.49825059851E+02  0.13470355996E+03  0.00000000000E+00 0. -1.
        -15    1    3    3    0    0 -0.97581061239E+02  0.24664682390E+02  0.10555080886E+03  0.14584712312E+03  0.00000000000E+00 0.  1.
         15    1    5    5    0    0 -0.30444231072E+03  0.26380132976E+03  0.21587669026E+03  0.45703282983E+03  0.00000000000E+00 0.  1.
         15    1    1    2    0    0 -0.24542701113E+03 -0.30316155659E+03  0.58033553464E+03  0.69923578280E+03  0.00000000000E+00 0. -1.
        -16    1    4    4    0    0  0.50092924648E+02 -0.57571770889E+03  0.14202585923E+04  0.15333279657E+04  0.00000000000E+00 0.  1.
         16    1    3    3    0    0 -0.28865056511E+02  0.29372076638E+02 -0.60674759288E+01  0.41626009148E+02  0.00000000000E+00 0. -1.
    9900018    1    4    4    0    0  0.74720915493E+03  0.52902953154E+03  0.66857511972E+03  0.11373221336E+04  0.91187600000E+02 0.  0.
<mgrwt>
<rscale>  0 0.13154253E+04</rscale>
<asrwt>0</asrwt>
<pdfrwt beam="1">  1        2 0.55257304E+00 0.26610117E+04</pdfrwt>
<pdfrwt beam="2">  1       -2 0.85749316E-01 0.26610117E+04</pdfrwt>
<totfact> 0.72470777E-01</totfact>
</mgrwt>
</event>
<event>
12    1  0.1139294E-012  0.3067769E+04  0.7818608E-02  0.8843587E-01
         -2   -1    0    0    0  501 -0.00000000000E+00  0.00000000000E+00  0.23468785672E+04  0.23468785672E+04  0.00000000000E+00 0.  1.
          2   -1    0    0  501    0  0.00000000000E+00 -0.00000000000E+00 -0.11459627412E+04  0.11459627412E+04  0.00000000000E+00 0. -1.
         24    2    1    2    0    0  0.15554158610E+02  0.19052241276E+03  0.12653116391E+03  0.24237813093E+03  0.78716588449E+02 0.  0.
    9900016    2    1    2    0    0 -0.70269284471E+03 -0.99755409558E+02  0.52562912623E+03  0.23664208363E+04  0.21954346313E+04 0.  0.
         23    2    4    4    0    0  0.17828890163E+03 -0.48324170196E+03  0.77733246857E+03  0.93829384916E+03  0.10411582835E+03 0.  0.
        -15    1    5    5    0    0  0.18084332737E+03 -0.47130381769E+03  0.71787983773E+03  0.87760074012E+03  0.00000000000E+00 0.  1.
        -15    1    3    3    0    0  0.37704815207E+02  0.16371715831E+03  0.85222894577E+02  0.18838233138E+03  0.00000000000E+00 0.  1.
         15    1    1    2    0    0  0.68713868610E+03 -0.90767003204E+02  0.54875553588E+03  0.88404234116E+03  0.00000000000E+00 0. -1.
         15    1    5    5    0    0 -0.25544257324E+01 -0.11937884261E+02  0.59452630840E+02  0.60693109043E+02  0.00000000000E+00 0. -1.
        -16    1    4    4    0    0  0.22836515000E+03  0.12956277389E+03 -0.73205482094E+02  0.27257328688E+03  0.00000000000E+00 0.  1.
         16    1    3    3    0    0 -0.22150656597E+02  0.26805254452E+02  0.41308269331E+02  0.53995799550E+02  0.00000000000E+00 0. -1.
    9900018    1    4    4    0    0 -0.11093468963E+04  0.25392351851E+03 -0.17849786025E+03  0.11555537003E+04  0.91187600000E+02 0.  0.
<mgrwt>
<rscale>  0 0.15630311E+04</rscale>
<asrwt>0</asrwt>
<pdfrwt beam="1">  1        2 0.17630196E+00 0.30677693E+04</pdfrwt>
<pdfrwt beam="2">  1       -2 0.36105824E+00 0.30677693E+04</pdfrwt>
<totfact> 0.22841420E-01</totfact>
</mgrwt>
</event>
<event>
11    1  0.1139294E-012  0.2956973E+04  0.7818608E-02  0.8256125E-01
         -1   -1    0    0    0  501 -0.00000000000E+00  0.00000000000E+00  0.91437328945E+03  0.91437328945E+03  0.00000000000E+00 0.  1.
          1   -1    0    0  501    0  0.00000000000E+00 -0.00000000000E+00 -0.23906243699E+04  0.23906243699E+04  0.00000000000E+00 0. -1.
         24    2    1    2    0    0 -0.16521775172E+03  0.14943018927E+02 -0.85927231842E+03  0.87886845144E+03  0.80874213704E+02 0.  0.
    9900016    2    1    2    0    0  0.20786106514E+03 -0.68330384369E+02 -0.46182867589E+03  0.22565998234E+04  0.21979721958E+04 0.  0.
        -15    1    3    3    0    0 -0.10095716608E+03  0.16986551460E+02 -0.32503965651E+03  0.34078097162E+03  0.00000000000E+00 0.  1.
        -15    1    4    4    0    0  0.42033423352E+03  0.39650942878E+03 -0.53503776679E+03  0.78750619481E+03  0.00000000000E+00 0.  1.
         15    1    1    2    0    0 -0.42643313416E+02  0.53387365442E+02 -0.15515008610E+03  0.16952938443E+03  0.00000000000E+00 0. -1.
         15    1    4    4    0    0  0.34776567183E+03 -0.51254385505E+03  0.54612046186E+02  0.62179147746E+03  0.00000000000E+00 0. -1.
        -16    1    4    4    0    0 -0.53385783127E+03  0.23475374092E+03 -0.12063647930E+03  0.59553896851E+03  0.00000000000E+00 0.  1.
         16    1    3    3    0    0 -0.64260585639E+02 -0.20435325333E+01 -0.53423266191E+03  0.53808747983E+03  0.00000000000E+00 0. -1.
    9900018    1    4    4    0    0 -0.26381008939E+02 -0.18704969901E+03  0.13923352402E+03  0.25176318265E+03  0.91187600000E+02 0.  0.
<mgrwt>
<rscale>  0 0.29569735E+04</rscale>
<asrwt>0</asrwt>
<pdfrwt beam="1">  1        1 0.36778837E+00 0.29569735E+04</pdfrwt>
<pdfrwt beam="2">  1       -1 0.14067281E+00 0.29569735E+04</pdfrwt>
<totfact> 0.56995600E-01</totfact>
</mgrwt>
</event>
<event>
12    1  0.1139294E-012  0.4545155E+04  0.7818608E-02  0.8299567E-01
          1   -1    0    0  501    0  0.00000000000E+00  0.00000000000E+00  0.29876817853E+04  0.29876817853E+04  0.00000000000E+00 0. -1.
         -1   -1    0    0    0  501 -0.00000000000E+00 -0.00000000000E+00 -0.22774384995E+04  0.22774384995E+04  0.00000000000E+00 0.  1.
         24    2    1    2    0    0  0.36724738474E+03 -0.55001207166E+03  0.71301874877E+01  0.66590315005E+03  0.77409593133E+02 0.  0.
    9900016    2    1    2    0    0  0.46386520721E+02 -0.69858331058E+03 -0.97439239955E+03  0.24675257567E+04  0.21561707865E+04 0.  0.
         23    2    4    4    0    0 -0.10508916609E+03  0.34245491643E+03  0.21068543113E+03  0.43372724074E+03  0.12414453614E+03 0.  0.
        -15    1    3    3    0    0  0.26797105995E+03 -0.45685814724E+03  0.97980958219E+01  0.52973942495E+03  0.00000000000E+00 0.  1.
        -15    1    5    5    0    0 -0.83157359261E+02  0.10238960357E+03  0.38249997645E+02  0.13733841283E+03  0.00000000000E+00 0.  1.
         15    1    5    5    0    0 -0.21931806824E+02  0.24006531286E+03  0.17243543349E+03  0.29638882791E+03  0.00000000000E+00 0. -1.
         15    1    1    2    0    0 -0.41363390546E+03  0.12485953822E+04  0.16775054978E+04  0.21316913781E+04  0.00000000000E+00 0. -1.
        -16    1    4    4    0    0 -0.37358607810E+03 -0.71873947898E+03 -0.14705530649E+03  0.82327289495E+03  0.00000000000E+00 0.  1.
         16    1    3    3    0    0  0.99276324783E+02 -0.93153924425E+02 -0.26679083342E+01  0.13616372510E+03  0.00000000000E+00 0. -1.
    9900018    1    4    4    0    0  0.52506176490E+03 -0.32229874803E+03 -0.10380225242E+04  0.12105256210E+04  0.91187600000E+02 0.  0.
<mgrwt>
<rscale>  0 0.28119529E+04</rscale>
<asrwt>0</asrwt>
<pdfrwt beam="1">  1        1 0.45964335E+00 0.45451546E+04</pdfrwt>
<pdfrwt beam="2">  1       -1 0.35037515E+00 0.45451546E+04</pdfrwt>
<totfact> 0.68971352E-03</totfact>
</mgrwt>
</event>
<event>
12    1  0.1139294E-012  0.3796006E+04  0.7818608E-02  0.8847519E-01
         -2   -1    0    0    0  501 -0.00000000000E+00  0.00000000000E+00  0.15614041392E+04  0.15614041392E+04  0.00000000000E+00 0.  1.
          2   -1    0    0  501    0  0.00000000000E+00 -0.00000000000E+00 -0.25364407254E+04  0.25364407254E+04  0.00000000000E+00 0. -1.
         24    2    1    2    0    0  0.76808819248E+02 -0.99782330188E+01 -0.19486026903E+03  0.22249487292E+03  0.74392769678E+02 0.  0.
    9900016    2    1    2    0    0 -0.52159040144E+03 -0.74288045858E+03  0.40123712590E+03  0.24055321155E+04  0.21912703177E+04 0.  0.
         23    2    4    4    0    0 -0.20708606297E+03 -0.55865299039E+03 -0.56397632453E+03  0.82391169875E+03  0.76048613148E+02 0.  0.
        -15    1    5    5    0    0  0.37672121860E+01 -0.33724908901E+02 -0.43837499321E+02  0.55437241226E+02  0.00000000000E+00 0.  1.
        -15    1    3    3    0    0  0.85171307172E+02 -0.17548689679E+01 -0.19253295598E+03  0.21053781197E+03  0.00000000000E+00 0.  1.
         15    1    5    5    0    0 -0.21085327516E+03 -0.52492808149E+03 -0.52013882521E+03  0.76847445753E+03  0.00000000000E+00 0. -1.
         15    1    1    2    0    0  0.44478158219E+03  0.75285869160E+03 -0.11814134432E+04  0.14698178762E+04  0.00000000000E+00 0. -1.
        -16    1    4    4    0    0 -0.48606450934E+02  0.50294169701E+03  0.46248363589E+03  0.68498470868E+03  0.00000000000E+00 0.  1.
         16    1    3    3    0    0 -0.83624879240E+01 -0.82233640509E+01 -0.23273130545E+01  0.11957060953E+02  0.00000000000E+00 0. -1.
    9900018    1    4    4    0    0 -0.26589788753E+03 -0.68716916520E+03  0.50272981455E+03  0.89663570809E+03  0.91187600000E+02 0.  0.
<mgrwt>
<rscale>  0 0.15568259E+04</rscale>
<asrwt>0</asrwt>
<pdfrwt beam="1">  1        2 0.39022165E+00 0.37960061E+04</pdfrwt>
<pdfrwt beam="2">  1       -2 0.24021602E+00 0.37960061E+04</pdfrwt>
<totfact> 0.19502011E-01</totfact>
</mgrwt>
</event>
<event>
12    1  0.1139294E-012  0.3461721E+04  0.7818608E-02  0.8975209E-01
         -1   -1    0    0    0  501 -0.00000000000E+00  0.00000000000E+00  0.99318307378E+03  0.99318307378E+03  0.00000000000E+00 0.  1.
          1   -1    0    0  501    0  0.00000000000E+00 -0.00000000000E+00 -0.31878329470E+04  0.31878329470E+04  0.00000000000E+00 0. -1.
         24    2    1    2    0    0  0.16814728954E+02 -0.22872240097E+02 -0.57649946387E+01  0.85319802745E+02  0.80251847956E+02 0.  0.
    9900016    2    1    2    0    0  0.24422103252E+03 -0.93731327537E+03 -0.11817931940E+04  0.26799527547E+04  0.22016610831E+04 0.  0.
         23    2    4    4    0    0 -0.13335613619E+03 -0.25212252315E+03 -0.66886295521E+03  0.73103675049E+03  0.75415197191E+02 0.  0.
        -15    1    5    5    0    0  0.69556365631E+01 -0.34207428213E+02 -0.99872228582E+02  0.10579693316E+03  0.00000000000E+00 0. -1.
        -15    1    3    3    0    0 -0.14757522921E+02 -0.34555827442E+02 -0.26319661643E+02  0.45876075267E+02  0.00000000000E+00 0.  1.
         15    1    5    5    0    0 -0.14031177275E+03 -0.21791509494E+03 -0.56899072663E+03  0.62523981732E+03  0.00000000000E+00 0.  1.
         15    1    1    2    0    0 -0.26103576147E+03  0.96018551547E+03 -0.10070916847E+04  0.14157434634E+04  0.00000000000E+00 0. -1.
        -16    1    4    4    0    0 -0.57847947020E+02  0.34485056041E+03  0.37894258607E+03  0.51562173880E+03  0.00000000000E+00 0.  1.
         16    1    3    3    0    0  0.31572251874E+02  0.11683587345E+02  0.20554667005E+02  0.39443727477E+02  0.00000000000E+00 0. -1.
    9900018    1    4    4    0    0  0.43542511573E+03 -0.10300413126E+04 -0.89187282481E+03  0.14332942654E+04  0.91187600000E+02 0.  0.
<mgrwt>
<rscale>  0 0.13708283E+04</rscale>
<asrwt>0</asrwt>
<pdfrwt beam="1">  1        1 0.49043584E+00 0.34617207E+04</pdfrwt>
<pdfrwt beam="2">  1       -1 0.15279740E+00 0.34617207E+04</pdfrwt>
<totfact> 0.11741834E-01</totfact>
</mgrwt>
</event>
<event>
12    1  0.1139294E-012  0.4441179E+04  0.7818608E-02  0.8320249E-01
          2   -1    0    0  501    0  0.00000000000E+00  0.00000000000E+00  0.30075282243E+04  0.30075282243E+04  0.00000000000E+00 0. -1.
         -2   -1    0    0    0  501 -0.00000000000E+00 -0.00000000000E+00 -0.22150394092E+04  0.22150394092E+04  0.00000000000E+00 0.  1.
         24    2    1    2    0    0  0.60009590755E+03  0.23365661268E+03 -0.18539823265E+03  0.67500408056E+03  0.80916581742E+02 0.  0.
    9900016    2    1    2    0    0  0.58547855632E+03  0.11999070842E+04  0.66911252497E+03  0.26618187694E+04  0.22034076880E+04 0.  0.
         23    2    4    4    0    0 -0.11591096333E+03 -0.53049757620E+03  0.79546325301E+02  0.55889925726E+03  0.10572479431E+03 0.  0.
        -15    1    5    5    0    0  0.76887944503E+01 -0.23380706731E+02 -0.14450496656E+02  0.28541055708E+02  0.00000000000E+00 0. -1.
        -15    1    3    3    0    0  0.53790760636E+03  0.21588501202E+03 -0.14088645574E+03  0.59648966865E+03  0.00000000000E+00 0.  1.
         15    1    1    2    0    0 -0.11855744639E+04 -0.14335636969E+04  0.30877452279E+03  0.18857447835E+04  0.00000000000E+00 0. -1.
         15    1    5    5    0    0 -0.12359975778E+03 -0.50711686947E+03  0.93996821957E+02  0.53035820156E+03  0.00000000000E+00 0.  1.
        -16    1    4    4    0    0  0.48158741795E+03  0.31837087414E+03  0.26202960257E+03  0.63399208768E+03  0.00000000000E+00 0.  1.
         16    1    3    3    0    0  0.62188301193E+02  0.17771600658E+02 -0.44511776903E+02  0.78514411914E+02  0.00000000000E+00 0. -1.
    9900018    1    4    4    0    0  0.21980210170E+03  0.14120337863E+04  0.32753659710E+03  0.14689274245E+04  0.91187600000E+02 0.  0.
<mgrwt>
<rscale>  0 0.27459479E+04</rscale>
<asrwt>0</asrwt>
<pdfrwt beam="1">  1        2 0.46269665E+00 0.44411790E+04</pdfrwt>
<pdfrwt beam="2">  1       -2 0.34077529E+00 0.44411790E+04</pdfrwt>
<totfact> 0.22708890E-02</totfact>
</mgrwt>
</event>
<event>
11    1  0.1139294E-012  0.2861982E+04  0.7818608E-02  0.9123188E-01
          3   -1    0    0  501    0  0.00000000000E+00  0.00000000000E+00  0.11387145785E+04  0.11387145785E+04  0.00000000000E+00 0. -1.
         -3   -1    0    0    0  501 -0.00000000000E+00 -0.00000000000E+00 -0.20508708523E+04  0.20508708523E+04  0.00000000000E+00 0.  1.
         24    2    1    2    0    0  0.30297281520E+02 -0.16862859608E+02 -0.23312452730E+03  0.24815316391E+03  0.77657364290E+02 0.  0.
    9900016    2    1    2    0    0  0.10975320135E+03 -0.82476608273E+02 -0.11135603567E+04  0.24742090004E+04  0.22051860134E+04 0.  0.
        -15    1    3    3    0    0 -0.24087453264E+02 -0.28413559564E+01 -0.11263690676E+03  0.11521871147E+03  0.00000000000E+00 0.  1.
        -15    1    4    4    0    0 -0.20111511498E+03  0.19978314534E+03  0.15313995920E+03  0.32219938196E+03  0.00000000000E+00 0. -1.
         15    1    1    2    0    0 -0.14005048287E+03  0.99339467882E+02  0.43452861027E+03  0.46722326652E+03  0.00000000000E+00 0. -1.
         15    1    4    4    0    0  0.69744221506E+02  0.33079721559E+03  0.15134762729E+03  0.37040134795E+03  0.00000000000E+00 0.  1.
        -16    1    4    4    0    0  0.47279381905E+03 -0.68505205200E+02 -0.68416255860E+03  0.83444913869E+03  0.00000000000E+00 0.  1.
         16    1    3    3    0    0  0.54384734784E+02 -0.14021503652E+02 -0.12048762054E+03  0.13293445244E+03  0.00000000000E+00 0. -1.
    9900018    1    4    4    0    0 -0.23166972423E+03 -0.54455176400E+03 -0.73388538463E+03  0.94715913181E+03  0.91187600000E+02 0.  0.
<mgrwt>
<rscale>  0 0.11882684E+04</rscale>
<asrwt>0</asrwt>
<pdfrwt beam="1">  1        3 0.17518686E+00 0.28619818E+04</pdfrwt>
<pdfrwt beam="2">  1       -3 0.31551859E+00 0.28619818E+04</pdfrwt>
<totfact> 0.14832062E-02</totfact>
</mgrwt>
</event>
<event>
12    1  0.1160799E-012  0.5816395E+04  0.7818608E-02  0.7713593E-01
         -2   -1    0    0    0  501 -0.00000000000E+00  0.00000000000E+00  0.26185554868E+04  0.26185554868E+04  0.00000000000E+00 0.  1.
          2   -1    0    0  501    0  0.00000000000E+00 -0.00000000000E+00 -0.32298776201E+04  0.32298776201E+04  0.00000000000E+00 0. -1.
         24    2    1    2    0    0 -0.13409786354E+04 -0.17153962476E+03 -0.40014595485E+03  0.14121948988E+04  0.80796679906E+02 0.  0.
    9900016    2    1    2    0    0  0.92367425370E+03 -0.25314769161E+03  0.13506708305E+04  0.27647513421E+04  0.22141093945E+04 0.  0.
         23    2    4    4    0    0 -0.53136446101E+03 -0.33267551996E+03  0.10225276126E+03  0.64479585485E+03  0.11083715642E+03 0.  0.
        -15    1    5    5    0    0 -0.63326541023E+02 -0.88214548323E+02  0.16045023960E+02  0.10977021512E+03  0.00000000000E+00 0. -1.
        -15    1    3    3    0    0 -0.32877967380E+03 -0.27745227774E+02 -0.64900817019E+02  0.33627070585E+03  0.00000000000E+00 0.  1.
         15    1    5    5    0    0 -0.46803791999E+03 -0.24446097164E+03  0.86207737299E+02  0.53502563973E+03  0.00000000000E+00 0.  1.
         15    1    1    2    0    0  0.41730438174E+03  0.42468731637E+03 -0.15618470090E+04  0.16714868660E+04  0.00000000000E+00 0. -1.
        -16    1    4    4    0    0  0.11444297660E+04  0.12362277276E+03  0.41301487268E+03  0.12229404582E+04  0.00000000000E+00 0.  1.
         16    1    3    3    0    0 -0.10121989616E+04 -0.14379439699E+03 -0.33524513783E+03  0.10759241930E+04  0.00000000000E+00 0. -1.
    9900018    1    4    4    0    0  0.31060894871E+03 -0.44094944412E+02  0.83540319654E+03  0.89701502904E+03  0.91187600000E+02 0.  0.
<mgrwt>
<rscale>  0 0.58163954E+04</rscale>
<asrwt>0</asrwt>
<pdfrwt beam="1">  1        2 0.49690425E+00 0.58163954E+04</pdfrwt>
<pdfrwt beam="2">  1       -2 0.40285469E+00 0.58163954E+04</pdfrwt>
<totfact> 0.60184967E-03</totfact>
</mgrwt>
</event>
<event>
12    1  0.1139294E-012  0.3069920E+04  0.7818608E-02  0.8224042E-01
         -1   -1    0    0    0  501 -0.00000000000E+00  0.00000000000E+00  0.15457288895E+04  0.15457288895E+04  0.00000000000E+00 0.  1.
          1   -1    0    0  501    0  0.00000000000E+00 -0.00000000000E+00 -0.15242663191E+04  0.15242663191E+04  0.00000000000E+00 0. -1.
         24    2    1    2    0    0 -0.20553218391E+03  0.12000928523E+03 -0.61058810236E+02  0.25822490185E+03  0.79411677115E+02 0.  0.
    9900016    2    1    2    0    0  0.36683247009E+03 -0.25499876684E+03  0.53880085732E+03  0.23093452842E+04  0.22007223463E+04 0.  0.
         23    2    4    4    0    0  0.18167754806E+03  0.39549777786E+03 -0.46463861554E+03  0.64819099974E+03  0.12180847806E+03 0.  0.
        -15    1    3    3    0    0 -0.16197048947E+03  0.12502874055E+03 -0.36112863098E+02  0.20777575485E+03  0.00000000000E+00 0.  1.
        -15    1    5    5    0    0  0.92605730191E+02  0.74612024213E+02 -0.12435182219E+03  0.17206438069E+03  0.00000000000E+00 0. -1.
         15    1    5    5    0    0  0.89071817864E+02  0.32088575365E+03 -0.34028679335E+03  0.47612661904E+03  0.00000000000E+00 0.  1.
         15    1    1    2    0    0 -0.16130028619E+03  0.13498948161E+03 -0.45627947664E+03  0.50242502254E+03  0.00000000000E+00 0. -1.
        -16    1    4    4    0    0 -0.35323294579E+03 -0.20255760961E+03 -0.31258163421E+02  0.40838728186E+03  0.00000000000E+00 0.  1.
         16    1    3    3    0    0 -0.43561694441E+02 -0.50194553173E+01 -0.24945947139E+02  0.50449146999E+02  0.00000000000E+00 0. -1.
    9900018    1    4    4    0    0  0.53838786783E+03 -0.44793893509E+03  0.10346976363E+04  0.12527670026E+04  0.91187600000E+02 0.  0.
<mgrwt>
<rscale>  0 0.30699202E+04</rscale>
<asrwt>0</asrwt>
<pdfrwt beam="1">  1        1 0.23450251E+00 0.30699202E+04</pdfrwt>
<pdfrwt beam="2">  1       -1 0.23780445E+00 0.30699202E+04</pdfrwt>
<totfact> 0.44625001E-01</totfact>
</mgrwt>
</event>
<event>
12    1  0.1139294E-012  0.2411614E+04  0.7818608E-02  0.9126743E-01
          2   -1    0    0  501    0  0.00000000000E+00  0.00000000000E+00  0.58342145741E+03  0.58342145741E+03  0.00000000000E+00 0. -1.
         -2   -1    0    0    0  501 -0.00000000000E+00 -0.00000000000E+00 -0.28490966067E+04  0.28490966067E+04  0.00000000000E+00 0.  1.
         24    2    1    2    0    0  0.83668823976E+02  0.77948940105E+02 -0.28690684347E+02  0.14314402155E+03  0.81182178882E+02 0.  0.
    9900016    2    1    2    0    0 -0.27303536028E+03 -0.13371671300E+03 -0.21130620460E+04  0.30562935940E+04  0.21871147330E+04 0.  0.
         23    2    4    4    0    0  0.26557901212E+03 -0.48208838719E+03  0.19096915035E+03  0.59441620539E+03  0.11798298228E+03 0.  0.
        -15    1    3    3    0    0  0.27279739774E+02 -0.79933161705E+01  0.14186042937E+02  0.31769814601E+02  0.00000000000E+00 0.  1.
        -15    1    5    5    0    0  0.99239623908E+02 -0.16969156158E+03  0.12895542136E+03  0.23510259404E+03  0.00000000000E+00 0. -1.
         15    1    5    5    0    0  0.16633938821E+03 -0.31239682561E+03  0.62013728984E+02  0.35931361135E+03  0.00000000000E+00 0.  1.
         15    1    1    2    0    0  0.18936653631E+03  0.55767772894E+02 -0.12392241887E+03  0.23308044848E+03  0.00000000000E+00 0. -1.
        -16    1    4    4    0    0 -0.54451771760E+03  0.12189294003E+03 -0.11011946828E+04  0.12344987498E+04  0.00000000000E+00 0.  1.
         16    1    3    3    0    0  0.56389084202E+02  0.85942256276E+02 -0.42876727284E+02  0.11137420695E+03  0.00000000000E+00 0. -1.
    9900018    1    4    4    0    0  0.59033451942E+01  0.22647873416E+03 -0.12028365135E+04  0.12273786389E+04  0.91187600000E+02 0.  0.
<mgrwt>
<rscale>  0 0.11842633E+04</rscale>
<asrwt>0</asrwt>
<pdfrwt beam="1">  1        2 0.89757148E-01 0.24116140E+04</pdfrwt>
<pdfrwt beam="2">  1       -2 0.43832255E+00 0.24116140E+04</pdfrwt>
<totfact> 0.19024333E-01</totfact>
</mgrwt>
</event>
<event>
12    1  0.1139294E-012  0.4479828E+04  0.7818608E-02  0.8543113E-01
         -2   -1    0    0    0  501 -0.00000000000E+00  0.00000000000E+00  0.32701034487E+04  0.32701034487E+04  0.00000000000E+00 0.  1.
          2   -1    0    0  501    0  0.00000000000E+00 -0.00000000000E+00 -0.20066807302E+04  0.20066807302E+04  0.00000000000E+00 0. -1.
         24    2    1    2    0    0  0.17463481193E+03  0.12873021188E+03  0.72846818682E+03  0.76512819456E+03  0.87672515182E+02 0.  0.
    9900016    2    1    2    0    0  0.12434416679E+03  0.55227125724E+02  0.20180886990E+04  0.29875445415E+04  0.21986879914E+04 0.  0.
         23    2    4    4    0    0 -0.68877286358E+02  0.44038321736E+03  0.16205033819E+04  0.16838948297E+04  0.10387072660E+03 0.  0.
        -15    1    5    5    0    0 -0.29883279086E+02  0.12426601843E+03  0.65046796887E+03  0.66290544743E+03  0.00000000000E+00 0. -1.
        -15    1    3    3    0    0  0.13578589884E+03  0.49325447133E+02  0.48757969250E+03  0.50853197205E+03  0.00000000000E+00 0.  1.
         15    1    5    5    0    0 -0.38994007272E+02  0.31611719894E+03  0.97003541304E+03  0.10209893822E+04  0.00000000000E+00 0.  1.
         15    1    1    2    0    0 -0.29897897872E+03 -0.18395733760E+03 -0.14831341674E+04  0.15241114428E+04  0.00000000000E+00 0. -1.
        -16    1    4    4    0    0  0.12175539914E+03 -0.10160572243E+03 -0.41017495963E+03  0.43976311528E+03  0.00000000000E+00 0.  1.
         16    1    3    3    0    0  0.38848913094E+02  0.79404764744E+02  0.24088849432E+03  0.25659622251E+03  0.00000000000E+00 0. -1.
    9900018    1    4    4    0    0  0.71466054003E+02 -0.28355036921E+03  0.80776027669E+03  0.86388659657E+03  0.91187600000E+02 0.  0.
<mgrwt>
<rscale>  0 0.21416541E+04</rscale>
<asrwt>0</asrwt>
<pdfrwt beam="1">  1        2 0.30872011E+00 0.44798285E+04</pdfrwt>
<pdfrwt beam="2">  1       -2 0.50309284E+00 0.44798285E+04</pdfrwt>
<totfact> 0.77952628E-03</totfact>
</mgrwt>
</event>
<event>
11    1  0.1139294E-012  0.3385898E+04  0.7818608E-02  0.8672196E-01
          2   -1    0    0  501    0  0.00000000000E+00  0.00000000000E+00  0.15943497611E+04  0.15943497611E+04  0.00000000000E+00 0. -1.
         -2   -1    0    0    0  501 -0.00000000000E+00 -0.00000000000E+00 -0.21447094028E+04  0.21447094028E+04  0.00000000000E+00 0.  1.
         24    2    1    2    0    0 -0.16483299728E+03 -0.25278761144E+03 -0.61727188258E+02  0.31808449901E+03  0.79347395968E+02 0.  0.
    9900016    2    1    2    0    0 -0.79135387050E+03  0.45291282104E+03 -0.38303001452E+03  0.24383784606E+04  0.22288128125E+04 0.  0.
        -15    1    3    3    0    0 -0.65991181224E+02 -0.62976023262E+02  0.11404880843E+02  0.91928705050E+02  0.00000000000E+00 0.  1.
        -15    1    4    4    0    0  0.12712924122E+03  0.17952412996E+03  0.42517437264E+03  0.47871077318E+03  0.00000000000E+00 0. -1.
         15    1    4    4    0    0  0.25993681106E+03  0.49113954856E+02  0.22380072553E+03  0.34650554260E+03  0.00000000000E+00 0.  1.
         15    1    1    2    0    0  0.95618686778E+03 -0.20012520960E+03 -0.10560243900E+03  0.98259620432E+03  0.00000000000E+00 0. -1.
        -16    1    4    4    0    0 -0.30415765420E+03 -0.45944748275E+02 -0.16394921000E+03  0.34857157366E+03  0.00000000000E+00 0.  1.
         16    1    3    3    0    0 -0.98841816057E+02 -0.18981158818E+03 -0.73132069101E+02  0.22615579396E+03  0.00000000000E+00 0. -1.
    9900018    1    4    4    0    0 -0.87426226858E+03  0.27021948450E+03 -0.86805590268E+03  0.12645905712E+04  0.91187600000E+02 0.  0.
<mgrwt>
<rscale>  0 0.18655514E+04</rscale>
<asrwt>0</asrwt>
<pdfrwt beam="1">  1        2 0.24528458E+00 0.33858981E+04</pdfrwt>
<pdfrwt beam="2">  1       -2 0.32995529E+00 0.33858981E+04</pdfrwt>
<totfact> 0.19135479E-01</totfact>
</mgrwt>
</event>
