<event>
12    1  0.2811793E-011  0.1234199E+04  0.7818608E-02  0.9083438E-01
         -1   -1    0    0    0  501 -0.00000000000E+00  0.00000000000E+00  0.38602950435E+03  0.38602950435E+03  0.00000000000E+00 0.  1.
          1   -1    0    0  501    0  0.00000000000E+00 -0.00000000000E+00 -0.98648392918E+03  0.98648392918E+03  0.00000000000E+00 0. -1.
    9900016    2    1    2    0    0  0.11683230518E+03 -0.83654682599E+02 -0.82894994448E+03  0.11025910448E+04  0.71267180952E+03 0.  0.
         23    2    3    3    0    0 -0.10406360019E+02  0.12410259263E+03 -0.10512162540E+03  0.18737027320E+03  0.92451702677E+02 0.  0.
         23    2    3    3    0    0  0.15695106058E+03 -0.15346847292E+03 -0.20624549951E+03  0.30630532410E+03  0.55673493732E+02 0.  0.
        -15    1    4    4    0    0 -0.43294929129E+02  0.90304857754E+02 -0.97180972492E+02  0.13954769664E+03  0.00000000000E+00 0.  1.
        -15    1    5    5    0    0  0.11721279122E+03 -0.11830836952E+03 -0.18561295308E+03  0.24937497283E+03  0.00000000000E+00 0. -1.
         15    1    5    5    0    0  0.39738269365E+02 -0.35160103401E+02 -0.20632546432E+02  0.56930351268E+02  0.00000000000E+00 0.  1.
         15    1    4    4    0    0  0.32888569110E+02  0.33797734874E+02 -0.79406529045E+01  0.47822576564E+02  0.00000000000E+00 0. -1.
        -16    1    1    2    0    0 -0.11683230518E+03  0.83654682599E+02  0.22849551965E+03  0.26992238876E+03  0.00000000000E+00 0.  1.
         16    1    3    3    0    0 -0.81404244600E+02 -0.36642144940E+02 -0.94337861544E+01  0.89768001793E+02  0.00000000000E+00 0. -1.
    9900018    1    3    3    0    0  0.51691849214E+02 -0.17646657371E+02 -0.50814903342E+03  0.51914744568E+03  0.91187600000E+02 0.  0.
<mgrwt>
<rscale>  0 0.12341992E+04</rscale>
<asrwt>0</asrwt>
<pdfrwt beam="1">  1        1 0.15176676E+00 0.12341992E+04</pdfrwt>
<pdfrwt beam="2">  1       -1 0.59389155E-01 0.12341992E+04</pdfrwt>
<totfact> 0.43998616E+01</totfact>
</mgrwt>
</event>
<event>
12    1  0.2811793E-011  0.1524909E+04  0.7818608E-02  0.8868056E-01
          2   -1    0    0  501    0  0.00000000000E+00  0.00000000000E+00  0.47549602955E+03  0.47549602955E+03  0.00000000000E+00 0. -1.
         -2   -1    0    0    0  501 -0.00000000000E+00 -0.00000000000E+00 -0.12225897237E+04  0.12225897237E+04  0.00000000000E+00 0.  1.
    9900016    2    1    2    0    0 -0.32191483718E+03  0.32192889065E+03 -0.88561824995E+03  0.12222113732E+04  0.70867029226E+03 0.  0.
         23    2    3    3    0    0 -0.35459226913E+02  0.11236013831E+03 -0.13324242398E+03  0.19989786511E+03  0.91232973606E+02 0.  0.
         23    2    3    3    0    0  0.51483378607E+02 -0.66856478656E+02  0.64210789520E+01  0.10851319768E+03  0.67923168398E+02 0.  0.
        -15    1    4    4    0    0 -0.13165445775E+02  0.23835887781E+02  0.10857986415E+02  0.29315087886E+02  0.00000000000E+00 0. -1.
        -15    1    5    5    0    0 -0.10639472228E+02 -0.32042926462E+01  0.15540156344E+02  0.19103987014E+02  0.00000000000E+00 0.  1.
         15    1    4    4    0    0 -0.22293781138E+02  0.88524250533E+02 -0.14410041040E+03  0.17058277723E+03  0.00000000000E+00 0.  1.
         15    1    5    5    0    0  0.62122850836E+02 -0.63652186010E+02 -0.91190773915E+01  0.89409210668E+02  0.00000000000E+00 0. -1.
        -16    1    3    3    0    0 -0.28358624105E+03  0.97745844494E+02 -0.48090866474E+03  0.56678792335E+03  0.00000000000E+00 0.  1.
         16    1    1    2    0    0  0.32191483718E+03 -0.32192889065E+03  0.13852455579E+03  0.47587438005E+03  0.00000000000E+00 0. -1.
    9900018    1    3    3    0    0 -0.54352747820E+02  0.17867938650E+03 -0.27788824017E+03  0.34701238706E+03  0.91187600000E+02 0.  0.
<mgrwt>
<rscale>  0 0.15249086E+04</rscale>
<asrwt>0</asrwt>
<pdfrwt beam="1">  1        2 0.73153237E-01 0.15249086E+04</pdfrwt>
<pdfrwt beam="2">  1       -2 0.18809072E+00 0.15249086E+04</pdfrwt>
<totfact> 0.10039691E+01</totfact>
</mgrwt>
</event>
<event>
12    1  0.2811793E-011  0.8457434E+03  0.7818608E-02  0.9496068E-01
         -2   -1    0    0    0  501 -0.00000000000E+00  0.00000000000E+00  0.73976374957E+03  0.73976374957E+03  0.00000000000E+00 0.  1.
          2   -1    0    0  501    0  0.00000000000E+00 -0.00000000000E+00 -0.24172646856E+03  0.24172646856E+03  0.00000000000E+00 0. -1.
    9900016    2    1    2    0    0 -0.20537643759E+02  0.39266639908E+02  0.56157416569E+03  0.90402668131E+03  0.70706084118E+03 0.  0.
         23    2    3    3    0    0  0.12228748985E+03  0.81619800159E+02 -0.50746502929E+02  0.17996345716E+03  0.90529643787E+02 0.  0.
         23    2    3    3    0    0 -0.39563357054E+02  0.84332277865E+02  0.15598059114E+03  0.19778637015E+03  0.78181270727E+02 0.  0.
        -15    1    4    4    0    0  0.28048821650E+02  0.65984803991E+02 -0.44165929604E+02  0.84210213701E+02  0.00000000000E+00 0. -1.
        -15    1    5    5    0    0 -0.25812839184E+02 -0.84729325473E+01  0.27085751724E+02  0.38363148973E+02  0.00000000000E+00 0.  1.
         15    1    5    5    0    0 -0.13750517869E+02  0.92805210412E+02  0.12889483942E+03  0.15942322118E+03  0.00000000000E+00 0. -1.
         15    1    4    4    0    0  0.94238668196E+02  0.15634996167E+02 -0.65805733251E+01  0.95753243463E+02  0.00000000000E+00 0.  1.
        -16    1    3    3    0    0  0.31086315478E+02 -0.49319506897E+02  0.22946958009E+03  0.23675950025E+03  0.00000000000E+00 0.  1.
         16    1    1    2    0    0  0.20537643759E+02 -0.39266639908E+02 -0.63536884687E+02  0.77463536819E+02  0.00000000000E+00 0. -1.
    9900018    1    3    3    0    0 -0.13434809203E+03 -0.77365931218E+02  0.22687049738E+03  0.28951735375E+03  0.91187600000E+02 0.  0.
<mgrwt>
<rscale>  0 0.84574341E+03</rscale>
<asrwt>0</asrwt>
<pdfrwt beam="1">  1        2 0.37188688E-01 0.84574341E+03</pdfrwt>
<pdfrwt beam="2">  1       -2 0.11380981E+00 0.84574341E+03</pdfrwt>
<totfact> 0.84969657E+01</totfact>
</mgrwt>
</event>
<event>
12    1  0.2811793E-011  0.1263220E+04  0.7818608E-02  0.9059251E-01
         -1   -1    0    0    0  501 -0.00000000000E+00  0.00000000000E+00  0.73670004553E+03  0.73670004553E+03  0.00000000000E+00 0.  1.
          1   -1    0    0  501    0  0.00000000000E+00 -0.00000000000E+00 -0.54151127822E+03  0.54151127822E+03  0.00000000000E+00 0. -1.
    9900016    2    1    2    0    0  0.57626902804E+02  0.11945500596E+03  0.54188907078E+03  0.90700860447E+03  0.71514368149E+03 0.  0.
         23    2    3    3    0    0 -0.19241975268E+03 -0.88358518486E+02  0.25062135874E+03  0.34311641780E+03  0.10042520451E+03 0.  0.
         23    2    3    3    0    0  0.15389925053E+03  0.11933171246E+03 -0.34600132987E+01  0.20985496630E+03  0.78115928446E+02 0.  0.
        -15    1    4    4    0    0 -0.13525973308E+03 -0.78166557895E+02  0.23637211581E+03  0.28333193131E+03  0.00000000000E+00 0.  1.
        -15    1    5    5    0    0  0.11890585674E+02 -0.11050473363E+02  0.46943181939E+01  0.16897799044E+02  0.00000000000E+00 0.  1.
         15    1    5    5    0    0  0.14200866486E+03  0.13038218582E+03 -0.81543314926E+01  0.19295716726E+03  0.00000000000E+00 0. -1.
         15    1    4    4    0    0 -0.57160019598E+02 -0.10191960591E+02  0.14249242921E+02  0.59784486491E+02  0.00000000000E+00 0. -1.
        -16    1    3    3    0    0 -0.12725789817E+02  0.45552643595E+02  0.60822086192E+02  0.77047486875E+02  0.00000000000E+00 0.  1.
         16    1    1    2    0    0 -0.57626902804E+02 -0.11945500596E+03 -0.34670030347E+03  0.37120271928E+03  0.00000000000E+00 0. -1.
    9900018    1    3    3    0    0  0.10887319477E+03  0.42929168393E+02  0.23390563915E+03  0.27698973349E+03  0.91187600000E+02 0.  0.
<mgrwt>
<rscale>  0 0.12632203E+04</rscale>
<asrwt>0</asrwt>
<pdfrwt beam="1">  1        1 0.83309427E-01 0.12632203E+04</pdfrwt>
<pdfrwt beam="2">  1       -1 0.11333847E+00 0.12632203E+04</pdfrwt>
<totfact> 0.27779523E+01</totfact>
</mgrwt>
</event>
<event>
12    1  0.2811793E-011  0.9741894E+03  0.7818608E-02  0.9337315E-01
          2   -1    0    0  501    0  0.00000000000E+00  0.00000000000E+00  0.78042660866E+03  0.78042660866E+03  0.00000000000E+00 0.  1.
         -2   -1    0    0    0  501 -0.00000000000E+00 -0.00000000000E+00 -0.30401483692E+03  0.30401483692E+03  0.00000000000E+00 0. -1.
    9900016    2    1    2    0    0 -0.67174841372E+02  0.58397866951E+02  0.14737124658E+03  0.74357426121E+03  0.72336825161E+03 0.  0.
         23    2    3    3    0    0 -0.86317574191E+02  0.13725064786E+03  0.28514744725E+02  0.18791635729E+03  0.90614583354E+02 0.  0.
         23    2    3    3    0    0 -0.16314064660E+02  0.11420381976E+03  0.56154365712E+02  0.17351374949E+03  0.11681201702E+03 0.  0.
        -15    1    4    4    0    0 -0.64863866845E+02  0.13707331843E+03  0.47869517316E+02  0.15902171718E+03  0.00000000000E+00 0. -1.
        -15    1    5    5    0    0 -0.36073426348E+02  0.26167793287E+02  0.69241446646E+02  0.82343326552E+02  0.00000000000E+00 0.  1.
         15    1    5    5    0    0  0.19759361688E+02  0.88036026473E+02 -0.13087080934E+02  0.91170422939E+02  0.00000000000E+00 0. -1.
         15    1    4    4    0    0 -0.21453707345E+02  0.17732943031E+00 -0.19354772591E+02  0.28894640103E+02  0.00000000000E+00 0.  1.
        -16    1    1    2    0    0  0.67174841372E+02 -0.58397866951E+02  0.32904052517E+03  0.34086718437E+03  0.00000000000E+00 0.  1.
         16    1    3    3    0    0  0.29404090365E+02 -0.25921813768E+03  0.20495543524E+02  0.26168437236E+03  0.00000000000E+00 0. -1.
    9900018    1    3    3    0    0  0.60527071134E+01  0.66161537010E+02  0.42206592621E+02  0.12045978207E+03  0.91187600000E+02 0.  0.
<mgrwt>
<rscale>  0 0.97418944E+03</rscale>
<asrwt>0</asrwt>
<pdfrwt beam="1">  1        2 0.12006563E+00 0.97418944E+03</pdfrwt>
<pdfrwt beam="2">  1       -2 0.46771514E-01 0.97418944E+03</pdfrwt>
<totfact> 0.15417946E+02</totfact>
</mgrwt>
</event>
<event>
12    1  0.2811793E-011  0.9518378E+03  0.7818608E-02  0.9363005E-01
          2   -1    0    0  501    0  0.00000000000E+00  0.00000000000E+00  0.21117900178E+04  0.21117900178E+04  0.00000000000E+00 0. -1.
         -2   -1    0    0    0  501 -0.00000000000E+00 -0.00000000000E+00 -0.10725441686E+03  0.10725441686E+03  0.00000000000E+00 0.  1.
    9900016    2    1    2    0    0  0.41229251530E+02 -0.19826034281E+03  0.16863684930E+04  0.18419007972E+04  0.71256777765E+03 0.  0.
         23    2    3    3    0    0 -0.18613247304E+02 -0.13431086137E+03  0.71427942537E+03  0.73253108568E+03  0.89559106283E+02 0.  0.
         23    2    3    3    0    0  0.66031719333E+02 -0.24142681859E+02  0.40121901148E+03  0.41437887745E+03  0.76092718817E+02 0.  0.
        -15    1    4    4    0    0  0.24797231258E+02 -0.98942338417E+01  0.70097047386E+02  0.75009296715E+02  0.00000000000E+00 0.  1.
        -15    1    5    5    0    0 -0.20486778144E+01 -0.33457459236E+02  0.10181665072E+03  0.10719248586E+03  0.00000000000E+00 0. -1.
         15    1    5    5    0    0  0.68080397148E+02  0.93147773773E+01  0.29940236076E+03  0.30718639159E+03  0.00000000000E+00 0.  1.
         15    1    4    4    0    0 -0.43410478562E+02 -0.12441662753E+03  0.64418237799E+03  0.65752178896E+03  0.00000000000E+00 0. -1.
        -16    1    1    2    0    0 -0.41229251530E+02  0.19826034281E+03  0.31816710791E+03  0.37714363745E+03  0.00000000000E+00 0.  1.
         16    1    3    3    0    0  0.12907861722E+03 -0.73248274259E+02  0.64286129644E+02  0.16173838620E+03  0.00000000000E+00 0. -1.
    9900018    1    3    3    0    0 -0.13526783772E+03  0.33441474678E+02  0.50658392655E+03  0.53325244790E+03  0.91187600000E+02 0.  0.
<mgrwt>
<rscale>  0 0.95183782E+03</rscale>
<asrwt>0</asrwt>
<pdfrwt beam="1">  1        2 0.32489074E+00 0.95183782E+03</pdfrwt>
<pdfrwt beam="2">  1       -2 0.16500681E-01 0.95183782E+03</pdfrwt>
<totfact> 0.17403075E+02</totfact>
</mgrwt>
</event>
<event>
12    1  0.2811793E-011  0.8961650E+03  0.7818608E-02  0.9430388E-01
          1   -1    0    0  501    0  0.00000000000E+00  0.00000000000E+00  0.36206781050E+03  0.36206781050E+03  0.00000000000E+00 0. -1.
         -1   -1    0    0    0  501 -0.00000000000E+00 -0.00000000000E+00 -0.55453126311E+03  0.55453126311E+03  0.00000000000E+00 0.  1.
    9900016    2    1    2    0    0  0.76034115855E+02 -0.30994276844E+02 -0.13402938325E+02  0.71961049591E+03  0.71478513911E+03 0.  0.
         23    2    3    3    0    0 -0.17734066824E+02  0.45007876931E+02  0.22314649818E+02  0.10557640457E+03  0.91149478845E+02 0.  0.
         23    2    3    3    0    0  0.24666194952E+02  0.85028160038E+02 -0.19411602297E+03  0.24350811867E+03  0.11737531388E+03 0.  0.
        -15    1    4    4    0    0 -0.37613356316E+02  0.57475015829E+01 -0.21310304403E+02  0.43611092872E+02  0.00000000000E+00 0.  1.
        -15    1    5    5    0    0  0.34803230445E+02  0.11693716722E+02 -0.15595728052E+03  0.16022072652E+03  0.00000000000E+00 0. -1.
         15    1    4    4    0    0  0.19879289492E+02  0.39260375348E+02  0.43624954221E+02  0.61965311699E+02  0.00000000000E+00 0. -1.
         15    1    5    5    0    0 -0.10137035493E+02  0.73334443316E+02 -0.38158742457E+02  0.83287392148E+02  0.00000000000E+00 0.  1.
        -16    1    1    2    0    0 -0.76034115855E+02  0.30994276844E+02 -0.17906051428E+03  0.19698857770E+03  0.00000000000E+00 0.  1.
         16    1    3    3    0    0  0.55682432014E+02 -0.16112644479E+03  0.20550960283E+03  0.26701397211E+03  0.00000000000E+00 0. -1.
    9900018    1    3    3    0    0  0.13419555713E+02  0.96130978765E-01 -0.47111167996E+02  0.10351200056E+03  0.91187600000E+02 0.  0.
<mgrwt>
<rscale>  0 0.89616499E+03</rscale>
<asrwt>0</asrwt>
<pdfrwt beam="1">  1        1 0.55702740E-01 0.89616499E+03</pdfrwt>
<pdfrwt beam="2">  1       -1 0.85312502E-01 0.89616499E+03</pdfrwt>
<totfact> 0.93826935E+01</totfact>
</mgrwt>
</event>
<event>
12    1  0.2811793E-011  0.8619825E+03  0.7818608E-02  0.9474394E-01
         -2   -1    0    0    0  501 -0.00000000000E+00  0.00000000000E+00  0.11059737379E+04  0.11059737379E+04  0.00000000000E+00 0.  1.
          2   -1    0    0  501    0  0.00000000000E+00 -0.00000000000E+00 -0.16795467423E+03  0.16795467423E+03  0.00000000000E+00 0. -1.
    9900016    2    1    2    0    0  0.11118825115E+03 -0.86788800775E+02  0.74584106789E+03  0.10355432087E+04  0.70439741303E+03 0.  0.
         23    2    3    3    0    0 -0.10940479937E+03 -0.14948491257E+03  0.64576963278E+02  0.21676389543E+03  0.92202239465E+02 0.  0.
         23    2    3    3    0    0  0.17793464937E+03 -0.51583202290E+02  0.53573553313E+03  0.57102820294E+03  0.68840982678E+02 0.  0.
        -15    1    4    4    0    0 -0.47952462363E+02 -0.95081782909E+02  0.80079040099E+02  0.13323902113E+03  0.00000000000E+00 0.  1.
        -15    1    5    5    0    0  0.12922603631E+02 -0.43309522556E+01  0.73961024902E+01  0.15506552295E+02  0.00000000000E+00 0.  1.
         15    1    5    5    0    0  0.16501204574E+03 -0.47252250034E+02  0.52833943064E+03  0.55552165065E+03  0.00000000000E+00 0. -1.
         15    1    4    4    0    0 -0.61452337010E+02 -0.54403129660E+02 -0.15502076821E+02  0.83524874298E+02  0.00000000000E+00 0. -1.
        -16    1    1    2    0    0 -0.11118825115E+03  0.86788800775E+02  0.19217799574E+03  0.23838520336E+03  0.00000000000E+00 0.  1.
         16    1    3    3    0    0 -0.23373175907E+02  0.28903853997E+02  0.87381166844E+02  0.94958972440E+02  0.00000000000E+00 0. -1.
    9900018    1    3    3    0    0  0.66031577059E+02  0.85375460087E+02  0.58147404641E+02  0.15279213793E+03  0.91187600000E+02 0.  0.
<mgrwt>
<rscale>  0 0.86198250E+03</rscale>
<asrwt>0</asrwt>
<pdfrwt beam="1">  1        2 0.25839181E-01 0.86198250E+03</pdfrwt>
<pdfrwt beam="2">  1       -2 0.17014980E+00 0.86198250E+03</pdfrwt>
<totfact> 0.45148839E+01</totfact>
</mgrwt>
</event>
<event>
12    1  0.2811793E-011  0.7546562E+03  0.7818608E-02  0.9628074E-01
          1   -1    0    0  501    0  0.00000000000E+00  0.00000000000E+00  0.40236770339E+03  0.40236770339E+03  0.00000000000E+00 0. -1.
         -1   -1    0    0    0  501 -0.00000000000E+00 -0.00000000000E+00 -0.35384669062E+03  0.35384669062E+03  0.00000000000E+00 0.  1.
    9900016    2    1    2    0    0 -0.27876795431E+02 -0.34794128393E+02  0.31807753878E+02  0.70860052926E+03  0.70648087714E+03 0.  0.
         23    2    3    3    0    0 -0.15777258014E+02 -0.25755294962E+02  0.14459313649E+03  0.17360735808E+03  0.91214486622E+02 0.  0.
         23    2    3    3    0    0 -0.73711962772E+02 -0.65109795711E+02 -0.19426004387E+02  0.14738712960E+03  0.10804099858E+03 0.  0.
        -15    1    4    4    0    0  0.13468733500E+01 -0.42942053481E+02  0.21306587742E+02  0.47956279111E+02  0.00000000000E+00 0.  1.
        -15    1    5    5    0    0 -0.23037522679E+02 -0.68650842079E+02 -0.50092043218E+02  0.88050430794E+02  0.00000000000E+00 0. -1.
         15    1    4    4    0    0 -0.17124131364E+02  0.17186758519E+02  0.12328654875E+03  0.12565107897E+03  0.00000000000E+00 0. -1.
         15    1    5    5    0    0 -0.50674440093E+02  0.35410463673E+01  0.30666038831E+02  0.59336698811E+02  0.00000000000E+00 0.  1.
        -16    1    3    3    0    0 -0.49930001214E+02  0.73021106769E+02 -0.19253161318E+03  0.21188088429E+03  0.00000000000E+00 0.  1.
         16    1    1    2    0    0  0.27876795431E+02  0.34794128393E+02  0.16713258892E+02  0.47613864756E+02  0.00000000000E+00 0. -1.
    9900018    1    3    3    0    0  0.11154242657E+03 -0.16950144489E+02  0.99172234953E+02  0.17572515728E+03  0.91187600000E+02 0.  0.
<mgrwt>
<rscale>  0 0.75465616E+03</rscale>
<asrwt>0</asrwt>
<pdfrwt beam="1">  1        1 0.61902724E-01 0.75465616E+03</pdfrwt>
<pdfrwt beam="2">  1       -1 0.54437952E-01 0.75465616E+03</pdfrwt>
<totfact> 0.20553693E+02</totfact>
</mgrwt>
</event>
<event>
12    1  0.2811793E-011  0.8410895E+03  0.7818608E-02  0.9502375E-01
          1   -1    0    0  501    0  0.00000000000E+00  0.00000000000E+00  0.36899959276E+03  0.36899959276E+03  0.00000000000E+00 0. -1.
         -1   -1    0    0    0  501 -0.00000000000E+00 -0.00000000000E+00 -0.47929020225E+03  0.47929020225E+03  0.00000000000E+00 0.  1.
    9900016    2    1    2    0    0 -0.33723930631E+02 -0.30798313135E+02  0.12880797072E+02  0.71692376065E+03  0.71535160870E+03 0.  0.
         23    2    3    3    0    0  0.10940695029E+03 -0.57279971426E+02 -0.24594322309E+03  0.28831145972E+03  0.85933421455E+02 0.  0.
         23    2    3    3    0    0 -0.15119451688E+02  0.58500820605E+02  0.76752875181E+02  0.14602892940E+03  0.10854722725E+03 0.  0.
        -15    1    5    5    0    0  0.19842658630E+02  0.80509574874E+02  0.51233005182E+02  0.97469705898E+02  0.00000000000E+00 0.  1.
        -15    1    4    4    0    0  0.86090215097E+01 -0.37504550821E+02 -0.11869919621E+03  0.12478063056E+03  0.00000000000E+00 0.  1.
         15    1    4    4    0    0  0.10079792878E+03 -0.19775420605E+02 -0.12724402689E+03  0.16353082916E+03  0.00000000000E+00 0. -1.
         15    1    5    5    0    0 -0.34962110318E+02 -0.22008754269E+02  0.25519869999E+02  0.48559223503E+02  0.00000000000E+00 0. -1.
        -16    1    1    2    0    0  0.33723930631E+02  0.30798313135E+02 -0.12317140656E+03  0.13136603436E+03  0.00000000000E+00 0.  1.
         16    1    3    3    0    0 -0.11375772434E+03  0.10333023811E+02  0.88511411015E+02  0.14450557466E+03  0.00000000000E+00 0. -1.
    9900018    1    3    3    0    0 -0.14253704895E+02 -0.42352186125E+02  0.93559733971E+02  0.13807779687E+03  0.91187600000E+02 0.  0.
<mgrwt>
<rscale>  0 0.84108951E+03</rscale>
<asrwt>0</asrwt>
<pdfrwt beam="1">  1        1 0.56769168E-01 0.84108951E+03</pdfrwt>
<pdfrwt beam="2">  1       -1 0.73736954E-01 0.84108951E+03</pdfrwt>
<totfact> 0.12508518E+02</totfact>
</mgrwt>
</event>
<event>
12    1  0.2811793E-011  0.1729324E+04  0.7818608E-02  0.8744815E-01
          1   -1    0    0  501    0  0.00000000000E+00  0.00000000000E+00  0.58335272343E+03  0.58335272343E+03  0.00000000000E+00 0. -1.
         -1   -1    0    0    0  501 -0.00000000000E+00 -0.00000000000E+00 -0.12816259213E+04  0.12816259213E+04  0.00000000000E+00 0.  1.
    9900016    2    1    2    0    0 -0.31888112500E+03 -0.50624706841E+03 -0.83641269061E+03  0.12509315898E+04  0.71223057168E+03 0.  0.
         23    2    3    3    0    0 -0.72797263477E+02  0.11544881357E+03 -0.83666318213E+02  0.18434527100E+03  0.91407089518E+02 0.  0.
         23    2    3    3    0    0 -0.31852180568E+02 -0.10872843830E+03 -0.16969655124E+03  0.22943392482E+03  0.10491220926E+03 0.  0.
        -15    1    5    5    0    0 -0.63255756550E+02 -0.31537991614E+02 -0.69731894439E+02  0.99289842148E+02  0.00000000000E+00 0. -1.
        -15    1    4    4    0    0 -0.61917244967E+02  0.39102971285E+02 -0.78046512019E+02  0.10702357509E+03  0.00000000000E+00 0.  1.
         15    1    4    4    0    0 -0.10880018510E+02  0.76345842282E+02 -0.56198061940E+01  0.77321695909E+02  0.00000000000E+00 0. -1.
         15    1    5    5    0    0  0.31403575982E+02 -0.77190446688E+02 -0.99964656805E+02  0.13014408267E+03  0.00000000000E+00 0.  1.
        -16    1    3    3    0    0 -0.30501971454E+02 -0.24633511156E+03 -0.15462191485E+03  0.29243682054E+03  0.00000000000E+00 0.  1.
         16    1    1    2    0    0  0.31888112500E+03  0.50624706841E+03  0.13813949277E+03  0.61404705489E+03  0.00000000000E+00 0. -1.
    9900018    1    3    3    0    0 -0.18372970950E+03 -0.26663233211E+03 -0.42842790630E+03  0.54471557346E+03  0.91187600000E+02 0.  0.
<mgrwt>
<rscale>  0 0.17293235E+04</rscale>
<asrwt>0</asrwt>
<pdfrwt beam="1">  1        1 0.89746574E-01 0.17293235E+04</pdfrwt>
<pdfrwt beam="2">  1       -1 0.19717322E+00 0.17293235E+04</pdfrwt>
<totfact> 0.53296859E+00</totfact>
</mgrwt>
</event>
