<event>
11    1  0.1694161E-015  0.1251576E+04  0.7818608E-02  0.9068873E-01
          1   -1    0    0  501    0  0.00000000000E+00  0.00000000000E+00  0.23598091836E+03  0.23598091836E+03  0.00000000000E+00 0. -1.
         -1   -1    0    0    0  501 -0.00000000000E+00 -0.00000000000E+00 -0.16595007756E+04  0.16595007756E+04  0.00000000000E+00 0.  1.
    9900016    2    1    2    0    0  0.17913802744E+03  0.35414456317E+02 -0.12003072315E+04  0.13846094116E+04  0.66562839177E+03 0.  0.
         23    2    3    3    0    0  0.20864886748E+02 -0.14621781637E+03 -0.12934865238E+03  0.21122436369E+03  0.77908052350E+02 0.  0.
        -15    1    4    4    0    0  0.17766719836E+02 -0.13216331223E+03 -0.70897193455E+02  0.15102718124E+03  0.00000000000E+00 0.  1.
        -15    1    3    3    0    0  0.16020501138E+03  0.80152984120E+02 -0.10555992302E+04  0.10706913100E+04  0.00000000000E+00 0. -1.
         15    1    4    4    0    0  0.30981669118E+01 -0.14054504145E+02 -0.58451458927E+02  0.60197182457E+02  0.00000000000E+00 0.  1.
         15    1    3    3    0    0  0.56692959413E+00  0.24975182326E+02 -0.30969914882E+01  0.25172852394E+02  0.00000000000E+00 0. -1.
        -16    1    3    3    0    0 -0.24988002739E+01  0.76504106244E+02 -0.12262357476E+02  0.77520885481E+02  0.00000000000E+00 0.  1.
         16    1    1    2    0    0 -0.20563188843E+03 -0.56660823050E+02  0.51509020982E+02  0.21942675692E+03  0.00000000000E+00 0. -1.
    9900018    1    1    2    0    0  0.26493860986E+02  0.21246366733E+02 -0.27472164674E+03  0.29144552553E+03  0.91187600000E+02 0.  0.
<mgrwt>
<rscale>  0 0.12515758E+04</rscale>
<asrwt>0</asrwt>
<pdfrwt beam="1">  1        1 0.36304757E-01 0.12515758E+04</pdfrwt>
<pdfrwt beam="2">  1       -1 0.25530781E+00 0.12515758E+04</pdfrwt>
<totfact> 0.76276562E+00</totfact>
</mgrwt>
</event>
<event>
11    1  0.1694161E-015  0.1018320E+04  0.7818608E-02  0.9288677E-01
          1   -1    0    0  501    0  0.00000000000E+00  0.00000000000E+00  0.28061169179E+03  0.28061169179E+03  0.00000000000E+00 0. -1.
         -1   -1    0    0    0  501 -0.00000000000E+00 -0.00000000000E+00 -0.92385311642E+03  0.92385311642E+03  0.00000000000E+00 0.  1.
    9900016    2    1    2    0    0  0.51068931494E+02 -0.12375399480E+03 -0.71618353583E+03  0.10520061627E+04  0.75886429778E+03 0.  0.
         23    2    3    3    0    0  0.16439232213E+02  0.94986093280E+02 -0.24856592819E+03  0.28712955214E+03  0.10661028459E+03 0.  0.
        -15    1    4    4    0    0  0.42102185849E+01  0.11009565888E+03 -0.14692007105E+03  0.18364173633E+03  0.00000000000E+00 0.  1.
        -15    1    3    3    0    0  0.19275585038E+03 -0.15798385803E+01 -0.13618802529E+03  0.23601799079E+03  0.00000000000E+00 0.  1.
         15    1    4    4    0    0  0.12229013628E+02 -0.15109565597E+02 -0.10164585714E+03  0.10348781581E+03  0.00000000000E+00 0. -1.
         15    1    3    3    0    0 -0.22003256282E+02 -0.60702263870E+02  0.24747848939E+01  0.64614492850E+02  0.00000000000E+00 0. -1.
        -16    1    3    3    0    0 -0.15151609035E+03 -0.15879775506E+03 -0.17641540236E+03  0.28159589279E+03  0.00000000000E+00 0.  1.
         16    1    1    2    0    0 -0.51068931494E+02  0.12375399480E+03  0.72942111203E+02  0.15245864547E+03  0.00000000000E+00 0. -1.
    9900018    1    3    3    0    0  0.15393195535E+02  0.23397694285E+01 -0.15748896488E+03  0.18264823416E+03  0.91187600000E+02 0.  0.
<mgrwt>
<rscale>  0 0.10183202E+04</rscale>
<asrwt>0</asrwt>
<pdfrwt beam="1">  1        1 0.43171030E-01 0.10183202E+04</pdfrwt>
<pdfrwt beam="2">  1       -1 0.14213125E+00 0.10183202E+04</pdfrwt>
<totfact> 0.38607944E+01</totfact>
</mgrwt>
</event>
<event>
11    1  0.1694161E-015  0.1414023E+04  0.7818608E-02  0.8943730E-01
         -1   -1    0    0    0  501 -0.00000000000E+00  0.00000000000E+00  0.97903919427E+03  0.97903919427E+03  0.00000000000E+00 0.  1.
          1   -1    0    0  501    0  0.00000000000E+00 -0.00000000000E+00 -0.51056717386E+03  0.51056717386E+03  0.00000000000E+00 0. -1.
    9900016    2    1    2    0    0 -0.11969696894E+03  0.32880805879E+03 -0.87903049276E+02  0.83234285775E+03  0.75008371725E+03 0.  0.
         23    2    3    3    0    0 -0.90957519185E+02  0.43390517381E+03 -0.11813617417E+03  0.47337723839E+03  0.11654563065E+03 0.  0.
        -15    1    3    3    0    0 -0.42345406755E+02 -0.24306349696E+02  0.55719964418E+02  0.74085400340E+02  0.00000000000E+00 0. -1.
        -15    1    4    4    0    0 -0.99603786374E+02  0.22828060158E+03 -0.35417950680E+02  0.25156982837E+03  0.00000000000E+00 0. -1.
         15    1    3    3    0    0  0.37786814974E+02 -0.10916271291E+02  0.40189097204E+02  0.56233192146E+02  0.00000000000E+00 0.  1.
         15    1    4    4    0    0  0.86462671890E+01  0.20562457223E+03 -0.82718223494E+02  0.22180741002E+03  0.00000000000E+00 0.  1.
        -16    1    3    3    0    0  0.86962502607E+01 -0.10750893264E+03 -0.62406332129E+02  0.12461278288E+03  0.00000000000E+00 0.  1.
         16    1    1    2    0    0  0.11969696894E+03 -0.32880805879E+03  0.55637506968E+03  0.65726351037E+03  0.00000000000E+00 0. -1.
    9900018    1    3    3    0    0 -0.32877108238E+02  0.37634438620E+02 -0.32696045954E+01  0.10403424400E+03  0.91187600000E+02 0.  0.
<mgrwt>
<rscale>  0 0.14140230E+04</rscale>
<asrwt>0</asrwt>
<pdfrwt beam="1">  1        1 0.78548796E-01 0.14140230E+04</pdfrwt>
<pdfrwt beam="2">  1       -1 0.15062141E+00 0.14140230E+04</pdfrwt>
<totfact> 0.14469751E+01</totfact>
</mgrwt>
</event>
