<event>
10    1  0.4590574E-015  0.3070117E+04  0.7818608E-02  0.8407947E-01
         -1   -1    0    0    0  501 -0.00000000000E+00  0.00000000000E+00  0.31109641918E+04  0.31109641918E+04  0.00000000000E+00 0.  1.
          1   -1    0    0  501    0  0.00000000000E+00 -0.00000000000E+00 -0.15588442358E+04  0.15588442358E+04  0.00000000000E+00 0. -1.
    9900016    2    1    2    0    0  0.42379556869E+03  0.36367544754E+03  0.37060084157E+03  0.20011026224E+04  0.18855249153E+04 0.  0.
        -15    1    3    3    0    0  0.19793525691E+03  0.11295634015E+03 -0.35959525073E+02  0.23071755059E+03  0.00000000000E+00 0.  1.
        -15    1    1    2    0    0 -0.22895737009E+03  0.42626988878E+02  0.30088508945E+03  0.38048702285E+03  0.00000000000E+00 0.  1.
         15    1    3    3    0    0 -0.44441861362E+03 -0.39179976029E+03  0.50479051182E+03  0.77834980383E+03  0.00000000000E+00 0. -1.
         15    1    1    2    0    0  0.86661228947E+03 -0.56093408376E+03  0.33882325419E+03  0.10864921096E+04  0.00000000000E+00 0. -1.
        -16    1    1    2    0    0 -0.10614504881E+04  0.15463164735E+03  0.54181077074E+03  0.12017266729E+04  0.00000000000E+00 0.  1.
         16    1    3    3    0    0  0.62910658813E+03  0.61347955487E+03 -0.11605267704E+03  0.88634106715E+03  0.00000000000E+00 0. -1.
    9900018    1    3    3    0    0  0.41172337275E+02  0.29039312818E+02  0.17822531855E+02  0.10569420079E+03  0.91187600000E+02 0.  0.
<mgrwt>
<rscale>  0 0.24861207E+04</rscale>
<asrwt>0</asrwt>
<pdfrwt beam="1">  1        1 0.23982219E+00 0.30701174E+04</pdfrwt>
<pdfrwt beam="2">  1       -1 0.47860987E+00 0.30701174E+04</pdfrwt>
<totfact> 0.10002918E-02</totfact>
</mgrwt>
</event>
<event>
11    1  0.4590574E-015  0.3272513E+04  0.7818608E-02  0.8169925E-01
          2   -1    0    0  501    0  0.00000000000E+00  0.00000000000E+00  0.15757244067E+04  0.15757244067E+04  0.00000000000E+00 0.  1.
         -2   -1    0    0    0  501 -0.00000000000E+00 -0.00000000000E+00 -0.16991138848E+04  0.16991138848E+04  0.00000000000E+00 0. -1.
    9900016    2    1    2    0    0  0.15666882360E+03  0.23334228555E+03 -0.43694481389E+02  0.19130875537E+04  0.18918247905E+04 0.  0.
         24    2    3    3    0    0  0.45701444583E+03  0.78293465257E+03 -0.46211278483E+03  0.10192015142E+04  0.58091538418E+02 0.  0.
        -15    1    4    4    0    0  0.12998740734E+03  0.20892475392E+03 -0.15374153269E+03  0.29014261621E+03  0.00000000000E+00 0.  1.
        -15    1    1    2    0    0 -0.38580474129E+03 -0.45776904300E+03 -0.34028140886E+02  0.59962964362E+03  0.00000000000E+00 0.  1.
         15    1    3    3    0    0 -0.32921885739E+03 -0.59106515927E+03  0.40564131368E+03  0.78885230171E+03  0.00000000000E+00 0. -1.
         15    1    1    2    0    0  0.13164652200E+03 -0.18007299603E+02 -0.34207837730E+03  0.36697777291E+03  0.00000000000E+00 0. -1.
        -16    1    1    2    0    0  0.97489395699E+02  0.24243405705E+03  0.29641152152E+03  0.39514332132E+03  0.00000000000E+00 0.  1.
         16    1    4    4    0    0  0.32702703848E+03  0.57400989865E+03 -0.30837125214E+03  0.72905889803E+03  0.00000000000E+00 0. -1.
    9900018    1    3    3    0    0  0.28873235161E+02  0.41472792249E+02  0.12776989763E+02  0.10503373775E+03  0.91187600000E+02 0.  0.
<mgrwt>
<rscale>  0 0.32725129E+04</rscale>
<asrwt>0</asrwt>
<pdfrwt beam="1">  1        2 0.24241914E+00 0.32725129E+04</pdfrwt>
<pdfrwt beam="2">  1       -2 0.26140214E+00 0.32725129E+04</pdfrwt>
<totfact> 0.52689608E-01</totfact>
</mgrwt>
</event>
<event>
11    1  0.4590574E-015  0.3123853E+04  0.7818608E-02  0.8506006E-01
          2   -1    0    0  501    0  0.00000000000E+00  0.00000000000E+00  0.33601535197E+04  0.33601535197E+04  0.00000000000E+00 0. -1.
         -2   -1    0    0    0  501 -0.00000000000E+00 -0.00000000000E+00 -0.13527396447E+04  0.13527396447E+04  0.00000000000E+00 0.  1.
    9900016    2    1    2    0    0  0.58289623384E+03  0.12532916188E+03  0.90392538515E+03  0.21782858414E+04  0.18900721380E+04 0.  0.
        -24    2    3    3    0    0 -0.16713233486E+02  0.28558978027E+03  0.13238145824E+04  0.13582636049E+04  0.10273323203E+03 0.  0.
        -15    1    1    2    0    0  0.44031186593E+03 -0.11867045459E+03  0.11223749240E+03  0.46963227186E+03  0.00000000000E+00 0.  1.
        -15    1    3    3    0    0  0.54752645748E+03 -0.16116753742E+03 -0.42987714572E+03  0.71453100505E+03  0.00000000000E+00 0.  1.
         15    1    1    2    0    0 -0.41456019429E+02 -0.73706946533E+02 -0.37322011947E+03  0.38268077178E+03  0.00000000000E+00 0. -1.
         15    1    4    4    0    0 -0.47746175452E+02  0.20154235409E+03  0.77574189834E+03  0.80291625379E+03  0.00000000000E+00 0. -1.
        -16    1    4    4    0    0  0.31032941966E+02  0.84047426187E+02  0.54807268404E+03  0.55534735106E+03  0.00000000000E+00 0.  1.
         16    1    1    2    0    0 -0.98175208034E+03  0.67048239251E+02  0.13644711169E+04  0.16822942794E+04  0.00000000000E+00 0. -1.
    9900018    1    3    3    0    0  0.52083009847E+02  0.90691902462E+00  0.99879484847E+01  0.10549123151E+03  0.91187600000E+02 0.  0.
<mgrwt>
<rscale>  0 0.22300932E+04</rscale>
<asrwt>0</asrwt>
<pdfrwt beam="1">  1        2 0.51694669E+00 0.31238528E+04</pdfrwt>
<pdfrwt beam="2">  1       -2 0.20811379E+00 0.31238528E+04</pdfrwt>
<totfact> 0.97775889E-02</totfact>
</mgrwt>
</event>
<event>
10    1  0.4590574E-015  0.3035825E+04  0.7818608E-02  0.8353603E-01
         -1   -1    0    0    0  501 -0.00000000000E+00  0.00000000000E+00  0.24118769388E+04  0.24118769388E+04  0.00000000000E+00 0.  1.
          1   -1    0    0  501    0  0.00000000000E+00 -0.00000000000E+00 -0.27394260874E+04  0.27394260874E+04  0.00000000000E+00 0. -1.
    9900016    2    1    2    0    0 -0.17941522292E+03  0.21762013157E+02  0.31960422998E+03  0.18314067066E+04  0.17942241370E+04 0.  0.
        -15    1    1    2    0    0  0.10078406720E+04  0.42504213867E+03 -0.50829688661E+03  0.12061382030E+04  0.00000000000E+00 0.  1.
        -15    1    3    3    0    0  0.13341859552E+03  0.74568970400E+02 -0.52016053151E+03  0.54215129947E+03  0.00000000000E+00 0.  1.
         15    1    3    3    0    0 -0.32157109092E+03 -0.23156408280E+02  0.10388788931E+04  0.10877561952E+04  0.00000000000E+00 0. -1.
         15    1    1    2    0    0  0.27163812334E+03 -0.56950477623E+03 -0.53368947308E+03  0.82640632493E+03  0.00000000000E+00 0. -1.
        -16    1    1    2    0    0 -0.11161153962E+04  0.96104793414E+02  0.40333844776E+03  0.11906433607E+04  0.00000000000E+00 0.  1.
         16    1    3    3    0    0  0.87372724767E+01 -0.29650548963E+02 -0.19911413162E+03  0.20149921189E+03  0.00000000000E+00 0. -1.
    9900018    1    1    2    0    0  0.16051823821E+02  0.26595830991E+02 -0.85054666268E+01  0.96708431020E+02  0.91187600000E+02 0.  0.
<mgrwt>
<rscale>  0 0.26434124E+04</rscale>
<asrwt>0</asrwt>
<pdfrwt beam="1">  1        1 0.42145017E+00 0.30358251E+04</pdfrwt>
<pdfrwt beam="2">  1       -1 0.37105799E+00 0.30358251E+04</pdfrwt>
<totfact> 0.83003572E-03</totfact>
</mgrwt>
</event>
<event>
11    1  0.4590574E-015  0.4252873E+04  0.7818608E-02  0.7955390E-01
         -2   -1    0    0    0  501 -0.00000000000E+00  0.00000000000E+00  0.22294037821E+04  0.22294037821E+04  0.00000000000E+00 0.  1.
          2   -1    0    0  501    0  0.00000000000E+00 -0.00000000000E+00 -0.20282248951E+04  0.20282248951E+04  0.00000000000E+00 0. -1.
    9900016    2    1    2    0    0  0.42301343166E+03 -0.17139662865E+03 -0.61896106395E+02  0.19513264648E+04  0.18961874054E+04 0.  0.
         24    2    3    3    0    0  0.43980705695E+03  0.40116095285E+03  0.70374019063E+03  0.92807314934E+03  0.10820885906E+03 0.  0.
        -15    1    1    2    0    0  0.50854488461E+02 -0.29197219631E+03 -0.90464206727E+01  0.29650595296E+03  0.00000000000E+00 0.  1.
        -15    1    4    4    0    0  0.18543440774E+03  0.17720904348E+03  0.22299511726E+03  0.33987613477E+03  0.00000000000E+00 0.  1.
         15    1    1    2    0    0 -0.73015681818E+03  0.10152408271E+04 -0.16388789574E+03  0.12612304145E+04  0.00000000000E+00 0. -1.
         15    1    3    3    0    0 -0.56706320273E+02 -0.50148670055E+03 -0.74403710289E+03  0.89905268370E+03  0.00000000000E+00 0. -1.
        -16    1    1    2    0    0  0.25628889806E+03 -0.55187200214E+03  0.43600930984E+03  0.74856584498E+03  0.00000000000E+00 0.  1.
         16    1    4    4    0    0  0.25437264922E+03  0.22395190937E+03  0.48074507337E+03  0.58819701457E+03  0.00000000000E+00 0. -1.
    9900018    1    3    3    0    0  0.39912694976E+02 -0.71070880946E+02 -0.21599194136E+02  0.12420063172E+03  0.91187600000E+02 0.  0.
<mgrwt>
<rscale>  0 0.42528730E+04</rscale>
<asrwt>0</asrwt>
<pdfrwt beam="1">  1        2 0.31203460E+00 0.42528730E+04</pdfrwt>
<pdfrwt beam="2">  1       -2 0.34298520E+00 0.42528730E+04</pdfrwt>
<totfact> 0.85772421E-02</totfact>
</mgrwt>
</event>
<event>
11    1  0.4590574E-015  0.2691742E+04  0.7818608E-02  0.8485762E-01
         -1   -1    0    0    0  501 -0.00000000000E+00  0.00000000000E+00  0.11369403167E+04  0.11369403167E+04  0.00000000000E+00 0.  1.
          1   -1    0    0  501    0  0.00000000000E+00 -0.00000000000E+00 -0.46375575254E+04  0.46375575254E+04  0.00000000000E+00 0. -1.
    9900016    2    1    2    0    0  0.86342005114E+02 -0.15572098743E+03 -0.52891519579E+03  0.18831107763E+04  0.17985135372E+04 0.  0.
         24    2    3    3    0    0  0.89567231730E+03 -0.33380478826E+03 -0.15329577961E+03  0.97326499805E+03  0.10045209676E+03 0.  0.
        -15    1    1    2    0    0 -0.63855230149E+03 -0.43317585079E+02 -0.83081573343E+03  0.10487517522E+04  0.00000000000E+00 0.  1.
        -15    1    4    4    0    0  0.59545730856E+03 -0.23522649735E+03 -0.56193236960E+02  0.64269634452E+03  0.00000000000E+00 0.  1.
         15    1    3    3    0    0 -0.80933031218E+03  0.17808380084E+03 -0.37561941617E+03  0.90984577822E+03  0.00000000000E+00 0. -1.
         15    1    1    2    0    0  0.37391209425E+03 -0.57858314187E+03 -0.17507875844E+04  0.18814424977E+04  0.00000000000E+00 0. -1.
        -16    1    1    2    0    0  0.19616061203E+03  0.75813030504E+03 -0.35714678711E+03  0.86069412260E+03  0.00000000000E+00 0.  1.
         16    1    4    4    0    0  0.30021500874E+03 -0.98578290909E+02 -0.97102542653E+02  0.33056865353E+03  0.00000000000E+00 0. -1.
    9900018    1    1    2    0    0 -0.17862409901E+02  0.19491409335E+02 -0.32951907925E+02  0.10049869330E+03  0.91187600000E+02 0.  0.
<mgrwt>
<rscale>  0 0.22802175E+04</rscale>
<asrwt>0</asrwt>
<pdfrwt beam="1">  1        1 0.71347040E+00 0.26917423E+04</pdfrwt>
<pdfrwt beam="2">  1       -1 0.17491389E+00 0.26917423E+04</pdfrwt>
<totfact> 0.43877445E-03</totfact>
</mgrwt>
</event>
<event>
11    1  0.4590574E-015  0.4178867E+04  0.7818608E-02  0.8270497E-01
         -1   -1    0    0    0  501 -0.00000000000E+00  0.00000000000E+00  0.39478367015E+04  0.39478367015E+04  0.00000000000E+00 0.  1.
          1   -1    0    0  501    0  0.00000000000E+00 -0.00000000000E+00 -0.17712068110E+04  0.17712068110E+04  0.00000000000E+00 0. -1.
    9900016    2    1    2    0    0 -0.11436135697E+04  0.96252289329E+03  0.36764492113E+03  0.24338408784E+04  0.18852364087E+04 0.  0.
         24    2    3    3    0    0 -0.12136140324E+04  0.53231845543E+03 -0.47981480835E+03  0.14127431322E+04  0.96948180427E+02 0.  0.
        -15    1    4    4    0    0 -0.48039410589E+03  0.20292774148E+03 -0.23885604735E+03  0.57359426129E+03  0.00000000000E+00 0.  1.
        -15    1    1    2    0    0  0.22825434410E+03  0.39780463985E+02 -0.35790266451E+03  0.42635296197E+03  0.00000000000E+00 0.  1.
         15    1    1    2    0    0  0.39454017001E+03  0.24685638501E+03  0.30267074189E+03  0.55516628011E+03  0.00000000000E+00 0. -1.
         15    1    3    3    0    0  0.98375325839E+02  0.41344012029E+03  0.81446865226E+03  0.91867819355E+03  0.00000000000E+00 0. -1.
        -16    1    1    2    0    0  0.52081905556E+03 -0.12491597423E+04  0.18642168920E+04  0.23036833920E+04  0.00000000000E+00 0.  1.
         16    1    4    4    0    0 -0.73321992650E+03  0.32939071395E+03 -0.24095876101E+03  0.83914887092E+03  0.00000000000E+00 0. -1.
    9900018    1    3    3    0    0 -0.28374863117E+02  0.16764317577E+02  0.32991077221E+02  0.10241955268E+03  0.91187600000E+02 0.  0.
<mgrwt>
<rscale>  0 0.29080136E+04</rscale>
<asrwt>0</asrwt>
<pdfrwt beam="1">  1        1 0.27249336E+00 0.41788670E+04</pdfrwt>
<pdfrwt beam="2">  1       -1 0.60735949E+00 0.41788670E+04</pdfrwt>
<totfact> 0.13149956E-03</totfact>
</mgrwt>
</event>
<event>
10    1  0.4590574E-015  0.2385103E+04  0.7818608E-02  0.8797851E-01
         -2   -1    0    0    0  501 -0.00000000000E+00  0.00000000000E+00  0.25012091802E+04  0.25012091802E+04  0.00000000000E+00 0. -1.
          2   -1    0    0  501    0  0.00000000000E+00 -0.00000000000E+00 -0.11679296632E+04  0.11679296632E+04  0.00000000000E+00 0.  1.
    9900016    2    1    2    0    0  0.22236806811E+03  0.73275272690E+02  0.28090799502E+03  0.18338758971E+04  0.17970460988E+04 0.  0.
        -15    1    3    3    0    0 -0.14782995939E+03 -0.60617303753E+02  0.11344737588E+03  0.19595525383E+03  0.00000000000E+00 0.  1.
        -15    1    1    2    0    0  0.17554465227E+03 -0.30999495978E+02  0.16603277611E+03  0.24360578079E+03  0.00000000000E+00 0.  1.
         15    1    3    3    0    0  0.88004261855E+03  0.31803501771E+03 -0.23257460960E+03  0.96421586379E+03  0.00000000000E+00 0. -1.
         15    1    1    2    0    0 -0.92633169887E+02  0.25980784086E+03  0.99689950451E+03  0.10343546976E+04  0.00000000000E+00 0. -1.
        -16    1    1    2    0    0 -0.33106809956E+03 -0.30499852558E+03 -0.76723526571E+02  0.45663627394E+03  0.00000000000E+00 0.  1.
         16    1    3    3    0    0 -0.50984459106E+03 -0.18414244127E+03  0.40003522873E+03  0.67370477951E+03  0.00000000000E+00 0. -1.
    9900018    1    1    2    0    0  0.25788549064E+02  0.29149080075E+01 -0.33837232027E+02  0.10066619401E+03  0.91187600000E+02 0.  0.
<mgrwt>
<rscale>  0 0.16374742E+04</rscale>
<asrwt>0</asrwt>
<pdfrwt beam="1">  1        2 0.17968149E+00 0.23851029E+04</pdfrwt>
<pdfrwt beam="2">  1       -2 0.38480141E+00 0.23851029E+04</pdfrwt>
<totfact> 0.16174031E-01</totfact>
</mgrwt>
</event>
