<event>
11    1  0.3275620E-009  0.2487788E+04  0.7818608E-02  0.9144928E-01
          1   -1    0    0  501    0  0.00000000000E+00  0.00000000000E+00  0.21128939671E+04  0.21128939671E+04  0.00000000000E+00 0. -1.
         -1   -1    0    0    0  501 -0.00000000000E+00 -0.00000000000E+00 -0.97085791358E+03  0.97085791358E+03  0.00000000000E+00 0.  1.
        -24    2    1    2    0    0 -0.85496619436E+02 -0.46380422482E+02  0.50059502099E+03  0.51460094142E+03  0.68977810573E+02 0.  0.
         24    2    1    2    0    0 -0.23510330726E+03  0.38765386544E+03 -0.29138890727E+03  0.54195375193E+03  0.57072668459E+02 0.  0.
        -15    1    1    2    0    0  0.20329429613E+03  0.23343002001E+03 -0.80181923446E+02  0.31976129523E+03  0.00000000000E+00 0.  1.
        -15    1    4    4    0    0 -0.14542411391E+03  0.22189216615E+03 -0.20151614134E+03  0.33315621189E+03  0.00000000000E+00 0.  1.
         15    1    1    2    0    0  0.22710254424E+03 -0.78703198924E+03  0.18360546127E+03  0.83946761885E+03  0.00000000000E+00 0. -1.
         15    1    3    3    0    0 -0.74711935753E+02 -0.59946100114E+02  0.46782304336E+03  0.47752885584E+03  0.00000000000E+00 0. -1.
        -16    1    3    3    0    0 -0.10784683682E+02  0.13565677633E+02  0.32771977633E+02  0.37072085587E+02  0.00000000000E+00 0.  1.
         16    1    4    4    0    0 -0.89679193347E+02  0.16576169929E+03 -0.89872765932E+02  0.20879754004E+03  0.00000000000E+00 0. -1.
    9900018    1    1    2    0    0 -0.10979691368E+03  0.21232852628E+03  0.82940640201E+03  0.86796827328E+03  0.91187600000E+02 0.  0.
<mgrwt>
<rscale>  0 0.11640396E+04</rscale>
<asrwt>0</asrwt>
<pdfrwt beam="1">  1        1 0.32506061E+00 0.24877882E+04</pdfrwt>
<pdfrwt beam="2">  1       -1 0.14936276E+00 0.24877882E+04</pdfrwt>
<totfact> 0.77493742E-01</totfact>
</mgrwt>
</event>
<event>
12    1  0.3275620E-009  0.3587600E+04  0.7818608E-02  0.8301496E-01
          2   -1    0    0  501    0  0.00000000000E+00  0.00000000000E+00  0.28707880507E+04  0.28707880507E+04  0.00000000000E+00 0. -1.
         -2   -1    0    0    0  501 -0.00000000000E+00 -0.00000000000E+00 -0.27842884849E+04  0.27842884849E+04  0.00000000000E+00 0.  1.
        -24    2    1    2    0    0  0.75700193948E+03 -0.11068570953E+04  0.12993752588E+04  0.18680006835E+04  0.53534330699E+02 0.  0.
    9900016    2    1    2    0    0 -0.15235296442E+04  0.35863422329E+03 -0.55070338289E+03  0.25277608174E+04  0.19069712769E+04 0.  0.
         24    2    4    4    0    0 -0.12343146801E+04  0.42349322940E+03 -0.85907155187E+03  0.15635712212E+04  0.62223691332E+02 0.  0.
        -15    1    5    5    0    0 -0.51937120436E+03  0.18096731370E+03 -0.32558218113E+03  0.63913955691E+03  0.00000000000E+00 0.  1.
        -15    1    1    2    0    0  0.76652770475E+03  0.74822287204E+03 -0.66217231009E+03  0.12593150347E+04  0.00000000000E+00 0.  1.
         15    1    4    4    0    0 -0.55919187518E+02  0.11158701277E+03  0.55625052014E+03  0.57008179949E+03  0.00000000000E+00 0. -1.
         15    1    3    3    0    0  0.42264207150E+03 -0.57753125154E+03  0.67374761939E+03  0.98290616121E+03  0.00000000000E+00 0. -1.
        -16    1    3    3    0    0  0.33435986798E+03 -0.52932584380E+03  0.62562763942E+03  0.88509452232E+03  0.00000000000E+00 0.  1.
         16    1    5    5    0    0 -0.71494347573E+03  0.24252591571E+03 -0.53348937075E+03  0.92443166431E+03  0.00000000000E+00 0. -1.
    9900018    1    4    4    0    0 -0.23329577662E+03 -0.17644601888E+03 -0.24788235116E+03  0.39410779665E+03  0.91187600000E+02 0.  0.
<mgrwt>
<rscale>  0 0.28057168E+04</rscale>
<asrwt>0</asrwt>
<pdfrwt beam="1">  1        2 0.44165970E+00 0.35876003E+04</pdfrwt>
<pdfrwt beam="2">  1       -2 0.42835208E+00 0.35876003E+04</pdfrwt>
<totfact> 0.77528030E-03</totfact>
</mgrwt>
</event>
<event>
11    1  0.3275620E-009  0.2807731E+04  0.7818608E-02  0.8607228E-01
         -2   -1    0    0    0  501 -0.00000000000E+00  0.00000000000E+00  0.15940009265E+04  0.15940009265E+04  0.00000000000E+00 0.  1.
          2   -1    0    0  501    0  0.00000000000E+00 -0.00000000000E+00 -0.19792445016E+04  0.19792445016E+04  0.00000000000E+00 0. -1.
        -24    2    1    2    0    0 -0.38627698462E+03  0.18436214469E+03 -0.20834074674E+03  0.48505547322E+03  0.93132358017E+02 0.  0.
         24    2    1    2    0    0  0.71876780564E+03  0.14445067225E+01  0.86520094105E+02  0.72615661802E+03  0.56466469547E+02 0.  0.
        -15    1    1    2    0    0  0.32706425439E+03  0.14361850990E+03  0.31534338515E+03  0.47648583761E+03  0.00000000000E+00 0.  1.
        -15    1    4    4    0    0  0.17637324583E+03 -0.46684873780E+00 -0.31193876099E+01  0.17640144662E+03  0.00000000000E+00 0.  1.
         15    1    1    2    0    0 -0.79834600603E+03 -0.71763214592E+03  0.10849233529E+03  0.10789452391E+04  0.00000000000E+00 0. -1.
         15    1    3    3    0    0 -0.12259701038E+03  0.32923063457E+02 -0.10226835541E+03  0.16301156885E+03  0.00000000000E+00 0. -1.
        -16    1    3    3    0    0 -0.26367997425E+03  0.15143908123E+03 -0.10607239133E+03  0.32204390437E+03  0.00000000000E+00 0.  1.
         16    1    4    4    0    0  0.54239455982E+03  0.19113554603E+01  0.89639481715E+02  0.54975517140E+03  0.00000000000E+00 0. -1.
    9900018    1    1    2    0    0  0.13879093062E+03  0.38820698461E+03 -0.68725864297E+03  0.80660226013E+03  0.91187600000E+02 0.  0.
<mgrwt>
<rscale>  0 0.19987021E+04</rscale>
<asrwt>0</asrwt>
<pdfrwt beam="1">  1        2 0.30449915E+00 0.28077311E+04</pdfrwt>
<pdfrwt beam="2">  1       -2 0.24523091E+00 0.28077311E+04</pdfrwt>
<totfact> 0.40036248E-01</totfact>
</mgrwt>
</event>
