<event>
12    1  0.9028692E-011  0.3589320E+04  0.7818608E-02  0.8359388E-01
         -2   -1    0    0    0  501 -0.00000000000E+00  0.00000000000E+00  0.18502076972E+04  0.18502076972E+04  0.00000000000E+00 0.  1.
          2   -1    0    0  501    0  0.00000000000E+00 -0.00000000000E+00 -0.30763301547E+04  0.30763301547E+04  0.00000000000E+00 0. -1.
         24    2    1    2    0    0 -0.70428647147E+03 -0.74524616037E+03  0.22861964698E+03  0.10536198545E+04  0.80228308165E+02 0.  0.
    9900016    2    1    2    0    0 -0.26813906405E+03  0.17351027753E+02 -0.14393363584E+04  0.25963687453E+04  0.21441179756E+04 0.  0.
         23    2    4    4    0    0 -0.53455768514E+03  0.12893430532E+03 -0.19399259379E+04  0.20184244257E+04  0.91370367818E+02 0.  0.
        -15    1    5    5    0    0 -0.48804060400E+02  0.39054608256E+02 -0.25708815359E+03  0.26457780983E+03  0.00000000000E+00 0. -1.
        -15    1    3    3    0    0 -0.25038617982E+03 -0.21231873474E+03  0.63229640263E+02  0.33432091106E+03  0.00000000000E+00 0.  1.
         15    1    5    5    0    0 -0.48575362474E+03  0.89879697068E+02 -0.16828377843E+04  0.17538466159E+04  0.00000000000E+00 0.  1.
         15    1    1    2    0    0  0.94859318409E+03  0.68700864244E+03  0.76022981953E+01  0.11712675606E+04  0.00000000000E+00 0. -1.
        -16    1    4    4    0    0  0.26641862109E+03 -0.11158327757E+03  0.50058957945E+03  0.57794431960E+03  0.00000000000E+00 0.  1.
         16    1    3    3    0    0 -0.45390029165E+03 -0.53292742564E+03  0.16539000671E+03  0.71929894347E+03  0.00000000000E+00 0. -1.
    9900018    1    1    2    0    0  0.23832351439E+02  0.40886490178E+02 -0.23008044171E+02  0.10528169140E+03  0.91187600000E+02 0.  0.
<mgrwt>
<rscale>  0 0.26261051E+04</rscale>
<asrwt>0</asrwt>
<pdfrwt beam="1">  1        2 0.47328156E+00 0.35893202E+04</pdfrwt>
<pdfrwt beam="2">  1       -2 0.28464734E+00 0.35893202E+04</pdfrwt>
<totfact> 0.48220781E-02</totfact>
</mgrwt>
</event>
<event>
12    1  0.9028690E-011  0.3555341E+04  0.7818608E-02  0.8373667E-01
         -2   -1    0    0    0  501 -0.00000000000E+00  0.00000000000E+00  0.15308617327E+04  0.15308617327E+04  0.00000000000E+00 0.  1.
          2   -1    0    0  501    0  0.00000000000E+00 -0.00000000000E+00 -0.33798622212E+04  0.33798622212E+04  0.00000000000E+00 0. -1.
         24    2    1    2    0    0  0.93840329872E+03  0.31254095131E+03 -0.46397812439E+03  0.10951323031E+04  0.75871365363E+02 0.  0.
    9900016    2    1    2    0    0 -0.13179103408E+03  0.20403950896E+03 -0.16292079409E+04  0.27177957673E+04  0.21617341002E+04 0.  0.
         23    2    4    4    0    0  0.29055320428E+03 -0.39225834530E+03 -0.18805997365E+04  0.19450450820E+04  0.90869291358E+02 0.  0.
        -15    1    3    3    0    0  0.25488880783E+03  0.64580531382E+02 -0.15392728855E+03  0.30468436052E+03  0.00000000000E+00 0.  1.
        -15    1    5    5    0    0  0.18523309777E+03 -0.31191592985E+03 -0.14375060894E+04  0.14825743168E+04  0.00000000000E+00 0.  1.
         15    1    1    2    0    0 -0.77415380492E+03 -0.52670889259E+03  0.30292327189E+03  0.98412340683E+03  0.00000000000E+00 0. -1.
         15    1    5    5    0    0  0.10532010650E+03 -0.80342415453E+02 -0.44309364716E+03  0.46247076525E+03  0.00000000000E+00 0. -1.
        -16    1    4    4    0    0 -0.42234423836E+03  0.59629785426E+03  0.25139179562E+03  0.77275068526E+03  0.00000000000E+00 0.  1.
         16    1    3    3    0    0  0.68351449089E+03  0.24796041993E+03 -0.31005083585E+03  0.79044794257E+03  0.00000000000E+00 0. -1.
    9900018    1    1    2    0    0 -0.32458459716E+02  0.10128432323E+02 -0.58737695062E+02  0.11367247672E+03  0.91187600000E+02 0.  0.
<mgrwt>
<rscale>  0 0.25839704E+04</rscale>
<asrwt>0</asrwt>
<pdfrwt beam="1">  1        2 0.51997880E+00 0.35553414E+04</pdfrwt>
<pdfrwt beam="2">  1       -2 0.23551719E+00 0.35553414E+04</pdfrwt>
<totfact> 0.61493139E-02</totfact>
</mgrwt>
</event>
<event>
12    1  0.9028690E-011  0.4209742E+04  0.7818608E-02  0.8691283E-01
          1   -1    0    0  501    0  0.00000000000E+00  0.00000000000E+00  0.33086258212E+04  0.33086258212E+04  0.00000000000E+00 0. -1.
         -1   -1    0    0    0  501 -0.00000000000E+00 -0.00000000000E+00 -0.20420672787E+04  0.20420672787E+04  0.00000000000E+00 0.  1.
        -24    2    1    2    0    0 -0.11612096555E+03  0.44439409855E+02  0.11287959220E+04  0.11386973963E+04  0.83621689365E+02 0.  0.
    9900016    2    1    2    0    0  0.11114224420E+04 -0.91076584910E+03 -0.13568296649E+03  0.25881288663E+04  0.21483125668E+04 0.  0.
         23    2    4    4    0    0 -0.39120250478E+03 -0.26792493627E+03 -0.70755819190E+03  0.85660715307E+03  0.91181404526E+02 0.  0.
        -15    1    1    2    0    0 -0.11071752510E+04  0.92606405433E+03  0.26420074601E+03  0.14673900992E+04  0.00000000000E+00 0.  1.
        -15    1    5    5    0    0 -0.68800800961E+02 -0.19659283398E+02 -0.15167362226E+03  0.16770487568E+03  0.00000000000E+00 0.  1.
         15    1    3    3    0    0 -0.77961345861E+02  0.53424438688E+02  0.51151181876E+03  0.52016966734E+03  0.00000000000E+00 0. -1.
         15    1    5    5    0    0 -0.32240170382E+03 -0.24826565288E+03 -0.55588456964E+03  0.68890227739E+03  0.00000000000E+00 0. -1.
        -16    1    3    3    0    0 -0.38159619693E+02 -0.89850288326E+01  0.61728410327E+03  0.61852772894E+03  0.00000000000E+00 0.  1.
         16    1    4    4    0    0  0.15026249468E+04 -0.64284091282E+03  0.57187522542E+03  0.17315217132E+04  0.00000000000E+00 0. -1.
    9900018    1    1    2    0    0  0.11187377451E+03 -0.59737615088E+02  0.92448409387E+01  0.15647673807E+03  0.91187600000E+02 0.  0.
<mgrwt>
<rscale>  0 0.18285101E+04</rscale>
<asrwt>0</asrwt>
<pdfrwt beam="1">  1        1 0.50901936E+00 0.42097422E+04</pdfrwt>
<pdfrwt beam="2">  1       -1 0.31416420E+00 0.42097422E+04</pdfrwt>
<totfact> 0.69965931E-03</totfact>
</mgrwt>
</event>
