<event>
13    1  0.8524906E-007  0.4123233E+04  0.7818608E-02  0.7980138E-01
         -2   -1    0    0    0  501 -0.00000000000E+00  0.00000000000E+00  0.13610319711E+04  0.13610319711E+04  0.00000000000E+00 0.  1.
          2   -1    0    0  501    0  0.00000000000E+00 -0.00000000000E+00 -0.31228240348E+04  0.31228240348E+04  0.00000000000E+00 0. -1.
    9900016    2    1    2    0    0 -0.53708409758E+03  0.72080960103E+03 -0.64717226967E+03  0.21493631355E+04  0.18419837493E+04 0.  0.
        -24    2    3    3    0    0 -0.36346868343E+03  0.11831821243E+04 -0.95596464081E+03  0.15668827575E+04  0.96040398461E+02 0.  0.
    9900016    2    1    2    0    0  0.53708409758E+03 -0.72080960103E+03 -0.11146197940E+04  0.23344928704E+04  0.18437607947E+04 0.  0.
         24    2    5    5    0    0 -0.21271441562E+03 -0.81455182781E+03 -0.77544301193E+03  0.11471056211E+04  0.76140255150E+02 0.  0.
        -15    1    3    3    0    0 -0.17361541415E+03 -0.46237252326E+03  0.30879237114E+03  0.58248037802E+03  0.00000000000E+00 0.  1.
        -15    1    6    6    0    0 -0.62670816680E+02 -0.30310986038E+03 -0.24068152976E+03  0.39208521713E+03  0.00000000000E+00 0.  1.
         15    1    4    4    0    0 -0.22751849280E+03  0.75597504563E+03 -0.66693608658E+03  0.10334731142E+04  0.00000000000E+00 0. -1.
         15    1    5    5    0    0  0.79320167244E+03 -0.66266071136E+02 -0.49922139658E+03  0.93956483978E+03  0.00000000000E+00 0. -1.
        -16    1    4    4    0    0 -0.13595019063E+03  0.42720707866E+03 -0.28902855423E+03  0.53340964329E+03  0.00000000000E+00 0.  1.
         16    1    6    6    0    0 -0.15004359894E+03 -0.51144196743E+03 -0.53476148218E+03  0.75502040400E+03  0.00000000000E+00 0. -1.
    9900018    1    5    5    0    0 -0.43403159243E+02  0.16000829792E+03  0.16004461447E+03  0.24782240950E+03  0.91187600000E+02 0.  0.
<mgrwt>
<rscale>  0 0.41232334E+04</rscale>
<asrwt>0</asrwt>
<pdfrwt beam="1">  1        2 0.48043447E+00 0.41232334E+04</pdfrwt>
<pdfrwt beam="2">  1       -2 0.20938953E+00 0.41232334E+04</pdfrwt>
<totfact> 0.13121153E-01</totfact>
</mgrwt>
</event>
<event>
12    1  0.8524906E-007  0.4678669E+04  0.7818608E-02  0.7880082E-01
          2   -1    0    0  501    0  0.00000000000E+00  0.00000000000E+00  0.26318425979E+04  0.26318425979E+04  0.00000000000E+00 0. -1.
         -2   -1    0    0    0  501 -0.00000000000E+00 -0.00000000000E+00 -0.20793365416E+04  0.20793365416E+04  0.00000000000E+00 0.  1.
    9900016    2    1    2    0    0  0.41743325273E+03 -0.61606069289E+03  0.15160871082E+04  0.25009165997E+04  0.18445276960E+04 0.  0.
    9900016    2    1    2    0    0 -0.41743325273E+03  0.61606069289E+03 -0.96358105190E+03  0.22102625398E+04  0.18447196951E+04 0.  0.
        -24    2    4    4    0    0 -0.38511926256E+03 -0.59368913410E+03 -0.39149916771E+03  0.81267641021E+03  0.79923182180E+02 0.  0.
        -15    1    3    3    0    0  0.44075963099E+03  0.34926073861E+03  0.76346874732E+03  0.94822816029E+03  0.00000000000E+00 0.  1.
        -15    1    4    4    0    0 -0.14388771294E+02  0.46754211427E+03 -0.20515613728E+02  0.46821315206E+03  0.00000000000E+00 0.  1.
         15    1    3    3    0    0 -0.22700242211E+03 -0.10926052889E+04  0.58663122123E+03  0.12607349470E+04  0.00000000000E+00 0. -1.
         15    1    5    5    0    0 -0.13904933117E+03 -0.28396046944E+03 -0.16034316915E+03  0.35451120799E+03  0.00000000000E+00 0. -1.
        -16    1    5    5    0    0 -0.24606993140E+03 -0.30972866466E+03 -0.23115599856E+03  0.45816520222E+03  0.00000000000E+00 0.  1.
         16    1    3    3    0    0  0.20367604385E+03  0.12728385737E+03  0.16598713968E+03  0.29195349240E+03  0.00000000000E+00 0. -1.
    9900018    1    4    4    0    0 -0.17925218871E+02  0.74220771272E+03 -0.55156627046E+03  0.92937297755E+03  0.91187600000E+02 0.  0.
<mgrwt>
<rscale>  0 0.46786692E+04</rscale>
<asrwt>0</asrwt>
<pdfrwt beam="1">  1        2 0.40489886E+00 0.46786692E+04</pdfrwt>
<pdfrwt beam="2">  1       -2 0.31989793E+00 0.46786692E+04</pdfrwt>
<totfact> 0.52194986E-02</totfact>
</mgrwt>
</event>
<event>
13    1  0.8524906E-007  0.4285590E+04  0.7818608E-02  0.7949288E-01
          1   -1    0    0  501    0  0.00000000000E+00  0.00000000000E+00  0.21051227120E+04  0.21051227120E+04  0.00000000000E+00 0. -1.
         -1   -1    0    0    0  501 -0.00000000000E+00 -0.00000000000E+00 -0.21811412964E+04  0.21811412964E+04  0.00000000000E+00 0.  1.
    9900016    2    1    2    0    0 -0.92876264276E+03  0.49810966502E+03 -0.32751390506E+03  0.21511335245E+04  0.18464551977E+04 0.  0.
        -24    2    3    3    0    0 -0.21413593778E+03 -0.65813432975E+03  0.14272815601E+03  0.71282928026E+03  0.93590920661E+02 0.  0.
    9900016    2    1    2    0    0  0.92876264276E+03 -0.49810966502E+03  0.25149532069E+03  0.21351304839E+04  0.18397877601E+04 0.  0.
         24    2    5    5    0    0 -0.31314150125E+03 -0.20208705028E+03  0.16632777182E+03  0.41586217875E+03  0.79872700809E+02 0.  0.
        -15    1    6    6    0    0 -0.27475585883E+03 -0.14359570950E+03  0.12272254022E+03  0.33342365187E+03  0.00000000000E+00 0.  1.
        -15    1    3    3    0    0 -0.71462670497E+03  0.11562439948E+04 -0.47024206107E+03  0.14383042442E+04  0.00000000000E+00 0.  1.
         15    1    5    5    0    0  0.69361924124E+03  0.37771331479E+03  0.25410749111E+03  0.82966596714E+03  0.00000000000E+00 0. -1.
         15    1    4    4    0    0 -0.95206256652E+02 -0.42831485234E+03  0.10678706603E+03  0.45157648468E+03  0.00000000000E+00 0. -1.
        -16    1    4    4    0    0 -0.11892968113E+03 -0.22981947741E+03  0.35941089977E+02  0.26125279558E+03  0.00000000000E+00 0.  1.
         16    1    6    6    0    0 -0.38385642424E+02 -0.58491340779E+02  0.43605231607E+02  0.82438526878E+02  0.00000000000E+00 0. -1.
    9900018    1    5    5    0    0  0.54828490277E+03 -0.67373592954E+03 -0.16893994225E+03  0.88960233803E+03  0.91187600000E+02 0.  0.
<mgrwt>
<rscale>  0 0.42855898E+04</rscale>
<asrwt>0</asrwt>
<pdfrwt beam="1">  1        1 0.32386503E+00 0.42855898E+04</pdfrwt>
<pdfrwt beam="2">  1       -1 0.33556020E+00 0.42855898E+04</pdfrwt>
<totfact> 0.37408340E-02</totfact>
</mgrwt>
</event>
<event>
13    1  0.8524906E-007  0.4439982E+04  0.7818608E-02  0.7921229E-01
         -1   -1    0    0    0  501 -0.00000000000E+00  0.00000000000E+00  0.12929528752E+04  0.12929528752E+04  0.00000000000E+00 0.  1.
          1   -1    0    0  501    0  0.00000000000E+00 -0.00000000000E+00 -0.38117084614E+04  0.38117084614E+04  0.00000000000E+00 0. -1.
    9900016    2    1    2    0    0  0.45247260875E+03 -0.11418988283E+04 -0.11478464838E+04  0.24929965310E+04  0.18408736397E+04 0.  0.
         24    2    3    3    0    0  0.33885579446E+03  0.42697418746E+03 -0.13658895042E+02  0.55375626564E+03  0.96587939851E+02 0.  0.
    9900016    2    1    2    0    0 -0.45247260875E+03  0.11418988283E+04 -0.13709091024E+04  0.26116648057E+04  0.18527646624E+04 0.  0.
        -24    2    5    5    0    0 -0.25287310272E+03  0.64119736955E+02  0.34106274089E+03  0.43685601384E+03  0.80394258886E+02 0.  0.
        -15    1    5    5    0    0 -0.89387347998E+02 -0.92749970281E+02 -0.52689963469E+02  0.13917214958E+03  0.00000000000E+00 0.  1.
        -15    1    4    4    0    0  0.24783112763E+03  0.36268794927E+03  0.11857108161E+02  0.43943532787E+03  0.00000000000E+00 0.  1.
         15    1    3    3    0    0  0.11361681428E+03 -0.15688730158E+04 -0.11341875887E+04  0.19392402653E+04  0.00000000000E+00 0. -1.
         15    1    6    6    0    0 -0.16266041038E+03  0.78843036814E+02  0.24212000692E+03  0.30215348965E+03  0.00000000000E+00 0. -1.
        -16    1    6    6    0    0 -0.90212692334E+02 -0.14723299860E+02  0.98942733977E+02  0.13470252419E+03  0.00000000000E+00 0.  1.
         16    1    4    4    0    0  0.91024666837E+02  0.64286238189E+02 -0.25516003203E+02  0.11432093777E+03  0.00000000000E+00 0. -1.
    9900018    1    5    5    0    0 -0.11021215803E+03  0.11705290617E+04 -0.16592818799E+04  0.20356366422E+04  0.91187600000E+02 0.  0.
<mgrwt>
<rscale>  0 0.44399817E+04</rscale>
<asrwt>0</asrwt>
<pdfrwt beam="1">  1        1 0.58641668E+00 0.44399817E+04</pdfrwt>
<pdfrwt beam="2">  1       -1 0.19891583E+00 0.44399817E+04</pdfrwt>
<totfact> 0.16069280E-02</totfact>
</mgrwt>
</event>
<event>
13    1  0.8524906E-007  0.4244097E+04  0.7818608E-02  0.7957037E-01
          2   -1    0    0  501    0  0.00000000000E+00  0.00000000000E+00  0.21716425346E+04  0.21716425346E+04  0.00000000000E+00 0. -1.
         -2   -1    0    0    0  501 -0.00000000000E+00 -0.00000000000E+00 -0.20735872957E+04  0.20735872957E+04  0.00000000000E+00 0.  1.
    9900016    2    1    2    0    0  0.52004523494E+03 -0.65224155601E+03 -0.59155715048E+03  0.21101334135E+04  0.18457673382E+04 0.  0.
        -24    2    3    3    0    0  0.83237134010E+03 -0.34134668614E+03  0.42711490868E+03  0.10002253181E+04  0.93080254702E+02 0.  0.
    9900016    2    1    2    0    0 -0.52004523494E+03  0.65224155601E+03  0.68961238932E+03  0.21350964168E+04  0.18404361895E+04 0.  0.
         24    2    5    5    0    0 -0.97821357563E+03 -0.90423986428E+02  0.25920494066E+03  0.10191631761E+04  0.80175316676E+02 0.  0.
        -15    1    3    3    0    0 -0.31232610516E+03 -0.31089486987E+03 -0.10186720592E+04  0.11099080954E+04  0.00000000000E+00 0.  1.
        -15    1    6    6    0    0 -0.75344859706E+03 -0.35569412392E+02  0.19787483764E+03  0.77981050447E+03  0.00000000000E+00 0.  1.
         15    1    4    4    0    0  0.49021304372E+03 -0.23360940192E+03  0.21916707839E+03  0.58559063274E+03  0.00000000000E+00 0. -1.
         15    1    5    5    0    0  0.25432559989E+03  0.87153820590E+02 -0.49539613890E+02  0.27337057733E+03  0.00000000000E+00 0. -1.
        -16    1    4    4    0    0  0.34215829638E+03 -0.10773728422E+03  0.20794783029E+03  0.41463468537E+03  0.00000000000E+00 0.  1.
         16    1    6    6    0    0 -0.22476497857E+03 -0.54854574036E+02  0.61330103017E+02  0.23935267164E+03  0.00000000000E+00 0. -1.
    9900018    1    5    5    0    0  0.20384274079E+03  0.65551172185E+03  0.47994706256E+03  0.84256266337E+03  0.91187600000E+02 0.  0.
<mgrwt>
<rscale>  0 0.42440973E+04</rscale>
<asrwt>0</asrwt>
<pdfrwt beam="1">  1        2 0.33409885E+00 0.42440973E+04</pdfrwt>
<pdfrwt beam="2">  1       -2 0.31901343E+00 0.42440973E+04</pdfrwt>
<totfact> 0.10061808E-01</totfact>
</mgrwt>
</event>
<event>
13    1  0.8524906E-007  0.4465401E+04  0.7818608E-02  0.7916722E-01
         -1   -1    0    0    0  501 -0.00000000000E+00  0.00000000000E+00  0.22525784921E+04  0.22525784921E+04  0.00000000000E+00 0.  1.
          1   -1    0    0  501    0  0.00000000000E+00 -0.00000000000E+00 -0.22129976575E+04  0.22129976575E+04  0.00000000000E+00 0. -1.
    9900016    2    1    2    0    0  0.86436125641E+03 -0.81542699790E+03  0.41240383416E+03  0.22404125987E+04  0.18540038078E+04 0.  0.
        -24    2    3    3    0    0 -0.30545210178E+03  0.31799067113E+03  0.41922651873E+03  0.61156470694E+03  0.61979539916E+02 0.  0.
    9900016    2    1    2    0    0 -0.86436125641E+03  0.81542699790E+03 -0.37282299957E+03  0.22251635509E+04  0.18439941076E+04 0.  0.
         24    2    5    5    0    0  0.39545539118E+02 -0.21381475829E+03 -0.16919270600E+03  0.28686512317E+03  0.79905109977E+02 0.  0.
        -15    1    6    6    0    0  0.15466466574E+02 -0.10530722839E+03 -0.13220268755E+03  0.16972440760E+03  0.00000000000E+00 0.  1.
        -15    1    3    3    0    0  0.11698133582E+04 -0.11334176690E+04 -0.68226845678E+01  0.16288478918E+04  0.00000000000E+00 0.  1.
         15    1    4    4    0    0 -0.20672786171E+03  0.17615914933E+03  0.27447906914E+03  0.38614403284E+03  0.00000000000E+00 0. -1.
         15    1    5    5    0    0  0.22637789121E+03  0.69077118117E+03  0.47800041697E+02  0.72848927126E+03  0.00000000000E+00 0. -1.
        -16    1    4    4    0    0 -0.98724240070E+02  0.14183152179E+03  0.14474744959E+03  0.22542067411E+03  0.00000000000E+00 0.  1.
         16    1    6    6    0    0  0.24079072544E+02 -0.10850752990E+03 -0.36990018453E+02  0.11714071557E+03  0.00000000000E+00 0. -1.
    9900018    1    5    5    0    0 -0.11302846867E+04  0.33847057502E+03 -0.25143033526E+03  0.12098091565E+04  0.91187600000E+02 0.  0.
<mgrwt>
<rscale>  0 0.44654007E+04</rscale>
<asrwt>0</asrwt>
<pdfrwt beam="1">  1        1 0.34046118E+00 0.44654007E+04</pdfrwt>
<pdfrwt beam="2">  1       -1 0.34655054E+00 0.44654007E+04</pdfrwt>
<totfact> 0.26339991E-02</totfact>
</mgrwt>
</event>
<event>
13    1  0.8524906E-007  0.4879623E+04  0.7818608E-02  0.7847350E-01
          2   -1    0    0  501    0  0.00000000000E+00  0.00000000000E+00  0.24668372084E+04  0.24668372084E+04  0.00000000000E+00 0. -1.
         -2   -1    0    0    0  501 -0.00000000000E+00 -0.00000000000E+00 -0.24130821110E+04  0.24130821110E+04  0.00000000000E+00 0.  1.
    9900016    2    1    2    0    0 -0.12090693614E+04  0.10083097593E+04 -0.28163962421E+03  0.24387511321E+04  0.18410999199E+04 0.  0.
         24    2    3    3    0    0 -0.83475088132E+03  0.96061219258E+03 -0.10040625689E+04  0.16237147566E+04  0.93397806292E+02 0.  0.
    9900016    2    1    2    0    0  0.12090693614E+04 -0.10083097593E+04  0.33539472156E+03  0.24411681873E+04  0.18352861378E+04 0.  0.
        -24    2    5    5    0    0  0.11441862611E+04 -0.41609743947E+03 -0.11877855124E+03  0.12258595653E+04  0.79523897301E+02 0.  0.
        -15    1    5    5    0    0 -0.23693723299E+03  0.31473388073E+01 -0.17416106252E+03  0.29407691819E+03  0.00000000000E+00 0.  1.
        -15    1    4    4    0    0 -0.17579426779E+03  0.18483341890E+03 -0.24800516257E+03  0.35577180607E+03  0.00000000000E+00 0.  1.
         15    1    6    6    0    0  0.39183319228E+03 -0.14434346813E+03 -0.29199192704E+01  0.41758449839E+03  0.00000000000E+00 0. -1.
         15    1    3    3    0    0 -0.37431848011E+03  0.47697566734E+02  0.72242294468E+03  0.81503637552E+03  0.00000000000E+00 0. -1.
        -16    1    6    6    0    0  0.75235306884E+03 -0.27175397134E+03 -0.11585863197E+03  0.80827506688E+03  0.00000000000E+00 0.  1.
         16    1    4    4    0    0 -0.65895661353E+03  0.77577877368E+03 -0.75605740632E+03  0.12679429506E+04  0.00000000000E+00 0. -1.
    9900018    1    5    5    0    0  0.30182033330E+03 -0.59535965865E+03  0.62833433532E+03  0.92123170379E+03  0.91187600000E+02 0.  0.
<mgrwt>
<rscale>  0 0.48796232E+04</rscale>
<asrwt>0</asrwt>
<pdfrwt beam="1">  1        2 0.37951342E+00 0.48796232E+04</pdfrwt>
<pdfrwt beam="2">  1       -2 0.37124340E+00 0.48796232E+04</pdfrwt>
<totfact> 0.30490223E-02</totfact>
</mgrwt>
</event>
<event>
12    1  0.8524906E-007  0.4811416E+04  0.7818608E-02  0.7858275E-01
          2   -1    0    0  501    0  0.00000000000E+00  0.00000000000E+00  0.21404682003E+04  0.21404682003E+04  0.00000000000E+00 0. -1.
         -2   -1    0    0    0  501 -0.00000000000E+00 -0.00000000000E+00 -0.27038159318E+04  0.27038159318E+04  0.00000000000E+00 0.  1.
    9900016    2    1    2    0    0  0.14297807178E+04  0.51506755294E+03 -0.17205704864E+02  0.23905594694E+04  0.18452401077E+04 0.  0.
    9900016    2    1    2    0    0 -0.14297807178E+04 -0.51506755294E+03 -0.54614202667E+03  0.24537246627E+04  0.18474106533E+04 0.  0.
        -24    2    4    4    0    0  0.14129715620E+03 -0.43466441509E+03  0.62346488482E+00  0.46393920741E+03  0.79631396882E+02 0.  0.
        -15    1    4    4    0    0 -0.34194286140E+03  0.43932610777E+03 -0.29011719964E+03  0.62777411460E+03  0.00000000000E+00 0.  1.
        -15    1    3    3    0    0 -0.10433655334E+03  0.91503584848E+01  0.40754472659E+03  0.42078801028E+03  0.00000000000E+00 0.  1.
         15    1    3    3    0    0  0.16683436367E+04  0.53300087244E+03 -0.48916579863E+03  0.18184453796E+04  0.00000000000E+00 0. -1.
         15    1    5    5    0    0  0.34124018935E+02 -0.22730167098E+03 -0.12142067960E+02  0.23016934660E+03  0.00000000000E+00 0. -1.
        -16    1    5    5    0    0  0.10717313727E+03 -0.20736274411E+03  0.12765532844E+02  0.23376986081E+03  0.00000000000E+00 0.  1.
         16    1    3    3    0    0 -0.13422636550E+03 -0.27083677986E+02  0.64415367178E+02  0.15132607950E+03  0.00000000000E+00 0. -1.
    9900018    1    4    4    0    0 -0.12291350126E+04 -0.51972924562E+03 -0.25664829191E+03  0.13620113407E+04  0.91187600000E+02 0.  0.
<mgrwt>
<rscale>  0 0.48114164E+04</rscale>
<asrwt>0</asrwt>
<pdfrwt beam="1">  1        2 0.32930280E+00 0.48114164E+04</pdfrwt>
<pdfrwt beam="2">  1       -2 0.41597168E+00 0.48114164E+04</pdfrwt>
<totfact> 0.24045856E-02</totfact>
</mgrwt>
</event>
