<event>
11    1  0.7543436E-019  0.4338374E+04  0.7818608E-02  0.7939560E-01
          2   -1    0    0  501    0  0.00000000000E+00  0.00000000000E+00  0.26551124377E+04  0.26551124377E+04  0.00000000000E+00 0. -1.
         -2   -1    0    0    0  501 -0.00000000000E+00 -0.00000000000E+00 -0.17721933374E+04  0.17721933374E+04  0.00000000000E+00 0.  1.
         24    2    1    2    0    0  0.88532014749E+02  0.37771016663E+03  0.60499577760E+03  0.72149404751E+03  0.63489228054E+02 0.  0.
    9900016    2    1    2    0    0  0.54778253351E+02 -0.53911555065E+03 -0.82315360848E+03  0.23617868402E+04  0.21463478240E+04 0.  0.
        -15    1    3    3    0    0  0.91745747657E+02  0.35291969551E+03  0.58560493663E+03  0.68985703989E+03  0.00000000000E+00 0.  1.
        -15    1    4    4    0    0  0.54418515404E+03  0.57695412623E+03  0.32914276211E+02  0.79378642923E+03  0.00000000000E+00 0. -1.
         15    1    4    4    0    0  0.57686483338E+02 -0.72157096637E+00  0.27263207057E+01  0.57755379396E+02  0.00000000000E+00 0.  1.
         15    1    1    2    0    0 -0.19411242561E+03  0.16991222622E+03  0.11831622878E+04  0.12109594534E+04  0.00000000000E+00 0. -1.
        -16    1    4    4    0    0 -0.54709338403E+03 -0.11153481059E+04 -0.85879420540E+03  0.15102450316E+04  0.00000000000E+00 0.  1.
         16    1    3    3    0    0 -0.32137329072E+01  0.24790471123E+02  0.19390840970E+02  0.31637007621E+02  0.00000000000E+00 0. -1.
    9900018    1    1    2    0    0  0.50802157513E+02 -0.85068421925E+01 -0.82085356656E+02  0.13306543407E+03  0.91187600000E+02 0.  0.
<mgrwt>
<rscale>  0 0.43383742E+04</rscale>
<asrwt>0</asrwt>
<pdfrwt beam="1">  1        2 0.40847884E+00 0.43383742E+04</pdfrwt>
<pdfrwt beam="2">  1       -2 0.27264513E+00 0.43383742E+04</pdfrwt>
<totfact> 0.10121424E-01</totfact>
</mgrwt>
</event>
<event>
11    1  0.7543436E-019  0.3485301E+04  0.7818608E-02  0.8117282E-01
          1   -1    0    0  501    0  0.00000000000E+00  0.00000000000E+00  0.75978707375E+03  0.75978707375E+03  0.00000000000E+00 0. -1.
         -1   -1    0    0    0  501 -0.00000000000E+00 -0.00000000000E+00 -0.39969496972E+04  0.39969496972E+04  0.00000000000E+00 0.  1.
         24    2    1    2    0    0  0.49726257690E+03 -0.50459702173E+02  0.11683000887E+03  0.52326295500E+03  0.10167899082E+03 0.  0.
    9900016    2    1    2    0    0 -0.49311521372E+03 -0.47395767841E+02 -0.34146575139E+04  0.41182647820E+04  0.22482904404E+04 0.  0.
        -15    1    4    4    0    0  0.15536177991E+03  0.30062906611E+03 -0.10177439779E+03  0.35337394654E+03  0.00000000000E+00 0.  1.
        -15    1    3    3    0    0  0.19496606007E+03 -0.64889074742E+02  0.24994163052E+02  0.20699532552E+03  0.00000000000E+00 0.  1.
         15    1    1    2    0    0 -0.41473631728E+01  0.97855470014E+02  0.60664881648E+02  0.11520903393E+03  0.00000000000E+00 0. -1.
         15    1    4    4    0    0 -0.11916437814E+03  0.46652651352E+03 -0.20956861473E+04  0.21502901118E+04  0.00000000000E+00 0. -1.
        -16    1    4    4    0    0 -0.47993114201E+03 -0.82510465852E+03 -0.11255700261E+04  0.14758182416E+04  0.00000000000E+00 0.  1.
         16    1    3    3    0    0  0.30229651683E+03  0.14429372569E+02  0.91835845821E+02  0.31626762948E+03  0.00000000000E+00 0. -1.
    9900018    1    4    4    0    0 -0.49381473483E+02  0.10553311047E+02 -0.91626942705E+02  0.13878248204E+03  0.91187600000E+02 0.  0.
<mgrwt>
<rscale>  0 0.34853010E+04</rscale>
<asrwt>0</asrwt>
<pdfrwt beam="1">  1        1 0.11689032E+00 0.34853010E+04</pdfrwt>
<pdfrwt beam="2">  1       -1 0.61491535E+00 0.34853010E+04</pdfrwt>
<totfact> 0.75338896E-03</totfact>
</mgrwt>
</event>
<event>
11    1  0.7543436E-019  0.3668588E+04  0.7818608E-02  0.8074959E-01
          1   -1    0    0  501    0  0.00000000000E+00  0.00000000000E+00  0.27268047285E+04  0.27268047285E+04  0.00000000000E+00 0. -1.
         -1   -1    0    0    0  501 -0.00000000000E+00 -0.00000000000E+00 -0.12339111927E+04  0.12339111927E+04  0.00000000000E+00 0.  1.
         24    2    1    2    0    0  0.21103053940E+03  0.74425730036E+03  0.61991249101E+03  0.99285350415E+03  0.54897782150E+02 0.  0.
    9900016    2    1    2    0    0 -0.11434613272E+03 -0.10028480442E+04  0.51470285871E+03  0.25155568723E+04  0.22459581713E+04 0.  0.
        -15    1    4    4    0    0 -0.36179120815E+03  0.64596658886E+02 -0.14636982159E+03  0.39558783008E+03  0.00000000000E+00 0.  1.
        -15    1    3    3    0    0  0.10994068335E+03  0.29863216523E+03  0.23947913735E+03  0.39826923204E+03  0.00000000000E+00 0.  1.
         15    1    4    4    0    0 -0.65687950609E+03 -0.35406350629E+03  0.24219346667E+03  0.78454402509E+03  0.00000000000E+00 0. -1.
         15    1    1    2    0    0 -0.96684406688E+02  0.25859074380E+03  0.35827818604E+03  0.45230554481E+03  0.00000000000E+00 0. -1.
        -16    1    4    4    0    0  0.94602654480E+03 -0.63752925269E+03  0.35738903933E+03  0.11954650547E+04  0.00000000000E+00 0.  1.
         16    1    3    3    0    0  0.10108985605E+03  0.44562513513E+03  0.38043335366E+03  0.59458427210E+03  0.00000000000E+00 0. -1.
    9900018    1    4    4    0    0 -0.41701963279E+02 -0.75851944067E+02  0.61490174301E+02  0.13995996245E+03  0.91187600000E+02 0.  0.
<mgrwt>
<rscale>  0 0.36685882E+04</rscale>
<asrwt>0</asrwt>
<pdfrwt beam="1">  1        1 0.41950842E+00 0.36685882E+04</pdfrwt>
<pdfrwt beam="2">  1       -1 0.18983249E+00 0.36685882E+04</pdfrwt>
<totfact> 0.13385864E-01</totfact>
</mgrwt>
</event>
