<event>
11    1  0.9721318E-007  0.4036811E+04  0.7818608E-02  0.8238087E-01
          2   -1    0    0  501    0  0.00000000000E+00  0.00000000000E+00  0.28457186155E+04  0.28457186155E+04  0.00000000000E+00 0. -1.
         -2   -1    0    0    0  501 -0.00000000000E+00 -0.00000000000E+00 -0.24709284598E+04  0.24709284598E+04  0.00000000000E+00 0.  1.
    9900016    2    1    2    0    0 -0.72140057708E+03  0.17752563578E+03 -0.32324191177E+02  0.19867360911E+04  0.18423195430E+04 0.  0.
         24    2    3    3    0    0  0.14345132703E+03 -0.34895601771E+03 -0.68207206275E+03  0.78368827658E+03  0.81218412589E+02 0.  0.
        -15    1    4    4    0    0  0.71733729273E+02 -0.15969781473E+03 -0.39888024781E+03  0.43560827820E+03  0.00000000000E+00 0.  1.
        -15    1    1    2    0    0  0.67616728037E+03  0.90955777123E+03 -0.57236933078E+02  0.11348011265E+04  0.00000000000E+00 0.  1.
         15    1    3    3    0    0 -0.86485190411E+03  0.52648165349E+03  0.64974787157E+03  0.12030478146E+04  0.00000000000E+00 0. -1.
         15    1    1    2    0    0  0.72707580648E+03 -0.68831419260E+03  0.18178263974E+03  0.10175758371E+04  0.00000000000E+00 0. -1.
        -16    1    1    2    0    0  0.15865950936E+03 -0.19996130529E+03 -0.24314396142E+02  0.25641480726E+03  0.00000000000E+00 0.  1.
         16    1    4    4    0    0  0.71717597758E+02 -0.18925820297E+03 -0.28319181494E+03  0.34807999838E+03  0.00000000000E+00 0. -1.
    9900018    1    1    2    0    0 -0.84050201912E+03 -0.19880790913E+03  0.30688303636E+03  0.92111921339E+03  0.91187600000E+02 0.  0.
<mgrwt>
<rscale>  0 0.30198450E+04</rscale>
<asrwt>0</asrwt>
<pdfrwt beam="1">  1        2 0.43780286E+00 0.40368109E+04</pdfrwt>
<pdfrwt beam="2">  1       -2 0.38014284E+00 0.40368109E+04</pdfrwt>
<totfact> 0.16332882E-02</totfact>
</mgrwt>
</event>
<event>
11    1  0.9721318E-007  0.3560402E+04  0.7818608E-02  0.8377691E-01
         -1   -1    0    0    0  501 -0.00000000000E+00  0.00000000000E+00  0.19647665706E+04  0.19647665706E+04  0.00000000000E+00 0.  1.
          1   -1    0    0  501    0  0.00000000000E+00 -0.00000000000E+00 -0.26513862560E+04  0.26513862560E+04  0.00000000000E+00 0. -1.
    9900016    2    1    2    0    0  0.88907422170E+03  0.14905097721E+03  0.58900603071E+03  0.21374645354E+04  0.18463903625E+04 0.  0.
        -24    2    3    3    0    0  0.47893836972E+03 -0.80631965709E+03  0.56430967254E+03  0.10974864703E+04  0.80608898139E+02 0.  0.
        -15    1    3    3    0    0  0.41013585198E+03  0.95537063430E+03  0.24696358174E+02  0.10399780652E+04  0.00000000000E+00 0.  1.
        -15    1    1    2    0    0 -0.33188241643E+03  0.49797938598E+03 -0.14089617592E+03  0.61480170753E+03  0.00000000000E+00 0.  1.
         15    1    4    4    0    0  0.21520881928E+03 -0.38554980071E+03  0.22088531519E+03  0.49371429713E+03  0.00000000000E+00 0. -1.
         15    1    1    2    0    0  0.13423406584E+03 -0.62292791134E+03 -0.84504156557E+03  0.10583729091E+04  0.00000000000E+00 0. -1.
        -16    1    4    4    0    0  0.26372955044E+03 -0.42076985638E+03  0.34342435735E+03  0.60377217312E+03  0.00000000000E+00 0.  1.
         16    1    1    2    0    0 -0.34365162047E+03  0.80634974862E+02 -0.24208868651E+03  0.42802496137E+03  0.00000000000E+00 0. -1.
    9900018    1    1    2    0    0 -0.34777425065E+03 -0.10473742671E+03 -0.47599288110E+02  0.37748871319E+03  0.91187600000E+02 0.  0.
<mgrwt>
<rscale>  0 0.25722437E+04</rscale>
<asrwt>0</asrwt>
<pdfrwt beam="1">  1        1 0.40790558E+00 0.35604025E+04</pdfrwt>
<pdfrwt beam="2">  1       -1 0.30227178E+00 0.35604025E+04</pdfrwt>
<totfact> 0.26651502E-02</totfact>
</mgrwt>
</event>
<event>
12    1  0.9721318E-007  0.3147649E+04  0.7818608E-02  0.8364738E-01
          2   -1    0    0  501    0  0.00000000000E+00  0.00000000000E+00  0.20240307974E+04  0.20240307974E+04  0.00000000000E+00 0. -1.
         -2   -1    0    0    0  501 -0.00000000000E+00 -0.00000000000E+00 -0.30111862866E+04  0.30111862866E+04  0.00000000000E+00 0.  1.
        -24    2    1    2    0    0 -0.13554560978E+04  0.60810357399E+03  0.47787530058E+03  0.15633290396E+04  0.92637430023E+02 0.  0.
    9900016    2    1    2    0    0  0.11922873549E+04 -0.92533858140E+02 -0.60775174782E+03  0.22777230737E+04  0.18408010653E+04 0.  0.
         24    2    4    4    0    0 -0.81652679032E+02  0.64367675348E+03 -0.45946403717E+03  0.79889971717E+03  0.78400469881E+02 0.  0.
        -15    1    5    5    0    0  0.49275655364E+01  0.25880802678E+03 -0.17210708202E+03  0.31084839281E+03  0.00000000000E+00 0.  1.
        -15    1    1    2    0    0  0.31523484604E+03 -0.49725423308E+03 -0.42367952211E+03  0.72535447743E+03  0.00000000000E+00 0.  1.
         15    1    3    3    0    0 -0.80929110340E+03  0.40755872304E+03  0.31187704606E+03  0.95829196732E+03  0.00000000000E+00 0. -1.
         15    1    4    4    0    0  0.12739400339E+04 -0.73621061162E+03 -0.14828771065E+03  0.14788233565E+04  0.00000000000E+00 0. -1.
        -16    1    3    3    0    0 -0.54616499442E+03  0.20054485095E+03  0.16599825452E+03  0.60503707231E+03  0.00000000000E+00 0.  1.
         16    1    5    5    0    0 -0.86580244568E+02  0.38486872670E+03 -0.28735695515E+03  0.48805132437E+03  0.00000000000E+00 0. -1.
    9900018    1    1    2    0    0 -0.15206610312E+03 -0.18315482776E+02 -0.43359951985E+03  0.46881049331E+03  0.91187600000E+02 0.  0.
<mgrwt>
<rscale>  0 0.26102191E+04</rscale>
<asrwt>0</asrwt>
<pdfrwt beam="1">  1        2 0.31138936E+00 0.31476485E+04</pdfrwt>
<pdfrwt beam="2">  1       -2 0.46325943E+00 0.31476485E+04</pdfrwt>
<totfact> 0.14756459E-02</totfact>
</mgrwt>
</event>
<event>
12    1  0.9721318E-007  0.3876198E+04  0.7818608E-02  0.8355536E-01
          2   -1    0    0  501    0  0.00000000000E+00  0.00000000000E+00  0.31812699989E+04  0.31812699989E+04  0.00000000000E+00 0. -1.
         -2   -1    0    0    0  501 -0.00000000000E+00 -0.00000000000E+00 -0.18418248076E+04  0.18418248076E+04  0.00000000000E+00 0.  1.
        -24    2    1    2    0    0  0.50933564792E+03 -0.64779317703E+03  0.71626357052E+03  0.10971216134E+04  0.10762680774E+03 0.  0.
    9900016    2    1    2    0    0 -0.11180492736E+04  0.99900563562E+03  0.17882407398E+03  0.23861780050E+04  0.18476528310E+04 0.  0.
         24    2    4    4    0    0  0.82443079950E+02  0.16417918306E+03 -0.66734515850E+03  0.69676406318E+03  0.79868226406E+02 0.  0.
        -15    1    5    5    0    0 -0.12294842815E+02  0.34319073641E+02 -0.17796223909E+03  0.18165770151E+03  0.00000000000E+00 0.  1.
        -15    1    1    2    0    0  0.48783037136E+03  0.44709080573E+03  0.20445895630E+03  0.69258365892E+03  0.00000000000E+00 0.  1.
         15    1    3    3    0    0  0.22485002012E+03 -0.21950757787E+03  0.22970020533E+03  0.38923423875E+03  0.00000000000E+00 0. -1.
         15    1    4    4    0    0 -0.12004923535E+04  0.83482645256E+03  0.84616923248E+03  0.16894139418E+04  0.00000000000E+00 0. -1.
        -16    1    3    3    0    0  0.28448562779E+03 -0.42828559916E+03  0.48656336519E+03  0.70788737467E+03  0.00000000000E+00 0.  1.
         16    1    5    5    0    0  0.94737922765E+02  0.12986010942E+03 -0.48938291941E+03  0.51510636167E+03  0.00000000000E+00 0. -1.
    9900018    1    1    2    0    0  0.12088325428E+03 -0.79830326432E+03  0.23989859058E+03  0.84721152917E+03  0.91187600000E+02 0.  0.
<mgrwt>
<rscale>  0 0.26376135E+04</rscale>
<asrwt>0</asrwt>
<pdfrwt beam="1">  1        2 0.48942615E+00 0.38761979E+04</pdfrwt>
<pdfrwt beam="2">  1       -2 0.28335766E+00 0.38761979E+04</pdfrwt>
<totfact> 0.41286665E-02</totfact>
</mgrwt>
</event>
<event>
12    1  0.9721318E-007  0.3398698E+04  0.7818608E-02  0.8501044E-01
          2   -1    0    0  501    0  0.00000000000E+00  0.00000000000E+00  0.21476902609E+04  0.21476902609E+04  0.00000000000E+00 0. -1.
         -2   -1    0    0    0  501 -0.00000000000E+00 -0.00000000000E+00 -0.20164452343E+04  0.20164452343E+04  0.00000000000E+00 0.  1.
        -24    2    1    2    0    0  0.54114330244E+03 -0.33682054667E+03  0.39472969450E+03  0.75523901830E+03  0.91051022025E+02 0.  0.
    9900016    2    1    2    0    0  0.41499234143E+03  0.70572641596E+03 -0.57788158937E+03  0.20978534478E+04  0.18430337868E+04 0.  0.
         24    2    4    4    0    0 -0.59469665709E+03  0.80124239365E+03 -0.24608489453E+03  0.10307619698E+04  0.79113688423E+02 0.  0.
        -15    1    5    5    0    0 -0.23990478325E+03  0.28824883844E+03 -0.12564074814E+03  0.39550890695E+03  0.00000000000E+00 0.  1.
        -15    1    1    2    0    0 -0.20335394001E+03 -0.44058835335E+03 -0.45992583174E+01  0.48527525715E+03  0.00000000000E+00 0.  1.
         15    1    4    4    0    0  0.10096889985E+04 -0.95515977690E+02 -0.33179669484E+03  0.10670914780E+04  0.00000000000E+00 0. -1.
         15    1    3    3    0    0  0.29136124238E+03 -0.18828409398E+03  0.16170496421E+03  0.38274112538E+03  0.00000000000E+00 0. -1.
        -16    1    3    3    0    0  0.24978206006E+03 -0.14853645270E+03  0.23302473029E+03  0.37249789293E+03  0.00000000000E+00 0.  1.
         16    1    5    5    0    0 -0.35479187384E+03  0.51299355521E+03 -0.12044414639E+03  0.63525306283E+03  0.00000000000E+00 0. -1.
    9900018    1    1    2    0    0 -0.75278170386E+03  0.71682484063E+02  0.31899617976E+03  0.82576777200E+03  0.91187600000E+02 0.  0.
<mgrwt>
<rscale>  0 0.22422542E+04</rscale>
<asrwt>0</asrwt>
<pdfrwt beam="1">  1        2 0.33041389E+00 0.33986984E+04</pdfrwt>
<pdfrwt beam="2">  1       -2 0.31022234E+00 0.33986984E+04</pdfrwt>
<totfact> 0.12267791E-01</totfact>
</mgrwt>
</event>
<event>
11    1  0.9721318E-007  0.3792868E+04  0.7818608E-02  0.8380015E-01
          1   -1    0    0  501    0  0.00000000000E+00  0.00000000000E+00  0.27248824321E+04  0.27248824321E+04  0.00000000000E+00 0. -1.
         -1   -1    0    0    0  501 -0.00000000000E+00 -0.00000000000E+00 -0.19346022241E+04  0.19346022241E+04  0.00000000000E+00 0.  1.
    9900016    2    1    2    0    0 -0.10943264878E+04 -0.44139965303E+03  0.10629048745E+04  0.24397305657E+04  0.18520621872E+04 0.  0.
        -24    2    3    3    0    0 -0.14547726496E+04 -0.68343662310E+02  0.12157865054E+04  0.18989302321E+04  0.82248898867E+02 0.  0.
        -15    1    1    2    0    0  0.84069187662E+02  0.29956070149E+03  0.57633159220E+02  0.31642664748E+03  0.00000000000E+00 0.  1.
        -15    1    3    3    0    0  0.36044616179E+03 -0.37305599072E+03 -0.15288163090E+03  0.54080033361E+03  0.00000000000E+00 0.  1.
         15    1    4    4    0    0 -0.71151054686E+03 -0.53616339582E+02  0.54881325201E+03  0.90017662475E+03  0.00000000000E+00 0. -1.
         15    1    1    2    0    0  0.99988232350E+03 -0.39985678185E+02 -0.43471721662E+03  0.10910282186E+04  0.00000000000E+00 0. -1.
        -16    1    4    4    0    0 -0.74326210272E+03 -0.14727322729E+02  0.66697325338E+03  0.99875360730E+03  0.00000000000E+00 0.  1.
         16    1    1    2    0    0 -0.53487186887E+02  0.47631046230E+03 -0.39804800794E+01  0.47932074843E+03  0.00000000000E+00 0. -1.
    9900018    1    1    2    0    0  0.63862163511E+02 -0.29448583258E+03  0.10843987098E+03  0.33297847607E+03  0.91187600000E+02 0.  0.
<mgrwt>
<rscale>  0 0.25655012E+04</rscale>
<asrwt>0</asrwt>
<pdfrwt beam="1">  1        1 0.41921268E+00 0.37928677E+04</pdfrwt>
<pdfrwt beam="2">  1       -1 0.29763111E+00 0.37928677E+04</pdfrwt>
<totfact> 0.25001656E-02</totfact>
</mgrwt>
</event>
<event>
11    1  0.9721318E-007  0.4209568E+04  0.7818608E-02  0.8264683E-01
         -2   -1    0    0    0  501 -0.00000000000E+00  0.00000000000E+00  0.42142972716E+04  0.42142972716E+04  0.00000000000E+00 0.  1.
          2   -1    0    0  501    0  0.00000000000E+00 -0.00000000000E+00 -0.17389089041E+04  0.17389089041E+04  0.00000000000E+00 0. -1.
    9900016    2    1    2    0    0  0.41528500344E+03  0.33201899539E+03  0.24052974365E+04  0.30669839597E+04  0.18270841808E+04 0.  0.
         24    2    3    3    0    0  0.62141882528E+03  0.99258930069E+03  0.12106033942E+04  0.16863543441E+04  0.82677200842E+02 0.  0.
        -15    1    4    4    0    0  0.11776136321E+03  0.24724519286E+03  0.30493429919E+03  0.40985711031E+03  0.00000000000E+00 0.  1.
        -15    1    1    2    0    0  0.54552286323E+03  0.82031776933E+03  0.42530005974E+03  0.10730314897E+04  0.00000000000E+00 0.  1.
         15    1    1    2    0    0 -0.74839140956E+03 -0.31020324013E+03 -0.13462361709E+03  0.82124251617E+03  0.00000000000E+00 0. -1.
         15    1    3    3    0    0 -0.20613382184E+03 -0.66057030530E+03  0.11946940422E+04  0.13806296156E+04  0.00000000000E+00 0. -1.
        -16    1    1    2    0    0 -0.16358028243E+03 -0.58889753845E+02 -0.91426738048E+01  0.17409796205E+03  0.00000000000E+00 0.  1.
         16    1    4    4    0    0  0.50365746207E+03  0.74534410784E+03  0.90566909502E+03  0.12764972338E+04  0.00000000000E+00 0. -1.
    9900018    1    1    2    0    0 -0.48836174681E+02 -0.78324377075E+03 -0.21144283784E+03  0.81785024818E+03  0.91187600000E+02 0.  0.
<mgrwt>
<rscale>  0 0.29276999E+04</rscale>
<asrwt>0</asrwt>
<pdfrwt beam="1">  1        2 0.26752445E+00 0.42095678E+04</pdfrwt>
<pdfrwt beam="2">  1       -2 0.64835342E+00 0.42095678E+04</pdfrwt>
<totfact> 0.23770223E-03</totfact>
</mgrwt>
</event>
<event>
11    1  0.9721318E-007  0.5680406E+04  0.7818608E-02  0.7731342E-01
          1   -1    0    0  501    0  0.00000000000E+00  0.00000000000E+00  0.40319700766E+04  0.40319700766E+04  0.00000000000E+00 0. -1.
         -1   -1    0    0    0  501 -0.00000000000E+00 -0.00000000000E+00 -0.20006975797E+04  0.20006975797E+04  0.00000000000E+00 0.  1.
    9900016    2    1    2    0    0  0.31137597010E+03  0.87618364878E+03 -0.10563986888E+04  0.23171687177E+04  0.18408258732E+04 0.  0.
        -24    2    3    3    0    0  0.63669293459E+03  0.75180941812E+03  0.20467965536E+03  0.10088802683E+04  0.73146020522E+02 0.  0.
        -15    1    3    3    0    0 -0.32531696449E+03  0.12437423066E+03 -0.12610783442E+04  0.13082884494E+04  0.00000000000E+00 0.  1.
        -15    1    1    2    0    0 -0.12029245997E+03 -0.13094806201E+03  0.12549547601E+03  0.21763911728E+03  0.00000000000E+00 0.  1.
         15    1    1    2    0    0 -0.54495740474E+02 -0.13187702465E+03  0.75236180134E+03  0.76577386707E+03  0.00000000000E+00 0. -1.
         15    1    4    4    0    0  0.37692669894E+03  0.38962198974E+03  0.11881574845E+03  0.55497406546E+03  0.00000000000E+00 0. -1.
        -16    1    4    4    0    0  0.25976623565E+03  0.36218742838E+03  0.85863906913E+02  0.45390620284E+03  0.00000000000E+00 0.  1.
         16    1    1    2    0    0 -0.54597189570E+03 -0.91589523281E+03  0.12600756398E+04  0.16506786503E+04  0.00000000000E+00 0. -1.
    9900018    1    1    2    0    0  0.40938412605E+03  0.30253667070E+03  0.94973826861E+03  0.10814073040E+04  0.91187600000E+02 0.  0.
<mgrwt>
<rscale>  0 0.56804059E+04</rscale>
<asrwt>0</asrwt>
<pdfrwt beam="1">  1        1 0.62030309E+00 0.56804059E+04</pdfrwt>
<pdfrwt beam="2">  1       -1 0.30779963E+00 0.56804059E+04</pdfrwt>
<totfact> 0.18014842E-03</totfact>
</mgrwt>
</event>
<event>
11    1  0.9721318E-007  0.3852944E+04  0.7818608E-02  0.8599103E-01
          2   -1    0    0  501    0  0.00000000000E+00  0.00000000000E+00  0.39136870344E+04  0.39136870344E+04  0.00000000000E+00 0. -1.
         -2   -1    0    0    0  501 -0.00000000000E+00 -0.00000000000E+00 -0.11113082120E+04  0.11113082120E+04  0.00000000000E+00 0.  1.
    9900016    2    1    2    0    0 -0.99685977224E+03  0.45147475782E+03  0.10762881960E+04  0.24041085830E+04  0.18503467068E+04 0.  0.
        -24    2    3    3    0    0 -0.10733844432E+04 -0.39859287056E+03  0.17187535417E+03  0.11605517541E+04  0.79427938256E+02 0.  0.
        -15    1    3    3    0    0  0.76524670931E+02  0.85006762838E+03  0.90441284186E+03  0.12435568289E+04  0.00000000000E+00 0.  1.
        -15    1    1    2    0    0 -0.13603521240E+02  0.49836404777E+02 -0.40891088794E+02  0.65884779532E+02  0.00000000000E+00 0.  1.
         15    1    1    2    0    0  0.46897530425E+03 -0.55648078625E+03  0.17236589105E+04  0.18709913793E+04  0.00000000000E+00 0. -1.
         15    1    4    4    0    0 -0.40917522139E+03 -0.11140050465E+03  0.68530725236E+02  0.42957059319E+03  0.00000000000E+00 0. -1.
        -16    1    4    4    0    0 -0.66420922179E+03 -0.28719236591E+03  0.10334462894E+03  0.73098116096E+03  0.00000000000E+00 0.  1.
         16    1    1    2    0    0  0.11455956239E+03  0.17149629714E+03  0.99056761149E+02  0.22879491952E+03  0.00000000000E+00 0. -1.
    9900018    1    1    2    0    0  0.42692842684E+03 -0.11632667349E+03 -0.55733956516E+02  0.45521558509E+03  0.91187600000E+02 0.  0.
<mgrwt>
<rscale>  0 0.20161589E+04</rscale>
<asrwt>0</asrwt>
<pdfrwt beam="1">  1        2 0.60210569E+00 0.38529442E+04</pdfrwt>
<pdfrwt beam="2">  1       -2 0.17097050E+00 0.38529442E+04</pdfrwt>
<totfact> 0.66258364E-02</totfact>
</mgrwt>
</event>
<event>
12    1  0.9721318E-007  0.3679590E+04  0.7818608E-02  0.8242568E-01
          2   -1    0    0  501    0  0.00000000000E+00  0.00000000000E+00  0.25355345342E+04  0.25355345342E+04  0.00000000000E+00 0. -1.
         -2   -1    0    0    0  501 -0.00000000000E+00 -0.00000000000E+00 -0.27847249107E+04  0.27847249107E+04  0.00000000000E+00 0.  1.
         24    2    1    2    0    0  0.16035247839E+04 -0.30463872791E+03 -0.61047934776E+02  0.16358621463E+04  0.90673171166E+02 0.  0.
    9900016    2    1    2    0    0 -0.38989313313E+03 -0.12285103313E+03  0.26720408840E+03  0.19055748628E+04  0.18419306451E+04 0.  0.
        -24    2    4    4    0    0 -0.72848378326E+03 -0.41862682026E+03 -0.52560018880E+03  0.99416630102E+03  0.78575050126E+02 0.  0.
        -15    1    3    3    0    0  0.11411446732E+04 -0.20367809065E+03 -0.42047788267E+01  0.11591866157E+04  0.00000000000E+00 0.  1.
        -15    1    4    4    0    0  0.33859065013E+03  0.29577578713E+03  0.79280427720E+03  0.91140856182E+03  0.00000000000E+00 0.  1.
         15    1    5    5    0    0 -0.21181671904E+03 -0.15716763981E+03 -0.18776224062E+03  0.32376325992E+03  0.00000000000E+00 0. -1.
         15    1    1    2    0    0 -0.20296312224E+03  0.64265525886E+03 -0.26498439391E+03  0.72416609956E+03  0.00000000000E+00 0. -1.
        -16    1    5    5    0    0 -0.51666706422E+03 -0.26145918045E+03 -0.33783794818E+03  0.67040304110E+03  0.00000000000E+00 0.  1.
         16    1    3    3    0    0  0.46238011075E+03 -0.10096063726E+03 -0.56843155949E+02  0.47667553060E+03  0.00000000000E+00 0. -1.
    9900018    1    1    2    0    0 -0.10106685286E+04 -0.21516549782E+03 -0.19036213623E+03  0.10546563362E+04  0.91187600000E+02 0.  0.
<mgrwt>
<rscale>  0 0.30040740E+04</rscale>
<asrwt>0</asrwt>
<pdfrwt beam="1">  1        2 0.39008224E+00 0.36795904E+04</pdfrwt>
<pdfrwt beam="2">  1       -2 0.42841922E+00 0.36795904E+04</pdfrwt>
<totfact> 0.12315491E-02</totfact>
</mgrwt>
</event>
<event>
11    1  0.9721318E-007  0.3191714E+04  0.7818608E-02  0.8468727E-01
         -2   -1    0    0    0  501 -0.00000000000E+00  0.00000000000E+00  0.26272249305E+04  0.26272249305E+04  0.00000000000E+00 0.  1.
          2   -1    0    0  501    0  0.00000000000E+00 -0.00000000000E+00 -0.18257786760E+04  0.18257786760E+04  0.00000000000E+00 0. -1.
    9900016    2    1    2    0    0 -0.40931670735E+02  0.29066365133E+03 -0.34027944026E+02  0.18662355946E+04  0.18426927671E+04 0.  0.
         24    2    3    3    0    0 -0.40774292869E+02 -0.23499930128E+02 -0.92080244341E+03  0.92545517741E+03  0.79845825961E+02 0.  0.
        -15    1    1    2    0    0 -0.28979679970E+03 -0.58868754749E+03 -0.37432577682E+03  0.75541710391E+03  0.00000000000E+00 0.  1.
        -15    1    4    4    0    0 -0.44762167721E+02 -0.28297267918E+02 -0.30110679821E+03  0.30572813243E+03  0.00000000000E+00 0.  1.
         15    1    3    3    0    0 -0.15737786571E+00  0.31416358146E+03  0.88677449939E+03  0.94078041723E+03  0.00000000000E+00 0. -1.
         15    1    1    2    0    0  0.73772064219E+03  0.34766347501E+03  0.88256355030E+03  0.12016738568E+04  0.00000000000E+00 0. -1.
        -16    1    1    2    0    0  0.46593988273E+02  0.35228155941E+02  0.32249787766E+01  0.58501480342E+02  0.00000000000E+00 0.  1.
         16    1    4    4    0    0  0.39878748516E+01  0.47973377898E+01 -0.61969564520E+03  0.61972704498E+03  0.00000000000E+00 0. -1.
    9900018    1    1    2    0    0 -0.45358616002E+03 -0.84867734792E+02  0.32401144624E+03  0.57117557078E+03  0.91187600000E+02 0.  0.
<mgrwt>
<rscale>  0 0.23234635E+04</rscale>
<asrwt>0</asrwt>
<pdfrwt beam="1">  1        2 0.28088903E+00 0.31917141E+04</pdfrwt>
<pdfrwt beam="2">  1       -2 0.40418845E+00 0.31917141E+04</pdfrwt>
<totfact> 0.47217862E-02</totfact>
</mgrwt>
</event>
<event>
11    1  0.9721318E-007  0.5926267E+04  0.7818608E-02  0.7699612E-01
          2   -1    0    0  501    0  0.00000000000E+00  0.00000000000E+00  0.37871531612E+04  0.37871531612E+04  0.00000000000E+00 0. -1.
         -2   -1    0    0    0  501 -0.00000000000E+00 -0.00000000000E+00 -0.23184064669E+04  0.23184064669E+04  0.00000000000E+00 0.  1.
    9900016    2    1    2    0    0  0.61770229768E+02 -0.19911069852E+03  0.96476259039E+03  0.21105479226E+04  0.18655254076E+04 0.  0.
        -24    2    3    3    0    0  0.28149884647E+03  0.56547528008E+03  0.11310246988E+04  0.12978268928E+04  0.78319099647E+02 0.  0.
        -15    1    3    3    0    0 -0.21972861670E+03 -0.76458597859E+03 -0.16626210841E+03  0.81272102985E+03  0.00000000000E+00 0.  1.
        -15    1    1    2    0    0 -0.12664445224E+03 -0.25574808493E+02  0.33046341336E+02  0.13336022191E+03  0.00000000000E+00 0.  1.
         15    1    4    4    0    0  0.11716479243E+03  0.32254489662E+03  0.60209501593E+03  0.69302323708E+03  0.00000000000E+00 0. -1.
         15    1    1    2    0    0  0.43966512489E+03 -0.25462452568E+03  0.15403151647E+03  0.53090938887E+03  0.00000000000E+00 0. -1.
        -16    1    4    4    0    0  0.16433405404E+03  0.24293038346E+03  0.52892968287E+03  0.60480365570E+03  0.00000000000E+00 0.  1.
         16    1    1    2    0    0 -0.16676530962E+04 -0.42562076093E+03  0.13531152044E+02  0.17211632617E+04  0.00000000000E+00 0. -1.
    9900018    1    1    2    0    0  0.12928621938E+04  0.90493079363E+03  0.30337509405E+03  0.16095788330E+04  0.91187600000E+02 0.  0.
<mgrwt>
<rscale>  0 0.59262671E+04</rscale>
<asrwt>0</asrwt>
<pdfrwt beam="1">  1        2 0.58263895E+00 0.59262671E+04</pdfrwt>
<pdfrwt beam="2">  1       -2 0.35667792E+00 0.59262671E+04</pdfrwt>
<totfact> 0.47829007E-03</totfact>
</mgrwt>
</event>
<event>
12    1  0.9721318E-007  0.3793657E+04  0.7818608E-02  0.8500101E-01
         -2   -1    0    0    0  501 -0.00000000000E+00  0.00000000000E+00  0.22538997452E+04  0.22538997452E+04  0.00000000000E+00 0.  1.
          2   -1    0    0  501    0  0.00000000000E+00 -0.00000000000E+00 -0.20339231216E+04  0.20339231216E+04  0.00000000000E+00 0. -1.
        -24    2    1    2    0    0 -0.39811163111E+03  0.21649844668E+03  0.16641120538E+03  0.49378784990E+03  0.10377525328E+03 0.  0.
    9900016    2    1    2    0    0 -0.93628957312E+02 -0.52782107977E+03  0.10551669752E+04  0.21895368832E+04  0.18421001448E+04 0.  0.
         24    2    4    4    0    0  0.29694432344E+03 -0.33304500877E+03 -0.44011646012E+03  0.63185984433E+03  0.80308500871E+02 0.  0.
        -15    1    1    2    0    0 -0.10287211251E+03 -0.33215198571E+03 -0.43598097468E+03  0.55766210507E+03  0.00000000000E+00 0.  1.
        -15    1    5    5    0    0  0.26744074567E+03 -0.27549194905E+03 -0.40576545985E+03  0.55862865559E+03  0.00000000000E+00 0.  1.
         15    1    4    4    0    0 -0.39057328075E+03 -0.19477607100E+03  0.14952834354E+04  0.15576770389E+04  0.00000000000E+00 0. -1.
         15    1    3    3    0    0 -0.14511641397E+03  0.24315279403E+02  0.56062814564E+02  0.15745807566E+03  0.00000000000E+00 0. -1.
        -16    1    3    3    0    0 -0.25299521715E+03  0.19218316727E+03  0.11034839081E+03  0.33632977424E+03  0.00000000000E+00 0.  1.
         16    1    5    5    0    0  0.29503577772E+02 -0.57553059722E+02 -0.34351000270E+02  0.73231188740E+02  0.00000000000E+00 0. -1.
    9900018    1    1    2    0    0  0.59461270093E+03  0.64347461881E+03 -0.56562058241E+03  0.10468360286E+04  0.91187600000E+02 0.  0.
<mgrwt>
<rscale>  0 0.22445736E+04</rscale>
<asrwt>0</asrwt>
<pdfrwt beam="1">  1        2 0.31291125E+00 0.37936569E+04</pdfrwt>
<pdfrwt beam="2">  1       -2 0.34675381E+00 0.37936569E+04</pdfrwt>
<totfact> 0.82223091E-02</totfact>
</mgrwt>
</event>
