<event>
10    1  0.7443533E-022  0.1748183E+03  0.7818608E-02  0.1176942E+00
          1   -1    0    0  501    0  0.00000000000E+00  0.00000000000E+00  0.10012270438E+04  0.10012270438E+04  0.00000000000E+00 0. -1.
         -1   -1    0    0    0  501 -0.00000000000E+00 -0.00000000000E+00 -0.31694190798E+02  0.31694190798E+02  0.00000000000E+00 0.  1.
         25    2    1    2    0    0  0.86699243230E+02 -0.48135952960E+02  0.64339118761E+03  0.66288091962E+03  0.12500025825E+03 0.  0.
        -15    1    3    3    0    0  0.98891264912E+01 -0.82525403391E+01  0.65719094090E+02  0.66969385340E+02  0.00000000000E+00 0.  1.
        -15    1    1    2    0    0  0.17809547345E+02  0.10549677560E+02 -0.45525657215E+01  0.21194374912E+02  0.00000000000E+00 0.  1.
         15    1    3    3    0    0  0.16127757857E+02 -0.20644710373E+01  0.54470690237E+02  0.56845604131E+02  0.00000000000E+00 0. -1.
         15    1    1    2    0    0 -0.10450879058E+03  0.37586275400E+02  0.33069423112E+03  0.34884594006E+03  0.00000000000E+00 0. -1.
        -16    1    3    3    0    0 -0.43127807906E+01  0.23587218752E+01  0.49672833466E+02  0.49915468861E+02  0.00000000000E+00 0.  1.
         16    1    3    3    0    0  0.45476864553E+00 -0.56236880289E+01  0.24984286915E+02  0.25613419807E+02  0.00000000000E+00 0. -1.
    9900018    1    3    3    0    0  0.64540371027E+02 -0.34553975430E+02  0.44854428290E+03  0.46353704149E+03  0.91187600000E+02 0.  0.
<mgrwt>
<rscale>  0 0.17087171E+03</rscale>
<asrwt>0</asrwt>
<pdfrwt beam="1">  1        1 0.15403491E+00 0.17481833E+03</pdfrwt>
<pdfrwt beam="2">  1       -1 0.48760301E-02 0.17481833E+03</pdfrwt>
<totfact> 0.28909931E+03</totfact>
</mgrwt>
</event>
<event>
11    1  0.7443533E-022  0.1374163E+03  0.7818608E-02  0.1217097E+00
          1   -1    0    0  501    0  0.00000000000E+00  0.00000000000E+00  0.32893554466E+03  0.32893554466E+03  0.00000000000E+00 0. -1.
         -1   -1    0    0    0  501 -0.00000000000E+00 -0.00000000000E+00 -0.60047658255E+02  0.60047658255E+02  0.00000000000E+00 0.  1.
         23    2    1    2    0    0  0.54551555621E+02 -0.16805674122E+02  0.91064829818E+02  0.16425161908E+03  0.12420744034E+03 0.  0.
         25    2    1    2    0    0 -0.54551555621E+02  0.16805674122E+02  0.17782305659E+03  0.22473158384E+03  0.12499976967E+03 0.  0.
        -15    1    3    3    0    0  0.43084452016E+02 -0.34565342210E+02 -0.14080185319E+02  0.57002495614E+02  0.00000000000E+00 0.  1.
        -15    1    4    4    0    0 -0.88592469960E+01  0.55185577292E+01  0.56080906591E+01  0.11848688433E+02  0.00000000000E+00 0.  1.
         15    1    4    4    0    0 -0.12416930773E+02 -0.32432773336E+01  0.72408594978E+01  0.14735299927E+02  0.00000000000E+00 0. -1.
         15    1    3    3    0    0  0.11467103605E+02  0.17759668088E+02  0.10514501514E+03  0.10724912346E+03  0.00000000000E+00 0. -1.
        -16    1    4    4    0    0 -0.11909092394E+02 -0.47366509976E+01  0.24662757593E+02  0.27794135288E+02  0.00000000000E+00 0.  1.
         16    1    4    4    0    0 -0.15960690927E+00  0.11997849625E+01  0.24358917730E+01  0.27200233550E+01  0.00000000000E+00 0. -1.
    9900018    1    4    4    0    0 -0.21206678549E+02  0.18067259761E+02  0.13787545707E+03  0.16763343684E+03  0.91187600000E+02 0.  0.
<mgrwt>
<rscale>  0 0.13723588E+03</rscale>
<asrwt>0</asrwt>
<pdfrwt beam="1">  1        1 0.50605467E-01 0.13741632E+03</pdfrwt>
<pdfrwt beam="2">  1       -1 0.92381015E-02 0.13741632E+03</pdfrwt>
<totfact> 0.51559692E+03</totfact>
</mgrwt>
</event>
<event>
11    1  0.7443533E-022  0.1541351E+03  0.7818608E-02  0.1200179E+00
         -1   -1    0    0    0  501 -0.00000000000E+00  0.00000000000E+00  0.35502779560E+02  0.35502779560E+02  0.00000000000E+00 0.  1.
          1   -1    0    0  501    0  0.00000000000E+00 -0.00000000000E+00 -0.66535358769E+03  0.66535358769E+03  0.00000000000E+00 0. -1.
         23    2    1    2    0    0 -0.13647026959E+02  0.89136613461E+02 -0.40512785770E+03  0.42835311185E+03  0.10595390576E+03 0.  0.
         25    2    1    2    0    0  0.13647026959E+02 -0.89136613461E+02 -0.22472295043E+03  0.27250325539E+03  0.12500417012E+03 0.  0.
        -15    1    4    4    0    0 -0.57910239530E+01 -0.10338242263E+02 -0.71668785025E+01  0.13848442475E+02  0.00000000000E+00 0.  1.
        -15    1    3    3    0    0  0.42735891119E+02  0.64892411623E+02 -0.22021630881E+03  0.23352217056E+03  0.00000000000E+00 0. -1.
         15    1    4    4    0    0  0.11774353023E+02 -0.18907529166E+02 -0.36476433511E+02  0.42739446065E+02  0.00000000000E+00 0. -1.
         15    1    3    3    0    0 -0.56382918077E+02  0.24244201838E+02 -0.18491154888E+03  0.19483094129E+03  0.00000000000E+00 0.  1.
        -16    1    4    4    0    0  0.36572910359E+01 -0.32337583657E+01 -0.76077541012E+01  0.90394077988E+01  0.00000000000E+00 0.  1.
         16    1    4    4    0    0  0.97803541139E+00  0.10005925660E+01 -0.15450336462E+02  0.15513562954E+02  0.00000000000E+00 0. -1.
    9900018    1    4    4    0    0  0.30283714416E+01 -0.57657676233E+02 -0.15802154785E+03  0.19136239610E+03  0.91187600000E+02 0.  0.
<mgrwt>
<rscale>  0 0.15023915E+03</rscale>
<asrwt>0</asrwt>
<pdfrwt beam="1">  1        1 0.10236209E+00 0.15413507E+03</pdfrwt>
<pdfrwt beam="2">  1       -1 0.54619662E-02 0.15413507E+03</pdfrwt>
<totfact> 0.45624946E+03</totfact>
</mgrwt>
</event>
<event>
11    1  0.7443533E-022  0.2212897E+03  0.7818608E-02  0.1137426E+00
         -2   -1    0    0    0  501 -0.00000000000E+00  0.00000000000E+00  0.23827822362E+03  0.23827822362E+03  0.00000000000E+00 0.  1.
          2   -1    0    0  501    0  0.00000000000E+00 -0.00000000000E+00 -0.19543155200E+03  0.19543155200E+03  0.00000000000E+00 0. -1.
         23    2    1    2    0    0 -0.25343426252E+02  0.18083588112E+03  0.70943892127E+02  0.21064346641E+03  0.77419176924E+02 0.  0.
         25    2    1    2    0    0  0.25343426252E+02 -0.18083588112E+03 -0.28097220503E+02  0.22306630922E+03  0.12500087741E+03 0.  0.
        -15    1    4    4    0    0  0.96839831808E+01 -0.18323652019E+02 -0.71804784519E+01  0.21933878461E+02  0.00000000000E+00 0.  1.
        -15    1    3    3    0    0  0.26581715861E+02  0.50407488381E+02  0.30048445807E+02  0.64423688178E+02  0.00000000000E+00 0.  1.
         15    1    3    3    0    0 -0.51925142114E+02  0.13042839274E+03  0.40895446320E+02  0.14621977823E+03  0.00000000000E+00 0. -1.
         15    1    4    4    0    0 -0.12288189460E+01 -0.15171510382E+02  0.20316078584E+01  0.15356176405E+02  0.00000000000E+00 0. -1.
        -16    1    4    4    0    0  0.10929977017E+02 -0.29023433304E+01 -0.30845169334E+01  0.11721870120E+02  0.00000000000E+00 0.  1.
         16    1    4    4    0    0  0.10145110747E+01 -0.70493543975E+01  0.25567609740E+01  0.75670110890E+01  0.00000000000E+00 0. -1.
    9900018    1    4    4    0    0  0.49437739256E+01 -0.13738902099E+03 -0.22420593950E+02  0.16648737314E+03  0.91187600000E+02 0.  0.
<mgrwt>
<rscale>  0 0.21531382E+03</rscale>
<asrwt>0</asrwt>
<pdfrwt beam="1">  1        2 0.30066392E-01 0.22128968E+03</pdfrwt>
<pdfrwt beam="2">  1       -2 0.36658188E-01 0.22128968E+03</pdfrwt>
<totfact> 0.12258326E+03</totfact>
</mgrwt>
</event>
<event>
10    1  0.7443533E-022  0.1826145E+03  0.7818608E-02  0.1167071E+00
          1   -1    0    0  501    0  0.00000000000E+00  0.00000000000E+00  0.33626694484E+03  0.33626694484E+03  0.00000000000E+00 0. -1.
         -1   -1    0    0    0  501 -0.00000000000E+00 -0.00000000000E+00 -0.18968307860E+03  0.18968307860E+03  0.00000000000E+00 0.  1.
         25    2    1    2    0    0 -0.90498689601E+02 -0.83160366283E+02  0.25808109707E+03  0.31198812031E+03  0.12500030083E+03 0.  0.
        -15    1    1    2    0    0 -0.14291896884E+02  0.31695254974E+02 -0.88347048889E+02  0.94942343302E+02  0.00000000000E+00 0.  1.
        -15    1    3    3    0    0 -0.14051029379E+02 -0.18110293140E+02  0.18583230116E+02  0.29508483285E+02  0.00000000000E+00 0.  1.
         15    1    3    3    0    0 -0.59873240141E+01 -0.13722033013E+02  0.19856528515E+02  0.24868131485E+02  0.00000000000E+00 0. -1.
         15    1    1    2    0    0  0.10479058649E+03  0.51465111309E+02 -0.23150181944E+02  0.11901955983E+03  0.00000000000E+00 0. -1.
        -16    1    3    3    0    0 -0.64679307971E+01  0.95158635922E+00  0.62132478505E+01  0.90190960881E+01  0.00000000000E+00 0.  1.
         16    1    3    3    0    0 -0.60449806676E+01 -0.33359136098E+01  0.25042224586E+02  0.25976587980E+02  0.00000000000E+00 0. -1.
    9900018    1    3    3    0    0 -0.57947424744E+02 -0.48943712879E+02  0.18838586600E+03  0.22261582147E+03  0.91187600000E+02 0.  0.
<mgrwt>
<rscale>  0 0.18075824E+03</rscale>
<asrwt>0</asrwt>
<pdfrwt beam="1">  1        1 0.51733376E-01 0.18261452E+03</pdfrwt>
<pdfrwt beam="2">  1       -1 0.29182012E-01 0.18261452E+03</pdfrwt>
<totfact> 0.81240642E+02</totfact>
</mgrwt>
</event>
<event>
10    1  0.7443533E-022  0.2106084E+03  0.7818608E-02  0.1150375E+00
          2   -1    0    0  501    0  0.00000000000E+00  0.00000000000E+00  0.19211686939E+03  0.19211686939E+03  0.00000000000E+00 0. -1.
         -2   -1    0    0    0  501 -0.00000000000E+00 -0.00000000000E+00 -0.41069253113E+03  0.41069253113E+03  0.00000000000E+00 0.  1.
         25    2    1    2    0    0  0.98712381833E+02  0.55636585381E+02  0.11792052529E+03  0.20583887913E+03  0.12499931966E+03 0.  0.
        -15    1    1    2    0    0  0.37038162555E+02  0.31629693238E+02 -0.90260986230E+02  0.10256368078E+03  0.00000000000E+00 0.  1.
        -15    1    3    3    0    0  0.17791415583E+02  0.51119649983E+01  0.38629410712E+01  0.18910022959E+02  0.00000000000E+00 0.  1.
         15    1    3    3    0    0  0.10136675681E+02 -0.45490765136E+01  0.43943933266E+01  0.11948095400E+02  0.00000000000E+00 0. -1.
         15    1    1    2    0    0 -0.13575054439E+03 -0.87266278619E+02 -0.24623520080E+03  0.29440684061E+03  0.00000000000E+00 0. -1.
        -16    1    3    3    0    0 -0.59490567136E+00 -0.27298575746E+00 -0.12960541308E+01  0.14519608437E+01  0.00000000000E+00 0.  1.
         16    1    3    3    0    0 -0.14171056792E+00  0.78432388685E+01  0.96556552145E+01  0.12440585013E+02  0.00000000000E+00 0. -1.
    9900018    1    3    3    0    0  0.71520906808E+02  0.47503443786E+02  0.10130358981E+03  0.16108821492E+03  0.91187600000E+02 0.  0.
<mgrwt>
<rscale>  0 0.19924827E+03</rscale>
<asrwt>0</asrwt>
<pdfrwt beam="1">  1        2 0.29556442E-01 0.21060843E+03</pdfrwt>
<pdfrwt beam="2">  1       -2 0.63183466E-01 0.21060843E+03</pdfrwt>
<totfact> 0.42440119E+02</totfact>
</mgrwt>
</event>
<event>
11    1  0.7443533E-022  0.3866216E+03  0.7818608E-02  0.1049729E+00
         -2   -1    0    0    0  501 -0.00000000000E+00  0.00000000000E+00  0.12667936334E+03  0.12667936334E+03  0.00000000000E+00 0.  1.
          2   -1    0    0  501    0  0.00000000000E+00 -0.00000000000E+00 -0.12260337307E+04  0.12260337307E+04  0.00000000000E+00 0. -1.
         23    2    1    2    0    0 -0.32639956351E+03  0.16527194451E+03 -0.36167647618E+03  0.51985960661E+03  0.74783998664E+02 0.  0.
         25    2    1    2    0    0  0.32639956351E+03 -0.16527194451E+03 -0.73767789119E+03  0.83285348744E+03  0.12499907873E+03 0.  0.
        -15    1    4    4    0    0  0.11708509818E+02 -0.75783057798E+01 -0.45811545116E+02  0.47887551478E+02  0.00000000000E+00 0.  1.
        -15    1    3    3    0    0 -0.54092598460E+02  0.26432211451E+02 -0.10358859996E+03  0.11981347609E+03  0.00000000000E+00 0. -1.
         15    1    4    4    0    0  0.19709168574E+02 -0.44223021788E+01 -0.43773061539E+02  0.48208806238E+02  0.00000000000E+00 0. -1.
         15    1    3    3    0    0 -0.27230696505E+03  0.13883973306E+03 -0.25808787622E+03  0.40004613052E+03  0.00000000000E+00 0.  1.
        -16    1    4    4    0    0  0.38533178384E+02 -0.23503276404E+02 -0.75868302869E+02  0.88279155062E+02  0.00000000000E+00 0.  1.
         16    1    4    4    0    0  0.47061160605E+02 -0.26811907143E+02 -0.89289746862E+02  0.10443318484E+03  0.00000000000E+00 0. -1.
    9900018    1    4    4    0    0  0.20938754613E+03 -0.10295615300E+03 -0.48293523480E+03  0.54404478981E+03  0.91187600000E+02 0.  0.
<mgrwt>
<rscale>  0 0.38327864E+03</rscale>
<asrwt>0</asrwt>
<pdfrwt beam="1">  1        2 0.18862057E+00 0.38662160E+03</pdfrwt>
<pdfrwt beam="2">  1       -2 0.19489133E-01 0.38662160E+03</pdfrwt>
<totfact> 0.42171916E+02</totfact>
</mgrwt>
</event>
<event>
11    1  0.7443533E-022  0.3471666E+03  0.7818608E-02  0.1064105E+00
          1   -1    0    0  501    0  0.00000000000E+00  0.00000000000E+00  0.50174194255E+03  0.50174194255E+03  0.00000000000E+00 0. -1.
         -1   -1    0    0    0  501 -0.00000000000E+00 -0.00000000000E+00 -0.23818008468E+03  0.23818008468E+03  0.00000000000E+00 0.  1.
         23    2    1    2    0    0  0.19560900815E+02  0.32329149880E+03  0.12388407107E+03  0.36571018014E+03  0.11617508663E+03 0.  0.
         25    2    1    2    0    0 -0.19560900815E+02 -0.32329149880E+03  0.13967778680E+03  0.37421184709E+03  0.12499840136E+03 0.  0.
        -15    1    4    4    0    0  0.61573316337E+00 -0.19352408888E+02  0.89440068264E+01  0.21328153113E+02  0.00000000000E+00 0.  1.
        -15    1    3    3    0    0 -0.15384432149E+02  0.23726077896E+03  0.13295922083E+03  0.27241055851E+03  0.00000000000E+00 0. -1.
         15    1    4    4    0    0  0.10601475862E+02 -0.21266045820E+02  0.13198770446E+02  0.27181676485E+02  0.00000000000E+00 0. -1.
         15    1    3    3    0    0  0.34945332964E+02  0.86030719840E+02 -0.90751497569E+01  0.93299621625E+02  0.00000000000E+00 0.  1.
        -16    1    4    4    0    0 -0.10205742502E+02 -0.17574392047E+02  0.11531325270E+02  0.23366383938E+02  0.00000000000E+00 0.  1.
         16    1    4    4    0    0 -0.57875529321E+01 -0.22433262322E+02  0.48251216758E+01  0.23664928196E+02  0.00000000000E+00 0. -1.
    9900018    1    4    4    0    0 -0.14784814407E+02 -0.24266538972E+03  0.10117856258E+03  0.27867070536E+03  0.91187600000E+02 0.  0.
<mgrwt>
<rscale>  0 0.34639439E+03</rscale>
<asrwt>0</asrwt>
<pdfrwt beam="1">  1        1 0.77191068E-01 0.34716656E+03</pdfrwt>
<pdfrwt beam="2">  1       -1 0.36643090E-01 0.34716656E+03</pdfrwt>
<totfact> 0.32483603E+02</totfact>
</mgrwt>
</event>
