<event>
11    1  0.5516123E-014  0.3889419E+04  0.7818608E-02  0.8429095E-01
          2   -1    0    0  501    0  0.00000000000E+00  0.00000000000E+00  0.23091986052E+04  0.23091986052E+04  0.00000000000E+00 0. -1.
         -2   -1    0    0    0  501 -0.00000000000E+00 -0.00000000000E+00 -0.21832496839E+04  0.21832496839E+04  0.00000000000E+00 0.  1.
    9900016    2    1    2    0    0 -0.10244228115E+04 -0.19784101105E+03  0.68178873231E+03  0.21883680074E+04  0.17987594330E+04 0.  0.
         24    2    3    3    0    0  0.39920208409E+03 -0.46507270937E+03  0.96318698830E+02  0.62603136506E+03  0.83564641815E+02 0.  0.
        -15    1    1    2    0    0  0.53810360476E+02 -0.13175835055E+03  0.60353417579E+01  0.14245084480E+03  0.00000000000E+00 0.  1.
        -15    1    4    4    0    0  0.32565074159E+03 -0.32416592963E+03  0.65769203129E+02  0.46417404441E+03  0.00000000000E+00 0.  1.
         15    1    3    3    0    0 -0.14236248956E+04  0.26723169832E+03  0.58547003348E+03  0.15623366423E+04  0.00000000000E+00 0. -1.
         15    1    1    2    0    0 -0.24529838083E+03 -0.37117987806E+03 -0.93877524204E+02  0.45470736420E+03  0.00000000000E+00 0. -1.
        -16    1    1    2    0    0  0.12630910626E+04  0.74299224450E+03 -0.55385359451E+03  0.15665855584E+04  0.00000000000E+00 0.  1.
         16    1    4    4    0    0  0.73551342499E+02 -0.14090677974E+03  0.30549495700E+02  0.16185732065E+03  0.00000000000E+00 0. -1.
    9900018    1    1    2    0    0 -0.47180230727E+02 -0.42213004841E+02  0.85855965952E+02  0.14033651425E+03  0.91187600000E+02 0.  0.
<mgrwt>
<rscale>  0 0.24279978E+04</rscale>
<asrwt>0</asrwt>
<pdfrwt beam="1">  1        2 0.35526132E+00 0.38894187E+04</pdfrwt>
<pdfrwt beam="2">  1       -2 0.33588457E+00 0.38894187E+04</pdfrwt>
<totfact> 0.66570413E-02</totfact>
</mgrwt>
</event>
<event>
11    1  0.5516123E-014  0.6288103E+04  0.7818608E-02  0.7655672E-01
          2   -1    0    0  501    0  0.00000000000E+00  0.00000000000E+00  0.17747782128E+04  0.17747782128E+04  0.00000000000E+00 0. -1.
         -2   -1    0    0    0  501 -0.00000000000E+00 -0.00000000000E+00 -0.55697439387E+04  0.55697439387E+04  0.00000000000E+00 0.  1.
    9900016    2    1    2    0    0 -0.14034016849E+04  0.70769741983E+03 -0.10780123200E+04  0.26882409127E+04  0.18958261300E+04 0.  0.
        -24    2    3    3    0    0 -0.14147243832E+03 -0.22854285605E+03 -0.10028706621E+04  0.10413250905E+04  0.79762719191E+02 0.  0.
        -15    1    3    3    0    0 -0.12242781077E+04  0.94168756176E+03 -0.51936039952E+02  0.15454221757E+04  0.00000000000E+00 0.  1.
        -15    1    1    2    0    0 -0.76449226892E+03 -0.27302637820E+03 -0.20862395165E+04  0.22386127742E+04  0.00000000000E+00 0.  1.
         15    1    4    4    0    0 -0.12773454752E+03 -0.13848420252E+03 -0.63640505011E+03  0.66370579083E+03  0.00000000000E+00 0. -1.
         15    1    1    2    0    0  0.30843366718E+03  0.53150653067E+02  0.14467268086E+03  0.34479922209E+03  0.00000000000E+00 0. -1.
        -16    1    4    4    0    0 -0.13737890794E+02 -0.90058653537E+02 -0.36646561194E+03  0.37761929963E+03  0.00000000000E+00 0.  1.
         16    1    1    2    0    0  0.18594602867E+04 -0.48782169469E+03 -0.77538657021E+03  0.20728692425E+04  0.00000000000E+00 0. -1.
    9900018    1    3    3    0    0 -0.37651138940E+02 -0.54472858804E+01 -0.23205618013E+02  0.10149364654E+03  0.91187600000E+02 0.  0.
<mgrwt>
<rscale>  0 0.62881031E+04</rscale>
<asrwt>0</asrwt>
<pdfrwt beam="1">  1        2 0.27304281E+00 0.62881031E+04</pdfrwt>
<pdfrwt beam="2">  1       -2 0.85688367E+00 0.62881031E+04</pdfrwt>
<totfact> 0.16477660E-04</totfact>
</mgrwt>
</event>
<event>
11    1  0.5516123E-014  0.3464529E+04  0.7818608E-02  0.8387180E-01
         -1   -1    0    0    0  501 -0.00000000000E+00  0.00000000000E+00  0.35953869110E+04  0.35953869110E+04  0.00000000000E+00 0.  1.
          1   -1    0    0  501    0  0.00000000000E+00 -0.00000000000E+00 -0.16216890151E+04  0.16216890151E+04  0.00000000000E+00 0. -1.
    9900016    2    1    2    0    0 -0.17866165035E+03 -0.64724718530E+03  0.26311360361E+03  0.20197510306E+04  0.18866151047E+04 0.  0.
         24    2    3    3    0    0 -0.22029243517E+03 -0.10913922542E+04  0.66869376515E+03  0.13013207913E+04  0.81355029611E+02 0.  0.
        -15    1    1    2    0    0 -0.40796905379E+03  0.29817375760E+03  0.95211388239E+02  0.51420963334E+03  0.00000000000E+00 0.  1.
        -15    1    4    4    0    0 -0.13658282156E+03 -0.52510641196E+03  0.29340197254E+03  0.61682763274E+03  0.00000000000E+00 0.  1.
         15    1    1    2    0    0  0.26778427008E+03 -0.22233136388E+03 -0.41981114117E+03  0.54532654889E+03  0.00000000000E+00 0. -1.
         15    1    3    3    0    0  0.35536784052E+02  0.47270366410E+03 -0.40372986269E+03  0.62266316665E+03  0.00000000000E+00 0. -1.
        -16    1    1    2    0    0  0.31884643406E+03  0.57140479158E+03  0.20351840452E+04  0.21377887132E+04  0.00000000000E+00 0.  1.
         16    1    4    4    0    0 -0.83709613614E+02 -0.56628584226E+03  0.37529179262E+03  0.68449315859E+03  0.00000000000E+00 0. -1.
    9900018    1    3    3    0    0  0.60940007692E+01 -0.28558595188E+02 -0.18502988574E+01  0.95767072651E+02  0.91187600000E+02 0.  0.
<mgrwt>
<rscale>  0 0.25448475E+04</rscale>
<asrwt>0</asrwt>
<pdfrwt beam="1">  1        1 0.24949062E+00 0.34645295E+04</pdfrwt>
<pdfrwt beam="2">  1       -1 0.55313645E+00 0.34645295E+04</pdfrwt>
<totfact> 0.30587730E-03</totfact>
</mgrwt>
</event>
<event>
11    1  0.5516123E-014  0.2792948E+04  0.7818608E-02  0.8590631E-01
         -2   -1    0    0    0  501 -0.00000000000E+00  0.00000000000E+00  0.11447777420E+04  0.11447777420E+04  0.00000000000E+00 0.  1.
          2   -1    0    0  501    0  0.00000000000E+00 -0.00000000000E+00 -0.31756230393E+04  0.31756230393E+04  0.00000000000E+00 0. -1.
    9900016    2    1    2    0    0  0.33871224050E+03 -0.51372573687E+03 -0.17040251473E+04  0.25518249921E+04  0.17970723339E+04 0.  0.
        -24    2    3    3    0    0 -0.70123109580E+03 -0.48676454036E+03 -0.71753141013E+03  0.11181657082E+04  0.82331397855E+02 0.  0.
        -15    1    3    3    0    0  0.10399433363E+04 -0.26961196501E+02 -0.98649373718E+03  0.14336592839E+04  0.00000000000E+00 0.  1.
        -15    1    1    2    0    0  0.34723730163E+03  0.23396012416E+03  0.84483039145E+02  0.42713986848E+03  0.00000000000E+00 0.  1.
         15    1    1    2    0    0  0.99221203458E+02  0.35303192521E+03  0.35067519489E+02  0.36838311356E+03  0.00000000000E+00 0. -1.
         15    1    4    4    0    0 -0.23309438361E+03 -0.19883533727E+03 -0.28999017279E+03  0.42185635391E+03  0.00000000000E+00 0. -1.
        -16    1    4    4    0    0 -0.46813671219E+03 -0.28792920309E+03 -0.42754123734E+03  0.69630935432E+03  0.00000000000E+00 0.  1.
         16    1    1    2    0    0 -0.75601486417E+03 -0.39581632765E+02 -0.35362376568E+03  0.83556863760E+03  0.00000000000E+00 0. -1.
    9900018    1    1    2    0    0 -0.29155881420E+02 -0.33684679744E+02 -0.92746942900E+02  0.13748416957E+03  0.91187600000E+02 0.  0.
<mgrwt>
<rscale>  0 0.20345591E+04</rscale>
<asrwt>0</asrwt>
<pdfrwt beam="1">  1        2 0.48855739E+00 0.27929485E+04</pdfrwt>
<pdfrwt beam="2">  1       -2 0.17611965E+00 0.27929485E+04</pdfrwt>
<totfact> 0.21937266E-01</totfact>
</mgrwt>
</event>
<event>
11    1  0.5516123E-014  0.4145975E+04  0.7818608E-02  0.8067105E-01
          2   -1    0    0  501    0  0.00000000000E+00  0.00000000000E+00  0.43331419619E+04  0.43331419619E+04  0.00000000000E+00 0. -1.
         -2   -1    0    0    0  501 -0.00000000000E+00 -0.00000000000E+00 -0.26579956147E+04  0.26579956147E+04  0.00000000000E+00 0.  1.
    9900016    2    1    2    0    0  0.14667010459E+04 -0.30519104843E+03 -0.94467824224E+02  0.24140782589E+04  0.18906337923E+04 0.  0.
        -24    2    3    3    0    0  0.14597709079E+04 -0.56763073077E+03  0.45171214366E+03  0.16320176510E+04  0.79385152261E+02 0.  0.
        -15    1    3    3    0    0 -0.63830545649E+02  0.30241099197E+03 -0.57834329138E+03  0.65574973069E+03  0.00000000000E+00 0.  1.
        -15    1    1    2    0    0 -0.14362889321E+04 -0.12814368462E+04  0.17645939553E+03  0.19329108116E+04  0.00000000000E+00 0.  1.
         15    1    1    2    0    0 -0.60048136927E+03  0.24268366309E+03  0.42774227151E+03  0.77616794961E+03  0.00000000000E+00 0. -1.
         15    1    4    4    0    0  0.22149594652E+03 -0.10292009035E+03  0.95865404921E+02  0.26237982999E+03  0.00000000000E+00 0. -1.
        -16    1    4    4    0    0  0.12382749613E+04 -0.46471064042E+03  0.35584673874E+03  0.13696378210E+04  0.00000000000E+00 0.  1.
         16    1    1    2    0    0  0.57006925550E+03  0.13439442316E+04  0.11654125044E+04  0.18679805564E+04  0.00000000000E+00 0. -1.
    9900018    1    3    3    0    0  0.70760683671E+02 -0.39971309632E+02  0.32163323492E+02  0.12631087728E+03  0.91187600000E+02 0.  0.
<mgrwt>
<rscale>  0 0.37038688E+04</rscale>
<asrwt>0</asrwt>
<pdfrwt beam="1">  1        2 0.66663723E+00 0.41459746E+04</pdfrwt>
<pdfrwt beam="2">  1       -2 0.40892240E+00 0.41459746E+04</pdfrwt>
<totfact> 0.82476031E-04</totfact>
</mgrwt>
</event>
<event>
11    1  0.5516123E-014  0.5761802E+04  0.7818608E-02  0.7913486E-01
          2   -1    0    0  501    0  0.00000000000E+00  0.00000000000E+00  0.38142322334E+04  0.38142322334E+04  0.00000000000E+00 0. -1.
         -2   -1    0    0    0  501 -0.00000000000E+00 -0.00000000000E+00 -0.45228420521E+04  0.45228420521E+04  0.00000000000E+00 0.  1.
    9900016    2    1    2    0    0 -0.85271898518E+03  0.29196343562E+02  0.13610891054E+04  0.24108577199E+04  0.17976899895E+04 0.  0.
         24    2    3    3    0    0 -0.85064294751E+01  0.70787323739E+03  0.10769492194E+04  0.12910217318E+04  0.75898690609E+02 0.  0.
        -15    1    4    4    0    0  0.32260251146E+02  0.23036415555E+03  0.36324132329E+03  0.43133818161E+03  0.00000000000E+00 0.  1.
        -15    1    1    2    0    0 -0.88874369706E+03  0.63262307090E+03 -0.76944747853E+02  0.10936168448E+04  0.00000000000E+00 0.  1.
         15    1    3    3    0    0 -0.84421255571E+03 -0.67867689383E+03  0.28413988604E+03  0.11198359881E+04  0.00000000000E+00 0. -1.
         15    1    1    2    0    0  0.49234922413E+03  0.40165385640E+03  0.10622798881E+04  0.12378094117E+04  0.00000000000E+00 0. -1.
        -16    1    1    2    0    0  0.12708514236E+04 -0.10528755493E+04 -0.30825406074E+04  0.34965221091E+04  0.00000000000E+00 0.  1.
         16    1    4    4    0    0 -0.40766680621E+02  0.47750908184E+03  0.71370789610E+03  0.85968355018E+03  0.00000000000E+00 0. -1.
    9900018    1    1    2    0    0 -0.21737965487E+02 -0.10597721620E+02  0.27506543010E+02  0.98268200091E+02  0.91187600000E+02 0.  0.
<mgrwt>
<rscale>  0 0.44837596E+04</rscale>
<asrwt>0</asrwt>
<pdfrwt beam="1">  1        2 0.58680496E+00 0.57618017E+04</pdfrwt>
<pdfrwt beam="2">  1       -2 0.69582185E+00 0.57618017E+04</pdfrwt>
<totfact> 0.72365069E-05</totfact>
</mgrwt>
</event>
<event>
11    1  0.5516124E-014  0.2736001E+04  0.7818608E-02  0.8811081E-01
         -2   -1    0    0    0  501 -0.00000000000E+00  0.00000000000E+00  0.15940155330E+04  0.15940155330E+04  0.00000000000E+00 0.  1.
          2   -1    0    0  501    0  0.00000000000E+00 -0.00000000000E+00 -0.15413434183E+04  0.15413434183E+04  0.00000000000E+00 0. -1.
    9900016    2    1    2    0    0 -0.52508660830E+03  0.19279994089E+02  0.41077633980E+03  0.19970529207E+04  0.18823909005E+04 0.  0.
        -24    2    3    3    0    0 -0.87476259004E+03 -0.27431004573E+03  0.86079559136E+03  0.12603392525E+04  0.83847427560E+02 0.  0.
        -15    1    1    2    0    0  0.35282063015E+02 -0.60394050870E+02  0.29566246453E+03  0.30382323526E+03  0.00000000000E+00 0.  1.
        -15    1    3    3    0    0  0.35544195059E+03  0.29185257400E+03 -0.45263908132E+03  0.64528989077E+03  0.00000000000E+00 0.  1.
         15    1    4    4    0    0 -0.69077950311E+02 -0.25817168939E+02  0.10317491323E+03  0.12682015672E+03  0.00000000000E+00 0. -1.
         15    1    1    2    0    0  0.13079548428E+02  0.34334280812E+02 -0.83108235183E+02  0.90867464921E+02  0.00000000000E+00 0. -1.
        -16    1    4    4    0    0 -0.80568463973E+03 -0.24849287679E+03  0.75762067813E+03  0.11335190958E+04  0.00000000000E+00 0.  1.
         16    1    1    2    0    0  0.47672499685E+03  0.67797759702E+01 -0.57065845440E+03  0.74361533037E+03  0.00000000000E+00 0. -1.
    9900018    1    3    3    0    0 -0.57659688505E+01  0.17374658187E+01  0.26198297624E+01  0.91423777465E+02  0.91187600000E+02 0.  0.
<mgrwt>
<rscale>  0 0.16155011E+04</rscale>
<asrwt>0</asrwt>
<pdfrwt beam="1">  1        2 0.23712976E+00 0.27360008E+04</pdfrwt>
<pdfrwt beam="2">  1       -2 0.24523316E+00 0.27360008E+04</pdfrwt>
<totfact> 0.71373129E-01</totfact>
</mgrwt>
</event>
<event>
11    1  0.5516123E-014  0.3991386E+04  0.7818608E-02  0.8006286E-01
         -1   -1    0    0    0  501 -0.00000000000E+00  0.00000000000E+00  0.13777269208E+04  0.13777269208E+04  0.00000000000E+00 0.  1.
          1   -1    0    0  501    0  0.00000000000E+00 -0.00000000000E+00 -0.28908421965E+04  0.28908421965E+04  0.00000000000E+00 0. -1.
    9900016    2    1    2    0    0 -0.35733822955E+03  0.23521876111E+03 -0.96892262326E+03  0.21718461301E+04  0.18960712242E+04 0.  0.
         24    2    3    3    0    0  0.73886104971E+03  0.99293852035E+02 -0.43260836774E+03  0.86603222161E+03  0.84183663501E+02 0.  0.
        -15    1    1    2    0    0  0.50267249805E+02  0.14690740559E+03  0.15104587123E+03  0.21661818353E+03  0.00000000000E+00 0.  1.
        -15    1    4    4    0    0  0.21670874965E+03  0.65337092246E+02 -0.11432815666E+03  0.25357946527E+03  0.00000000000E+00 0.  1.
         15    1    1    2    0    0  0.64117342105E+03 -0.81756498717E+03 -0.81238631274E+03  0.13188962754E+04  0.00000000000E+00 0. -1.
         15    1    3    3    0    0 -0.10730519654E+04  0.71457582533E+02 -0.50117430693E+03  0.11864747753E+04  0.00000000000E+00 0. -1.
        -16    1    1    2    0    0 -0.33410244131E+03  0.43543882047E+03  0.11714778908E+03  0.56120852822E+03  0.00000000000E+00 0.  1.
         16    1    4    4    0    0  0.52215230005E+03  0.33956759788E+02 -0.31828021108E+03  0.61245275634E+03  0.00000000000E+00 0. -1.
    9900018    1    3    3    0    0 -0.23147313856E+02  0.64467326543E+02 -0.35139948590E+02  0.11933913319E+03  0.91187600000E+02 0.  0.
<mgrwt>
<rscale>  0 0.39913863E+04</rscale>
<asrwt>0</asrwt>
<pdfrwt beam="1">  1        1 0.44474495E+00 0.39913863E+04</pdfrwt>
<pdfrwt beam="2">  1       -1 0.21195799E+00 0.39913863E+04</pdfrwt>
<totfact> 0.70022098E-02</totfact>
</mgrwt>
</event>
<event>
11    1  0.5516123E-014  0.2401368E+04  0.7818608E-02  0.8615373E-01
         -2   -1    0    0    0  501 -0.00000000000E+00  0.00000000000E+00  0.12748470977E+04  0.12748470977E+04  0.00000000000E+00 0.  1.
          2   -1    0    0  501    0  0.00000000000E+00 -0.00000000000E+00 -0.36826202915E+04  0.36826202915E+04  0.00000000000E+00 0. -1.
    9900016    2    1    2    0    0  0.21092663720E+03 -0.39914938687E+03 -0.34010960992E+03  0.18857551401E+04  0.17990518676E+04 0.  0.
         24    2    3    3    0    0 -0.40255317754E+03  0.30483651300E+02 -0.87396314929E+03  0.96600428687E+03  0.79839728155E+02 0.  0.
        -15    1    1    2    0    0  0.69521789624E+02  0.39015668886E+03 -0.38883838823E+03  0.55520339810E+03  0.00000000000E+00 0.  1.
        -15    1    4    4    0    0 -0.15028004571E+03  0.43936036982E+02 -0.28572930705E+03  0.32581544529E+03  0.00000000000E+00 0.  1.
         15    1    1    2    0    0 -0.56590684800E+03 -0.16549081893E+03 -0.19094422769E+04  0.19984012562E+04  0.00000000000E+00 0. -1.
         15    1    3    3    0    0  0.61347981474E+03 -0.42963303817E+03  0.53385353938E+03  0.91975085327E+03  0.00000000000E+00 0. -1.
        -16    1    1    2    0    0  0.23839213662E+03  0.22332910613E+03  0.23807865060E+03  0.40421299375E+03  0.00000000000E+00 0.  1.
         16    1    4    4    0    0 -0.25227313182E+03 -0.13452385681E+02 -0.58823384224E+03  0.64018884158E+03  0.00000000000E+00 0. -1.
    9900018    1    1    2    0    0  0.47066284551E+02 -0.48845589188E+02 -0.74615692942E+01  0.11389460099E+03  0.91187600000E+02 0.  0.
<mgrwt>
<rscale>  0 0.19813869E+04</rscale>
<asrwt>0</asrwt>
<pdfrwt beam="1">  1        2 0.56655696E+00 0.24013678E+04</pdfrwt>
<pdfrwt beam="2">  1       -2 0.19613033E+00 0.24013678E+04</pdfrwt>
<totfact> 0.73113241E-02</totfact>
</mgrwt>
</event>
<event>
11    1  0.5516123E-014  0.4739970E+04  0.7818608E-02  0.8118481E-01
          1   -1    0    0  501    0  0.00000000000E+00  0.00000000000E+00  0.21152792408E+04  0.21152792408E+04  0.00000000000E+00 0. -1.
         -1   -1    0    0    0  501 -0.00000000000E+00 -0.00000000000E+00 -0.48851953845E+04  0.48851953845E+04  0.00000000000E+00 0.  1.
    9900016    2    1    2    0    0 -0.72181676290E+03 -0.86689703298E+03 -0.15407006700E+03  0.21278441050E+04  0.17976242780E+04 0.  0.
         24    2    3    3    0    0  0.16701949345E+03 -0.10613686412E+04 -0.45503302344E+03  0.11694977177E+04  0.79189365017E+02 0.  0.
        -15    1    1    2    0    0  0.27701147043E+03  0.62308746764E+02 -0.22278659256E+03  0.36090386601E+03  0.00000000000E+00 0.  1.
        -15    1    4    4    0    0  0.45952467970E+02 -0.53979931471E+03 -0.23880366865E+03  0.59204908718E+03  0.00000000000E+00 0.  1.
         15    1    3    3    0    0 -0.88883625635E+03  0.19447160820E+03  0.30096295644E+03  0.95834638735E+03  0.00000000000E+00 0. -1.
         15    1    1    2    0    0 -0.30303025290E+03 -0.88352080364E+03  0.44455504978E+03  0.10344397213E+04  0.00000000000E+00 0. -1.
        -16    1    1    2    0    0  0.77233207922E+03  0.17144357115E+04 -0.27989184121E+04  0.33719031610E+04  0.00000000000E+00 0.  1.
         16    1    4    4    0    0  0.12106702548E+03 -0.52156932647E+03 -0.21622935480E+03  0.57744863049E+03  0.00000000000E+00 0. -1.
    9900018    1    1    2    0    0 -0.24496533847E+02 -0.26326621658E+02 -0.38696121792E+02  0.10538377206E+03  0.91187600000E+02 0.  0.
<mgrwt>
<rscale>  0 0.34802712E+04</rscale>
<asrwt>0</asrwt>
<pdfrwt beam="1">  1        1 0.32542757E+00 0.47399702E+04</pdfrwt>
<pdfrwt beam="2">  1       -1 0.75156853E+00 0.47399702E+04</pdfrwt>
<totfact> 0.22003123E-04</totfact>
</mgrwt>
</event>
<event>
11    1  0.5516123E-014  0.3081661E+04  0.7818608E-02  0.8581891E-01
          2   -1    0    0  501    0  0.00000000000E+00  0.00000000000E+00  0.33102625770E+04  0.33102625770E+04  0.00000000000E+00 0. -1.
         -2   -1    0    0    0  501 -0.00000000000E+00 -0.00000000000E+00 -0.12337571277E+04  0.12337571277E+04  0.00000000000E+00 0.  1.
    9900016    2    1    2    0    0  0.74611374709E+02 -0.11402906651E+03  0.52329125825E+03  0.19652587297E+04  0.18894016642E+04 0.  0.
        -24    2    3    3    0    0  0.55712446838E+03 -0.66252024615E+03 -0.16310167195E+03  0.88457217056E+03  0.80901296091E+02 0.  0.
        -15    1    3    3    0    0 -0.48895677662E+03  0.55894328642E+03  0.60611238237E+03  0.95857631251E+03  0.00000000000E+00 0.  1.
        -15    1    1    2    0    0 -0.18757091083E+03 -0.44611836420E+03 -0.29366363615E+03  0.56607664910E+03  0.00000000000E+00 0.  1.
         15    1    4    4    0    0  0.61640966079E+02 -0.69439692193E+02 -0.43563133816E+02  0.10256327890E+03  0.00000000000E+00 0. -1.
         15    1    1    2    0    0 -0.90221169148E+02  0.42348387857E+02  0.18241598817E+02  0.10132127735E+03  0.00000000000E+00 0. -1.
        -16    1    4    4    0    0  0.49548350230E+03 -0.59308055395E+03 -0.11953853814E+03  0.78200889165E+03  0.00000000000E+00 0.  1.
         16    1    1    2    0    0  0.20318070527E+03  0.51779904285E+03  0.18286362283E+04  0.19113630485E+04  0.00000000000E+00 0. -1.
    9900018    1    3    3    0    0  0.64436829550E+01 -0.10452106781E+02  0.80280547832E+02  0.12211024666E+03  0.91187600000E+02 0.  0.
<mgrwt>
<rscale>  0 0.20537598E+04</rscale>
<asrwt>0</asrwt>
<pdfrwt beam="1">  1        2 0.50927116E+00 0.30816608E+04</pdfrwt>
<pdfrwt beam="2">  1       -2 0.18980879E+00 0.30816608E+04</pdfrwt>
<totfact> 0.14067862E-01</totfact>
</mgrwt>
</event>
<event>
11    1  0.5524002E-014  0.2520104E+04  0.7818608E-02  0.8707576E-01
          2   -1    0    0  501    0  0.00000000000E+00  0.00000000000E+00  0.30043644387E+04  0.30043644387E+04  0.00000000000E+00 0. -1.
         -2   -1    0    0    0  501 -0.00000000000E+00 -0.00000000000E+00 -0.87310889048E+03  0.87310889048E+03  0.00000000000E+00 0.  1.
    9900016    2    1    2    0    0 -0.86749636595E+02 -0.19424736764E+03  0.81410791546E+03  0.19784637731E+04  0.17906115336E+04 0.  0.
        -24    2    3    3    0    0 -0.76645013830E+03 -0.62995937289E+03  0.46983239941E+03  0.11007603184E+04  0.81462684826E+02 0.  0.
        -15    1    3    3    0    0  0.67970050171E+03  0.43571200525E+03  0.34427551605E+03  0.87770345476E+03  0.00000000000E+00 0.  1.
        -15    1    1    2    0    0  0.28046751765E+03 -0.23816399165E+03  0.22582253278E+02  0.36863813359E+03  0.00000000000E+00 0.  1.
         15    1    4    4    0    0 -0.29210750020E+03 -0.23930081243E+03  0.22294115577E+03  0.43851388740E+03  0.00000000000E+00 0. -1.
         15    1    1    2    0    0 -0.65440318956E+02  0.26580913575E+03  0.12145363834E+03  0.29947941208E+03  0.00000000000E+00 0. -1.
        -16    1    4    4    0    0 -0.47434263810E+03 -0.39065856046E+03  0.24689124363E+03  0.66224643100E+03  0.00000000000E+00 0.  1.
         16    1    1    2    0    0 -0.10679448563E+03  0.12397216455E+03  0.10792817749E+04  0.10916150006E+04  0.00000000000E+00 0. -1.
    9900018    1    1    2    0    0 -0.21483076467E+02  0.42630058989E+02  0.93829966186E+02  0.13927700978E+03  0.91187600000E+02 0.  0.
<mgrwt>
<rscale>  0 0.17976016E+04</rscale>
<asrwt>0</asrwt>
<pdfrwt beam="1">  1        2 0.46220991E+00 0.25201037E+04</pdfrwt>
<pdfrwt beam="2">  1       -2 0.13432445E+00 0.25201037E+04</pdfrwt>
<totfact> 0.60362264E-01</totfact>
</mgrwt>
</event>
<event>
11    1  0.5516123E-014  0.5042380E+04  0.7818608E-02  0.7822003E-01
         -2   -1    0    0    0  501 -0.00000000000E+00  0.00000000000E+00  0.21478871834E+04  0.21478871834E+04  0.00000000000E+00 0. -1.
          2   -1    0    0  501    0  0.00000000000E+00 -0.00000000000E+00 -0.29593723956E+04  0.29593723956E+04  0.00000000000E+00 0.  1.
    9900016    2    1    2    0    0 -0.12224999129E+04  0.14869013539E+03 -0.59367969603E+03  0.23318841928E+04  0.18890774240E+04 0.  0.
         24    2    3    3    0    0 -0.50266835027E+03  0.96429516059E+03 -0.40710108863E+03  0.11638623578E+04  0.79395619252E+02 0.  0.
        -15    1    4    4    0    0 -0.28101994035E+03  0.61403394182E+03 -0.23417607160E+03  0.71473653963E+03  0.00000000000E+00 0.  1.
        -15    1    1    2    0    0 -0.13324070852E+03 -0.93902952607E+02 -0.49916483255E+03  0.52510606640E+03  0.00000000000E+00 0.  1.
         15    1    1    2    0    0  0.16426466572E+04 -0.48382259699E+03  0.27323541843E+03  0.17340789889E+04  0.00000000000E+00 0. -1.
         15    1    3    3    0    0 -0.69334939213E+03 -0.78739827064E+03 -0.13964422441E+03  0.10584091485E+04  0.00000000000E+00 0. -1.
        -16    1    1    2    0    0 -0.28690603578E+03  0.42903541420E+03  0.81238978901E+01  0.51619033091E+03  0.00000000000E+00 0.  1.
         16    1    4    4    0    0 -0.22164840992E+03  0.35026121877E+03 -0.17292501702E+03  0.44912581813E+03  0.00000000000E+00 0. -1.
    9900018    1    3    3    0    0 -0.26482170528E+02 -0.28206754556E+02 -0.46934382994E+02  0.10961268658E+03  0.91187600000E+02 0.  0.
<mgrwt>
<rscale>  0 0.50423796E+04</rscale>
<asrwt>0</asrwt>
<pdfrwt beam="1">  1        2 0.45528806E+00 0.50423796E+04</pdfrwt>
<pdfrwt beam="2">  1       -2 0.33044418E+00 0.50423796E+04</pdfrwt>
<totfact> 0.27617281E-02</totfact>
</mgrwt>
</event>
<event>
11    1  0.6266053E-014  0.2919833E+04  0.7818608E-02  0.8452878E-01
          1   -1    0    0  501    0  0.00000000000E+00  0.00000000000E+00  0.34139763381E+04  0.34139763381E+04  0.00000000000E+00 0. -1.
         -1   -1    0    0    0  501 -0.00000000000E+00 -0.00000000000E+00 -0.13851815427E+04  0.13851815427E+04  0.00000000000E+00 0.  1.
    9900016    2    1    2    0    0  0.43296123321E+02  0.41553426063E+03  0.10410802495E+04  0.22026266909E+04  0.18955666640E+04 0.  0.
         24    2    3    3    0    0  0.90888392768E+03  0.23998806081E+03  0.73852340847E+03  0.11980623883E+04  0.79198472159E+02 0.  0.
        -15    1    4    4    0    0  0.28726780616E+03  0.45196665984E+02  0.20105506152E+03  0.35353736554E+03  0.00000000000E+00 0.  1.
        -15    1    1    2    0    0 -0.20871064037E+03 -0.45127647025E+02  0.31948089979E+02  0.21591043602E+03  0.00000000000E+00 0.  1.
         15    1    3    3    0    0 -0.83382045205E+03  0.19719948548E+03  0.25019114810E+03  0.89260281980E+03  0.00000000000E+00 0. -1.
         15    1    1    2    0    0  0.92792714750E+03 -0.27148663762E+03  0.12298044061E+04  0.15643441638E+04  0.00000000000E+00 0. -1.
        -16    1    1    2    0    0 -0.76251263045E+03 -0.98919975990E+02 -0.27403795016E+03  0.81627658999E+03  0.00000000000E+00 0.  1.
         16    1    4    4    0    0  0.62161612152E+03  0.19479139483E+03  0.53746834695E+03  0.84452502273E+03  0.00000000000E+00 0. -1.
    9900018    1    3    3    0    0 -0.31767352315E+02 -0.21653285658E+02  0.52365692889E+02  0.11196148283E+03  0.91187600000E+02 0.  0.
<mgrwt>
<rscale>  0 0.23645980E+04</rscale>
<asrwt>0</asrwt>
<pdfrwt beam="1">  1        1 0.52522713E+00 0.29198327E+04</pdfrwt>
<pdfrwt beam="2">  1       -1 0.21310485E+00 0.29198327E+04</pdfrwt>
<totfact> 0.29461537E-02</totfact>
</mgrwt>
</event>
<event>
11    1  0.5516123E-014  0.3157715E+04  0.7818608E-02  0.8303529E-01
          2   -1    0    0  501    0  0.00000000000E+00  0.00000000000E+00  0.35333827424E+04  0.35333827424E+04  0.00000000000E+00 0. -1.
         -2   -1    0    0    0  501 -0.00000000000E+00 -0.00000000000E+00 -0.20733271724E+04  0.20733271724E+04  0.00000000000E+00 0.  1.
    9900016    2    1    2    0    0 -0.91510059169E+03 -0.24598568513E+03  0.46948763554E+03  0.20841069250E+04  0.17958744345E+04 0.  0.
         24    2    3    3    0    0  0.33475011422E+03  0.21653819721E+03 -0.33570214806E+03  0.52706302178E+03  0.78441487031E+02 0.  0.
        -15    1    1    2    0    0  0.43956038552E+03 -0.60301854598E+03 -0.17680920015E+03  0.76688082032E+03  0.00000000000E+00 0.  1.
        -15    1    4    4    0    0  0.17519583104E+03  0.14856588093E+03 -0.22354441013E+03  0.32052691540E+03  0.00000000000E+00 0.  1.
         15    1    3    3    0    0 -0.12498507059E+04 -0.46252388234E+03  0.80518978360E+03  0.15570439032E+04  0.00000000000E+00 0. -1.
         15    1    1    2    0    0  0.25892364239E+03  0.10737367493E+03  0.16585194659E+04  0.16820396480E+04  0.00000000000E+00 0. -1.
        -16    1    1    2    0    0  0.23736624245E+03  0.79812413023E+03 -0.48638531518E+03  0.96432128211E+03  0.00000000000E+00 0.  1.
         16    1    4    4    0    0  0.15955428318E+03  0.67972316278E+02 -0.11215773793E+03  0.20653610638E+03  0.00000000000E+00 0. -1.
    9900018    1    1    2    0    0 -0.20749678677E+02 -0.56493574056E+02 -0.47570161405E+01  0.10936123935E+03  0.91187600000E+02 0.  0.
<mgrwt>
<rscale>  0 0.27991593E+04</rscale>
<asrwt>0</asrwt>
<pdfrwt beam="1">  1        2 0.54359735E+00 0.31577152E+04</pdfrwt>
<pdfrwt beam="2">  1       -2 0.31897341E+00 0.31577152E+04</pdfrwt>
<totfact> 0.14858231E-02</totfact>
</mgrwt>
</event>
<event>
11    1  0.5516123E-014  0.3744579E+04  0.7818608E-02  0.8179969E-01
         -1   -1    0    0    0  501 -0.00000000000E+00  0.00000000000E+00  0.27887238882E+04  0.27887238882E+04  0.00000000000E+00 0.  1.
          1   -1    0    0  501    0  0.00000000000E+00 -0.00000000000E+00 -0.31676241049E+04  0.31676241049E+04  0.00000000000E+00 0. -1.
    9900016    2    1    2    0    0 -0.15093107539E+04  0.36935082474E+03 -0.43064441018E+03  0.24105960850E+04  0.17919486302E+04 0.  0.
         24    2    3    3    0    0 -0.13701664210E+04  0.85998529977E+03 -0.77474577548E+03  0.17953814208E+04  0.78947402406E+02 0.  0.
        -15    1    1    2    0    0  0.13174447569E+04 -0.58487147407E+03 -0.46264413989E+03  0.15138609345E+04  0.00000000000E+00 0.  1.
        -15    1    4    4    0    0 -0.76666125452E+03  0.47788166135E+03 -0.38920246233E+03  0.98367622627E+03  0.00000000000E+00 0.  1.
         15    1    1    2    0    0 -0.42585867900E+03 -0.47851664539E+03 -0.23972994084E+03  0.68396216192E+03  0.00000000000E+00 0. -1.
         15    1    3    3    0    0 -0.13914433293E+03 -0.49063447503E+03  0.34410136530E+03  0.61521466422E+03  0.00000000000E+00 0. -1.
        -16    1    1    2    0    0  0.70311427551E+03  0.68787343980E+03  0.71777253147E+03  0.12176768703E+04  0.00000000000E+00 0.  1.
         16    1    4    4    0    0 -0.60350516647E+03  0.38210363842E+03 -0.38554331315E+03  0.81170519449E+03  0.00000000000E+00 0. -1.
    9900018    1    1    2    0    0 -0.85389599520E+02  0.61638549215E+01  0.36345742757E+02  0.13025194134E+03  0.91187600000E+02 0.  0.
<mgrwt>
<rscale>  0 0.32337182E+04</rscale>
<asrwt>0</asrwt>
<pdfrwt beam="1">  1        1 0.48732678E+00 0.37445793E+04</pdfrwt>
<pdfrwt beam="2">  1       -1 0.42903445E+00 0.37445793E+04</pdfrwt>
<totfact> 0.15242952E-03</totfact>
</mgrwt>
</event>
<event>
11    1  0.5516123E-014  0.4420962E+04  0.7818608E-02  0.7924622E-01
          2   -1    0    0  501    0  0.00000000000E+00  0.00000000000E+00  0.20928115116E+04  0.20928115116E+04  0.00000000000E+00 0. -1.
         -2   -1    0    0    0  501 -0.00000000000E+00 -0.00000000000E+00 -0.23347664124E+04  0.23347664124E+04  0.00000000000E+00 0.  1.
    9900016    2    1    2    0    0  0.88793825459E+02  0.14197882394E+03 -0.53602112794E+03  0.18889620930E+04  0.18035567109E+04 0.  0.
        -24    2    3    3    0    0 -0.85198343405E+03  0.49931787958E+02 -0.16219993721E+03  0.87245985911E+03  0.80674845984E+02 0.  0.
        -15    1    3    3    0    0  0.94077725951E+03  0.92047035980E+02 -0.37382119073E+03  0.10165022339E+04  0.00000000000E+00 0.  1.
        -15    1    1    2    0    0  0.41556420262E+03  0.65822362008E+03  0.27313704297E+02  0.77890819676E+03  0.00000000000E+00 0.  1.
         15    1    4    4    0    0 -0.39711930352E+03  0.57655460974E+02 -0.54618541965E+02  0.40498281264E+03  0.00000000000E+00 0. -1.
         15    1    1    2    0    0 -0.42322095671E+03 -0.31246222754E+03  0.80189869241E+03  0.95905689859E+03  0.00000000000E+00 0. -1.
        -16    1    4    4    0    0 -0.45486413053E+03 -0.77236730160E+01 -0.10758139525E+03  0.46747704647E+03  0.00000000000E+00 0.  1.
         16    1    1    2    0    0 -0.97819383247E+02 -0.46465324755E+03 -0.51955752972E+03  0.70385460067E+03  0.00000000000E+00 0. -1.
    9900018    1    1    2    0    0  0.16682311876E+02 -0.23086968922E+02 -0.15588639885E+02  0.96796134999E+02  0.91187600000E+02 0.  0.
<mgrwt>
<rscale>  0 0.44209619E+04</rscale>
<asrwt>0</asrwt>
<pdfrwt beam="1">  1        2 0.32197100E+00 0.44209619E+04</pdfrwt>
<pdfrwt beam="2">  1       -2 0.35919483E+00 0.44209619E+04</pdfrwt>
<totfact> 0.61530973E-02</totfact>
</mgrwt>
</event>
