<event>
10    1  0.9617585E-014  0.9788605E+03  0.7818608E-02  0.9332039E-01
          2   -1    0    0  501    0  0.00000000000E+00  0.00000000000E+00  0.19055094835E+04  0.19055094835E+04  0.00000000000E+00 0. -1.
         -2   -1    0    0    0  501 -0.00000000000E+00 -0.00000000000E+00 -0.12571019301E+03  0.12571019301E+03  0.00000000000E+00 0.  1.
    9900016    2    1    2    0    0 -0.14837256046E+02  0.20802735082E+03  0.10881994859E+04  0.13088584008E+04  0.69673285377E+03 0.  0.
        -15    1    3    3    0    0 -0.56711917611E+02  0.12759553246E+03  0.20817346676E+03  0.25066522249E+03  0.00000000000E+00 0.  1.
        -15    1    3    3    0    0 -0.80654338088E+02  0.12014098212E+02  0.92601600835E+02  0.12338767072E+03  0.00000000000E+00 0.  1.
         15    1    3    3    0    0 -0.42834974050E+02 -0.14432087864E+02 -0.18903265087E+02  0.48994424101E+02  0.00000000000E+00 0. -1.
         15    1    3    3    0    0 -0.16846007206E+02 -0.56164656199E+02  0.12083030412E+03  0.13430643677E+03  0.00000000000E+00 0. -1.
        -16    1    3    3    0    0  0.15744766744E+03  0.12727879952E+03  0.54846445523E+03  0.58463913608E+03  0.00000000000E+00 0.  1.
         16    1    1    2    0    0  0.14837256046E+02 -0.20802735082E+03  0.69159980457E+03  0.72236127564E+03  0.00000000000E+00 0. -1.
    9900018    1    3    3    0    0  0.24762313473E+02  0.11735664695E+02  0.13703292402E+03  0.16686551068E+03  0.91187600000E+02 0.  0.
<mgrwt>
<rscale>  0 0.97886049E+03</rscale>
<asrwt>0</asrwt>
<pdfrwt beam="1">  1        2 0.29315529E+00 0.97886049E+03</pdfrwt>
<pdfrwt beam="2">  1       -2 0.19340031E-01 0.97886049E+03</pdfrwt>
<totfact> 0.17134643E+02</totfact>
</mgrwt>
</event>
<event>
11    1  0.9617585E-014  0.8150330E+03  0.7818608E-02  0.9538509E-01
          1   -1    0    0  501    0  0.00000000000E+00  0.00000000000E+00  0.30366147385E+03  0.30366147385E+03  0.00000000000E+00 0. -1.
         -1   -1    0    0    0  501 -0.00000000000E+00 -0.00000000000E+00 -0.54689096079E+03  0.54689096079E+03  0.00000000000E+00 0.  1.
    9900016    2    1    2    0    0 -0.65680909590E+02  0.49809522620E+02 -0.15644010817E+03  0.73085545600E+03  0.70914118459E+03 0.  0.
         23    2    3    3    0    0 -0.22362872136E+03  0.81674555461E+02 -0.43279208655E+01  0.26186212240E+03  0.10896101240E+03 0.  0.
        -15    1    4    4    0    0 -0.89026575404E+02 -0.14840493693E+02  0.25007632699E+02  0.93655502104E+02  0.00000000000E+00 0.  1.
        -15    1    3    3    0    0  0.10678703878E+03  0.87793929148E+02 -0.10423024870E+02  0.13863580019E+03  0.00000000000E+00 0.  1.
         15    1    4    4    0    0 -0.13460214595E+03  0.96515049155E+02 -0.29335553564E+02  0.16820662030E+03  0.00000000000E+00 0. -1.
         15    1    3    3    0    0 -0.24365452517E+02 -0.73884966458E+02  0.62793761519E+01  0.78051868073E+02  0.00000000000E+00 0. -1.
        -16    1    1    2    0    0  0.65680909590E+02 -0.49809522620E+02 -0.86789378773E+02  0.11969697864E+03  0.00000000000E+00 0.  1.
         16    1    3    3    0    0  0.97558094852E+02 -0.39188399711E+02 -0.10609083950E+03  0.14936056631E+03  0.00000000000E+00 0. -1.
    9900018    1    3    3    0    0 -0.22031869343E+02 -0.65855958209E+01 -0.41877699089E+02  0.10294509903E+03  0.91187600000E+02 0.  0.
<mgrwt>
<rscale>  0 0.81503304E+03</rscale>
<asrwt>0</asrwt>
<pdfrwt beam="1">  1        1 0.46717150E-01 0.81503304E+03</pdfrwt>
<pdfrwt beam="2">  1       -1 0.84137070E-01 0.81503304E+03</pdfrwt>
<totfact> 0.12224612E+02</totfact>
</mgrwt>
</event>
<event>
11    1  0.9617585E-014  0.1034522E+04  0.7818608E-02  0.9271472E-01
         -1   -1    0    0    0  501 -0.00000000000E+00  0.00000000000E+00  0.62692831737E+03  0.62692831737E+03  0.00000000000E+00 0.  1.
          1   -1    0    0  501    0  0.00000000000E+00 -0.00000000000E+00 -0.42677755708E+03  0.42677755708E+03  0.00000000000E+00 0. -1.
    9900016    2    1    2    0    0 -0.25111019338E+03 -0.89163214801E+02  0.73619378687E+02  0.75872011441E+03  0.70656209281E+03 0.  0.
         23    2    3    3    0    0 -0.21247808847E+03 -0.16277425164E+03  0.42646447393E+02  0.28010444395E+03  0.70692184656E+02 0.  0.
        -15    1    3    3    0    0  0.46283843447E+02 -0.31168279552E+02  0.84203679747E+02  0.10101443212E+03  0.00000000000E+00 0.  1.
        -15    1    4    4    0    0 -0.10598644601E+03 -0.52960435862E+02 -0.85640579860E+01  0.11879089861E+03  0.00000000000E+00 0. -1.
         15    1    3    3    0    0 -0.21933606389E+02 -0.56749761058E+02 -0.12694977608E+03  0.14077593585E+03  0.00000000000E+00 0. -1.
         15    1    4    4    0    0 -0.10649164246E+03 -0.10981381577E+03  0.51210505379E+02  0.16131354534E+03  0.00000000000E+00 0.  1.
        -16    1    1    2    0    0  0.25111019338E+03  0.89163214801E+02  0.12653138160E+03  0.29498576003E+03  0.00000000000E+00 0.  1.
         16    1    3    3    0    0 -0.41673530463E+02  0.10879660567E+03  0.26734484554E+02  0.11953291267E+03  0.00000000000E+00 0. -1.
    9900018    1    3    3    0    0 -0.21308811507E+02  0.52732471775E+02  0.46984543068E+02  0.11729238981E+03  0.91187600000E+02 0.  0.
<mgrwt>
<rscale>  0 0.10345220E+04</rscale>
<asrwt>0</asrwt>
<pdfrwt beam="1">  1        1 0.65658086E-01 0.10345220E+04</pdfrwt>
<pdfrwt beam="2">  1       -1 0.96450510E-01 0.10345220E+04</pdfrwt>
<totfact> 0.56986275E+01</totfact>
</mgrwt>
</event>
<event>
10    1  0.9617585E-014  0.8878532E+03  0.7818608E-02  0.9440894E-01
         -1   -1    0    0    0  501 -0.00000000000E+00  0.00000000000E+00  0.17636587558E+04  0.17636587558E+04  0.00000000000E+00 0.  1.
          1   -1    0    0  501    0  0.00000000000E+00 -0.00000000000E+00 -0.11173977471E+03  0.11173977471E+03  0.00000000000E+00 0. -1.
    9900016    2    1    2    0    0 -0.74587073838E+02  0.12470489187E+01  0.11096406367E+04  0.13280133010E+04  0.72577696178E+03 0.  0.
        -15    1    3    3    0    0 -0.38812895979E+02  0.82067987774E+01 -0.14004375354E+02  0.42070357373E+02  0.00000000000E+00 0. -1.
        -15    1    3    3    0    0  0.68473651392E+01 -0.67269435694E+02  0.16164318404E+03  0.17521581645E+03  0.00000000000E+00 0.  1.
         15    1    3    3    0    0  0.10304228762E+03  0.22458607379E+02  0.17629379278E+03  0.20543028855E+03  0.00000000000E+00 0. -1.
         15    1    3    3    0    0 -0.11389586841E+03  0.11922143886E+03  0.17546447471E+03  0.24077749524E+03  0.00000000000E+00 0.  1.
        -16    1    1    2    0    0  0.74587073838E+02 -0.12470489187E+01  0.54227834436E+03  0.54738522950E+03  0.00000000000E+00 0.  1.
         16    1    3    3    0    0  0.57340133378E+02 -0.10286344509E+03  0.40648057128E+03  0.42319644855E+03  0.00000000000E+00 0. -1.
    9900018    1    3    3    0    0 -0.89108095581E+02  0.21493084684E+02  0.20376298927E+03  0.24132289484E+03  0.91187600000E+02 0.  0.
<mgrwt>
<rscale>  0 0.88785321E+03</rscale>
<asrwt>0</asrwt>
<pdfrwt beam="1">  1        1 0.17190736E-01 0.88785321E+03</pdfrwt>
<pdfrwt beam="2">  1       -1 0.27133210E+00 0.88785321E+03</pdfrwt>
<totfact> 0.16623478E+01</totfact>
</mgrwt>
</event>
<event>
11    1  0.9617585E-014  0.9661451E+03  0.7818608E-02  0.9346476E-01
          1   -1    0    0  501    0  0.00000000000E+00  0.00000000000E+00  0.62734552644E+03  0.62734552644E+03  0.00000000000E+00 0. -1.
         -1   -1    0    0    0  501 -0.00000000000E+00 -0.00000000000E+00 -0.37197857782E+03  0.37197857782E+03  0.00000000000E+00 0.  1.
    9900016    2    1    2    0    0 -0.29211262266E+02  0.16777498752E+03  0.48398465078E+02  0.73129855051E+03  0.70954451184E+03 0.  0.
         23    2    3    3    0    0 -0.30341403094E+02 -0.86834990538E+02 -0.44385995684E+02  0.14810952558E+03  0.10726322124E+03 0.  0.
        -15    1    3    3    0    0 -0.47503517216E+02 -0.16114627203E+02  0.83201147844E+01  0.50847710547E+02  0.00000000000E+00 0.  1.
        -15    1    4    4    0    0 -0.18772019801E+02  0.22789252937E+02 -0.69415995612E+00  0.29533381705E+02  0.00000000000E+00 0. -1.
         15    1    4    4    0    0 -0.11569383293E+02 -0.10962424348E+03 -0.43691835727E+02  0.11857614388E+03  0.00000000000E+00 0. -1.
         15    1    3    3    0    0  0.38445429156E+02  0.10829442586E+03  0.85049583947E+02  0.14296560924E+03  0.00000000000E+00 0.  1.
        -16    1    3    3    0    0  0.12038351734E+03  0.15785815859E+03 -0.92790439003E+02  0.21913798176E+03  0.00000000000E+00 0.  1.
         16    1    1    2    0    0  0.29211262266E+02 -0.16777498752E+03  0.20696848354E+03  0.26802555375E+03  0.00000000000E+00 0. -1.
    9900018    1    3    3    0    0 -0.11019528846E+03  0.45720208182E+01  0.92205201033E+02  0.17023772339E+03  0.91187600000E+02 0.  0.
<mgrwt>
<rscale>  0 0.96614512E+03</rscale>
<asrwt>0</asrwt>
<pdfrwt beam="1">  1        1 0.96514696E-01 0.96614512E+03</pdfrwt>
<pdfrwt beam="2">  1       -1 0.57227474E-01 0.96614512E+03</pdfrwt>
<totfact> 0.99685804E+01</totfact>
</mgrwt>
</event>
<event>
11    1  0.9617585E-014  0.8192086E+03  0.7818608E-02  0.9532622E-01
          1   -1    0    0  501    0  0.00000000000E+00  0.00000000000E+00  0.92679805023E+03  0.92679805023E+03  0.00000000000E+00 0. -1.
         -1   -1    0    0    0  501 -0.00000000000E+00 -0.00000000000E+00 -0.18102724303E+03  0.18102724303E+03  0.00000000000E+00 0.  1.
    9900016    2    1    2    0    0  0.25323558815E+00  0.96463705358E+02  0.67803757790E+03  0.98995629423E+03  0.71482389220E+03 0.  0.
         23    2    3    3    0    0  0.82934292464E+01  0.13673438649E+03  0.21118644095E+03  0.26175824434E+03  0.71781559057E+02 0.  0.
        -15    1    3    3    0    0 -0.12234087464E+03  0.17047572419E+02  0.10340373852E+03  0.16109078954E+03  0.00000000000E+00 0.  1.
        -15    1    4    4    0    0 -0.72647853678E+01  0.10423417499E+03  0.19707604339E+03  0.22306166686E+03  0.00000000000E+00 0.  1.
         15    1    3    3    0    0 -0.71217966432E+01 -0.37594938515E+02  0.12383793147E+03  0.12961455420E+03  0.00000000000E+00 0. -1.
         15    1    4    4    0    0  0.15558214614E+02  0.32500211503E+02  0.14110397562E+02  0.38696577485E+02  0.00000000000E+00 0. -1.
        -16    1    3    3    0    0  0.16903497997E+03  0.22225691654E+02 -0.31519271199E+01  0.17051903256E+03  0.00000000000E+00 0.  1.
         16    1    1    2    0    0 -0.25323558815E+00 -0.96463705358E+02  0.67733229305E+02  0.11786899903E+03  0.00000000000E+00 0. -1.
    9900018    1    3    3    0    0 -0.47612502338E+02 -0.41949006689E+02  0.24276139407E+03  0.26697367358E+03  0.91187600000E+02 0.  0.
<mgrwt>
<rscale>  0 0.81920863E+03</rscale>
<asrwt>0</asrwt>
<pdfrwt beam="1">  1        1 0.14258431E+00 0.81920863E+03</pdfrwt>
<pdfrwt beam="2">  1       -1 0.27850346E-01 0.81920863E+03</pdfrwt>
<totfact> 0.20291824E+02</totfact>
</mgrwt>
</event>
<event>
10    1  0.9617585E-014  0.1056822E+04  0.7818608E-02  0.9248329E-01
          2   -1    0    0  501    0  0.00000000000E+00  0.00000000000E+00  0.27912624988E+04  0.27912624988E+04  0.00000000000E+00 0. -1.
         -2   -1    0    0    0  501 -0.00000000000E+00 -0.00000000000E+00 -0.10003301804E+03  0.10003301804E+03  0.00000000000E+00 0.  1.
    9900016    2    1    2    0    0  0.25988055124E+03 -0.12082459437E+03  0.19434528904E+04  0.20904794876E+04  0.71481386914E+03 0.  0.
        -15    1    3    3    0    0 -0.42277572008E+02  0.29584605238E+02  0.14348216685E+03  0.15247876628E+03  0.00000000000E+00 0.  1.
        -15    1    3    3    0    0 -0.38596090566E+02 -0.11411749395E+02  0.13464884375E+03  0.14053539538E+03  0.00000000000E+00 0.  1.
         15    1    3    3    0    0  0.75489479784E+02 -0.78084638182E+02  0.62866525835E+02  0.12549132380E+03  0.00000000000E+00 0. -1.
         15    1    3    3    0    0  0.69635809266E+02  0.23406152652E+02  0.55802339975E+02  0.92254512415E+02  0.00000000000E+00 0. -1.
        -16    1    3    3    0    0  0.17537905081E+03 -0.12894405723E+03  0.10807606519E+04  0.11024644974E+04  0.00000000000E+00 0.  1.
         16    1    1    2    0    0 -0.25988055124E+03  0.12082459437E+03  0.74777659032E+03  0.80081602915E+03  0.00000000000E+00 0. -1.
    9900018    1    3    3    0    0  0.20249873961E+02  0.44625092547E+02  0.46589236206E+03  0.47725499233E+03  0.91187600000E+02 0.  0.
<mgrwt>
<rscale>  0 0.10568224E+04</rscale>
<asrwt>0</asrwt>
<pdfrwt beam="1">  1        2 0.42942494E+00 0.10568224E+04</pdfrwt>
<pdfrwt beam="2">  1       -2 0.15389697E-01 0.10568224E+04</pdfrwt>
<totfact> 0.79594821E+01</totfact>
</mgrwt>
</event>
<event>
11    1  0.9617585E-014  0.9093357E+03  0.7818608E-02  0.9413986E-01
          2   -1    0    0  501    0  0.00000000000E+00  0.00000000000E+00  0.29413076347E+03  0.29413076347E+03  0.00000000000E+00 0. -1.
         -2   -1    0    0    0  501 -0.00000000000E+00 -0.00000000000E+00 -0.70282636348E+03  0.70282636348E+03  0.00000000000E+00 0.  1.
    9900016    2    1    2    0    0  0.29578948872E+02 -0.13226968161E+02 -0.14595396030E+03  0.73222511879E+03  0.71679927396E+03 0.  0.
         23    2    3    3    0    0 -0.11317100120E+02  0.85720519687E+01  0.25311191626E+02  0.83469973278E+02  0.78262527351E+02 0.  0.
        -15    1    4    4    0    0  0.20793683393E+02 -0.24206540099E+02  0.19033121256E+02  0.37156339396E+02  0.00000000000E+00 0.  1.
        -15    1    3    3    0    0 -0.97574671290E+02 -0.14001551233E+03 -0.33271627088E+02  0.17387398120E+03  0.00000000000E+00 0. -1.
         15    1    3    3    0    0 -0.33724008543E+02 -0.16023420127E+01  0.22371133946E+02  0.40501159072E+02  0.00000000000E+00 0.  1.
         15    1    4    4    0    0 -0.32110783513E+02  0.32778592067E+02  0.62780703705E+01  0.46313633882E+02  0.00000000000E+00 0. -1.
        -16    1    1    2    0    0 -0.29578948872E+02  0.13226968161E+02 -0.26274163971E+03  0.26473200816E+03  0.00000000000E+00 0.  1.
         16    1    3    3    0    0  0.20676743395E+03  0.18010886806E+03 -0.57132123336E+02  0.28010008143E+03  0.00000000000E+00 0. -1.
    9900018    1    3    3    0    0 -0.34572705128E+02 -0.60290033854E+02 -0.10323253545E+03  0.15427992381E+03  0.91187600000E+02 0.  0.
<mgrwt>
<rscale>  0 0.90933570E+03</rscale>
<asrwt>0</asrwt>
<pdfrwt beam="1">  1        2 0.45250887E-01 0.90933570E+03</pdfrwt>
<pdfrwt beam="2">  1       -2 0.10812713E+00 0.90933570E+03</pdfrwt>
<totfact> 0.77082030E+01</totfact>
</mgrwt>
</event>
<event>
11    1  0.9617585E-014  0.1019837E+04  0.7818608E-02  0.9287051E-01
          2   -1    0    0  501    0  0.00000000000E+00  0.00000000000E+00  0.84400713884E+03  0.84400713884E+03  0.00000000000E+00 0. -1.
         -2   -1    0    0    0  501 -0.00000000000E+00 -0.00000000000E+00 -0.30807446144E+03  0.30807446144E+03  0.00000000000E+00 0.  1.
    9900016    2    1    2    0    0  0.52011110389E+02  0.25208691902E+03  0.35852872744E+03  0.83947140881E+03  0.71408432798E+03 0.  0.
         23    2    3    3    0    0 -0.17800117588E+03  0.10352000251E+02  0.26976225012E+02  0.18868839800E+03  0.55533884232E+02 0.  0.
        -15    1    3    3    0    0  0.41583748211E+02  0.21020589978E+02  0.64308981778E+02  0.79414850347E+02  0.00000000000E+00 0.  1.
        -15    1    4    4    0    0 -0.72856984853E+02  0.82308271073E+01  0.38638154897E+02  0.82878186337E+02  0.00000000000E+00 0. -1.
         15    1    4    4    0    0 -0.10514419103E+03  0.21211731441E+01 -0.11661929885E+02  0.10581021166E+03  0.00000000000E+00 0.  1.
         15    1    3    3    0    0  0.52611633596E+02 -0.38245170969E+02  0.55101027344E+01  0.65276629234E+02  0.00000000000E+00 0. -1.
        -16    1    1    2    0    0 -0.52011110389E+02 -0.25208691902E+03  0.17740394997E+03  0.31261019147E+03  0.00000000000E+00 0.  1.
         16    1    3    3    0    0  0.18367034784E+03  0.26836412865E+03  0.16575643319E+03  0.36500588676E+03  0.00000000000E+00 0. -1.
    9900018    1    3    3    0    0 -0.47853443377E+02 -0.94046288911E+01  0.95976984717E+02  0.14108564447E+03  0.91187600000E+02 0.  0.
<mgrwt>
<rscale>  0 0.10198373E+04</rscale>
<asrwt>0</asrwt>
<pdfrwt beam="1">  1        2 0.12984725E+00 0.10198373E+04</pdfrwt>
<pdfrwt beam="2">  1       -2 0.47396071E-01 0.10198373E+04</pdfrwt>
<totfact> 0.13481484E+02</totfact>
</mgrwt>
</event>
<event>
10    1  0.9617585E-014  0.1709861E+04  0.7818608E-02  0.8755760E-01
         -1   -1    0    0    0  501 -0.00000000000E+00  0.00000000000E+00  0.66241668313E+03  0.66241668313E+03  0.00000000000E+00 0.  1.
          1   -1    0    0  501    0  0.00000000000E+00 -0.00000000000E+00 -0.11033929590E+04  0.11033929590E+04  0.00000000000E+00 0. -1.
    9900016    2    1    2    0    0 -0.35351013271E+03 -0.32758801098E+02  0.36898548504E+03  0.88145642811E+03  0.71747654562E+03 0.  0.
        -15    1    3    3    0    0  0.50620711013E+02 -0.65607747467E+01  0.12366602922E+03  0.13378634808E+03  0.00000000000E+00 0. -1.
        -15    1    3    3    0    0  0.20989135172E+02  0.21033268758E+02 -0.16310512971E+02  0.33896534089E+02  0.00000000000E+00 0.  1.
         15    1    3    3    0    0 -0.10892425594E+02 -0.65797982806E+02  0.11562751394E+03  0.13348311300E+03  0.00000000000E+00 0.  1.
         15    1    3    3    0    0 -0.18093826421E+03 -0.53654137824E+02 -0.77710014489E+02  0.20409867298E+03  0.00000000000E+00 0. -1.
        -16    1    3    3    0    0 -0.12116609933E+03  0.71614237783E+02  0.48062563320E+02  0.14872737701E+03  0.00000000000E+00 0.  1.
         16    1    1    2    0    0  0.35351013271E+03  0.32758801098E+02 -0.80996176089E+03  0.88435321399E+03  0.00000000000E+00 0. -1.
    9900018    1    3    3    0    0 -0.11212318976E+03  0.60658773844E+00  0.17564990602E+03  0.22746438295E+03  0.91187600000E+02 0.  0.
<mgrwt>
<rscale>  0 0.17098607E+04</rscale>
<asrwt>0</asrwt>
<pdfrwt beam="1">  1        1 0.16975276E+00 0.17098607E+04</pdfrwt>
<pdfrwt beam="2">  1       -1 0.10191026E+00 0.17098607E+04</pdfrwt>
<totfact> 0.10937493E+01</totfact>
</mgrwt>
</event>
<event>
11    1  0.9617585E-014  0.1115642E+04  0.7818608E-02  0.9190079E-01
         -1   -1    0    0    0  501 -0.00000000000E+00  0.00000000000E+00  0.16774080967E+03  0.16774080967E+03  0.00000000000E+00 0.  1.
          1   -1    0    0  501    0  0.00000000000E+00 -0.00000000000E+00 -0.18550295692E+04  0.18550295692E+04  0.00000000000E+00 0. -1.
    9900016    2    1    2    0    0  0.21821181717E+03  0.24228679389E+03 -0.12742319697E+04  0.14965240494E+04  0.71386121210E+03 0.  0.
         23    2    3    3    0    0  0.58261510634E+02  0.22091470973E+03 -0.69633191783E+03  0.74094656956E+03  0.10920607381E+03 0.  0.
        -15    1    4    4    0    0  0.26158833469E+02  0.21925772911E+02 -0.32282891001E+02  0.46980944409E+02  0.00000000000E+00 0.  1.
        -15    1    3    3    0    0  0.11238657044E+03  0.56566504099E+02 -0.19486550018E+03  0.23195489596E+03  0.00000000000E+00 0. -1.
         15    1    3    3    0    0  0.44960444284E+02 -0.47333206411E+02 -0.14290601033E+03  0.15711143105E+03  0.00000000000E+00 0.  1.
         15    1    4    4    0    0  0.32102677166E+02  0.19898893682E+03 -0.66404902683E+03  0.69396562515E+03  0.00000000000E+00 0. -1.
        -16    1    1    2    0    0 -0.21821181717E+03 -0.24228679389E+03 -0.41305678974E+03  0.52624632939E+03  0.00000000000E+00 0.  1.
         16    1    3    3    0    0 -0.11294181116E+03 -0.41352702548E+02 -0.10543218179E+03  0.15994325141E+03  0.00000000000E+00 0. -1.
    9900018    1    3    3    0    0  0.11554510297E+03  0.53491489021E+02 -0.13469635962E+03  0.20656790145E+03  0.91187600000E+02 0.  0.
<mgrwt>
<rscale>  0 0.11156418E+04</rscale>
<asrwt>0</asrwt>
<pdfrwt beam="1">  1        1 0.28538917E+00 0.11156418E+04</pdfrwt>
<pdfrwt beam="2">  1       -1 0.25806278E-01 0.11156418E+04</pdfrwt>
<totfact> 0.49426103E+01</totfact>
</mgrwt>
</event>
<event>
11    1  0.9617585E-014  0.1096115E+04  0.7818608E-02  0.9208987E-01
         -2   -1    0    0    0  501 -0.00000000000E+00  0.00000000000E+00  0.18364589898E+03  0.18364589898E+03  0.00000000000E+00 0.  1.
          2   -1    0    0  501    0  0.00000000000E+00 -0.00000000000E+00 -0.16355771060E+04  0.16355771060E+04  0.00000000000E+00 0. -1.
    9900016    2    1    2    0    0 -0.15164685115E+03  0.25020272226E+03 -0.12405145525E+04  0.14582587803E+04  0.70855073615E+03 0.  0.
         23    2    3    3    0    0  0.80090162846E+02  0.20612654459E+03 -0.24783184785E+03  0.33775614554E+03  0.61286233985E+02 0.  0.
        -15    1    4    4    0    0  0.63908640243E+02  0.84746915173E+02 -0.10042029896E+03  0.14611841216E+03  0.00000000000E+00 0.  1.
        -15    1    3    3    0    0 -0.11501516369E+03 -0.10815988358E+03 -0.42868682078E+03  0.45683633678E+03  0.00000000000E+00 0.  1.
         15    1    4    4    0    0  0.16181522603E+02  0.12137962942E+03 -0.14741154888E+03  0.19163773338E+03  0.00000000000E+00 0. -1.
         15    1    3    3    0    0 -0.29135682386E+02 -0.38256424206E+01 -0.95419644189E+02  0.99842035362E+02  0.00000000000E+00 0. -1.
        -16    1    3    3    0    0 -0.62314419980E+02  0.19926428377E+03 -0.33110934781E+03  0.39143676620E+03  0.00000000000E+00 0.  1.
         16    1    1    2    0    0  0.15164685115E+03 -0.25020272226E+03 -0.21141665451E+03  0.36096422468E+03  0.00000000000E+00 0. -1.
    9900018    1    3    3    0    0 -0.25271747939E+02 -0.43202580095E+02 -0.13746689192E+03  0.17238749646E+03  0.91187600000E+02 0.  0.
<mgrwt>
<rscale>  0 0.10961150E+04</rscale>
<asrwt>0</asrwt>
<pdfrwt beam="1">  1        2 0.25162724E+00 0.10961150E+04</pdfrwt>
<pdfrwt beam="2">  1       -2 0.28253216E-01 0.10961150E+04</pdfrwt>
<totfact> 0.12124343E+02</totfact>
</mgrwt>
</event>
<event>
11    1  0.9617585E-014  0.8946001E+03  0.7818608E-02  0.9432357E-01
          1   -1    0    0  501    0  0.00000000000E+00  0.00000000000E+00  0.12953205747E+04  0.12953205747E+04  0.00000000000E+00 0. -1.
         -1   -1    0    0    0  501 -0.00000000000E+00 -0.00000000000E+00 -0.15446164958E+03  0.15446164958E+03  0.00000000000E+00 0.  1.
    9900016    2    1    2    0    0 -0.66292385364E+02  0.80162504645E+02  0.11428390291E+04  0.13457407502E+04  0.70293414555E+03 0.  0.
         23    2    3    3    0    0 -0.13738416194E+03 -0.47667191764E+02  0.24919794404E+03  0.30692838031E+03  0.10468450795E+03 0.  0.
        -15    1    4    4    0    0 -0.15412515010E+03 -0.48560326726E+02  0.23348906910E+03  0.28395389170E+03  0.00000000000E+00 0.  1.
        -15    1    3    3    0    0  0.48406934201E+02 -0.13590282661E+02  0.33268178576E+01  0.50388438938E+02  0.00000000000E+00 0.  1.
         15    1    3    3    0    0  0.64927983960E+02  0.62679974167E+02  0.66196954197E+02  0.11192166460E+03  0.00000000000E+00 0. -1.
         15    1    4    4    0    0  0.16740988165E+02  0.89313496243E+00  0.15708874941E+02  0.22974488606E+02  0.00000000000E+00 0. -1.
        -16    1    1    2    0    0  0.66292385364E+02 -0.80162504645E+02 -0.19801039527E+01  0.10404147404E+03  0.00000000000E+00 0.  1.
         16    1    3    3    0    0 -0.86872061831E+02  0.49416193534E+02  0.72422330603E+03  0.73108693895E+03  0.00000000000E+00 0. -1.
    9900018    1    3    3    0    0  0.44628920244E+02  0.29323811368E+02  0.99894006949E+02  0.14541532744E+03  0.91187600000E+02 0.  0.
<mgrwt>
<rscale>  0 0.89460014E+03</rscale>
<asrwt>0</asrwt>
<pdfrwt beam="1">  1        1 0.19928008E+00 0.89460014E+03</pdfrwt>
<pdfrwt beam="2">  1       -1 0.23763332E-01 0.89460014E+03</pdfrwt>
<totfact> 0.14030395E+02</totfact>
</mgrwt>
</event>
<event>
10    1  0.9617585E-014  0.8159875E+03  0.7818608E-02  0.9537160E-01
         -1   -1    0    0    0  501 -0.00000000000E+00  0.00000000000E+00  0.14643479599E+03  0.14643479599E+03  0.00000000000E+00 0.  1.
          1   -1    0    0  501    0  0.00000000000E+00 -0.00000000000E+00 -0.11367441061E+04  0.11367441061E+04  0.00000000000E+00 0. -1.
    9900016    2    1    2    0    0  0.35402909257E+02 -0.76687032728E+02 -0.94748035186E+03  0.11884762800E+04  0.71247637430E+03 0.  0.
        -15    1    3    3    0    0 -0.53325350283E+02 -0.86156446548E+01 -0.14463790939E+03  0.15439542463E+03  0.00000000000E+00 0.  1.
        -15    1    3    3    0    0 -0.11984337225E+01 -0.11224044586E+02  0.13686041732E+02  0.17740438511E+02  0.00000000000E+00 0.  1.
         15    1    3    3    0    0  0.33000328481E+02  0.22125984282E+02  0.17151212198E+01  0.39768360553E+02  0.00000000000E+00 0. -1.
         15    1    3    3    0    0  0.11433516588E+03 -0.17341104206E+03 -0.12918984152E+03  0.24460976027E+03  0.00000000000E+00 0. -1.
        -16    1    3    3    0    0 -0.70047161413E+02  0.12483569760E+03 -0.49120311372E+03  0.51163566641E+03  0.00000000000E+00 0.  1.
         16    1    1    2    0    0 -0.35402909257E+02  0.76687032728E+02 -0.42828958290E+02  0.94702622142E+02  0.00000000000E+00 0. -1.
    9900018    1    3    3    0    0  0.12638360310E+02 -0.30397983315E+02 -0.19785065018E+03  0.22032662960E+03  0.91187600000E+02 0.  0.
<mgrwt>
<rscale>  0 0.81598748E+03</rscale>
<asrwt>0</asrwt>
<pdfrwt beam="1">  1        1 0.17488371E+00 0.81598748E+03</pdfrwt>
<pdfrwt beam="2">  1       -1 0.22528430E-01 0.81598748E+03</pdfrwt>
<totfact> 0.20108674E+02</totfact>
</mgrwt>
</event>
<event>
11    1  0.9617585E-014  0.8809547E+03  0.7818608E-02  0.9449707E-01
          2   -1    0    0  501    0  0.00000000000E+00  0.00000000000E+00  0.22837345519E+04  0.22837345519E+04  0.00000000000E+00 0.  1.
         -2   -1    0    0    0  501 -0.00000000000E+00 -0.00000000000E+00 -0.84957470632E+02  0.84957470632E+02  0.00000000000E+00 0. -1.
    9900016    2    1    2    0    0  0.14709066901E+03  0.54570732047E+01  0.19134855480E+04  0.20476675632E+04  0.71403785772E+03 0.  0.
         23    2    3    3    0    0 -0.42720831664E+02  0.10534630950E+02  0.90389913357E+02  0.15605958851E+03  0.11936586958E+03 0.  0.
        -15    1    3    3    0    0  0.32111547130E+02 -0.51788044662E+01  0.88338366294E+01  0.33704719913E+02  0.00000000000E+00 0. -1.
        -15    1    4    4    0    0 -0.73189616699E+02 -0.12883620709E+02  0.21814069618E+02  0.77450379653E+02  0.00000000000E+00 0.  1.
         15    1    4    4    0    0  0.30468785035E+02  0.23418251659E+02  0.68575843739E+02  0.78609208855E+02  0.00000000000E+00 0.  1.
         15    1    3    3    0    0  0.18740367498E+03  0.39616727036E+02  0.69004518778E+03  0.71613684700E+03  0.00000000000E+00 0. -1.
        -16    1    3    3    0    0  0.29446836692E+02  0.50060263659E+02  0.29290039134E+03  0.29860305664E+03  0.00000000000E+00 0.  1.
         16    1    1    2    0    0 -0.14709066901E+03 -0.54570732047E+01  0.28529153323E+03  0.32102445933E+03  0.00000000000E+00 0. -1.
    9900018    1    3    3    0    0 -0.59150558133E+02 -0.89575743975E+02  0.83131621890E+03  0.84316335110E+03  0.91187600000E+02 0.  0.
<mgrwt>
<rscale>  0 0.88095473E+03</rscale>
<asrwt>0</asrwt>
<pdfrwt beam="1">  1        2 0.35134373E+00 0.88095473E+03</pdfrwt>
<pdfrwt beam="2">  1       -2 0.13070382E-01 0.88095473E+03</pdfrwt>
<totfact> 0.20848864E+02</totfact>
</mgrwt>
</event>
<event>
11    1  0.9617585E-014  0.1315897E+04  0.7818608E-02  0.9017053E-01
         -4   -1    0    0    0  501 -0.00000000000E+00  0.00000000000E+00  0.69183969818E+03  0.69183969818E+03  0.00000000000E+00 0.  1.
          4   -1    0    0  501    0  0.00000000000E+00 -0.00000000000E+00 -0.62571709840E+03  0.62571709840E+03  0.00000000000E+00 0. -1.
    9900016    2    1    2    0    0  0.37633382119E+03  0.23087734962E+03 -0.10437631239E+03  0.84426896177E+03  0.71201416396E+03 0.  0.
         23    2    3    3    0    0  0.62996515926E+02  0.66053018916E+02  0.39459002707E+02  0.12385176981E+03  0.73828759058E+02 0.  0.
        -15    1    3    3    0    0  0.25417296607E+02  0.17250037435E+02  0.35614746296E+02  0.47032041334E+02  0.00000000000E+00 0.  1.
        -15    1    4    4    0    0  0.39223336100E+02  0.69167695404E+01 -0.12367004298E+02  0.41704371366E+02  0.00000000000E+00 0.  1.
         15    1    4    4    0    0  0.23773179825E+02  0.59136249376E+02  0.51826007005E+02  0.82147398445E+02  0.00000000000E+00 0. -1.
         15    1    3    3    0    0  0.38717598210E+02  0.71162710486E+01  0.66933906393E+02  0.77652054382E+02  0.00000000000E+00 0. -1.
        -16    1    1    2    0    0 -0.37633382119E+03 -0.23087734962E+03  0.17049891217E+03  0.47328783482E+03  0.00000000000E+00 0.  1.
         16    1    3    3    0    0  0.31800539871E+03 -0.91411126113E+01 -0.25438687063E+03  0.40733729696E+03  0.00000000000E+00 0. -1.
    9900018    1    3    3    0    0 -0.68802988267E+02  0.14959913483E+03  0.80029028356E+01  0.18839579928E+03  0.91187600000E+02 0.  0.
<mgrwt>
<rscale>  0 0.13158965E+04</rscale>
<asrwt>0</asrwt>
<pdfrwt beam="1">  1        4 0.96264169E-01 0.13158965E+04</pdfrwt>
<pdfrwt beam="2">  1       -4 0.10643688E+00 0.13158965E+04</pdfrwt>
<totfact> 0.12553747E+00</totfact>
</mgrwt>
</event>
<event>
11    1  0.9617585E-014  0.1219044E+04  0.7818608E-02  0.9096349E-01
          2   -1    0    0  501    0  0.00000000000E+00  0.00000000000E+00  0.48545889616E+03  0.48545889616E+03  0.00000000000E+00 0. -1.
         -2   -1    0    0    0  501 -0.00000000000E+00 -0.00000000000E+00 -0.76529029143E+03  0.76529029143E+03  0.00000000000E+00 0.  1.
    9900016    2    1    2    0    0 -0.26144015621E+03  0.77307125549E+02  0.10949598423E+03  0.77545648266E+03  0.71764617953E+03 0.  0.
         23    2    3    3    0    0 -0.31721559581E+02 -0.77801168516E+02  0.91386071072E+02  0.14058435241E+03  0.65979292149E+02 0.  0.
        -15    1    4    4    0    0 -0.26593784673E+02 -0.10502918779E+02  0.59340379024E+02  0.65869729533E+02  0.00000000000E+00 0.  1.
        -15    1    3    3    0    0  0.41880731616E+02 -0.92548518851E+02  0.67508831136E+02  0.12196994016E+03  0.00000000000E+00 0. -1.
         15    1    3    3    0    0 -0.14164118523E+02  0.10995470356E+03 -0.35672504536E+02  0.11646109508E+03  0.00000000000E+00 0. -1.
         15    1    4    4    0    0 -0.51277749084E+01 -0.67298249736E+02  0.32045692048E+02  0.74714622879E+02  0.00000000000E+00 0.  1.
        -16    1    1    2    0    0  0.26144015621E+03 -0.77307125549E+02 -0.38932737950E+03  0.47529270494E+03  0.00000000000E+00 0.  1.
         16    1    3    3    0    0 -0.27456709979E+03  0.12004479043E+03 -0.27802003700E+02  0.30094982208E+03  0.00000000000E+00 0. -1.
    9900018    1    3    3    0    0  0.17131890073E+02  0.17657318929E+02  0.14075590257E+02  0.95491272921E+02  0.91187600000E+02 0.  0.
<mgrwt>
<rscale>  0 0.12190439E+04</rscale>
<asrwt>0</asrwt>
<pdfrwt beam="1">  1        2 0.74685984E-01 0.12190439E+04</pdfrwt>
<pdfrwt beam="2">  1       -2 0.11773697E+00 0.12190439E+04</pdfrwt>
<totfact> 0.34950817E+01</totfact>
</mgrwt>
</event>
<event>
11    1  0.9617586E-014  0.1352962E+04  0.7818608E-02  0.8988589E-01
         -2   -1    0    0    0  501 -0.00000000000E+00  0.00000000000E+00  0.59980292825E+03  0.59980292825E+03  0.00000000000E+00 0.  1.
          2   -1    0    0  501    0  0.00000000000E+00 -0.00000000000E+00 -0.76296177847E+03  0.76296177847E+03  0.00000000000E+00 0. -1.
    9900016    2    1    2    0    0  0.31062297012E+03  0.18814392738E+03 -0.44969644120E+03  0.90017573363E+03  0.69007586193E+03 0.  0.
         23    2    3    3    0    0 -0.78481116231E+02  0.18084307308E+03 -0.15733958493E+03  0.25906382914E+03  0.59117001759E+02 0.  0.
        -15    1    4    4    0    0 -0.76596112659E+02  0.10569577530E+03 -0.95767565759E+02  0.16189499079E+03  0.00000000000E+00 0.  1.
        -15    1    3    3    0    0 -0.46099419239E+02 -0.16940138227E+02 -0.20446423536E+02  0.53199445230E+02  0.00000000000E+00 0. -1.
         15    1    3    3    0    0  0.13114876320E+02 -0.40153682732E+01 -0.30734276330E+02  0.33655889600E+02  0.00000000000E+00 0. -1.
         15    1    4    4    0    0 -0.18850035719E+01  0.75147297775E+02 -0.61572019172E+02  0.97168838350E+02  0.00000000000E+00 0.  1.
        -16    1    1    2    0    0 -0.31062297012E+03 -0.18814392738E+03  0.28653759098E+03  0.46258897308E+03  0.00000000000E+00 0.  1.
         16    1    3    3    0    0  0.37583046157E+03  0.15255591000E+02 -0.11922841252E+03  0.39458419032E+03  0.00000000000E+00 0. -1.
    9900018    1    3    3    0    0  0.46258167700E+02  0.13000769806E+02 -0.12194774388E+03  0.15967237934E+03  0.91187600000E+02 0.  0.
<mgrwt>
<rscale>  0 0.13529622E+04</rscale>
<asrwt>0</asrwt>
<pdfrwt beam="1">  1        2 0.11737873E+00 0.13529622E+04</pdfrwt>
<pdfrwt beam="2">  1       -2 0.92277374E-01 0.13529622E+04</pdfrwt>
<totfact> 0.35730138E+01</totfact>
</mgrwt>
</event>
<event>
10    1  0.9617585E-014  0.9430382E+03  0.7818608E-02  0.9373325E-01
         -2   -1    0    0    0  501 -0.00000000000E+00  0.00000000000E+00  0.40466927867E+03  0.40466927867E+03  0.00000000000E+00 0.  1.
          2   -1    0    0  501    0  0.00000000000E+00 -0.00000000000E+00 -0.54941220499E+03  0.54941220499E+03  0.00000000000E+00 0. -1.
    9900016    2    1    2    0    0 -0.13423058969E+03 -0.32244226155E+02  0.42252189332E+02  0.72164931160E+03  0.70706077539E+03 0.  0.
        -15    1    3    3    0    0 -0.29183882904E+02  0.29144019315E+01  0.12737896931E+03  0.13071187622E+03  0.00000000000E+00 0. -1.
        -15    1    3    3    0    0 -0.60593402064E+02  0.10754108571E+03 -0.10474825365E+03  0.16189145170E+03  0.00000000000E+00 0. -1.
         15    1    3    3    0    0  0.14921292174E+02  0.92066065596E+01  0.23741620628E+02  0.29513913914E+02  0.00000000000E+00 0.  1.
         15    1    3    3    0    0 -0.11784067320E+03  0.14670952233E+02  0.51335599056E+02  0.12937157659E+03  0.00000000000E+00 0.  1.
        -16    1    1    2    0    0  0.13423058969E+03  0.32244226155E+02 -0.18699511565E+03  0.23243217206E+03  0.00000000000E+00 0.  1.
         16    1    3    3    0    0  0.76243780135E+01 -0.14291828063E+03  0.12009474805E+02  0.14362448804E+03  0.00000000000E+00 0. -1.
    9900018    1    3    3    0    0  0.50841698289E+02 -0.23658991956E+02 -0.67465220818E+02  0.12653600515E+03  0.91187600000E+02 0.  0.
<mgrwt>
<rscale>  0 0.94303816E+03</rscale>
<asrwt>0</asrwt>
<pdfrwt beam="1">  1        2 0.84524955E-01 0.94303816E+03</pdfrwt>
<pdfrwt beam="2">  1       -2 0.62256812E-01 0.94303816E+03</pdfrwt>
<totfact> 0.13224447E+02</totfact>
</mgrwt>
</event>
<event>
11    1  0.9617585E-014  0.9988505E+03  0.7818608E-02  0.9309806E-01
          2   -1    0    0  501    0  0.00000000000E+00  0.00000000000E+00  0.14634142709E+04  0.14634142709E+04  0.00000000000E+00 0. -1.
         -2   -1    0    0    0  501 -0.00000000000E+00 -0.00000000000E+00 -0.17044085914E+03  0.17044085914E+03  0.00000000000E+00 0.  1.
    9900016    2    1    2    0    0 -0.58676534065E+01  0.18620952655E+03  0.81864807017E+03  0.11242543581E+04  0.74769966008E+03 0.  0.
         23    2    3    3    0    0 -0.13144403407E+03  0.16748182139E+03  0.31365278966E+02  0.22404453556E+03  0.62325585470E+02 0.  0.
        -15    1    4    4    0    0 -0.45986885524E+02  0.87497864452E+02 -0.11238528119E+02  0.99483538529E+02  0.00000000000E+00 0.  1.
        -15    1    3    3    0    0 -0.32514931586E+02  0.97002583839E+02  0.18894524780E+03  0.21486514076E+03  0.00000000000E+00 0.  1.
         15    1    4    4    0    0 -0.85457148543E+02  0.79983956935E+02  0.42603807085E+02  0.12456099703E+03  0.00000000000E+00 0. -1.
         15    1    3    3    0    0  0.17136556117E+03 -0.53060204002E+02  0.19387639641E+03  0.26413935316E+03  0.00000000000E+00 0. -1.
        -16    1    3    3    0    0  0.63257560797E+01  0.53368893948E+01  0.12006739370E+03  0.12035230205E+03  0.00000000000E+00 0.  1.
         16    1    1    2    0    0  0.58676534065E+01 -0.18620952655E+03  0.47432534163E+03  0.50960077203E+03  0.00000000000E+00 0. -1.
    9900018    1    3    3    0    0 -0.19600005000E+02 -0.30551564071E+02  0.28439375329E+03  0.30085302652E+03  0.91187600000E+02 0.  0.
<mgrwt>
<rscale>  0 0.99885051E+03</rscale>
<asrwt>0</asrwt>
<pdfrwt beam="1">  1        2 0.22514065E+00 0.99885051E+03</pdfrwt>
<pdfrwt beam="2">  1       -2 0.26221672E-01 0.99885051E+03</pdfrwt>
<totfact> 0.17465749E+02</totfact>
</mgrwt>
</event>
<event>
11    1  0.9617585E-014  0.8898589E+03  0.7818608E-02  0.9438348E-01
         -1   -1    0    0    0  501 -0.00000000000E+00  0.00000000000E+00  0.48033749836E+03  0.48033749836E+03  0.00000000000E+00 0.  1.
          1   -1    0    0  501    0  0.00000000000E+00 -0.00000000000E+00 -0.41213147637E+03  0.41213147637E+03  0.00000000000E+00 0. -1.
    9900016    2    1    2    0    0  0.14931647934E+02  0.15518195367E+03  0.48459102252E+01  0.72418678133E+03  0.70719065220E+03 0.  0.
         23    2    3    3    0    0 -0.34527652496E+02  0.22464741829E+03  0.86774847380E+02  0.26659246673E+03  0.10900939340E+03 0.  0.
        -15    1    3    3    0    0  0.76986530391E+01  0.34493108582E+02 -0.63764646603E+02  0.72903867899E+02  0.00000000000E+00 0. -1.
        -15    1    4    4    0    0  0.34048378444E+02  0.12838581301E+03  0.33702746300E+02  0.13703314988E+03  0.00000000000E+00 0. -1.
         15    1    4    4    0    0 -0.68576030940E+02  0.96261605279E+02  0.53072101080E+02  0.12955931685E+03  0.00000000000E+00 0.  1.
         15    1    3    3    0    0 -0.86706290896E+02  0.71789645780E+02 -0.33586034225E+02  0.11747236193E+03  0.00000000000E+00 0.  1.
        -16    1    3    3    0    0  0.96323512439E+02 -0.51743452458E+02  0.14017342409E+01  0.10935066886E+03  0.00000000000E+00 0.  1.
         16    1    1    2    0    0 -0.14931647934E+02 -0.15518195367E+03  0.63360111767E+02  0.16828219340E+03  0.00000000000E+00 0. -1.
    9900018    1    3    3    0    0  0.32143425849E+02 -0.12400476653E+03  0.14020009432E+02  0.15786741591E+03  0.91187600000E+02 0.  0.
<mgrwt>
<rscale>  0 0.88985887E+03</rscale>
<asrwt>0</asrwt>
<pdfrwt beam="1">  1        1 0.63404843E-01 0.88985887E+03</pdfrwt>
<pdfrwt beam="2">  1       -1 0.73898077E-01 0.88985887E+03</pdfrwt>
<totfact> 0.10725490E+02</totfact>
</mgrwt>
</event>
<event>
11    1  0.9617585E-014  0.1469188E+04  0.7818608E-02  0.8905205E-01
          1   -1    0    0  501    0  0.00000000000E+00  0.00000000000E+00  0.18862827510E+04  0.18862827510E+04  0.00000000000E+00 0. -1.
         -1   -1    0    0    0  501 -0.00000000000E+00 -0.00000000000E+00 -0.28608040531E+03  0.28608040531E+03  0.00000000000E+00 0.  1.
    9900016    2    1    2    0    0  0.39914576936E+02  0.43185180868E+03  0.15010565676E+04  0.17274822246E+04  0.73684113555E+03 0.  0.
         23    2    3    3    0    0  0.66971292875E+02  0.73379161031E+02  0.23519932124E+02  0.12066108859E+03  0.64313729092E+02 0.  0.
        -15    1    4    4    0    0  0.68517291992E+02  0.55542581248E+02 -0.34731088749E+01  0.88270380756E+02  0.00000000000E+00 0.  1.
        -15    1    3    3    0    0  0.11244768064E+03 -0.44422117217E+02  0.37342218879E+03  0.39250724383E+03  0.00000000000E+00 0. -1.
         15    1    4    4    0    0 -0.15459991163E+01  0.17836579784E+02  0.26993040999E+02  0.32390707835E+02  0.00000000000E+00 0.  1.
         15    1    3    3    0    0 -0.98842098410E+02  0.78074270668E+02  0.19149664142E+03  0.22920801870E+03  0.00000000000E+00 0. -1.
        -16    1    1    2    0    0 -0.39914576936E+02 -0.43185180868E+03  0.99145778138E+02  0.44488093175E+03  0.00000000000E+00 0.  1.
         16    1    3    3    0    0 -0.66959056161E+02  0.14537756726E+03  0.30451800357E+03  0.34401942788E+03  0.00000000000E+00 0. -1.
    9900018    1    3    3    0    0  0.26296757994E+02  0.17944292694E+03  0.60809980165E+03  0.64108644555E+03  0.91187600000E+02 0.  0.
<mgrwt>
<rscale>  0 0.14691883E+04</rscale>
<asrwt>0</asrwt>
<pdfrwt beam="1">  1        1 0.29019734E+00 0.14691883E+04</pdfrwt>
<pdfrwt beam="2">  1       -1 0.44012371E-01 0.14691883E+04</pdfrwt>
<totfact> 0.17628004E+01</totfact>
</mgrwt>
</event>
<event>
11    1  0.9617585E-014  0.9549149E+03  0.7818608E-02  0.9359424E-01
          2   -1    0    0  501    0  0.00000000000E+00  0.00000000000E+00  0.26799775283E+04  0.26799775283E+04  0.00000000000E+00 0. -1.
         -2   -1    0    0    0  501 -0.00000000000E+00 -0.00000000000E+00 -0.85062519126E+02  0.85062519126E+02  0.00000000000E+00 0.  1.
    9900016    2    1    2    0    0 -0.49310541639E+02 -0.21900617265E+03  0.20985353437E+04  0.22202575170E+04  0.68941831989E+03 0.  0.
         23    2    3    3    0    0  0.21156839833E+02 -0.91214281663E+02  0.34780211272E+03  0.36694356581E+03  0.70097174195E+02 0.  0.
        -15    1    3    3    0    0  0.31509349350E+02  0.69789607612E+02  0.20166058289E+03  0.21570910764E+03  0.00000000000E+00 0. -1.
        -15    1    4    4    0    0  0.32995939476E+02 -0.71678469631E+02  0.32582860862E+03  0.33524739705E+03  0.00000000000E+00 0.  1.
         15    1    4    4    0    0 -0.11839099644E+02 -0.19535812032E+02  0.21973504091E+02  0.31696168762E+02  0.00000000000E+00 0.  1.
         15    1    3    3    0    0 -0.23443294820E+02 -0.18474078016E+03  0.92040142103E+03  0.93905139357E+03  0.00000000000E+00 0. -1.
        -16    1    1    2    0    0  0.49310541639E+02  0.21900617265E+03  0.49637966547E+03  0.54478253044E+03  0.00000000000E+00 0.  1.
         16    1    3    3    0    0 -0.41439646807E+02 -0.10898558600E+03  0.10434164059E+03  0.15646814450E+03  0.00000000000E+00 0. -1.
    9900018    1    3    3    0    0 -0.37093789195E+02  0.96144867557E+02  0.52432958649E+03  0.54208530548E+03  0.91187600000E+02 0.  0.
<mgrwt>
<rscale>  0 0.95491495E+03</rscale>
<asrwt>0</asrwt>
<pdfrwt beam="1">  1        2 0.41230417E+00 0.95491495E+03</pdfrwt>
<pdfrwt beam="2">  1       -2 0.13086543E-01 0.95491495E+03</pdfrwt>
<totfact> 0.12292403E+02</totfact>
</mgrwt>
</event>
<event>
10    1  0.1186132E-013  0.1298598E+04  0.7818608E-02  0.9030678E-01
          3   -1    0    0  501    0  0.00000000000E+00  0.00000000000E+00  0.69690810045E+03  0.69690810045E+03  0.00000000000E+00 0. -1.
         -3   -1    0    0    0  501 -0.00000000000E+00 -0.00000000000E+00 -0.60494215726E+03  0.60494215726E+03  0.00000000000E+00 0.  1.
    9900016    2    1    2    0    0 -0.81081922797E+02  0.39493938735E+03 -0.14969534237E+03  0.83179539408E+03  0.71198559269E+03 0.  0.
        -15    1    3    3    0    0  0.32530910258E+02  0.12249354391E+02 -0.10720344376E+02  0.36376264085E+02  0.00000000000E+00 0.  1.
        -15    1    3    3    0    0 -0.72676911201E+01 -0.26936525368E+02  0.18194335712E+02  0.33308100893E+02  0.00000000000E+00 0.  1.
         15    1    3    3    0    0  0.45672057173E+02  0.11588332012E+01 -0.68007909738E+02  0.81928966109E+02  0.00000000000E+00 0. -1.
         15    1    3    3    0    0  0.20510387240E+02 -0.15356331838E+02  0.44246975503E+02  0.51130106135E+02  0.00000000000E+00 0. -1.
        -16    1    1    2    0    0  0.81081922797E+02 -0.39493938735E+03  0.24166128556E+03  0.47005486363E+03  0.00000000000E+00 0.  1.
         16    1    3    3    0    0 -0.16033394446E+03  0.47228448419E+03 -0.15611434594E+03  0.52261964828E+03  0.00000000000E+00 0. -1.
    9900018    1    3    3    0    0 -0.12193641889E+02 -0.48460427230E+02  0.22705946477E+02  0.10643230858E+03  0.91187600000E+02 0.  0.
<mgrwt>
<rscale>  0 0.12985978E+04</rscale>
<asrwt>0</asrwt>
<pdfrwt beam="1">  1        3 0.10721663E+00 0.12985978E+04</pdfrwt>
<pdfrwt beam="2">  1       -3 0.93068024E-01 0.12985978E+04</pdfrwt>
<totfact> 0.19687093E+00</totfact>
</mgrwt>
</event>
<event>
11    1  0.9617585E-014  0.9645368E+03  0.7818608E-02  0.9348319E-01
         -4   -1    0    0    0  501 -0.00000000000E+00  0.00000000000E+00  0.32636567432E+03  0.32636567432E+03  0.00000000000E+00 0.  1.
          4   -1    0    0  501    0  0.00000000000E+00 -0.00000000000E+00 -0.71264483363E+03  0.71264483363E+03  0.00000000000E+00 0. -1.
    9900016    2    1    2    0    0  0.20761888087E+03  0.76976588711E+02 -0.29489047870E+03  0.79946325615E+03  0.70933074698E+03 0.  0.
         23    2    3    3    0    0 -0.77984191400E+02  0.11847218366E+03 -0.80534884241E+02  0.19823246872E+03  0.11266344423E+03 0.  0.
        -15    1    3    3    0    0 -0.11119404284E+02  0.38043902383E+02 -0.62252879625E+02  0.73799733615E+02  0.00000000000E+00 0. -1.
        -15    1    4    4    0    0  0.18295338218E+02  0.54135092461E+02 -0.55706907861E+02  0.79803428622E+02  0.00000000000E+00 0. -1.
         15    1    3    3    0    0 -0.10462675126E+02 -0.28491129644E+02  0.50145130236E+02  0.58615237998E+02  0.00000000000E+00 0.  1.
         15    1    4    4    0    0 -0.96279529618E+02  0.64337091201E+02 -0.24827976380E+02  0.11842904010E+03  0.00000000000E+00 0.  1.
        -16    1    3    3    0    0  0.15128856422E+03 -0.91945075749E+02 -0.22045754646E+03  0.28274309259E+03  0.00000000000E+00 0.  1.
         16    1    1    2    0    0 -0.20761888087E+03 -0.76976588711E+02 -0.91388680607E+02  0.23954725180E+03  0.00000000000E+00 0. -1.
    9900018    1    3    3    0    0  0.15589658746E+03  0.40896708058E+02  0.18209701383E+02  0.18607272323E+03  0.91187600000E+02 0.  0.
<mgrwt>
<rscale>  0 0.96453680E+03</rscale>
<asrwt>0</asrwt>
<pdfrwt beam="1">  1        4 0.10963767E+00 0.96453680E+03</pdfrwt>
<pdfrwt beam="2">  1       -4 0.50210103E-01 0.96453680E+03</pdfrwt>
<totfact> 0.50220435E+00</totfact>
</mgrwt>
</event>
<event>
11    1  0.9617585E-014  0.8186125E+03  0.7818608E-02  0.9533460E-01
         -1   -1    0    0    0  501 -0.00000000000E+00  0.00000000000E+00  0.13039005336E+03  0.13039005336E+03  0.00000000000E+00 0.  1.
          1   -1    0    0  501    0  0.00000000000E+00 -0.00000000000E+00 -0.12848494654E+04  0.12848494654E+04  0.00000000000E+00 0. -1.
    9900016    2    1    2    0    0  0.85387664439E+02 -0.28410091749E+02 -0.11217492346E+04  0.13194891022E+04  0.68893538097E+03 0.  0.
         23    2    3    3    0    0  0.56933587663E+02 -0.13996925620E+03 -0.23161664726E+03  0.28595144867E+03  0.72726430013E+02 0.  0.
        -15    1    4    4    0    0 -0.16326025086E+02 -0.41358971994E+02 -0.53231918775E+02  0.69359504294E+02  0.00000000000E+00 0. -1.
        -15    1    3    3    0    0  0.24808802263E+01 -0.12403604731E+02  0.50578251507E+01  0.13622986908E+02  0.00000000000E+00 0.  1.
         15    1    4    4    0    0  0.73259612748E+02 -0.98610284207E+02 -0.17838472848E+03  0.21659194437E+03  0.00000000000E+00 0.  1.
         15    1    3    3    0    0  0.62686938699E+02 -0.17702802014E+02 -0.35905216815E+03  0.36491300462E+03  0.00000000000E+00 0. -1.
        -16    1    1    2    0    0 -0.85387664439E+02  0.28410091749E+02 -0.32710177477E+02  0.95750416511E+02  0.00000000000E+00 0.  1.
         16    1    3    3    0    0  0.54812233800E+02  0.21881229287E+03 -0.31047771742E+03  0.38377026135E+03  0.00000000000E+00 0. -1.
    9900018    1    3    3    0    0 -0.91525975949E+02 -0.77146721672E+02 -0.22566052687E+03  0.27123140069E+03  0.91187600000E+02 0.  0.
<mgrwt>
<rscale>  0 0.81861246E+03</rscale>
<asrwt>0</asrwt>
<pdfrwt beam="1">  1        1 0.19766915E+00 0.81861246E+03</pdfrwt>
<pdfrwt beam="2">  1       -1 0.20060008E-01 0.81861246E+03</pdfrwt>
<totfact> 0.19084702E+02</totfact>
</mgrwt>
</event>
<event>
11    1  0.9617585E-014  0.7751226E+03  0.7818608E-02  0.9596741E-01
         -2   -1    0    0    0  501 -0.00000000000E+00  0.00000000000E+00  0.82951460633E+02  0.82951460633E+02  0.00000000000E+00 0. -1.
          2   -1    0    0  501    0  0.00000000000E+00 -0.00000000000E+00 -0.18107429348E+04  0.18107429348E+04  0.00000000000E+00 0.  1.
    9900016    2    1    2    0    0 -0.50475672965E+02  0.29055107831E+02 -0.15102109743E+04  0.16684539311E+04  0.70683048919E+03 0.  0.
         23    2    3    3    0    0 -0.75355284449E+02  0.90138360094E+02 -0.27301049412E+03  0.30485591953E+03  0.67816361715E+02 0.  0.
        -15    1    3    3    0    0 -0.31288486304E+02 -0.13276800596E+02 -0.33576663448E+02  0.47776931019E+02  0.00000000000E+00 0.  1.
        -15    1    4    4    0    0 -0.75815648471E+02  0.40516079872E+02 -0.16838768287E+03  0.18906077600E+03  0.00000000000E+00 0. -1.
         15    1    4    4    0    0  0.46036402143E+00  0.49622280223E+02 -0.10462281126E+03  0.11579514353E+03  0.00000000000E+00 0.  1.
         15    1    3    3    0    0  0.66699230160E+02 -0.90534007648E+01 -0.76237900571E+02  0.10170038767E+03  0.00000000000E+00 0. -1.
        -16    1    3    3    0    0  0.13694279981E+02 -0.10753797534E+03 -0.10842336391E+04  0.10896396347E+04  0.00000000000E+00 0.  1.
         16    1    1    2    0    0  0.50475672965E+02 -0.29055107831E+02 -0.21758049980E+03  0.22524046427E+03  0.00000000000E+00 0. -1.
    9900018    1    3    3    0    0 -0.24225412352E+02  0.68784924433E+02 -0.43152277110E+02  0.12448105818E+03  0.91187600000E+02 0.  0.
<mgrwt>
<rscale>  0 0.77512263E+03</rscale>
<asrwt>0</asrwt>
<pdfrwt beam="1">  1        2 0.27857585E+00 0.77512263E+03</pdfrwt>
<pdfrwt beam="2">  1       -2 0.12761762E-01 0.77512263E+03</pdfrwt>
<totfact> 0.39785816E+02</totfact>
</mgrwt>
</event>
<event>
11    1  0.9617585E-014  0.9545749E+03  0.7818608E-02  0.9359819E-01
         -1   -1    0    0    0  501 -0.00000000000E+00  0.00000000000E+00  0.35170948057E+03  0.35170948057E+03  0.00000000000E+00 0.  1.
          1   -1    0    0  501    0  0.00000000000E+00 -0.00000000000E+00 -0.64770312581E+03  0.64770312581E+03  0.00000000000E+00 0. -1.
    9900016    2    1    2    0    0 -0.20806776483E+03 -0.28726408045E+02 -0.26427470918E+03  0.78698969757E+03  0.71091086705E+03 0.  0.
         23    2    3    3    0    0 -0.38041903921E+01 -0.13928748865E+03 -0.13561643178E+03  0.23157711075E+03  0.12578022618E+03 0.  0.
        -15    1    4    4    0    0  0.56753915776E+02 -0.76835549670E+02 -0.97836747260E+02  0.13673601487E+03  0.00000000000E+00 0.  1.
        -15    1    3    3    0    0 -0.69155330298E+02  0.34865280722E+02 -0.96373133026E+02  0.12363586971E+03  0.00000000000E+00 0.  1.
         15    1    4    4    0    0 -0.60558106168E+02 -0.62451938984E+02 -0.37779684517E+02  0.94841095880E+02  0.00000000000E+00 0. -1.
         15    1    3    3    0    0 -0.16551021704E+01  0.16506589468E+02  0.20519176860E+02  0.26386426020E+02  0.00000000000E+00 0. -1.
        -16    1    1    2    0    0  0.20806776483E+03  0.28726408045E+02 -0.31718936049E+02  0.21242290881E+03  0.00000000000E+00 0.  1.
         16    1    3    3    0    0  0.12039315287E+02 -0.85655348442E+02  0.10112507820E+03  0.13307165465E+03  0.00000000000E+00 0. -1.
    9900018    1    3    3    0    0 -0.14549245726E+03  0.14484455886E+03 -0.15392939944E+03  0.27231863645E+03  0.91187600000E+02 0.  0.
<mgrwt>
<rscale>  0 0.95457494E+03</rscale>
<asrwt>0</asrwt>
<pdfrwt beam="1">  1        1 0.99646635E-01 0.95457494E+03</pdfrwt>
<pdfrwt beam="2">  1       -1 0.54109151E-01 0.95457494E+03</pdfrwt>
<totfact> 0.10611804E+02</totfact>
</mgrwt>
</event>
<event>
11    1  0.9617585E-014  0.9984358E+03  0.7818608E-02  0.9310262E-01
          1   -1    0    0  501    0  0.00000000000E+00  0.00000000000E+00  0.14071654600E+04  0.14071654600E+04  0.00000000000E+00 0. -1.
         -1   -1    0    0    0  501 -0.00000000000E+00 -0.00000000000E+00 -0.17710677072E+03  0.17710677072E+03  0.00000000000E+00 0.  1.
    9900016    2    1    2    0    0  0.12415086570E+03 -0.10757340869E+02  0.12667716114E+04  0.14543607358E+04  0.70350954263E+03 0.  0.
         23    2    3    3    0    0  0.28479200023E+02 -0.61764545014E+02  0.34037615897E+03  0.36336718818E+03  0.10748888313E+03 0.  0.
        -15    1    3    3    0    0 -0.33015253338E+02  0.45488836119E+02  0.49066748562E+02  0.74610903888E+02  0.00000000000E+00 0.  1.
        -15    1    4    4    0    0  0.18316751701E+02  0.28497591254E+02  0.12746734674E+03  0.13189215514E+03  0.00000000000E+00 0.  1.
         15    1    4    4    0    0  0.10162448322E+02 -0.90262136268E+02  0.21290881222E+03  0.23147503304E+03  0.00000000000E+00 0. -1.
         15    1    3    3    0    0  0.39124646470E+02 -0.13179911552E+03  0.15833198176E+03  0.20969206294E+03  0.00000000000E+00 0. -1.
        -16    1    1    2    0    0 -0.12415086570E+03  0.10757340869E+02 -0.36712922199E+02  0.12991149484E+03  0.00000000000E+00 0.  1.
         16    1    3    3    0    0 -0.31178691450E+02  0.16430423546E+03  0.56455869573E+03  0.58880770504E+03  0.00000000000E+00 0. -1.
    9900018    1    3    3    0    0  0.12074096399E+03 -0.26986751919E+02  0.15443802642E+03  0.21788287579E+03  0.91187600000E+02 0.  0.
<mgrwt>
<rscale>  0 0.99843584E+03</rscale>
<asrwt>0</asrwt>
<pdfrwt beam="1">  1        1 0.21648699E+00 0.99843584E+03</pdfrwt>
<pdfrwt beam="2">  1       -1 0.27247196E-01 0.99843584E+03</pdfrwt>
<totfact> 0.91885422E+01</totfact>
</mgrwt>
</event>
<event>
11    1  0.9617585E-014  0.1066894E+04  0.7818608E-02  0.9238074E-01
         -1   -1    0    0    0  501 -0.00000000000E+00  0.00000000000E+00  0.23209821801E+03  0.23209821801E+03  0.00000000000E+00 0. -1.
          1   -1    0    0  501    0  0.00000000000E+00 -0.00000000000E+00 -0.12260568177E+04  0.12260568177E+04  0.00000000000E+00 0.  1.
    9900016    2    1    2    0    0  0.23787682766E+03  0.12022750335E+02 -0.95679994344E+03  0.12170934308E+04  0.71352670291E+03 0.  0.
         23    2    3    3    0    0  0.12661170509E+03  0.32328054922E+02 -0.14399424121E+03  0.20361340372E+03  0.60402397906E+02 0.  0.
        -15    1    4    4    0    0  0.97553396130E+02  0.50274374736E+02 -0.11227191055E+03  0.15700050875E+03  0.00000000000E+00 0. -1.
        -15    1    3    3    0    0 -0.63088422049E+02  0.25795585570E+02 -0.17123974081E+03  0.18430575158E+03  0.00000000000E+00 0.  1.
         15    1    3    3    0    0 -0.42681379406E+02 -0.14513539355E+02 -0.55595365900E+02  0.71576446421E+02  0.00000000000E+00 0. -1.
         15    1    4    4    0    0  0.29058308963E+02 -0.17946319814E+02 -0.31722330664E+02  0.46612894969E+02  0.00000000000E+00 0.  1.
        -16    1    1    2    0    0 -0.23787682766E+03 -0.12022750335E+02 -0.37158656286E+02  0.24106160499E+03  0.00000000000E+00 0.  1.
         16    1    3    3    0    0 -0.30139785758E+01  0.89543248377E+02 -0.44797273186E+03  0.45684422497E+03  0.00000000000E+00 0. -1.
    9900018    1    3    3    0    0  0.22004890260E+03 -0.12113059918E+03 -0.13799786367E+03  0.30075360407E+03  0.91187600000E+02 0.  0.
<mgrwt>
<rscale>  0 0.10668938E+04</rscale>
<asrwt>0</asrwt>
<pdfrwt beam="1">  1        1 0.18862412E+00 0.10668938E+04</pdfrwt>
<pdfrwt beam="2">  1       -1 0.35707418E-01 0.10668938E+04</pdfrwt>
<totfact> 0.76389058E+01</totfact>
</mgrwt>
</event>
<event>
11    1  0.9617585E-014  0.1484130E+04  0.7818608E-02  0.8895075E-01
          1   -1    0    0  501    0  0.00000000000E+00  0.00000000000E+00  0.28514035803E+03  0.28514035803E+03  0.00000000000E+00 0. -1.
         -1   -1    0    0    0  501 -0.00000000000E+00 -0.00000000000E+00 -0.19311911217E+04  0.19311911217E+04  0.00000000000E+00 0.  1.
    9900016    2    1    2    0    0 -0.43515679367E+03 -0.29877209656E+03 -0.13477256512E+04  0.16100113716E+04  0.70508579981E+03 0.  0.
         23    2    3    3    0    0 -0.99399401156E+01 -0.19967778574E+03 -0.45850462294E+03  0.50529980882E+03  0.71633700198E+02 0.  0.
        -15    1    3    3    0    0 -0.24654980752E+03 -0.12272049552E+02 -0.60547573782E+03  0.65386411423E+03  0.00000000000E+00 0.  1.
        -15    1    4    4    0    0  0.29265123292E+01 -0.74769544954E+02 -0.25878245953E+03  0.26938338977E+03  0.00000000000E+00 0. -1.
         15    1    3    3    0    0 -0.12220191511E+03 -0.68295505825E+02 -0.11199249544E+03  0.17927605308E+03  0.00000000000E+00 0. -1.
         15    1    4    4    0    0 -0.12866452445E+02 -0.12490824079E+03 -0.19972216341E+03  0.23591641904E+03  0.00000000000E+00 0.  1.
        -16    1    3    3    0    0  0.45536899136E+02  0.14653940669E+02  0.20762179179E+01  0.47881706746E+02  0.00000000000E+00 0.  1.
         16    1    1    2    0    0  0.43515679367E+03  0.29877209656E+03 -0.29832511248E+03  0.60632010811E+03  0.00000000000E+00 0. -1.
    9900018    1    3    3    0    0 -0.10200203007E+03 -0.33180696111E+02 -0.17382901294E+03  0.22368968878E+03  0.91187600000E+02 0.  0.
<mgrwt>
<rscale>  0 0.14841301E+04</rscale>
<asrwt>0</asrwt>
<pdfrwt beam="1">  1        1 0.43867748E-01 0.14841301E+04</pdfrwt>
<pdfrwt beam="2">  1       -1 0.29710633E+00 0.14841301E+04</pdfrwt>
<totfact> 0.31372550E+00</totfact>
</mgrwt>
</event>
