<event>
12    1  0.3376980E-013  0.4021381E+04  0.7818608E-02  0.8350527E-01
          1   -1    0    0  501    0  0.00000000000E+00  0.00000000000E+00  0.18393129504E+04  0.18393129504E+04  0.00000000000E+00 0. -1.
         -1   -1    0    0    0  501 -0.00000000000E+00 -0.00000000000E+00 -0.31123418954E+04  0.31123418954E+04  0.00000000000E+00 0.  1.
         24    2    1    2    0    0  0.16579342063E+03  0.73591018353E+03 -0.26100342920E+03  0.80488490671E+03  0.10327471352E+03 0.  0.
    9900016    2    1    2    0    0 -0.10750439597E+04 -0.21028899768E+03 -0.18275430018E+04  0.28170771385E+04  0.18428426962E+04 0.  0.
        -24    2    4    4    0    0  0.32481116272E+03 -0.14506941133E+03  0.10398497520E+03  0.38279241366E+03  0.95758714255E+02 0.  0.
        -15    1    4    4    0    0 -0.48882056405E+03  0.13169179510E+02 -0.33686996444E+03  0.59380160329E+03  0.00000000000E+00 0.  1.
        -15    1    3    3    0    0  0.37838334625E+01  0.18560859093E+03 -0.38540121512E+02  0.18960539915E+03  0.00000000000E+00 0.  1.
         15    1    5    5    0    0  0.15360883949E+03 -0.31116600184E+02  0.11071954301E+02  0.15711940220E+03  0.00000000000E+00 0. -1.
         15    1    1    2    0    0  0.90925053906E+03 -0.52562118585E+03  0.81551748607E+03  0.13296928006E+04  0.00000000000E+00 0. -1.
        -16    1    5    5    0    0  0.17120232324E+03 -0.11395281114E+03  0.92913020897E+02  0.22567301146E+03  0.00000000000E+00 0.  1.
         16    1    3    3    0    0  0.16200958717E+03  0.55030159260E+03 -0.22246330769E+03  0.61527950756E+03  0.00000000000E+00 0. -1.
    9900018    1    4    4    0    0 -0.91103455836E+03 -0.78388765863E+02 -0.15946580126E+04  0.18404831215E+04  0.91187600000E+02 0.  0.
<mgrwt>
<rscale>  0 0.26526712E+04</rscale>
<asrwt>0</asrwt>
<pdfrwt beam="1">  1        1 0.28297122E+00 0.40213810E+04</pdfrwt>
<pdfrwt beam="2">  1       -1 0.47882183E+00 0.40213810E+04</pdfrwt>
<totfact> 0.60122119E-03</totfact>
</mgrwt>
</event>
<event>
12    1  0.3376980E-013  0.4033881E+04  0.7818608E-02  0.8881702E-01
         -2   -1    0    0    0  501 -0.00000000000E+00  0.00000000000E+00  0.18620038052E+04  0.18620038052E+04  0.00000000000E+00 0.  1.
          2   -1    0    0  501    0  0.00000000000E+00 -0.00000000000E+00 -0.27025923464E+04  0.27025923464E+04  0.00000000000E+00 0. -1.
         24    2    1    2    0    0  0.52795479945E+02  0.11563997955E+01  0.35008137777E+03  0.35866136046E+03  0.57378571431E+02 0.  0.
    9900016    2    1    2    0    0  0.13000411692E+04  0.77723002994E+03 -0.31481046959E+03  0.24161911759E+04  0.18559850769E+04 0.  0.
        -24    2    4    4    0    0 -0.15078400937E+03 -0.41415731544E+03  0.52617844872E+02  0.45471412390E+03  0.98662036568E+02 0.  0.
        -15    1    4    4    0    0  0.10097811107E+04  0.85423673911E+03 -0.68525328462E+02  0.13244145947E+04  0.00000000000E+00 0.  1.
        -15    1    3    3    0    0  0.59650075896E+02 -0.16984187123E+01  0.20812838437E+03  0.21651429643E+03  0.00000000000E+00 0.  1.
         15    1    5    5    0    0 -0.43950395136E+02 -0.30902728744E+02  0.37473882620E+01  0.53857764484E+02  0.00000000000E+00 0. -1.
         15    1    1    2    0    0 -0.13528366492E+04 -0.77838642973E+03 -0.87585944937E+03  0.17897436153E+04  0.00000000000E+00 0. -1.
        -16    1    5    5    0    0 -0.10683361424E+03 -0.38325458670E+03  0.48870456610E+02  0.40085635942E+03  0.00000000000E+00 0.  1.
         16    1    3    3    0    0 -0.68545959501E+01  0.28548185078E+01  0.14195299340E+03  0.14214706402E+03  0.00000000000E+00 0. -1.
    9900018    1    4    4    0    0  0.44104406789E+03  0.33715060627E+03 -0.29890298600E+03  0.63706245735E+03  0.91187600000E+02 0.  0.
<mgrwt>
<rscale>  0 0.15041433E+04</rscale>
<asrwt>0</asrwt>
<pdfrwt beam="1">  1        2 0.41578344E+00 0.40338806E+04</pdfrwt>
<pdfrwt beam="2">  1       -2 0.28646212E+00 0.40338806E+04</pdfrwt>
<totfact> 0.78735658E-02</totfact>
</mgrwt>
</event>
<event>
11    1  0.3376980E-013  0.3244467E+04  0.7818608E-02  0.8489154E-01
         -2   -1    0    0    0  501 -0.00000000000E+00  0.00000000000E+00  0.22822555895E+04  0.22822555895E+04  0.00000000000E+00 0.  1.
          2   -1    0    0  501    0  0.00000000000E+00 -0.00000000000E+00 -0.17744774671E+04  0.17744774671E+04  0.00000000000E+00 0. -1.
    9900016    2    1    2    0    0  0.14037701487E+03 -0.14288635735E+03  0.10488978098E+04  0.21355537805E+04  0.18494002045E+04 0.  0.
        -24    2    3    3    0    0 -0.36209100732E+03 -0.45733342607E+03  0.25189129416E+03  0.63856419065E+03  0.63649362362E+02 0.  0.
        -15    1    1    2    0    0  0.39157268951E+03 -0.10581381508E+03  0.25973083174E+02  0.40644844161E+03  0.00000000000E+00 0.  1.
        -15    1    3    3    0    0  0.39979624877E+03  0.33506745343E+03 -0.14768903561E+03  0.54214323764E+03  0.00000000000E+00 0.  1.
         15    1    1    2    0    0 -0.84463365891E+03  0.45364068289E+03 -0.61314656853E+03  0.11380442001E+04  0.00000000000E+00 0. -1.
         15    1    4    4    0    0 -0.11465005683E+03 -0.19455173615E+03  0.99372343190E+02  0.24671821206E+03  0.00000000000E+00 0. -1.
        -16    1    4    4    0    0 -0.24744095049E+03 -0.26278168991E+03  0.15251895097E+03  0.39184597859E+03  0.00000000000E+00 0.  1.
         16    1    1    2    0    0  0.31268395452E+03 -0.20494051047E+03  0.46053797935E+02  0.37668663442E+03  0.00000000000E+00 0. -1.
    9900018    1    3    3    0    0  0.10267177342E+03 -0.20620384710E+02  0.94469555126E+03  0.95484635219E+03  0.91187600000E+02 0.  0.
<mgrwt>
<rscale>  0 0.22717237E+04</rscale>
<asrwt>0</asrwt>
<pdfrwt beam="1">  1        2 0.27299653E+00 0.32444668E+04</pdfrwt>
<pdfrwt beam="2">  1       -2 0.35111624E+00 0.32444668E+04</pdfrwt>
<totfact> 0.11154066E-01</totfact>
</mgrwt>
</event>
