<event>
12    1  0.1136034E-010  0.4707831E+04  0.7818608E-02  0.8629007E-01
         -1   -1    0    0    0  501 -0.00000000000E+00  0.00000000000E+00  0.19523742329E+04  0.19523742329E+04  0.00000000000E+00 0.  1.
          1   -1    0    0  501    0  0.00000000000E+00 -0.00000000000E+00 -0.30085669735E+04  0.30085669735E+04  0.00000000000E+00 0. -1.
         23    2    1    2    0    0  0.71856278460E+02  0.32105097691E+02 -0.30932480978E+02  0.14276362428E+03  0.11502422347E+03 0.  0.
    9900016    2    1    2    0    0 -0.21231135721E+03  0.16440414915E+03 -0.17498748446E+04  0.28365334647E+04  0.22162480204E+04 0.  0.
         24    2    4    4    0    0  0.90906389199E+03  0.45889687690E+03 -0.51983018302E+03  0.11462026433E+04  0.81077598828E+02 0.  0.
        -15    1    3    3    0    0 -0.41691209994E+01  0.49545330913E+02  0.15387029305E+02  0.52046921677E+02  0.00000000000E+00 0.  1.
        -15    1    5    5    0    0  0.39910606608E+03  0.15666782809E+03 -0.21695866912E+03  0.48052213731E+03  0.00000000000E+00 0.  1.
         15    1    3    3    0    0  0.76025399459E+02 -0.17440233222E+02 -0.46319510283E+02  0.90716702600E+02  0.00000000000E+00 0. -1.
         15    1    4    4    0    0 -0.11213752492E+04 -0.29449272774E+03 -0.12300446615E+04  0.16903308214E+04  0.00000000000E+00 0. -1.
        -16    1    1    2    0    0  0.16122755949E+03 -0.33762017039E+02  0.13339348201E+04  0.13440670757E+04  0.00000000000E+00 0.  1.
         16    1    5    5    0    0  0.50995782592E+03  0.30222904880E+03 -0.30287151390E+03  0.66568050602E+03  0.00000000000E+00 0. -1.
    9900018    1    1    2    0    0 -0.20772480743E+02 -0.16274722981E+03 -0.60932023514E+03  0.63757704171E+03  0.91187600000E+02 0.  0.
<mgrwt>
<rscale>  0 0.19528091E+04</rscale>
<asrwt>0</asrwt>
<pdfrwt beam="1">  1        1 0.46285645E+00 0.47078314E+04</pdfrwt>
<pdfrwt beam="2">  1       -1 0.30036527E+00 0.47078314E+04</pdfrwt>
<totfact> 0.14225188E-02</totfact>
</mgrwt>
</event>
<event>
12    1  0.1136034E-010  0.4498857E+04  0.7818608E-02  0.8435273E-01
          1   -1    0    0  501    0  0.00000000000E+00  0.00000000000E+00  0.24113211036E+04  0.24113211036E+04  0.00000000000E+00 0. -1.
         -1   -1    0    0    0  501 -0.00000000000E+00 -0.00000000000E+00 -0.28018844071E+04  0.28018844071E+04  0.00000000000E+00 0.  1.
         23    2    1    2    0    0 -0.25226322883E+03 -0.26171055982E+03  0.50427089435E+03  0.62621923278E+03  0.75711550495E+02 0.  0.
    9900016    2    1    2    0    0 -0.17568279167E+03  0.10944849347E+04  0.65062976461E+03  0.25493560402E+04  0.22016210877E+04 0.  0.
         24    2    4    4    0    0  0.66682069119E+03 -0.56713394542E+02  0.87557990055E+03  0.11051703612E+04  0.83036869906E+02 0.  0.
        -15    1    5    5    0    0  0.11359515896E+03 -0.75339122329E+01  0.20461030388E+03  0.23414951725E+03  0.00000000000E+00 0.  1.
        -15    1    3    3    0    0 -0.49346267351E+02 -0.54828946262E+02  0.16025409076E+03  0.17641610203E+03  0.00000000000E+00 0.  1.
         15    1    4    4    0    0 -0.84250348286E+03  0.11511983292E+04 -0.22495013594E+03  0.14441856790E+04  0.00000000000E+00 0. -1.
         15    1    3    3    0    0 -0.20291696148E+03 -0.20688161356E+03  0.34401680359E+03  0.44980313076E+03  0.00000000000E+00 0. -1.
        -16    1    1    2    0    0  0.46504114927E+03 -0.15101056190E+03 -0.11348450644E+04  0.12356944527E+04  0.00000000000E+00 0.  1.
         16    1    5    5    0    0  0.55322553223E+03 -0.49179482309E+02  0.67096959667E+03  0.87102084398E+03  0.00000000000E+00 0. -1.
    9900018    1    1    2    0    0 -0.37095128767E+02 -0.68176381295E+03 -0.41061889812E+03  0.80193578490E+03  0.91187600000E+02 0.  0.
<mgrwt>
<rscale>  0 0.24113318E+04</rscale>
<asrwt>0</asrwt>
<pdfrwt beam="1">  1        1 0.37097248E+00 0.44988571E+04</pdfrwt>
<pdfrwt beam="2">  1       -1 0.43105914E+00 0.44988571E+04</pdfrwt>
<totfact> 0.50126585E-03</totfact>
</mgrwt>
</event>
<event>
12    1  0.1136034E-010  0.4105729E+04  0.7818608E-02  0.8740073E-01
         -1   -1    0    0    0  501 -0.00000000000E+00  0.00000000000E+00  0.17825072664E+04  0.17825072664E+04  0.00000000000E+00 0.  1.
          1   -1    0    0  501    0  0.00000000000E+00 -0.00000000000E+00 -0.25414671868E+04  0.25414671868E+04  0.00000000000E+00 0. -1.
         23    2    1    2    0    0 -0.67291207974E+02  0.22316929769E+02  0.46947416801E+02  0.13989782917E+03  0.11109091159E+03 0.  0.
    9900016    2    1    2    0    0 -0.59645436430E+03 -0.42440452697E+03 -0.50109522448E+03  0.23767019508E+04  0.22049350847E+04 0.  0.
         24    2    4    4    0    0 -0.84016871650E+03  0.13407835956E+03 -0.11849209287E+04  0.14607776015E+04  0.77285930251E+02 0.  0.
        -15    1    5    5    0    0 -0.20882114575E+03 -0.14749726561E+00 -0.29432190257E+03  0.36087625995E+03  0.00000000000E+00 0.  1.
        -15    1    3    3    0    0  0.19845782261E+02 -0.17153907084E+02 -0.10565849189E+02  0.28279829753E+02  0.00000000000E+00 0. -1.
         15    1    4    4    0    0  0.24371435220E+03 -0.55848288653E+03  0.68382570420E+03  0.91592434935E+03  0.00000000000E+00 0. -1.
         15    1    3    3    0    0 -0.87136990235E+02  0.39470836853E+02  0.57513265990E+02  0.11161799942E+03  0.00000000000E+00 0.  1.
        -16    1    1    2    0    0  0.10588803861E+04  0.64040040961E+03  0.16774916402E+02  0.12375870695E+04  0.00000000000E+00 0.  1.
         16    1    5    5    0    0 -0.63134757075E+03  0.13422585682E+03 -0.89059902611E+03  0.10999013415E+04  0.00000000000E+00 0. -1.
    9900018    1    1    2    0    0 -0.39513481383E+03 -0.23831281240E+03 -0.32158702911E+03  0.56978760371E+03  0.91187600000E+02 0.  0.
<mgrwt>
<rscale>  0 0.17378384E+04</rscale>
<asrwt>0</asrwt>
<pdfrwt beam="1">  1        1 0.39099495E+00 0.41057290E+04</pdfrwt>
<pdfrwt beam="2">  1       -1 0.27423189E+00 0.41057290E+04</pdfrwt>
<totfact> 0.47455948E-02</totfact>
</mgrwt>
</event>
