<event>
12    1  0.2171787E-011  0.2662911E+04  0.7818608E-02  0.8347140E-01
          1   -1    0    0  501    0  0.00000000000E+00  0.00000000000E+00  0.23066263598E+04  0.23066263598E+04  0.00000000000E+00 0. -1.
         -1   -1    0    0    0  501 -0.00000000000E+00 -0.00000000000E+00 -0.76855694228E+03  0.76855694228E+03  0.00000000000E+00 0.  1.
    9900016    2    1    2    0    0 -0.12528230975E+03 -0.36220751207E+03  0.10777222486E+04  0.24761762447E+04  0.21961497241E+04 0.  0.
        -24    2    3    3    0    0  0.35383293600E+03  0.50794181325E+03  0.78617943406E+03  0.10052104785E+04  0.95746390326E+02 0.  0.
         23    2    3    3    0    0 -0.83445339378E+01 -0.11387191524E+03  0.14777806764E+03  0.22324682978E+03  0.12232884126E+03 0.  0.
        -15    1    5    5    0    0 -0.37303683180E+02 -0.44174392903E+02  0.57303299610E+00  0.57821018098E+02  0.00000000000E+00 0.  1.
        -15    1    3    3    0    0 -0.30252979657E+03 -0.43223314584E+03  0.50192079803E+03  0.72819932551E+03  0.00000000000E+00 0.  1.
         15    1    5    5    0    0  0.28959149242E+02 -0.69697522338E+02  0.14720503465E+03  0.16542581168E+03  0.00000000000E+00 0. -1.
         15    1    4    4    0    0  0.63136439411E+02  0.61432379437E+02  0.16328569208E+03  0.18553265066E+03  0.00000000000E+00 0. -1.
        -16    1    4    4    0    0  0.29069649659E+03  0.44650943382E+03  0.62289374198E+03  0.81967782782E+03  0.00000000000E+00 0.  1.
         16    1    1    2    0    0  0.12528230975E+03  0.36220751207E+03  0.46034716892E+03  0.59900705745E+03  0.00000000000E+00 0. -1.
    9900018    1    3    3    0    0 -0.16824091523E+03 -0.32404426424E+03 -0.35815605112E+03  0.51951961089E+03  0.91187600000E+02 0.  0.
<mgrwt>
<rscale>  0 0.26629110E+04</rscale>
<asrwt>0</asrwt>
<pdfrwt beam="1">  1        1 0.35486559E+00 0.26629110E+04</pdfrwt>
<pdfrwt beam="2">  1       -1 0.11823953E+00 0.26629110E+04</pdfrwt>
<totfact> 0.10352060E+00</totfact>
</mgrwt>
</event>
<event>
12    1  0.2171787E-011  0.2420911E+04  0.7818608E-02  0.8431716E-01
         -2   -1    0    0    0  501 -0.00000000000E+00  0.00000000000E+00  0.42609068969E+03  0.42609068969E+03  0.00000000000E+00 0.  1.
          2   -1    0    0  501    0  0.00000000000E+00 -0.00000000000E+00 -0.34387098323E+04  0.34387098323E+04  0.00000000000E+00 0. -1.
    9900016    2    1    2    0    0  0.86184942289E+02 -0.17072440186E+03 -0.25598537972E+04  0.33733016678E+04  0.21885470096E+04 0.  0.
        -24    2    3    3    0    0 -0.19391233268E+03  0.44262943301E+03 -0.19582808287E+04  0.20177523976E+04  0.54204486153E+02 0.  0.
         23    2    3    3    0    0  0.34500786112E+03 -0.39762703876E+03 -0.83090330602E+03  0.99072131426E+03  0.11828242638E+03 0.  0.
        -15    1    5    5    0    0  0.35280397304E+03 -0.38800215787E+03 -0.79192078330E+03  0.94981832206E+03  0.00000000000E+00 0.  1.
        -15    1    3    3    0    0 -0.16771468156E+02  0.68957060784E+01  0.69947004432E+02  0.72259368496E+02  0.00000000000E+00 0.  1.
         15    1    4    4    0    0 -0.11398100157E+03  0.19332697304E+03 -0.89039652958E+03  0.91824450291E+03  0.00000000000E+00 0. -1.
         15    1    5    5    0    0 -0.77961119210E+01 -0.96248808925E+01 -0.38982522718E+02  0.40902992198E+02  0.00000000000E+00 0. -1.
        -16    1    4    4    0    0 -0.79931331107E+02  0.24930245996E+03 -0.10678842991E+04  0.10995078947E+04  0.00000000000E+00 0.  1.
         16    1    1    2    0    0 -0.86184942289E+02  0.17072440186E+03 -0.45276534540E+03  0.49149885419E+03  0.00000000000E+00 0. -1.
    9900018    1    3    3    0    0 -0.48139118000E+02 -0.22262250218E+03  0.15938333300E+03  0.29256858750E+03  0.91187600000E+02 0.  0.
<mgrwt>
<rscale>  0 0.24209108E+04</rscale>
<asrwt>0</asrwt>
<pdfrwt beam="1">  1        2 0.52903229E+00 0.24209108E+04</pdfrwt>
<pdfrwt beam="2">  1       -2 0.65552413E-01 0.24209108E+04</pdfrwt>
<totfact> 0.17285213E+00</totfact>
</mgrwt>
</event>
<event>
11    1  0.2171787E-011  0.4097510E+04  0.7818608E-02  0.7985159E-01
          2   -1    0    0  501    0  0.00000000000E+00  0.00000000000E+00  0.37195637717E+04  0.37195637717E+04  0.00000000000E+00 0. -1.
         -2   -1    0    0    0  501 -0.00000000000E+00 -0.00000000000E+00 -0.11284650396E+04  0.11284650396E+04  0.00000000000E+00 0.  1.
    9900016    2    1    2    0    0 -0.11537428769E+04  0.41226422188E+03  0.26001335184E+04  0.36228079977E+04  0.22052117948E+04 0.  0.
         23    2    3    3    0    0 -0.23092726885E+03 -0.52238275239E+02  0.26674925143E+03  0.37321261959E+03  0.10989201692E+03 0.  0.
        -15    1    3    3    0    0  0.24271713759E+02 -0.31553571350E+03  0.32123766762E+03  0.45093851208E+03  0.00000000000E+00 0.  1.
        -15    1    4    4    0    0 -0.20539214742E+03 -0.37267102024E+02  0.27228964030E+03  0.34309826482E+03  0.00000000000E+00 0.  1.
         15    1    3    3    0    0 -0.51727347806E+03  0.54806578102E+03  0.12159156613E+03  0.76336915079E+03  0.00000000000E+00 0. -1.
         15    1    4    4    0    0 -0.25535121434E+02 -0.14971173214E+02 -0.55403888650E+01  0.30114354764E+02  0.00000000000E+00 0. -1.
        -16    1    1    2    0    0  0.11537428769E+04 -0.41226422188E+03 -0.90347863054E+01  0.12252208136E+04  0.00000000000E+00 0.  1.
         16    1    3    3    0    0 -0.24085281691E+01 -0.12092432688E+03  0.94635258903E+02  0.15357189218E+03  0.00000000000E+00 0. -1.
    9900018    1    3    3    0    0 -0.42740531562E+03  0.35289675648E+03  0.17959197743E+04  0.18817158230E+04  0.91187600000E+02 0.  0.
<mgrwt>
<rscale>  0 0.40975103E+04</rscale>
<asrwt>0</asrwt>
<pdfrwt beam="1">  1        2 0.57224057E+00 0.40975103E+04</pdfrwt>
<pdfrwt beam="2">  1       -2 0.17361001E+00 0.40975103E+04</pdfrwt>
<totfact> 0.88565176E-02</totfact>
</mgrwt>
</event>
<event>
12    1  0.2171787E-011  0.2972200E+04  0.7818608E-02  0.8251714E-01
          1   -1    0    0  501    0  0.00000000000E+00  0.00000000000E+00  0.10693659196E+04  0.10693659196E+04  0.00000000000E+00 0. -1.
         -1   -1    0    0    0  501 -0.00000000000E+00 -0.00000000000E+00 -0.20652362797E+04  0.20652362797E+04  0.00000000000E+00 0.  1.
    9900016    2    1    2    0    0 -0.40273799628E+03 -0.41174610997E+03 -0.11333899262E+04  0.25424498677E+04  0.22017597171E+04 0.  0.
        -24    2    3    3    0    0 -0.37633972412E+03  0.93022388320E+02  0.28754558843E+03  0.49224618400E+03  0.96638954667E+02 0.  0.
         23    2    3    3    0    0  0.42533580768E+02  0.95708443523E+00  0.10474106416E+03  0.13539366210E+03  0.74503232892E+02 0.  0.
        -15    1    3    3    0    0 -0.31600559328E+03 -0.68338010966E+03 -0.69182199115E+03  0.10224898908E+04  0.00000000000E+00 0.  1.
        -15    1    5    5    0    0  0.43615481740E+02 -0.28175680498E+02  0.86850788770E+02  0.10118912357E+03  0.00000000000E+00 0.  1.
         15    1    4    4    0    0 -0.26807514009E+03  0.86736846042E+02  0.15705283092E+03  0.32257270947E+03  0.00000000000E+00 0. -1.
         15    1    5    5    0    0 -0.10819009716E+01  0.29132764933E+02  0.17890275387E+02  0.34204538526E+02  0.00000000000E+00 0. -1.
        -16    1    4    4    0    0 -0.10826458403E+03  0.62855422784E+01  0.13049275751E+03  0.16967347453E+03  0.00000000000E+00 0.  1.
         16    1    1    2    0    0  0.40273799628E+03  0.41174610997E+03  0.13751956611E+03  0.59215233157E+03  0.00000000000E+00 0. -1.
    9900018    1    3    3    0    0  0.24707374036E+03  0.17765452693E+03 -0.83385458766E+03  0.89232013082E+03  0.91187600000E+02 0.  0.
<mgrwt>
<rscale>  0 0.29722001E+04</rscale>
<asrwt>0</asrwt>
<pdfrwt beam="1">  1        1 0.16451784E+00 0.29722001E+04</pdfrwt>
<pdfrwt beam="2">  1       -1 0.31772865E+00 0.29722001E+04</pdfrwt>
<totfact> 0.28891433E-01</totfact>
</mgrwt>
</event>
<event>
12    1  0.2171787E-011  0.2442942E+04  0.7818608E-02  0.8423600E-01
         -2   -1    0    0    0  501 -0.00000000000E+00  0.00000000000E+00  0.67267857739E+03  0.67267857739E+03  0.00000000000E+00 0.  1.
          2   -1    0    0  501    0  0.00000000000E+00 -0.00000000000E+00 -0.22179848606E+04  0.22179848606E+04  0.00000000000E+00 0. -1.
    9900016    2    1    2    0    0 -0.58303166317E+02 -0.21088305948E+03 -0.12997717557E+04  0.25617894071E+04  0.21966992114E+04 0.  0.
        -24    2    3    3    0    0 -0.17513735381E+03 -0.25940202824E+03 -0.17201194103E+04  0.17497296201E+04  0.69140818186E+02 0.  0.
         23    2    3    3    0    0 -0.45882161436E+02  0.19928541247E+03 -0.79421809278E+02  0.24364731069E+03  0.10600160308E+03 0.  0.
        -15    1    5    5    0    0 -0.23799935212E+02  0.17540823388E+03 -0.22973397587E+02  0.17850003481E+03  0.00000000000E+00 0.  1.
        -15    1    3    3    0    0 -0.10395021918E+02 -0.33705941575E+02  0.30279470713E+02  0.46486485399E+02  0.00000000000E+00 0.  1.
         15    1    4    4    0    0 -0.34694134846E+02 -0.10966525477E+03 -0.58694362316E+03  0.59810782294E+03  0.00000000000E+00 0. -1.
         15    1    5    5    0    0 -0.22082226224E+02  0.23877178591E+02 -0.56448411691E+02  0.65147275883E+02  0.00000000000E+00 0. -1.
        -16    1    4    4    0    0 -0.14044321896E+03 -0.14973677347E+03 -0.11331757872E+04  0.11516217972E+04  0.00000000000E+00 0.  1.
         16    1    1    2    0    0  0.58303166317E+02  0.21088305948E+03 -0.24553452753E+03  0.32887403088E+03  0.00000000000E+00 0. -1.
    9900018    1    3    3    0    0  0.17311137084E+03 -0.11706050213E+03  0.46948999321E+03  0.52192599092E+03  0.91187600000E+02 0.  0.
<mgrwt>
<rscale>  0 0.24429416E+04</rscale>
<asrwt>0</asrwt>
<pdfrwt beam="1">  1        2 0.34122844E+00 0.24429416E+04</pdfrwt>
<pdfrwt beam="2">  1       -2 0.10348901E+00 0.24429416E+04</pdfrwt>
<totfact> 0.34400400E+00</totfact>
</mgrwt>
</event>
<event>
11    1  0.2171787E-011  0.3024369E+04  0.7818608E-02  0.8236806E-01
          1   -1    0    0  501    0  0.00000000000E+00  0.00000000000E+00  0.21414075786E+04  0.21414075786E+04  0.00000000000E+00 0. -1.
         -1   -1    0    0    0  501 -0.00000000000E+00 -0.00000000000E+00 -0.10678497319E+04  0.10678497319E+04  0.00000000000E+00 0.  1.
    9900016    2    1    2    0    0  0.60578177458E+02 -0.94785228935E+02  0.15675665849E+04  0.27026030018E+04  0.21986686954E+04 0.  0.
         24    2    3    3    0    0 -0.50953933021E+03  0.67514825747E+03  0.10153688336E+04  0.13233038158E+04  0.68582956541E+02 0.  0.
        -15    1    3    3    0    0 -0.50715035984E+02  0.13246282886E+02  0.55363189047E+02  0.76240157310E+02  0.00000000000E+00 0. -1.
        -15    1    4    4    0    0 -0.14310510256E+03  0.14224471384E+03  0.23214177934E+03  0.30757508792E+03  0.00000000000E+00 0.  1.
         15    1    3    3    0    0 -0.24938193680E+02 -0.18755627549E+01  0.50021437123E+02  0.55924729874E+02  0.00000000000E+00 0.  1.
         15    1    3    3    0    0  0.36901200244E+03 -0.34434422486E+03 -0.70878459883E+02  0.50967299243E+03  0.00000000000E+00 0. -1.
        -16    1    1    2    0    0 -0.60578177458E+02  0.94785228935E+02 -0.49400873810E+03  0.50665430870E+03  0.00000000000E+00 0.  1.
         16    1    4    4    0    0 -0.36643422765E+03  0.53290354363E+03  0.78322705429E+03  0.10157287279E+04  0.00000000000E+00 0. -1.
    9900018    1    3    3    0    0  0.27675873490E+03 -0.43695998167E+03  0.51769158495E+03  0.73746130641E+03  0.91187600000E+02 0.  0.
<mgrwt>
<rscale>  0 0.30243687E+04</rscale>
<asrwt>0</asrwt>
<pdfrwt beam="1">  1        1 0.32944732E+00 0.30243687E+04</pdfrwt>
<pdfrwt beam="2">  1       -1 0.16428457E+00 0.30243687E+04</pdfrwt>
<totfact> 0.55026722E-01</totfact>
</mgrwt>
</event>
<event>
12    1  0.2171787E-011  0.2888043E+04  0.7818608E-02  0.8276444E-01
          1   -1    0    0  501    0  0.00000000000E+00  0.00000000000E+00  0.10127110925E+04  0.10127110925E+04  0.00000000000E+00 0. -1.
         -1   -1    0    0    0  501 -0.00000000000E+00 -0.00000000000E+00 -0.20590258911E+04  0.20590258911E+04  0.00000000000E+00 0.  1.
    9900016    2    1    2    0    0 -0.37770282057E+03  0.37930110941E+03 -0.11317849124E+04  0.25296725108E+04  0.21981303809E+04 0.  0.
        -24    2    3    3    0    0 -0.30603377474E+03  0.51432272712E+02  0.39073142434E+03  0.50723535829E+03  0.91185046844E+02 0.  0.
         23    2    3    3    0    0 -0.16023742670E+03  0.35223046224E+03 -0.65618094241E+03  0.76957612035E+03  0.10923206663E+03 0.  0.
        -15    1    3    3    0    0  0.78649213499E+02 -0.40419564225E+03 -0.15256360786E+03  0.43913035700E+03  0.00000000000E+00 0.  1.
        -15    1    5    5    0    0 -0.94240250993E+02  0.11625757829E+03 -0.32309972911E+03  0.35607651477E+03  0.00000000000E+00 0. -1.
         15    1    5    5    0    0 -0.65997175704E+02  0.23597288395E+03 -0.33308121330E+03  0.41349960558E+03  0.00000000000E+00 0.  1.
         15    1    4    4    0    0 -0.78931408587E+02  0.15758789224E+02  0.17206827352E+03  0.18996314762E+03  0.00000000000E+00 0. -1.
        -16    1    4    4    0    0 -0.22710236615E+03  0.35673483488E+02  0.21866315082E+03  0.31727221067E+03  0.00000000000E+00 0.  1.
         16    1    1    2    0    0  0.37770282057E+03 -0.37930110941E+03  0.85470113805E+02  0.54206447275E+03  0.00000000000E+00 0. -1.
    9900018    1    3    3    0    0  0.99191673661E+01  0.37983401670E+03 -0.71377178648E+03  0.81373067516E+03  0.91187600000E+02 0.  0.
<mgrwt>
<rscale>  0 0.28880432E+04</rscale>
<asrwt>0</asrwt>
<pdfrwt beam="1">  1        1 0.15580171E+00 0.28880432E+04</pdfrwt>
<pdfrwt beam="2">  1       -1 0.31677322E+00 0.28880432E+04</pdfrwt>
<totfact> 0.32642206E-01</totfact>
</mgrwt>
</event>
<event>
11    1  0.2171787E-011  0.3126774E+04  0.7818608E-02  0.8208428E-01
         -2   -1    0    0    0  501 -0.00000000000E+00  0.00000000000E+00  0.93714418695E+03  0.93714418695E+03  0.00000000000E+00 0. -1.
          2   -1    0    0  501    0  0.00000000000E+00 -0.00000000000E+00 -0.26081141659E+04  0.26081141659E+04  0.00000000000E+00 0.  1.
    9900016    2    1    2    0    0 -0.26330949093E+03  0.72956270614E+03 -0.14082284251E+04  0.27263403140E+04  0.22018697919E+04 0.  0.
         23    2    3    3    0    0  0.94693197994E+02 -0.58621228123E+02 -0.67165503693E+01  0.15428824324E+03  0.10656687956E+03 0.  0.
        -15    1    4    4    0    0 -0.11461063832E+02  0.11250532012E+01 -0.28322447485E+02  0.30574217249E+02  0.00000000000E+00 0.  1.
        -15    1    3    3    0    0 -0.13657722755E+03  0.90056085437E+03 -0.81773653478E+03  0.12240736219E+04  0.00000000000E+00 0.  1.
         15    1    3    3    0    0 -0.18148602015E+01 -0.19432031044E+03  0.56744193596E+02  0.20244401763E+03  0.00000000000E+00 0. -1.
         15    1    4    4    0    0  0.10615426183E+03 -0.59746281324E+02  0.21605897116E+02  0.12371402599E+03  0.00000000000E+00 0. -1.
        -16    1    1    2    0    0  0.26330949093E+03 -0.72956270614E+03 -0.26274155382E+03  0.81891803883E+03  0.00000000000E+00 0.  1.
         16    1    3    3    0    0 -0.62893267457E+02  0.49130215575E+03 -0.40402733903E+03  0.63919594963E+03  0.00000000000E+00 0. -1.
    9900018    1    3    3    0    0 -0.15671733371E+03 -0.40935876541E+03 -0.23649219453E+03  0.50633848162E+03  0.91187600000E+02 0.  0.
<mgrwt>
<rscale>  0 0.31267741E+04</rscale>
<asrwt>0</asrwt>
<pdfrwt beam="1">  1        2 0.40124833E+00 0.31267741E+04</pdfrwt>
<pdfrwt beam="2">  1       -2 0.14417603E+00 0.31267741E+04</pdfrwt>
<totfact> 0.84789237E-01</totfact>
</mgrwt>
</event>
