<event>
12    1  0.9765843E-013  0.1563409E+04  0.7818608E-02  0.8843348E-01
         -2   -1    0    0    0  501 -0.00000000000E+00  0.00000000000E+00  0.38317383905E+03  0.38317383905E+03  0.00000000000E+00 0.  1.
          2   -1    0    0  501    0  0.00000000000E+00 -0.00000000000E+00 -0.15947387638E+04  0.15947387638E+04  0.00000000000E+00 0. -1.
    9900016    2    1    2    0    0  0.45677659066E+03  0.16078617578E+03 -0.31172355179E+03  0.95604590677E+03  0.76312197911E+03 0.  0.
         25    2    3    3    0    0 -0.16267612010E+03  0.12175161087E+03 -0.13271385453E+03  0.27299116385E+03  0.12499693417E+03 0.  0.
         23    2    4    4    0    0 -0.13810388847E+03  0.62207261124E+02 -0.12100345999E+03  0.20269932374E+03  0.59184044879E+02 0.  0.
        -15    1    5    5    0    0 -0.53967886965E+02  0.28414291743E+02 -0.14241485617E+02  0.62631659018E+02  0.00000000000E+00 0. -1.
        -15    1    4    4    0    0 -0.10251274184E+02  0.36970860814E+02 -0.18670644792E+02  0.42667624127E+02  0.00000000000E+00 0. -1.
         15    1    5    5    0    0 -0.84136001502E+02  0.33792969381E+02 -0.10676197437E+03  0.14006766472E+03  0.00000000000E+00 0.  1.
         15    1    4    4    0    0 -0.14320957450E+02  0.22573488935E+02  0.69602502491E+01  0.27624215980E+02  0.00000000000E+00 0.  1.
        -16    1    1    2    0    0 -0.45677659066E+03 -0.16078617578E+03 -0.89984137299E+03  0.10218666961E+04  0.00000000000E+00 0.  1.
         16    1    3    3    0    0  0.50225146646E+03 -0.11314491699E+02 -0.13579092026E+03  0.52040727062E+03  0.00000000000E+00 0. -1.
    9900018    1    3    3    0    0  0.11720124430E+03  0.50349056606E+02 -0.43218776995E+02  0.16264747230E+03  0.91187600000E+02 0.  0.
<mgrwt>
<rscale>  0 0.15634093E+04</rscale>
<asrwt>0</asrwt>
<pdfrwt beam="1">  1        2 0.24534443E+00 0.15634093E+04</pdfrwt>
<pdfrwt beam="2">  1       -2 0.58949820E-01 0.15634093E+04</pdfrwt>
<totfact> 0.29022006E+01</totfact>
</mgrwt>
</event>
<event>
12    1  0.9765843E-013  0.9474007E+03  0.7818608E-02  0.9368194E-01
         -2   -1    0    0    0  501 -0.00000000000E+00  0.00000000000E+00  0.15860852666E+03  0.15860852666E+03  0.00000000000E+00 0. -1.
          2   -1    0    0  501    0  0.00000000000E+00 -0.00000000000E+00 -0.14147537080E+04  0.14147537080E+04  0.00000000000E+00 0.  1.
    9900016    2    1    2    0    0  0.77411778303E+02  0.12685717136E+03 -0.11678174400E+04  0.14004833313E+04  0.75859782673E+03 0.  0.
         25    2    3    3    0    0  0.28975969924E+03  0.15769959983E+03 -0.31016669207E+03  0.46973774227E+03  0.12498128879E+03 0.  0.
         23    2    4    4    0    0  0.27257874857E+03  0.14628218592E+03 -0.29109653959E+03  0.43117389788E+03  0.74000559198E+02 0.  0.
        -15    1    4    4    0    0  0.88677394724E+01 -0.57544103170E+01 -0.16093281073E+02  0.19254706882E+02  0.00000000000E+00 0.  1.
        -15    1    5    5    0    0  0.21635357298E+03  0.78847821436E+02 -0.21190282643E+03  0.31293554502E+03  0.00000000000E+00 0. -1.
         15    1    4    4    0    0  0.83132111940E+01  0.17171824228E+02 -0.29768714071E+01  0.19309137501E+02  0.00000000000E+00 0. -1.
         15    1    5    5    0    0  0.56225175589E+02  0.67434364481E+02 -0.79193713165E+02  0.11823835286E+03  0.00000000000E+00 0.  1.
        -16    1    3    3    0    0 -0.25738002740E+03 -0.23167444376E+02 -0.64713814652E+03  0.69682780489E+03  0.00000000000E+00 0.  1.
         16    1    1    2    0    0 -0.77411778303E+02 -0.12685717136E+03 -0.88327741378E+02  0.17287890340E+03  0.00000000000E+00 0. -1.
    9900018    1    3    3    0    0  0.45032106462E+02 -0.76749840932E+01 -0.21051260138E+03  0.23391778412E+03  0.91187600000E+02 0.  0.
<mgrwt>
<rscale>  0 0.94740066E+03</rscale>
<asrwt>0</asrwt>
<pdfrwt beam="1">  1        2 0.21765442E+00 0.94740066E+03</pdfrwt>
<pdfrwt beam="2">  1       -2 0.24401311E-01 0.94740066E+03</pdfrwt>
<totfact> 0.21269643E+02</totfact>
</mgrwt>
</event>
<event>
12    1  0.9765843E-013  0.1323993E+04  0.7818608E-02  0.9010752E-01
         -2   -1    0    0    0  501 -0.00000000000E+00  0.00000000000E+00  0.32950467042E+03  0.32950467042E+03  0.00000000000E+00 0. -1.
          2   -1    0    0  501    0  0.00000000000E+00 -0.00000000000E+00 -0.13299946360E+04  0.13299946360E+04  0.00000000000E+00 0.  1.
    9900016    2    1    2    0    0  0.39726922585E+03 -0.12079042415E+03 -0.85346695516E+03  0.12190121557E+04  0.76496511535E+03 0.  0.
         25    2    3    3    0    0 -0.10265378514E+03 -0.85210547589E+02 -0.46109422491E+03  0.49601537681E+03  0.12499893101E+03 0.  0.
         23    2    4    4    0    0 -0.66865382158E+02 -0.58330211567E+02 -0.26880248498E+03  0.29364859283E+03  0.78110992982E+02 0.  0.
        -15    1    4    4    0    0 -0.89189714213E+01 -0.34003344975E+02 -0.11316715879E+03  0.11850139809E+03  0.00000000000E+00 0.  1.
        -15    1    5    5    0    0 -0.74287134361E+02 -0.30878263568E+02 -0.13753300587E+03  0.15933415577E+03  0.00000000000E+00 0. -1.
         15    1    5    5    0    0  0.74217522028E+01 -0.27451947999E+02 -0.13126947911E+03  0.13431443706E+03  0.00000000000E+00 0. -1.
         15    1    4    4    0    0 -0.26869431562E+02  0.71230089522E+01 -0.79124581140E+02  0.83865385885E+02  0.00000000000E+00 0.  1.
        -16    1    1    2    0    0 -0.39726922585E+03  0.12079042415E+03 -0.14702301039E+03  0.44048715073E+03  0.00000000000E+00 0.  1.
         16    1    3    3    0    0  0.47243939135E+03  0.64548938954E+01 -0.21899989102E+03  0.52077019540E+03  0.00000000000E+00 0. -1.
    9900018    1    3    3    0    0  0.27483619644E+02 -0.42034770453E+02 -0.17337283923E+03  0.20222658345E+03  0.91187600000E+02 0.  0.
<mgrwt>
<rscale>  0 0.13239931E+04</rscale>
<asrwt>0</asrwt>
<pdfrwt beam="1">  1        2 0.20461456E+00 0.13239931E+04</pdfrwt>
<pdfrwt beam="2">  1       -2 0.50693026E-01 0.13239931E+04</pdfrwt>
<totfact> 0.57157850E+01</totfact>
</mgrwt>
</event>
