<event>
12    1  0.3093650E-009  0.3776297E+04  0.7818608E-02  0.8848069E-01
          1   -1    0    0  501    0  0.00000000000E+00  0.00000000000E+00  0.21811007868E+04  0.21811007868E+04  0.00000000000E+00 0. -1.
         -1   -1    0    0    0  501 -0.00000000000E+00 -0.00000000000E+00 -0.17911464402E+04  0.17911464402E+04  0.00000000000E+00 0.  1.
         23    2    1    2    0    0  0.22903936410E+02  0.56550713996E+02  0.15400714460E+03  0.18858622853E+03  0.90133187270E+02 0.  0.
    9900016    2    1    2    0    0  0.22167786985E+03  0.22903012393E+03  0.97884150699E+02  0.22230364016E+04  0.21978884550E+04 0.  0.
        -24    2    4    4    0    0 -0.24675845373E+03  0.11512373273E+04  0.13609642263E+03  0.11879717211E+04  0.80730758834E+02 0.  0.
        -15    1    3    3    0    0 -0.23766232492E+02  0.13308704323E+02  0.10443935666E+03  0.10793300996E+03  0.00000000000E+00 0. -1.
        -15    1    4    4    0    0  0.46843632359E+03 -0.92220720341E+03 -0.38212271933E+02  0.10350646806E+04  0.00000000000E+00 0.  1.
         15    1    5    5    0    0 -0.12851440252E+03  0.54120916696E+03  0.25643979939E+02  0.55684910682E+03  0.00000000000E+00 0. -1.
         15    1    3    3    0    0  0.46670168901E+02  0.43242009673E+02  0.49567787936E+02  0.80653218576E+02  0.00000000000E+00 0.  1.
        -16    1    5    5    0    0 -0.11824405121E+03  0.61002816038E+03  0.11045244269E+03  0.63112261424E+03  0.00000000000E+00 0.  1.
         16    1    1    2    0    0  0.18664221165E+03 -0.71998384967E+03  0.44822487059E+03  0.86839944356E+03  0.00000000000E+00 0. -1.
    9900018    1    1    2    0    0 -0.43122401791E+03  0.43440301174E+03 -0.31016181926E+03  0.69222515323E+03  0.91187600000E+02 0.  0.
<mgrwt>
<rscale>  0 0.15559609E+04</rscale>
<asrwt>0</asrwt>
<pdfrwt beam="1">  1        1 0.33555397E+00 0.37762971E+04</pdfrwt>
<pdfrwt beam="2">  1       -1 0.27556099E+00 0.37762971E+04</pdfrwt>
<totfact> 0.84551408E-02</totfact>
</mgrwt>
</event>
<event>
12    1  0.3093650E-009  0.2657173E+04  0.7818608E-02  0.9161740E-01
         -1   -1    0    0    0  501 -0.00000000000E+00  0.00000000000E+00  0.94280900108E+03  0.94280900108E+03  0.00000000000E+00 0.  1.
          1   -1    0    0  501    0  0.00000000000E+00 -0.00000000000E+00 -0.20232893878E+04  0.20232893878E+04  0.00000000000E+00 0. -1.
         23    2    1    2    0    0 -0.63997926187E+01 -0.33377140208E+01  0.12933748283E+02  0.92751494592E+02  0.91561237563E+02 0.  0.
    9900016    2    1    2    0    0 -0.29256312921E+02 -0.91411352233E+02 -0.78799529688E+03  0.23441157723E+04  0.22056133385E+04 0.  0.
         24    2    4    4    0    0 -0.90165313588E+02  0.75754727533E+03  0.41415590222E+03  0.87115679015E+03  0.73357913919E+02 0.  0.
        -15    1    5    5    0    0 -0.45629049919E+01  0.81428976603E+02  0.20402031596E+02  0.84069859199E+02  0.00000000000E+00 0.  1.
        -15    1    3    3    0    0 -0.26813532427E+02  0.37340088766E+02  0.10615355223E+02  0.47179799881E+02  0.00000000000E+00 0.  1.
         15    1    4    4    0    0  0.60909000667E+02 -0.84895862757E+03 -0.12021511991E+04  0.14729589822E+04  0.00000000000E+00 0. -1.
         15    1    3    3    0    0  0.20413739808E+02 -0.40677802787E+02  0.23183930596E+01  0.45571694712E+02  0.00000000000E+00 0. -1.
        -16    1    1    2    0    0  0.92874361603E+02  0.10924520346E+03 -0.37415242360E+03  0.40068715678E+03  0.00000000000E+00 0.  1.
         16    1    5    5    0    0 -0.85602408596E+02  0.67611829873E+03  0.39375387062E+03  0.78708693095E+03  0.00000000000E+00 0. -1.
    9900018    1    1    2    0    0 -0.57218256063E+02 -0.14496137207E+02  0.68733585475E+02  0.12854396519E+03  0.91187600000E+02 0.  0.
<mgrwt>
<rscale>  0 0.11457216E+04</rscale>
<asrwt>0</asrwt>
<pdfrwt beam="1">  1        1 0.31127529E+00 0.26571729E+04</pdfrwt>
<pdfrwt beam="2">  1       -1 0.14504754E+00 0.26571729E+04</pdfrwt>
<totfact> 0.95792692E-01</totfact>
</mgrwt>
</event>
<event>
12    1  0.3093650E-009  0.4284552E+04  0.7818608E-02  0.8425147E-01
         -2   -1    0    0    0  501 -0.00000000000E+00  0.00000000000E+00  0.25260019429E+04  0.25260019429E+04  0.00000000000E+00 0. -1.
          2   -1    0    0  501    0  0.00000000000E+00 -0.00000000000E+00 -0.22239417233E+04  0.22239417233E+04  0.00000000000E+00 0.  1.
         23    2    1    2    0    0 -0.34724552311E+03  0.26992528082E+03  0.99612890025E+02  0.46061106446E+03  0.93812122361E+02 0.  0.
    9900016    2    1    2    0    0 -0.14114049107E+03  0.24846193966E+03 -0.62838423697E+03  0.23366722074E+04  0.22323790632E+04 0.  0.
        -24    2    4    4    0    0  0.31219290451E+03  0.75426791853E+03  0.54243383527E+03  0.98309701030E+03  0.76555623397E+02 0.  0.
        -15    1    3    3    0    0 -0.17984930894E+03  0.10207210762E+03  0.83465438855E+02  0.22300441377E+03  0.00000000000E+00 0. -1.
        -15    1    4    4    0    0 -0.45333339558E+03 -0.50580597887E+03 -0.11708180722E+04  0.13535751971E+04  0.00000000000E+00 0.  1.
         15    1    5    5    0    0  0.64809671777E+02  0.24944699428E+03  0.17084976212E+03  0.30921471137E+03  0.00000000000E+00 0. -1.
         15    1    3    3    0    0 -0.16739621418E+03  0.16785317320E+03  0.16147451170E+02  0.23760665069E+03  0.00000000000E+00 0.  1.
        -16    1    5    5    0    0  0.24738323273E+03  0.50482092424E+03  0.37158407314E+03  0.67388229892E+03  0.00000000000E+00 0.  1.
         16    1    1    2    0    0  0.79597268514E+03  0.11084069465E+03 -0.71439493663E+02  0.80682202272E+03  0.00000000000E+00 0. -1.
    9900018    1    1    2    0    0 -0.30758667096E+03 -0.62922791512E+03  0.90227106030E+03  0.11458383717E+04  0.91187600000E+02 0.  0.
<mgrwt>
<rscale>  0 0.24387227E+04</rscale>
<asrwt>0</asrwt>
<pdfrwt beam="1">  1        2 0.34214488E+00 0.42845524E+04</pdfrwt>
<pdfrwt beam="2">  1       -2 0.38861568E+00 0.42845524E+04</pdfrwt>
<totfact> 0.33425534E-02</totfact>
</mgrwt>
</event>
<event>
12    1  0.3093650E-009  0.4197779E+04  0.7818608E-02  0.8618410E-01
          1   -1    0    0  501    0  0.00000000000E+00  0.00000000000E+00  0.25091551422E+04  0.25091551422E+04  0.00000000000E+00 0. -1.
         -1   -1    0    0    0  501 -0.00000000000E+00 -0.00000000000E+00 -0.21128178785E+04  0.21128178785E+04  0.00000000000E+00 0.  1.
         23    2    1    2    0    0 -0.17446040601E+03 -0.43644953312E+02 -0.30312626213E+03  0.36631840478E+03  0.99811460638E+02 0.  0.
    9900016    2    1    2    0    0  0.32995211972E+03  0.12875866668E+02 -0.16020231144E+03  0.22344586424E+04  0.22041112619E+04 0.  0.
        -24    2    4    4    0    0  0.67613841580E+03 -0.94932514712E+03 -0.28881964808E+03  0.12038189567E+04  0.85917978865E+02 0.  0.
        -15    1    3    3    0    0 -0.94508156049E+02  0.20613072265E+01 -0.76207148490E+02  0.12142310335E+03  0.00000000000E+00 0.  1.
        -15    1    4    4    0    0 -0.34618629608E+03  0.96220101379E+03  0.12861733664E+03  0.10306396857E+04  0.00000000000E+00 0.  1.
         15    1    3    3    0    0 -0.79952249960E+02 -0.45706260538E+02 -0.22691911364E+03  0.24489530143E+03  0.00000000000E+00 0. -1.
         15    1    5    5    0    0  0.38017340236E+03 -0.46880381311E+03 -0.12807891274E+03  0.61701948019E+03  0.00000000000E+00 0. -1.
        -16    1    5    5    0    0  0.29596501344E+03 -0.48052133401E+03 -0.16074073534E+03  0.58679947650E+03  0.00000000000E+00 0.  1.
         16    1    1    2    0    0 -0.30697330396E+03  0.78576197647E+03  0.91408683360E+03  0.12438686556E+04  0.00000000000E+00 0. -1.
    9900018    1    1    2    0    0  0.15148159024E+03 -0.75499288983E+03 -0.54420996301E+02  0.77732731787E+03  0.91187600000E+02 0.  0.
<mgrwt>
<rscale>  0 0.19749763E+04</rscale>
<asrwt>0</asrwt>
<pdfrwt beam="1">  1        1 0.38602387E+00 0.41977788E+04</pdfrwt>
<pdfrwt beam="2">  1       -1 0.32504890E+00 0.41977788E+04</pdfrwt>
<totfact> 0.22993454E-02</totfact>
</mgrwt>
</event>
<event>
12    1  0.3093650E-009  0.4916877E+04  0.7818608E-02  0.8512137E-01
         -2   -1    0    0    0  501 -0.00000000000E+00  0.00000000000E+00  0.20114586484E+04  0.20114586484E+04  0.00000000000E+00 0.  1.
          2   -1    0    0  501    0  0.00000000000E+00 -0.00000000000E+00 -0.32575652142E+04  0.32575652142E+04  0.00000000000E+00 0. -1.
         23    2    1    2    0    0  0.12260057230E+03  0.13235457137E+03 -0.42566491019E+02  0.20698972716E+03  0.92109761157E+02 0.  0.
    9900016    2    1    2    0    0 -0.25300512859E+03 -0.84278432589E+03  0.87099123850E+03  0.25275666904E+04  0.22035586268E+04 0.  0.
        -24    2    4    4    0    0 -0.11099530918E+04 -0.13483898072E+03  0.86455169201E+03  0.14159966786E+04  0.86136804354E+02 0.  0.
        -15    1    4    4    0    0  0.85694796318E+03 -0.70794534517E+03  0.64395464859E+01  0.11115700118E+04  0.00000000000E+00 0.  1.
        -15    1    3    3    0    0  0.43520448800E+02  0.94054744694E+02 -0.56482496599E+02  0.11802794959E+03  0.00000000000E+00 0.  1.
         15    1    3    3    0    0  0.79080123501E+02  0.38299826680E+02  0.13916005580E+02  0.88961777568E+02  0.00000000000E+00 0. -1.
         15    1    5    5    0    0 -0.46715387088E+03 -0.81091400954E+02  0.32228458658E+03  0.57330263311E+03  0.00000000000E+00 0. -1.
        -16    1    5    5    0    0 -0.64279922088E+03 -0.53747579769E+02  0.54226710543E+03  0.84269404551E+03  0.00000000000E+00 0.  1.
         16    1    1    2    0    0  0.37920059599E+03 -0.22183936046E+03 -0.97094995158E+03  0.10657155354E+04  0.00000000000E+00 0. -1.
    9900018    1    1    2    0    0 -0.24879603970E+03  0.93226911497E+03 -0.11035813617E+04  0.14687519097E+04  0.91187600000E+02 0.  0.
<mgrwt>
<rscale>  0 0.22151772E+04</rscale>
<asrwt>0</asrwt>
<pdfrwt beam="1">  1        2 0.50116388E+00 0.49168771E+04</pdfrwt>
<pdfrwt beam="2">  1       -2 0.30945518E+00 0.49168771E+04</pdfrwt>
<totfact> 0.24012016E-02</totfact>
</mgrwt>
</event>
<event>
12    1  0.3093650E-009  0.3507265E+04  0.7818608E-02  0.8862685E-01
         -1   -1    0    0    0  501 -0.00000000000E+00  0.00000000000E+00  0.89669508739E+03  0.89669508739E+03  0.00000000000E+00 0.  1.
          1   -1    0    0  501    0  0.00000000000E+00 -0.00000000000E+00 -0.36859702300E+04  0.36859702300E+04  0.00000000000E+00 0. -1.
         23    2    1    2    0    0 -0.73087579640E+02 -0.51329214066E+02 -0.11532246416E+03  0.17234418559E+03  0.91797413099E+02 0.  0.
    9900016    2    1    2    0    0  0.17628111609E+03 -0.15010615814E+03 -0.12866536457E+04  0.25625842217E+04  0.22040311701E+04 0.  0.
        -24    2    4    4    0    0 -0.67373368029E+03  0.50695742529E+03  0.49256184974E+02  0.84825847015E+03  0.78697886933E+02 0.  0.
        -15    1    3    3    0    0 -0.40928239621E+02 -0.28248960938E+01  0.23228624844E+01  0.41091319357E+02  0.00000000000E+00 0.  1.
        -15    1    4    4    0    0  0.85001479638E+03 -0.65706358343E+03 -0.13359098307E+04  0.17143257516E+04  0.00000000000E+00 0.  1.
         15    1    3    3    0    0 -0.32159340019E+02 -0.48504317972E+02 -0.11764532664E+03  0.13125286623E+03  0.00000000000E+00 0. -1.
         15    1    5    5    0    0 -0.30952855527E+03  0.28042183139E+03  0.13958139690E+02  0.41789850408E+03  0.00000000000E+00 0. -1.
        -16    1    5    5    0    0 -0.36420512503E+03  0.22653559390E+03  0.35298045284E+02  0.43035996607E+03  0.00000000000E+00 0.  1.
         16    1    1    2    0    0  0.12882606807E+03  0.34979695014E+03 -0.14931113552E+04  0.15389397588E+04  0.00000000000E+00 0. -1.
    9900018    1    1    2    0    0 -0.23201960452E+03 -0.14836157793E+03  0.10581232245E+03  0.30879715132E+03  0.91187600000E+02 0.  0.
<mgrwt>
<rscale>  0 0.15331784E+04</rscale>
<asrwt>0</asrwt>
<pdfrwt beam="1">  1        1 0.56707234E+00 0.35072653E+04</pdfrwt>
<pdfrwt beam="2">  1       -1 0.13795309E+00 0.35072653E+04</pdfrwt>
<totfact> 0.62555721E-02</totfact>
</mgrwt>
</event>
<event>
12    1  0.3093650E-009  0.3160921E+04  0.7818608E-02  0.9012747E-01
         -1   -1    0    0    0  501 -0.00000000000E+00  0.00000000000E+00  0.13215163034E+04  0.13215163034E+04  0.00000000000E+00 0.  1.
          1   -1    0    0  501    0  0.00000000000E+00 -0.00000000000E+00 -0.20094062353E+04  0.20094062353E+04  0.00000000000E+00 0. -1.
         23    2    1    2    0    0 -0.12453865973E+02 -0.27575028087E+02 -0.26580067127E+01  0.96580884603E+02  0.91680539480E+02 0.  0.
    9900016    2    1    2    0    0  0.41928040491E+02  0.81897113476E+02 -0.83535673266E+02  0.22082564451E+04  0.22047569528E+04 0.  0.
         24    2    4    4    0    0  0.35457246254E+03 -0.88452651715E+03 -0.53608816620E+03  0.10962650210E+04  0.79357946264E+02 0.  0.
        -15    1    3    3    0    0  0.32842522072E+02 -0.14582892600E+02 -0.25648288515E+02  0.44148915235E+02  0.00000000000E+00 0. -1.
        -15    1    5    5    0    0  0.19201409244E+03 -0.51026106732E+03 -0.34936593943E+03  0.64752785898E+03  0.00000000000E+00 0.  1.
         15    1    4    4    0    0 -0.31264442205E+03  0.96642363062E+03  0.45255249293E+03  0.11119914241E+04  0.00000000000E+00 0. -1.
         15    1    3    3    0    0 -0.45296388045E+02 -0.12992135487E+02  0.22990281802E+02  0.52431969368E+02  0.00000000000E+00 0.  1.
        -16    1    1    2    0    0 -0.16834593078E+03 -0.18263439569E+01  0.16745034149E+03  0.23745168942E+03  0.00000000000E+00 0.  1.
         16    1    5    5    0    0  0.16255837010E+03 -0.37426544983E+03 -0.18672222676E+03  0.44873716204E+03  0.00000000000E+00 0. -1.
    9900018    1    1    2    0    0  0.13887175626E+03 -0.52495741431E+02 -0.76914659343E+03  0.78863351953E+03  0.91187600000E+02 0.  0.
<mgrwt>
<rscale>  0 0.13214232E+04</rscale>
<asrwt>0</asrwt>
<pdfrwt beam="1">  1        1 0.30913942E+00 0.31609212E+04</pdfrwt>
<pdfrwt beam="2">  1       -1 0.20331020E+00 0.31609212E+04</pdfrwt>
<totfact> 0.35084103E-01</totfact>
</mgrwt>
</event>
<event>
12    1  0.3093650E-009  0.3157976E+04  0.7818608E-02  0.8928293E-01
          2   -1    0    0  501    0  0.00000000000E+00  0.00000000000E+00  0.78253312493E+03  0.78253312493E+03  0.00000000000E+00 0. -1.
         -2   -1    0    0    0  501 -0.00000000000E+00 -0.00000000000E+00 -0.34642066057E+04  0.34642066057E+04  0.00000000000E+00 0.  1.
         23    2    1    2    0    0 -0.95599028666E+02 -0.25276280075E+02 -0.11210188613E+03  0.17543666945E+03  0.91832061389E+02 0.  0.
    9900016    2    1    2    0    0 -0.86956119062E+02  0.73189709692E+02 -0.16928311808E+04  0.27765064152E+04  0.21978153624E+04 0.  0.
         24    2    4    4    0    0  0.47744637277E+03 -0.63372184497E+03 -0.16935178539E+04  0.18719211012E+04  0.80792771706E+02 0.  0.
        -15    1    5    5    0    0  0.15551702209E+03 -0.17451715977E+03 -0.42704486989E+03  0.48683580817E+03  0.00000000000E+00 0.  1.
        -15    1    3    3    0    0 -0.31546845443E+02 -0.21963912344E+01 -0.10177459737E+03  0.10657436962E+03  0.00000000000E+00 0.  1.
         15    1    3    3    0    0 -0.64052183224E+02 -0.23079888841E+02 -0.10327288763E+02  0.68862299829E+02  0.00000000000E+00 0. -1.
         15    1    4    4    0    0 -0.56440249183E+03  0.70691155466E+03  0.68667311134E+00  0.90458531406E+03  0.00000000000E+00 0. -1.
        -16    1    1    2    0    0  0.44137955480E+03 -0.13331577069E+03 -0.89503475145E+03  0.10068148849E+04  0.00000000000E+00 0.  1.
         16    1    5    5    0    0  0.32192935068E+03 -0.45920468520E+03 -0.12664729840E+04  0.13850852930E+04  0.00000000000E+00 0. -1.
    9900018    1    1    2    0    0 -0.25882440707E+03  0.85402341074E+02  0.18294337523E+02  0.28798176111E+03  0.91187600000E+02 0.  0.
<mgrwt>
<rscale>  0 0.14358163E+04</rscale>
<asrwt>0</asrwt>
<pdfrwt beam="1">  1        2 0.12038971E+00 0.31579757E+04</pdfrwt>
<pdfrwt beam="2">  1       -2 0.53295486E+00 0.31579757E+04</pdfrwt>
<totfact> 0.31296559E-02</totfact>
</mgrwt>
</event>
