<event>
11    1  0.2263977E-013  0.4344570E+04  0.7818608E-02  0.8071438E-01
          2   -1    0    0  501    0  0.00000000000E+00  0.00000000000E+00  0.35446996213E+04  0.35446996213E+04  0.00000000000E+00 0. -1.
         -2   -1    0    0    0  501 -0.00000000000E+00 -0.00000000000E+00 -0.30791800195E+04  0.30791800195E+04  0.00000000000E+00 0.  1.
    9900016    2    1    2    0    0  0.10411956978E+03  0.18887924811E+03  0.27100771824E+03  0.22301106097E+04  0.22030505880E+04 0.  0.
        -24    2    3    3    0    0 -0.95705378714E+03 -0.32060872105E+03 -0.32599146521E+02  0.10144445320E+04  0.96400729754E+02 0.  0.
        -15    1    3    3    0    0  0.10611733569E+04  0.50948796916E+03  0.30360686476E+03  0.12156660777E+04  0.00000000000E+00 0.  1.
        -15    1    1    2    0    0  0.18345866625E+04 -0.20412874820E+03  0.44025771896E+02  0.18464330577E+04  0.00000000000E+00 0.  1.
         15    1    1    2    0    0  0.44253747139E+02  0.27164229533E+03  0.33294737568E+03  0.43197440401E+03  0.00000000000E+00 0. -1.
         15    1    4    4    0    0 -0.84976651507E+03 -0.31018194631E+03 -0.11923264891E+02  0.90468676026E+03  0.00000000000E+00 0. -1.
        -16    1    4    4    0    0 -0.10728727208E+03 -0.10426774745E+02 -0.20675881630E+02  0.10975777176E+03  0.00000000000E+00 0.  1.
         16    1    1    2    0    0 -0.91307286681E+03 -0.22888710503E+03  0.22280374390E+03  0.96733286683E+03  0.00000000000E+00 0. -1.
    9900018    1    1    2    0    0 -0.10698871126E+04 -0.27505690201E+02 -0.40526500788E+03  0.11480287025E+04  0.91187600000E+02 0.  0.
<mgrwt>
<rscale>  0 0.36843519E+04</rscale>
<asrwt>0</asrwt>
<pdfrwt beam="1">  1        2 0.54533840E+00 0.43445699E+04</pdfrwt>
<pdfrwt beam="2">  1       -2 0.47372000E+00 0.43445699E+04</pdfrwt>
<totfact> 0.13133957E-03</totfact>
</mgrwt>
</event>
<event>
11    1  0.2263977E-013  0.3372959E+04  0.7818608E-02  0.8411040E-01
         -1   -1    0    0    0  501 -0.00000000000E+00  0.00000000000E+00  0.25288017720E+04  0.25288017720E+04  0.00000000000E+00 0.  1.
          1   -1    0    0  501    0  0.00000000000E+00 -0.00000000000E+00 -0.25979655955E+04  0.25979655955E+04  0.00000000000E+00 0. -1.
    9900016    2    1    2    0    0  0.17771170359E+03 -0.50915494612E+03  0.14001729311E+03  0.22614664455E+04  0.21917585253E+04 0.  0.
        -24    2    3    3    0    0 -0.72129661030E+03 -0.70062071822E+03  0.65907829298E+03  0.12058626316E+04  0.92640699583E+02 0.  0.
        -15    1    3    3    0    0  0.89900831389E+03  0.19146577210E+03 -0.51906099987E+03  0.10556038139E+04  0.00000000000E+00 0.  1.
        -15    1    1    2    0    0 -0.48018987508E+03  0.16585341908E+02 -0.26684063386E+03  0.54960104946E+03  0.00000000000E+00 0.  1.
         15    1    4    4    0    0 -0.36598822440E+03 -0.36008074032E+03  0.39161437641E+03  0.64573008274E+03  0.00000000000E+00 0. -1.
         15    1    1    2    0    0 -0.18809187992E+03  0.30016600025E+03 -0.95032405827E+03  0.10141962329E+04  0.00000000000E+00 0. -1.
        -16    1    4    4    0    0 -0.35530838591E+03 -0.34053997790E+03  0.26746391658E+03  0.56013254888E+03  0.00000000000E+00 0.  1.
         16    1    1    2    0    0  0.52674243341E+03 -0.65214616845E+02  0.78168379782E+03  0.94484924574E+03  0.00000000000E+00 0. -1.
    9900018    1    1    2    0    0 -0.36172381999E+02  0.25761822080E+03  0.22629977766E+03  0.35665439387E+03  0.91187600000E+02 0.  0.
<mgrwt>
<rscale>  0 0.24775151E+04</rscale>
<asrwt>0</asrwt>
<pdfrwt beam="1">  1        1 0.39968702E+00 0.33729586E+04</pdfrwt>
<pdfrwt beam="2">  1       -1 0.38904643E+00 0.33729586E+04</pdfrwt>
<totfact> 0.77085936E-03</totfact>
</mgrwt>
</event>
<event>
11    1  0.2263977E-013  0.3896553E+04  0.7818608E-02  0.8241709E-01
         -2   -1    0    0    0  501 -0.00000000000E+00  0.00000000000E+00  0.18858307555E+04  0.18858307555E+04  0.00000000000E+00 0.  1.
          2   -1    0    0  501    0  0.00000000000E+00 -0.00000000000E+00 -0.37740843171E+04  0.37740843171E+04  0.00000000000E+00 0. -1.
    9900016    2    1    2    0    0  0.76312365727E+03  0.34021956362E+03 -0.15945215535E+03  0.23623015313E+04  0.22038458356E+04 0.  0.
         24    2    3    3    0    0  0.22471906614E+03  0.70844867447E+03  0.86709975864E+03  0.11460445626E+04  0.95697256483E+02 0.  0.
        -15    1    4    4    0    0  0.57147182536E+02  0.99963811692E+02  0.98570022081E+02  0.15157378854E+03  0.00000000000E+00 0.  1.
        -15    1    1    2    0    0 -0.12584116192E+03 -0.23070713925E+02  0.23115510963E+03  0.26419867635E+03  0.00000000000E+00 0.  1.
         15    1    1    2    0    0 -0.32697770011E+03 -0.74579570650E+03 -0.10989100267E+04  0.13677459191E+04  0.00000000000E+00 0. -1.
         15    1    3    3    0    0  0.53840459114E+03 -0.36822911085E+03 -0.10265519140E+04  0.12162569687E+04  0.00000000000E+00 0. -1.
        -16    1    1    2    0    0  0.15163347785E+03  0.41927629862E+03  0.21210057086E+03  0.49373269929E+03  0.00000000000E+00 0.  1.
         16    1    4    4    0    0  0.16757188360E+03  0.60848486278E+03  0.76852973656E+03  0.99447077402E+03  0.00000000000E+00 0. -1.
    9900018    1    1    2    0    0 -0.46193827310E+03  0.93705581906E+01 -0.10731470600E+04  0.11719362467E+04  0.91187600000E+02 0.  0.
<mgrwt>
<rscale>  0 0.30070912E+04</rscale>
<asrwt>0</asrwt>
<pdfrwt beam="1">  1        2 0.58062835E+00 0.38965534E+04</pdfrwt>
<pdfrwt beam="2">  1       -2 0.29012781E+00 0.38965534E+04</pdfrwt>
<totfact> 0.14230643E-02</totfact>
</mgrwt>
</event>
<event>
11    1  0.2263977E-013  0.4119939E+04  0.7818608E-02  0.8051797E-01
          1   -1    0    0  501    0  0.00000000000E+00  0.00000000000E+00  0.33972572586E+04  0.33972572586E+04  0.00000000000E+00 0.  1.
         -1   -1    0    0    0  501 -0.00000000000E+00 -0.00000000000E+00 -0.43320671980E+04  0.43320671980E+04  0.00000000000E+00 0. -1.
    9900016    2    1    2    0    0 -0.10645210912E+04  0.43386564520E+02 -0.45885481056E+03  0.24861747084E+04  0.21989609810E+04 0.  0.
        -24    2    3    3    0    0 -0.75502287834E+03  0.10926107057E+04 -0.93888719184E+02  0.13329788491E+04  0.64496663407E+02 0.  0.
        -15    1    1    2    0    0  0.33100736858E+03  0.35775883155E+03  0.19230683015E+04  0.19838722116E+04  0.00000000000E+00 0.  1.
        -15    1    3    3    0    0 -0.30949821288E+03 -0.10492241411E+04 -0.36496609137E+03  0.11531958593E+04  0.00000000000E+00 0.  1.
         15    1    1    2    0    0  0.81436745813E+03  0.79769579317E+02 -0.78297536270E+03  0.11325228303E+04  0.00000000000E+00 0. -1.
         15    1    4    4    0    0 -0.36507330906E+03  0.47375466239E+03 -0.50485398073E+02  0.60022560471E+03  0.00000000000E+00 0. -1.
        -16    1    4    4    0    0 -0.38994956928E+03  0.61885604327E+03 -0.43403321111E+02  0.73275324438E+03  0.00000000000E+00 0.  1.
         16    1    1    2    0    0 -0.49685063386E+03  0.19953326209E+03 -0.91912048429E+03  0.10636994593E+04  0.00000000000E+00 0. -1.
    9900018    1    1    2    0    0  0.41599689837E+03 -0.68044823748E+03 -0.69692758338E+03  0.10630552470E+04  0.91187600000E+02 0.  0.
<mgrwt>
<rscale>  0 0.37738199E+04</rscale>
<asrwt>0</asrwt>
<pdfrwt beam="1">  1        1 0.52265496E+00 0.41199388E+04</pdfrwt>
<pdfrwt beam="2">  1       -1 0.66647187E+00 0.41199388E+04</pdfrwt>
<totfact> 0.55201665E-05</totfact>
</mgrwt>
</event>
<event>
10    1  0.2263977E-013  0.4448633E+04  0.7818608E-02  0.8052123E-01
          2   -1    0    0  501    0  0.00000000000E+00  0.00000000000E+00  0.23412633655E+04  0.23412633655E+04  0.00000000000E+00 0. -1.
         -2   -1    0    0    0  501 -0.00000000000E+00 -0.00000000000E+00 -0.50542285921E+04  0.50542285921E+04  0.00000000000E+00 0.  1.
    9900016    2    1    2    0    0  0.37002600403E+03 -0.68218439009E+02 -0.92755985022E+03  0.24134144065E+04  0.21960484564E+04 0.  0.
        -15    1    3    3    0    0  0.48239275989E+03  0.42601816974E+03  0.55264312694E+03  0.84829751945E+03  0.00000000000E+00 0.  1.
        -15    1    1    2    0    0  0.38416111713E+03  0.59189037443E+03 -0.21225249440E+04  0.22367445355E+04  0.00000000000E+00 0.  1.
         15    1    1    2    0    0 -0.67270115153E+02 -0.28531009581E+03  0.49893498265E+03  0.57867368704E+03  0.00000000000E+00 0. -1.
         15    1    3    3    0    0 -0.64507392259E+02 -0.19566215198E+03 -0.58389905771E+03  0.61917928822E+03  0.00000000000E+00 0. -1.
        -16    1    3    3    0    0 -0.47859363601E+02 -0.29857445677E+03 -0.89630391945E+03  0.94593759887E+03  0.00000000000E+00 0.  1.
         16    1    1    2    0    0 -0.26911908644E+03 -0.11182563377E+04 -0.27275576984E+03  0.11820820739E+04  0.00000000000E+00 0. -1.
    9900018    1    1    2    0    0 -0.41779791956E+03  0.87989449812E+03  0.11094035479E+03  0.98457725452E+03  0.91187600000E+02 0.  0.
<mgrwt>
<rscale>  0 0.37723102E+04</rscale>
<asrwt>0</asrwt>
<pdfrwt beam="1">  1        2 0.36019437E+00 0.44486332E+04</pdfrwt>
<pdfrwt beam="2">  1       -2 0.77757362E+00 0.44486332E+04</pdfrwt>
<totfact> 0.32122601E-04</totfact>
</mgrwt>
</event>
<event>
11    1  0.2263977E-013  0.3870999E+04  0.7818608E-02  0.8352715E-01
         -2   -1    0    0    0  501 -0.00000000000E+00  0.00000000000E+00  0.19840901592E+04  0.19840901592E+04  0.00000000000E+00 0. -1.
          2   -1    0    0  501    0  0.00000000000E+00 -0.00000000000E+00 -0.29691395096E+04  0.29691395096E+04  0.00000000000E+00 0.  1.
    9900016    2    1    2    0    0 -0.32152077753E+03 -0.10105082908E+03 -0.80094953939E+03  0.23638276671E+04  0.21983116692E+04 0.  0.
        -24    2    3    3    0    0 -0.56148176672E+03  0.39782522643E+03  0.56152712487E+03  0.89318112368E+03  0.94515197616E+02 0.  0.
        -15    1    3    3    0    0  0.23996098919E+03 -0.49887605550E+03 -0.13624766643E+04  0.14706465434E+04  0.00000000000E+00 0.  1.
        -15    1    1    2    0    0  0.42780359418E+03  0.11035982025E+03  0.42859863730E+01  0.44182980298E+03  0.00000000000E+00 0.  1.
         15    1    4    4    0    0 -0.34104374057E+02  0.51432411987E+02  0.70302040402E+02  0.93545594324E+02  0.00000000000E+00 0. -1.
         15    1    1    2    0    0 -0.31860921004E+03 -0.62018990363E+03 -0.79838224889E+02  0.70179875138E+03  0.00000000000E+00 0. -1.
        -16    1    4    4    0    0 -0.52737739267E+03  0.34639281444E+03  0.49122508447E+03  0.79963552935E+03  0.00000000000E+00 0.  1.
         16    1    1    2    0    0 -0.33081915258E+03 -0.14065675153E+03  0.26015285802E+03  0.44373994974E+03  0.00000000000E+00 0. -1.
    9900018    1    1    2    0    0  0.54314554597E+03  0.75153766398E+03 -0.36870043045E+03  0.10020334976E+04  0.91187600000E+02 0.  0.
<mgrwt>
<rscale>  0 0.26460796E+04</rscale>
<asrwt>0</asrwt>
<pdfrwt beam="1">  1        2 0.45679069E+00 0.38709994E+04</pdfrwt>
<pdfrwt beam="2">  1       -2 0.30524464E+00 0.38709994E+04</pdfrwt>
<totfact> 0.41398207E-02</totfact>
</mgrwt>
</event>
