<event>
12    1  0.2956772E-011  0.4530889E+04  0.7818608E-02  0.8712567E-01
         -2   -1    0    0    0  501 -0.00000000000E+00  0.00000000000E+00  0.15282050345E+04  0.15282050345E+04  0.00000000000E+00 0.  1.
          2   -1    0    0  501    0  0.00000000000E+00 -0.00000000000E+00 -0.35233863419E+04  0.35233863419E+04  0.00000000000E+00 0. -1.
         23    2    1    2    0    0  0.18013896416E+02 -0.61847805867E+02 -0.43633586830E+02  0.11828657359E+03  0.89096419894E+02 0.  0.
    9900016    2    1    2    0    0  0.49103636479E+02 -0.30294370763E+03 -0.88881570365E+03  0.23545714301E+04  0.21586632918E+04 0.  0.
        -24    2    4    4    0    0  0.87028273774E+02 -0.53886262390E+03 -0.15533286749E+04  0.16484032475E+04  0.80352013251E+02 0.  0.
        -15    1    4    4    0    0 -0.37924637295E+02  0.23591891628E+03  0.66451297127E+03  0.70616818263E+03  0.00000000000E+00 0.  1.
        -15    1    3    3    0    0 -0.10656429413E+01 -0.79836363003E+02 -0.45675128412E+02  0.91984769435E+02  0.00000000000E+00 0.  1.
         15    1    5    5    0    0  0.25546930756E+02 -0.38743314096E+03 -0.10869907912E+04  0.11542556323E+04  0.00000000000E+00 0. -1.
         15    1    3    3    0    0  0.19079539357E+02  0.17988557136E+02  0.20415415817E+01  0.26301804158E+02  0.00000000000E+00 0. -1.
        -16    1    5    5    0    0  0.61481343018E+02 -0.15142948294E+03 -0.46633788369E+03  0.49414761520E+03  0.00000000000E+00 0.  1.
         16    1    1    2    0    0  0.55067853873E+03  0.37222921034E+03 -0.16141233239E+04  0.17456218212E+04  0.00000000000E+00 0. -1.
    9900018    1    1    2    0    0 -0.61779607163E+03 -0.74376968529E+01  0.55139130696E+03  0.83311155149E+03  0.91187600000E+02 0.  0.
<mgrwt>
<rscale>  0 0.17882618E+04</rscale>
<asrwt>0</asrwt>
<pdfrwt beam="1">  1        2 0.54205943E+00 0.45308893E+04</pdfrwt>
<pdfrwt beam="2">  1       -2 0.23510847E+00 0.45308893E+04</pdfrwt>
<totfact> 0.46719887E-02</totfact>
</mgrwt>
</event>
<event>
12    1  0.2956772E-011  0.3316624E+04  0.7818608E-02  0.8990137E-01
          1   -1    0    0  501    0  0.00000000000E+00  0.00000000000E+00  0.18260992599E+04  0.18260992599E+04  0.00000000000E+00 0. -1.
         -1   -1    0    0    0  501 -0.00000000000E+00 -0.00000000000E+00 -0.15908558280E+04  0.15908558280E+04  0.00000000000E+00 0.  1.
         23    2    1    2    0    0  0.56318916840E+01  0.11731594344E+02 -0.65844949006E+01  0.91526949168E+02  0.90357502960E+02 0.  0.
    9900016    2    1    2    0    0 -0.48214735220E+03  0.29144299984E+03  0.51789838249E+03  0.22843445415E+04  0.21523489862E+04 0.  0.
         24    2    4    4    0    0  0.82537314539E+03  0.17636431216E+03  0.47328289675E+03  0.97101156863E+03  0.80756215325E+02 0.  0.
        -15    1    5    5    0    0  0.79135389094E+03  0.18498091806E+03  0.45631455111E+03  0.93203105651E+03  0.00000000000E+00 0.  1.
        -15    1    3    3    0    0  0.45647906749E+02 -0.33548447870E+01  0.77511690979E+01  0.46422699151E+02  0.00000000000E+00 0.  1.
         15    1    3    3    0    0 -0.40016015065E+02  0.15086439131E+02 -0.14335663998E+02  0.45104250017E+02  0.00000000000E+00 0. -1.
         15    1    4    4    0    0 -0.13075204976E+04  0.11507868768E+03  0.44615485741E+02  0.13133329728E+04  0.00000000000E+00 0. -1.
        -16    1    1    2    0    0  0.31780687274E+03 -0.24946690616E+03 -0.56516387799E+03  0.69472667619E+03  0.00000000000E+00 0.  1.
         16    1    5    5    0    0  0.34019254458E+02 -0.86166059035E+01  0.16968345640E+02  0.38980512117E+02  0.00000000000E+00 0. -1.
    9900018    1    1    2    0    0  0.15870858777E+03 -0.53707688026E+02  0.28909342227E+03  0.34635692108E+03  0.91187600000E+02 0.  0.
<mgrwt>
<rscale>  0 0.13509140E+04</rscale>
<asrwt>0</asrwt>
<pdfrwt beam="1">  1        1 0.28093835E+00 0.33166235E+04</pdfrwt>
<pdfrwt beam="2">  1       -1 0.24474705E+00 0.33166235E+04</pdfrwt>
<totfact> 0.24371634E-01</totfact>
</mgrwt>
</event>
<event>
12    1  0.2956772E-011  0.2558196E+04  0.7818608E-02  0.8382541E-01
          2   -1    0    0  501    0  0.00000000000E+00  0.00000000000E+00  0.17916987586E+04  0.17916987586E+04  0.00000000000E+00 0. -1.
         -2   -1    0    0    0  501 -0.00000000000E+00 -0.00000000000E+00 -0.91315081295E+03  0.91315081295E+03  0.00000000000E+00 0.  1.
    9900016    2    1    2    0    0 -0.57573086429E+02 -0.16698437747E+02  0.90693979041E+03  0.24189293744E+04  0.22416703675E+04 0.  0.
         23    2    3    3    0    0  0.17479823704E+01 -0.34375037015E+02  0.17719192612E+02  0.99652718410E+02  0.91825899873E+02 0.  0.
        -24    2    3    3    0    0  0.29445474894E+03 -0.98773684459E+03  0.66770146562E+03  0.12306609073E+04  0.79833252727E+02 0.  0.
        -15    1    3    3    0    0 -0.35377581774E+03  0.10054134439E+04  0.22151913217E+03  0.10886157487E+04  0.00000000000E+00 0.  1.
        -15    1    4    4    0    0 -0.40098715160E+02 -0.38913797900E+02  0.79207243391E+01  0.56435170758E+02  0.00000000000E+00 0.  1.
         15    1    5    5    0    0  0.84964427822E+02 -0.37139633820E+03  0.28203714621E+03  0.47402441485E+03  0.00000000000E+00 0. -1.
         15    1    4    4    0    0  0.41846697530E+02  0.45387608848E+01  0.97984682726E+01  0.43217547652E+02  0.00000000000E+00 0. -1.
        -16    1    5    5    0    0  0.20949032112E+03 -0.61634050639E+03  0.38566431941E+03  0.75663649246E+03  0.00000000000E+00 0.  1.
         16    1    1    2    0    0  0.13889444361E+03  0.64303176016E+02 -0.85130202615E+01  0.15329395431E+03  0.00000000000E+00 0. -1.
    9900018    1    1    2    0    0 -0.81321357186E+02 -0.47604738268E+02 -0.19878824489E+02  0.13262624287E+03  0.91187600000E+02 0.  0.
<mgrwt>
<rscale>  0 0.25581956E+04</rscale>
<asrwt>0</asrwt>
<pdfrwt beam="1">  1        2 0.27564596E+00 0.25581956E+04</pdfrwt>
<pdfrwt beam="2">  1       -2 0.14048474E+00 0.25581956E+04</pdfrwt>
<totfact> 0.27556445E+00</totfact>
</mgrwt>
</event>
<event>
12    1  0.2956772E-011  0.3516351E+04  0.7818608E-02  0.8925993E-01
         -2   -1    0    0    0  501 -0.00000000000E+00  0.00000000000E+00  0.18478066275E+04  0.18478066275E+04  0.00000000000E+00 0.  1.
          2   -1    0    0  501    0  0.00000000000E+00 -0.00000000000E+00 -0.17725184285E+04  0.17725184285E+04  0.00000000000E+00 0. -1.
         23    2    1    2    0    0 -0.39089851325E+01 -0.33397080768E+02 -0.27710365268E+02  0.10246571595E+03  0.92740031446E+02 0.  0.
    9900016    2    1    2    0    0  0.15590754246E+03 -0.61653076247E+03  0.12695962371E+03  0.22484425919E+04  0.21528952599E+04 0.  0.
        -24    2    4    4    0    0 -0.15792770361E+03  0.74519274305E+03  0.33455635037E+03  0.83568646713E+03  0.78679958748E+02 0.  0.
        -15    1    4    4    0    0  0.31383524607E+03 -0.13617235055E+04 -0.20759672666E+03  0.14127561248E+04  0.00000000000E+00 0.  1.
        -15    1    3    3    0    0 -0.31607601408E+02  0.65964205644E+01 -0.40853735611E+02  0.52072842677E+02  0.00000000000E+00 0. -1.
         15    1    3    3    0    0  0.27698616276E+02 -0.39993501332E+02  0.13143370343E+02  0.50392873270E+02  0.00000000000E+00 0.  1.
         15    1    5    5    0    0 -0.13619151227E+03  0.57129339746E+03  0.28927412359E+03  0.65467838866E+03  0.00000000000E+00 0. -1.
        -16    1    5    5    0    0 -0.21736191340E+02  0.17389934559E+03  0.45282226785E+02  0.18100807847E+03  0.00000000000E+00 0.  1.
         16    1    1    2    0    0 -0.37762493749E+03  0.86529844880E+03 -0.10554021723E+02  0.94416809218E+03  0.00000000000E+00 0. -1.
    9900018    1    1    2    0    0  0.22562638017E+03 -0.21537060557E+03 -0.13407037798E+02  0.32524865599E+03  0.91187600000E+02 0.  0.
<mgrwt>
<rscale>  0 0.14390996E+04</rscale>
<asrwt>0</asrwt>
<pdfrwt beam="1">  1        2 0.27269514E+00 0.35163512E+04</pdfrwt>
<pdfrwt beam="2">  1       -2 0.28427794E+00 0.35163512E+04</pdfrwt>
<totfact> 0.28972350E-01</totfact>
</mgrwt>
</event>
<event>
12    1  0.2956772E-011  0.3334096E+04  0.7818608E-02  0.8154274E-01
          2   -1    0    0  501    0  0.00000000000E+00  0.00000000000E+00  0.26223322013E+04  0.26223322013E+04  0.00000000000E+00 0.  1.
         -2   -1    0    0    0  501 -0.00000000000E+00 -0.00000000000E+00 -0.10597622574E+04  0.10597622574E+04  0.00000000000E+00 0. -1.
    9900016    2    1    2    0    0  0.89603765048E+02  0.30308281188E+02  0.93018319044E+03  0.24349812302E+04  0.22483205725E+04 0.  0.
         23    2    3    3    0    0 -0.31708476049E+02  0.16122009068E+02  0.19735395392E+02  0.10071196644E+03  0.92130709985E+02 0.  0.
         24    2    3    3    0    0 -0.56674099885E+03 -0.22772154398E+03 -0.46892716706E+03  0.77394495815E+03  0.77753770797E+02 0.  0.
        -15    1    5    5    0    0 -0.23099699972E+03 -0.10712730647E+03 -0.15064433518E+03  0.29585400013E+03  0.00000000000E+00 0.  1.
        -15    1    4    4    0    0 -0.14104360606E+02  0.53116516269E+02  0.23078464718E+02  0.59606315290E+02  0.00000000000E+00 0.  1.
         15    1    3    3    0    0  0.68805323995E+03  0.24190781610E+03  0.13793749621E+04  0.15603243056E+04  0.00000000000E+00 0. -1.
         15    1    4    4    0    0 -0.17604115443E+02 -0.36994507201E+02 -0.33430693263E+01  0.41105651146E+02  0.00000000000E+00 0. -1.
        -16    1    1    2    0    0 -0.13206402060E+03  0.31567690663E+03  0.78459795739E+03  0.85597124348E+03  0.00000000000E+00 0.  1.
         16    1    5    5    0    0 -0.33574399912E+03 -0.12059423751E+03 -0.31828283188E+03  0.47809095802E+03  0.00000000000E+00 0. -1.
    9900018    1    1    2    0    0  0.42460255552E+02 -0.34598518782E+03 -0.15221120390E+03  0.39114198506E+03  0.91187600000E+02 0.  0.
<mgrwt>
<rscale>  0 0.33340958E+04</rscale>
<asrwt>0</asrwt>
<pdfrwt beam="1">  1        2 0.40343572E+00 0.33340958E+04</pdfrwt>
<pdfrwt beam="2">  1       -2 0.16304035E+00 0.33340958E+04</pdfrwt>
<totfact> 0.58818957E-01</totfact>
</mgrwt>
</event>
<event>
12    1  0.2956772E-011  0.3931873E+04  0.7818608E-02  0.8018433E-01
          1   -1    0    0  501    0  0.00000000000E+00  0.00000000000E+00  0.15190408299E+04  0.15190408299E+04  0.00000000000E+00 0. -1.
         -1   -1    0    0    0  501 -0.00000000000E+00 -0.00000000000E+00 -0.25443067501E+04  0.25443067501E+04  0.00000000000E+00 0.  1.
    9900016    2    1    2    0    0  0.13147721889E+03 -0.11054709629E+04 -0.10518421239E+04  0.27186810431E+04  0.22462195911E+04 0.  0.
         23    2    3    3    0    0  0.22527201535E+02 -0.73259994752E+02 -0.10394174802E+03  0.15865769971E+03  0.92162232258E+02 0.  0.
        -24    2    3    3    0    0 -0.15360442208E+03  0.65085428440E+03 -0.30184368271E+03  0.73820207640E+03  0.81406872022E+02 0.  0.
        -15    1    4    4    0    0  0.49393160412E+02 -0.91185856345E+01 -0.40411457959E+02  0.64466416325E+02  0.00000000000E+00 0. -1.
        -15    1    3    3    0    0  0.26255443943E+03 -0.16830652525E+04 -0.64605669320E+03  0.18218212670E+04  0.00000000000E+00 0.  1.
         15    1    4    4    0    0 -0.26865958876E+02 -0.64141409118E+02 -0.63530290058E+02  0.94191283380E+02  0.00000000000E+00 0.  1.
         15    1    5    5    0    0 -0.73858525296E+02  0.16345042477E+03 -0.68933330848E+02  0.19215339502E+03  0.00000000000E+00 0. -1.
        -16    1    5    5    0    0 -0.79745896780E+02  0.48740385963E+03 -0.23291035186E+03  0.54604868139E+03  0.00000000000E+00 0.  1.
         16    1    1    2    0    0 -0.54429626123E+02  0.75457798000E+03  0.36749843259E+03  0.84107408119E+03  0.00000000000E+00 0. -1.
    9900018    1    1    2    0    0 -0.77047592768E+02  0.35089298288E+03 -0.34092222888E+03  0.50359245579E+03  0.91187600000E+02 0.  0.
<mgrwt>
<rscale>  0 0.39318728E+04</rscale>
<asrwt>0</asrwt>
<pdfrwt beam="1">  1        1 0.23369859E+00 0.39318728E+04</pdfrwt>
<pdfrwt beam="2">  1       -1 0.39143180E+00 0.39318728E+04</pdfrwt>
<totfact> 0.40846480E-02</totfact>
</mgrwt>
</event>
<event>
12    1  0.2956772E-011  0.5082444E+04  0.7818608E-02  0.8540947E-01
          2   -1    0    0  501    0  0.00000000000E+00  0.00000000000E+00  0.34061270769E+04  0.34061270769E+04  0.00000000000E+00 0. -1.
         -2   -1    0    0    0  501 -0.00000000000E+00 -0.00000000000E+00 -0.20192922519E+04  0.20192922519E+04  0.00000000000E+00 0.  1.
         23    2    1    2    0    0 -0.78815644112E+02 -0.10901867855E+03  0.24925157395E+02  0.16366729022E+03  0.89826167617E+02 0.  0.
    9900016    2    1    2    0    0 -0.68440500722E+03 -0.10922658814E+04  0.97640214287E+03  0.26897613214E+04  0.21494184916E+04 0.  0.
         24    2    4    4    0    0  0.39684366525E+03  0.11486948078E+03  0.98280044043E+03  0.10691702525E+04  0.80922375559E+02 0.  0.
        -15    1    3    3    0    0 -0.16317764809E+02 -0.58837738889E+02 -0.28459648595E+02  0.67365425584E+02  0.00000000000E+00 0.  1.
        -15    1    5    5    0    0  0.20248293661E+03  0.87209781715E+02  0.59451153649E+03  0.63407322342E+03  0.00000000000E+00 0.  1.
         15    1    3    3    0    0 -0.62497879302E+02 -0.50180939658E+02  0.53384805990E+02  0.96301864639E+02  0.00000000000E+00 0. -1.
         15    1    4    4    0    0 -0.10812486725E+04 -0.12071353622E+04 -0.63982975627E+01  0.16205910689E+04  0.00000000000E+00 0. -1.
        -16    1    1    2    0    0  0.24496074362E+03  0.13066312917E+04 -0.59324953741E+03  0.14557596340E+04  0.00000000000E+00 0.  1.
         16    1    5    5    0    0  0.19436072865E+03  0.27659699065E+02  0.38828890394E+03  0.43509702908E+03  0.00000000000E+00 0. -1.
    9900018    1    1    2    0    0  0.51825990771E+03 -0.10534673172E+03  0.97875706219E+03  0.11162310832E+04  0.91187600000E+02 0.  0.
<mgrwt>
<rscale>  0 0.21466984E+04</rscale>
<asrwt>0</asrwt>
<pdfrwt beam="1">  1        2 0.52401955E+00 0.50824440E+04</pdfrwt>
<pdfrwt beam="2">  1       -2 0.31066035E+00 0.50824440E+04</pdfrwt>
<totfact> 0.18527152E-02</totfact>
</mgrwt>
</event>
<event>
12    1  0.2956772E-011  0.4879324E+04  0.7818608E-02  0.8689502E-01
          1   -1    0    0  501    0  0.00000000000E+00  0.00000000000E+00  0.27007431723E+04  0.27007431723E+04  0.00000000000E+00 0. -1.
         -1   -1    0    0    0  501 -0.00000000000E+00 -0.00000000000E+00 -0.23011974826E+04  0.23011974826E+04  0.00000000000E+00 0.  1.
         23    2    1    2    0    0  0.16463583890E+02 -0.45655020210E+02  0.52591066929E+02  0.11029723523E+03  0.83929907149E+02 0.  0.
    9900016    2    1    2    0    0  0.46902377903E+03 -0.82030351501E+03  0.11977838489E+04  0.26570574283E+04  0.21754049891E+04 0.  0.
         24    2    4    4    0    0  0.64486189626E+03  0.42841112456E+03 -0.17006005156E+03  0.79662623349E+03  0.79435369112E+02 0.  0.
        -15    1    3    3    0    0 -0.23540200237E+02 -0.18533988701E+02 -0.96667718231E+01  0.31481681052E+02  0.00000000000E+00 0.  1.
        -15    1    5    5    0    0  0.27882222909E+03  0.19825695762E+03 -0.36392151273E+02  0.34405238752E+03  0.00000000000E+00 0.  1.
         15    1    4    4    0    0 -0.17583811723E+03 -0.12487146396E+04  0.13678439004E+04  0.18604311948E+04  0.00000000000E+00 0. -1.
         15    1    3    3    0    0  0.40003784127E+02 -0.27121031509E+02  0.62257838752E+02  0.78815554180E+02  0.00000000000E+00 0. -1.
        -16    1    1    2    0    0 -0.49884601853E+03  0.84023923346E+03 -0.13832783097E+04  0.16936080425E+04  0.00000000000E+00 0.  1.
         16    1    5    5    0    0  0.36603966716E+03  0.23015416693E+03 -0.13366790029E+03  0.45257384598E+03  0.00000000000E+00 0. -1.
    9900018    1    1    2    0    0  0.13358655613E+02  0.25719301753E+02  0.53244908356E+03  0.54097794885E+03  0.91187600000E+02 0.  0.
<mgrwt>
<rscale>  0 0.18319294E+04</rscale>
<asrwt>0</asrwt>
<pdfrwt beam="1">  1        1 0.41549895E+00 0.48793235E+04</pdfrwt>
<pdfrwt beam="2">  1       -1 0.35403038E+00 0.48793235E+04</pdfrwt>
<totfact> 0.10398429E-02</totfact>
</mgrwt>
</event>
<event>
12    1  0.2956772E-011  0.3282261E+04  0.7818608E-02  0.8167424E-01
         -2   -1    0    0    0  501 -0.00000000000E+00  0.00000000000E+00  0.14685213173E+04  0.14685213173E+04  0.00000000000E+00 0.  1.
          2   -1    0    0  501    0  0.00000000000E+00 -0.00000000000E+00 -0.18340276226E+04  0.18340276226E+04  0.00000000000E+00 0. -1.
    9900016    2    1    2    0    0  0.21584234039E+03  0.22812571439E+03  0.29798334131E+03  0.22849963602E+04  0.22436098228E+04 0.  0.
         23    2    3    3    0    0  0.10475277031E+02 -0.34445364451E+00 -0.26075854605E+02  0.94253810051E+02  0.89966551777E+02 0.  0.
        -24    2    3    3    0    0 -0.54404998543E+03  0.16102988566E+02  0.10117668833E+04  0.11516720063E+04  0.80165397764E+02 0.  0.
        -15    1    4    4    0    0  0.45632463925E+01 -0.37432987043E+02 -0.39272363796E+02  0.54446031028E+02  0.00000000000E+00 0.  1.
        -15    1    3    3    0    0  0.74941704879E+03  0.21236717947E+03 -0.68770768737E+03  0.10390705439E+04  0.00000000000E+00 0.  1.
         15    1    4    4    0    0  0.59120306387E+01  0.37088533399E+02  0.13196509191E+02  0.39807779023E+02  0.00000000000E+00 0. -1.
         15    1    5    5    0    0 -0.27360487473E+03 -0.31930403404E+01  0.42764053864E+03  0.50768716083E+03  0.00000000000E+00 0. -1.
        -16    1    5    5    0    0 -0.27044511070E+03  0.19296028907E+02  0.58412634464E+03  0.64398484543E+03  0.00000000000E+00 0.  1.
         16    1    1    2    0    0 -0.40992482931E+03 -0.18956164275E+03 -0.65989519297E+03  0.79964595153E+03  0.00000000000E+00 0. -1.
    9900018    1    1    2    0    0  0.19408248892E+03 -0.38564071644E+02 -0.35944536345E+01  0.21790662821E+03  0.91187600000E+02 0.  0.
<mgrwt>
<rscale>  0 0.32822606E+04</rscale>
<asrwt>0</asrwt>
<pdfrwt beam="1">  1        2 0.28215810E+00 0.32822606E+04</pdfrwt>
<pdfrwt beam="2">  1       -2 0.22592636E+00 0.32822606E+04</pdfrwt>
<totfact> 0.62664860E-01</totfact>
</mgrwt>
</event>
<event>
12    1  0.2956772E-011  0.4546850E+04  0.7818608E-02  0.8725436E-01
         -1   -1    0    0    0  501 -0.00000000000E+00  0.00000000000E+00  0.19734095581E+04  0.19734095581E+04  0.00000000000E+00 0.  1.
          1   -1    0    0  501    0  0.00000000000E+00 -0.00000000000E+00 -0.27424662903E+04  0.27424662903E+04  0.00000000000E+00 0. -1.
         23    2    1    2    0    0 -0.13215822586E+02  0.47209847116E+02 -0.41662756487E+02  0.11121047856E+03  0.90711397476E+02 0.  0.
    9900016    2    1    2    0    0 -0.32790853502E+03  0.11198349640E+04 -0.27461730602E+03  0.24674838179E+04  0.21567353506E+04 0.  0.
        -24    2    4    4    0    0  0.78488144469E+03  0.62896943480E+02  0.27445112447E+03  0.83748514931E+03  0.77865575660E+02 0.  0.
        -15    1    4    4    0    0 -0.11127899797E+04  0.10569380205E+04 -0.54906843049E+03  0.16299986686E+04  0.00000000000E+00 0.  1.
        -15    1    3    3    0    0  0.76097023507E+01 -0.25950213858E+02 -0.11244820359E+02  0.29287662148E+02  0.00000000000E+00 0.  1.
         15    1    3    3    0    0 -0.20825524937E+02  0.73160060974E+02 -0.30417936128E+02  0.81922816413E+02  0.00000000000E+00 0. -1.
         15    1    5    5    0    0  0.31556433317E+03  0.34558857725E+02  0.15009203288E+03  0.35114495775E+03  0.00000000000E+00 0. -1.
        -16    1    5    5    0    0  0.46931711151E+03  0.28338085755E+02  0.12435909159E+03  0.48634019156E+03  0.00000000000E+00 0.  1.
         16    1    1    2    0    0 -0.38675313445E+03 -0.68370911217E+03 -0.86357828301E+03  0.11673917885E+04  0.00000000000E+00 0. -1.
    9900018    1    1    2    0    0  0.72787749206E+03 -0.48333569892E+03  0.41080161327E+03  0.96978976338E+03  0.91187600000E+02 0.  0.
<mgrwt>
<rscale>  0 0.17644515E+04</rscale>
<asrwt>0</asrwt>
<pdfrwt beam="1">  1        1 0.42191789E+00 0.45468496E+04</pdfrwt>
<pdfrwt beam="2">  1       -1 0.30360147E+00 0.45468496E+04</pdfrwt>
<totfact> 0.21371546E-02</totfact>
</mgrwt>
</event>
<event>
12    1  0.2956772E-011  0.3534420E+04  0.7818608E-02  0.8105681E-01
          2   -1    0    0  501    0  0.00000000000E+00  0.00000000000E+00  0.28680307011E+04  0.28680307011E+04  0.00000000000E+00 0. -1.
         -2   -1    0    0    0  501 -0.00000000000E+00 -0.00000000000E+00 -0.10889115323E+04  0.10889115323E+04  0.00000000000E+00 0.  1.
    9900016    2    1    2    0    0 -0.19740271479E+03 -0.34131838205E+03  0.80904711056E+03  0.24112716298E+04  0.22370086222E+04 0.  0.
         23    2    3    3    0    0  0.30384560006E+01 -0.12498309222E+02  0.28622925842E+02  0.97319345654E+02  0.92121350438E+02 0.  0.
        -24    2    3    3    0    0  0.82149694941E+02  0.90044972436E+03  0.21833226353E+03  0.93304346766E+03  0.73094847611E+02 0.  0.
        -15    1    3    3    0    0 -0.28259086573E+03 -0.12292697972E+04  0.56209192118E+03  0.13809088165E+04  0.00000000000E+00 0.  1.
        -15    1    4    4    0    0  0.15127176513E+02  0.21305538673E+02  0.49367704016E+02  0.55856312510E+02  0.00000000000E+00 0.  1.
         15    1    4    4    0    0 -0.12088720513E+02 -0.33803847895E+02 -0.20744778173E+02  0.41463033145E+02  0.00000000000E+00 0. -1.
         15    1    5    5    0    0  0.65312878439E+02  0.57570026638E+03  0.10605037679E+03  0.58901888868E+03  0.00000000000E+00 0. -1.
        -16    1    5    5    0    0  0.16836816503E+02  0.32474945798E+03  0.11228188674E+03  0.34402457898E+03  0.00000000000E+00 0.  1.
         16    1    1    2    0    0  0.21546211207E+03 -0.20660392170E+03  0.94315456587E+03  0.98926722241E+03  0.00000000000E+00 0. -1.
    9900018    1    1    2    0    0 -0.18059397288E+02  0.54792230375E+03  0.26917492278E+02  0.55640338116E+03  0.91187600000E+02 0.  0.
<mgrwt>
<rscale>  0 0.35344203E+04</rscale>
<asrwt>0</asrwt>
<pdfrwt beam="1">  1        2 0.44123549E+00 0.35344203E+04</pdfrwt>
<pdfrwt beam="2">  1       -2 0.16752485E+00 0.35344203E+04</pdfrwt>
<totfact> 0.38217871E-01</totfact>
</mgrwt>
</event>
<event>
12    1  0.2956772E-011  0.5146644E+04  0.7818608E-02  0.8628132E-01
         -2   -1    0    0    0  501 -0.00000000000E+00  0.00000000000E+00  0.21206141210E+04  0.21206141210E+04  0.00000000000E+00 0. -1.
          2   -1    0    0  501    0  0.00000000000E+00 -0.00000000000E+00 -0.32542358390E+04  0.32542358390E+04  0.00000000000E+00 0.  1.
         23    2    1    2    0    0  0.57936397703E+02  0.14401651295E+02 -0.16129184449E+02  0.10828209549E+03  0.88886601202E+02 0.  0.
    9900016    2    1    2    0    0  0.10967990160E+04 -0.29279329465E+03 -0.29614701341E+03  0.24562186223E+04  0.21579181801E+04 0.  0.
         24    2    4    4    0    0 -0.37528861726E+03  0.89336588878E+02  0.57992062401E+03  0.70106627761E+03  0.79771066772E+02 0.  0.
        -15    1    3    3    0    0 -0.17957530624E+02  0.19259067951E+02 -0.18524172402E+02  0.32195179261E+02  0.00000000000E+00 0. -1.
        -15    1    5    5    0    0 -0.16173169854E+03  0.19404460566E+01  0.20982081342E+03  0.26492580356E+03  0.00000000000E+00 0.  1.
         15    1    4    4    0    0  0.14720876332E+04 -0.38212988353E+03 -0.87606763742E+03  0.17551523447E+04  0.00000000000E+00 0. -1.
         15    1    3    3    0    0  0.75893928327E+02 -0.48574166566E+01  0.23949879522E+01  0.76086916226E+02  0.00000000000E+00 0.  1.
        -16    1    1    2    0    0  0.35400996108E+02  0.43362789182E+03 -0.14063008787E+04  0.14720626822E+04  0.00000000000E+00 0.  1.
         16    1    5    5    0    0 -0.21355691871E+03  0.87396142821E+02  0.37009981058E+03  0.43614047405E+03  0.00000000000E+00 0. -1.
    9900018    1    1    2    0    0 -0.11901364098E+04 -0.15523624846E+03  0.58495535851E+03  0.13382865599E+04  0.91187600000E+02 0.  0.
<mgrwt>
<rscale>  0 0.19546285E+04</rscale>
<asrwt>0</asrwt>
<pdfrwt beam="1">  1        2 0.50065166E+00 0.51466443E+04</pdfrwt>
<pdfrwt beam="2">  1       -2 0.32624833E+00 0.51466443E+04</pdfrwt>
<totfact> 0.18732268E-02</totfact>
</mgrwt>
</event>
<event>
12    1  0.2956772E-011  0.3042525E+04  0.7818608E-02  0.9029890E-01
         -2   -1    0    0    0  501 -0.00000000000E+00  0.00000000000E+00  0.53262128488E+03  0.53262128488E+03  0.00000000000E+00 0.  1.
          2   -1    0    0  501    0  0.00000000000E+00 -0.00000000000E+00 -0.46426458296E+04  0.46426458296E+04  0.00000000000E+00 0. -1.
         23    2    1    2    0    0  0.38626737659E+02 -0.79359034145E+01 -0.10851681389E+03  0.14843708140E+03  0.93288074331E+02 0.  0.
    9900016    2    1    2    0    0  0.13690416229E+03 -0.25239412329E+03 -0.31444622132E+04  0.38254551488E+04  0.21596339833E+04 0.  0.
         24    2    4    4    0    0  0.89762309732E+03  0.56279015205E+03 -0.16003386756E+04  0.19208459499E+04  0.78136461646E+02 0.  0.
        -15    1    3    3    0    0  0.29979523204E+02 -0.50018914004E+02 -0.63018661138E+02  0.85860440375E+02  0.00000000000E+00 0.  1.
        -15    1    5    5    0    0  0.51505818306E+03  0.36121342149E+03 -0.91105740558E+03  0.11071520510E+04  0.00000000000E+00 0.  1.
         15    1    3    3    0    0  0.86472144546E+01  0.42083010590E+02 -0.45498152755E+02  0.62576641027E+02  0.00000000000E+00 0. -1.
         15    1    4    4    0    0 -0.76071893503E+03 -0.81518427534E+03 -0.15441235376E+04  0.19046091988E+04  0.00000000000E+00 0. -1.
        -16    1    1    2    0    0 -0.21035492108E+03 -0.14758853657E+03 -0.11158281382E+02  0.25720823508E+03  0.00000000000E+00 0.  1.
         16    1    5    5    0    0  0.38256491426E+03  0.20157673055E+03 -0.68928127001E+03  0.81369389890E+03  0.00000000000E+00 0. -1.
    9900018    1    1    2    0    0  0.34824021131E+02  0.40791856328E+03 -0.84588723626E+03  0.94416664926E+03  0.91187600000E+02 0.  0.
<mgrwt>
<rscale>  0 0.12995909E+04</rscale>
<asrwt>0</asrwt>
<pdfrwt beam="1">  1        2 0.71425319E+00 0.30425246E+04</pdfrwt>
<pdfrwt beam="2">  1       -2 0.81941738E-01 0.30425246E+04</pdfrwt>
<totfact> 0.98221442E-02</totfact>
</mgrwt>
</event>
<event>
12    1  0.2956772E-011  0.3596559E+04  0.7818608E-02  0.8091280E-01
          1   -1    0    0  501    0  0.00000000000E+00  0.00000000000E+00  0.18432670592E+04  0.18432670592E+04  0.00000000000E+00 0. -1.
         -1   -1    0    0    0  501 -0.00000000000E+00 -0.00000000000E+00 -0.17543899725E+04  0.17543899725E+04  0.00000000000E+00 0.  1.
    9900016    2    1    2    0    0 -0.26793551677E+03 -0.21898892262E+03  0.31474189032E+02  0.22655712580E+04  0.22387668282E+04 0.  0.
         23    2    3    3    0    0  0.57538121887E+01 -0.29290835842E+02  0.52523089257E+01  0.96238268762E+02  0.91340890110E+02 0.  0.
         24    2    3    3    0    0 -0.42777777311E+02 -0.89463712667E+03  0.72133341250E+03  0.11527508543E+04  0.79417336991E+02 0.  0.
        -15    1    5    5    0    0 -0.26770291380E+02 -0.14107708371E+03  0.89303604397E+02  0.16909915969E+03  0.00000000000E+00 0.  1.
        -15    1    4    4    0    0 -0.35814601923E+02 -0.32894630283E+02 -0.13538224105E+02  0.50477974645E+02  0.00000000000E+00 0.  1.
         15    1    4    4    0    0  0.41568414111E+02  0.36037944413E+01  0.18790533030E+02  0.45760294117E+02  0.00000000000E+00 0. -1.
         15    1    3    3    0    0 -0.23091155165E+03  0.70493903989E+03 -0.69511153239E+03  0.10165821350E+04  0.00000000000E+00 0. -1.
        -16    1    1    2    0    0  0.64954843775E+03  0.64790370829E+02 -0.35439151463E+03  0.74276800603E+03  0.00000000000E+00 0.  1.
         16    1    5    5    0    0 -0.16007485931E+02 -0.75356004296E+03  0.63202980810E+03  0.98365169459E+03  0.00000000000E+00 0. -1.
    9900018    1    1    2    0    0 -0.38161292098E+03  0.15419855179E+03  0.41179441238E+03  0.58931776767E+03  0.91187600000E+02 0.  0.
<mgrwt>
<rscale>  0 0.35965590E+04</rscale>
<asrwt>0</asrwt>
<pdfrwt beam="1">  1        1 0.28357955E+00 0.35965590E+04</pdfrwt>
<pdfrwt beam="2">  1       -1 0.26990615E+00 0.35965590E+04</pdfrwt>
<totfact> 0.15942777E-01</totfact>
</mgrwt>
</event>
<event>
12    1  0.2956772E-011  0.3744659E+04  0.7818608E-02  0.8058136E-01
          2   -1    0    0  501    0  0.00000000000E+00  0.00000000000E+00  0.18301841296E+04  0.18301841296E+04  0.00000000000E+00 0. -1.
         -2   -1    0    0    0  501 -0.00000000000E+00 -0.00000000000E+00 -0.19154458260E+04  0.19154458260E+04  0.00000000000E+00 0.  1.
    9900016    2    1    2    0    0 -0.86344001157E+02  0.44125287466E+02  0.55374090172E+03  0.23186400600E+04  0.22494578045E+04 0.  0.
         23    2    3    3    0    0 -0.32607090387E+02 -0.14209831465E+02  0.25242448838E+02  0.10319538042E+03  0.93525203362E+02 0.  0.
        -24    2    3    3    0    0  0.38046611164E+03 -0.40393425985E+03 -0.66146029099E+03  0.86702818039E+03  0.79314567693E+02 0.  0.
        -15    1    4    4    0    0  0.31689394468E+02 -0.15540478174E+02  0.42719008478E+01  0.35552402457E+02  0.00000000000E+00 0.  1.
        -15    1    3    3    0    0 -0.43420302241E+03  0.46226937878E+03  0.11899587439E+04  0.13484164992E+04  0.00000000000E+00 0.  1.
         15    1    4    4    0    0 -0.64296484855E+02  0.13306467087E+01  0.20970547990E+02  0.67642977968E+02  0.00000000000E+00 0. -1.
         15    1    5    5    0    0  0.14946676196E+03 -0.12041927744E+03 -0.27057329540E+03  0.33173939093E+03  0.00000000000E+00 0. -1.
        -16    1    5    5    0    0  0.23099934968E+03 -0.28351498241E+03 -0.39088699559E+03  0.53528878946E+03  0.00000000000E+00 0.  1.
         16    1    1    2    0    0 -0.24657790736E+03 -0.57885775190E+03 -0.22736518188E+03  0.66900813692E+03  0.00000000000E+00 0. -1.
    9900018    1    1    2    0    0  0.33292190852E+03  0.53473246443E+03 -0.41163741623E+03  0.75798175870E+03  0.91187600000E+02 0.  0.
<mgrwt>
<rscale>  0 0.37446594E+04</rscale>
<asrwt>0</asrwt>
<pdfrwt beam="1">  1        2 0.28156679E+00 0.37446594E+04</pdfrwt>
<pdfrwt beam="2">  1       -2 0.29468397E+00 0.37446594E+04</pdfrwt>
<totfact> 0.22906450E-01</totfact>
</mgrwt>
</event>
<event>
12    1  0.2956772E-011  0.4181996E+04  0.7818608E-02  0.7968806E-01
          2   -1    0    0  501    0  0.00000000000E+00  0.00000000000E+00  0.31781782242E+04  0.31781782242E+04  0.00000000000E+00 0. -1.
         -2   -1    0    0    0  501 -0.00000000000E+00 -0.00000000000E+00 -0.13757167878E+04  0.13757167878E+04  0.00000000000E+00 0.  1.
    9900016    2    1    2    0    0  0.40546938330E+03  0.20509873945E+03  0.17403471644E+04  0.28815133303E+04  0.22511863332E+04 0.  0.
         23    2    3    3    0    0 -0.24849589786E+02  0.32658269477E+02  0.50945820214E+02  0.11175422582E+03  0.90606101970E+02 0.  0.
         24    2    3    3    0    0 -0.36180531535E+03  0.18162236276E+03  0.19046848238E+04  0.19488497477E+04  0.79380680683E+02 0.  0.
        -15    1    4    4    0    0 -0.66145793303E+00 -0.22368718309E+02  0.46350800949E+02  0.51470319933E+02  0.00000000000E+00 0.  1.
        -15    1    5    5    0    0 -0.32597414261E+03  0.17431701271E+03  0.16092604777E+04  0.16511707506E+04  0.00000000000E+00 0.  1.
         15    1    4    4    0    0 -0.24188131853E+02  0.55026987786E+02  0.45950192657E+01  0.60283905890E+02  0.00000000000E+00 0. -1.
         15    1    3    3    0    0  0.79212428844E+03 -0.91818927810E+01 -0.21528347959E+03  0.82090935680E+03  0.00000000000E+00 0. -1.
        -16    1    1    2    0    0  0.15017164970E+03 -0.48834777774E+03 -0.57977364266E+03  0.77276940488E+03  0.00000000000E+00 0.  1.
         16    1    5    5    0    0 -0.35831172741E+02  0.73053500442E+01  0.29542434602E+03  0.29767899707E+03  0.00000000000E+00 0. -1.
    9900018    1    1    2    0    0 -0.55564103300E+03  0.28324903829E+03  0.64188791460E+03  0.89961227679E+03  0.91187600000E+02 0.  0.
<mgrwt>
<rscale>  0 0.41819962E+04</rscale>
<asrwt>0</asrwt>
<pdfrwt beam="1">  1        2 0.48895049E+00 0.41819962E+04</pdfrwt>
<pdfrwt beam="2">  1       -2 0.21164874E+00 0.41819962E+04</pdfrwt>
<totfact> 0.11628905E-01</totfact>
</mgrwt>
</event>
<event>
12    1  0.2956772E-011  0.3212353E+04  0.7818608E-02  0.8185562E-01
          2   -1    0    0  501    0  0.00000000000E+00  0.00000000000E+00  0.25767049842E+04  0.25767049842E+04  0.00000000000E+00 0. -1.
         -2   -1    0    0    0  501 -0.00000000000E+00 -0.00000000000E+00 -0.10012024192E+04  0.10012024192E+04  0.00000000000E+00 0.  1.
    9900016    2    1    2    0    0 -0.19137663470E+03  0.15393540281E+03  0.15694343369E+04  0.27460861373E+04  0.22399874578E+04 0.  0.
         23    2    3    3    0    0 -0.33539608472E+02  0.31769424109E+01  0.71552389188E+02  0.12028744731E+03  0.90632926043E+02 0.  0.
         24    2    3    3    0    0  0.20826581026E+03  0.10082462923E+04  0.13211217268E+04  0.16768198470E+04  0.80168250848E+02 0.  0.
        -15    1    4    4    0    0 -0.21642619951E+01 -0.17115029619E+02 -0.16971954609E+02  0.24200320495E+02  0.00000000000E+00 0.  1.
        -15    1    5    5    0    0  0.13338455707E+03  0.64690898214E+03  0.78402481027E+03  0.10251719731E+04  0.00000000000E+00 0.  1.
         15    1    3    3    0    0 -0.36610283649E+03 -0.85748783191E+03  0.17676022087E+03  0.94897884299E+03  0.00000000000E+00 0. -1.
         15    1    4    4    0    0 -0.31375346477E+02  0.20291972029E+02  0.88524343797E+02  0.96087126818E+02  0.00000000000E+00 0. -1.
        -16    1    1    2    0    0  0.18046461976E+03 -0.19192131449E+03 -0.36361168502E+03  0.44901528640E+03  0.00000000000E+00 0.  1.
         16    1    5    5    0    0  0.74881253197E+02  0.36133731016E+03  0.53709691656E+03  0.65164787392E+03  0.00000000000E+00 0. -1.
    9900018    1    1    2    0    0  0.10912014935E+02  0.37985911678E+02  0.36967991312E+03  0.38280597973E+03  0.91187600000E+02 0.  0.
<mgrwt>
<rscale>  0 0.32123532E+04</rscale>
<asrwt>0</asrwt>
<pdfrwt beam="1">  1        2 0.39641615E+00 0.32123532E+04</pdfrwt>
<pdfrwt beam="2">  1       -2 0.15403114E+00 0.32123532E+04</pdfrwt>
<totfact> 0.73734498E-01</totfact>
</mgrwt>
</event>
<event>
12    1  0.2956772E-011  0.4215309E+04  0.7818608E-02  0.7962467E-01
         -2   -1    0    0    0  501 -0.00000000000E+00  0.00000000000E+00  0.17525195314E+04  0.17525195314E+04  0.00000000000E+00 0.  1.
          2   -1    0    0  501    0  0.00000000000E+00 -0.00000000000E+00 -0.25347549464E+04  0.25347549464E+04  0.00000000000E+00 0. -1.
    9900016    2    1    2    0    0 -0.47701689804E+03  0.26127929466E+03 -0.58546397515E+03  0.23856702059E+04  0.22478528142E+04 0.  0.
         23    2    3    3    0    0 -0.12390723244E+02 -0.13623907010E+02 -0.41954562768E+02  0.10276852086E+03  0.91989361764E+02 0.  0.
         24    2    3    3    0    0  0.69362311512E+01 -0.33740226082E+03 -0.12123450102E+04  0.12608301910E+04  0.77614108282E+02 0.  0.
        -15    1    4    4    0    0  0.45735418225E+01  0.37338645908E+02 -0.58996386348E+01  0.38077519603E+02  0.00000000000E+00 0.  1.
        -15    1    5    5    0    0 -0.55830394015E+00 -0.18905062788E+03 -0.53591591383E+03  0.56828366007E+03  0.00000000000E+00 0.  1.
         15    1    3    3    0    0 -0.47156240594E+03  0.61230546250E+03  0.66883559781E+03  0.10220714941E+04  0.00000000000E+00 0. -1.
         15    1    4    4    0    0 -0.16964265067E+02 -0.50962552919E+02 -0.36054924134E+02  0.64691001256E+02  0.00000000000E+00 0. -1.
        -16    1    1    2    0    0  0.10562995385E+04  0.24970300948E+03  0.47176824453E+02  0.10864372788E+04  0.00000000000E+00 0.  1.
         16    1    5    5    0    0  0.74945350914E+01 -0.14835163294E+03 -0.67642909636E+03  0.69254653090E+03  0.00000000000E+00 0. -1.
    9900018    1    1    2    0    0 -0.57928264045E+03 -0.51098230415E+03 -0.24394826435E+03  0.81516699317E+03  0.91187600000E+02 0.  0.
<mgrwt>
<rscale>  0 0.42153090E+04</rscale>
<asrwt>0</asrwt>
<pdfrwt beam="1">  1        2 0.38996230E+00 0.42153090E+04</pdfrwt>
<pdfrwt beam="2">  1       -2 0.26961839E+00 0.42153090E+04</pdfrwt>
<totfact> 0.12553409E-01</totfact>
</mgrwt>
</event>
<event>
12    1  0.2956772E-011  0.3492892E+04  0.7818608E-02  0.8115477E-01
          1   -1    0    0  501    0  0.00000000000E+00  0.00000000000E+00  0.16958400698E+04  0.16958400698E+04  0.00000000000E+00 0. -1.
         -1   -1    0    0    0  501 -0.00000000000E+00 -0.00000000000E+00 -0.17985620172E+04  0.17985620172E+04  0.00000000000E+00 0.  1.
    9900016    2    1    2    0    0 -0.70627990014E+01 -0.17292017060E+03  0.62348805004E+02  0.22495632911E+04  0.22420295178E+04 0.  0.
         23    2    3    3    0    0 -0.15070597235E+02  0.56507332769E+00 -0.19795089078E+02  0.94435556827E+02  0.91097676330E+02 0.  0.
         24    2    3    3    0    0  0.16180789826E+03 -0.60613266247E+02  0.11016525084E+04  0.11179236229E+04  0.79115190966E+02 0.  0.
        -15    1    5    5    0    0  0.50844566728E+02  0.14051502239E+02  0.22324435565E+03  0.22939192883E+03  0.00000000000E+00 0.  1.
        -15    1    4    4    0    0  0.28148253366E+02 -0.21289912306E+02 -0.28332554291E+02  0.45258349133E+02  0.00000000000E+00 0.  1.
         15    1    4    4    0    0 -0.43218850601E+02  0.21854985634E+02  0.85374652124E+01  0.49177207694E+02  0.00000000000E+00 0. -1.
         15    1    3    3    0    0 -0.15380010002E+03 -0.11287197768E+03 -0.10195086143E+04  0.10372041114E+04  0.00000000000E+00 0. -1.
        -16    1    1    2    0    0 -0.49508911547E+03 -0.15061053183E+02 -0.41508180260E+03  0.64624528658E+03  0.00000000000E+00 0.  1.
         16    1    5    5    0    0  0.11096333153E+03 -0.74664768486E+02  0.87840815273E+03  0.88853169408E+03  0.00000000000E+00 0. -1.
    9900018    1    1    2    0    0  0.50215191447E+03  0.18798122378E+03  0.25001105018E+03  0.59859350924E+03  0.91187600000E+02 0.  0.
<mgrwt>
<rscale>  0 0.34928919E+04</rscale>
<asrwt>0</asrwt>
<pdfrwt beam="1">  1        1 0.26089847E+00 0.34928919E+04</pdfrwt>
<pdfrwt beam="2">  1       -1 0.27670185E+00 0.34928919E+04</pdfrwt>
<totfact> 0.18307652E-01</totfact>
</mgrwt>
</event>
