<event>
11    1  0.1175232E-012  0.1078305E+04  0.7818608E-02  0.9226599E-01
          2   -1    0    0  501    0  0.00000000000E+00  0.00000000000E+00  0.47307118365E+03  0.47307118365E+03  0.00000000000E+00 0. -1.
         -2   -1    0    0    0  501 -0.00000000000E+00 -0.00000000000E+00 -0.61446491123E+03  0.61446491123E+03  0.00000000000E+00 0.  1.
    9900016    2    1    2    0    0  0.14429536402E+03 -0.16476183513E+03 -0.49375729957E+02  0.84997573144E+03  0.81978848915E+03 0.  0.
         23    2    3    3    0    0  0.19179121461E+03 -0.31053874733E+03 -0.17732752432E+03  0.41612547219E+03  0.92180117852E+02 0.  0.
        -15    1    3    3    0    0 -0.75968489493E+02 -0.55030731373E+01 -0.10176593548E+02  0.76844376932E+02  0.00000000000E+00 0. -1.
        -15    1    4    4    0    0  0.17870178583E+03 -0.27262736399E+03 -0.18569167548E+03  0.37515517616E+03  0.00000000000E+00 0.  1.
         15    1    3    3    0    0 -0.66004823860E+02  0.40731235703E+02 -0.37664672434E+02  0.86222374615E+02  0.00000000000E+00 0. -1.
         15    1    4    4    0    0  0.13089428780E+02 -0.37911383337E+02  0.83641511550E+01  0.40970296031E+02  0.00000000000E+00 0.  1.
        -16    1    1    2    0    0 -0.14429536402E+03  0.16476183513E+03 -0.92017997618E+02  0.23756036344E+03  0.00000000000E+00 0.  1.
         16    1    3    3    0    0  0.59997258011E+02  0.20385761868E+01  0.54217766366E+02  0.80891241500E+02  0.00000000000E+00 0. -1.
    9900018    1    3    3    0    0  0.34480204747E+02  0.10851017345E+03  0.12157529398E+03  0.18989226620E+03  0.91187600000E+02 0.  0.
<mgrwt>
<rscale>  0 0.10783054E+04</rscale>
<asrwt>0</asrwt>
<pdfrwt beam="1">  1        2 0.72780183E-01 0.10783054E+04</pdfrwt>
<pdfrwt beam="2">  1       -2 0.94533062E-01 0.10783054E+04</pdfrwt>
<totfact> 0.61567398E+01</totfact>
</mgrwt>
</event>
<event>
11    1  0.1175232E-012  0.1971063E+04  0.7818608E-02  0.8620270E-01
          1   -1    0    0  501    0  0.00000000000E+00  0.00000000000E+00  0.19919436567E+04  0.19919436567E+04  0.00000000000E+00 0. -1.
         -1   -1    0    0    0  501 -0.00000000000E+00 -0.00000000000E+00 -0.48760024540E+03  0.48760024540E+03  0.00000000000E+00 0.  1.
    9900016    2    1    2    0    0 -0.36869980996E+03  0.75654157696E+02 -0.21441714536E+02  0.90802128003E+03  0.82606282838E+03 0.  0.
         23    2    3    3    0    0 -0.12926653846E+03 -0.13224861843E+03 -0.19595135234E+03  0.28479535508E+03  0.92260103765E+02 0.  0.
        -15    1    3    3    0    0 -0.17026011728E+03 -0.44190529631E+02  0.74533980818E+02  0.19104089809E+03  0.00000000000E+00 0.  1.
        -15    1    4    4    0    0 -0.71059411246E+02 -0.13023461247E+03 -0.14392788038E+03  0.20670202941E+03  0.00000000000E+00 0.  1.
         15    1    3    3    0    0  0.83889595298E+02  0.94746165912E+01  0.33724923361E+02  0.90909862031E+02  0.00000000000E+00 0. -1.
         15    1    4    4    0    0 -0.58207127215E+02 -0.20140059607E+01 -0.52023471956E+02  0.78093325662E+02  0.00000000000E+00 0. -1.
        -16    1    3    3    0    0  0.25801588219E+02  0.50728214513E+02  0.15098774081E+02  0.58881632798E+02  0.00000000000E+00 0.  1.
         16    1    1    2    0    0  0.36869980996E+03 -0.75654157696E+02  0.15257851258E+04  0.15715226221E+04  0.00000000000E+00 0. -1.
    9900018    1    3    3    0    0 -0.17886433773E+03  0.19189047466E+03  0.51151959542E+02  0.28239353204E+03  0.91187600000E+02 0.  0.
<mgrwt>
<rscale>  0 0.19710629E+04</rscale>
<asrwt>0</asrwt>
<pdfrwt beam="1">  1        1 0.30645287E+00 0.19710629E+04</pdfrwt>
<pdfrwt beam="2">  1       -1 0.75015423E-01 0.19710629E+04</pdfrwt>
<totfact> 0.50151160E+00</totfact>
</mgrwt>
</event>
<event>
11    1  0.1175232E-012  0.1016646E+04  0.7818608E-02  0.9290474E-01
         -1   -1    0    0    0  501 -0.00000000000E+00  0.00000000000E+00  0.74381153074E+02  0.74381153074E+02  0.00000000000E+00 0.  1.
          1   -1    0    0  501    0  0.00000000000E+00 -0.00000000000E+00 -0.34738918254E+04  0.34738918254E+04  0.00000000000E+00 0. -1.
    9900016    2    1    2    0    0  0.71803423419E+02  0.18772047110E+03 -0.25982563046E+04  0.27221959429E+04  0.78677838069E+03 0.  0.
         23    2    3    3    0    0 -0.59371369442E+02  0.13211178595E+03 -0.28551390697E+03  0.33571719269E+03  0.10104137222E+03 0.  0.
        -15    1    3    3    0    0 -0.74939079974E+02 -0.34429798547E+01 -0.19249907595E+03  0.20660013083E+03  0.00000000000E+00 0.  1.
        -15    1    4    4    0    0 -0.74284147867E+02  0.13490144298E+03 -0.28003368184E+03  0.31958629023E+03  0.00000000000E+00 0.  1.
         15    1    4    4    0    0  0.14912778425E+02 -0.27896570297E+01 -0.54802251332E+01  0.16130902461E+02  0.00000000000E+00 0. -1.
         15    1    3    3    0    0  0.24954120843E+03 -0.28820277482E+02 -0.10889499931E+04  0.11175479903E+04  0.00000000000E+00 0. -1.
        -16    1    1    2    0    0 -0.71803423419E+02 -0.18772047110E+03 -0.80125436772E+03  0.82607703556E+03  0.00000000000E+00 0.  1.
         16    1    3    3    0    0 -0.25305220193E+02  0.15008954654E+02 -0.57137392573E+01  0.29971147878E+02  0.00000000000E+00 0. -1.
    9900018    1    3    3    0    0 -0.18122115400E+02  0.72862987840E+02 -0.10255795893E+04  0.10323594812E+04  0.91187600000E+02 0.  0.
<mgrwt>
<rscale>  0 0.10166456E+04</rscale>
<asrwt>0</asrwt>
<pdfrwt beam="1">  1        1 0.53444495E+00 0.10166456E+04</pdfrwt>
<pdfrwt beam="2">  1       -1 0.11443253E-01 0.10166456E+04</pdfrwt>
<totfact> 0.13816050E+01</totfact>
</mgrwt>
</event>
<event>
11    1  0.1175232E-012  0.1733640E+04  0.7818608E-02  0.8742407E-01
         -1   -1    0    0    0  501 -0.00000000000E+00  0.00000000000E+00  0.56593846129E+03  0.56593846129E+03  0.00000000000E+00 0.  1.
          1   -1    0    0  501    0  0.00000000000E+00 -0.00000000000E+00 -0.13276653079E+04  0.13276653079E+04  0.00000000000E+00 0. -1.
    9900016    2    1    2    0    0 -0.13772363119E+03  0.12739363246E+03 -0.66829439942E+02  0.88798385981E+03  0.86536248189E+03 0.  0.
         23    2    3    3    0    0  0.10521188951E+03  0.14228771736E+03  0.70891125923E+02  0.21151904387E+03  0.91648338662E+02 0.  0.
        -15    1    3    3    0    0 -0.26936655521E+03 -0.30236390400E+02  0.17740059177E+03  0.32394991948E+03  0.00000000000E+00 0.  1.
        -15    1    4    4    0    0  0.72486805526E+02  0.26305559215E+02  0.14485165191E+02  0.78461069529E+02  0.00000000000E+00 0.  1.
         15    1    3    3    0    0  0.65619058537E+02 -0.39605885227E+02 -0.23797667479E+03  0.25001476902E+03  0.00000000000E+00 0. -1.
         15    1    4    4    0    0  0.32725083986E+02  0.11598215815E+03  0.56405960732E+02  0.13305797435E+03  0.00000000000E+00 0. -1.
        -16    1    3    3    0    0 -0.39188024025E+02  0.54948190719E+02 -0.77144482848E+02  0.10250012744E+03  0.00000000000E+00 0.  1.
         16    1    1    2    0    0  0.20978737559E+03 -0.89828156265E+02 -0.80772106840E+03  0.83934091105E+03  0.00000000000E+00 0. -1.
    9900018    1    1    2    0    0 -0.72063744399E+02 -0.37565476192E+02  0.11282366172E+03  0.16627899836E+03  0.91187600000E+02 0.  0.
<mgrwt>
<rscale>  0 0.17336399E+04</rscale>
<asrwt>0</asrwt>
<pdfrwt beam="1">  1        1 0.20425620E+00 0.17336399E+04</pdfrwt>
<pdfrwt beam="2">  1       -1 0.87067457E-01 0.17336399E+04</pdfrwt>
<totfact> 0.10656680E+01</totfact>
</mgrwt>
</event>
<event>
11    1  0.1175232E-012  0.1411797E+04  0.7818608E-02  0.8945323E-01
          1   -1    0    0  501    0  0.00000000000E+00  0.00000000000E+00  0.69524003892E+03  0.69524003892E+03  0.00000000000E+00 0. -1.
         -1   -1    0    0    0  501 -0.00000000000E+00 -0.00000000000E+00 -0.71672005407E+03  0.71672005407E+03  0.00000000000E+00 0.  1.
    9900016    2    1    2    0    0 -0.99949595381E+02  0.23265839823E+03  0.33290691010E+01  0.62062834970E+03  0.56661151936E+03 0.  0.
         23    2    3    3    0    0 -0.13220791639E+03  0.14100550220E+03 -0.36681142370E+02  0.21699188167E+03  0.91534068518E+02 0.  0.
        -15    1    4    4    0    0 -0.52358646369E+02  0.11868792541E+03 -0.33696307277E+02  0.13402870070E+03  0.00000000000E+00 0. -1.
        -15    1    3    3    0    0  0.11921333666E+02  0.54973806719E+02 -0.45982247082E+02  0.72654006553E+02  0.00000000000E+00 0.  1.
         15    1    3    3    0    0 -0.13031971912E+03  0.50034476553E+02  0.11014815248E+03  0.17781814736E+03  0.00000000000E+00 0. -1.
         15    1    4    4    0    0 -0.79849270018E+02  0.22317576793E+02 -0.29848350937E+01  0.82963180972E+02  0.00000000000E+00 0.  1.
        -16    1    1    2    0    0  0.13809775842E+02 -0.61098096555E+02 -0.37581449176E+03  0.38099897575E+03  0.00000000000E+00 0.  1.
         16    1    3    3    0    0  0.15065670646E+03 -0.13355387248E+02 -0.24155693926E+02  0.15316431412E+03  0.00000000000E+00 0. -1.
    9900018    1    1    2    0    0  0.86139819539E+02 -0.17156030167E+03  0.35100540751E+03  0.41033276754E+03  0.91187600000E+02 0.  0.
<mgrwt>
<rscale>  0 0.14117967E+04</rscale>
<asrwt>0</asrwt>
<pdfrwt beam="1">  1        1 0.10696001E+00 0.14117967E+04</pdfrwt>
<pdfrwt beam="2">  1       -1 0.11026462E+00 0.14117967E+04</pdfrwt>
<totfact> 0.20358591E+01</totfact>
</mgrwt>
</event>
<event>
11    1  0.1175232E-012  0.7768390E+03  0.7818608E-02  0.9594160E-01
          2   -1    0    0  501    0  0.00000000000E+00  0.00000000000E+00  0.57491865610E+03  0.57491865610E+03  0.00000000000E+00 0. -1.
         -2   -1    0    0    0  501 -0.00000000000E+00 -0.00000000000E+00 -0.26241919094E+03  0.26241919094E+03  0.00000000000E+00 0.  1.
    9900016    2    1    2    0    0 -0.69954897278E+02 -0.51844877848E+02  0.36276428761E+03  0.73679864380E+03  0.63536818785E+03 0.  0.
         23    2    3    3    0    0 -0.69734387663E+02  0.43164754465E+02 -0.56529450278E+02  0.13769807904E+03  0.95074188786E+02 0.  0.
        -15    1    4    4    0    0 -0.22753877524E+02  0.67765436226E+02 -0.41148735127E+02  0.82480977758E+02  0.00000000000E+00 0. -1.
        -15    1    3    3    0    0  0.12781092799E+02 -0.54059710740E+02  0.28328494877E+02  0.62356333122E+02  0.00000000000E+00 0.  1.
         15    1    4    4    0    0 -0.46980510139E+02 -0.24600681761E+02 -0.15380715151E+02  0.55217101287E+02  0.00000000000E+00 0.  1.
         15    1    3    3    0    0  0.11394298047E+02  0.34310903721E+02  0.97929513230E+01  0.37456241640E+02  0.00000000000E+00 0. -1.
        -16    1    1    2    0    0  0.69954897278E+02  0.51844877848E+02 -0.50264822455E+02  0.10053920324E+03  0.00000000000E+00 0.  1.
         16    1    3    3    0    0 -0.12826628431E+03 -0.11484039342E+03  0.25687704711E+03  0.30923514189E+03  0.00000000000E+00 0. -1.
    9900018    1    3    3    0    0  0.10387038384E+03  0.39579568126E+02  0.12429524458E+03  0.19005284810E+03  0.91187600000E+02 0.  0.
<mgrwt>
<rscale>  0 0.77683895E+03</rscale>
<asrwt>0</asrwt>
<pdfrwt beam="1">  1        2 0.88449024E-01 0.77683895E+03</pdfrwt>
<pdfrwt beam="2">  1       -2 0.40372183E-01 0.77683895E+03</pdfrwt>
<totfact> 0.30526802E+02</totfact>
</mgrwt>
</event>
