<event>
12    1  0.3018530E-009  0.6093751E+04  0.7818608E-02  0.7678885E-01
         -2   -1    0    0    0  501 -0.00000000000E+00  0.00000000000E+00  0.22256233107E+04  0.22256233107E+04  0.00000000000E+00 0.  1.
          2   -1    0    0  501    0  0.00000000000E+00 -0.00000000000E+00 -0.41711690342E+04  0.41711690342E+04  0.00000000000E+00 0. -1.
    9900016    2    1    2    0    0 -0.17580619038E+03 -0.89899915901E+03 -0.29695413263E+04  0.38008891022E+04  0.21884869143E+04 0.  0.
         23    2    3    3    0    0  0.36166896072E+03 -0.69814538314E+03 -0.17547919003E+02  0.79365002718E+03  0.10658809992E+03 0.  0.
    9900016    2    1    2    0    0  0.17580619038E+03  0.89899915901E+03  0.10239956028E+04  0.25959032427E+04  0.22025075134E+04 0.  0.
        -15    1    4    4    0    0 -0.34108179455E+01 -0.42100903900E+02  0.49531371767E+01  0.42528265379E+02  0.00000000000E+00 0.  1.
        -15    1    5    5    0    0  0.17338206554E+03 -0.34099953524E+03  0.10369423863E+04  0.11052563215E+04  0.00000000000E+00 0.  1.
         15    1    4    4    0    0  0.36507977866E+03 -0.65604447924E+03 -0.22501056180E+02  0.75112176180E+03  0.00000000000E+00 0. -1.
         15    1    5    5    0    0 -0.15378973647E+03  0.19084859336E+03 -0.38271021087E+02  0.24807083603E+03  0.00000000000E+00 0. -1.
        -16    1    5    5    0    0 -0.16349533553E+03  0.38000340312E+03 -0.20365031699E+03  0.46109300876E+03  0.00000000000E+00 0.  1.
         16    1    3    3    0    0 -0.53747515110E+03 -0.20085377587E+03 -0.29519934073E+04  0.30072390750E+04  0.00000000000E+00 0. -1.
    9900018    1    5    5    0    0  0.31970919685E+03  0.66914669778E+03  0.22897455454E+03  0.78148307641E+03  0.91187600000E+02 0.  0.
<mgrwt>
<rscale>  0 0.60937512E+04</rscale>
<asrwt>0</asrwt>
<pdfrwt beam="1">  1        2 0.64171830E+00 0.60937512E+04</pdfrwt>
<pdfrwt beam="2">  1       -2 0.34240359E+00 0.60937512E+04</pdfrwt>
<totfact> 0.28376291E-03</totfact>
</mgrwt>
</event>
<event>
13    1  0.3018530E-009  0.4861216E+04  0.7818608E-02  0.7850280E-01
         -1   -1    0    0    0  501 -0.00000000000E+00  0.00000000000E+00  0.25271188517E+04  0.25271188517E+04  0.00000000000E+00 0.  1.
          1   -1    0    0  501    0  0.00000000000E+00 -0.00000000000E+00 -0.23377828618E+04  0.23377828618E+04  0.00000000000E+00 0. -1.
    9900016    2    1    2    0    0 -0.98239023546E+03  0.21968200107E+03 -0.12127111042E+03  0.24282029119E+04  0.22063798275E+04 0.  0.
         23    2    3    3    0    0  0.54741491804E+03 -0.24966831502E+03  0.41610237589E+03  0.74019704978E+03  0.11292973599E+03 0.  0.
    9900016    2    1    2    0    0  0.98239023546E+03 -0.21968200107E+03  0.31060710036E+03  0.24366988016E+04  0.21971967419E+04 0.  0.
        -24    2    5    5    0    0  0.30726598390E+03  0.27659988885E+03 -0.67255877567E+03  0.79137237254E+03  0.54909397295E+02 0.  0.
        -15    1    4    4    0    0  0.38835132439E+03 -0.20911880468E+03  0.25153079948E+03  0.50775502825E+03  0.00000000000E+00 0.  1.
        -15    1    5    5    0    0  0.13293590485E+03 -0.34242123109E+03 -0.13378052432E+03  0.39092388388E+03  0.00000000000E+00 0.  1.
         15    1    4    4    0    0  0.15906359365E+03 -0.40549510345E+02  0.16457157641E+03  0.23244202153E+03  0.00000000000E+00 0. -1.
         15    1    6    6    0    0  0.61751499846E+02  0.78662434641E+02 -0.19373573181E+03  0.21802421916E+03  0.00000000000E+00 0. -1.
        -16    1    6    6    0    0  0.24551448406E+03  0.19793745420E+03 -0.47882304385E+03  0.57334815338E+03  0.00000000000E+00 0.  1.
         16    1    3    3    0    0 -0.15298051535E+04  0.46935031609E+03 -0.53737348631E+03  0.16880058622E+04  0.00000000000E+00 0. -1.
    9900018    1    5    5    0    0  0.54218834672E+03 -0.15386065882E+03  0.11169464004E+04  0.12544025452E+04  0.91187600000E+02 0.  0.
<mgrwt>
<rscale>  0 0.48612160E+04</rscale>
<asrwt>0</asrwt>
<pdfrwt beam="1">  1        1 0.35965890E+00 0.48612160E+04</pdfrwt>
<pdfrwt beam="2">  1       -1 0.38878751E+00 0.48612160E+04</pdfrwt>
<totfact> 0.10919099E-02</totfact>
</mgrwt>
</event>
<event>
13    1  0.3018530E-009  0.4747941E+04  0.7818608E-02  0.7868611E-01
         -1   -1    0    0    0  501 -0.00000000000E+00  0.00000000000E+00  0.17488139698E+04  0.17488139698E+04  0.00000000000E+00 0.  1.
          1   -1    0    0  501    0  0.00000000000E+00 -0.00000000000E+00 -0.32226041639E+04  0.32226041639E+04  0.00000000000E+00 0. -1.
    9900016    2    1    2    0    0 -0.52176691305E+03 -0.96119401727E+02 -0.14876072504E+04  0.27039570273E+04  0.21947502416E+04 0.  0.
         23    2    3    3    0    0 -0.14211384299E+03 -0.42090810440E+03  0.48686611276E+03  0.66725154618E+03  0.10404824558E+03 0.  0.
    9900016    2    1    2    0    0  0.52176691305E+03  0.96119401727E+02  0.13817056269E+02  0.22674611065E+04  0.22044748371E+04 0.  0.
        -24    2    5    5    0    0 -0.39192447704E+03  0.20097190114E+02 -0.81764829150E+03  0.91231568670E+03  0.98805317952E+02 0.  0.
        -15    1    4    4    0    0  0.16409695188E+02 -0.57497318517E+02  0.63836904427E+02  0.87466394116E+02  0.00000000000E+00 0. -1.
        -15    1    5    5    0    0  0.57141577034E+03  0.29288404709E+03  0.60433255360E+03  0.88176804375E+03  0.00000000000E+00 0.  1.
         15    1    4    4    0    0 -0.15852353817E+03 -0.36341078588E+03  0.42302920833E+03  0.57978515207E+03  0.00000000000E+00 0.  1.
         15    1    6    6    0    0 -0.80752730896E+02  0.63019430752E+00 -0.91357252390E+02  0.12193255618E+03  0.00000000000E+00 0. -1.
        -16    1    6    6    0    0 -0.31117174615E+03  0.19466995807E+02 -0.72629103911E+03  0.79038313052E+03  0.00000000000E+00 0.  1.
         16    1    3    3    0    0 -0.37965307007E+03  0.32478870267E+03 -0.19744733631E+04  0.20367054811E+04  0.00000000000E+00 0. -1.
    9900018    1    5    5    0    0  0.34227561975E+03 -0.21686183548E+03  0.22713279417E+03  0.47337737604E+03  0.91187600000E+02 0.  0.
<mgrwt>
<rscale>  0 0.47479407E+04</rscale>
<asrwt>0</asrwt>
<pdfrwt beam="1">  1        1 0.49578525E+00 0.47479407E+04</pdfrwt>
<pdfrwt beam="2">  1       -1 0.26904831E+00 0.47479407E+04</pdfrwt>
<totfact> 0.15769834E-02</totfact>
</mgrwt>
</event>
<event>
13    1  0.3018530E-009  0.5584017E+04  0.7818608E-02  0.7744233E-01
         -2   -1    0    0    0  501 -0.00000000000E+00  0.00000000000E+00  0.17841148746E+04  0.17841148746E+04  0.00000000000E+00 0.  1.
          2   -1    0    0  501    0  0.00000000000E+00 -0.00000000000E+00 -0.43692872465E+04  0.43692872465E+04  0.00000000000E+00 0. -1.
    9900016    2    1    2    0    0  0.12008197771E+04  0.40144683891E+03 -0.25718879832E+04  0.36157961455E+04  0.22036892400E+04 0.  0.
         23    2    3    3    0    0  0.14610063969E+03  0.39599266108E+02  0.40022793875E+03  0.44139239394E+03  0.10831132755E+03 0.  0.
    9900016    2    1    2    0    0 -0.12008197771E+04 -0.40144683891E+03 -0.13284388713E+02  0.25376059756E+04  0.21991225321E+04 0.  0.
        -24    2    5    5    0    0  0.33422585325E+03  0.33883746085E+03  0.43743274241E+03  0.64978318509E+03  0.65977554051E+02 0.  0.
        -15    1    5    5    0    0 -0.94635199014E+03 -0.55864837793E+03 -0.59337224140E+03  0.12489038058E+04  0.00000000000E+00 0.  1.
        -15    1    4    4    0    0  0.12069738390E+02  0.50171669347E+02  0.10525642246E+03  0.11722537890E+03  0.00000000000E+00 0.  1.
         15    1    6    6    0    0  0.18792572403E+03  0.16945820736E+03  0.19213719956E+03  0.31772451157E+03  0.00000000000E+00 0. -1.
         15    1    4    4    0    0  0.13403090130E+03 -0.10572403238E+02  0.29497151629E+03  0.32416701503E+03  0.00000000000E+00 0. -1.
        -16    1    6    6    0    0  0.14630012922E+03  0.16937925349E+03  0.24529554285E+03  0.33205867352E+03  0.00000000000E+00 0.  1.
         16    1    3    3    0    0  0.10547191374E+04  0.36184757280E+03 -0.29721159219E+04  0.31744037516E+04  0.00000000000E+00 0. -1.
    9900018    1    5    5    0    0 -0.58869364019E+03 -0.18163592182E+03  0.14265511028E+03  0.63891898468E+03  0.91187600000E+02 0.  0.
<mgrwt>
<rscale>  0 0.55840166E+04</rscale>
<asrwt>0</asrwt>
<pdfrwt beam="1">  1        2 0.67219803E+00 0.55840166E+04</pdfrwt>
<pdfrwt beam="2">  1       -2 0.27447921E+00 0.55840166E+04</pdfrwt>
<totfact> 0.51392958E-03</totfact>
</mgrwt>
</event>
<event>
13    1  0.3018530E-009  0.5906960E+04  0.7818608E-02  0.7702046E-01
         -2   -1    0    0    0  501 -0.00000000000E+00  0.00000000000E+00  0.31853080146E+04  0.31853080146E+04  0.00000000000E+00 0.  1.
          2   -1    0    0  501    0  0.00000000000E+00 -0.00000000000E+00 -0.27385249214E+04  0.27385249214E+04  0.00000000000E+00 0. -1.
    9900016    2    1    2    0    0 -0.18685155631E+04  0.52430419713E+03  0.58337843754E+03  0.29860628203E+04  0.21931701860E+04 0.  0.
         23    2    3    3    0    0  0.15615322777E+03 -0.16468669839E+03  0.79847204169E+03  0.83658441255E+03  0.10397277905E+03 0.  0.
    9900016    2    1    2    0    0  0.18685155631E+04 -0.52430419713E+03 -0.13659534433E+03  0.29377701157E+04  0.22012700116E+04 0.  0.
         24    2    5    5    0    0  0.38537370663E+03  0.31982065861E+03  0.60041034405E+03  0.78818322594E+03  0.99709924139E+02 0.  0.
        -15    1    4    4    0    0  0.96383710442E+02 -0.72382174443E+02  0.57528845828E+03  0.58778040887E+03  0.00000000000E+00 0.  1.
        -15    1    6    6    0    0  0.33635648344E+03  0.22947332492E+03  0.46282431486E+03  0.61644143050E+03  0.00000000000E+00 0.  1.
         15    1    5    5    0    0  0.10190586545E+04 -0.35296862585E+02 -0.11767187223E+03  0.10264370801E+04  0.00000000000E+00 0. -1.
         15    1    4    4    0    0  0.59769517327E+02 -0.92304523951E+02  0.22318358341E+03  0.24880400368E+03  0.00000000000E+00 0. -1.
        -16    1    3    3    0    0 -0.20246687908E+04  0.68899089552E+03 -0.21509360415E+03  0.21494784077E+04  0.00000000000E+00 0.  1.
         16    1    6    6    0    0  0.49017223189E+02  0.90347333694E+02  0.13758602919E+03  0.17174179545E+03  0.00000000000E+00 0. -1.
    9900018    1    5    5    0    0  0.46408320195E+03 -0.80882799316E+03 -0.61933381616E+03  0.11231498097E+04  0.91187600000E+02 0.  0.
<mgrwt>
<rscale>  0 0.59069604E+04</rscale>
<asrwt>0</asrwt>
<pdfrwt beam="1">  1        2 0.42131152E+00 0.59069604E+04</pdfrwt>
<pdfrwt beam="2">  1       -2 0.49004739E+00 0.59069604E+04</pdfrwt>
<totfact> 0.32829281E-03</totfact>
</mgrwt>
</event>
