<event>
12    1  0.2490464E-012  0.3140775E+04  0.7818608E-02  0.8961945E-01
          2   -1    0    0  501    0  0.00000000000E+00  0.00000000000E+00  0.17355499294E+04  0.17355499294E+04  0.00000000000E+00 0. -1.
         -2   -1    0    0    0  501 -0.00000000000E+00 -0.00000000000E+00 -0.16331020361E+04  0.16331020361E+04  0.00000000000E+00 0.  1.
         24    2    1    2    0    0 -0.62750792459E+02  0.64883896771E+02  0.19216035515E+03  0.22659585370E+03  0.79199096007E+02 0.  0.
    9900016    2    1    2    0    0  0.10738016764E+03 -0.51384181340E+03 -0.38517907392E+03  0.19416058026E+04  0.18291818564E+04 0.  0.
         23    2    4    4    0    0  0.17057610590E+03 -0.57489833091E+03  0.65635032156E+03  0.89637611174E+03  0.11441193254E+03 0.  0.
        -15    1    3    3    0    0  0.12152186522E+02 -0.49087575132E+01  0.66184185546E+01  0.14682472603E+02  0.00000000000E+00 0.  1.
        -15    1    5    5    0    0  0.17609640138E+03 -0.42639798285E+03  0.51253186835E+03  0.68957530295E+03  0.00000000000E+00 0. -1.
         15    1    5    5    0    0 -0.55202954870E+01 -0.14850034805E+03  0.14381845321E+03  0.20680080879E+03  0.00000000000E+00 0.  1.
         15    1    1    2    0    0 -0.19811447952E+03  0.47450361532E+03  0.63434136686E+03  0.81657332657E+03  0.00000000000E+00 0. -1.
        -16    1    4    4    0    0 -0.63195938254E+02  0.61056517502E+02 -0.10415293955E+04  0.10452296908E+04  0.00000000000E+00 0.  1.
         16    1    3    3    0    0 -0.74902978981E+02  0.69792654284E+02  0.18554193660E+03  0.21191338110E+03  0.00000000000E+00 0. -1.
    9900018    1    1    2    0    0  0.15348510434E+03 -0.25545698683E+02 -0.33887475484E+03  0.38387698269E+03  0.91187600000E+02 0.  0.
<mgrwt>
<rscale>  0 0.13888284E+04</rscale>
<asrwt>0</asrwt>
<pdfrwt beam="1">  1        2 0.26700768E+00 0.31407751E+04</pdfrwt>
<pdfrwt beam="2">  1       -2 0.25124647E+00 0.31407751E+04</pdfrwt>
<totfact> 0.49652058E-01</totfact>
</mgrwt>
</event>
<event>
12    1  0.2490464E-012  0.3365829E+04  0.7818608E-02  0.8543557E-01
         -2   -1    0    0    0  501 -0.00000000000E+00  0.00000000000E+00  0.16907005013E+04  0.16907005013E+04  0.00000000000E+00 0.  1.
          2   -1    0    0  501    0  0.00000000000E+00 -0.00000000000E+00 -0.28080719951E+04  0.28080719951E+04  0.00000000000E+00 0. -1.
         24    2    1    2    0    0 -0.61164217984E+00 -0.54484126484E+03 -0.98723919229E+03  0.11304289191E+04  0.79849486171E+02 0.  0.
    9900016    2    1    2    0    0  0.78407295045E+03  0.15468711972E+03 -0.34426857604E+03  0.20437679468E+04  0.18492614935E+04 0.  0.
         23    2    4    4    0    0 -0.24075023237E+03  0.16525883755E+03  0.58618345412E+03  0.65952978174E+03  0.78085423344E+02 0.  0.
        -15    1    5    5    0    0 -0.18886600000E+03  0.16256435725E+03  0.46209714452E+03  0.52500600680E+03  0.00000000000E+00 0. -1.
        -15    1    3    3    0    0 -0.23251749330E+01 -0.27174530817E+03 -0.57428017891E+03  0.63533348946E+03  0.00000000000E+00 0.  1.
         15    1    5    5    0    0 -0.51884232369E+02  0.26944803012E+01  0.12408630960E+03  0.13452377493E+03  0.00000000000E+00 0.  1.
         15    1    1    2    0    0 -0.98830496641E+03  0.41393195018E+03  0.23872127979E+03  0.10977587237E+04  0.00000000000E+00 0. -1.
        -16    1    4    4    0    0  0.10248231828E+04 -0.10571717836E+02 -0.93045203015E+03  0.13842381651E+04  0.00000000000E+00 0.  1.
         16    1    3    3    0    0  0.17135327531E+01 -0.27309595667E+03 -0.41295901339E+03  0.49509542967E+03  0.00000000000E+00 0. -1.
    9900018    1    1    2    0    0  0.20484365813E+03 -0.23777805051E+02 -0.24585005243E+02  0.22681690670E+03  0.91187600000E+02 0.  0.
<mgrwt>
<rscale>  0 0.21406233E+04</rscale>
<asrwt>0</asrwt>
<pdfrwt beam="1">  1        2 0.43201107E+00 0.33658289E+04</pdfrwt>
<pdfrwt beam="2">  1       -2 0.26010777E+00 0.33658289E+04</pdfrwt>
<totfact> 0.10239307E-01</totfact>
</mgrwt>
</event>
<event>
11    1  0.2490464E-012  0.4516776E+04  0.7818608E-02  0.8340855E-01
          2   -1    0    0  501    0  0.00000000000E+00  0.00000000000E+00  0.27570019602E+04  0.27570019602E+04  0.00000000000E+00 0. -1.
         -2   -1    0    0    0  501 -0.00000000000E+00 -0.00000000000E+00 -0.23385594726E+04  0.23385594726E+04  0.00000000000E+00 0.  1.
         24    2    1    2    0    0 -0.69816731453E+02  0.55138166885E+03  0.52662375777E+02  0.56399900953E+03  0.80158818611E+02 0.  0.
    9900016    2    1    2    0    0  0.29749939348E+03  0.41766812939E+03 -0.40122743327E+03  0.19523892680E+04  0.18406215920E+04 0.  0.
        -15    1    3    3    0    0 -0.36107324427E+02  0.49143916588E+03  0.46414744378E+02  0.49494496778E+03  0.00000000000E+00 0.  1.
        -15    1    4    4    0    0  0.18976817491E+01  0.14708642244E+02  0.86136004818E+02  0.87403413427E+02  0.00000000000E+00 0.  1.
         15    1    4    4    0    0 -0.32118732485E+03  0.14622171808E+03  0.53665997029E+03  0.64229744838E+03  0.00000000000E+00 0. -1.
         15    1    1    2    0    0 -0.16446004299E+03 -0.12282871235E+04  0.14099260854E+04  0.18771329014E+04  0.00000000000E+00 0. -1.
        -16    1    4    4    0    0  0.61678903659E+03  0.25673776906E+03 -0.10240234084E+04  0.12226884062E+04  0.00000000000E+00 0.  1.
         16    1    3    3    0    0 -0.33709407026E+02  0.59942502967E+02  0.62476313988E+01  0.69054041750E+02  0.00000000000E+00 0. -1.
    9900018    1    1    2    0    0 -0.63222619041E+02  0.25923732522E+03 -0.64291854024E+03  0.70204025392E+03  0.91187600000E+02 0.  0.
<mgrwt>
<rscale>  0 0.26820422E+04</rscale>
<asrwt>0</asrwt>
<pdfrwt beam="1">  1        2 0.42415415E+00 0.45167757E+04</pdfrwt>
<pdfrwt beam="2">  1       -2 0.35977838E+00 0.45167757E+04</pdfrwt>
<totfact> 0.24548457E-02</totfact>
</mgrwt>
</event>
<event>
11    1  0.2512830E-012  0.3305235E+04  0.7818608E-02  0.8658508E-01
          1   -1    0    0  501    0  0.00000000000E+00  0.00000000000E+00  0.24734140515E+04  0.24734140515E+04  0.00000000000E+00 0. -1.
         -1   -1    0    0    0  501 -0.00000000000E+00 -0.00000000000E+00 -0.21392491465E+04  0.21392491465E+04  0.00000000000E+00 0.  1.
        -24    2    1    2    0    0 -0.33022801706E+03  0.10427209785E+03 -0.99014546328E+03  0.10519925392E+04  0.79856435958E+02 0.  0.
    9900016    2    1    2    0    0 -0.23016994723E+01  0.15523376897E+02  0.84629000090E+03  0.20394543737E+04  0.18555110088E+04 0.  0.
        -15    1    1    2    0    0  0.61744828923E+03 -0.60587946501E+03  0.20755620264E+03  0.88961333918E+03  0.00000000000E+00 0.  1.
        -15    1    4    4    0    0  0.65396622143E+02  0.63395787255E+02 -0.57886649020E+02  0.10791945220E+03  0.00000000000E+00 0. -1.
         15    1    4    4    0    0  0.47034999108E+02  0.48565084469E+03 -0.32527694324E+03  0.58640781364E+03  0.00000000000E+00 0.  1.
         15    1    3    3    0    0 -0.16235542277E+03  0.93073746265E+02 -0.52183724018E+03  0.55437903170E+03  0.00000000000E+00 0. -1.
        -16    1    3    3    0    0 -0.16787259429E+03  0.11198351588E+02 -0.46830822310E+03  0.49761350747E+03  0.00000000000E+00 0.  1.
         16    1    4    4    0    0 -0.11473332072E+03 -0.53352325505E+03  0.12294535932E+04  0.13451271079E+04  0.00000000000E+00 0. -1.
    9900018    1    1    2    0    0 -0.28491857270E+03  0.48608399026E+03  0.27046416473E+03  0.63160294604E+03  0.91187600000E+02 0.  0.
<mgrwt>
<rscale>  0 0.18926806E+04</rscale>
<asrwt>0</asrwt>
<pdfrwt beam="1">  1        1 0.38052524E+00 0.33052349E+04</pdfrwt>
<pdfrwt beam="2">  1       -1 0.32911525E+00 0.33052349E+04</pdfrwt>
<totfact> 0.24046387E-02</totfact>
</mgrwt>
</event>
