<event>
11    1  0.4792896E-012  0.3239229E+04  0.7818608E-02  0.8455303E-01
          2   -1    0    0  501    0  0.00000000000E+00  0.00000000000E+00  0.30939900030E+04  0.30939900030E+04  0.00000000000E+00 0. -1.
         -2   -1    0    0    0  501 -0.00000000000E+00 -0.00000000000E+00 -0.13945241631E+04  0.13945241631E+04  0.00000000000E+00 0.  1.
    9900016    2    1    2    0    0  0.58904581398E+03 -0.44861501991E+03  0.63821387849E+03  0.20855628528E+04  0.18422879936E+04 0.  0.
        -24    2    3    3    0    0  0.34903591309E+03 -0.92759970598E+03  0.10126114928E+04  0.14179266436E+04  0.53541089261E+02 0.  0.
        -15    1    3    3    0    0  0.50444177235E+02  0.17886915632E+03 -0.13860190707E+03  0.23183890688E+03  0.00000000000E+00 0.  1.
        -15    1    1    2    0    0  0.45138676296E+03 -0.44845371508E+03  0.19288416771E+03  0.66487972333E+03  0.00000000000E+00 0.  1.
         15    1    4    4    0    0  0.30235620902E+03 -0.78875645994E+03  0.83586844001E+03  0.11883737119E+04  0.00000000000E+00 0. -1.
         15    1    1    2    0    0 -0.22600364334E+03 -0.45477058059E+02  0.27336504607E+03  0.35759510347E+03  0.00000000000E+00 0. -1.
        -16    1    4    4    0    0  0.46679704072E+02 -0.13884324604E+03  0.17674305278E+03  0.22955293169E+03  0.00000000000E+00 0.  1.
         16    1    1    2    0    0 -0.81442893360E+03  0.94254579305E+03  0.59500274767E+03  0.13804764864E+04  0.00000000000E+00 0. -1.
    9900018    1    3    3    0    0  0.18956572365E+03  0.30011552975E+03 -0.23579570722E+03  0.43579730233E+03  0.91187600000E+02 0.  0.
<mgrwt>
<rscale>  0 0.23582476E+04</rscale>
<asrwt>0</asrwt>
<pdfrwt beam="1">  1        2 0.47599846E+00 0.32392291E+04</pdfrwt>
<pdfrwt beam="2">  1       -2 0.21454218E+00 0.32392291E+04</pdfrwt>
<totfact> 0.13242943E-01</totfact>
</mgrwt>
</event>
<event>
11    1  0.4792896E-012  0.3136060E+04  0.7818608E-02  0.8477709E-01
         -2   -1    0    0    0  501 -0.00000000000E+00  0.00000000000E+00  0.94742702748E+03  0.94742702748E+03  0.00000000000E+00 0.  1.
          2   -1    0    0  501    0  0.00000000000E+00 -0.00000000000E+00 -0.46140213835E+04  0.46140213835E+04  0.00000000000E+00 0. -1.
    9900016    2    1    2    0    0  0.82859935861E+03 -0.60580865238E+03 -0.27826500914E+04  0.34863439603E+04  0.18324496332E+04 0.  0.
        -24    2    3    3    0    0  0.72850621731E+03 -0.12038530094E+04 -0.16549283163E+04  0.21743075059E+04  0.94032021902E+02 0.  0.
        -15    1    1    2    0    0 -0.65106360007E+03 -0.11914251825E+03 -0.30585619840E+03  0.72912739976E+03  0.00000000000E+00 0. -1.
        -15    1    3    3    0    0  0.60017010403E+02  0.53566897390E+03 -0.10147146328E+04  0.11489948116E+04  0.00000000000E+00 0.  1.
         15    1    1    2    0    0 -0.49880142982E+02 -0.21817785469E+03  0.15445947972E+02  0.22433943535E+03  0.00000000000E+00 0.  1.
         15    1    4    4    0    0  0.42777693803E+03 -0.68666089783E+03 -0.88102434887E+03  0.11961188071E+04  0.00000000000E+00 0. -1.
        -16    1    4    4    0    0  0.30072927928E+03 -0.51719211157E+03 -0.77390396740E+03  0.97818869880E+03  0.00000000000E+00 0.  1.
         16    1    1    2    0    0 -0.12765561556E+03  0.94312902532E+03 -0.59353401422E+03  0.11216376156E+04  0.00000000000E+00 0. -1.
    9900018    1    3    3    0    0  0.40076130896E+02  0.62375383117E+02 -0.11300714227E+03  0.16304164279E+03  0.91187600000E+02 0.  0.
<mgrwt>
<rscale>  0 0.23005375E+04</rscale>
<asrwt>0</asrwt>
<pdfrwt beam="1">  1        2 0.70984946E+00 0.31360604E+04</pdfrwt>
<pdfrwt beam="2">  1       -2 0.14575800E+00 0.31360604E+04</pdfrwt>
<totfact> 0.25105846E-02</totfact>
</mgrwt>
</event>
<event>
11    1  0.4792896E-012  0.4895554E+04  0.7818608E-02  0.7844824E-01
         -2   -1    0    0    0  501 -0.00000000000E+00  0.00000000000E+00  0.20815755994E+04  0.20815755994E+04  0.00000000000E+00 0.  1.
          2   -1    0    0  501    0  0.00000000000E+00 -0.00000000000E+00 -0.28784029260E+04  0.28784029260E+04  0.00000000000E+00 0. -1.
    9900016    2    1    2    0    0 -0.28341519564E+03 -0.11946644256E+04 -0.64622439347E+03  0.22948755107E+04  0.18279224218E+04 0.  0.
         24    2    3    3    0    0  0.27123090145E+03 -0.10462384221E+04 -0.71561633825E+03  0.13009252788E+04  0.11008541975E+03 0.  0.
        -15    1    4    4    0    0  0.43105241164E+02 -0.27360128585E+03 -0.23198390897E+03  0.36129248464E+03  0.00000000000E+00 0.  1.
        -15    1    1    2    0    0  0.20491872822E+03  0.33675899321E+03  0.30523525382E+03  0.49856480507E+03  0.00000000000E+00 0.  1.
         15    1    3    3    0    0 -0.31394071054E+03 -0.39976007834E+03 -0.19821559153E+03  0.54557887669E+03  0.00000000000E+00 0. -1.
         15    1    1    2    0    0 -0.77016340076E+03  0.95566230734E+02 -0.64632592791E+03  0.10099612732E+04  0.00000000000E+00 0. -1.
        -16    1    1    2    0    0  0.84865986818E+03  0.76233920162E+03  0.19048774096E+03  0.11565769363E+04  0.00000000000E+00 0.  1.
         16    1    4    4    0    0  0.22812566028E+03 -0.77263713624E+03 -0.48363242928E+03  0.93963279414E+03  0.00000000000E+00 0. -1.
    9900018    1    3    3    0    0 -0.24070538655E+03  0.25133407487E+03  0.26760753632E+03  0.44837135523E+03  0.91187600000E+02 0.  0.
<mgrwt>
<rscale>  0 0.48955544E+04</rscale>
<asrwt>0</asrwt>
<pdfrwt beam="1">  1        2 0.44283122E+00 0.48955544E+04</pdfrwt>
<pdfrwt beam="2">  1       -2 0.32024240E+00 0.48955544E+04</pdfrwt>
<totfact> 0.36273806E-02</totfact>
</mgrwt>
</event>
<event>
11    1  0.4792896E-012  0.3916484E+04  0.7818608E-02  0.8021610E-01
         -2   -1    0    0    0  501 -0.00000000000E+00  0.00000000000E+00  0.21515149130E+04  0.21515149130E+04  0.00000000000E+00 0.  1.
          2   -1    0    0  501    0  0.00000000000E+00 -0.00000000000E+00 -0.17823312205E+04  0.17823312205E+04  0.00000000000E+00 0. -1.
    9900016    2    1    2    0    0  0.11415204797E+03  0.53513186248E+03  0.23461987306E+03  0.19373006764E+04  0.18435538033E+04 0.  0.
        -24    2    3    3    0    0 -0.29122100351E+03 -0.58972416452E+03  0.16937249621E+03  0.68536722942E+03  0.91961587558E+02 0.  0.
        -15    1    3    3    0    0  0.32381462602E+03  0.62192757311E+03 -0.10073489548E+03  0.70837655056E+03  0.00000000000E+00 0.  1.
        -15    1    1    2    0    0  0.42461539731E+03 -0.92034197800E+03 -0.23436730487E+02  0.10138426271E+04  0.00000000000E+00 0.  1.
         15    1    4    4    0    0 -0.16664723311E+03 -0.43230444671E+03  0.11433100787E+03  0.47721066031E+03  0.00000000000E+00 0. -1.
         15    1    1    2    0    0 -0.40589112820E+03  0.22112684255E+03 -0.24839463776E+03  0.52473286967E+03  0.00000000000E+00 0. -1.
        -16    1    4    4    0    0 -0.12457377040E+03 -0.15741971781E+03  0.55041488340E+02  0.20815656911E+03  0.00000000000E+00 0.  1.
         16    1    1    2    0    0 -0.13287631708E+03  0.16408327297E+03  0.40639518765E+03  0.45796996042E+03  0.00000000000E+00 0. -1.
    9900018    1    3    3    0    0  0.81558425456E+02  0.50292845390E+03  0.16598227233E+03  0.54355689640E+03  0.91187600000E+02 0.  0.
<mgrwt>
<rscale>  0 0.39164842E+04</rscale>
<asrwt>0</asrwt>
<pdfrwt beam="1">  1        2 0.27420480E+00 0.39164842E+04</pdfrwt>
<pdfrwt beam="2">  1       -2 0.33100229E+00 0.39164842E+04</pdfrwt>
<totfact> 0.14341401E-01</totfact>
</mgrwt>
</event>
