<event>
13    1  0.4257036E-015  0.5105634E+04  0.7818608E-02  0.7812416E-01
          2   -1    0    0  501    0  0.00000000000E+00  0.00000000000E+00  0.28596052877E+04  0.28596052877E+04  0.00000000000E+00 0. -1.
         -2   -1    0    0    0  501 -0.00000000000E+00 -0.00000000000E+00 -0.22789424334E+04  0.22789424334E+04  0.00000000000E+00 0.  1.
    9900016    2    1    2    0    0 -0.55017488982E+03  0.11798800681E+04 -0.40091490335E+03  0.24982519699E+04  0.20942112503E+04 0.  0.
        -24    2    3    3    0    0  0.10720310915E+03 -0.21896119576E+03  0.60286581929E+03  0.65529823902E+03  0.80821248025E+02 0.  0.
    9900016    2    1    2    0    0  0.49373402478E+03 -0.11264779911E+04  0.95262377694E+03  0.25170445263E+04  0.19787104728E+04 0.  0.
         23    2    5    5    0    0  0.48802665205E+02  0.76411967247E+02 -0.53508485851E+03  0.55281817712E+03  0.10522187167E+03 0.  0.
        -15    1    6    6    0    0  0.75014728897E+02  0.82987995917E+02 -0.43277812640E+03  0.44700237550E+03  0.00000000000E+00 0. -1.
        -15    1    3    3    0    0 -0.65737799897E+03  0.13988412638E+04 -0.10037807226E+04  0.18429537308E+04  0.00000000000E+00 0.  1.
         15    1    4    4    0    0  0.10313907513E+03 -0.15368654120E+03  0.50251256502E+03  0.53551479884E+03  0.00000000000E+00 0. -1.
         15    1    6    6    0    0 -0.26212063692E+02 -0.65760286699E+01 -0.10230673212E+03  0.10581580162E+03  0.00000000000E+00 0.  1.
        -16    1    4    4    0    0  0.40640340228E+01 -0.65274654560E+02  0.10035325427E+03  0.11978344018E+03  0.00000000000E+00 0.  1.
         16    1    5    5    0    0  0.44493135958E+03 -0.12028899583E+04  0.14877086355E+04  0.19642263491E+04  0.00000000000E+00 0. -1.
    9900018    1    1    2    0    0  0.56440865031E+02 -0.53402076965E+02  0.28953980705E+02  0.12325122499E+03  0.91187600000E+02 0.  0.
<mgrwt>
<rscale>  0 0.51056345E+04</rscale>
<asrwt>0</asrwt>
<pdfrwt beam="1">  1        2 0.43993927E+00 0.51056345E+04</pdfrwt>
<pdfrwt beam="2">  1       -2 0.35060653E+00 0.51056345E+04</pdfrwt>
<totfact> 0.23679238E-02</totfact>
</mgrwt>
</event>
<event>
12    1  0.4257036E-015  0.5314265E+04  0.7818608E-02  0.8371278E-01
          2   -1    0    0  501    0  0.00000000000E+00  0.00000000000E+00  0.23563107494E+04  0.23563107494E+04  0.00000000000E+00 0. -1.
         -2   -1    0    0    0  501 -0.00000000000E+00 -0.00000000000E+00 -0.37984138596E+04  0.37984138596E+04  0.00000000000E+00 0.  1.
         24    2    1    2    0    0 -0.16955514898E+03 -0.23762123862E+03 -0.73456348381E+03  0.79356546215E+03  0.70355023789E+02 0.  0.
    9900016    2    1    2    0    0  0.14492911202E+04 -0.73121814158E+03 -0.20011779879E+04  0.32996368669E+04  0.20610107696E+04 0.  0.
         23    2    4    4    0    0 -0.17383652861E+03  0.48837422794E+03 -0.22019289856E+03  0.57299455465E+03  0.10540076796E+03 0.  0.
        -15    1    3    3    0    0 -0.57818435346E+01 -0.30668304558E+02 -0.41291388854E+02  0.51758607135E+02  0.00000000000E+00 0.  1.
        -15    1    5    5    0    0 -0.83160296070E+02  0.99655442897E+02 -0.57326151201E+02  0.14189126031E+03  0.00000000000E+00 0. -1.
         15    1    5    5    0    0 -0.90676232543E+02  0.38871878504E+03 -0.16286674736E+03  0.43110329434E+03  0.00000000000E+00 0.  1.
         15    1    1    2    0    0 -0.12797359712E+04  0.96883938021E+03  0.12936383614E+04  0.20615222800E+04  0.00000000000E+00 0. -1.
        -16    1    4    4    0    0  0.15384949380E+04 -0.11479115758E+04 -0.16823574788E+04  0.25524486962E+04  0.00000000000E+00 0.  1.
         16    1    3    3    0    0 -0.16377330545E+03 -0.20695293406E+03 -0.69327209496E+03  0.74180685501E+03  0.00000000000E+00 0. -1.
    9900018    1    4    4    0    0  0.84632710847E+02 -0.71680793764E+02 -0.98627610449E+02  0.17419361606E+03  0.91187600000E+02 0.  0.
<mgrwt>
<rscale>  0 0.25909605E+04</rscale>
<asrwt>0</asrwt>
<pdfrwt beam="1">  1        2 0.36250935E+00 0.53142652E+04</pdfrwt>
<pdfrwt beam="2">  1       -2 0.58437135E+00 0.53142652E+04</pdfrwt>
<totfact> 0.17436147E-03</totfact>
</mgrwt>
</event>
<event>
13    1  0.4257036E-015  0.4477393E+04  0.7818608E-02  0.7914607E-01
         -2   -1    0    0    0  501 -0.00000000000E+00  0.00000000000E+00  0.16897064140E+04  0.16897064140E+04  0.00000000000E+00 0. -1.
          2   -1    0    0  501    0  0.00000000000E+00 -0.00000000000E+00 -0.29660543344E+04  0.29660543344E+04  0.00000000000E+00 0.  1.
    9900016    2    1    2    0    0 -0.33538849617E+03  0.15831409710E+03 -0.15513208632E+04  0.25265878272E+04  0.19594644246E+04 0.  0.
        -24    2    3    3    0    0 -0.86398780366E+03 -0.30424877540E+03 -0.11356747927E+03  0.92642645036E+03  0.79537119372E+02 0.  0.
    9900016    2    1    2    0    0  0.33538849617E+03 -0.15831409710E+03  0.27497294289E+03  0.21291729212E+04  0.20785135103E+04 0.  0.
         23    2    5    5    0    0 -0.10375941848E+03  0.58395811511E+03 -0.56192889029E+03  0.82468471899E+03  0.11210580207E+03 0.  0.
        -15    1    3    3    0    0  0.52859930749E+03  0.46256287251E+03 -0.14377533840E+04  0.16001613769E+04  0.00000000000E+00 0.  1.
        -15    1    6    6    0    0 -0.12695779362E+03  0.51163827193E+03 -0.47964232397E+03  0.71270524174E+03  0.00000000000E+00 0. -1.
         15    1    6    6    0    0  0.23198375139E+02  0.72319843179E+02 -0.82286566324E+02  0.11197947724E+03  0.00000000000E+00 0.  1.
         15    1    4    4    0    0 -0.18522085708E+03 -0.79581305464E+02  0.51264714136E+01  0.20165869876E+03  0.00000000000E+00 0. -1.
        -16    1    4    4    0    0 -0.67876694658E+03 -0.22466746994E+03 -0.11869395069E+03  0.72476775159E+03  0.00000000000E+00 0.  1.
         16    1    5    5    0    0  0.45396714887E+03 -0.77684906926E+03  0.77881211468E+03  0.11900121674E+04  0.00000000000E+00 0. -1.
    9900018    1    5    5    0    0 -0.14819234220E+02  0.34576857048E+02  0.58089718495E+02  0.11447603476E+03  0.91187600000E+02 0.  0.
<mgrwt>
<rscale>  0 0.44773926E+04</rscale>
<asrwt>0</asrwt>
<pdfrwt beam="1">  1        2 0.45631605E+00 0.44773926E+04</pdfrwt>
<pdfrwt beam="2">  1       -2 0.25995484E+00 0.44773926E+04</pdfrwt>
<totfact> 0.77447496E-02</totfact>
</mgrwt>
</event>
<event>
11    1  0.4620222E-015  0.4534355E+04  0.7818608E-02  0.8471826E-01
          1   -1    0    0  501    0  0.00000000000E+00  0.00000000000E+00  0.38780380553E+04  0.38780380553E+04  0.00000000000E+00 0. -1.
         -1   -1    0    0    0  501 -0.00000000000E+00 -0.00000000000E+00 -0.17161223103E+04  0.17161223103E+04  0.00000000000E+00 0.  1.
        -24    2    1    2    0    0  0.95332053310E+02  0.28213180539E+03  0.80359559630E+03  0.86072545541E+03  0.79974190841E+02 0.  0.
    9900016    2    1    2    0    0 -0.17001911799E+04 -0.59126859980E+02  0.11765358727E+04  0.28680255012E+04  0.19867530249E+04 0.  0.
        -15    1    1    2    0    0  0.17034827664E+04 -0.19764607253E+03  0.13218827635E+03  0.17199974552E+04  0.00000000000E+00 0.  1.
        -15    1    4    4    0    0 -0.30851196255E+02 -0.47585336844E+03 -0.98737477947E+02  0.48696746720E+03  0.00000000000E+00 0. -1.
         15    1    3    3    0    0  0.86342784495E+02  0.16972953359E+03  0.57721198174E+03  0.60781318090E+03  0.00000000000E+00 0. -1.
         15    1    4    4    0    0  0.58823498564E+02 -0.14552847913E+03 -0.66303777319E+01  0.15710730133E+03  0.00000000000E+00 0.  1.
        -16    1    3    3    0    0  0.89892688145E+01  0.11240227180E+03  0.22638361456E+03  0.25291227451E+03  0.00000000000E+00 0.  1.
         16    1    4    4    0    0 -0.17281634822E+04  0.56225498759E+03  0.12819037284E+04  0.22239507326E+04  0.00000000000E+00 0. -1.
    9900018    1    1    2    0    0 -0.98623639806E+02 -0.25358872886E+02  0.49595999646E+02  0.14541195390E+03  0.91187600000E+02 0.  0.
<mgrwt>
<rscale>  0 0.23155233E+04</rscale>
<asrwt>0</asrwt>
<pdfrwt beam="1">  1        1 0.59662124E+00 0.45343547E+04</pdfrwt>
<pdfrwt beam="2">  1       -1 0.26401882E+00 0.45343547E+04</pdfrwt>
<totfact> 0.50638937E-03</totfact>
</mgrwt>
</event>
<event>
13    1  0.4257036E-015  0.5384659E+04  0.7818608E-02  0.7771763E-01
          4   -1    0    0  501    0  0.00000000000E+00  0.00000000000E+00  0.31314145831E+04  0.31314145831E+04  0.00000000000E+00 0.  1.
         -4   -1    0    0    0  501 -0.00000000000E+00 -0.00000000000E+00 -0.23148122414E+04  0.23148122414E+04  0.00000000000E+00 0. -1.
    9900016    2    1    2    0    0  0.10202055348E+04 -0.16793735182E+03 -0.10877695517E+04  0.24432788604E+04  0.19280421947E+04 0.  0.
        -24    2    3    3    0    0 -0.92435002382E+02 -0.28922894561E+03  0.44537797467E+03  0.54506339487E+03  0.80839046617E+02 0.  0.
    9900016    2    1    2    0    0 -0.96354839539E+03  0.20290691580E+03  0.18527693917E+04  0.28788073244E+04  0.19710861131E+04 0.  0.
         23    2    5    5    0    0  0.90089284726E+02  0.48302152714E+03 -0.20974682135E+03  0.54587147319E+03  0.11205383201E+03 0.  0.
        -15    1    3    3    0    0  0.11126405372E+04  0.12129159379E+03 -0.15331475264E+04  0.18982154655E+04  0.00000000000E+00 0.  1.
        -15    1    6    6    0    0 -0.11838692826E+02  0.90296506097E+02 -0.45123981503E+01  0.91181003495E+02  0.00000000000E+00 0.  1.
         15    1    4    4    0    0 -0.26238351791E+01 -0.10725463183E+03  0.11447618761E+03  0.15689244115E+03  0.00000000000E+00 0. -1.
         15    1    6    6    0    0  0.10192797755E+03  0.39272502104E+03 -0.20523442320E+03  0.45469046969E+03  0.00000000000E+00 0. -1.
        -16    1    4    4    0    0 -0.89811167203E+02 -0.18197431378E+03  0.33090178706E+03  0.38817095372E+03  0.00000000000E+00 0.  1.
         16    1    5    5    0    0 -0.10536376801E+04 -0.28011461134E+03  0.20625162131E+04  0.23329358512E+04  0.00000000000E+00 0. -1.
    9900018    1    1    2    0    0 -0.56657139438E+02 -0.34969563981E+02  0.51602501677E+02  0.12414063971E+03  0.91187600000E+02 0.  0.
<mgrwt>
<rscale>  0 0.53846585E+04</rscale>
<asrwt>0</asrwt>
<pdfrwt beam="1">  1        4 0.48175609E+00 0.53846585E+04</pdfrwt>
<pdfrwt beam="2">  1       -4 0.35612496E+00 0.53846585E+04</pdfrwt>
<totfact> 0.30804488E-05</totfact>
</mgrwt>
</event>
<event>
13    1  0.4257036E-015  0.4738092E+04  0.7818608E-02  0.7870230E-01
         -1   -1    0    0    0  501 -0.00000000000E+00  0.00000000000E+00  0.23556501950E+04  0.23556501950E+04  0.00000000000E+00 0.  1.
          1   -1    0    0  501    0  0.00000000000E+00 -0.00000000000E+00 -0.23825176198E+04  0.23825176198E+04  0.00000000000E+00 0. -1.
    9900016    2    1    2    0    0  0.55108819217E+03 -0.11174601206E+04 -0.27253981023E+03  0.23043885577E+04  0.19192481236E+04 0.  0.
         24    2    3    3    0    0 -0.87976288108E+02 -0.90115049883E+03  0.68141737563E+03  0.11359590241E+04  0.79127845141E+02 0.  0.
    9900016    2    1    2    0    0 -0.56438336026E+03  0.10396250161E+04  0.21670068226E+03  0.23097244186E+04  0.19719327962E+04 0.  0.
         23    2    5    5    0    0 -0.79262304133E+03 -0.33403775276E+03  0.29007177598E+03  0.91529762889E+03  0.11745470746E+03 0.  0.
        -15    1    6    6    0    0 -0.37751796366E+02 -0.31266106249E+02 -0.67917636610E+01  0.49486317124E+02  0.00000000000E+00 0.  1.
        -15    1    4    4    0    0 -0.27840677699E+02 -0.42306849518E+03  0.36550969012E+03  0.55978512710E+03  0.00000000000E+00 0.  1.
         15    1    3    3    0    0  0.63906448027E+03 -0.21630962177E+03 -0.95395718586E+03  0.11684295336E+04  0.00000000000E+00 0. -1.
         15    1    6    6    0    0 -0.75487124497E+03 -0.30277164651E+03  0.29686353964E+03  0.86581131176E+03  0.00000000000E+00 0. -1.
        -16    1    5    5    0    0  0.22823968107E+03  0.13736627689E+04 -0.73371093719E+02  0.13944267898E+04  0.00000000000E+00 0.  1.
         16    1    4    4    0    0 -0.60135610409E+02 -0.47808200366E+03  0.31590768550E+03  0.57617389703E+03  0.00000000000E+00 0. -1.
    9900018    1    1    2    0    0  0.13295168096E+02  0.77835104503E+02  0.28971703150E+02  0.12405483854E+03  0.91187600000E+02 0.  0.
<mgrwt>
<rscale>  0 0.47380916E+04</rscale>
<asrwt>0</asrwt>
<pdfrwt beam="1">  1        1 0.36654117E+00 0.47380916E+04</pdfrwt>
<pdfrwt beam="2">  1       -1 0.36240772E+00 0.47380916E+04</pdfrwt>
<totfact> 0.15466919E-02</totfact>
</mgrwt>
</event>
<event>
12    1  0.4257036E-015  0.4480560E+04  0.7818608E-02  0.7914049E-01
          1   -1    0    0  501    0  0.00000000000E+00  0.00000000000E+00  0.15106332365E+04  0.15106332365E+04  0.00000000000E+00 0. -1.
         -1   -1    0    0    0  501 -0.00000000000E+00 -0.00000000000E+00 -0.33223515146E+04  0.33223515146E+04  0.00000000000E+00 0.  1.
    9900016    2    1    2    0    0 -0.85512855043E+02 -0.98142601375E+03 -0.11920342794E+04  0.24536497028E+04  0.19049781289E+04 0.  0.
        -24    2    3    3    0    0  0.52142709428E+03  0.31829899038E+03 -0.47483312135E+02  0.61853169425E+03  0.84417592572E+02 0.  0.
    9900016    2    1    2    0    0  0.83301806889E+02  0.94315350902E+03 -0.59936743317E+03  0.22783518092E+04  0.19837257658E+04 0.  0.
        -15    1    5    5    0    0 -0.11627112552E+03  0.19617637608E+03 -0.78407616577E+03  0.81656572233E+03  0.00000000000E+00 0. -1.
        -15    1    3    3    0    0 -0.60693994932E+03 -0.12997250041E+04 -0.11445509673E+04  0.18351180085E+04  0.00000000000E+00 0.  1.
         15    1    5    5    0    0 -0.12868575865E+03  0.90280517168E+01 -0.42863704993E+03  0.44762847404E+03  0.00000000000E+00 0.  1.
         15    1    4    4    0    0  0.42762205592E+03  0.29538956974E+03 -0.31740807411E+02  0.52069482374E+03  0.00000000000E+00 0. -1.
        -16    1    4    4    0    0  0.93805038360E+02  0.22909420648E+02 -0.15742504725E+02  0.97836870510E+02  0.00000000000E+00 0.  1.
         16    1    5    5    0    0  0.32825869106E+03  0.73794908123E+03  0.61334578253E+03  0.10141576128E+04  0.00000000000E+00 0. -1.
    9900018    1    1    2    0    0  0.22110481542E+01  0.38272504728E+02 -0.20316565418E+02  0.10098323909E+03  0.91187600000E+02 0.  0.
<mgrwt>
<rscale>  0 0.44805601E+04</rscale>
<asrwt>0</asrwt>
<pdfrwt beam="1">  1        1 0.23240511E+00 0.44805601E+04</pdfrwt>
<pdfrwt beam="2">  1       -1 0.51113100E+00 0.44805601E+04</pdfrwt>
<totfact> 0.61498693E-03</totfact>
</mgrwt>
</event>
<event>
12    1  0.4257036E-015  0.4078407E+04  0.7818608E-02  0.7988913E-01
         -1   -1    0    0    0  501 -0.00000000000E+00  0.00000000000E+00  0.98257686372E+03  0.98257686372E+03  0.00000000000E+00 0.  1.
          1   -1    0    0  501    0  0.00000000000E+00 -0.00000000000E+00 -0.42320874398E+04  0.42320874398E+04  0.00000000000E+00 0. -1.
    9900016    2    1    2    0    0  0.32058098518E+03  0.29526963917E+01 -0.11852118439E+04  0.22680315263E+04  0.19069501836E+04 0.  0.
        -24    2    3    3    0    0 -0.18358752653E+03 -0.38353242921E+03 -0.14985442620E+04  0.15596997927E+04  0.78911558906E+02 0.  0.
    9900016    2    1    2    0    0 -0.34925780254E+03 -0.12014685125E+02 -0.20164851519E+04  0.28393677021E+04  0.19681644277E+04 0.  0.
        -15    1    5    5    0    0  0.70787843766E+02  0.19681712321E+02  0.14350258697E+02  0.74861328799E+02  0.00000000000E+00 0. -1.
        -15    1    3    3    0    0  0.50416851171E+03  0.38648512560E+03  0.31333241810E+03  0.70833173354E+03  0.00000000000E+00 0.  1.
         15    1    5    5    0    0  0.47037209487E+03 -0.25364949877E+03  0.17088214434E+01  0.53440705079E+03  0.00000000000E+00 0.  1.
         15    1    4    4    0    0 -0.85458130216E+02 -0.18894897188E+03 -0.87262234715E+03  0.89692506194E+03  0.00000000000E+00 0. -1.
        -16    1    4    4    0    0 -0.98129396312E+02 -0.19458345733E+03 -0.62592191486E+03  0.66277473080E+03  0.00000000000E+00 0.  1.
         16    1    5    5    0    0 -0.89041774118E+03  0.22195310132E+03 -0.20325442321E+04  0.22300993225E+04  0.00000000000E+00 0. -1.
    9900018    1    1    2    0    0  0.28676817361E+02  0.90619887334E+01 -0.47813580257E+02  0.10726507514E+03  0.91187600000E+02 0.  0.
<mgrwt>
<rscale>  0 0.40784071E+04</rscale>
<asrwt>0</asrwt>
<pdfrwt beam="1">  1        1 0.65109038E+00 0.40784071E+04</pdfrwt>
<pdfrwt beam="2">  1       -1 0.15116567E+00 0.40784071E+04</pdfrwt>
<totfact> 0.15612874E-02</totfact>
</mgrwt>
</event>
<event>
12    1  0.4257036E-015  0.5050494E+04  0.7818608E-02  0.7820765E-01
         -2   -1    0    0    0  501 -0.00000000000E+00  0.00000000000E+00  0.20368617682E+04  0.20368617682E+04  0.00000000000E+00 0.  1.
          2   -1    0    0  501    0  0.00000000000E+00 -0.00000000000E+00 -0.31307336739E+04  0.31307336739E+04  0.00000000000E+00 0. -1.
    9900016    2    1    2    0    0 -0.13108640214E+04  0.47917556738E+03  0.23184649907E+03  0.23356546800E+04  0.18583746334E+04 0.  0.
        -24    2    3    3    0    0 -0.43819126596E+02 -0.33564200263E+02 -0.68369097357E+03  0.69050614609E+03  0.79490370800E+02 0.  0.
    9900016    2    1    2    0    0  0.11974904828E+04 -0.40983299225E+03 -0.12444925778E+04  0.26514559558E+04  0.19696472708E+04 0.  0.
        -15    1    3    3    0    0 -0.12670448948E+04  0.51273976764E+03  0.91553747264E+03  0.16451485339E+04  0.00000000000E+00 0.  1.
        -15    1    5    5    0    0  0.26498019353E+03 -0.59915366741E+02  0.39971132150E+03  0.48329441821E+03  0.00000000000E+00 0. -1.
         15    1    5    5    0    0 -0.16071418488E+01 -0.33062827524E+02  0.13219392054E+03  0.13627533194E+03  0.00000000000E+00 0.  1.
         15    1    4    4    0    0  0.15234640935E+02 -0.30771706952E+02 -0.17065302885E+03  0.17407311248E+03  0.00000000000E+00 0. -1.
        -16    1    4    4    0    0 -0.59053767531E+02 -0.27924933109E+01 -0.51303794472E+03  0.51643303361E+03  0.00000000000E+00 0.  1.
         16    1    5    5    0    0  0.93411743115E+03 -0.31685479798E+03 -0.17763978199E+04  0.20318862056E+04  0.00000000000E+00 0. -1.
    9900018    1    1    2    0    0  0.11337353857E+03 -0.69342575129E+02 -0.81225826945E+02  0.18048480637E+03  0.91187600000E+02 0.  0.
<mgrwt>
<rscale>  0 0.50504937E+04</rscale>
<asrwt>0</asrwt>
<pdfrwt beam="1">  1        2 0.48165134E+00 0.50504937E+04</pdfrwt>
<pdfrwt beam="2">  1       -2 0.31336335E+00 0.50504937E+04</pdfrwt>
<totfact> 0.27414453E-02</totfact>
</mgrwt>
</event>
<event>
13    1  0.4257036E-015  0.4584932E+04  0.7818608E-02  0.7895934E-01
          2   -1    0    0  501    0  0.00000000000E+00  0.00000000000E+00  0.15054803870E+04  0.15054803870E+04  0.00000000000E+00 0. -1.
         -2   -1    0    0    0  501 -0.00000000000E+00 -0.00000000000E+00 -0.34908457524E+04  0.34908457524E+04  0.00000000000E+00 0.  1.
    9900016    2    1    2    0    0 -0.51332273506E+03  0.60288815718E+03 -0.70725910956E+03  0.24378482517E+04  0.21945191477E+04 0.  0.
         24    2    3    3    0    0 -0.73994350715E+02 -0.32383849994E+03 -0.12371515313E+04  0.12834576311E+04  0.79831331552E+02 0.  0.
    9900016    2    1    2    0    0  0.51332273506E+03 -0.60288815718E+03 -0.12781062558E+04  0.25584778877E+04  0.20700915777E+04 0.  0.
         23    2    5    5    0    0 -0.33508595862E+03 -0.55862824941E+02  0.41876325315E+03  0.54985712756E+03  0.10759620656E+03 0.  0.
        -15    1    6    6    0    0 -0.22144763152E+03 -0.82123938725E+02  0.24259732458E+03  0.33858065023E+03  0.00000000000E+00 0.  1.
        -15    1    4    4    0    0 -0.59662083564E+02 -0.15508680371E+03 -0.49202053331E+03  0.51932233353E+03  0.00000000000E+00 0.  1.
         15    1    6    6    0    0 -0.11363832710E+03  0.26261113784E+02  0.17616592858E+03  0.21127647733E+03  0.00000000000E+00 0. -1.
         15    1    3    3    0    0 -0.43932838434E+03  0.92672665713E+03  0.52989242170E+03  0.11543906206E+04  0.00000000000E+00 0. -1.
        -16    1    5    5    0    0  0.80570750967E+03 -0.48253691949E+03 -0.15976772068E+04  0.18532616995E+04  0.00000000000E+00 0.  1.
         16    1    4    4    0    0 -0.14332267152E+02 -0.16875169623E+03 -0.74513099795E+03  0.76413529756E+03  0.00000000000E+00 0. -1.
    9900018    1    5    5    0    0  0.42701184007E+02 -0.64488412745E+02 -0.99192302192E+02  0.15535906057E+03  0.91187600000E+02 0.  0.
<mgrwt>
<rscale>  0 0.45849318E+04</rscale>
<asrwt>0</asrwt>
<pdfrwt beam="1">  1        2 0.23161237E+00 0.45849318E+04</pdfrwt>
<pdfrwt beam="2">  1       -2 0.53705319E+00 0.45849318E+04</pdfrwt>
<totfact> 0.95437321E-03</totfact>
</mgrwt>
</event>
