<event>
13    1  0.7137400E-007  0.4702683E+04  0.7818608E-02  0.7876083E-01
          1   -1    0    0  501    0  0.00000000000E+00  0.00000000000E+00  0.24894032154E+04  0.24894032154E+04  0.00000000000E+00 0. -1.
         -1   -1    0    0    0  501 -0.00000000000E+00 -0.00000000000E+00 -0.22209370886E+04  0.22209370886E+04  0.00000000000E+00 0.  1.
    9900016    2    1    2    0    0 -0.40377007479E+03  0.98743655753E+02 -0.57283337717E+03  0.23114960140E+04  0.22004761217E+04 0.  0.
        -24    2    3    3    0    0 -0.10392951340E+04 -0.46793035539E+03  0.20203221188E+03  0.11602235802E+04  0.78794342036E+02 0.  0.
    9900016    2    1    2    0    0  0.40377007479E+03 -0.98743655753E+02  0.84129950405E+03  0.23988442900E+04  0.22076884946E+04 0.  0.
         23    2    5    5    0    0 -0.14324657393E+03  0.27418892151E+03 -0.57402540024E+02  0.32834213172E+03  0.93884813682E+02 0.  0.
        -15    1    6    6    0    0 -0.86729679642E+02  0.24221861365E+03 -0.56472166312E+02  0.26340273290E+03  0.00000000000E+00 0. -1.
        -15    1    3    3    0    0  0.63552505922E+03  0.56667401114E+03 -0.77486558905E+03  0.11512724338E+04  0.00000000000E+00 0.  1.
         15    1    6    6    0    0 -0.56516894285E+02  0.31970307862E+02 -0.93037371166E+00  0.64939398824E+02  0.00000000000E+00 0.  1.
         15    1    4    4    0    0 -0.24865471025E+03 -0.10911278485E+03  0.82397874470E+02  0.28376781788E+03  0.00000000000E+00 0. -1.
        -16    1    4    4    0    0 -0.79064042376E+03 -0.35881757054E+03  0.11963433741E+03  0.87645576232E+03  0.00000000000E+00 0.  1.
         16    1    5    5    0    0  0.60341307603E+03 -0.52387267869E+03 -0.30300806357E+03  0.85461325194E+03  0.00000000000E+00 0. -1.
    9900018    1    5    5    0    0 -0.56396427311E+02  0.15094010143E+03  0.12017101076E+04  0.12158889063E+04  0.91187600000E+02 0.  0.
<mgrwt>
<rscale>  0 0.47026835E+04</rscale>
<asrwt>0</asrwt>
<pdfrwt beam="1">  1        1 0.38298511E+00 0.47026835E+04</pdfrwt>
<pdfrwt beam="2">  1       -1 0.34168263E+00 0.47026835E+04</pdfrwt>
<totfact> 0.17964564E-02</totfact>
</mgrwt>
</event>
<event>
13    1  0.7137400E-007  0.5612247E+04  0.7818608E-02  0.7740430E-01
         -2   -1    0    0    0  501 -0.00000000000E+00  0.00000000000E+00  0.23609146162E+04  0.23609146162E+04  0.00000000000E+00 0.  1.
          2   -1    0    0  501    0  0.00000000000E+00 -0.00000000000E+00 -0.33352869599E+04  0.33352869599E+04  0.00000000000E+00 0. -1.
    9900016    2    1    2    0    0  0.98921064550E+02 -0.14036083120E+04  0.51112774132E+03  0.26606859714E+04  0.21995673666E+04 0.  0.
        -24    2    3    3    0    0  0.25164294130E+03 -0.50137668839E+03 -0.84937470169E+03  0.10210784660E+04  0.80380945429E+02 0.  0.
    9900016    2    1    2    0    0 -0.98921064550E+02  0.14036083120E+04 -0.14855000850E+04  0.30355156047E+04  0.22422628778E+04 0.  0.
         23    2    5    5    0    0  0.21125894872E+03  0.51262873751E+02 -0.12755932379E+04  0.12972074003E+04  0.91382192746E+02 0.  0.
        -15    1    6    6    0    0  0.98679752080E+02 -0.21585011540E+02 -0.49881033675E+03  0.50893551482E+03  0.00000000000E+00 0.  1.
        -15    1    3    3    0    0 -0.15272187675E+03 -0.90223162364E+03  0.13605024430E+04  0.16396075054E+04  0.00000000000E+00 0.  1.
         15    1    6    6    0    0  0.11257919664E+03  0.72847885291E+02 -0.77678290115E+03  0.78827188548E+03  0.00000000000E+00 0. -1.
         15    1    4    4    0    0  0.72292799470E+02 -0.87020966357E+02 -0.20706286989E+03  0.23595323590E+03  0.00000000000E+00 0. -1.
        -16    1    4    4    0    0  0.17935014183E+03 -0.41435572203E+03 -0.64231183180E+03  0.78512523015E+03  0.00000000000E+00 0.  1.
         16    1    5    5    0    0  0.19462771918E+03  0.84393999974E+03  0.22551859821E+03  0.89497112265E+03  0.00000000000E+00 0. -1.
    9900018    1    5    5    0    0 -0.50480773245E+03  0.50840543853E+03 -0.43542544530E+03  0.84333708176E+03  0.91187600000E+02 0.  0.
<mgrwt>
<rscale>  0 0.56122465E+04</rscale>
<asrwt>0</asrwt>
<pdfrwt beam="1">  1        2 0.51312107E+00 0.56122465E+04</pdfrwt>
<pdfrwt beam="2">  1       -2 0.36321764E+00 0.56122465E+04</pdfrwt>
<totfact> 0.93750603E-03</totfact>
</mgrwt>
</event>
<event>
13    1  0.7137400E-007  0.5069930E+04  0.7818608E-02  0.7817809E-01
          2   -1    0    0  501    0  0.00000000000E+00  0.00000000000E+00  0.27889985506E+04  0.27889985506E+04  0.00000000000E+00 0. -1.
         -2   -1    0    0    0  501 -0.00000000000E+00 -0.00000000000E+00 -0.23040698721E+04  0.23040698721E+04  0.00000000000E+00 0.  1.
    9900016    2    1    2    0    0  0.17090192576E+02 -0.77176542439E+03 -0.75252452648E+03  0.24497000651E+04  0.21997325522E+04 0.  0.
        -24    2    3    3    0    0  0.48742343687E+03 -0.10004986335E+04  0.39902717519E+03  0.11849457161E+04  0.79338145104E+02 0.  0.
    9900016    2    1    2    0    0 -0.17090192576E+02  0.77176542439E+03  0.12374532050E+04  0.26433683577E+04  0.22045842907E+04 0.  0.
         23    2    5    5    0    0  0.95995554803E+02  0.51788258613E+03 -0.55348477347E+03  0.76933573563E+03  0.90080853088E+02 0.  0.
        -15    1    6    6    0    0 -0.16534615434E+02  0.69772839684E+02 -0.62142757373E+02  0.94886063039E+02  0.00000000000E+00 0.  1.
        -15    1    3    3    0    0 -0.47033324429E+03  0.22873320908E+03 -0.11515517017E+04  0.12647543490E+04  0.00000000000E+00 0.  1.
         15    1    4    4    0    0  0.28335770811E+03 -0.61552545851E+03  0.20469196947E+03  0.70785731838E+03  0.00000000000E+00 0. -1.
         15    1    6    6    0    0  0.11253017024E+03  0.44810974645E+03 -0.49134201610E+03  0.67444967260E+03  0.00000000000E+00 0. -1.
        -16    1    4    4    0    0  0.20406572876E+03 -0.38497317496E+03  0.19433520571E+03  0.47708839775E+03  0.00000000000E+00 0.  1.
         16    1    5    5    0    0  0.16189094735E+03  0.11221125569E+03  0.10117456328E+04  0.10307420969E+04  0.00000000000E+00 0. -1.
    9900018    1    5    5    0    0 -0.27497669473E+03  0.14167158257E+03  0.77919234562E+03  0.84329052516E+03  0.91187600000E+02 0.  0.
<mgrwt>
<rscale>  0 0.50699300E+04</rscale>
<asrwt>0</asrwt>
<pdfrwt beam="1">  1        2 0.42907670E+00 0.50699300E+04</pdfrwt>
<pdfrwt beam="2">  1       -2 0.35447229E+00 0.50699300E+04</pdfrwt>
<totfact> 0.24782561E-02</totfact>
</mgrwt>
</event>
<event>
13    1  0.7137400E-007  0.5202552E+04  0.7818608E-02  0.7797999E-01
         -2   -1    0    0    0  501 -0.00000000000E+00  0.00000000000E+00  0.30504631433E+04  0.30504631433E+04  0.00000000000E+00 0.  1.
          2   -1    0    0  501    0  0.00000000000E+00 -0.00000000000E+00 -0.22182327410E+04  0.22182327410E+04  0.00000000000E+00 0. -1.
    9900016    2    1    2    0    0  0.87394175792E+03 -0.36352264750E+03  0.14454259329E+04  0.27962248174E+04  0.21985663943E+04 0.  0.
         24    2    3    3    0    0  0.11612733567E+04 -0.55200945899E+03  0.18569215850E+04  0.22601134506E+04  0.81760534453E+02 0.  0.
    9900016    2    1    2    0    0 -0.87394175792E+03  0.36352264750E+03 -0.61319553058E+03  0.24724710669E+04  0.22002685079E+04 0.  0.
         23    2    5    5    0    0  0.32244611313E+03  0.37876763928E+03 -0.42834374260E+03  0.66286449179E+03  0.92057331108E+02 0.  0.
        -15    1    4    4    0    0  0.85607598155E+03 -0.44221117185E+03  0.13615396075E+04  0.16679948770E+04  0.00000000000E+00 0.  1.
        -15    1    6    6    0    0  0.55708545508E+02  0.12148673163E+03 -0.90701438332E+02  0.16152157416E+03  0.00000000000E+00 0. -1.
         15    1    6    6    0    0  0.26673756762E+03  0.25728090765E+03 -0.33764230427E+03  0.50134291763E+03  0.00000000000E+00 0.  1.
         15    1    3    3    0    0 -0.28733159883E+03  0.18848681149E+03 -0.41149565214E+03  0.53611136672E+03  0.00000000000E+00 0. -1.
        -16    1    5    5    0    0 -0.13575552061E+04  0.25280529017E+03 -0.37692207620E+03  0.14314108090E+04  0.00000000000E+00 0.  1.
         16    1    4    4    0    0  0.30519737519E+03 -0.10979828713E+03  0.49538197747E+03  0.59211857367E+03  0.00000000000E+00 0. -1.
    9900018    1    5    5    0    0  0.16116733510E+03 -0.26805028195E+03  0.19207028823E+03  0.37819576620E+03  0.91187600000E+02 0.  0.
<mgrwt>
<rscale>  0 0.52025522E+04</rscale>
<asrwt>0</asrwt>
<pdfrwt beam="1">  1        2 0.34126657E+00 0.52025522E+04</pdfrwt>
<pdfrwt beam="2">  1       -2 0.46930202E+00 0.52025522E+04</pdfrwt>
<totfact> 0.94070869E-03</totfact>
</mgrwt>
</event>
<event>
13    1  0.7137400E-007  0.5598553E+04  0.7818608E-02  0.7742272E-01
         -1   -1    0    0    0  501 -0.00000000000E+00  0.00000000000E+00  0.23021861225E+04  0.23021861225E+04  0.00000000000E+00 0.  1.
          1   -1    0    0  501    0  0.00000000000E+00 -0.00000000000E+00 -0.34036992115E+04  0.34036992115E+04  0.00000000000E+00 0. -1.
    9900016    2    1    2    0    0 -0.17105028364E+04  0.39925887165E+03 -0.47301804784E+03  0.28541171899E+04  0.21993206361E+04 0.  0.
        -24    2    3    3    0    0  0.53300815929E+03  0.71241120973E+02 -0.35137144636E+02  0.54485823562E+03  0.80392056800E+02 0.  0.
    9900016    2    1    2    0    0  0.17105028364E+04 -0.39925887165E+03 -0.62849504112E+03  0.28517681441E+04  0.21569302100E+04 0.  0.
         23    2    5    5    0    0 -0.33872175672E+03 -0.25158964307E+03 -0.51619315786E+03  0.67322442122E+03  0.93519880886E+02 0.  0.
        -15    1    3    3    0    0 -0.22435109957E+04  0.32801775068E+03 -0.43788090321E+03  0.23092589543E+04  0.00000000000E+00 0.  1.
        -15    1    6    6    0    0 -0.21424852584E+03 -0.10117446705E+03 -0.28253689717E+03  0.36873540903E+03  0.00000000000E+00 0.  1.
         15    1    6    6    0    0 -0.12447323088E+03 -0.15041517602E+03 -0.23365626069E+03  0.30448901219E+03  0.00000000000E+00 0. -1.
         15    1    4    4    0    0  0.36555761124E+03  0.14571458409E+02 -0.74534851257E+01  0.36592382948E+03  0.00000000000E+00 0. -1.
        -16    1    4    4    0    0  0.16745054805E+03  0.56669662563E+02 -0.27683659510E+02  0.17893440614E+03  0.00000000000E+00 0.  1.
         16    1    5    5    0    0  0.92369594496E+03 -0.38720955943E+03  0.93766206076E+02  0.10059510639E+04  0.00000000000E+00 0. -1.
    9900018    1    5    5    0    0  0.11255286482E+04  0.23954033085E+03 -0.20606808934E+03  0.11725926589E+04  0.91187600000E+02 0.  0.
<mgrwt>
<rscale>  0 0.55985531E+04</rscale>
<asrwt>0</asrwt>
<pdfrwt beam="1">  1        1 0.52364603E+00 0.55985531E+04</pdfrwt>
<pdfrwt beam="2">  1       -1 0.35418248E+00 0.55985531E+04</pdfrwt>
<totfact> 0.29820897E-03</totfact>
</mgrwt>
</event>
<event>
13    1  0.7137400E-007  0.6561639E+04  0.7818608E-02  0.7624415E-01
         -2   -1    0    0    0  501 -0.00000000000E+00  0.00000000000E+00  0.33183079955E+04  0.33183079955E+04  0.00000000000E+00 0.  1.
          2   -1    0    0  501    0  0.00000000000E+00 -0.00000000000E+00 -0.32437547128E+04  0.32437547128E+04  0.00000000000E+00 0. -1.
    9900016    2    1    2    0    0 -0.11592908609E+04  0.20783679176E+04 -0.46046767467E+03  0.32751477564E+04  0.22024971841E+04 0.  0.
         24    2    3    3    0    0  0.33692622949E+02 -0.44384639630E+03 -0.72529224570E+02  0.45818647177E+03  0.80867410924E+02 0.  0.
    9900016    2    1    2    0    0  0.11592908609E+04 -0.20783679176E+04  0.53502095738E+03  0.32869149519E+04  0.22031781532E+04 0.  0.
         23    2    5    5    0    0 -0.33407852055E+03  0.20655680812E+03 -0.36298622231E+02  0.40529658834E+03  0.93131958375E+02 0.  0.
        -15    1    6    6    0    0 -0.11261340380E+03  0.44188548206E+02 -0.48700035459E+02  0.13040743829E+03  0.00000000000E+00 0.  1.
        -15    1    4    4    0    0 -0.25319398655E+02 -0.11962682019E+03 -0.93079330678E+01  0.12263068815E+03  0.00000000000E+00 0.  1.
         15    1    3    3    0    0 -0.11929834838E+04  0.25222143139E+04 -0.38793845010E+03  0.28169612846E+04  0.00000000000E+00 0. -1.
         15    1    6    6    0    0 -0.22146511675E+03  0.16236825992E+03  0.12401413227E+02  0.27488915005E+03  0.00000000000E+00 0. -1.
        -16    1    5    5    0    0  0.92785289770E+03 -0.97916417137E+03  0.54670014581E+03  0.14555255146E+04  0.00000000000E+00 0.  1.
         16    1    4    4    0    0  0.59012021604E+02 -0.32421957611E+03 -0.63221291503E+02  0.33555578363E+03  0.00000000000E+00 0. -1.
    9900018    1    5    5    0    0  0.56551648373E+03 -0.13057605544E+04  0.24619433799E+02  0.14260928489E+04  0.91187600000E+02 0.  0.
<mgrwt>
<rscale>  0 0.65616392E+04</rscale>
<asrwt>0</asrwt>
<pdfrwt beam="1">  1        2 0.49903919E+00 0.65616392E+04</pdfrwt>
<pdfrwt beam="2">  1       -2 0.51050892E+00 0.65616392E+04</pdfrwt>
<totfact> 0.11292170E-03</totfact>
</mgrwt>
</event>
<event>
13    1  0.7137400E-007  0.5941589E+04  0.7818608E-02  0.7697687E-01
         -2   -1    0    0    0  501 -0.00000000000E+00  0.00000000000E+00  0.37531066459E+04  0.37531066459E+04  0.00000000000E+00 0. -1.
          2   -1    0    0  501    0  0.00000000000E+00 -0.00000000000E+00 -0.23515502904E+04  0.23515502904E+04  0.00000000000E+00 0.  1.
    9900016    2    1    2    0    0  0.16807101823E+04 -0.16000200977E+03 -0.39556836619E+03  0.28004980123E+04  0.21990742199E+04 0.  0.
        -24    2    3    3    0    0  0.21909436001E+03  0.83434049443E+03  0.27603761937E+03  0.90944210953E+03  0.82230067781E+02 0.  0.
    9900016    2    1    2    0    0 -0.16807101823E+04  0.16000200977E+03  0.17971247217E+04  0.33041589240E+04  0.21994139150E+04 0.  0.
         23    2    5    5    0    0  0.10542848631E+03 -0.34807717496E+03 -0.18721066368E+03  0.41954539049E+03  0.93261013472E+02 0.  0.
        -15    1    6    6    0    0 -0.40318607468E+01 -0.10270098117E+03 -0.80067845193E+02  0.13028663503E+03  0.00000000000E+00 0. -1.
        -15    1    3    3    0    0  0.14616158223E+04 -0.99434250420E+03 -0.67160598556E+03  0.18910559028E+04  0.00000000000E+00 0.  1.
         15    1    6    6    0    0  0.10946034706E+03 -0.24537619379E+03 -0.10714281849E+03  0.28925875546E+03  0.00000000000E+00 0.  1.
         15    1    4    4    0    0  0.85856649761E+02  0.23322887097E+03  0.49655048820E+02  0.25344169830E+03  0.00000000000E+00 0. -1.
        -16    1    4    4    0    0  0.13323771025E+03  0.60111162346E+03  0.22638257055E+03  0.65600041123E+03  0.00000000000E+00 0.  1.
         16    1    5    5    0    0 -0.12885059581E+04 -0.11105501423E+03  0.11866873618E+04  0.17552229815E+04  0.00000000000E+00 0. -1.
    9900018    1    5    5    0    0 -0.49763271052E+03  0.61913419896E+03  0.79764802364E+03  0.11293905520E+04  0.91187600000E+02 0.  0.
<mgrwt>
<rscale>  0 0.59415887E+04</rscale>
<asrwt>0</asrwt>
<pdfrwt beam="1">  1        2 0.36177697E+00 0.59415887E+04</pdfrwt>
<pdfrwt beam="2">  1       -2 0.57740102E+00 0.59415887E+04</pdfrwt>
<totfact> 0.18440742E-03</totfact>
</mgrwt>
</event>
<event>
13    1  0.7137400E-007  0.4968807E+04  0.7818608E-02  0.7833337E-01
         -2   -1    0    0    0  501 -0.00000000000E+00  0.00000000000E+00  0.29460385012E+04  0.29460385012E+04  0.00000000000E+00 0. -1.
          2   -1    0    0  501    0  0.00000000000E+00 -0.00000000000E+00 -0.20951056121E+04  0.20951056121E+04  0.00000000000E+00 0.  1.
    9900016    2    1    2    0    0 -0.43165295636E+02  0.77372997626E+03 -0.42510852543E+03  0.23749543073E+04  0.22043523730E+04 0.  0.
        -24    2    3    3    0    0  0.57604496035E+02 -0.63062483704E+03  0.38997081383E+03  0.74807959733E+03  0.80869556977E+02 0.  0.
    9900016    2    1    2    0    0  0.43165295636E+02 -0.77372997626E+03  0.12760414145E+04  0.26661898061E+04  0.22090190292E+04 0.  0.
         23    2    5    5    0    0 -0.45361674834E+03  0.28308716539E+02  0.49639740571E+02  0.46674655684E+03  0.93907969199E+02 0.  0.
        -15    1    3    3    0    0 -0.10076979167E+03  0.14043548133E+04 -0.81507933926E+03  0.16268747099E+04  0.00000000000E+00 0.  1.
        -15    1    6    6    0    0 -0.19914298642E+03  0.55317198389E+01  0.68230544772E+02  0.21057999954E+03  0.00000000000E+00 0.  1.
         15    1    6    6    0    0 -0.25447376192E+03  0.22776996700E+02 -0.18590804201E+02  0.25616655731E+03  0.00000000000E+00 0. -1.
         15    1    4    4    0    0  0.64972001626E+02 -0.29579536587E+03  0.20186941422E+03  0.36396087683E+03  0.00000000000E+00 0. -1.
        -16    1    4    4    0    0 -0.73675055908E+01 -0.33482947117E+03  0.18810139961E+03  0.38411872050E+03  0.00000000000E+00 0.  1.
         16    1    5    5    0    0  0.54348679133E+03  0.19724297895E+03 -0.44043779391E+02  0.57984699671E+03  0.00000000000E+00 0. -1.
    9900018    1    5    5    0    0 -0.46704747356E+02 -0.99928167175E+03  0.12704454533E+04  0.16195962525E+04  0.91187600000E+02 0.  0.
<mgrwt>
<rscale>  0 0.49688074E+04</rscale>
<asrwt>0</asrwt>
<pdfrwt beam="1">  1        2 0.32232394E+00 0.49688074E+04</pdfrwt>
<pdfrwt beam="2">  1       -2 0.45323669E+00 0.49688074E+04</pdfrwt>
<totfact> 0.14299385E-02</totfact>
</mgrwt>
</event>
<event>
13    1  0.7137400E-007  0.5119889E+04  0.7818608E-02  0.7810275E-01
         -2   -1    0    0    0  501 -0.00000000000E+00  0.00000000000E+00  0.22840180757E+04  0.22840180757E+04  0.00000000000E+00 0.  1.
          2   -1    0    0  501    0  0.00000000000E+00 -0.00000000000E+00 -0.28692045394E+04  0.28692045394E+04  0.00000000000E+00 0. -1.
    9900016    2    1    2    0    0 -0.11091003294E+04  0.60714703153E+03 -0.62452110444E+03  0.26107494803E+04  0.21971015408E+04 0.  0.
        -24    2    3    3    0    0 -0.25483632147E+03 -0.33238617334E+03  0.67185978874E+03  0.79606133670E+03  0.83041899580E+02 0.  0.
    9900016    2    1    2    0    0  0.11091003294E+04 -0.60714703153E+03  0.39334640692E+02  0.25424731348E+04  0.22054231722E+04 0.  0.
         23    2    5    5    0    0 -0.86958183499E+02  0.36206535125E+03  0.60762451577E+03  0.71839301893E+03  0.90707955679E+02 0.  0.
        -15    1    3    3    0    0 -0.85426400796E+03  0.93953320487E+03 -0.12963808932E+04  0.18146881436E+04  0.00000000000E+00 0.  1.
        -15    1    6    6    0    0 -0.54979089000E+02  0.78540764436E+02  0.12213160215E+03  0.15526583704E+03  0.00000000000E+00 0.  1.
         15    1    4    4    0    0 -0.10261246544E+03 -0.72010426361E+02  0.20078506006E+03  0.23670542857E+03  0.00000000000E+00 0. -1.
         15    1    6    6    0    0 -0.31979094499E+02  0.28352458682E+03  0.48549291362E+03  0.56312718189E+03  0.00000000000E+00 0. -1.
        -16    1    4    4    0    0 -0.15222385603E+03 -0.26037574698E+03  0.47107472868E+03  0.55935590813E+03  0.00000000000E+00 0.  1.
         16    1    5    5    0    0  0.60933459685E+03 -0.62004889343E+03 -0.70808053891E+03  0.11212168973E+04  0.00000000000E+00 0. -1.
    9900018    1    5    5    0    0  0.58672391608E+03 -0.34916348935E+03  0.13979066383E+03  0.70286321861E+03  0.91187600000E+02 0.  0.
<mgrwt>
<rscale>  0 0.51198887E+04</rscale>
<asrwt>0</asrwt>
<pdfrwt beam="1">  1        2 0.44141608E+00 0.51198887E+04</pdfrwt>
<pdfrwt beam="2">  1       -2 0.35138740E+00 0.51198887E+04</pdfrwt>
<totfact> 0.23071168E-02</totfact>
</mgrwt>
</event>
