<event>
10    1  0.4979425E-011  0.3147926E+04  0.7818608E-02  0.8526181E-01
         -1   -1    0    0    0  501 -0.00000000000E+00  0.00000000000E+00  0.12444363766E+04  0.12444363766E+04  0.00000000000E+00 0.  1.
          1   -1    0    0  501    0  0.00000000000E+00 -0.00000000000E+00 -0.30153277432E+04  0.30153277432E+04  0.00000000000E+00 0. -1.
    9900016    2    1    2    0    0 -0.59433059910E+03  0.33763736873E+03 -0.72376624262E+03  0.21444617791E+04  0.18993817136E+04 0.  0.
        -15    1    3    3    0    0 -0.18398769096E+03 -0.12010713406E+03  0.18898033492E+03  0.28981159581E+03  0.00000000000E+00 0.  1.
        -15    1    1    2    0    0 -0.86134643557E+02  0.63228550525E+03 -0.28138541521E+03  0.69741084653E+03  0.00000000000E+00 0.  1.
         15    1    1    2    0    0  0.70747615362E+02 -0.43946153143E+02 -0.71604589869E+02  0.10983490677E+03  0.00000000000E+00 0. -1.
         15    1    3    3    0    0 -0.21414330720E+03  0.17727758298E+03 -0.19218586715E+03  0.33796465049E+03  0.00000000000E+00 0. -1.
        -16    1    3    3    0    0 -0.64159469534E+03  0.51400578964E+03 -0.47769317793E+03  0.95080832828E+03  0.00000000000E+00 0.  1.
         16    1    1    2    0    0  0.60971762730E+03 -0.92597672083E+03 -0.69413511891E+03  0.13080565874E+04  0.00000000000E+00 0. -1.
    9900018    1    3    3    0    0  0.44539509440E+03 -0.23353886983E+03 -0.24286753245E+03  0.56587720448E+03  0.91187600000E+02 0.  0.
<mgrwt>
<rscale>  0 0.21814699E+04</rscale>
<asrwt>0</asrwt>
<pdfrwt beam="1">  1        1 0.46389657E+00 0.31479261E+04</pdfrwt>
<pdfrwt beam="2">  1       -1 0.19145175E+00 0.31479261E+04</pdfrwt>
<totfact> 0.82602402E-02</totfact>
</mgrwt>
</event>
<event>
10    1  0.4979425E-011  0.4056172E+04  0.7818608E-02  0.7993310E-01
          1   -1    0    0  501    0  0.00000000000E+00  0.00000000000E+00  0.23898002180E+04  0.23898002180E+04  0.00000000000E+00 0. -1.
         -1   -1    0    0    0  501 -0.00000000000E+00 -0.00000000000E+00 -0.17211198955E+04  0.17211198955E+04  0.00000000000E+00 0.  1.
    9900016    2    1    2    0    0  0.18266323904E+03 -0.40600055548E+02 -0.19761129677E+03  0.18689873890E+04  0.18490671735E+04 0.  0.
        -15    1    1    2    0    0 -0.50520069671E+03  0.78921967558E+03  0.17822584591E+03  0.95386576227E+03  0.00000000000E+00 0.  1.
        -15    1    3    3    0    0  0.17705853503E+03  0.26422352368E+03 -0.50380768024E+03  0.59580699388E+03  0.00000000000E+00 0.  1.
         15    1    1    2    0    0  0.46732967465E+03 -0.17937879010E+03  0.28982514663E+03  0.57842232907E+03  0.00000000000E+00 0. -1.
         15    1    3    3    0    0  0.19656906420E+03  0.32952483224E+03  0.53368512770E+02  0.38739412775E+03  0.00000000000E+00 0. -1.
        -16    1    3    3    0    0 -0.14727299640E+02  0.89016873320E+02 -0.10461444823E+02  0.90831376287E+02  0.00000000000E+00 0.  1.
         16    1    1    2    0    0 -0.14479221699E+03 -0.56924082993E+03  0.39824062675E+03  0.70964463314E+03  0.00000000000E+00 0. -1.
    9900018    1    3    3    0    0 -0.17623706055E+03 -0.72336528479E+03  0.26328931552E+03  0.79495489105E+03  0.91187600000E+02 0.  0.
<mgrwt>
<rscale>  0 0.40561719E+04</rscale>
<asrwt>0</asrwt>
<pdfrwt beam="1">  1        1 0.36766157E+00 0.40561719E+04</pdfrwt>
<pdfrwt beam="2">  1       -1 0.26478768E+00 0.40561719E+04</pdfrwt>
<totfact> 0.70264342E-02</totfact>
</mgrwt>
</event>
<event>
10    1  0.4979425E-011  0.4912285E+04  0.7818608E-02  0.8290777E-01
          1   -1    0    0  501    0  0.00000000000E+00  0.00000000000E+00  0.25370730888E+04  0.25370730888E+04  0.00000000000E+00 0. -1.
         -1   -1    0    0    0  501 -0.00000000000E+00 -0.00000000000E+00 -0.30679389739E+04  0.30679389739E+04  0.00000000000E+00 0.  1.
    9900016    2    1    2    0    0  0.19765958753E+04  0.18587392183E+03 -0.56464511120E+03  0.27634755789E+04  0.18375235520E+04 0.  0.
        -15    1    1    2    0    0  0.15141321854E+03  0.39404321779E+03  0.14303610489E+03  0.44570769293E+03  0.00000000000E+00 0. -1.
        -15    1    3    3    0    0  0.85634467760E+03  0.13274852598E+02  0.54984615107E+03  0.10177589196E+04  0.00000000000E+00 0.  1.
         15    1    3    3    0    0  0.46090583526E+03  0.14093292921E+02 -0.91855765923E+03  0.10278039615E+04  0.00000000000E+00 0. -1.
         15    1    1    2    0    0 -0.29122924306E+02  0.87132324464E+02  0.15245715720E+03  0.17799823445E+03  0.00000000000E+00 0.  1.
        -16    1    1    2    0    0 -0.20988861696E+04 -0.66704946409E+03 -0.26171403605E+03  0.22178305564E+04  0.00000000000E+00 0.  1.
         16    1    3    3    0    0  0.13201902850E+02  0.66015934816E+00  0.89698817999E+01  0.15974505586E+02  0.00000000000E+00 0. -1.
    9900018    1    3    3    0    0  0.64614345963E+03  0.15784561696E+03 -0.20490348483E+03  0.70193819223E+03  0.91187600000E+02 0.  0.
<mgrwt>
<rscale>  0 0.28405881E+04</rscale>
<asrwt>0</asrwt>
<pdfrwt beam="1">  1        1 0.39031893E+00 0.49122847E+04</pdfrwt>
<pdfrwt beam="2">  1       -1 0.47199061E+00 0.49122847E+04</pdfrwt>
<totfact> 0.20833636E-03</totfact>
</mgrwt>
</event>
<event>
10    1  0.4979425E-011  0.2580406E+04  0.7818608E-02  0.8751502E-01
         -1   -1    0    0    0  501 -0.00000000000E+00  0.00000000000E+00  0.11882261364E+04  0.11882261364E+04  0.00000000000E+00 0.  1.
          1   -1    0    0  501    0  0.00000000000E+00 -0.00000000000E+00 -0.23990832050E+04  0.23990832050E+04  0.00000000000E+00 0. -1.
    9900016    2    1    2    0    0 -0.24118963959E+03 -0.69068960832E+03 -0.82440844454E+03  0.21418055943E+04  0.18364251532E+04 0.  0.
        -15    1    1    2    0    0  0.57932362900E+02 -0.57074998803E+02  0.28747468809E+03  0.29875644002E+03  0.00000000000E+00 0.  1.
        -15    1    3    3    0    0 -0.98372227969E+03 -0.18757022773E+03 -0.64943813316E+03  0.11935920587E+04  0.00000000000E+00 0.  1.
         15    1    3    3    0    0  0.47588631712E+02 -0.70040022185E+02 -0.66566491060E+01  0.84938763548E+02  0.00000000000E+00 0. -1.
         15    1    1    2    0    0  0.14475696346E+03  0.25515489756E+03  0.20952715474E+02  0.29410477131E+03  0.00000000000E+00 0. -1.
        -16    1    3    3    0    0  0.14645714052E+03 -0.16263166560E+03  0.12096441482E+02  0.21919187157E+03  0.00000000000E+00 0.  1.
         16    1    1    2    0    0  0.38500313234E+02  0.49260970956E+03 -0.69487602763E+03  0.85264253580E+03  0.00000000000E+00 0. -1.
    9900018    1    3    3    0    0  0.54848686787E+03 -0.27044769281E+03 -0.18041010375E+03  0.64408290049E+03  0.91187600000E+02 0.  0.
<mgrwt>
<rscale>  0 0.17174008E+04</rscale>
<asrwt>0</asrwt>
<pdfrwt beam="1">  1        1 0.36908972E+00 0.25804058E+04</pdfrwt>
<pdfrwt beam="2">  1       -1 0.18280402E+00 0.25804058E+04</pdfrwt>
<totfact> 0.27254533E-01</totfact>
</mgrwt>
</event>
