<event>
10    1  0.4312847E-011  0.2870850E+04  0.7818608E-02  0.8538840E-01
         -2   -1    0    0    0  501 -0.00000000000E+00  0.00000000000E+00  0.25776947301E+04  0.25776947301E+04  0.00000000000E+00 0.  1.
          2   -1    0    0  501    0  0.00000000000E+00 -0.00000000000E+00 -0.15392163290E+04  0.15392163290E+04  0.00000000000E+00 0. -1.
    9900016    2    1    2    0    0  0.21035944029E+03  0.37456922661E+03  0.80535837571E+03  0.22084846424E+04  0.20110318503E+04 0.  0.
        -15    1    3    3    0    0 -0.19401080455E+03  0.33529258425E+03 -0.23700510449E+03  0.45412853785E+03  0.00000000000E+00 0.  1.
        -15    1    1    2    0    0 -0.21202074150E+03  0.12686333601E+03  0.87512140461E+03  0.90933193810E+03  0.00000000000E+00 0.  1.
         15    1    3    3    0    0  0.31934207087E+02 -0.11627376623E+03  0.21977648750E+03  0.25068124531E+03  0.00000000000E+00 0. -1.
         15    1    1    2    0    0 -0.15890481760E+03 -0.28813274808E+03 -0.28812050645E+02  0.33030494371E+03  0.00000000000E+00 0. -1.
        -16    1    3    3    0    0  0.34756484458E+03 -0.35333461185E+03  0.85154241684E+03  0.98527719795E+03  0.00000000000E+00 0.  1.
         16    1    1    2    0    0  0.16056611881E+03 -0.21329981453E+03 -0.61318932849E+03  0.66878953488E+03  0.00000000000E+00 0. -1.
    9900018    1    3    3    0    0  0.24871193174E+02  0.50888502043E+03 -0.28955424137E+02  0.51839766131E+03  0.91187600000E+02 0.  0.
<mgrwt>
<rscale>  0 0.21516173E+04</rscale>
<asrwt>0</asrwt>
<pdfrwt beam="1">  1        2 0.23680251E+00 0.28708497E+04</pdfrwt>
<pdfrwt beam="2">  1       -2 0.39656842E+00 0.28708497E+04</pdfrwt>
<totfact> 0.78883309E-02</totfact>
</mgrwt>
</event>
<event>
11    1  0.4312847E-011  0.5243501E+04  0.7818608E-02  0.8037219E-01
         -2   -1    0    0    0  501 -0.00000000000E+00  0.00000000000E+00  0.25366282136E+04  0.25366282136E+04  0.00000000000E+00 0. -1.
          2   -1    0    0  501    0  0.00000000000E+00 -0.00000000000E+00 -0.45586349467E+04  0.45586349467E+04  0.00000000000E+00 0.  1.
    9900016    2    1    2    0    0 -0.44683867075E+03  0.21669318273E+04 -0.18947203125E+04  0.35458433249E+04  0.20218262735E+04 0.  0.
        -24    2    3    3    0    0 -0.78306519959E+02  0.13702365744E+04  0.40923495413E+02  0.13763074536E+04  0.94166307800E+02 0.  0.
        -15    1    1    2    0    0  0.72196449640E+03 -0.84155538626E+03 -0.47855091956E+03  0.12076668352E+04  0.00000000000E+00 0.  1.
        -15    1    3    3    0    0 -0.29851365549E+03  0.45796468010E+03 -0.15498028028E+04  0.16433900262E+04  0.00000000000E+00 0.  1.
         15    1    1    2    0    0  0.23663403974E+03  0.30322738479E+03 -0.32698089500E+03  0.50483563795E+03  0.00000000000E+00 0. -1.
         15    1    4    4    0    0  0.40013995088E+01  0.19886858593E+03 -0.23460131151E+02  0.20028755184E+03  0.00000000000E+00 0. -1.
        -16    1    4    4    0    0 -0.82307919468E+02  0.11713679885E+04  0.64383626564E+02  0.11760199018E+04  0.00000000000E+00 0.  1.
         16    1    1    2    0    0 -0.51175986539E+03 -0.16286038259E+04  0.67824539394E+03  0.18369173623E+04  0.00000000000E+00 0. -1.
    9900018    1    3    3    0    0 -0.70018495297E+02  0.33873057282E+03 -0.38584100519E+03  0.52614584511E+03  0.91187600000E+02 0.  0.
<mgrwt>
<rscale>  0 0.38419160E+04</rscale>
<asrwt>0</asrwt>
<pdfrwt beam="1">  1        2 0.70132845E+00 0.52435009E+04</pdfrwt>
<pdfrwt beam="2">  1       -2 0.39025050E+00 0.52435009E+04</pdfrwt>
<totfact> 0.62096135E-04</totfact>
</mgrwt>
</event>
<event>
11    1  0.4312847E-011  0.4830567E+04  0.7818608E-02  0.7855189E-01
          2   -1    0    0  501    0  0.00000000000E+00  0.00000000000E+00  0.15157884767E+04  0.15157884767E+04  0.00000000000E+00 0.  1.
         -2   -1    0    0    0  501 -0.00000000000E+00 -0.00000000000E+00 -0.38485548457E+04  0.38485548457E+04  0.00000000000E+00 0. -1.
    9900016    2    1    2    0    0 -0.89030847975E+03  0.76118324876E+03 -0.12240749949E+04  0.26571530942E+04  0.20469621016E+04 0.  0.
         24    2    3    3    0    0 -0.54333545821E+03  0.12512915643E+04 -0.23282010211E+03  0.13850974876E+04  0.57843332236E+02 0.  0.
        -15    1    4    4    0    0 -0.45686689292E+03  0.11004802010E+04 -0.20248031268E+03  0.12086282752E+04  0.00000000000E+00 0.  1.
        -15    1    1    2    0    0 -0.68757464851E+02 -0.64957424612E+03 -0.15346230865E+03  0.67098805532E+03  0.00000000000E+00 0.  1.
         15    1    3    3    0    0  0.75397717671E+02 -0.31782168362E+03 -0.48273468501E+03  0.58286208876E+03  0.00000000000E+00 0. -1.
         15    1    1    2    0    0  0.13421524607E+04 -0.47750082695E+02 -0.95482378427E+03  0.16478294078E+04  0.00000000000E+00 0. -1.
        -16    1    1    2    0    0 -0.38308651609E+03 -0.63858919938E+02 -0.40528111222E+00  0.38837276516E+03  0.00000000000E+00 0.  1.
         16    1    4    4    0    0 -0.86468565287E+02  0.15081136328E+03 -0.30339789428E+02  0.17646921233E+03  0.00000000000E+00 0. -1.
    9900018    1    3    3    0    0 -0.42237073921E+03 -0.17228663194E+03 -0.50852020782E+03  0.68919351785E+03  0.91187600000E+02 0.  0.
<mgrwt>
<rscale>  0 0.48305673E+04</rscale>
<asrwt>0</asrwt>
<pdfrwt beam="1">  1        2 0.23319823E+00 0.48305673E+04</pdfrwt>
<pdfrwt beam="2">  1       -2 0.59208536E+00 0.48305673E+04</pdfrwt>
<totfact> 0.50556772E-03</totfact>
</mgrwt>
</event>
