<event>
12    1  0.3437080E-014  0.3058147E+04  0.7818608E-02  0.8227319E-01
          2   -1    0    0  501    0  0.00000000000E+00  0.00000000000E+00  0.27128282731E+04  0.27128282731E+04  0.00000000000E+00 0. -1.
         -2   -1    0    0    0  501 -0.00000000000E+00 -0.00000000000E+00 -0.86185535551E+03  0.86185535551E+03  0.00000000000E+00 0.  1.
    9900016    2    1    2    0    0 -0.59753106455E+03 -0.22121143724E+03  0.15236042407E+04  0.27087060611E+04  0.21470306868E+04 0.  0.
        -24    2    3    3    0    0  0.24792533606E+03 -0.46734435925E+03 -0.28715685145E+03  0.60867430176E+03  0.90264200565E+02 0.  0.
         23    2    3    3    0    0 -0.48812828646E+02 -0.10555343926E+03  0.95425889864E+02  0.17631163058E+03  0.91953628757E+02 0.  0.
        -15    1    5    5    0    0 -0.17820054436E+02 -0.26568517915E+02 -0.16392026112E+02  0.35946335061E+02  0.00000000000E+00 0.  1.
        -15    1    3    3    0    0 -0.79664357197E+03  0.35168636127E+03  0.17153352023E+04  0.19237201288E+04  0.00000000000E+00 0.  1.
         15    1    4    4    0    0  0.11558905436E+03 -0.26822064231E+03 -0.11426270379E+03  0.31362255647E+03  0.00000000000E+00 0. -1.
         15    1    5    5    0    0 -0.30992774211E+02 -0.78984921349E+02  0.11181791598E+03  0.14036529552E+03  0.00000000000E+00 0. -1.
        -16    1    4    4    0    0  0.13233628171E+03 -0.19912371694E+03 -0.17289414766E+03  0.29505174529E+03  0.00000000000E+00 0.  1.
         16    1    1    2    0    0  0.62235397565E+03  0.28815415088E+03  0.28423976050E+03  0.74239445521E+03  0.00000000000E+00 0. -1.
    9900018    1    1    2    0    0 -0.24822911094E+02 -0.66942713640E+02  0.43128916362E+02  0.12358311230E+03  0.91187600000E+02 0.  0.
<mgrwt>
<rscale>  0 0.30581469E+04</rscale>
<asrwt>0</asrwt>
<pdfrwt beam="1">  1        2 0.41735819E+00 0.30581469E+04</pdfrwt>
<pdfrwt beam="2">  1       -2 0.13259313E+00 0.30581469E+04</pdfrwt>
<totfact> 0.91777224E-01</totfact>
</mgrwt>
</event>
<event>
12    1  0.4128924E-014  0.3329931E+04  0.7818608E-02  0.8155321E-01
          2   -1    0    0  501    0  0.00000000000E+00  0.00000000000E+00  0.25370596383E+04  0.25370596383E+04  0.00000000000E+00 0. -1.
         -2   -1    0    0    0  501 -0.00000000000E+00 -0.00000000000E+00 -0.10926465325E+04  0.10926465325E+04  0.00000000000E+00 0.  1.
    9900016    2    1    2    0    0  0.71109797300E+03  0.28913144327E+02  0.50327799637E+03  0.23222788833E+04  0.21524855802E+04 0.  0.
        -24    2    3    3    0    0  0.50167968757E+03 -0.88462428841E+03  0.44929709076E+03  0.11157409243E+04  0.93633827919E+02 0.  0.
         23    2    3    3    0    0  0.29715327076E+03  0.31773544608E+02 -0.37963989199E+02  0.31566263347E+03  0.94297450831E+02 0.  0.
        -15    1    5    5    0    0  0.13949782905E+03 -0.18564168482E+02 -0.50927184240E+02  0.14965911518E+03  0.00000000000E+00 0.  1.
        -15    1    3    3    0    0 -0.87734985327E+02  0.88176388812E+03  0.91944894811E+02  0.89087532558E+03  0.00000000000E+00 0.  1.
         15    1    4    4    0    0  0.20519945206E+03 -0.35533866355E+03  0.23171328749E+03  0.47123606456E+03  0.00000000000E+00 0. -1.
         15    1    5    5    0    0  0.15765544171E+03  0.50337713090E+02  0.12963195041E+02  0.16600351829E+03  0.00000000000E+00 0. -1.
        -16    1    4    4    0    0  0.29648023551E+03 -0.52928562486E+03  0.21758380327E+03  0.64450485970E+03  0.00000000000E+00 0.  1.
         16    1    1    2    0    0 -0.72842666551E+03 -0.59403613225E+02  0.96139621427E+03  0.12076493188E+04  0.00000000000E+00 0. -1.
    9900018    1    1    2    0    0  0.17328692514E+02  0.30490468898E+02 -0.20261104918E+02  0.99777968731E+02  0.91187600000E+02 0.  0.
<mgrwt>
<rscale>  0 0.33299306E+04</rscale>
<asrwt>0</asrwt>
<pdfrwt beam="1">  1        2 0.39031687E+00 0.33299306E+04</pdfrwt>
<pdfrwt beam="2">  1       -2 0.16809947E+00 0.33299306E+04</pdfrwt>
<totfact> 0.60681205E-01</totfact>
</mgrwt>
</event>
<event>
12    1  0.3437080E-014  0.2548013E+04  0.7818608E-02  0.8386078E-01
          1   -1    0    0  501    0  0.00000000000E+00  0.00000000000E+00  0.78600662319E+03  0.78600662319E+03  0.00000000000E+00 0. -1.
         -1   -1    0    0    0  501 -0.00000000000E+00 -0.00000000000E+00 -0.20649854616E+04  0.20649854616E+04  0.00000000000E+00 0.  1.
    9900016    2    1    2    0    0 -0.13222884678E+02  0.15656483296E+03 -0.13309415357E+04  0.25460957936E+04  0.21648351040E+04 0.  0.
        -24    2    3    3    0    0 -0.12605942396E+03  0.71023988225E+03 -0.10334411836E+04  0.12638576518E+04  0.94888436681E+02 0.  0.
         23    2    3    3    0    0 -0.32246525813E+03  0.76644656855E+02 -0.37910380720E+03  0.51188126950E+03  0.91893913361E+02 0.  0.
        -15    1    5    5    0    0 -0.89616856445E+02 -0.10887729655E+02 -0.65184772095E+02  0.11134980076E+03  0.00000000000E+00 0. -1.
        -15    1    3    3    0    0  0.43530179741E+03 -0.63031970615E+03  0.81603455138E+02  0.77035687229E+03  0.00000000000E+00 0.  1.
         15    1    4    4    0    0 -0.13655341471E+03  0.54199056876E+03 -0.78767718115E+03  0.96583433020E+03  0.00000000000E+00 0. -1.
         15    1    5    5    0    0 -0.23284840168E+03  0.87532386510E+02 -0.31391903510E+03  0.40053146874E+03  0.00000000000E+00 0.  1.
        -16    1    4    4    0    0  0.10493990756E+02  0.16824931349E+03 -0.24576400245E+03  0.29802332162E+03  0.00000000000E+00 0.  1.
         16    1    1    2    0    0  0.14963336877E+02 -0.15227178553E+03  0.11715432011E+03  0.19270633835E+03  0.00000000000E+00 0. -1.
    9900018    1    1    2    0    0 -0.17404521993E+01 -0.42930474237E+01 -0.65191622866E+02  0.11218995283E+03  0.91187600000E+02 0.  0.
<mgrwt>
<rscale>  0 0.25480128E+04</rscale>
<asrwt>0</asrwt>
<pdfrwt beam="1">  1        1 0.12092410E+00 0.25480128E+04</pdfrwt>
<pdfrwt beam="2">  1       -1 0.31769007E+00 0.25480128E+04</pdfrwt>
<totfact> 0.50993938E-01</totfact>
</mgrwt>
</event>
<event>
11    1  0.3437080E-014  0.2786226E+04  0.7818608E-02  0.8307557E-01
          2   -1    0    0  501    0  0.00000000000E+00  0.00000000000E+00  0.34869621880E+04  0.34869621880E+04  0.00000000000E+00 0. -1.
         -2   -1    0    0    0  501 -0.00000000000E+00 -0.00000000000E+00 -0.55657715672E+03  0.55657715672E+03  0.00000000000E+00 0.  1.
    9900016    2    1    2    0    0  0.55284481837E+02 -0.42013242467E+03  0.27663570653E+04  0.35891465611E+04  0.22471479694E+04 0.  0.
         23    2    3    3    0    0 -0.23882095985E+03 -0.32876087407E+03  0.12598366320E+04  0.13266273885E+04  0.87365471104E+02 0.  0.
        -15    1    4    4    0    0 -0.14569140831E+03 -0.24363035473E+03  0.96600812625E+03  0.10068532347E+04  0.00000000000E+00 0.  1.
        -15    1    3    3    0    0 -0.26871422991E+03 -0.30161796892E+03  0.21553941267E+02  0.40453097399E+03  0.00000000000E+00 0.  1.
         15    1    3    3    0    0  0.66312502603E+03  0.32132660772E+03  0.12912031048E+04  0.14866711293E+04  0.00000000000E+00 0. -1.
         15    1    4    4    0    0 -0.93129551540E+02 -0.85130519338E+02  0.29382850573E+03  0.31977415385E+03  0.00000000000E+00 0. -1.
        -16    1    1    2    0    0 -0.55284481837E+02  0.42013242467E+03  0.16402796599E+03  0.45439278364E+03  0.00000000000E+00 0.  1.
         16    1    3    3    0    0 -0.88809215105E+02 -0.10601975953E+03 -0.18900515439E+02  0.13958687468E+03  0.00000000000E+00 0. -1.
    9900018    1    3    3    0    0 -0.11496139326E+02 -0.50604298798E+01  0.21266390273E+03  0.23173019459E+03  0.91187600000E+02 0.  0.
<mgrwt>
<rscale>  0 0.27862258E+04</rscale>
<asrwt>0</asrwt>
<pdfrwt beam="1">  1        2 0.53645571E+00 0.27862258E+04</pdfrwt>
<pdfrwt beam="2">  1       -2 0.85627257E-01 0.27862258E+04</pdfrwt>
<totfact> 0.85683481E-01</totfact>
</mgrwt>
</event>
<event>
12    1  0.3437080E-014  0.3600586E+04  0.7818608E-02  0.8090358E-01
          2   -1    0    0  501    0  0.00000000000E+00  0.00000000000E+00  0.22127368172E+04  0.22127368172E+04  0.00000000000E+00 0. -1.
         -2   -1    0    0    0  501 -0.00000000000E+00 -0.00000000000E+00 -0.14647265691E+04  0.14647265691E+04  0.00000000000E+00 0.  1.
    9900016    2    1    2    0    0  0.69624555091E+03 -0.73332633027E+03  0.85823916416E+02  0.24687383920E+04  0.22505061942E+04 0.  0.
        -24    2    3    3    0    0 -0.11436851102E+03 -0.45796937983E+03  0.86570345986E+03  0.98816528839E+03  0.64900289545E+02 0.  0.
         23    2    3    3    0    0  0.21133473917E+03 -0.28657036010E+03  0.33429197304E+02  0.36861341909E+03  0.89293886839E+02 0.  0.
        -15    1    5    5    0    0  0.48745956489E+02 -0.35571518140E+02  0.34585840808E+02  0.69553443921E+02  0.00000000000E+00 0. -1.
        -15    1    3    3    0    0  0.55363488314E+03  0.71517742494E+01 -0.84037594999E+03  0.10063769021E+04  0.00000000000E+00 0.  1.
         15    1    4    4    0    0 -0.12381870819E+02 -0.17596488170E+03  0.33437710082E+03  0.37805422345E+03  0.00000000000E+00 0. -1.
         15    1    5    5    0    0  0.16258878268E+03 -0.25099884197E+03 -0.11566435041E+01  0.29905997517E+03  0.00000000000E+00 0.  1.
        -16    1    4    4    0    0 -0.10198664020E+03 -0.28200449813E+03  0.53132635904E+03  0.61011106493E+03  0.00000000000E+00 0.  1.
         16    1    1    2    0    0 -0.69624555091E+03  0.73332633027E+03  0.66218633165E+03  0.12087249942E+04  0.00000000000E+00 0. -1.
    9900018    1    3    3    0    0  0.45644439616E+02  0.40616354185E+01  0.27067209249E+02  0.10558278250E+03  0.91187600000E+02 0.  0.
<mgrwt>
<rscale>  0 0.36005857E+04</rscale>
<asrwt>0</asrwt>
<pdfrwt beam="1">  1        2 0.34042105E+00 0.36005857E+04</pdfrwt>
<pdfrwt beam="2">  1       -2 0.22534255E+00 0.36005857E+04</pdfrwt>
<totfact> 0.37857165E-01</totfact>
</mgrwt>
</event>
<event>
12    1  0.3437080E-014  0.2946353E+04  0.7818608E-02  0.8259218E-01
         -2   -1    0    0    0  501 -0.00000000000E+00  0.00000000000E+00  0.18033735890E+04  0.18033735890E+04  0.00000000000E+00 0.  1.
          2   -1    0    0  501    0  0.00000000000E+00 -0.00000000000E+00 -0.12034387426E+04  0.12034387426E+04  0.00000000000E+00 0. -1.
    9900016    2    1    2    0    0  0.11443513990E+02  0.11987640415E+02 -0.12521324093E+03  0.21597775797E+04  0.21560812092E+04 0.  0.
         24    2    3    3    0    0 -0.68199507513E+03  0.66470655746E+03 -0.23176975357E+03  0.98205626050E+03  0.61361144725E+02 0.  0.
         23    2    3    3    0    0  0.38137740536E+03 -0.21623198419E+03 -0.26920147269E+03  0.52266629214E+03  0.92225938555E+02 0.  0.
        -15    1    4    4    0    0 -0.11463409761E+03  0.83308136514E+02 -0.26461776925E+02  0.14415771774E+03  0.00000000000E+00 0.  1.
        -15    1    5    5    0    0  0.34993021718E+03 -0.16551314434E+03 -0.21948621381E+03  0.44499433243E+03  0.00000000000E+00 0. -1.
         15    1    3    3    0    0  0.31206118376E+03 -0.43648693286E+03  0.37575798533E+03  0.65505502708E+03  0.00000000000E+00 0. -1.
         15    1    5    5    0    0  0.31447188178E+02 -0.50718839850E+02 -0.49715258880E+02  0.77671959712E+02  0.00000000000E+00 0.  1.
        -16    1    1    2    0    0 -0.40203524502E+02 -0.22842167181E+01  0.74731973171E+03  0.74840384983E+03  0.00000000000E+00 0.  1.
         16    1    4    4    0    0 -0.56736097751E+03  0.58139842094E+03 -0.20530797665E+03  0.83789854276E+03  0.00000000000E+00 0. -1.
    9900018    1    1    2    0    0  0.28760010512E+02 -0.97034236970E+01 -0.22171644328E+02  0.98630902065E+02  0.91187600000E+02 0.  0.
<mgrwt>
<rscale>  0 0.29463534E+04</rscale>
<asrwt>0</asrwt>
<pdfrwt beam="1">  1        2 0.18514442E+00 0.29463534E+04</pdfrwt>
<pdfrwt beam="2">  1       -2 0.27744209E+00 0.29463534E+04</pdfrwt>
<totfact> 0.70751742E-01</totfact>
</mgrwt>
</event>
<event>
12    1  0.3437080E-014  0.2652140E+04  0.7818608E-02  0.8350703E-01
         -2   -1    0    0    0  501 -0.00000000000E+00  0.00000000000E+00  0.72673853246E+03  0.72673853246E+03  0.00000000000E+00 0.  1.
          2   -1    0    0  501    0  0.00000000000E+00 -0.00000000000E+00 -0.24196625163E+04  0.24196625163E+04  0.00000000000E+00 0. -1.
    9900016    2    1    2    0    0  0.15864881669E+03 -0.28762018842E+03 -0.11465199638E+04  0.24569863068E+04  0.21481105337E+04 0.  0.
        -24    2    3    3    0    0 -0.60818008869E+03 -0.52522360751E+03  0.89871606185E+01  0.80874963919E+03  0.90842455161E+02 0.  0.
         23    2    3    3    0    0 -0.14879951205E+03  0.70093720602E+02 -0.42474859141E+03  0.46483355313E+03  0.92760130212E+02 0.  0.
        -15    1    5    5    0    0 -0.22204671873E+02 -0.11540621702E+02 -0.17274269885E+02  0.30407791803E+02  0.00000000000E+00 0.  1.
        -15    1    3    3    0    0  0.91562841743E+03  0.16750969849E+03 -0.73075853302E+03  0.11834031145E+04  0.00000000000E+00 0.  1.
         15    1    4    4    0    0 -0.62254093360E+02 -0.54097891344E+02 -0.26898615937E+02  0.86750732143E+02  0.00000000000E+00 0. -1.
         15    1    5    5    0    0 -0.12659484018E+03  0.81634342304E+02 -0.40747432152E+03  0.43442576133E+03  0.00000000000E+00 0. -1.
        -16    1    4    4    0    0 -0.54592599533E+03 -0.47112571617E+03  0.35885776556E+02  0.72199890704E+03  0.00000000000E+00 0.  1.
         16    1    1    2    0    0 -0.12129198244E+03  0.28996360270E+03 -0.46659854848E+03  0.56258762992E+03  0.00000000000E+00 0. -1.
    9900018    1    1    2    0    0 -0.37356834252E+02 -0.23434142813E+01 -0.79805471600E+02  0.12682711203E+03  0.91187600000E+02 0.  0.
<mgrwt>
<rscale>  0 0.26521403E+04</rscale>
<asrwt>0</asrwt>
<pdfrwt beam="1">  1        2 0.37225577E+00 0.26521403E+04</pdfrwt>
<pdfrwt beam="2">  1       -2 0.11180593E+00 0.26521403E+04</pdfrwt>
<totfact> 0.21541786E+00</totfact>
</mgrwt>
</event>
<event>
11    1  0.3437080E-014  0.2738183E+04  0.7818608E-02  0.8322721E-01
         -1   -1    0    0    0  501 -0.00000000000E+00  0.00000000000E+00  0.10939002135E+04  0.10939002135E+04  0.00000000000E+00 0.  1.
          1   -1    0    0  501    0  0.00000000000E+00 -0.00000000000E+00 -0.17135125133E+04  0.17135125133E+04  0.00000000000E+00 0. -1.
    9900016    2    1    2    0    0  0.73405364711E+02 -0.39978901170E+03 -0.34037430950E+03  0.23142662407E+04  0.22527214566E+04 0.  0.
         23    2    3    3    0    0  0.37816280980E+02 -0.27517008017E+02  0.16104281908E+03  0.19111153212E+03  0.91660085607E+02 0.  0.
        -15    1    3    3    0    0 -0.67416913811E+02  0.70195970588E+03  0.24457050163E+03  0.74639614095E+03  0.00000000000E+00 0.  1.
        -15    1    4    4    0    0 -0.21584636036E+02 -0.13276848252E+02  0.10566697541E+03  0.10866315339E+03  0.00000000000E+00 0. -1.
         15    1    4    4    0    0  0.59400917016E+02 -0.14240159765E+02  0.55375843666E+02  0.82448378724E+02  0.00000000000E+00 0.  1.
         15    1    3    3    0    0  0.69982525708E+01 -0.21586676620E+03 -0.13399095686E+03  0.25416729296E+03  0.00000000000E+00 0. -1.
        -16    1    3    3    0    0  0.33285442442E+02 -0.81475331424E+03 -0.57583684492E+03  0.99825796050E+03  0.00000000000E+00 0.  1.
         16    1    1    2    0    0 -0.73405364711E+02  0.39978901170E+03 -0.27923799031E+03  0.49314648602E+03  0.00000000000E+00 0. -1.
    9900018    1    3    3    0    0  0.62722302529E+02 -0.43611629120E+02 -0.36159828427E+02  0.12433331418E+03  0.91187600000E+02 0.  0.
<mgrwt>
<rscale>  0 0.27381831E+04</rscale>
<asrwt>0</asrwt>
<pdfrwt beam="1">  1        1 0.26361731E+00 0.27381831E+04</pdfrwt>
<pdfrwt beam="2">  1       -1 0.16829234E+00 0.27381831E+04</pdfrwt>
<totfact> 0.10286307E+00</totfact>
</mgrwt>
</event>
<event>
12    1  0.3437080E-014  0.3051807E+04  0.7818608E-02  0.8229090E-01
          1   -1    0    0  501    0  0.00000000000E+00  0.00000000000E+00  0.13041405741E+04  0.13041405741E+04  0.00000000000E+00 0. -1.
         -1   -1    0    0    0  501 -0.00000000000E+00 -0.00000000000E+00 -0.17853761226E+04  0.17853761226E+04  0.00000000000E+00 0.  1.
    9900016    2    1    2    0    0  0.64185540253E+03  0.19473292549E+03 -0.16753154066E+03  0.23490374772E+04  0.22449968779E+04 0.  0.
        -24    2    3    3    0    0  0.62916877979E+03 -0.25406949930E+03  0.82733193907E+03  0.10720998853E+04  0.67196447964E+02 0.  0.
         23    2    3    3    0    0 -0.40695335321E+02  0.25630486954E+03 -0.13173794101E+03  0.30615187549E+03  0.95004154099E+02 0.  0.
        -15    1    5    5    0    0 -0.19304022500E+02  0.25319824511E+03 -0.11473634513E+03  0.27865108201E+03  0.00000000000E+00 0.  1.
        -15    1    3    3    0    0  0.28584185851E+02  0.14168541530E+03 -0.85056542841E+03  0.86275915562E+03  0.00000000000E+00 0.  1.
         15    1    5    5    0    0 -0.21391312821E+02  0.31066244336E+01 -0.17001595880E+02  0.27500793481E+02  0.00000000000E+00 0. -1.
         15    1    4    4    0    0  0.38411505586E+03 -0.12671355675E+03  0.46011086409E+03  0.61261954658E+03  0.00000000000E+00 0. -1.
        -16    1    4    4    0    0  0.24505372393E+03 -0.12735594255E+03  0.36722107498E+03  0.45948033867E+03  0.00000000000E+00 0.  1.
         16    1    1    2    0    0 -0.64185540253E+03 -0.19473292549E+03 -0.31370400779E+03  0.74047921951E+03  0.00000000000E+00 0. -1.
    9900018    1    3    3    0    0  0.24797772214E+02  0.50812139951E+02 -0.12560110303E+02  0.10802656080E+03  0.91187600000E+02 0.  0.
<mgrwt>
<rscale>  0 0.30518070E+04</rscale>
<asrwt>0</asrwt>
<pdfrwt beam="1">  1        1 0.20063701E+00 0.30518070E+04</pdfrwt>
<pdfrwt beam="2">  1       -1 0.27467325E+00 0.30518070E+04</pdfrwt>
<totfact> 0.36678661E-01</totfact>
</mgrwt>
</event>
<event>
12    1  0.3437080E-014  0.3276271E+04  0.7818608E-02  0.8168960E-01
          1   -1    0    0  501    0  0.00000000000E+00  0.00000000000E+00  0.19961976222E+04  0.19961976222E+04  0.00000000000E+00 0. -1.
         -1   -1    0    0    0  501 -0.00000000000E+00 -0.00000000000E+00 -0.13442993535E+04  0.13442993535E+04  0.00000000000E+00 0.  1.
    9900016    2    1    2    0    0 -0.68831948154E+03 -0.28659080554E+03  0.68410152303E+03  0.23779752322E+04  0.21519417540E+04 0.  0.
         24    2    3    3    0    0 -0.11194259026E+04  0.24610716134E+03  0.34538594719E+03  0.11980633699E+04  0.48798559399E+02 0.  0.
         23    2    3    3    0    0  0.12766476959E+02  0.21012904857E+03  0.22051709539E+03  0.31923122208E+03  0.94676205043E+02 0.  0.
        -15    1    4    4    0    0 -0.46826261441E+03  0.80251745760E+02  0.13335532164E+03  0.49345097078E+03  0.00000000000E+00 0.  1.
        -15    1    5    5    0    0 -0.28925717946E+02  0.77394177748E+02  0.41361838052E+02  0.92397822242E+02  0.00000000000E+00 0. -1.
         15    1    3    3    0    0  0.41833994412E+03 -0.74282701546E+03  0.11819848045E+03  0.86068064026E+03  0.00000000000E+00 0. -1.
         15    1    5    5    0    0  0.41692194905E+02  0.13273487082E+03  0.17915525734E+03  0.22683339984E+03  0.00000000000E+00 0.  1.
        -16    1    1    2    0    0  0.77538384620E+03  0.29922787170E+03 -0.58274802280E+02  0.83315867680E+03  0.00000000000E+00 0.  1.
         16    1    4    4    0    0 -0.65116328820E+03  0.16585541558E+03  0.21203062555E+03  0.70461239909E+03  0.00000000000E+00 0. -1.
    9900018    1    1    2    0    0 -0.87064364661E+02 -0.12637066154E+02  0.26071547934E+02  0.12936306675E+03  0.91187600000E+02 0.  0.
<mgrwt>
<rscale>  0 0.32762705E+04</rscale>
<asrwt>0</asrwt>
<pdfrwt beam="1">  1        1 0.30710733E+00 0.32762705E+04</pdfrwt>
<pdfrwt beam="2">  1       -1 0.20681529E+00 0.32762705E+04</pdfrwt>
<totfact> 0.33677627E-01</totfact>
</mgrwt>
</event>
<event>
11    1  0.3437080E-014  0.2418000E+04  0.7818608E-02  0.8432795E-01
          1   -1    0    0  501    0  0.00000000000E+00  0.00000000000E+00  0.17941525542E+04  0.17941525542E+04  0.00000000000E+00 0. -1.
         -1   -1    0    0    0  501 -0.00000000000E+00 -0.00000000000E+00 -0.81469147846E+03  0.81469147846E+03  0.00000000000E+00 0.  1.
    9900016    2    1    2    0    0 -0.11489882862E+03  0.97219231015E+02  0.98329420665E+03  0.24582850323E+04  0.22480312461E+04 0.  0.
         23    2    3    3    0    0 -0.27130060385E+03  0.58674875926E+02 -0.46490485413E+02  0.29562076433E+03  0.90462767768E+02 0.  0.
        -15    1    3    3    0    0  0.47259839510E+02 -0.95427155046E+02 -0.24050746388E+03  0.26302789687E+03  0.00000000000E+00 0.  1.
        -15    1    4    4    0    0 -0.24097624018E+03  0.65443673212E+02 -0.13155486445E+02  0.25005097384E+03  0.00000000000E+00 0. -1.
         15    1    4    4    0    0 -0.30324363670E+02 -0.67687972864E+01 -0.33334998968E+02  0.45569790485E+02  0.00000000000E+00 0.  1.
         15    1    3    3    0    0  0.16883725432E+03  0.18159911553E+03  0.14618135077E+04  0.14826945027E+04  0.00000000000E+00 0. -1.
        -16    1    1    2    0    0  0.11489882862E+03 -0.97219231015E+02 -0.38331309209E+01  0.15055900036E+03  0.00000000000E+00 0.  1.
         16    1    3    3    0    0 -0.60988797456E+02 -0.34101086917E+02 -0.28034421591E+03  0.28892109120E+03  0.00000000000E+00 0. -1.
    9900018    1    3    3    0    0  0.12934788603E+01 -0.13526518480E+02  0.88822864169E+02  0.12802077715E+03  0.91187600000E+02 0.  0.
<mgrwt>
<rscale>  0 0.24179998E+04</rscale>
<asrwt>0</asrwt>
<pdfrwt beam="1">  1        1 0.27602347E+00 0.24179998E+04</pdfrwt>
<pdfrwt beam="2">  1       -1 0.12533715E+00 0.24179998E+04</pdfrwt>
<totfact> 0.20447279E+00</totfact>
</mgrwt>
</event>
<event>
12    1  0.3437080E-014  0.2714553E+04  0.7818608E-02  0.8330298E-01
          2   -1    0    0  501    0  0.00000000000E+00  0.00000000000E+00  0.12505627948E+04  0.12505627948E+04  0.00000000000E+00 0.  1.
         -2   -1    0    0    0  501 -0.00000000000E+00 -0.00000000000E+00 -0.14730964402E+04  0.14730964402E+04  0.00000000000E+00 0. -1.
    9900016    2    1    2    0    0 -0.10261617394E+03  0.23281895609E+03  0.15019500227E+03  0.22723706463E+04  0.22530812391E+04 0.  0.
        -24    2    3    3    0    0 -0.18963947197E+03 -0.25316691256E+03 -0.91913988966E+03  0.97330489250E+03  0.49473852178E+02 0.  0.
         23    2    3    3    0    0 -0.82340177553E+02  0.14376677840E+03  0.39412768077E+03  0.43881807584E+03  0.98873067753E+02 0.  0.
        -15    1    3    3    0    0  0.18208730830E+03  0.27041108486E+03  0.66795015420E+03  0.74325994858E+03  0.00000000000E+00 0.  1.
        -15    1    5    5    0    0  0.10891959110E+02  0.59811944311E+02  0.79378573291E+02  0.99985305687E+02  0.00000000000E+00 0. -1.
         15    1    4    4    0    0 -0.93684123650E+02 -0.10506020440E+03 -0.34355019913E+03  0.37126957982E+03  0.00000000000E+00 0. -1.
         15    1    5    5    0    0 -0.93232136662E+02  0.83954834088E+02  0.31474910747E+03  0.33883277015E+03  0.00000000000E+00 0.  1.
        -16    1    4    4    0    0 -0.95955348323E+02 -0.14810670816E+03 -0.57558969053E+03  0.60203531268E+03  0.00000000000E+00 0.  1.
         16    1    1    2    0    0  0.10261617394E+03 -0.23281895609E+03 -0.37272864770E+03  0.45128858869E+03  0.00000000000E+00 0. -1.
    9900018    1    3    3    0    0 -0.12723832713E+02  0.71808005389E+02  0.72570569588E+01  0.11698772938E+03  0.91187600000E+02 0.  0.
<mgrwt>
<rscale>  0 0.27145531E+04</rscale>
<asrwt>0</asrwt>
<pdfrwt beam="1">  1        2 0.19239428E+00 0.27145531E+04</pdfrwt>
<pdfrwt beam="2">  1       -2 0.22663022E+00 0.27145531E+04</pdfrwt>
<totfact> 0.13901335E+00</totfact>
</mgrwt>
</event>
<event>
12    1  0.3437080E-014  0.2634180E+04  0.7818608E-02  0.8356683E-01
         -2   -1    0    0    0  501 -0.00000000000E+00  0.00000000000E+00  0.47285068467E+03  0.47285068467E+03  0.00000000000E+00 0.  1.
          2   -1    0    0  501    0  0.00000000000E+00 -0.00000000000E+00 -0.36686542138E+04  0.36686542138E+04  0.00000000000E+00 0. -1.
    9900016    2    1    2    0    0 -0.26628419125E+03  0.14329517721E+03 -0.26965323608E+04  0.34613415066E+04  0.21489898731E+04 0.  0.
        -24    2    3    3    0    0  0.47983108281E+03 -0.36565007208E+03 -0.73286152249E+03  0.95400966137E+03  0.95449356252E+02 0.  0.
         23    2    3    3    0    0  0.14718813391E+03 -0.27744611547E+03 -0.21310811077E+03  0.39052476377E+03  0.91944714309E+02 0.  0.
        -15    1    5    5    0    0  0.11202578519E+03 -0.16066357413E+03 -0.84593429555E+02  0.21335090561E+03  0.00000000000E+00 0.  1.
        -15    1    3    3    0    0 -0.89330340797E+03  0.78639136476E+03 -0.17505627275E+04  0.21168070815E+04  0.00000000000E+00 0.  1.
         15    1    5    5    0    0  0.35162348726E+02 -0.11678254134E+03 -0.12851468122E+03  0.17717385817E+03  0.00000000000E+00 0. -1.
         15    1    4    4    0    0  0.31242057951E+03 -0.19580950584E+03 -0.49453708507E+03  0.61685890574E+03  0.00000000000E+00 0. -1.
        -16    1    4    4    0    0  0.16741050330E+03 -0.16984056624E+03 -0.23832443742E+03  0.33715075563E+03  0.00000000000E+00 0.  1.
         16    1    1    2    0    0  0.27007855481E+03 -0.21327077747E+03 -0.34048510645E+03  0.48410428422E+03  0.00000000000E+00 0. -1.
    9900018    1    1    2    0    0 -0.37943635604E+01  0.69975600265E+02 -0.15878606187E+03  0.19605910758E+03  0.91187600000E+02 0.  0.
<mgrwt>
<rscale>  0 0.26341797E+04</rscale>
<asrwt>0</asrwt>
<pdfrwt beam="1">  1        2 0.56440835E+00 0.26341797E+04</pdfrwt>
<pdfrwt beam="2">  1       -2 0.72746259E-01 0.26341797E+04</pdfrwt>
<totfact> 0.92841016E-01</totfact>
</mgrwt>
</event>
<event>
12    1  0.3437080E-014  0.2525042E+04  0.7818608E-02  0.8394118E-01
          1   -1    0    0  501    0  0.00000000000E+00  0.00000000000E+00  0.14537161574E+04  0.14537161574E+04  0.00000000000E+00 0. -1.
         -1   -1    0    0    0  501 -0.00000000000E+00 -0.00000000000E+00 -0.10964718156E+04  0.10964718156E+04  0.00000000000E+00 0.  1.
    9900016    2    1    2    0    0 -0.13199801092E+03  0.15993655959E+03  0.16435518284E+03  0.22669753220E+04  0.22514798037E+04 0.  0.
         24    2    3    3    0    0  0.19225037633E+03 -0.38522164023E+03 -0.47119160819E+03  0.64471521780E+03  0.90995940159E+02 0.  0.
         23    2    3    3    0    0 -0.22609157937E+03 -0.39919380303E+03  0.23301047714E+03  0.52238691557E+03  0.90117215132E+02 0.  0.
        -15    1    4    4    0    0  0.12823691496E+03 -0.28936098370E+03 -0.39662319376E+03  0.50742924933E+03  0.00000000000E+00 0.  1.
        -15    1    5    5    0    0 -0.22210070885E+03 -0.37839187582E+03  0.19777132126E+03  0.48127188997E+03  0.00000000000E+00 0.  1.
         15    1    3    3    0    0 -0.56111653751E+02  0.91646999621E+03  0.34523150774E+03  0.98094371172E+03  0.00000000000E+00 0. -1.
         15    1    5    5    0    0 -0.39908705139E+01 -0.20801927210E+02  0.35239155881E+02  0.41115025603E+02  0.00000000000E+00 0. -1.
        -16    1    1    2    0    0  0.13199801092E+03 -0.15993655959E+03  0.19288915898E+03  0.28321265090E+03  0.00000000000E+00 0.  1.
         16    1    4    4    0    0  0.64013461370E+02 -0.95860656528E+02 -0.74568414434E+02  0.13728596847E+03  0.00000000000E+00 0. -1.
    9900018    1    3    3    0    0 -0.42045154134E+02  0.27882006644E+02  0.57304806158E+02  0.11892947693E+03  0.91187600000E+02 0.  0.
<mgrwt>
<rscale>  0 0.25250416E+04</rscale>
<asrwt>0</asrwt>
<pdfrwt beam="1">  1        1 0.22364864E+00 0.25250416E+04</pdfrwt>
<pdfrwt beam="2">  1       -1 0.16868797E+00 0.25250416E+04</pdfrwt>
<totfact> 0.15714880E+00</totfact>
</mgrwt>
</event>
<event>
12    1  0.3437080E-014  0.3204076E+04  0.7818608E-02  0.8187742E-01
         -2   -1    0    0    0  501 -0.00000000000E+00  0.00000000000E+00  0.14831354706E+04  0.14831354706E+04  0.00000000000E+00 0.  1.
          2   -1    0    0  501    0  0.00000000000E+00 -0.00000000000E+00 -0.17304723767E+04  0.17304723767E+04  0.00000000000E+00 0. -1.
    9900016    2    1    2    0    0 -0.42069039373E+03 -0.36422889911E+03 -0.77987042681E+03  0.24433903137E+04  0.22477355815E+04 0.  0.
         24    2    3    3    0    0 -0.27650680958E+03 -0.10866344663E+02  0.64906769617E+03  0.70737269748E+03  0.50131484486E+02 0.  0.
         23    2    3    3    0    0 -0.40687673450E+03 -0.21781186858E+03 -0.44152172249E+03  0.64504487255E+03  0.90281609411E+02 0.  0.
        -15    1    4    4    0    0 -0.27220152415E+03 -0.56377299675E+01  0.61398289172E+03  0.67164011574E+03  0.00000000000E+00 0.  1.
        -15    1    5    5    0    0 -0.29534164140E+02 -0.13413984511E+02 -0.71071478824E+02  0.78123984372E+02  0.00000000000E+00 0. -1.
         15    1    5    5    0    0 -0.37734257036E+03 -0.20439788407E+03 -0.37045024367E+03  0.56692088818E+03  0.00000000000E+00 0.  1.
         15    1    3    3    0    0  0.29899282773E+03 -0.13098235832E+03 -0.90717817629E+03  0.96411894119E+03  0.00000000000E+00 0. -1.
        -16    1    1    2    0    0  0.42069039373E+03  0.36422889911E+03  0.53253352075E+03  0.77021753359E+03  0.00000000000E+00 0.  1.
         16    1    4    4    0    0 -0.43052854285E+01 -0.52286146955E+01  0.35084804452E+02  0.35732581739E+02  0.00000000000E+00 0. -1.
    9900018    1    3    3    0    0 -0.36299677368E+02 -0.45683275489E+01 -0.80238224206E+02  0.12685380251E+03  0.91187600000E+02 0.  0.
<mgrwt>
<rscale>  0 0.32040755E+04</rscale>
<asrwt>0</asrwt>
<pdfrwt beam="1">  1        2 0.26622652E+00 0.32040755E+04</pdfrwt>
<pdfrwt beam="2">  1       -2 0.22817469E+00 0.32040755E+04</pdfrwt>
<totfact> 0.69696246E-01</totfact>
</mgrwt>
</event>
<event>
12    1  0.3437080E-014  0.2563936E+04  0.7818608E-02  0.8380555E-01
         -2   -1    0    0    0  501 -0.00000000000E+00  0.00000000000E+00  0.90013080236E+03  0.90013080236E+03  0.00000000000E+00 0.  1.
          2   -1    0    0  501    0  0.00000000000E+00 -0.00000000000E+00 -0.18257816049E+04  0.18257816049E+04  0.00000000000E+00 0. -1.
    9900016    2    1    2    0    0 -0.25007537776E+02 -0.11658406858E+03 -0.51507436072E+03  0.22983726587E+04  0.22367382635E+04 0.  0.
        -24    2    3    3    0    0  0.62111314237E+03 -0.17796513872E+03 -0.93850582406E+03  0.11433595762E+04  0.94999013369E+02 0.  0.
         23    2    3    3    0    0  0.48238538497E+02  0.22149250775E+03  0.68722559167E+02  0.25667486352E+03  0.98860041658E+02 0.  0.
        -15    1    3    3    0    0 -0.69691355247E+03 -0.14855564222E+03  0.37344131590E+03  0.80449716897E+03  0.00000000000E+00 0.  1.
        -15    1    5    5    0    0  0.33471972375E+02  0.13965867090E+03  0.91712620786E+02  0.17039988880E+03  0.00000000000E+00 0.  1.
         15    1    5    5    0    0  0.14766566122E+02  0.81833836851E+02 -0.22990061619E+02  0.86274974715E+02  0.00000000000E+00 0. -1.
         15    1    4    4    0    0  0.28600308714E+03 -0.33255174741E+02 -0.42393254203E+03  0.51246704547E+03  0.00000000000E+00 0. -1.
        -16    1    4    4    0    0  0.33511005523E+03 -0.14470996398E+03 -0.51457328202E+03  0.63089253076E+03  0.00000000000E+00 0.  1.
         16    1    1    2    0    0  0.25007537776E+02  0.11658406858E+03 -0.41057644182E+03  0.42753974853E+03  0.00000000000E+00 0. -1.
    9900018    1    3    3    0    0  0.25543338296E+01 -0.11555795388E+02 -0.18732411731E+02  0.93841050033E+02  0.91187600000E+02 0.  0.
<mgrwt>
<rscale>  0 0.25639362E+04</rscale>
<asrwt>0</asrwt>
<pdfrwt beam="1">  1        2 0.28088948E+00 0.25639362E+04</pdfrwt>
<pdfrwt beam="2">  1       -2 0.13848166E+00 0.25639362E+04</pdfrwt>
<totfact> 0.27371300E+00</totfact>
</mgrwt>
</event>
<event>
12    1  0.3437080E-014  0.3433608E+04  0.7818608E-02  0.8129707E-01
          2   -1    0    0  501    0  0.00000000000E+00  0.00000000000E+00  0.11610817412E+04  0.11610817412E+04  0.00000000000E+00 0. -1.
         -2   -1    0    0    0  501 -0.00000000000E+00 -0.00000000000E+00 -0.25385083765E+04  0.25385083765E+04  0.00000000000E+00 0.  1.
    9900016    2    1    2    0    0  0.24687397849E+03  0.75121917590E+03 -0.14663404367E+04  0.27204128725E+04  0.21506312815E+04 0.  0.
        -24    2    3    3    0    0 -0.37243730983E+03 -0.43025132888E+03 -0.98699070675E+03  0.11428854409E+04  0.90613023227E+02 0.  0.
         23    2    3    3    0    0 -0.45519530422E+02  0.25886726102E+02 -0.18396469274E+03  0.21201426532E+03  0.91459774145E+02 0.  0.
        -15    1    5    5    0    0 -0.58833697111E+02  0.47050052537E+02 -0.16229831491E+03  0.17892974706E+03  0.00000000000E+00 0.  1.
        -15    1    3    3    0    0  0.66483081874E+03  0.11555837787E+04 -0.29538503719E+03  0.13655131663E+04  0.00000000000E+00 0.  1.
         15    1    5    5    0    0  0.13314166689E+02 -0.21163326436E+02 -0.21666377829E+02  0.33084518263E+02  0.00000000000E+00 0. -1.
         15    1    4    4    0    0 -0.24479760242E+03 -0.23081605931E+03 -0.63565569988E+03  0.71920795892E+03  0.00000000000E+00 0. -1.
        -16    1    4    4    0    0 -0.12763970741E+03 -0.19943526956E+03 -0.35133500688E+03  0.42367748195E+03  0.00000000000E+00 0.  1.
         16    1    1    2    0    0 -0.24885060686E+03 -0.81442147236E+03  0.12876433165E+03  0.86127185736E+03  0.00000000000E+00 0. -1.
    9900018    1    1    2    0    0  0.19766283651E+01  0.63202296459E+02 -0.39850530217E+02  0.11790538787E+03  0.91187600000E+02 0.  0.
<mgrwt>
<rscale>  0 0.34336079E+04</rscale>
<asrwt>0</asrwt>
<pdfrwt beam="1">  1        2 0.17862796E+00 0.34336079E+04</pdfrwt>
<pdfrwt beam="2">  1       -2 0.39053975E+00 0.34336079E+04</pdfrwt>
<totfact> 0.14118825E-01</totfact>
</mgrwt>
</event>
<event>
12    1  0.3437080E-014  0.3719583E+04  0.7818608E-02  0.8063636E-01
         -2   -1    0    0    0  501 -0.00000000000E+00  0.00000000000E+00  0.18465409037E+04  0.18465409037E+04  0.00000000000E+00 0.  1.
          2   -1    0    0  501    0  0.00000000000E+00 -0.00000000000E+00 -0.18731371744E+04  0.18731371744E+04  0.00000000000E+00 0. -1.
    9900016    2    1    2    0    0 -0.10563580539E+04 -0.13626572998E+03  0.28163084635E+03  0.24226597049E+04  0.21576615640E+04 0.  0.
        -24    2    3    3    0    0  0.18238625897E+02 -0.92424172291E+03  0.25323544578E+03  0.96313573164E+03  0.94587719714E+02 0.  0.
         23    2    3    3    0    0  0.36833776780E+02  0.12989267025E+03 -0.38633046402E+02  0.16613921528E+03  0.88774397670E+02 0.  0.
        -15    1    3    3    0    0 -0.11114304566E+04  0.65808332267E+03  0.67028446965E+02  0.12933847580E+04  0.00000000000E+00 0.  1.
        -15    1    5    5    0    0  0.40323954693E+02  0.14040776012E+03 -0.24407629139E+02  0.14810838188E+03  0.00000000000E+00 0. -1.
         15    1    5    5    0    0 -0.34901779136E+01 -0.10515089864E+02 -0.14225417263E+02  0.18030833398E+02  0.00000000000E+00 0.  1.
         15    1    4    4    0    0  0.31448740114E+02 -0.26748570814E+03  0.10930544797E+03  0.29066356543E+03  0.00000000000E+00 0. -1.
        -16    1    4    4    0    0 -0.13210114218E+02 -0.65675601478E+03  0.14392999781E+03  0.67247216621E+03  0.00000000000E+00 0.  1.
         16    1    1    2    0    0  0.11118123258E+04  0.17284570284E+03 -0.34742103166E+03  0.11775838221E+04  0.00000000000E+00 0. -1.
    9900018    1    1    2    0    0 -0.55454271852E+02 -0.36579972855E+02  0.39193914625E+02  0.11943455119E+03  0.91187600000E+02 0.  0.
<mgrwt>
<rscale>  0 0.37195830E+04</rscale>
<asrwt>0</asrwt>
<pdfrwt beam="1">  1        2 0.28817495E+00 0.37195830E+04</pdfrwt>
<pdfrwt beam="2">  1       -2 0.28408322E+00 0.37195830E+04</pdfrwt>
<totfact> 0.25222761E-01</totfact>
</mgrwt>
</event>
<event>
12    1  0.3437080E-014  0.3153331E+04  0.7818608E-02  0.8201252E-01
         -2   -1    0    0    0  501 -0.00000000000E+00  0.00000000000E+00  0.50760424695E+03  0.50760424695E+03  0.00000000000E+00 0. -1.
          2   -1    0    0  501    0  0.00000000000E+00 -0.00000000000E+00 -0.48972688372E+04  0.48972688372E+04  0.00000000000E+00 0.  1.
    9900016    2    1    2    0    0 -0.45112455418E+03  0.71062410311E+02 -0.22447356250E+04  0.31450080855E+04  0.21549186997E+04 0.  0.
         24    2    3    3    0    0  0.66769381034E+03  0.47127833478E+02 -0.16455205959E+04  0.17790758539E+04  0.96627145505E+02 0.  0.
         23    2    3    3    0    0 -0.33913657764E+03  0.11071579008E+03  0.17290906400E+02  0.36817763440E+03  0.89354297941E+02 0.  0.
        -15    1    4    4    0    0  0.44576542923E+03  0.49667504961E+02 -0.12058195455E+04  0.12865358352E+04  0.00000000000E+00 0.  1.
        -15    1    5    5    0    0 -0.23187245103E+03  0.50774868003E+02  0.46498252361E+02  0.24187808549E+03  0.00000000000E+00 0.  1.
         15    1    3    3    0    0 -0.77968178688E+03 -0.86781213243E+02 -0.61650593543E+03  0.99775459717E+03  0.00000000000E+00 0. -1.
         15    1    5    5    0    0 -0.10726412662E+03  0.59940922073E+02 -0.29207345961E+02  0.12629954892E+03  0.00000000000E+00 0. -1.
        -16    1    1    2    0    0  0.51183858254E+03 -0.11249364329E+03 -0.20270335244E+04  0.20936806020E+04  0.00000000000E+00 0.  1.
         16    1    4    4    0    0  0.22192838111E+03 -0.25396714832E+01 -0.43970105047E+03  0.49254001873E+03  0.00000000000E+00 0. -1.
    9900018    1    1    2    0    0 -0.60714028353E+02  0.41431232978E+02 -0.11789544089E+03  0.16618439663E+03  0.91187600000E+02 0.  0.
<mgrwt>
<rscale>  0 0.31533312E+04</rscale>
<asrwt>0</asrwt>
<pdfrwt beam="1">  1        2 0.75342594E+00 0.31533312E+04</pdfrwt>
<pdfrwt beam="2">  1       -2 0.78092965E-01 0.31533312E+04</pdfrwt>
<totfact> 0.56448554E-02</totfact>
</mgrwt>
</event>
<event>
11    1  0.3437080E-014  0.2792035E+04  0.7818608E-02  0.8305745E-01
         -2   -1    0    0    0  501 -0.00000000000E+00  0.00000000000E+00  0.86785990599E+03  0.86785990599E+03  0.00000000000E+00 0.  1.
          2   -1    0    0  501    0  0.00000000000E+00 -0.00000000000E+00 -0.22455992290E+04  0.22455992290E+04  0.00000000000E+00 0. -1.
    9900016    2    1    2    0    0 -0.60936854013E+02 -0.24721021124E+03 -0.65181431772E+03  0.22621953253E+04  0.21512414082E+04 0.  0.
         23    2    3    3    0    0 -0.34394839629E+03  0.18366370666E+03 -0.33248738621E+03  0.51931178254E+03  0.84285283659E+02 0.  0.
        -15    1    4    4    0    0 -0.12828906725E+03  0.57930221670E+02 -0.17319877669E+03  0.22318559901E+03  0.00000000000E+00 0. -1.
        -15    1    3    3    0    0 -0.36962779720E+03  0.36385823179E+03  0.22666977439E+03  0.56603595992E+03  0.00000000000E+00 0.  1.
         15    1    4    4    0    0 -0.21565932904E+03  0.12573348499E+03 -0.15928860953E+03  0.29612618353E+03  0.00000000000E+00 0.  1.
         15    1    3    3    0    0  0.20461434933E+03 -0.14313196534E+03 -0.10004931702E+03  0.26900493916E+03  0.00000000000E+00 0. -1.
        -16    1    3    3    0    0  0.44802499014E+03 -0.65160018435E+03 -0.44594738888E+03  0.90784264368E+03  0.00000000000E+00 0.  1.
         16    1    1    2    0    0  0.89888811402E+02  0.22114066197E+03 -0.71222024658E+03  0.75115968371E+03  0.00000000000E+00 0. -1.
    9900018    1    1    2    0    0 -0.28951957389E+02  0.26069549269E+02 -0.13704758728E+02  0.10010412600E+03  0.91187600000E+02 0.  0.
<mgrwt>
<rscale>  0 0.27920355E+04</rscale>
<asrwt>0</asrwt>
<pdfrwt beam="1">  1        2 0.34547680E+00 0.27920355E+04</pdfrwt>
<pdfrwt beam="2">  1       -2 0.13351691E+00 0.27920355E+04</pdfrwt>
<totfact> 0.17195549E+00</totfact>
</mgrwt>
</event>
<event>
12    1  0.3437080E-014  0.2691766E+04  0.7818608E-02  0.8337682E-01
         -1   -1    0    0    0  501 -0.00000000000E+00  0.00000000000E+00  0.11044584386E+04  0.11044584386E+04  0.00000000000E+00 0.  1.
          1   -1    0    0  501    0  0.00000000000E+00 -0.00000000000E+00 -0.16400805996E+04  0.16400805996E+04  0.00000000000E+00 0. -1.
    9900016    2    1    2    0    0 -0.14798732121E+03 -0.33911984502E+03 -0.62411817875E+03  0.23640997373E+04  0.22500092333E+04 0.  0.
         24    2    3    3    0    0  0.47535428008E+03 -0.55104441824E+03  0.47164924801E+02  0.73158392245E+03  0.58127988077E+02 0.  0.
         23    2    3    3    0    0  0.37912765179E+03 -0.61331323025E+01 -0.12260925478E+03  0.40856995364E+03  0.90116513480E+02 0.  0.
        -15    1    4    4    0    0  0.27283482441E+03 -0.29866453274E+03  0.52739603250E+02  0.40794706799E+03  0.00000000000E+00 0.  1.
        -15    1    5    5    0    0  0.68360680768E+02 -0.36050858324E+02 -0.18528230163E+02  0.79474161675E+02  0.00000000000E+00 0. -1.
         15    1    5    5    0    0  0.31076697102E+03  0.29917726021E+02 -0.10408102461E+03  0.32909579197E+03  0.00000000000E+00 0.  1.
         15    1    3    3    0    0 -0.95614063955E+03  0.24501629391E+03 -0.47761655557E+03  0.10965197130E+04  0.00000000000E+00 0. -1.
        -16    1    1    2    0    0  0.14798732121E+03  0.33911984502E+03  0.88496017750E+02  0.38043930092E+03  0.00000000000E+00 0.  1.
         16    1    4    4    0    0  0.20251945567E+03 -0.25237988550E+03 -0.55746784490E+01  0.32363685447E+03  0.00000000000E+00 0. -1.
    9900018    1    3    3    0    0 -0.46328613531E+02 -0.26958588393E+02 -0.71057293207E+02  0.12742614815E+03  0.91187600000E+02 0.  0.
<mgrwt>
<rscale>  0 0.26917659E+04</rscale>
<asrwt>0</asrwt>
<pdfrwt beam="1">  1        1 0.25232009E+00 0.26917659E+04</pdfrwt>
<pdfrwt beam="2">  1       -1 0.16991668E+00 0.26917659E+04</pdfrwt>
<totfact> 0.11277442E+00</totfact>
</mgrwt>
</event>
<event>
12    1  0.3437080E-014  0.2876600E+04  0.7818608E-02  0.8279874E-01
         -2   -1    0    0    0  501 -0.00000000000E+00  0.00000000000E+00  0.10955937041E+04  0.10955937041E+04  0.00000000000E+00 0.  1.
          2   -1    0    0  501    0  0.00000000000E+00 -0.00000000000E+00 -0.18882067100E+04  0.18882067100E+04  0.00000000000E+00 0. -1.
    9900016    2    1    2    0    0 -0.41393048934E+02 -0.27076492065E+03 -0.18033751105E+03  0.21851629038E+04  0.21604139121E+04 0.  0.
        -24    2    3    3    0    0 -0.44834030001E+03 -0.83697739135E+03 -0.10110788786E+03  0.95945427774E+03  0.93752481754E+02 0.  0.
         23    2    3    3    0    0  0.37877067741E+03 -0.10401341423E+03  0.25392034506E+03  0.47671893492E+03  0.92192108489E+02 0.  0.
        -15    1    5    5    0    0  0.28661252673E+03 -0.73444610149E+02  0.23489136491E+03  0.37777613020E+03  0.00000000000E+00 0.  1.
        -15    1    3    3    0    0  0.28176573672E+02  0.67022588493E+03 -0.33314996825E+03  0.74898969117E+03  0.00000000000E+00 0.  1.
         15    1    5    5    0    0  0.92158150678E+02 -0.30568804084E+02  0.19028980146E+02  0.98942804715E+02  0.00000000000E+00 0. -1.
         15    1    4    4    0    0 -0.86304795851E+02 -0.12845495488E+03  0.14529231277E+02  0.15543581242E+03  0.00000000000E+00 0. -1.
        -16    1    4    4    0    0 -0.36203550416E+03 -0.70852243647E+03 -0.11563711914E+03  0.80401846532E+03  0.00000000000E+00 0.  1.
         16    1    1    2    0    0  0.46453555777E+02  0.28566959919E+03 -0.63969740340E+03  0.70212379297E+03  0.00000000000E+00 0. -1.
    9900018    1    1    2    0    0 -0.50605068424E+01 -0.14904678543E+02  0.27421908464E+02  0.96513717313E+02  0.91187600000E+02 0.  0.
<mgrwt>
<rscale>  0 0.28766003E+04</rscale>
<asrwt>0</asrwt>
<pdfrwt beam="1">  1        2 0.29049333E+00 0.28766003E+04</pdfrwt>
<pdfrwt beam="2">  1       -2 0.16855288E+00 0.28766003E+04</pdfrwt>
<totfact> 0.14551127E+00</totfact>
</mgrwt>
</event>
<event>
12    1  0.3437080E-014  0.2811112E+04  0.7818608E-02  0.8299827E-01
          1   -1    0    0  501    0  0.00000000000E+00  0.00000000000E+00  0.14374386083E+04  0.14374386083E+04  0.00000000000E+00 0. -1.
         -1   -1    0    0    0  501 -0.00000000000E+00 -0.00000000000E+00 -0.13743803846E+04  0.13743803846E+04  0.00000000000E+00 0.  1.
    9900016    2    1    2    0    0 -0.85032989647E+02 -0.89761726991E+02 -0.38953192522E+03  0.21902325422E+04  0.21517657148E+04 0.  0.
        -24    2    3    3    0    0  0.18588193255E+03 -0.94552036796E+03 -0.46985282240E+03  0.10742899573E+04  0.69111348522E+02 0.  0.
         23    2    3    3    0    0 -0.13902331752E+03 -0.38715866038E+01 -0.14152054042E+03  0.21840531723E+03  0.91270735918E+02 0.  0.
        -15    1    5    5    0    0 -0.59034460239E+02  0.40327433455E+02 -0.40446624762E+02  0.82141943241E+02  0.00000000000E+00 0. -1.
        -15    1    3    3    0    0 -0.13189160468E+03  0.85963022757E+03  0.22184143760E+03  0.89753726774E+03  0.00000000000E+00 0.  1.
         15    1    5    5    0    0 -0.79988857278E+02 -0.44199020059E+02 -0.10107391566E+03  0.13626337399E+03  0.00000000000E+00 0.  1.
         15    1    4    4    0    0  0.37020900621E+02 -0.16196660850E+03 -0.53234278116E+02  0.17446380060E+03  0.00000000000E+00 0. -1.
        -16    1    4    4    0    0  0.14886103193E+03 -0.78355375946E+03 -0.41661854428E+03  0.89982615667E+03  0.00000000000E+00 0.  1.
         16    1    1    2    0    0  0.11559282459E+03  0.47162818887E+02  0.49325963378E+03  0.50881342248E+03  0.00000000000E+00 0. -1.
    9900018    1    1    2    0    0 -0.30559834947E+02  0.42598908104E+02 -0.40669484891E+02  0.11277302815E+03  0.91187600000E+02 0.  0.
<mgrwt>
<rscale>  0 0.28111118E+04</rscale>
<asrwt>0</asrwt>
<pdfrwt beam="1">  1        1 0.22114440E+00 0.28111118E+04</pdfrwt>
<pdfrwt beam="2">  1       -1 0.21144314E+00 0.28111118E+04</pdfrwt>
<totfact> 0.78624489E-01</totfact>
</mgrwt>
</event>
<event>
12    1  0.3437080E-014  0.2855189E+04  0.7818608E-02  0.8286336E-01
          1   -1    0    0  501    0  0.00000000000E+00  0.00000000000E+00  0.22751127066E+04  0.22751127066E+04  0.00000000000E+00 0. -1.
         -1   -1    0    0    0  501 -0.00000000000E+00 -0.00000000000E+00 -0.89579149943E+03  0.89579149943E+03  0.00000000000E+00 0.  1.
    9900016    2    1    2    0    0 -0.61057301074E+02  0.39333308846E+03  0.15328252465E+04  0.27442868100E+04  0.22412313461E+04 0.  0.
        -24    2    3    3    0    0 -0.45887406978E+03  0.95184782110E+02 -0.39326118743E+03  0.61453177586E+03  0.58046423999E+02 0.  0.
         23    2    3    3    0    0 -0.34743400709E+01  0.11995909479E+03  0.56013769508E+02  0.16348817367E+03  0.95857107683E+02 0.  0.
        -15    1    5    5    0    0  0.64693552068E+01  0.36156675393E+02 -0.26631664921E+02  0.45369629806E+02  0.00000000000E+00 0. -1.
        -15    1    3    3    0    0  0.42646493293E+03  0.14550636764E+03  0.17631122071E+04  0.18197827060E+04  0.00000000000E+00 0.  1.
         15    1    5    5    0    0 -0.99436952777E+01  0.83802419402E+02  0.82645434429E+02  0.11811854387E+03  0.00000000000E+00 0.  1.
         15    1    4    4    0    0 -0.27616040183E+03  0.42722166723E+02 -0.26573237179E+03  0.38562085587E+03  0.00000000000E+00 0. -1.
        -16    1    4    4    0    0 -0.18271366796E+03  0.52462615387E+02 -0.12752881564E+03  0.22891091999E+03  0.00000000000E+00 0.  1.
         16    1    1    2    0    0  0.61057301074E+02 -0.39333308846E+03 -0.15350403931E+03  0.42661739601E+03  0.00000000000E+00 0. -1.
    9900018    1    3    3    0    0 -0.25173824147E+02  0.32682843917E+02  0.10696045725E+03  0.14648415449E+03  0.91187600000E+02 0.  0.
<mgrwt>
<rscale>  0 0.28551894E+04</rscale>
<asrwt>0</asrwt>
<pdfrwt beam="1">  1        1 0.35001734E+00 0.28551894E+04</pdfrwt>
<pdfrwt beam="2">  1       -1 0.13781408E+00 0.28551894E+04</pdfrwt>
<totfact> 0.72823369E-01</totfact>
</mgrwt>
</event>
<event>
12    1  0.3437080E-014  0.2797528E+04  0.7818608E-02  0.8304036E-01
         -2   -1    0    0    0  501 -0.00000000000E+00  0.00000000000E+00  0.24405821630E+04  0.24405821630E+04  0.00000000000E+00 0.  1.
          2   -1    0    0  501    0  0.00000000000E+00 -0.00000000000E+00 -0.80166955553E+03  0.80166955553E+03  0.00000000000E+00 0. -1.
    9900016    2    1    2    0    0  0.40543383991E+03  0.98936939299E+02  0.12264345614E+04  0.25165403623E+04  0.21574680867E+04 0.  0.
        -24    2    3    3    0    0  0.98166121284E+03 -0.34086828841E+03  0.26692882588E+03  0.10749175747E+04  0.65930778435E+02 0.  0.
         23    2    3    3    0    0 -0.39351001398E+03 -0.16981296798E+03  0.35441432251E+03  0.56346813378E+03  0.90555234994E+02 0.  0.
        -15    1    3    3    0    0 -0.18271735895E+03  0.60961819569E+03  0.60509141302E+03  0.87815465374E+03  0.00000000000E+00 0.  1.
        -15    1    5    5    0    0 -0.33231656231E+03 -0.14044953710E+03  0.33631591630E+03  0.49322283566E+03  0.00000000000E+00 0.  1.
         15    1    4    4    0    0  0.62053517122E+03 -0.24753394726E+03  0.16194739669E+03  0.68743284259E+03  0.00000000000E+00 0. -1.
         15    1    5    5    0    0 -0.61193451673E+02 -0.29363430880E+02  0.18098406208E+02  0.70245298120E+02  0.00000000000E+00 0. -1.
        -16    1    4    4    0    0  0.36112604162E+03 -0.93334341147E+02  0.10498142919E+03  0.38748473215E+03  0.00000000000E+00 0.  1.
         16    1    1    2    0    0 -0.47115252996E+03 -0.10974806870E+03  0.32376068532E+03  0.58210851774E+03  0.00000000000E+00 0. -1.
    9900018    1    1    2    0    0  0.65718690045E+02  0.10811129400E+02  0.88717360715E+02  0.14360283850E+03  0.91187600000E+02 0.  0.
<mgrwt>
<rscale>  0 0.27975278E+04</rscale>
<asrwt>0</asrwt>
<pdfrwt beam="1">  1        2 0.12333378E+00 0.27975278E+04</pdfrwt>
<pdfrwt beam="2">  1       -2 0.37547418E+00 0.27975278E+04</pdfrwt>
<totfact> 0.32006526E-01</totfact>
</mgrwt>
</event>
<event>
12    1  0.3437080E-014  0.2566549E+04  0.7818608E-02  0.8379653E-01
         -2   -1    0    0    0  501 -0.00000000000E+00  0.00000000000E+00  0.13705037840E+04  0.13705037840E+04  0.00000000000E+00 0.  1.
          2   -1    0    0  501    0  0.00000000000E+00 -0.00000000000E+00 -0.12015975679E+04  0.12015975679E+04  0.00000000000E+00 0. -1.
    9900016    2    1    2    0    0 -0.22867108970E+02  0.25685254950E+03  0.11177778449E+03  0.21671199306E+04  0.21488179038E+04 0.  0.
         24    2    3    3    0    0  0.39996358385E+03  0.19620230041E+03  0.67697736610E+03  0.81328417799E+03  0.68312435659E+02 0.  0.
         23    2    3    3    0    0  0.25862435778E+03 -0.13733579087E+03 -0.56480630767E+03  0.64420231718E+03  0.10120663208E+03 0.  0.
        -15    1    5    5    0    0  0.10787170265E+03 -0.11324873188E+03 -0.26330821937E+03  0.30625609854E+03  0.00000000000E+00 0. -1.
        -15    1    4    4    0    0  0.18390572885E+03  0.12612525962E+03  0.35573016392E+03  0.41984860098E+03  0.00000000000E+00 0.  1.
         15    1    3    3    0    0 -0.68145505060E+03  0.19798603996E+03 -0.39327393491E+00  0.70963343542E+03  0.00000000000E+00 0. -1.
         15    1    5    5    0    0  0.15075265513E+03 -0.24087058987E+02 -0.30149808830E+03  0.33794621863E+03  0.00000000000E+00 0.  1.
        -16    1    1    2    0    0  0.10174901810E+02 -0.27650579740E+03  0.10912602718E+03  0.29743482383E+03  0.00000000000E+00 0.  1.
         16    1    4    4    0    0  0.21605785500E+03  0.70077040786E+02  0.32124720218E+03  0.39343557701E+03  0.00000000000E+00 0. -1.
    9900018    1    1    2    0    0  0.12692207160E+02  0.19653247898E+02 -0.51997595552E+02  0.10754659740E+03  0.91187600000E+02 0.  0.
<mgrwt>
<rscale>  0 0.25665494E+04</rscale>
<asrwt>0</asrwt>
<pdfrwt beam="1">  1        2 0.18486116E+00 0.25665494E+04</pdfrwt>
<pdfrwt beam="2">  1       -2 0.21084674E+00 0.25665494E+04</pdfrwt>
<totfact> 0.18955838E+00</totfact>
</mgrwt>
</event>
<event>
12    1  0.3437080E-014  0.2792280E+04  0.7818608E-02  0.8305669E-01
         -2   -1    0    0    0  501 -0.00000000000E+00  0.00000000000E+00  0.10669394232E+04  0.10669394232E+04  0.00000000000E+00 0.  1.
          2   -1    0    0  501    0  0.00000000000E+00 -0.00000000000E+00 -0.18269146667E+04  0.18269146667E+04  0.00000000000E+00 0. -1.
    9900016    2    1    2    0    0  0.39671098551E+03 -0.14632230464E+03 -0.37235398126E+03  0.22183022456E+04  0.21455599602E+04 0.  0.
        -24    2    3    3    0    0  0.33166947941E+03  0.39043959697E+03  0.56711610457E+03  0.77081490787E+03  0.10043517153E+03 0.  0.
         23    2    3    3    0    0  0.48045748219E+03 -0.35357389364E+03 -0.33516001876E+03  0.69163091184E+03  0.10083248275E+03 0.  0.
        -15    1    3    3    0    0 -0.41541597609E+03 -0.18318800797E+03 -0.60431006707E+03  0.75585642593E+03  0.00000000000E+00 0.  1.
        -15    1    5    5    0    0  0.38410491163E+03 -0.30762478262E+03 -0.23534970360E+03  0.54548975518E+03  0.00000000000E+00 0.  1.
         15    1    5    5    0    0  0.96352570565E+02 -0.45949111021E+02 -0.99810315161E+02  0.14614115666E+03  0.00000000000E+00 0. -1.
         15    1    4    4    0    0  0.11164129928E+03  0.67017475753E+02  0.15885874608E+03  0.20540502176E+03  0.00000000000E+00 0. -1.
        -16    1    4    4    0    0  0.22002818013E+03  0.32342212122E+03  0.40825735850E+03  0.56540988611E+03  0.00000000000E+00 0.  1.
         16    1    1    2    0    0 -0.43252457589E+03  0.10009983670E+03 -0.32730144869E+03  0.55156479617E+03  0.00000000000E+00 0. -1.
    9900018    1    1    2    0    0  0.35813590376E+02  0.46222467939E+02 -0.60319813605E+02  0.12398704813E+03  0.91187600000E+02 0.  0.
<mgrwt>
<rscale>  0 0.27922803E+04</rscale>
<asrwt>0</asrwt>
<pdfrwt beam="1">  1        2 0.28106379E+00 0.27922803E+04</pdfrwt>
<pdfrwt beam="2">  1       -2 0.16414453E+00 0.27922803E+04</pdfrwt>
<totfact> 0.17050640E+00</totfact>
</mgrwt>
</event>
<event>
11    1  0.3437080E-014  0.2640850E+04  0.7818608E-02  0.8354456E-01
         -2   -1    0    0    0  501 -0.00000000000E+00  0.00000000000E+00  0.58779787701E+03  0.58779787701E+03  0.00000000000E+00 0. -1.
          2   -1    0    0  501    0  0.00000000000E+00 -0.00000000000E+00 -0.29661942620E+04  0.29661942620E+04  0.00000000000E+00 0.  1.
    9900016    2    1    2    0    0 -0.17752348172E+03  0.16062624045E+03 -0.22748758639E+04  0.31355939697E+04  0.21446617381E+04 0.  0.
         23    2    3    3    0    0  0.74231335154E+01  0.16429015650E+03 -0.52817036585E+03  0.56081728933E+03  0.92226559128E+02 0.  0.
        -15    1    4    4    0    0 -0.31461151901E+02  0.12008124077E+03 -0.28948324783E+03  0.31497596612E+03  0.00000000000E+00 0. -1.
        -15    1    3    3    0    0  0.28104633846E+02  0.84452621152E+02  0.54967155999E+02  0.10461120352E+03  0.00000000000E+00 0.  1.
         15    1    4    4    0    0  0.38884285416E+02  0.44208915733E+02 -0.23868711803E+03  0.24584132320E+03  0.00000000000E+00 0.  1.
         15    1    3    3    0    0 -0.18769185110E+03 -0.57221571192E+03 -0.18844950328E+04  0.19783782703E+04  0.00000000000E+00 0. -1.
        -16    1    1    2    0    0  0.20837005726E+03 -0.20986203375E+03 -0.59535689238E+02  0.30166977354E+03  0.00000000000E+00 0.  1.
         16    1    3    3    0    0 -0.25359397979E+02  0.48409917472E+03  0.82822378784E+02  0.49178720648E+03  0.00000000000E+00 0. -1.
    9900018    1    1    2    0    0 -0.30846575538E+02  0.49235793301E+02 -0.43984831933E+02  0.11672839585E+03  0.91187600000E+02 0.  0.
<mgrwt>
<rscale>  0 0.26408504E+04</rscale>
<asrwt>0</asrwt>
<pdfrwt beam="1">  1        2 0.45633759E+00 0.26408504E+04</pdfrwt>
<pdfrwt beam="2">  1       -2 0.90430441E-01 0.26408504E+04</pdfrwt>
<totfact> 0.16840840E+00</totfact>
</mgrwt>
</event>
<event>
12    1  0.3437080E-014  0.2666336E+04  0.7818608E-02  0.8346011E-01
         -2   -1    0    0    0  501 -0.00000000000E+00  0.00000000000E+00  0.80680714312E+03  0.80680714312E+03  0.00000000000E+00 0.  1.
          2   -1    0    0  501    0  0.00000000000E+00 -0.00000000000E+00 -0.22029269678E+04  0.22029269678E+04  0.00000000000E+00 0. -1.
    9900016    2    1    2    0    0  0.75183863937E+02 -0.36848656748E+03 -0.12739348613E+04  0.26143050666E+04  0.22517206724E+04 0.  0.
        -24    2    3    3    0    0 -0.40545028894E+03  0.25829993368E+03  0.13110587989E+03  0.50162329305E+03  0.57692147180E+02 0.  0.
         23    2    3    3    0    0  0.21027870208E+03  0.91075853973E+02  0.15795466250E+03  0.29267174187E+03  0.90526953759E+02 0.  0.
        -15    1    5    5    0    0  0.12404788508E+03  0.18275903038E+02  0.12013807414E+03  0.17365207537E+03  0.00000000000E+00 0.  1.
        -15    1    3    3    0    0  0.23914338635E+03 -0.69031323478E+03 -0.15566614532E+04  0.17195687836E+04  0.00000000000E+00 0.  1.
         15    1    4    4    0    0 -0.35129153810E+03  0.24316620846E+03  0.10697314894E+03  0.44043024904E+03  0.00000000000E+00 0. -1.
         15    1    5    5    0    0  0.86230817008E+02  0.72799950934E+02  0.37816588365E+02  0.11901966650E+03  0.00000000000E+00 0. -1.
        -16    1    4    4    0    0 -0.54158750845E+02  0.15133725221E+02  0.24132730951E+02  0.61193044010E+02  0.00000000000E+00 0.  1.
         16    1    1    2    0    0 -0.75183863937E+02  0.36848656748E+03 -0.12218496339E+03  0.39542904431E+03  0.00000000000E+00 0. -1.
    9900018    1    3    3    0    0  0.31212064449E+02 -0.27549120349E+02 -0.63339504154E+01  0.10044124810E+03  0.91187600000E+02 0.  0.
<mgrwt>
<rscale>  0 0.26663362E+04</rscale>
<asrwt>0</asrwt>
<pdfrwt beam="1">  1        2 0.33891184E+00 0.26663362E+04</pdfrwt>
<pdfrwt beam="2">  1       -2 0.12412418E+00 0.26663362E+04</pdfrwt>
<totfact> 0.22083608E+00</totfact>
</mgrwt>
</event>
<event>
12    1  0.3437080E-014  0.2817696E+04  0.7818608E-02  0.8297795E-01
          2   -1    0    0  501    0  0.00000000000E+00  0.00000000000E+00  0.17429173949E+04  0.17429173949E+04  0.00000000000E+00 0. -1.
         -2   -1    0    0    0  501 -0.00000000000E+00 -0.00000000000E+00 -0.11388104577E+04  0.11388104577E+04  0.00000000000E+00 0.  1.
    9900016    2    1    2    0    0  0.25919398539E+03 -0.21626590304E+03  0.80573815183E+03  0.23331386950E+04  0.21634162193E+04 0.  0.
         24    2    3    3    0    0 -0.75688535192E+02 -0.25835214191E+03 -0.54337836600E+03  0.61008593080E+03  0.66859634585E+02 0.  0.
         23    2    3    3    0    0 -0.12824602926E+03 -0.25127280182E+03  0.34951148249E+02  0.29912221849E+03  0.93099161511E+02 0.  0.
        -15    1    5    5    0    0 -0.62406455077E+02 -0.19479605130E+03  0.51225228919E+02  0.21086510218E+03  0.00000000000E+00 0. -1.
        -15    1    4    4    0    0 -0.19375336719E+02 -0.95431022641E+02 -0.26866832870E+03  0.28577115775E+03  0.00000000000E+00 0.  1.
         15    1    5    5    0    0 -0.65839574184E+02 -0.56476750512E+02 -0.16274080671E+02  0.88257116307E+02  0.00000000000E+00 0.  1.
         15    1    3    3    0    0  0.46312854984E+03  0.29335904069E+03  0.13141653696E+04  0.14239305457E+04  0.00000000000E+00 0. -1.
        -16    1    1    2    0    0 -0.28246541092E+03  0.21705393455E+03 -0.25712610004E+03  0.43933239147E+03  0.00000000000E+00 0.  1.
         16    1    4    4    0    0 -0.56313198473E+02 -0.16292111927E+03 -0.27471003730E+03  0.32431477305E+03  0.00000000000E+00 0. -1.
    9900018    1    1    2    0    0  0.23271425533E+02 -0.78803150080E+00  0.55494885415E+02  0.10925676611E+03  0.91187600000E+02 0.  0.
<mgrwt>
<rscale>  0 0.28176959E+04</rscale>
<asrwt>0</asrwt>
<pdfrwt beam="1">  1        2 0.26814114E+00 0.28176959E+04</pdfrwt>
<pdfrwt beam="2">  1       -2 0.17520161E+00 0.28176959E+04</pdfrwt>
<totfact> 0.15797617E+00</totfact>
</mgrwt>
</event>
<event>
12    1  0.3437080E-014  0.2506956E+04  0.7818608E-02  0.8400512E-01
         -1   -1    0    0    0  501 -0.00000000000E+00  0.00000000000E+00  0.12387435283E+04  0.12387435283E+04  0.00000000000E+00 0.  1.
          1   -1    0    0  501    0  0.00000000000E+00 -0.00000000000E+00 -0.12683877505E+04  0.12683877505E+04  0.00000000000E+00 0. -1.
    9900016    2    1    2    0    0 -0.14233644526E+03 -0.32797494457E+02  0.89067344941E+02  0.21561613706E+04  0.21493635162E+04 0.  0.
        -24    2    3    3    0    0 -0.17999705249E+03  0.79007362118E+03  0.29457513394E+03  0.86494149741E+03  0.68804204992E+02 0.  0.
         23    2    3    3    0    0 -0.39493412088E+03 -0.60552469014E+03  0.73979774856E+02  0.73221095930E+03  0.89592252043E+02 0.  0.
        -15    1    3    3    0    0  0.43259472811E+03 -0.21734642549E+03 -0.27948756385E+03  0.55900891389E+03  0.00000000000E+00 0.  1.
        -15    1    5    5    0    0 -0.37839610428E+03 -0.59787692477E+03  0.61712734306E+02  0.71024565502E+03  0.00000000000E+00 0. -1.
         15    1    5    5    0    0 -0.16538016595E+02 -0.76477653775E+01  0.12267040550E+02  0.21965304278E+02  0.00000000000E+00 0.  1.
         15    1    4    4    0    0 -0.11413790335E+03  0.34976617129E+03  0.14037042268E+03  0.39378635214E+03  0.00000000000E+00 0. -1.
        -16    1    4    4    0    0 -0.65859149142E+02  0.44030744988E+03  0.15420471125E+03  0.47115514528E+03  0.00000000000E+00 0.  1.
         16    1    1    2    0    0  0.19842627412E+03  0.48652957198E+02 -0.13000100121E+03  0.24215771064E+03  0.00000000000E+00 0. -1.
    9900018    1    1    2    0    0 -0.56089828862E+02 -0.15855462741E+02  0.11289434067E+02  0.10881219746E+03  0.91187600000E+02 0.  0.
<mgrwt>
<rscale>  0 0.25069560E+04</rscale>
<asrwt>0</asrwt>
<pdfrwt beam="1">  1        1 0.19513658E+00 0.25069560E+04</pdfrwt>
<pdfrwt beam="2">  1       -1 0.19057593E+00 0.25069560E+04</pdfrwt>
<totfact> 0.14814840E+00</totfact>
</mgrwt>
</event>
<event>
12    1  0.3437080E-014  0.3267623E+04  0.7818608E-02  0.8171183E-01
         -2   -1    0    0    0  501 -0.00000000000E+00  0.00000000000E+00  0.68991779151E+03  0.68991779151E+03  0.00000000000E+00 0.  1.
          2   -1    0    0  501    0  0.00000000000E+00 -0.00000000000E+00 -0.38690689481E+04  0.38690689481E+04  0.00000000000E+00 0. -1.
    9900016    2    1    2    0    0  0.32513195130E+03  0.34806515748E+03 -0.12772107820E+04  0.25489607982E+04  0.21538508838E+04 0.  0.
        -24    2    3    3    0    0 -0.24659926851E+02  0.93480002738E+03 -0.46140832034E+03  0.10443498836E+04  0.57531191960E+02 0.  0.
         23    2    3    3    0    0  0.32550870263E+03  0.22064255490E+03 -0.48618779127E+03  0.63220400864E+03  0.93082155315E+02 0.  0.
        -15    1    5    5    0    0  0.49738045744E+02  0.52277332545E+02 -0.43882901645E+02  0.84454139917E+02  0.00000000000E+00 0.  1.
        -15    1    3    3    0    0  0.24283175518E+02 -0.80737742481E+03 -0.32961467040E+03  0.87240690601E+03  0.00000000000E+00 0.  1.
         15    1    5    5    0    0  0.27577065689E+03  0.16836522236E+03 -0.44230488962E+03  0.54774986872E+03  0.00000000000E+00 0. -1.
         15    1    4    4    0    0 -0.36152031793E+02  0.37370027212E+03 -0.19633413274E+03  0.42368143040E+03  0.00000000000E+00 0. -1.
        -16    1    4    4    0    0  0.11492104942E+02  0.56109975526E+03 -0.26507418760E+03  0.62066845317E+03  0.00000000000E+00 0.  1.
         16    1    1    2    0    0 -0.34948993600E+03 -0.34845769245E+03 -0.18177252818E+04  0.18835315710E+04  0.00000000000E+00 0. -1.
    9900018    1    1    2    0    0  0.24357984701E+02  0.39253497733E+00 -0.84215092809E+02  0.12649437044E+03  0.91187600000E+02 0.  0.
<mgrwt>
<rscale>  0 0.32676227E+04</rscale>
<asrwt>0</asrwt>
<pdfrwt beam="1">  1        2 0.59524137E+00 0.32676227E+04</pdfrwt>
<pdfrwt beam="2">  1       -2 0.10614120E+00 0.32676227E+04</pdfrwt>
<totfact> 0.26017488E-01</totfact>
</mgrwt>
</event>
<event>
12    1  0.3437080E-014  0.3967812E+04  0.7818608E-02  0.8011072E-01
          1   -1    0    0  501    0  0.00000000000E+00  0.00000000000E+00  0.39147752395E+04  0.39147752395E+04  0.00000000000E+00 0. -1.
         -1   -1    0    0    0  501 -0.00000000000E+00 -0.00000000000E+00 -0.10053918902E+04  0.10053918902E+04  0.00000000000E+00 0.  1.
    9900016    2    1    2    0    0  0.10660405557E+04  0.56309866628E+03  0.18442071956E+04  0.30763627761E+04  0.21469478745E+04 0.  0.
         24    2    3    3    0    0  0.80860429708E+03  0.17498212717E+03  0.22311123204E+04  0.23805510681E+04  0.68567832192E+02 0.  0.
         23    2    3    3    0    0  0.22688050283E+03  0.94409629197E+02 -0.90606524805E+02  0.27749333229E+03  0.91679149619E+02 0.  0.
        -15    1    4    4    0    0  0.36113312711E+03  0.10975813895E+03  0.10568537162E+04  0.11222315991E+04  0.00000000000E+00 0.  1.
        -15    1    5    5    0    0  0.17267651286E+03  0.97792711863E+02 -0.38332657487E+02  0.20211379274E+03  0.00000000000E+00 0.  1.
         15    1    5    5    0    0  0.54203989976E+02 -0.33830826660E+01 -0.52273867318E+02  0.75379539545E+02  0.00000000000E+00 0. -1.
         15    1    3    3    0    0  0.30555755740E+02  0.29370690992E+03 -0.29629859996E+03  0.41831837574E+03  0.00000000000E+00 0. -1.
        -16    1    1    2    0    0 -0.11857541844E+04 -0.62684102345E+03  0.96112033111E+03  0.16500590733E+04  0.00000000000E+00 0.  1.
         16    1    4    4    0    0  0.44747116997E+03  0.65223988215E+02  0.11742586042E+04  0.12583194690E+04  0.00000000000E+00 0. -1.
    9900018    1    1    2    0    0  0.11971362876E+03  0.63742357175E+02  0.10405582265E+03  0.19374528027E+03  0.91187600000E+02 0.  0.
<mgrwt>
<rscale>  0 0.39678121E+04</rscale>
<asrwt>0</asrwt>
<pdfrwt beam="1">  1        1 0.60227311E+00 0.39678121E+04</pdfrwt>
<pdfrwt beam="2">  1       -1 0.15467568E+00 0.39678121E+04</pdfrwt>
<totfact> 0.28588488E-02</totfact>
</mgrwt>
</event>
<event>
12    1  0.3437080E-014  0.2730263E+04  0.7818608E-02  0.8325252E-01
         -2   -1    0    0    0  501 -0.00000000000E+00  0.00000000000E+00  0.56727838489E+03  0.56727838489E+03  0.00000000000E+00 0.  1.
          2   -1    0    0  501    0  0.00000000000E+00 -0.00000000000E+00 -0.32851309572E+04  0.32851309572E+04  0.00000000000E+00 0. -1.
    9900016    2    1    2    0    0  0.22247378937E+03  0.21116547531E+03 -0.18294832096E+04  0.29125766072E+04  0.22454416567E+04 0.  0.
        -24    2    3    3    0    0 -0.50054182360E+03 -0.22641297474E+03 -0.17913555725E+04  0.18745646996E+04  0.56860121510E+02 0.  0.
         23    2    3    3    0    0  0.22112368865E+03 -0.21586577084E+02 -0.96369761078E+01  0.24306052806E+03  0.98101391448E+02 0.  0.
        -15    1    5    5    0    0  0.87458571859E+02  0.30967074097E+02 -0.31073157023E+02  0.97844277079E+02  0.00000000000E+00 0.  1.
        -15    1    3    3    0    0  0.46187493232E+03  0.43442357729E+03  0.87504183020E+02  0.64008536904E+03  0.00000000000E+00 0.  1.
         15    1    4    4    0    0 -0.36651814652E+02 -0.25994903323E+02 -0.19619914243E+03  0.20127889607E+03  0.00000000000E+00 0. -1.
         15    1    5    5    0    0  0.13366511679E+03 -0.52553651181E+02  0.21436180915E+02  0.14521625099E+03  0.00000000000E+00 0. -1.
        -16    1    4    4    0    0 -0.46389000895E+03 -0.20041807142E+03 -0.15951564301E+04  0.16732858035E+04  0.00000000000E+00 0.  1.
         16    1    1    2    0    0 -0.22247378937E+03 -0.21116547531E+03 -0.88836936276E+03  0.93983273491E+03  0.00000000000E+00 0. -1.
    9900018    1    3    3    0    0  0.40016992009E+02  0.24741449848E+02 -0.11599484397E+03  0.15486601051E+03  0.91187600000E+02 0.  0.
<mgrwt>
<rscale>  0 0.27302628E+04</rscale>
<asrwt>0</asrwt>
<pdfrwt beam="1">  1        2 0.50540476E+00 0.27302628E+04</pdfrwt>
<pdfrwt beam="2">  1       -2 0.87273598E-01 0.27302628E+04</pdfrwt>
<totfact> 0.11310558E+00</totfact>
</mgrwt>
</event>
<event>
12    1  0.3437080E-014  0.3588596E+04  0.7818608E-02  0.8093109E-01
         -2   -1    0    0    0  501 -0.00000000000E+00  0.00000000000E+00  0.20164343627E+04  0.20164343627E+04  0.00000000000E+00 0. -1.
          2   -1    0    0  501    0  0.00000000000E+00 -0.00000000000E+00 -0.15966331265E+04  0.15966331265E+04  0.00000000000E+00 0.  1.
    9900016    2    1    2    0    0 -0.91809223326E+03  0.38017921823E+03  0.73750199283E+03  0.25698209424E+04  0.22522524059E+04 0.  0.
         24    2    3    3    0    0 -0.75352040360E+03 -0.53527278435E+03  0.10443731344E+04  0.13979624024E+04  0.96299960152E+02 0.  0.
         23    2    3    3    0    0 -0.15423030180E+02  0.12546838224E+03 -0.26631863847E+03  0.30853924547E+03  0.91053083406E+02 0.  0.
        -15    1    5    5    0    0 -0.10104579090E+02  0.40778101652E+02 -0.18941798341E+03  0.19402094870E+03  0.00000000000E+00 0.  1.
        -15    1    4    4    0    0 -0.18425612804E+03 -0.93561170114E+02  0.27327771468E+03  0.34261453941E+03  0.00000000000E+00 0.  1.
         15    1    3    3    0    0 -0.11887912567E+03  0.71314754830E+03 -0.94212869158E+02  0.72910063563E+03  0.00000000000E+00 0. -1.
         15    1    5    5    0    0 -0.53184510905E+01  0.84690280587E+02 -0.76900655055E+02  0.11451829677E+03  0.00000000000E+00 0. -1.
        -16    1    1    2    0    0  0.91809223326E+03 -0.38017921823E+03 -0.31770075655E+03  0.10432465468E+04  0.00000000000E+00 0.  1.
         16    1    4    4    0    0 -0.56926427556E+03 -0.44171161424E+03  0.77109541969E+03  0.10553478630E+04  0.00000000000E+00 0. -1.
    9900018    1    3    3    0    0 -0.30269673804E+02  0.76836072053E+02  0.53660366091E+02  0.13421865892E+03  0.91187600000E+02 0.  0.
<mgrwt>
<rscale>  0 0.35885963E+04</rscale>
<asrwt>0</asrwt>
<pdfrwt beam="1">  1        2 0.24563587E+00 0.35885963E+04</pdfrwt>
<pdfrwt beam="2">  1       -2 0.31022067E+00 0.35885963E+04</pdfrwt>
<totfact> 0.25132334E-01</totfact>
</mgrwt>
</event>
<event>
11    1  0.3437080E-014  0.2530562E+04  0.7818608E-02  0.8392178E-01
          2   -1    0    0  501    0  0.00000000000E+00  0.00000000000E+00  0.16996166336E+04  0.16996166336E+04  0.00000000000E+00 0. -1.
         -2   -1    0    0    0  501 -0.00000000000E+00 -0.00000000000E+00 -0.94193939373E+03  0.94193939373E+03  0.00000000000E+00 0.  1.
    9900016    2    1    2    0    0  0.16539190488E+03 -0.21097009442E+03  0.60422240009E+03  0.22462952211E+04  0.21468336332E+04 0.  0.
         23    2    3    3    0    0 -0.14652846308E+03 -0.29209557685E+03 -0.21491874032E+03  0.40258774618E+03  0.95375111683E+02 0.  0.
        -15    1    3    3    0    0  0.33179032816E+03  0.41003426931E+03  0.54803683823E+03  0.76062954184E+03  0.00000000000E+00 0.  1.
        -15    1    4    4    0    0 -0.78866687097E+02 -0.76982108247E+02 -0.40178134854E+02  0.11730508021E+03  0.00000000000E+00 0.  1.
         15    1    3    3    0    0 -0.24288203447E+03 -0.58136444933E+03 -0.30690679368E+02  0.63080759619E+03  0.00000000000E+00 0. -1.
         15    1    4    4    0    0 -0.67661775980E+02 -0.21511346860E+03 -0.17474060546E+03  0.28528266597E+03  0.00000000000E+00 0. -1.
        -16    1    1    2    0    0 -0.11493156541E+03  0.21516867144E+03  0.15837407338E+03  0.29084217201E+03  0.00000000000E+00 0.  1.
         16    1    3    3    0    0  0.22301207427E+03  0.25245566246E+03  0.30179498154E+03  0.45227033692E+03  0.00000000000E+00 0. -1.
    9900018    1    1    2    0    0 -0.50460339470E+02 -0.41985770255E+01 -0.49192336098E+01  0.10441863417E+03  0.91187600000E+02 0.  0.
<mgrwt>
<rscale>  0 0.25305619E+04</rscale>
<asrwt>0</asrwt>
<pdfrwt beam="1">  1        2 0.26147948E+00 0.25305619E+04</pdfrwt>
<pdfrwt beam="2">  1       -2 0.14491375E+00 0.25305619E+04</pdfrwt>
<totfact> 0.28651783E+00</totfact>
</mgrwt>
</event>
<event>
11    1  0.3437080E-014  0.4609030E+04  0.7818608E-02  0.7891822E-01
          2   -1    0    0  501    0  0.00000000000E+00  0.00000000000E+00  0.17069097569E+04  0.17069097569E+04  0.00000000000E+00 0. -1.
         -2   -1    0    0    0  501 -0.00000000000E+00 -0.00000000000E+00 -0.31113474467E+04  0.31113474467E+04  0.00000000000E+00 0.  1.
    9900016    2    1    2    0    0  0.64193820353E+03  0.85728758683E+03  0.59058950839E+03  0.25539338642E+04  0.22420427185E+04 0.  0.
         23    2    3    3    0    0 -0.31931633387E+02 -0.48186689881E+02 -0.23193249347E+03  0.25604754990E+03  0.91793681641E+02 0.  0.
        -15    1    4    4    0    0  0.16163362996E+02 -0.55950757677E+02 -0.10470975610E+03  0.11981600315E+03  0.00000000000E+00 0. -1.
        -15    1    3    3    0    0 -0.37854325155E+02 -0.89294975563E+02  0.12039241346E+03  0.15459908089E+03  0.00000000000E+00 0.  1.
         15    1    4    4    0    0 -0.48094996384E+02  0.77640677957E+01 -0.12722273737E+03  0.13623154675E+03  0.00000000000E+00 0.  1.
         15    1    3    3    0    0  0.82777190614E+03  0.12551204345E+04  0.36289237782E+03  0.15466817745E+04  0.00000000000E+00 0. -1.
        -16    1    1    2    0    0 -0.64193820353E+03 -0.85728758683E+03 -0.19950271982E+04  0.22643233393E+04  0.00000000000E+00 0.  1.
         16    1    3    3    0    0 -0.16247422619E+03 -0.31446761899E+03  0.32398896979E+03  0.47985061230E+03  0.00000000000E+00 0. -1.
    9900018    1    3    3    0    0  0.46426482125E+02  0.54116436768E+02  0.15248240780E+02  0.11675484663E+03  0.91187600000E+02 0.  0.
<mgrwt>
<rscale>  0 0.46090300E+04</rscale>
<asrwt>0</asrwt>
<pdfrwt beam="1">  1        2 0.26260150E+00 0.46090300E+04</pdfrwt>
<pdfrwt beam="2">  1       -2 0.47866884E+00 0.46090300E+04</pdfrwt>
<totfact> 0.16496179E-02</totfact>
</mgrwt>
</event>
<event>
12    1  0.3456837E-014  0.2781475E+04  0.7818608E-02  0.8309043E-01
         -2   -1    0    0    0  501 -0.00000000000E+00  0.00000000000E+00  0.16057824733E+04  0.16057824733E+04  0.00000000000E+00 0.  1.
          2   -1    0    0  501    0  0.00000000000E+00 -0.00000000000E+00 -0.12044910170E+04  0.12044910170E+04  0.00000000000E+00 0. -1.
    9900016    2    1    2    0    0 -0.43998809100E+03 -0.35463501596E+02  0.13965397399E+03  0.22971445082E+04  0.22500049953E+04 0.  0.
         24    2    3    3    0    0  0.67695947145E+03  0.39885429075E+03 -0.11373806456E+03  0.79979268759E+03  0.96814898419E+02 0.  0.
         23    2    3    3    0    0 -0.53749337253E+03 -0.97517359354E+02 -0.20067116231E+03  0.58938472233E+03  0.93255963035E+02 0.  0.
        -15    1    4    4    0    0  0.31810312946E+03  0.24336767704E+03 -0.53082237843E+02  0.40402370125E+03  0.00000000000E+00 0.  1.
        -15    1    5    5    0    0 -0.49292717545E+03 -0.10451234942E+03 -0.16008689465E+03  0.52870392974E+03  0.00000000000E+00 0.  1.
         15    1    3    3    0    0 -0.54062614278E+03 -0.35422289363E+03  0.47877425132E+03  0.80434772851E+03  0.00000000000E+00 0. -1.
         15    1    5    5    0    0 -0.44566197084E+02  0.69949900684E+01 -0.40584267661E+02  0.60680792596E+02  0.00000000000E+00 0. -1.
        -16    1    1    2    0    0  0.43998809100E+03  0.35463501596E+02  0.26163748226E+03  0.51312898212E+03  0.00000000000E+00 0.  1.
         16    1    4    4    0    0  0.35885634199E+03  0.15548661370E+03 -0.60655826713E+02  0.39576898633E+03  0.00000000000E+00 0. -1.
    9900018    1    3    3    0    0 -0.38828047136E+02  0.17422460641E+02 -0.24711050459E+02  0.10361936975E+03  0.91187600000E+02 0.  0.
<mgrwt>
<rscale>  0 0.27814748E+04</rscale>
<asrwt>0</asrwt>
<pdfrwt beam="1">  1        2 0.18530631E+00 0.27814748E+04</pdfrwt>
<pdfrwt beam="2">  1       -2 0.24704346E+00 0.27814748E+04</pdfrwt>
<totfact> 0.10993343E+00</totfact>
</mgrwt>
</event>
<event>
12    1  0.3437080E-014  0.2906245E+04  0.7818608E-02  0.8271022E-01
          3   -1    0    0  501    0  0.00000000000E+00  0.00000000000E+00  0.11758019173E+04  0.11758019173E+04  0.00000000000E+00 0. -1.
         -3   -1    0    0    0  501 -0.00000000000E+00 -0.00000000000E+00 -0.17958511093E+04  0.17958511093E+04  0.00000000000E+00 0.  1.
    9900016    2    1    2    0    0 -0.31292476829E+03  0.23581609927E+02 -0.93426068334E+03  0.23708067425E+04  0.21562475700E+04 0.  0.
        -24    2    3    3    0    0  0.48789884136E+03 -0.32629985486E+03  0.42045477764E+03  0.72840486862E+03  0.96304506188E+02 0.  0.
         23    2    3    3    0    0 -0.26251445653E+03  0.24375277639E+03 -0.66745257210E+03  0.76298711325E+03  0.91253181301E+02 0.  0.
        -15    1    5    5    0    0 -0.49685168607E+02  0.76168373356E+02 -0.24299176570E+03  0.25945179760E+03  0.00000000000E+00 0.  1.
        -15    1    3    3    0    0 -0.53830915311E+03  0.10612868840E+03 -0.68726288888E+03  0.87941476065E+03  0.00000000000E+00 0.  1.
         15    1    4    4    0    0  0.31703118628E+03 -0.17130322550E+03  0.29565514075E+03  0.46611750707E+03  0.00000000000E+00 0. -1.
         15    1    5    5    0    0 -0.21282928793E+03  0.16758440303E+03 -0.42446080640E+03  0.50353531565E+03  0.00000000000E+00 0. -1.
        -16    1    4    4    0    0  0.17086765507E+03 -0.15499662936E+03  0.12479963689E+03  0.26228736156E+03  0.00000000000E+00 0.  1.
         16    1    1    2    0    0  0.34560081929E+03 -0.26212270106E+02  0.35461283554E+03  0.49586013404E+03  0.00000000000E+00 0. -1.
    9900018    1    1    2    0    0 -0.32676051004E+02  0.26306601794E+01 -0.40401344192E+02  0.10498614998E+03  0.91187600000E+02 0.  0.
<mgrwt>
<rscale>  0 0.29062451E+04</rscale>
<asrwt>0</asrwt>
<pdfrwt beam="1">  1        3 0.18089260E+00 0.29062451E+04</pdfrwt>
<pdfrwt beam="2">  1       -3 0.27628478E+00 0.29062451E+04</pdfrwt>
<totfact> 0.22668807E-02</totfact>
</mgrwt>
</event>
<event>
12    1  0.3437080E-014  0.2726105E+04  0.7818608E-02  0.8326584E-01
         -3   -1    0    0    0  501 -0.00000000000E+00  0.00000000000E+00  0.27644856480E+04  0.27644856480E+04  0.00000000000E+00 0.  1.
          3   -1    0    0  501    0  0.00000000000E+00 -0.00000000000E+00 -0.67206407687E+03  0.67206407687E+03  0.00000000000E+00 0. -1.
    9900016    2    1    2    0    0  0.41728974086E+02 -0.40366705075E+03  0.15976105438E+04  0.27107875694E+04  0.21520505109E+04 0.  0.
         24    2    3    3    0    0  0.10647044778E+04 -0.11399128248E+03  0.69261747560E+03  0.12785652903E+04  0.91763808020E+02 0.  0.
         23    2    3    3    0    0 -0.11113316077E+03 -0.10007226424E+03  0.10352571868E+03  0.20350104976E+03  0.91269191592E+02 0.  0.
        -15    1    5    5    0    0  0.31368977876E+01 -0.16145285000E+02 -0.12207993998E+02  0.20482809205E+02  0.00000000000E+00 0. -1.
        -15    1    4    4    0    0  0.75257429749E+03 -0.38644718311E+02  0.47986686923E+03  0.89338328822E+03  0.00000000000E+00 0.  1.
         15    1    3    3    0    0 -0.91184234293E+03 -0.18960350403E+03  0.80146734955E+03  0.12287212294E+04  0.00000000000E+00 0. -1.
         15    1    5    5    0    0 -0.11427005856E+03 -0.83926979235E+02  0.11573371268E+03  0.18301824056E+03  0.00000000000E+00 0.  1.
        -16    1    1    2    0    0  0.30017938987E+01  0.42524687698E+03  0.42070833977E+03  0.59819681067E+03  0.00000000000E+00 0.  1.
         16    1    4    4    0    0  0.31213018030E+03 -0.75346564169E+02  0.21275060638E+03  0.38518200205E+03  0.00000000000E+00 0. -1.
    9900018    1    1    2    0    0 -0.44730767985E+02 -0.21579826233E+02  0.74102687574E+02  0.12756534484E+03  0.91187600000E+02 0.  0.
<mgrwt>
<rscale>  0 0.27261045E+04</rscale>
<asrwt>0</asrwt>
<pdfrwt beam="1">  1        3 0.10339447E+00 0.27261045E+04</pdfrwt>
<pdfrwt beam="2">  1       -3 0.42530548E+00 0.27261045E+04</pdfrwt>
<totfact> 0.14139237E-02</totfact>
</mgrwt>
</event>
<event>
12    1  0.3437080E-014  0.2804950E+04  0.7818608E-02  0.8301733E-01
         -2   -1    0    0    0  501 -0.00000000000E+00  0.00000000000E+00  0.40858503724E+03  0.40858503724E+03  0.00000000000E+00 0.  1.
          2   -1    0    0  501    0  0.00000000000E+00 -0.00000000000E+00 -0.48140189235E+04  0.48140189235E+04  0.00000000000E+00 0. -1.
    9900016    2    1    2    0    0 -0.55385173971E+02  0.17069071585E+03 -0.26208989887E+04  0.33949320716E+04  0.21504068043E+04 0.  0.
        -24    2    3    3    0    0 -0.47519500323E+03 -0.49760075355E+03 -0.16178701049E+04  0.17593117956E+04  0.65249649745E+02 0.  0.
         23    2    3    3    0    0 -0.27779541024E+03  0.40531341928E+02 -0.47366853415E+03  0.55814256040E+03  0.91368254050E+02 0.  0.
        -15    1    3    3    0    0  0.69760523950E+03  0.62776012747E+03 -0.52936034961E+03  0.10774777156E+04  0.00000000000E+00 0.  1.
        -15    1    5    5    0    0 -0.23911964531E+03  0.39515356347E+02 -0.33051743780E+03  0.40985539504E+03  0.00000000000E+00 0. -1.
         15    1    4    4    0    0 -0.40691852728E+03 -0.38965945047E+03 -0.13239965253E+04  0.14388828910E+04  0.00000000000E+00 0. -1.
         15    1    5    5    0    0 -0.38675764936E+02  0.10159855804E+01 -0.14315109636E+03  0.14828716535E+03  0.00000000000E+00 0.  1.
        -16    1    4    4    0    0 -0.68276475948E+02 -0.10794130308E+03 -0.29387357963E+03  0.32042890456E+03  0.00000000000E+00 0.  1.
         16    1    1    2    0    0  0.95421914960E+01 -0.20028165640E+03 -0.16162765593E+04  0.16286662370E+04  0.00000000000E+00 0. -1.
    9900018    1    1    2    0    0  0.45842982475E+02  0.29590940550E+02 -0.16825833831E+03  0.19900565221E+03  0.91187600000E+02 0.  0.
<mgrwt>
<rscale>  0 0.28049500E+04</rscale>
<asrwt>0</asrwt>
<pdfrwt beam="1">  1        2 0.74061827E+00 0.28049500E+04</pdfrwt>
<pdfrwt beam="2">  1       -2 0.62859239E-01 0.28049500E+04</pdfrwt>
<totfact> 0.11734448E-01</totfact>
</mgrwt>
</event>
<event>
11    1  0.3437080E-014  0.2707839E+04  0.7818608E-02  0.8332466E-01
          1   -1    0    0  501    0  0.00000000000E+00  0.00000000000E+00  0.12965912935E+04  0.12965912935E+04  0.00000000000E+00 0. -1.
         -1   -1    0    0    0  501 -0.00000000000E+00 -0.00000000000E+00 -0.14137824399E+04  0.14137824399E+04  0.00000000000E+00 0.  1.
    9900016    2    1    2    0    0  0.26241181858E+03  0.75375263053E+02 -0.29439750144E+03  0.21888201403E+04  0.21516789549E+04 0.  0.
         23    2    3    3    0    0 -0.20847107136E+03 -0.12768327327E+03 -0.16386317548E+03  0.30854193423E+03  0.92648686094E+02 0.  0.
        -15    1    3    3    0    0 -0.37872991349E+03 -0.52804093026E+03  0.24918288356E+03  0.69595666594E+03  0.00000000000E+00 0.  1.
        -15    1    4    4    0    0 -0.18919436404E+03 -0.88041374436E+02 -0.10118184250E+03  0.23191282036E+03  0.00000000000E+00 0. -1.
         15    1    3    3    0    0  0.18714332443E+03  0.18411033703E+03 -0.97586335590E+02  0.28007558440E+03  0.00000000000E+00 0. -1.
         15    1    4    4    0    0 -0.19276707319E+02 -0.39641898837E+02 -0.62681332978E+02  0.76629113869E+02  0.00000000000E+00 0.  1.
        -16    1    3    3    0    0  0.66246947900E+03  0.54698912955E+03 -0.28213087394E+03  0.90424595575E+03  0.00000000000E+00 0.  1.
         16    1    1    2    0    0 -0.33368868021E+03 -0.82767957054E+02  0.20765803596E+03  0.40164727051E+03  0.00000000000E+00 0. -1.
    9900018    1    1    2    0    0  0.71276861629E+02  0.73926940006E+01 -0.30451680837E+02  0.11990632255E+03  0.91187600000E+02 0.  0.
<mgrwt>
<rscale>  0 0.27078390E+04</rscale>
<asrwt>0</asrwt>
<pdfrwt beam="1">  1        1 0.19947558E+00 0.27078390E+04</pdfrwt>
<pdfrwt beam="2">  1       -1 0.21750499E+00 0.27078390E+04</pdfrwt>
<totfact> 0.90789617E-01</totfact>
</mgrwt>
</event>
<event>
12    1  0.3437080E-014  0.3080266E+04  0.7818608E-02  0.8221175E-01
         -2   -1    0    0    0  501 -0.00000000000E+00  0.00000000000E+00  0.15408247200E+04  0.15408247200E+04  0.00000000000E+00 0.  1.
          2   -1    0    0  501    0  0.00000000000E+00 -0.00000000000E+00 -0.15394411515E+04  0.15394411515E+04  0.00000000000E+00 0. -1.
    9900016    2    1    2    0    0  0.60898007971E+03 -0.19452081351E+03  0.18341333988E+03  0.22493012082E+04  0.21487252937E+04 0.  0.
        -24    2    3    3    0    0 -0.66480087770E+03 -0.31889520568E+03  0.14824200938E+03  0.75501494704E+03  0.66464409401E+02 0.  0.
         23    2    3    3    0    0  0.50374680938E+02  0.19491427660E+03  0.14401179347E+03  0.26402407817E+03  0.91870199134E+02 0.  0.
        -15    1    5    5    0    0  0.36873528281E+02  0.13451840729E+03  0.43714688278E+02  0.14617056119E+03  0.00000000000E+00 0. -1.
        -15    1    3    3    0    0  0.12234062765E+04 -0.70539884442E+02 -0.10884046297E+03  0.12302621830E+04  0.00000000000E+00 0.  1.
         15    1    5    5    0    0  0.13501152657E+02  0.60395869315E+02  0.10029710519E+03  0.11785351698E+03  0.00000000000E+00 0.  1.
         15    1    4    4    0    0 -0.51499826266E+03 -0.21715877315E+03  0.12154947624E+03  0.57197501560E+03  0.00000000000E+00 0. -1.
        -16    1    4    4    0    0 -0.14980261504E+03 -0.10173643252E+03  0.26692533138E+02  0.18303993144E+03  0.00000000000E+00 0.  1.
         16    1    1    2    0    0 -0.67418470638E+03  0.15850648985E+03 -0.16547928886E+03  0.71206230112E+03  0.00000000000E+00 0. -1.
    9900018    1    1    2    0    0  0.65204626665E+02  0.36014323663E+02 -0.16550482478E+02  0.11890236209E+03  0.91187600000E+02 0.  0.
<mgrwt>
<rscale>  0 0.30802656E+04</rscale>
<asrwt>0</asrwt>
<pdfrwt beam="1">  1        2 0.23683710E+00 0.30802656E+04</pdfrwt>
<pdfrwt beam="2">  1       -2 0.23704996E+00 0.30802656E+04</pdfrwt>
<totfact> 0.79244081E-01</totfact>
</mgrwt>
</event>
<event>
12    1  0.3437080E-014  0.2654791E+04  0.7818608E-02  0.8349825E-01
         -2   -1    0    0    0  501 -0.00000000000E+00  0.00000000000E+00  0.10322861480E+04  0.10322861480E+04  0.00000000000E+00 0.  1.
          2   -1    0    0  501    0  0.00000000000E+00 -0.00000000000E+00 -0.17068706440E+04  0.17068706440E+04  0.00000000000E+00 0. -1.
    9900016    2    1    2    0    0  0.11893697134E+03 -0.28726759611E+03 -0.52807134773E+03  0.22417805426E+04  0.21563979173E+04 0.  0.
         24    2    3    3    0    0 -0.64882633101E+03  0.48929799123E+03 -0.94207411768E+02  0.82306210105E+03  0.90377285357E+02 0.  0.
         23    2    3    3    0    0 -0.13472014024E+03 -0.27164439647E+03 -0.10504242532E+03  0.33357082067E+03  0.91079014959E+02 0.  0.
        -15    1    4    4    0    0 -0.55502974462E+03  0.44451283791E+03 -0.59910137775E+02  0.71360977087E+03  0.00000000000E+00 0.  1.
        -15    1    5    5    0    0 -0.40703899100E+02 -0.10647858411E+03  0.47400515067E+01  0.11409191191E+03  0.00000000000E+00 0.  1.
         15    1    5    5    0    0 -0.94016241144E+02 -0.16516581236E+03 -0.10978247683E+03  0.21947890876E+03  0.00000000000E+00 0. -1.
         15    1    3    3    0    0  0.90248344260E+03 -0.50492119087E+03 -0.32882151064E+03  0.10851476208E+04  0.00000000000E+00 0. -1.
        -16    1    1    2    0    0 -0.13660003488E+03  0.33811796903E+03 -0.14215132931E+03  0.39139536397E+03  0.00000000000E+00 0.  1.
         16    1    4    4    0    0 -0.93796586393E+02  0.44785153328E+02 -0.34297273993E+02  0.10945233018E+03  0.00000000000E+00 0. -1.
    9900018    1    1    2    0    0  0.17663063540E+02 -0.50850372926E+02 -0.43618189506E+01  0.10598088553E+03  0.91187600000E+02 0.  0.
<mgrwt>
<rscale>  0 0.26547911E+04</rscale>
<asrwt>0</asrwt>
<pdfrwt beam="1">  1        2 0.26259548E+00 0.26547911E+04</pdfrwt>
<pdfrwt beam="2">  1       -2 0.15881325E+00 0.26547911E+04</pdfrwt>
<totfact> 0.22006774E+00</totfact>
</mgrwt>
</event>
<event>
11    1  0.3437080E-014  0.2919754E+04  0.7818608E-02  0.8267024E-01
         -3   -1    0    0    0  501 -0.00000000000E+00  0.00000000000E+00  0.12769692772E+04  0.12769692772E+04  0.00000000000E+00 0.  1.
          3   -1    0    0  501    0  0.00000000000E+00 -0.00000000000E+00 -0.16689839267E+04  0.16689839267E+04  0.00000000000E+00 0. -1.
    9900016    2    1    2    0    0 -0.45472963143E+03 -0.98037262040E+02 -0.68140452519E+03  0.23981057409E+04  0.22517123873E+04 0.  0.
         23    2    3    3    0    0 -0.31584508870E+03 -0.60103777475E+02  0.31335119887E+03  0.45825889902E+03  0.91878509860E+02 0.  0.
        -15    1    4    4    0    0 -0.69717955830E+02 -0.42957546188E+02  0.43900895310E+02  0.92915191162E+02  0.00000000000E+00 0. -1.
        -15    1    3    3    0    0 -0.67053788972E+03 -0.39000591184E+02  0.12122322958E+02  0.67178051354E+03  0.00000000000E+00 0.  1.
         15    1    4    4    0    0 -0.24612713287E+03 -0.17146231287E+02  0.26945030356E+03  0.36534370786E+03  0.00000000000E+00 0.  1.
         15    1    3    3    0    0  0.66699259412E+02 -0.50861735335E+02 -0.12248862464E+03  0.14845595473E+03  0.00000000000E+00 0. -1.
        -16    1    3    3    0    0  0.46682190525E+03  0.78859935273E+02 -0.90585976328E+03  0.10221171613E+04  0.00000000000E+00 0.  1.
         16    1    1    2    0    0  0.45472963143E+03  0.98037262040E+02  0.28938987571E+03  0.54784746290E+03  0.00000000000E+00 0. -1.
    9900018    1    3    3    0    0 -0.18678176772E+01 -0.26931093320E+02  0.21470340903E+02  0.97493212392E+02  0.91187600000E+02 0.  0.
<mgrwt>
<rscale>  0 0.29197542E+04</rscale>
<asrwt>0</asrwt>
<pdfrwt beam="1">  1        3 0.25676676E+00 0.29197542E+04</pdfrwt>
<pdfrwt beam="2">  1       -3 0.19645681E+00 0.29197542E+04</pdfrwt>
<totfact> 0.23306333E-02</totfact>
</mgrwt>
</event>
<event>
12    1  0.3437080E-014  0.3687319E+04  0.7818608E-02  0.8070778E-01
         -2   -1    0    0    0  501 -0.00000000000E+00  0.00000000000E+00  0.17844016874E+04  0.17844016874E+04  0.00000000000E+00 0.  1.
          2   -1    0    0  501    0  0.00000000000E+00 -0.00000000000E+00 -0.19048852296E+04  0.19048852296E+04  0.00000000000E+00 0. -1.
    9900016    2    1    2    0    0  0.60935830380E+03  0.52561655520E+03  0.64229160855E+03  0.23975914519E+04  0.21652519379E+04 0.  0.
        -24    2    3    3    0    0  0.37978851059E+03 -0.56712001157E+03 -0.39745718607E+03  0.79607808301E+03  0.99517230653E+02 0.  0.
         23    2    3    3    0    0  0.20035725396E+03  0.20025758441E+03  0.41876117647E+03  0.51385637875E+03  0.91876687688E+02 0.  0.
        -15    1    3    3    0    0  0.29212539244E+02  0.89247898236E+03  0.62098761815E+03  0.10876569902E+04  0.00000000000E+00 0.  1.
        -15    1    5    5    0    0  0.14480099561E+03  0.12534194437E+03  0.34637358524E+03  0.39579362287E+03  0.00000000000E+00 0.  1.
         15    1    5    5    0    0  0.55556258348E+02  0.74915640038E+02  0.72387591226E+02  0.11806275589E+03  0.00000000000E+00 0. -1.
         15    1    4    4    0    0  0.10405981976E+02 -0.47224445052E+02 -0.51038346792E+02  0.70308929124E+02  0.00000000000E+00 0. -1.
        -16    1    4    4    0    0  0.36938252862E+03 -0.51989556652E+03 -0.34641883927E+03  0.72576915389E+03  0.00000000000E+00 0.  1.
         16    1    1    2    0    0 -0.64838425211E+03 -0.57344965642E+03 -0.79674466034E+03  0.11764559918E+04  0.00000000000E+00 0. -1.
    9900018    1    1    2    0    0  0.39025948315E+02  0.47833101226E+02  0.33969509625E+02  0.11523947324E+03  0.91187600000E+02 0.  0.
<mgrwt>
<rscale>  0 0.36873190E+04</rscale>
<asrwt>0</asrwt>
<pdfrwt beam="1">  1        2 0.29305927E+00 0.36873190E+04</pdfrwt>
<pdfrwt beam="2">  1       -2 0.27452334E+00 0.36873190E+04</pdfrwt>
<totfact> 0.27774545E-01</totfact>
</mgrwt>
</event>
<event>
12    1  0.3437080E-014  0.4387928E+04  0.7818608E-02  0.7930556E-01
          2   -1    0    0  501    0  0.00000000000E+00  0.00000000000E+00  0.26311572658E+04  0.26311572658E+04  0.00000000000E+00 0. -1.
         -2   -1    0    0    0  501 -0.00000000000E+00 -0.00000000000E+00 -0.18294149460E+04  0.18294149460E+04  0.00000000000E+00 0.  1.
    9900016    2    1    2    0    0 -0.56473793987E+03  0.13473437349E+04  0.12157517925E+04  0.29421296134E+04  0.22458428620E+04 0.  0.
         24    2    3    3    0    0 -0.12737140824E+04  0.55006041475E+03  0.29640843811E+03  0.14201359334E+04  0.63356797461E+02 0.  0.
         23    2    3    3    0    0  0.15162354027E+03  0.25438239779E+02  0.28616294821E+02  0.17883687802E+03  0.86757908006E+02 0.  0.
        -15    1    4    4    0    0 -0.50149117862E+03  0.18575263970E+03  0.12668467999E+03  0.54958753037E+03  0.00000000000E+00 0.  1.
        -15    1    5    5    0    0 -0.86495340767E+01  0.13152195866E+02  0.13726055449E+01  0.15801225959E+02  0.00000000000E+00 0. -1.
         15    1    3    3    0    0  0.54724467683E+03  0.68752344252E+03  0.80667694716E+03  0.11928507524E+04  0.00000000000E+00 0. -1.
         15    1    5    5    0    0  0.16027307435E+03  0.12286043913E+02  0.27243689276E+02  0.16303565206E+03  0.00000000000E+00 0.  1.
        -16    1    1    2    0    0  0.56473793987E+03 -0.13473437349E+04 -0.41400947268E+03  0.15184425983E+04  0.00000000000E+00 0.  1.
         16    1    4    4    0    0 -0.77222290374E+03  0.36430777505E+03  0.16972375812E+03  0.87054840307E+03  0.00000000000E+00 0. -1.
    9900018    1    3    3    0    0  0.10107925384E+02  0.84321637883E+02  0.84050112374E+02  0.15030604963E+03  0.91187600000E+02 0.  0.
<mgrwt>
<rscale>  0 0.43879282E+04</rscale>
<asrwt>0</asrwt>
<pdfrwt beam="1">  1        2 0.40479342E+00 0.43879282E+04</pdfrwt>
<pdfrwt beam="2">  1       -2 0.28144845E+00 0.43879282E+04</pdfrwt>
<totfact> 0.92037002E-02</totfact>
</mgrwt>
</event>
<event>
12    1  0.3437080E-014  0.2838694E+04  0.7818608E-02  0.8291355E-01
          2   -1    0    0  501    0  0.00000000000E+00  0.00000000000E+00  0.25084578824E+04  0.25084578824E+04  0.00000000000E+00 0. -1.
         -2   -1    0    0    0  501 -0.00000000000E+00 -0.00000000000E+00 -0.80310116228E+03  0.80310116228E+03  0.00000000000E+00 0.  1.
    9900016    2    1    2    0    0  0.23284738231E+03  0.30301643910E+03  0.96246133273E+03  0.24761367428E+04  0.22491964090E+04 0.  0.
        -24    2    3    3    0    0 -0.45688107800E+02  0.10880521620E+04  0.73731613837E+03  0.13188243878E+04  0.98578737756E+02 0.  0.
         23    2    3    3    0    0  0.15991180979E+03 -0.33010027421E+02 -0.71628533874E+02  0.20054384915E+03  0.91791828333E+02 0.  0.
        -15    1    3    3    0    0  0.85426016141E+02 -0.79764776310E+03  0.26709742595E+03  0.84550611657E+03  0.00000000000E+00 0.  1.
        -15    1    5    5    0    0  0.15385822168E+03 -0.20140411429E+02 -0.31994035001E+02  0.15843486620E+03  0.00000000000E+00 0. -1.
         15    1    4    4    0    0 -0.62759637666E+02  0.96161826230E+03  0.67702566076E+03  0.11777148211E+04  0.00000000000E+00 0. -1.
         15    1    5    5    0    0  0.60535881073E+01 -0.12869615992E+02 -0.39634498873E+02  0.42108982957E+02  0.00000000000E+00 0.  1.
        -16    1    4    4    0    0  0.17071529866E+02  0.12643389970E+03  0.60290477617E+02  0.14110956671E+03  0.00000000000E+00 0.  1.
         16    1    1    2    0    0 -0.23284738231E+03 -0.30301643910E+03  0.74289538740E+03  0.83542230185E+03  0.00000000000E+00 0. -1.
    9900018    1    3    3    0    0  0.33197664182E+02  0.45622067610E+02  0.29676302285E+02  0.11126238929E+03  0.91187600000E+02 0.  0.
<mgrwt>
<rscale>  0 0.28386937E+04</rscale>
<asrwt>0</asrwt>
<pdfrwt beam="1">  1        2 0.38591659E+00 0.28386937E+04</pdfrwt>
<pdfrwt beam="2">  1       -2 0.12355403E+00 0.28386937E+04</pdfrwt>
<totfact> 0.14736009E+00</totfact>
</mgrwt>
</event>
<event>
12    1  0.3437080E-014  0.3145673E+04  0.7818608E-02  0.8203314E-01
          2   -1    0    0  501    0  0.00000000000E+00  0.00000000000E+00  0.26582500995E+04  0.26582500995E+04  0.00000000000E+00 0. -1.
         -2   -1    0    0    0  501 -0.00000000000E+00 -0.00000000000E+00 -0.93061752872E+03  0.93061752872E+03  0.00000000000E+00 0.  1.
    9900016    2    1    2    0    0 -0.43941736301E+03 -0.49398154394E+03  0.94803012307E+03  0.24516674193E+04  0.21621301154E+04 0.  0.
        -24    2    3    3    0    0  0.30592408002E+03 -0.16753712235E+02 -0.11917658910E+03  0.33318239296E+03  0.54196106714E+02 0.  0.
         23    2    3    3    0    0  0.43585865471E+03 -0.67136500991E+02  0.66889099778E+03  0.80621067287E+03  0.89891075663E+02 0.  0.
        -15    1    5    5    0    0  0.15519623170E+03 -0.54735647354E+02  0.19352543553E+03  0.25403534325E+03  0.00000000000E+00 0.  1.
        -15    1    3    3    0    0 -0.11812000977E+04 -0.41009133072E+03  0.39831571439E+03  0.13122743535E+04  0.00000000000E+00 0.  1.
         15    1    4    4    0    0  0.15929248529E+03 -0.83917941052E+01 -0.90964479628E+02  0.18362748877E+03  0.00000000000E+00 0. -1.
         15    1    5    5    0    0  0.28066242302E+03 -0.12400853637E+02  0.47536556225E+03  0.55217532962E+03  0.00000000000E+00 0. -1.
        -16    1    4    4    0    0  0.14663159473E+03 -0.83619181303E+01 -0.28212109474E+02  0.14955490420E+03  0.00000000000E+00 0.  1.
         16    1    1    2    0    0  0.46178543816E+03  0.54456449337E+03  0.72432759228E+03  0.10170775483E+04  0.00000000000E+00 0. -1.
    9900018    1    1    2    0    0 -0.22368075143E+02 -0.50582949423E+02  0.55274855446E+02  0.12012266063E+03  0.91187600000E+02 0.  0.
<mgrwt>
<rscale>  0 0.31456727E+04</rscale>
<asrwt>0</asrwt>
<pdfrwt beam="1">  1        2 0.40896155E+00 0.31456727E+04</pdfrwt>
<pdfrwt beam="2">  1       -2 0.14317193E+00 0.31456727E+04</pdfrwt>
<totfact> 0.80537569E-01</totfact>
</mgrwt>
</event>
<event>
12    1  0.3437080E-014  0.3377039E+04  0.7818608E-02  0.8143565E-01
         -2   -1    0    0    0  501 -0.00000000000E+00  0.00000000000E+00  0.14383761793E+04  0.14383761793E+04  0.00000000000E+00 0.  1.
          2   -1    0    0  501    0  0.00000000000E+00 -0.00000000000E+00 -0.19821641247E+04  0.19821641247E+04  0.00000000000E+00 0. -1.
    9900016    2    1    2    0    0 -0.24473877823E+03  0.20162965609E+03  0.45960174993E+03  0.22199798365E+04  0.21486100433E+04 0.  0.
        -24    2    3    3    0    0 -0.95233760497E+03  0.50151948492E+03 -0.14959544586E+03  0.10884331892E+04  0.61962103494E+02 0.  0.
         23    2    3    3    0    0 -0.54997405978E+02 -0.12515833521E+03  0.56938052492E+02  0.17390669911E+03  0.91171676722E+02 0.  0.
        -15    1    3    3    0    0  0.76259623272E+03 -0.17473149362E+03  0.55225914330E+03  0.95763994820E+03  0.00000000000E+00 0.  1.
        -15    1    5    5    0    0 -0.28501813852E+02 -0.13334389341E+03  0.43777446796E+02  0.14321107552E+03  0.00000000000E+00 0. -1.
         15    1    5    5    0    0 -0.26495592126E+02  0.81855582031E+01  0.13160605697E+02  0.30695623589E+02  0.00000000000E+00 0.  1.
         15    1    4    4    0    0 -0.53866063186E+03  0.31682941836E+03 -0.95435464495E+02  0.63217409354E+03  0.00000000000E+00 0. -1.
        -16    1    4    4    0    0 -0.41367697311E+03  0.18469006656E+03 -0.54159981368E+02  0.45625909563E+03  0.00000000000E+00 0.  1.
         16    1    1    2    0    0  0.20151835771E+03 -0.18326608545E+03 -0.10522599870E+04  0.10869439667E+04  0.00000000000E+00 0. -1.
    9900018    1    1    2    0    0  0.43220420523E+02 -0.18363570643E+02  0.48870291627E+02  0.11361650089E+03  0.91187600000E+02 0.  0.
<mgrwt>
<rscale>  0 0.33770387E+04</rscale>
<asrwt>0</asrwt>
<pdfrwt beam="1">  1        2 0.30494833E+00 0.33770387E+04</pdfrwt>
<pdfrwt beam="2">  1       -2 0.22128864E+00 0.33770387E+04</pdfrwt>
<totfact> 0.55034230E-01</totfact>
</mgrwt>
</event>
<event>
11    1  0.3865496E-014  0.2683258E+04  0.7818608E-02  0.8340458E-01
         -2   -1    0    0    0  501 -0.00000000000E+00  0.00000000000E+00  0.15975683799E+04  0.15975683799E+04  0.00000000000E+00 0.  1.
          2   -1    0    0  501    0  0.00000000000E+00 -0.00000000000E+00 -0.11266928535E+04  0.11266928535E+04  0.00000000000E+00 0. -1.
    9900016    2    1    2    0    0  0.21529686894E+03 -0.30148123539E+03  0.55970623732E+03  0.23432959170E+04  0.22451104662E+04 0.  0.
         23    2    3    3    0    0  0.16550969562E+03 -0.42064821795E+03  0.79627782437E+01  0.46101006121E+03  0.90158128231E+02 0.  0.
        -15    1    3    3    0    0  0.60595483564E+03 -0.50809156930E+03  0.98853512065E+02  0.79693809200E+03  0.00000000000E+00 0.  1.
        -15    1    4    4    0    0  0.22585559193E+02 -0.33105168315E+02  0.25636613778E+02  0.47574106604E+02  0.00000000000E+00 0. -1.
         15    1    3    3    0    0 -0.91221652823E+02  0.13273070327E+03  0.30408397602E+02  0.16390088523E+03  0.00000000000E+00 0. -1.
         15    1    4    4    0    0  0.14292413643E+03 -0.38754304964E+03 -0.17673835534E+02  0.41343595460E+03  0.00000000000E+00 0.  1.
        -16    1    3    3    0    0 -0.46142020587E+03  0.54538018483E+03  0.37124732496E+03  0.80509175172E+03  0.00000000000E+00 0.  1.
         16    1    1    2    0    0 -0.21529686894E+03  0.30148123539E+03 -0.88830710966E+02  0.38096531637E+03  0.00000000000E+00 0. -1.
    9900018    1    3    3    0    0 -0.35258036293E+01 -0.50852336252E+02  0.51234224447E+02  0.11635512684E+03  0.91187600000E+02 0.  0.
<mgrwt>
<rscale>  0 0.26832584E+04</rscale>
<asrwt>0</asrwt>
<pdfrwt beam="1">  1        2 0.17333736E+00 0.26832584E+04</pdfrwt>
<pdfrwt beam="2">  1       -2 0.24577975E+00 0.26832584E+04</pdfrwt>
<totfact> 0.12572975E+00</totfact>
</mgrwt>
</event>
<event>
12    1  0.3437080E-014  0.2740814E+04  0.7818608E-02  0.8321882E-01
          2   -1    0    0  501    0  0.00000000000E+00  0.00000000000E+00  0.12425388284E+04  0.12425388284E+04  0.00000000000E+00 0. -1.
         -2   -1    0    0    0  501 -0.00000000000E+00 -0.00000000000E+00 -0.15114340166E+04  0.15114340166E+04  0.00000000000E+00 0.  1.
    9900016    2    1    2    0    0 -0.12910841347E+03 -0.62175474490E+02 -0.65067675622E+03  0.23461837601E+04  0.22495917903E+04 0.  0.
        -24    2    3    3    0    0  0.11731314537E+02  0.40755406514E+03 -0.10210268473E+04  0.11032584049E+04  0.91898560244E+02 0.  0.
         23    2    3    3    0    0  0.27119710282E+03  0.14309490060E+03  0.18438492120E+03  0.36909766402E+03  0.90616043082E+02 0.  0.
        -15    1    3    3    0    0 -0.43598642134E+03 -0.56904297234E+03  0.24089517175E+03  0.75625693236E+03  0.00000000000E+00 0.  1.
        -15    1    5    5    0    0  0.21351372175E+03  0.68535806756E+02  0.14430541098E+03  0.26666330423E+03  0.00000000000E+00 0. -1.
         15    1    5    5    0    0  0.57683381061E+02  0.74559093843E+02  0.40079510222E+02  0.10243435979E+03  0.00000000000E+00 0.  1.
         15    1    4    4    0    0 -0.30864709055E+02  0.15770235867E+03 -0.47060591453E+03  0.49728522097E+03  0.00000000000E+00 0. -1.
        -16    1    4    4    0    0  0.42596023592E+02  0.24985170646E+03 -0.55042093277E+03  0.60597318396E+03  0.00000000000E+00 0.  1.
         16    1    1    2    0    0  0.12910841347E+03  0.62175474490E+02  0.38178156806E+03  0.40778908491E+03  0.00000000000E+00 0. -1.
    9900018    1    3    3    0    0  0.23949590514E+02 -0.43781467889E+02 -0.54930001877E+02  0.11757075876E+03  0.91187600000E+02 0.  0.
<mgrwt>
<rscale>  0 0.27408141E+04</rscale>
<asrwt>0</asrwt>
<pdfrwt beam="1">  1        2 0.19115982E+00 0.27408141E+04</pdfrwt>
<pdfrwt beam="2">  1       -2 0.23252831E+00 0.27408141E+04</pdfrwt>
<totfact> 0.12880301E+00</totfact>
</mgrwt>
</event>
<event>
12    1  0.3437080E-014  0.3525052E+04  0.7818608E-02  0.8107878E-01
          2   -1    0    0  501    0  0.00000000000E+00  0.00000000000E+00  0.31758500888E+04  0.31758500888E+04  0.00000000000E+00 0. -1.
         -2   -1    0    0    0  501 -0.00000000000E+00 -0.00000000000E+00 -0.97816284975E+03  0.97816284975E+03  0.00000000000E+00 0.  1.
    9900016    2    1    2    0    0  0.45316601172E+03 -0.11715512287E+03  0.25021858872E+04  0.33353746901E+04  0.21551578486E+04 0.  0.
         24    2    3    3    0    0 -0.23502881629E+03 -0.28534497213E+03  0.16743950934E+04  0.17160043649E+04  0.66421034894E+02 0.  0.
         23    2    3    3    0    0 -0.30008372600E+03  0.24304666602E+03  0.29129451509E+03  0.49237152290E+03  0.91952692032E+02 0.  0.
        -15    1    5    5    0    0 -0.12118474310E+03  0.92810247835E+02  0.61149247801E+02  0.16443452973E+03  0.00000000000E+00 0.  1.
        -15    1    4    4    0    0 -0.18680674804E+03 -0.20025972639E+03  0.13349197138E+04  0.13627220412E+04  0.00000000000E+00 0.  1.
         15    1    5    5    0    0 -0.17889898290E+03  0.15023641819E+03  0.23014526729E+03  0.32793699317E+03  0.00000000000E+00 0. -1.
         15    1    3    3    0    0  0.98827855401E+03 -0.74856816762E+02  0.53649627865E+03  0.11269988023E+04  0.00000000000E+00 0. -1.
        -16    1    1    2    0    0 -0.47759218979E+03  0.97557898094E+02 -0.43707460669E+03  0.65471066513E+03  0.00000000000E+00 0.  1.
         16    1    4    4    0    0 -0.48222068249E+02 -0.85085245740E+02  0.33947537957E+03  0.35328232371E+03  0.00000000000E+00 0. -1.
    9900018    1    1    2    0    0  0.24426178066E+02  0.19597224773E+02  0.13257595855E+03  0.16392758332E+03  0.91187600000E+02 0.  0.
<mgrwt>
<rscale>  0 0.35250524E+04</rscale>
<asrwt>0</asrwt>
<pdfrwt beam="1">  1        2 0.48859232E+00 0.35250524E+04</pdfrwt>
<pdfrwt beam="2">  1       -2 0.15048659E+00 0.35250524E+04</pdfrwt>
<totfact> 0.32720745E-01</totfact>
</mgrwt>
</event>
<event>
12    1  0.3437080E-014  0.3032167E+04  0.7818608E-02  0.8234604E-01
          2   -1    0    0  501    0  0.00000000000E+00  0.00000000000E+00  0.23197605327E+04  0.23197605327E+04  0.00000000000E+00 0. -1.
         -2   -1    0    0    0  501 -0.00000000000E+00 -0.00000000000E+00 -0.99083925591E+03  0.99083925591E+03  0.00000000000E+00 0.  1.
    9900016    2    1    2    0    0  0.85477271605E+02  0.32703630778E+03  0.16256166325E+04  0.27209127418E+04  0.21555689740E+04 0.  0.
         24    2    3    3    0    0  0.35427072156E+03  0.14052830431E+03 -0.96312908375E+02  0.40379771831E+03  0.92306405677E+02 0.  0.
         23    2    3    3    0    0  0.43593195335E+03 -0.21190772473E+03  0.96041920106E+02  0.50083213196E+03  0.81653060174E+02 0.  0.
        -15    1    4    4    0    0  0.13799983431E+03  0.79705455623E+02 -0.46435066470E-02  0.15936409240E+03  0.00000000000E+00 0.  1.
        -15    1    5    5    0    0  0.38050620887E+03 -0.15164415443E+03  0.77367007304E+02  0.41685318564E+03  0.00000000000E+00 0. -1.
         15    1    5    5    0    0  0.55425744476E+02 -0.60263570301E+02  0.18674912801E+02  0.83978946316E+02  0.00000000000E+00 0.  1.
         15    1    3    3    0    0 -0.70472540330E+03  0.39841572820E+03  0.16258876208E+04  0.18162828915E+04  0.00000000000E+00 0. -1.
        -16    1    1    2    0    0 -0.11931675582E+03 -0.30131772012E+03 -0.34902470496E+03  0.47628468519E+03  0.00000000000E+00 0.  1.
         16    1    4    4    0    0  0.21627088725E+03  0.60822848686E+02 -0.96308264869E+02  0.24443362591E+03  0.00000000000E+00 0. -1.
    9900018    1    1    2    0    0  0.33839484220E+02 -0.25718587666E+02  0.52329349223E+02  0.11340236165E+03  0.91187600000E+02 0.  0.
<mgrwt>
<rscale>  0 0.30321674E+04</rscale>
<asrwt>0</asrwt>
<pdfrwt beam="1">  1        2 0.35688623E+00 0.30321674E+04</pdfrwt>
<pdfrwt beam="2">  1       -2 0.15243681E+00 0.30321674E+04</pdfrwt>
<totfact> 0.10825828E+00</totfact>
</mgrwt>
</event>
<event>
12    1  0.3437080E-014  0.3189303E+04  0.7818608E-02  0.8191648E-01
          2   -1    0    0  501    0  0.00000000000E+00  0.00000000000E+00  0.27427487434E+04  0.27427487434E+04  0.00000000000E+00 0. -1.
         -2   -1    0    0    0  501 -0.00000000000E+00 -0.00000000000E+00 -0.92714045670E+03  0.92714045670E+03  0.00000000000E+00 0.  1.
    9900016    2    1    2    0    0 -0.10411788289E+03 -0.26993552010E+03  0.21130709662E+04  0.30342546358E+04  0.21582230116E+04 0.  0.
         24    2    3    3    0    0  0.15834057544E+03  0.58647501072E+03 -0.92930567358E+02  0.62150359309E+03  0.92768258867E+02 0.  0.
         23    2    3    3    0    0  0.14512910161E+02 -0.36505722594E+03  0.57782223375E+03  0.68964076139E+03  0.90820940257E+02 0.  0.
        -15    1    4    4    0    0  0.12083151242E+03  0.37734456678E+03 -0.10097851114E+03  0.40888364627E+03  0.00000000000E+00 0.  1.
        -15    1    5    5    0    0  0.21593751208E+02 -0.25412133831E+03  0.47022124112E+03  0.53493173422E+03  0.00000000000E+00 0. -1.
         15    1    5    5    0    0 -0.70808410469E+01 -0.11093588763E+03  0.10760099263E+03  0.15470902718E+03  0.00000000000E+00 0.  1.
         15    1    3    3    0    0 -0.27697136849E+03 -0.49135330488E+03  0.16281792998E+04  0.17231102813E+04  0.00000000000E+00 0. -1.
        -16    1    1    2    0    0  0.81308863468E+02  0.31827233779E+03 -0.37943517633E+03  0.50187594614E+03  0.00000000000E+00 0.  1.
         16    1    4    4    0    0  0.37509063015E+02  0.20913044393E+03  0.80479437808E+01  0.21261994682E+03  0.00000000000E+00 0. -1.
    9900018    1    1    2    0    0  0.22809019424E+02 -0.48336817688E+02  0.81972496889E+02  0.13375861823E+03  0.91187600000E+02 0.  0.
<mgrwt>
<rscale>  0 0.31893029E+04</rscale>
<asrwt>0</asrwt>
<pdfrwt beam="1">  1        2 0.42196134E+00 0.31893029E+04</pdfrwt>
<pdfrwt beam="2">  1       -2 0.14263699E+00 0.31893029E+04</pdfrwt>
<totfact> 0.72156120E-01</totfact>
</mgrwt>
</event>
<event>
12    1  0.3437080E-014  0.2647372E+04  0.7818608E-02  0.8352286E-01
          2   -1    0    0  501    0  0.00000000000E+00  0.00000000000E+00  0.22286613702E+04  0.22286613702E+04  0.00000000000E+00 0. -1.
         -2   -1    0    0    0  501 -0.00000000000E+00 -0.00000000000E+00 -0.78618685444E+03  0.78618685444E+03  0.00000000000E+00 0.  1.
    9900016    2    1    2    0    0  0.19814754337E+03  0.23200886459E+03  0.13100267813E+04  0.25380985282E+04  0.21523669318E+04 0.  0.
        -24    2    3    3    0    0 -0.54575646706E+03  0.44906857039E+03 -0.68581857121E+02  0.71293160095E+03  0.63681192290E+02 0.  0.
         23    2    3    3    0    0 -0.11826720325E+03  0.12625676457E+03  0.41995354827E+02  0.19797902468E+03  0.86626684233E+02 0.  0.
        -15    1    5    5    0    0 -0.74249976992E+02  0.11059786053E+03  0.62274824416E+02  0.14704794998E+03  0.00000000000E+00 0.  1.
        -15    1    3    3    0    0  0.86217121369E+03 -0.34331647036E+03  0.13366132835E+04  0.16271879026E+04  0.00000000000E+00 0.  1.
         15    1    5    5    0    0 -0.44017226260E+02  0.15658904043E+02 -0.20279469590E+02  0.50931074702E+02  0.00000000000E+00 0. -1.
         15    1    4    4    0    0 -0.50645240194E+03  0.43579383140E+03 -0.64779324433E+02  0.67127241846E+03  0.00000000000E+00 0. -1.
        -16    1    4    4    0    0 -0.39304065119E+02  0.13274738990E+02 -0.38025326888E+01  0.41659182481E+02  0.00000000000E+00 0.  1.
         16    1    1    2    0    0 -0.22000651833E+03 -0.27586507366E+03  0.85395218598E+02  0.36303822159E+03  0.00000000000E+00 0. -1.
    9900018    1    1    2    0    0  0.21858974956E+02  0.43856209066E+02  0.47052515874E+02  0.11371147481E+03  0.91187600000E+02 0.  0.
<mgrwt>
<rscale>  0 0.26473717E+04</rscale>
<asrwt>0</asrwt>
<pdfrwt beam="1">  1        2 0.34287098E+00 0.26473717E+04</pdfrwt>
<pdfrwt beam="2">  1       -2 0.12095182E+00 0.26473717E+04</pdfrwt>
<totfact> 0.22821974E+00</totfact>
</mgrwt>
</event>
<event>
11    1  0.3437080E-014  0.2850235E+04  0.7818608E-02  0.8287840E-01
         -2   -1    0    0    0  501 -0.00000000000E+00  0.00000000000E+00  0.17249776243E+04  0.17249776243E+04  0.00000000000E+00 0.  1.
          2   -1    0    0  501    0  0.00000000000E+00 -0.00000000000E+00 -0.11773832557E+04  0.11773832557E+04  0.00000000000E+00 0. -1.
    9900016    2    1    2    0    0 -0.33471602594E+02  0.53305277845E+03  0.37744775601E+03  0.23418116114E+04  0.22486327405E+04 0.  0.
         23    2    3    3    0    0 -0.88471216247E+02  0.14743151970E+03  0.19650308331E+03  0.27658752953E+03  0.91235906528E+02 0.  0.
        -15    1    3    3    0    0  0.40882890846E+02  0.52085416956E+02  0.27159174449E+03  0.27954673509E+03  0.00000000000E+00 0.  1.
        -15    1    4    4    0    0 -0.83741294770E+02  0.74959651426E+02  0.75275589544E+02  0.13526998253E+03  0.00000000000E+00 0. -1.
         15    1    4    4    0    0 -0.47299214767E+01  0.72471868269E+02  0.12122749376E+03  0.14131754700E+03  0.00000000000E+00 0.  1.
         15    1    3    3    0    0  0.33005675013E+02 -0.13259712372E+03 -0.80260837534E+03  0.81415697256E+03  0.00000000000E+00 0. -1.
        -16    1    1    2    0    0  0.33471602594E+02 -0.53305277845E+03  0.17014661263E+03  0.56054926865E+03  0.00000000000E+00 0.  1.
         16    1    3    3    0    0 -0.19903490113E+02  0.44720412728E+03  0.74794774909E+03  0.87167282610E+03  0.00000000000E+00 0. -1.
    9900018    1    3    3    0    0  0.10145379066E+01  0.18928838231E+02 -0.35986445550E+02  0.99847548097E+02  0.91187600000E+02 0.  0.
<mgrwt>
<rscale>  0 0.28502349E+04</rscale>
<asrwt>0</asrwt>
<pdfrwt beam="1">  1        2 0.18113589E+00 0.28502349E+04</pdfrwt>
<pdfrwt beam="2">  1       -2 0.26538117E+00 0.28502349E+04</pdfrwt>
<totfact> 0.87590838E-01</totfact>
</mgrwt>
</event>
<event>
12    1  0.3437080E-014  0.2515244E+04  0.7818608E-02  0.8397575E-01
         -2   -1    0    0    0  501 -0.00000000000E+00  0.00000000000E+00  0.11512086308E+04  0.11512086308E+04  0.00000000000E+00 0.  1.
          2   -1    0    0  501    0  0.00000000000E+00 -0.00000000000E+00 -0.13738722827E+04  0.13738722827E+04  0.00000000000E+00 0. -1.
    9900016    2    1    2    0    0  0.22597923829E+03 -0.10778139610E+02 -0.31737602263E+03  0.22798193845E+04  0.22462560188E+04 0.  0.
         24    2    3    3    0    0  0.31052448231E+03  0.18164250442E+03 -0.11823709202E+04  0.12396913838E+04  0.97027216257E+02 0.  0.
         23    2    3    3    0    0 -0.27230909360E+02  0.17272050736E+02  0.14421111208E+03  0.17387295656E+03  0.91624854787E+02 0.  0.
        -15    1    4    4    0    0  0.24450968316E+03  0.97280552314E+02 -0.90007529301E+03  0.93775477823E+03  0.00000000000E+00 0.  1.
        -15    1    5    5    0    0 -0.36419607225E+02  0.12939474658E+02  0.15459082709E+03  0.15934911865E+03  0.00000000000E+00 0.  1.
         15    1    5    5    0    0  0.91886978649E+01  0.43325760783E+01 -0.10379715010E+02  0.14523837909E+02  0.00000000000E+00 0. -1.
         15    1    3    3    0    0 -0.92318119607E+02 -0.16934974543E+03  0.73476190888E+03  0.75965586566E+03  0.00000000000E+00 0. -1.
        -16    1    1    2    0    0 -0.22597923829E+03  0.10778139610E+02  0.94712370713E+02  0.24526152898E+03  0.00000000000E+00 0.  1.
         16    1    4    4    0    0  0.66014799142E+02  0.84361952105E+02 -0.28229562718E+03  0.30193660559E+03  0.00000000000E+00 0. -1.
    9900018    1    3    3    0    0  0.35003784947E+02 -0.40342949337E+02 -0.13978123399E+02  0.10659917846E+03  0.91187600000E+02 0.  0.
<mgrwt>
<rscale>  0 0.25152444E+04</rscale>
<asrwt>0</asrwt>
<pdfrwt beam="1">  1        2 0.21136497E+00 0.25152444E+04</pdfrwt>
<pdfrwt beam="2">  1       -2 0.17710902E+00 0.25152444E+04</pdfrwt>
<totfact> 0.25342398E+00</totfact>
</mgrwt>
</event>
<event>
12    1  0.3437080E-014  0.2791713E+04  0.7818608E-02  0.8305846E-01
          1   -1    0    0  501    0  0.00000000000E+00  0.00000000000E+00  0.74797629995E+03  0.74797629995E+03  0.00000000000E+00 0. -1.
         -1   -1    0    0    0  501 -0.00000000000E+00 -0.00000000000E+00 -0.26049149862E+04  0.26049149862E+04  0.00000000000E+00 0.  1.
    9900016    2    1    2    0    0 -0.27623087921E+03  0.15412293370E+03 -0.10366224955E+04  0.24203229695E+04  0.21640978955E+04 0.  0.
         24    2    3    3    0    0  0.59804758177E+03  0.76614908129E+03 -0.23030111014E+03  0.10046069170E+04  0.10747619025E+03 0.  0.
         23    2    3    3    0    0 -0.27882865455E+03 -0.31747717046E+03 -0.96250408628E+02  0.44333733831E+03  0.93523697611E+02 0.  0.
        -15    1    4    4    0    0  0.10620749961E+03  0.10944206881E+03 -0.73483771110E+02  0.16928515592E+03  0.00000000000E+00 0.  1.
        -15    1    5    5    0    0 -0.11613912371E+03 -0.73544258206E+02 -0.10597396546E+02  0.13787443123E+03  0.00000000000E+00 0. -1.
         15    1    5    5    0    0 -0.16268953084E+03 -0.24393291225E+03 -0.85653012082E+02  0.30546290708E+03  0.00000000000E+00 0.  1.
         15    1    3    3    0    0 -0.59544980643E+03 -0.29454897713E+03 -0.71007097671E+03  0.97237871422E+03  0.00000000000E+00 0. -1.
        -16    1    1    2    0    0  0.27900517127E+03 -0.15884811924E+03 -0.75452577708E+03  0.81999131633E+03  0.00000000000E+00 0.  1.
         16    1    4    4    0    0  0.49184008216E+03  0.65670701248E+03 -0.15681733903E+03  0.83532176105E+03  0.00000000000E+00 0. -1.
    9900018    1    1    2    0    0 -0.27742920565E+01  0.47251855351E+01 -0.65790413733E+02  0.11257700035E+03  0.91187600000E+02 0.  0.
<mgrwt>
<rscale>  0 0.27917125E+04</rscale>
<asrwt>0</asrwt>
<pdfrwt beam="1">  1        1 0.11507328E+00 0.27917125E+04</pdfrwt>
<pdfrwt beam="2">  1       -1 0.40075615E+00 0.27917125E+04</pdfrwt>
<totfact> 0.15055833E-01</totfact>
</mgrwt>
</event>
<event>
12    1  0.3437080E-014  0.2769997E+04  0.7818608E-02  0.8312644E-01
          1   -1    0    0  501    0  0.00000000000E+00  0.00000000000E+00  0.27497671681E+04  0.27497671681E+04  0.00000000000E+00 0. -1.
         -1   -1    0    0    0  501 -0.00000000000E+00 -0.00000000000E+00 -0.69759380904E+03  0.69759380904E+03  0.00000000000E+00 0.  1.
    9900016    2    1    2    0    0 -0.11928670222E+03 -0.40503503453E+03  0.19607799373E+04  0.30153477203E+04  0.22515286397E+04 0.  0.
         24    2    3    3    0    0  0.37049375083E+03  0.50205515453E+02  0.11749811877E+04  0.12368804794E+04  0.97500336673E+02 0.  0.
         23    2    3    3    0    0  0.45497573707E+03 -0.16458618449E+02  0.38983991140E+03  0.60601652372E+03  0.89482194102E+02 0.  0.
        -15    1    4    4    0    0  0.11893893066E+03  0.16602170529E+02  0.53719308296E+03  0.55045300405E+03  0.00000000000E+00 0.  1.
        -15    1    5    5    0    0  0.49612888224E+02  0.69094842838E+01  0.12302743022E+02  0.51580394889E+02  0.00000000000E+00 0.  1.
         15    1    3    3    0    0 -0.88030286738E+03 -0.41902333869E+03  0.28977155890E+03  0.10170945153E+04  0.00000000000E+00 0. -1.
         15    1    5    5    0    0  0.40536284885E+03 -0.23368102733E+02  0.37753716838E+03  0.55443612883E+03  0.00000000000E+00 0. -1.
        -16    1    1    2    0    0  0.11928670222E+03  0.40503503453E+03  0.91393421761E+02  0.43201325681E+03  0.00000000000E+00 0.  1.
         16    1    4    4    0    0  0.25155482017E+03  0.33603344924E+02  0.63778810472E+03  0.68642747531E+03  0.00000000000E+00 0. -1.
    9900018    1    3    3    0    0 -0.64453322740E+02 -0.19758592843E+02  0.10618727933E+03  0.15535620196E+03  0.91187600000E+02 0.  0.
<mgrwt>
<rscale>  0 0.27699968E+04</rscale>
<asrwt>0</asrwt>
<pdfrwt beam="1">  1        1 0.42304110E+00 0.27699968E+04</pdfrwt>
<pdfrwt beam="2">  1       -1 0.10732213E+00 0.27699968E+04</pdfrwt>
<totfact> 0.63493446E-01</totfact>
</mgrwt>
</event>
<event>
12    1  0.3437080E-014  0.2680784E+04  0.7818608E-02  0.8341267E-01
         -1   -1    0    0    0  501 -0.00000000000E+00  0.00000000000E+00  0.11936553134E+04  0.11936553134E+04  0.00000000000E+00 0.  1.
          1   -1    0    0  501    0  0.00000000000E+00 -0.00000000000E+00 -0.15051673403E+04  0.15051673403E+04  0.00000000000E+00 0. -1.
    9900016    2    1    2    0    0 -0.34563920464E+03 -0.54977743188E+01 -0.34899429080E+03  0.22125897338E+04  0.21573733172E+04 0.  0.
        -24    2    3    3    0    0  0.83829311511E+03  0.87771058031E+02 -0.17607710161E+03  0.86593379875E+03  0.91646563740E+02 0.  0.
         23    2    3    3    0    0 -0.23134006658E+03  0.21758171526E+03 -0.78672969359E+02  0.34020571930E+03  0.93222669546E+02 0.  0.
        -15    1    3    3    0    0 -0.95259225317E+03 -0.31085054760E+03 -0.94244219829E+02  0.10064502157E+04  0.00000000000E+00 0.  1.
        -15    1    5    5    0    0 -0.19851293677E+03  0.15992039835E+03 -0.94715506870E+02  0.27194291150E+03  0.00000000000E+00 0. -1.
         15    1    4    4    0    0  0.55077294933E+03  0.71525475193E+02 -0.73541620152E+02  0.56024557581E+03  0.00000000000E+00 0. -1.
         15    1    5    5    0    0 -0.32827129814E+02  0.57661316909E+02  0.16042537511E+02  0.68262807804E+02  0.00000000000E+00 0.  1.
        -16    1    4    4    0    0  0.28752016578E+03  0.16245582838E+02 -0.10253548146E+03  0.30568822295E+03  0.00000000000E+00 0.  1.
         16    1    1    2    0    0  0.37215202059E+03  0.43450848401E+02  0.65120616362E+02  0.38029698570E+03  0.00000000000E+00 0. -1.
    9900018    1    1    2    0    0 -0.26512815953E+02 -0.37953074082E+02 -0.27638352495E+02  0.10593593425E+03  0.91187600000E+02 0.  0.
<mgrwt>
<rscale>  0 0.26807842E+04</rscale>
<asrwt>0</asrwt>
<pdfrwt beam="1">  1        1 0.23156421E+00 0.26807842E+04</pdfrwt>
<pdfrwt beam="2">  1       -1 0.18363928E+00 0.26807842E+04</pdfrwt>
<totfact> 0.11121790E+00</totfact>
</mgrwt>
</event>
<event>
12    1  0.3437080E-014  0.2543972E+04  0.7818608E-02  0.8387486E-01
          2   -1    0    0  501    0  0.00000000000E+00  0.00000000000E+00  0.40587947404E+04  0.40587947404E+04  0.00000000000E+00 0. -1.
         -2   -1    0    0    0  501 -0.00000000000E+00 -0.00000000000E+00 -0.39862764107E+03  0.39862764107E+03  0.00000000000E+00 0.  1.
    9900016    2    1    2    0    0  0.21355844675E+02 -0.23395968049E+03  0.33205360782E+04  0.39651558346E+04  0.21543694534E+04 0.  0.
         24    2    3    3    0    0  0.79172190899E+03 -0.30070098875E+03  0.65057287723E+03  0.10721309310E+04  0.94736470676E+02 0.  0.
         23    2    3    3    0    0  0.72512718874E+02 -0.15956787419E+03  0.23760518688E+03  0.30883721728E+03  0.90577044951E+02 0.  0.
        -15    1    4    4    0    0  0.35914181726E+03 -0.11043332909E+03  0.33920937344E+03  0.50620288828E+03  0.00000000000E+00 0.  1.
        -15    1    5    5    0    0  0.23129425516E+02 -0.12390820095E+03  0.10942185524E+03  0.16691720999E+03  0.00000000000E+00 0.  1.
         15    1    5    5    0    0  0.49383293358E+02 -0.35659673248E+02  0.12818333164E+03  0.14192000729E+03  0.00000000000E+00 0. -1.
         15    1    3    3    0    0 -0.84287878319E+03  0.22630918245E+03  0.24323580141E+04  0.25841876863E+04  0.00000000000E+00 0. -1.
        -16    1    1    2    0    0 -0.28630585534E+02  0.22877914328E+03  0.13285859487E+03  0.26610338791E+03  0.00000000000E+00 0.  1.
         16    1    4    4    0    0  0.43258009173E+03 -0.19026765965E+03  0.31136350378E+03  0.56592804274E+03  0.00000000000E+00 0. -1.
    9900018    1    1    2    0    0  0.72747408596E+01  0.51805372149E+01  0.20677242630E+03  0.22616315901E+03  0.91187600000E+02 0.  0.
<mgrwt>
<rscale>  0 0.25439715E+04</rscale>
<asrwt>0</asrwt>
<pdfrwt beam="1">  1        2 0.62442993E+00 0.25439715E+04</pdfrwt>
<pdfrwt beam="2">  1       -2 0.61327332E-01 0.25439715E+04</pdfrwt>
<totfact> 0.67505539E-01</totfact>
</mgrwt>
</event>
<event>
12    1  0.3437080E-014  0.2508445E+04  0.7818608E-02  0.8399983E-01
         -1   -1    0    0    0  501 -0.00000000000E+00  0.00000000000E+00  0.33475018814E+03  0.33475018814E+03  0.00000000000E+00 0.  1.
          1   -1    0    0  501    0  0.00000000000E+00 -0.00000000000E+00 -0.46992484541E+04  0.46992484541E+04  0.00000000000E+00 0. -1.
    9900016    2    1    2    0    0 -0.23277825774E+03  0.66229032331E+02 -0.40701564093E+04  0.46529354840E+04  0.22416653229E+04 0.  0.
         24    2    3    3    0    0 -0.62499809992E+03  0.69348158623E+03 -0.26171702034E+04  0.27807510287E+04  0.10703772786E+03 0.  0.
         23    2    3    3    0    0 -0.96666180076E+02  0.14653986979E+03 -0.26126300986E+03  0.32841751365E+03  0.93709226549E+02 0.  0.
        -15    1    4    4    0    0 -0.15332017530E+03  0.23131523668E+03 -0.85508670720E+03  0.89899226454E+03  0.00000000000E+00 0.  1.
        -15    1    5    5    0    0 -0.36476121446E+02  0.30832724212E+01 -0.89375075832E+02  0.96581148183E+02  0.00000000000E+00 0.  1.
         15    1    5    5    0    0 -0.60190058630E+02  0.14345659737E+03 -0.17188793403E+03  0.23183636546E+03  0.00000000000E+00 0. -1.
         15    1    3    3    0    0  0.47196616580E+03 -0.74393869601E+03 -0.10346779493E+04  0.13589537534E+04  0.00000000000E+00 0. -1.
        -16    1    1    2    0    0  0.23277825774E+03 -0.66229032331E+02 -0.29434185665E+03  0.38106315825E+03  0.00000000000E+00 0.  1.
         16    1    4    4    0    0 -0.47167792462E+03  0.46216634955E+03 -0.17620834962E+04  0.18817587642E+04  0.00000000000E+00 0. -1.
    9900018    1    3    3    0    0  0.16919856451E+02 -0.29853727673E+02 -0.15704524686E+03  0.18481318826E+03  0.91187600000E+02 0.  0.
<mgrwt>
<rscale>  0 0.25084452E+04</rscale>
<asrwt>0</asrwt>
<pdfrwt beam="1">  1        1 0.72296133E+00 0.25084452E+04</pdfrwt>
<pdfrwt beam="2">  1       -1 0.51500027E-01 0.25084452E+04</pdfrwt>
<totfact> 0.66865342E-02</totfact>
</mgrwt>
</event>
<event>
11    1  0.3437080E-014  0.2376869E+04  0.7818608E-02  0.8448214E-01
         -1   -1    0    0    0  501 -0.00000000000E+00  0.00000000000E+00  0.95472066967E+03  0.95472066967E+03  0.00000000000E+00 0.  1.
          1   -1    0    0  501    0  0.00000000000E+00 -0.00000000000E+00 -0.14793612896E+04  0.14793612896E+04  0.00000000000E+00 0. -1.
    9900016    2    1    2    0    0 -0.23843597392E+01 -0.16516399715E+02 -0.40050378816E+03  0.21950050624E+04  0.21580930154E+04 0.  0.
         23    2    3    3    0    0  0.25201448610E+03 -0.22060845555E+03  0.39562468770E+03  0.52640197961E+03  0.91655653154E+02 0.  0.
        -15    1    4    4    0    0  0.97395928683E+02 -0.72436014418E+02  0.81425218816E+02  0.14616090232E+03  0.00000000000E+00 0. -1.
        -15    1    3    3    0    0 -0.41094219939E+03 -0.52899365340E+03 -0.17094533815E+03  0.69132487675E+03  0.00000000000E+00 0.  1.
         15    1    3    3    0    0  0.33640744219E+02  0.20249740908E+03 -0.14660271588E+03  0.25224840269E+03  0.00000000000E+00 0. -1.
         15    1    4    4    0    0  0.15461855741E+03 -0.14817244113E+03  0.31419946888E+03  0.38024107729E+03  0.00000000000E+00 0.  1.
        -16    1    3    3    0    0  0.12290260934E+03  0.53058830016E+03 -0.47858042182E+03  0.72502980339E+03  0.00000000000E+00 0.  1.
         16    1    1    2    0    0  0.14827233105E+02  0.52524071977E+00 -0.14301021590E+03  0.14377776105E+03  0.00000000000E+00 0. -1.
    9900018    1    1    2    0    0 -0.12442873365E+02  0.15991158995E+02  0.18873384110E+02  0.95299135805E+02  0.91187600000E+02 0.  0.
<mgrwt>
<rscale>  0 0.23768692E+04</rscale>
<asrwt>0</asrwt>
<pdfrwt beam="1">  1        1 0.22759404E+00 0.23768692E+04</pdfrwt>
<pdfrwt beam="2">  1       -1 0.14688010E+00 0.23768692E+04</pdfrwt>
<totfact> 0.22413577E+00</totfact>
</mgrwt>
</event>
<event>
12    1  0.3437080E-014  0.3286927E+04  0.7818608E-02  0.8166230E-01
         -1   -1    0    0    0  501 -0.00000000000E+00  0.00000000000E+00  0.11220925996E+04  0.11220925996E+04  0.00000000000E+00 0.  1.
          1   -1    0    0  501    0  0.00000000000E+00 -0.00000000000E+00 -0.24070850039E+04  0.24070850039E+04  0.00000000000E+00 0. -1.
    9900016    2    1    2    0    0 -0.19769061455E+03 -0.50824452408E+03 -0.15609793670E+04  0.27069977121E+04  0.21433119123E+04 0.  0.
         24    2    3    3    0    0 -0.72080791999E+03 -0.51018579300E+03 -0.78233567552E+01  0.88812148300E+03  0.94047662169E+02 0.  0.
         23    2    3    3    0    0 -0.11865722665E+03 -0.19747382766E+03 -0.24399298218E+03  0.34729586604E+03  0.89478450849E+02 0.  0.
        -15    1    5    5    0    0 -0.59390835728E+02 -0.15971946551E+03 -0.13403358750E+03  0.21680078784E+03  0.00000000000E+00 0.  1.
        -15    1    4    4    0    0 -0.26508214642E+03 -0.20645821157E+03  0.40019337867E+02  0.33837122348E+03  0.00000000000E+00 0.  1.
         15    1    5    5    0    0 -0.59266390919E+02 -0.37754362150E+02 -0.10995939468E+03  0.13049507819E+03  0.00000000000E+00 0. -1.
         15    1    3    3    0    0  0.64177453208E+03  0.19941509659E+03 -0.13091630281E+04  0.14715803630E+04  0.00000000000E+00 0. -1.
        -16    1    1    2    0    0  0.14514701360E+03  0.51193304139E+03  0.39542216052E+03  0.66294930384E+03  0.00000000000E+00 0.  1.
         16    1    4    4    0    0 -0.45572577356E+03 -0.30372758143E+03 -0.47842694622E+02  0.54975025952E+03  0.00000000000E+00 0. -1.
    9900018    1    1    2    0    0  0.52543600945E+02 -0.36885173175E+01 -0.11943519781E+03  0.15923058761E+03  0.91187600000E+02 0.  0.
<mgrwt>
<rscale>  0 0.32869270E+04</rscale>
<asrwt>0</asrwt>
<pdfrwt beam="1">  1        1 0.37032076E+00 0.32869270E+04</pdfrwt>
<pdfrwt beam="2">  1       -1 0.17262963E+00 0.32869270E+04</pdfrwt>
<totfact> 0.30703745E-01</totfact>
</mgrwt>
</event>
<event>
11    1  0.3437080E-014  0.2866605E+04  0.7818608E-02  0.8282883E-01
         -2   -1    0    0    0  501 -0.00000000000E+00  0.00000000000E+00  0.16614008837E+04  0.16614008837E+04  0.00000000000E+00 0.  1.
          2   -1    0    0  501    0  0.00000000000E+00 -0.00000000000E+00 -0.12365205315E+04  0.12365205315E+04  0.00000000000E+00 0. -1.
    9900016    2    1    2    0    0  0.14534483460E+03 -0.29052344111E+03  0.78418794043E+03  0.24135342417E+04  0.22593511943E+04 0.  0.
         23    2    3    3    0    0 -0.25310479518E+03  0.42514211934E+03  0.23023048982E+03  0.55318657066E+03  0.90561827126E+02 0.  0.
        -15    1    4    4    0    0 -0.22906150183E+03  0.40174815497E+03  0.23591894638E+03  0.51916134381E+03  0.00000000000E+00 0. -1.
        -15    1    3    3    0    0 -0.12882091799E+03  0.35318210829E+03  0.50147551497E+03  0.62674566025E+03  0.00000000000E+00 0.  1.
         15    1    4    4    0    0 -0.24043293351E+02  0.23393964377E+02 -0.56884565633E+01  0.34025226854E+02  0.00000000000E+00 0.  1.
         15    1    3    3    0    0  0.32687199057E+03 -0.64204154265E+03  0.13395699466E+02  0.72058454429E+03  0.00000000000E+00 0. -1.
        -16    1    3    3    0    0  0.16006879317E+03 -0.34259429105E+03  0.52056627777E+01  0.37817980608E+03  0.00000000000E+00 0.  1.
         16    1    1    2    0    0 -0.14534483460E+03  0.29052344111E+03 -0.35930758828E+03  0.48438717342E+03  0.00000000000E+00 0. -1.
    9900018    1    3    3    0    0  0.40329764028E+02 -0.84211835047E+02  0.33880573403E+02  0.13483766045E+03  0.91187600000E+02 0.  0.
<mgrwt>
<rscale>  0 0.28666052E+04</rscale>
<asrwt>0</asrwt>
<pdfrwt beam="1">  1        2 0.19023393E+00 0.28666052E+04</pdfrwt>
<pdfrwt beam="2">  1       -2 0.25560014E+00 0.28666052E+04</pdfrwt>
<totfact> 0.92557617E-01</totfact>
</mgrwt>
</event>
<event>
12    1  0.3437080E-014  0.3545266E+04  0.7818608E-02  0.8103145E-01
          1   -1    0    0  501    0  0.00000000000E+00  0.00000000000E+00  0.19159612460E+04  0.19159612460E+04  0.00000000000E+00 0. -1.
         -1   -1    0    0    0  501 -0.00000000000E+00 -0.00000000000E+00 -0.16400269424E+04  0.16400269424E+04  0.00000000000E+00 0.  1.
    9900016    2    1    2    0    0  0.91908872678E+02 -0.55738870094E+03 -0.71189158428E+03  0.24180385456E+04  0.22407568756E+04 0.  0.
        -24    2    3    3    0    0  0.55096150733E+03 -0.10255972560E+04  0.64416468949E+02  0.11704491436E+04  0.10194803606E+03 0.  0.
         23    2    3    3    0    0 -0.25551857649E+03  0.10894849911E+03 -0.10831533800E+02  0.29276262005E+03  0.91831972544E+02 0.  0.
        -15    1    5    5    0    0 -0.64643818785E+02  0.73957257946E+02 -0.96914064011E+01  0.98703711521E+02  0.00000000000E+00 0. -1.
        -15    1    3    3    0    0 -0.17014545692E+03  0.37372392652E+03 -0.75052497099E+03  0.85551550649E+03  0.00000000000E+00 0.  1.
         15    1    5    5    0    0 -0.19087475771E+03  0.34991241168E+02 -0.11401273985E+01  0.19405890853E+03  0.00000000000E+00 0.  1.
         15    1    4    4    0    0  0.20191271078E+03 -0.28691250603E+03  0.39666589266E+02  0.35307360025E+03  0.00000000000E+00 0. -1.
        -16    1    4    4    0    0  0.34904879654E+03 -0.73868475000E+03  0.24749879683E+02  0.81737554331E+03  0.00000000000E+00 0.  1.
         16    1    1    2    0    0 -0.91908872678E+02  0.55738870094E+03  0.98782588787E+03  0.11379496428E+04  0.00000000000E+00 0. -1.
    9900018    1    3    3    0    0 -0.33388601231E+02 -0.14463870545E+02 -0.14951548438E+02  0.99311275481E+02  0.91187600000E+02 0.  0.
<mgrwt>
<rscale>  0 0.35452662E+04</rscale>
<asrwt>0</asrwt>
<pdfrwt beam="1">  1        1 0.29476327E+00 0.35452662E+04</pdfrwt>
<pdfrwt beam="2">  1       -1 0.25231184E+00 0.35452662E+04</pdfrwt>
<totfact> 0.18599196E-01</totfact>
</mgrwt>
</event>
<event>
12    1  0.3437080E-014  0.3519472E+04  0.7818608E-02  0.8109191E-01
         -1   -1    0    0    0  501 -0.00000000000E+00  0.00000000000E+00  0.11380637552E+04  0.11380637552E+04  0.00000000000E+00 0.  1.
          1   -1    0    0  501    0  0.00000000000E+00 -0.00000000000E+00 -0.27209991089E+04  0.27209991089E+04  0.00000000000E+00 0. -1.
    9900016    2    1    2    0    0  0.58653900156E+03 -0.17963093460E+03 -0.20336555112E+04  0.30978507166E+04  0.22549122047E+04 0.  0.
         24    2    3    3    0    0  0.51378172554E+02 -0.90128477176E+02 -0.29048921351E+03  0.32292974082E+03  0.95586480902E+02 0.  0.
         23    2    3    3    0    0 -0.76842575970E+03  0.11366498607E+03 -0.57782118930E+03  0.97243157013E+03  0.91367141604E+02 0.  0.
        -15    1    5    5    0    0 -0.72650378790E+03  0.11929745077E+03 -0.52253011511E+03  0.90281634721E+03  0.00000000000E+00 0. -1.
        -15    1    4    4    0    0  0.52601430731E+02 -0.74762620086E+02 -0.29334032286E+03  0.30725381185E+03  0.00000000000E+00 0.  1.
         15    1    3    3    0    0  0.12287769928E+04 -0.23818818182E+03 -0.10735861621E+04  0.16490038677E+04  0.00000000000E+00 0. -1.
         15    1    5    5    0    0 -0.41921971802E+02 -0.56324646969E+01 -0.55291074187E+02  0.69615222926E+02  0.00000000000E+00 0.  1.
        -16    1    1    2    0    0 -0.58653900156E+03  0.17963093460E+03  0.45072015759E+03  0.76121214748E+03  0.00000000000E+00 0.  1.
         16    1    4    4    0    0 -0.12232581774E+01 -0.15365857091E+02  0.28511093567E+01  0.15675928976E+02  0.00000000000E+00 0. -1.
    9900018    1    3    3    0    0  0.74809595862E+02  0.35020738315E+02 -0.91758946317E+02  0.15348553798E+03  0.91187600000E+02 0.  0.
<mgrwt>
<rscale>  0 0.35194718E+04</rscale>
<asrwt>0</asrwt>
<pdfrwt beam="1">  1        1 0.41861525E+00 0.35194718E+04</pdfrwt>
<pdfrwt beam="2">  1       -1 0.17508673E+00 0.35194718E+04</pdfrwt>
<totfact> 0.17440553E-01</totfact>
</mgrwt>
</event>
<event>
12    1  0.3437080E-014  0.2736095E+04  0.7818608E-02  0.8323388E-01
         -2   -1    0    0    0  501 -0.00000000000E+00  0.00000000000E+00  0.61329203958E+03  0.61329203958E+03  0.00000000000E+00 0.  1.
          2   -1    0    0  501    0  0.00000000000E+00 -0.00000000000E+00 -0.30516523743E+04  0.30516523743E+04  0.00000000000E+00 0. -1.
    9900016    2    1    2    0    0 -0.23227300025E+03  0.91445908695E+02 -0.15419026635E+04  0.27343803607E+04  0.22443393309E+04 0.  0.
        -24    2    3    3    0    0 -0.61696005915E+03 -0.79711485747E+02 -0.12855381920E+04  0.14319645818E+04  0.10450112336E+03 0.  0.
         23    2    3    3    0    0  0.19099518673E+03 -0.45647470704E+03 -0.16459853567E+03  0.52907859836E+03  0.89348563371E+02 0.  0.
        -15    1    3    3    0    0  0.22360110569E+03  0.63323849556E+03 -0.74630061913E+02  0.67569082639E+03  0.00000000000E+00 0.  1.
        -15    1    5    5    0    0  0.34551422324E+02 -0.21821814648E+02 -0.14194632804E+02  0.43260605400E+02  0.00000000000E+00 0. -1.
         15    1    4    4    0    0 -0.26119932486E+03 -0.30337362082E+01 -0.63344379744E+03  0.68518999947E+03  0.00000000000E+00 0. -1.
         15    1    5    5    0    0  0.15644376441E+03 -0.43465289240E+03 -0.15040390286E+03  0.48581799296E+03  0.00000000000E+00 0.  1.
        -16    1    4    4    0    0 -0.35576073430E+03 -0.76677749539E+02 -0.65209439460E+03  0.74677458233E+03  0.00000000000E+00 0.  1.
         16    1    1    2    0    0  0.23227300025E+03 -0.91445908695E+02 -0.89645767126E+03  0.93056405326E+03  0.00000000000E+00 0. -1.
    9900018    1    3    3    0    0 -0.29909233519E+02 -0.56063940742E+01 -0.17135873892E+02  0.97646354115E+02  0.91187600000E+02 0.  0.
<mgrwt>
<rscale>  0 0.27360951E+04</rscale>
<asrwt>0</asrwt>
<pdfrwt beam="1">  1        2 0.46948499E+00 0.27360951E+04</pdfrwt>
<pdfrwt beam="2">  1       -2 0.94352619E-01 0.27360951E+04</pdfrwt>
<totfact> 0.13377062E+00</totfact>
</mgrwt>
</event>
<event>
11    1  0.3437080E-014  0.2545975E+04  0.7818608E-02  0.8386787E-01
          2   -1    0    0  501    0  0.00000000000E+00  0.00000000000E+00  0.30588755610E+04  0.30588755610E+04  0.00000000000E+00 0.  1.
         -2   -1    0    0    0  501 -0.00000000000E+00 -0.00000000000E+00 -0.52976895354E+03  0.52976895354E+03  0.00000000000E+00 0. -1.
    9900016    2    1    2    0    0  0.15566712230E+03 -0.14760097754E+03  0.23312571721E+04  0.31850081497E+04  0.21595135123E+04 0.  0.
         23    2    3    3    0    0 -0.43774635083E+03 -0.33717936314E+03  0.11151322396E+04  0.12478445440E+04  0.91018149386E+02 0.  0.
        -15    1    4    4    0    0 -0.38044676439E+03 -0.27257457621E+03  0.99832299324E+03  0.11025812618E+04  0.00000000000E+00 0.  1.
        -15    1    3    3    0    0  0.13846264780E+03  0.31208620515E+03  0.25965852416E+03  0.42894318208E+03  0.00000000000E+00 0.  1.
         15    1    4    4    0    0 -0.57299586439E+02 -0.64604786920E+02  0.11680924641E+03  0.14526328217E+03  0.00000000000E+00 0. -1.
         15    1    3    3    0    0  0.21729545318E+03 -0.59666990323E+03  0.54814435503E+03  0.83886501975E+03  0.00000000000E+00 0. -1.
        -16    1    1    2    0    0 -0.14472574951E+03  0.16654741503E+03  0.46345126605E+02  0.22545832161E+03  0.00000000000E+00 0.  1.
         16    1    3    3    0    0  0.23765537215E+03  0.47416208368E+03  0.40832205328E+03  0.66935540388E+03  0.00000000000E+00 0. -1.
    9900018    1    1    2    0    0 -0.10941372788E+02 -0.18946437488E+02  0.15150430878E+03  0.17817804327E+03  0.91187600000E+02 0.  0.
<mgrwt>
<rscale>  0 0.25459751E+04</rscale>
<asrwt>0</asrwt>
<pdfrwt beam="1">  1        2 0.47059623E+00 0.25459751E+04</pdfrwt>
<pdfrwt beam="2">  1       -2 0.81502918E-01 0.25459751E+04</pdfrwt>
<totfact> 0.18826757E+00</totfact>
</mgrwt>
</event>
<event>
12    1  0.3437080E-014  0.2735576E+04  0.7818608E-02  0.8323553E-01
         -2   -1    0    0    0  501 -0.00000000000E+00  0.00000000000E+00  0.11291201948E+04  0.11291201948E+04  0.00000000000E+00 0.  1.
          2   -1    0    0  501    0  0.00000000000E+00 -0.00000000000E+00 -0.16569038814E+04  0.16569038814E+04  0.00000000000E+00 0. -1.
    9900016    2    1    2    0    0  0.24605998440E+03  0.23758057425E+03 -0.62745592485E+03  0.22665157811E+04  0.21509074372E+04 0.  0.
        -24    2    3    3    0    0 -0.24889429919E+03  0.49035508311E+03  0.42305985817E+03  0.70256918685E+03  0.11057729885E+03 0.  0.
         23    2    3    3    0    0 -0.87839449669E+02  0.31445794870E+03 -0.23426548807E+03  0.41170280909E+03  0.89550620857E+02 0.  0.
        -15    1    5    5    0    0  0.96682474677E+01  0.12583514826E+03 -0.85609726564E+02  0.15250240925E+03  0.00000000000E+00 0.  1.
        -15    1    3    3    0    0  0.58279373326E+03 -0.56723245756E+03 -0.81625029496E+03  0.11522437852E+04  0.00000000000E+00 0.  1.
         15    1    5    5    0    0 -0.97507697136E+02  0.18862280044E+03 -0.14865576150E+03  0.25920039984E+03  0.00000000000E+00 0. -1.
         15    1    4    4    0    0 -0.16253024067E+03  0.25446844131E+03  0.17237425410E+03  0.34768254231E+03  0.00000000000E+00 0. -1.
        -16    1    4    4    0    0 -0.86364058525E+02  0.23588664180E+03  0.25068560408E+03  0.35488664454E+03  0.00000000000E+00 0.  1.
         16    1    1    2    0    0 -0.24594274830E+03 -0.28755154023E+03  0.14612941658E+03  0.40561993309E+03  0.00000000000E+00 0. -1.
    9900018    1    1    2    0    0 -0.11723610280E+00  0.49970965983E+02 -0.46457178263E+02  0.11388836197E+03  0.91187600000E+02 0.  0.
<mgrwt>
<rscale>  0 0.27355757E+04</rscale>
<asrwt>0</asrwt>
<pdfrwt beam="1">  1        2 0.25490829E+00 0.27355757E+04</pdfrwt>
<pdfrwt beam="2">  1       -2 0.17371080E+00 0.27355757E+04</pdfrwt>
<totfact> 0.18192607E+00</totfact>
</mgrwt>
</event>
<event>
12    1  0.3437080E-014  0.2894721E+04  0.7818608E-02  0.8274450E-01
         -2   -1    0    0    0  501 -0.00000000000E+00  0.00000000000E+00  0.19885288878E+04  0.19885288878E+04  0.00000000000E+00 0. -1.
          2   -1    0    0  501    0  0.00000000000E+00 -0.00000000000E+00 -0.10534686916E+04  0.10534686916E+04  0.00000000000E+00 0.  1.
    9900016    2    1    2    0    0  0.24951907179E+03  0.38366276877E+03  0.10540764464E+04  0.24435956708E+04  0.21565309550E+04 0.  0.
         24    2    3    3    0    0  0.10085228198E+04  0.25648737653E+03 -0.94381620781E+02  0.10469730841E+04  0.65883959344E+02 0.  0.
         23    2    3    3    0    0 -0.18588432965E+03  0.61778587205E+02  0.26530208694E+03  0.34177326312E+03  0.89745129127E+02 0.  0.
        -15    1    4    4    0    0  0.21019747815E+03  0.28587041399E+02 -0.81527028174E+01  0.21228910787E+03  0.00000000000E+00 0.  1.
        -15    1    5    5    0    0 -0.16716448084E+03  0.71438729838E+02  0.18745381889E+03  0.26112523813E+03  0.00000000000E+00 0.  1.
         15    1    3    3    0    0 -0.57311941841E+03  0.65396805031E+02  0.88315598025E+03  0.10548493235E+04  0.00000000000E+00 0. -1.
         15    1    5    5    0    0 -0.18719848812E+02 -0.96601426330E+01  0.77848268055E+02  0.80648024987E+02  0.00000000000E+00 0. -1.
        -16    1    1    2    0    0 -0.21879900948E+03 -0.40089618649E+03 -0.17100630338E+03  0.48768218615E+03  0.00000000000E+00 0.  1.
         16    1    4    4    0    0  0.79832534169E+03  0.22790033514E+03 -0.86228917964E+02  0.83468397627E+03  0.00000000000E+00 0. -1.
    9900018    1    1    2    0    0 -0.30720062313E+02  0.17233417723E+02  0.51990053130E+02  0.11071972242E+03  0.91187600000E+02 0.  0.
<mgrwt>
<rscale>  0 0.28947214E+04</rscale>
<asrwt>0</asrwt>
<pdfrwt beam="1">  1        2 0.16207211E+00 0.28947214E+04</pdfrwt>
<pdfrwt beam="2">  1       -2 0.30592752E+00 0.28947214E+04</pdfrwt>
<totfact> 0.58783370E-01</totfact>
</mgrwt>
</event>
<event>
12    1  0.3437080E-014  0.3479213E+04  0.7818608E-02  0.8118734E-01
          2   -1    0    0  501    0  0.00000000000E+00  0.00000000000E+00  0.26681672123E+04  0.26681672123E+04  0.00000000000E+00 0. -1.
         -2   -1    0    0    0  501 -0.00000000000E+00 -0.00000000000E+00 -0.11341983482E+04  0.11341983482E+04  0.00000000000E+00 0.  1.
    9900016    2    1    2    0    0  0.85263298776E+03 -0.21891494331E+03  0.16394536759E+04  0.29157800826E+04  0.22447847046E+04 0.  0.
         24    2    3    3    0    0 -0.36759965684E+03  0.64652766428E+03  0.24855962551E+03  0.78720452471E+03  0.69148737597E+02 0.  0.
         23    2    3    3    0    0  0.36812614840E+03 -0.12750671925E+03  0.21397966679E+03  0.45345576323E+03  0.89777540725E+02 0.  0.
        -15    1    5    5    0    0  0.35131054741E+03 -0.12476860020E+03  0.17690108269E+03  0.41265033306E+03  0.00000000000E+00 0. -1.
        -15    1    4    4    0    0 -0.22178959742E+03  0.43437911119E+03  0.13665124793E+03  0.50650705950E+03  0.00000000000E+00 0.  1.
         15    1    3    3    0    0  0.79783767464E+03 -0.73662076361E+03  0.10731868646E+04  0.15267236655E+04  0.00000000000E+00 0. -1.
         15    1    5    5    0    0  0.16815600986E+02 -0.27381190496E+01  0.37078584098E+02  0.40805430168E+02  0.00000000000E+00 0.  1.
        -16    1    1    2    0    0 -0.85263298776E+03  0.21891494331E+03 -0.10548481181E+03  0.88658547797E+03  0.00000000000E+00 0.  1.
         16    1    4    4    0    0 -0.14581005941E+03  0.21214855309E+03  0.11190837758E+03  0.28069746521E+03  0.00000000000E+00 0. -1.
    9900018    1    3    3    0    0  0.54268821567E+02 -0.13151247240E+01  0.10372751905E+03  0.14839612916E+03  0.91187600000E+02 0.  0.
<mgrwt>
<rscale>  0 0.34792130E+04</rscale>
<asrwt>0</asrwt>
<pdfrwt beam="1">  1        2 0.41048726E+00 0.34792130E+04</pdfrwt>
<pdfrwt beam="2">  1       -2 0.17449205E+00 0.34792130E+04</pdfrwt>
<totfact> 0.45217381E-01</totfact>
</mgrwt>
</event>
<event>
11    1  0.3437080E-014  0.3390023E+04  0.7818608E-02  0.8140359E-01
         -2   -1    0    0    0  501 -0.00000000000E+00  0.00000000000E+00  0.13646297648E+04  0.13646297648E+04  0.00000000000E+00 0.  1.
          2   -1    0    0  501    0  0.00000000000E+00 -0.00000000000E+00 -0.21053793638E+04  0.21053793638E+04  0.00000000000E+00 0. -1.
    9900016    2    1    2    0    0 -0.50950638851E+03  0.35965531737E+03 -0.11472513682E+04  0.25231691262E+04  0.21589923646E+04 0.  0.
         23    2    3    3    0    0  0.12354854865E+01  0.20383161092E+03 -0.39685354136E+02  0.22776838096E+03  0.93566318721E+02 0.  0.
        -15    1    4    4    0    0 -0.53489371361E+01  0.19014561699E+03 -0.54312819636E+01  0.19029835946E+03  0.00000000000E+00 0. -1.
        -15    1    3    3    0    0 -0.20571034118E+03 -0.44210097790E+02 -0.40352487036E+02  0.21424192033E+03  0.00000000000E+00 0.  1.
         15    1    3    3    0    0  0.56036365367E+03  0.56939845446E+03 -0.72836037093E+03  0.10810785606E+04  0.00000000000E+00 0. -1.
         15    1    4    4    0    0  0.65844226226E+01  0.13685993929E+02 -0.34254072172E+02  0.37470021504E+02  0.00000000000E+00 0.  1.
        -16    1    1    2    0    0  0.51792935992E+03 -0.39920726152E+03  0.48968893094E+03  0.81695318630E+03  0.00000000000E+00 0.  1.
         16    1    3    3    0    0 -0.86539518648E+03 -0.36936465022E+03 -0.33885315615E+03  0.10000802643E+04  0.00000000000E+00 0. -1.
    9900018    1    1    2    0    0 -0.84229714088E+01  0.39551944150E+02 -0.83187161734E+02  0.12988681613E+03  0.91187600000E+02 0.  0.
<mgrwt>
<rscale>  0 0.33900226E+04</rscale>
<asrwt>0</asrwt>
<pdfrwt beam="1">  1        2 0.32390452E+00 0.33900226E+04</pdfrwt>
<pdfrwt beam="2">  1       -2 0.20994304E+00 0.33900226E+04</pdfrwt>
<totfact> 0.55450569E-01</totfact>
</mgrwt>
</event>
<event>
11    1  0.3437080E-014  0.2570645E+04  0.7818608E-02  0.8378241E-01
         -2   -1    0    0    0  501 -0.00000000000E+00  0.00000000000E+00  0.12142964701E+04  0.12142964701E+04  0.00000000000E+00 0.  1.
          2   -1    0    0  501    0  0.00000000000E+00 -0.00000000000E+00 -0.13605024776E+04  0.13605024776E+04  0.00000000000E+00 0. -1.
    9900016    2    1    2    0    0 -0.21555862578E+03  0.10363220650E+03 -0.30233143199E+03  0.21786807929E+04  0.21443042105E+04 0.  0.
         23    2    3    3    0    0 -0.28592522396E+03 -0.33052358443E+03  0.18614832045E+03  0.48380418940E+03  0.91739974475E+02 0.  0.
        -15    1    4    4    0    0 -0.15720718610E+03 -0.19369679903E+03  0.15413252552E+03  0.29323946654E+03  0.00000000000E+00 0.  1.
        -15    1    3    3    0    0  0.59041779540E+02  0.38835364743E+03 -0.18310128374E+03  0.43339424005E+03  0.00000000000E+00 0.  1.
         15    1    3    3    0    0 -0.23826544997E+02 -0.57078063410E+03  0.27824508867E+01  0.57128449877E+03  0.00000000000E+00 0. -1.
         15    1    4    4    0    0 -0.12871803786E+03 -0.13682678540E+03  0.32015794931E+02  0.19056472286E+03  0.00000000000E+00 0. -1.
        -16    1    1    2    0    0  0.23903128995E+03 -0.44435044148E+02  0.14793035344E+03  0.28459413239E+03  0.00000000000E+00 0.  1.
         16    1    3    3    0    0  0.35151363634E+02  0.61658277760E+03 -0.30816091959E+03  0.69019786464E+03  0.00000000000E+00 0. -1.
    9900018    1    1    2    0    0 -0.23472664167E+02 -0.59197162350E+02  0.81950710155E+01  0.11152402242E+03  0.91187600000E+02 0.  0.
<mgrwt>
<rscale>  0 0.25706446E+04</rscale>
<asrwt>0</asrwt>
<pdfrwt beam="1">  1        2 0.20930807E+00 0.25706446E+04</pdfrwt>
<pdfrwt beam="2">  1       -2 0.18681484E+00 0.25706446E+04</pdfrwt>
<totfact> 0.22020865E+00</totfact>
</mgrwt>
</event>
<event>
12    1  0.3437080E-014  0.2947392E+04  0.7818608E-02  0.8258915E-01
          1   -1    0    0  501    0  0.00000000000E+00  0.00000000000E+00  0.15608518489E+04  0.15608518489E+04  0.00000000000E+00 0. -1.
         -1   -1    0    0    0  501 -0.00000000000E+00 -0.00000000000E+00 -0.13914065771E+04  0.13914065771E+04  0.00000000000E+00 0.  1.
    9900016    2    1    2    0    0 -0.47985988816E+03 -0.39620963643E+03  0.18867008247E+03  0.23296693308E+04  0.22370773796E+04 0.  0.
         24    2    3    3    0    0  0.45379931418E+03 -0.88078429116E+02 -0.30268565215E+03  0.56203678893E+03  0.10283540668E+03 0.  0.
         23    2    3    3    0    0 -0.41497458082E+03  0.48342859608E+03  0.35476772634E+02  0.64459003381E+03  0.91272120918E+02 0.  0.
        -15    1    5    5    0    0 -0.37244884883E+02  0.50490791577E+02 -0.23536802089E+02  0.67011062792E+02  0.00000000000E+00 0.  1.
        -15    1    4    4    0    0  0.53904186088E+02 -0.25046716525E+02 -0.52206599866E+01  0.59667868884E+02  0.00000000000E+00 0.  1.
         15    1    5    5    0    0 -0.37772969594E+03  0.43293780451E+03  0.59013574724E+02  0.57757897102E+03  0.00000000000E+00 0. -1.
         15    1    3    3    0    0 -0.48426170081E+03 -0.78619485748E+03  0.44442661739E+03  0.10247569307E+04  0.00000000000E+00 0. -1.
        -16    1    1    2    0    0  0.47985988816E+03  0.39620963643E+03 -0.19224810683E+02  0.62258909532E+03  0.00000000000E+00 0.  1.
         16    1    4    4    0    0  0.39989512809E+03 -0.63031712592E+02 -0.29746499217E+03  0.50236892005E+03  0.00000000000E+00 0. -1.
    9900018    1    3    3    0    0 -0.34422920713E+02 -0.53649459196E+01  0.11452344600E+02  0.98285577303E+02  0.91187600000E+02 0.  0.
<mgrwt>
<rscale>  0 0.29473917E+04</rscale>
<asrwt>0</asrwt>
<pdfrwt beam="1">  1        1 0.24013105E+00 0.29473917E+04</pdfrwt>
<pdfrwt beam="2">  1       -1 0.21406255E+00 0.29473917E+04</pdfrwt>
<totfact> 0.61247894E-01</totfact>
</mgrwt>
</event>
<event>
12    1  0.3437080E-014  0.2476722E+04  0.7818608E-02  0.8411326E-01
         -2   -1    0    0    0  501 -0.00000000000E+00  0.00000000000E+00  0.85683608723E+03  0.85683608723E+03  0.00000000000E+00 0.  1.
          2   -1    0    0  501    0  0.00000000000E+00 -0.00000000000E+00 -0.17897680583E+04  0.17897680583E+04  0.00000000000E+00 0. -1.
    9900016    2    1    2    0    0 -0.37560004210E+02 -0.49005292780E+02 -0.10109745640E+04  0.23712568919E+04  0.21440562973E+04 0.  0.
         24    2    3    3    0    0  0.35636870483E+03  0.29001198410E+03  0.54646318050E+03  0.71728627713E+03  0.69079599151E+02 0.  0.
         23    2    3    3    0    0 -0.12753447107E+03 -0.14993315391E+03 -0.80567796991E+03  0.83429906212E+03  0.90514871175E+02 0.  0.
        -15    1    5    5    0    0 -0.73710373307E+02 -0.60589095799E+02 -0.54913183494E+03  0.55735987459E+03  0.00000000000E+00 0.  1.
        -15    1    4    4    0    0  0.31068800458E+03  0.27705721096E+03  0.50301510486E+03  0.65292566963E+03  0.00000000000E+00 0.  1.
         15    1    5    5    0    0 -0.53824097762E+02 -0.89344058112E+02 -0.25654613497E+03  0.27693918753E+03  0.00000000000E+00 0. -1.
         15    1    3    3    0    0 -0.26639423797E+03 -0.18908412297E+03 -0.75175977458E+03  0.81967155267E+03  0.00000000000E+00 0. -1.
        -16    1    1    2    0    0  0.63345843384E+02 -0.13432945539E+02  0.13399354616E+03  0.14882006018E+03  0.00000000000E+00 0.  1.
         16    1    4    4    0    0  0.45680700247E+02  0.12954773137E+02  0.43448075639E+02  0.64360607508E+02  0.00000000000E+00 0. -1.
    9900018    1    1    2    0    0 -0.25785839174E+02  0.62438238320E+02 -0.55950953186E+02  0.12652719337E+03  0.91187600000E+02 0.  0.
<mgrwt>
<rscale>  0 0.24767219E+04</rscale>
<asrwt>0</asrwt>
<pdfrwt beam="1">  1        2 0.27534893E+00 0.24767219E+04</pdfrwt>
<pdfrwt beam="2">  1       -2 0.13182094E+00 0.24767219E+04</pdfrwt>
<totfact> 0.32754655E+00</totfact>
</mgrwt>
</event>
<event>
12    1  0.3437080E-014  0.2593150E+04  0.7818608E-02  0.8370532E-01
          2   -1    0    0  501    0  0.00000000000E+00  0.00000000000E+00  0.15491176149E+04  0.15491176149E+04  0.00000000000E+00 0. -1.
         -2   -1    0    0    0  501 -0.00000000000E+00 -0.00000000000E+00 -0.10852027826E+04  0.10852027826E+04  0.00000000000E+00 0.  1.
    9900016    2    1    2    0    0 -0.50904645007E+02  0.31933563337E+03  0.54912333938E+03  0.22340982974E+04  0.21412828470E+04 0.  0.
         24    2    3    3    0    0 -0.40582815472E+03  0.61019243251E+03 -0.57614395133E+03  0.93412577205E+03  0.60148229298E+02 0.  0.
         23    2    3    3    0    0  0.12126951876E+03  0.85784418765E+02  0.52795066045E+03  0.55617150939E+03  0.92355754070E+02 0.  0.
        -15    1    4    4    0    0 -0.13179476975E+03  0.25101851468E+03 -0.22208975159E+03  0.36014443464E+03  0.00000000000E+00 0.  1.
        -15    1    5    5    0    0  0.66670291779E+01  0.51815952006E+02  0.11583089173E+03  0.12706745311E+03  0.00000000000E+00 0. -1.
         15    1    3    3    0    0  0.23365399096E+03 -0.37664121791E+03  0.59731663026E+03  0.74380101593E+03  0.00000000000E+00 0. -1.
         15    1    5    5    0    0  0.11460248958E+03  0.33968466760E+02  0.41211976872E+03  0.42910405629E+03  0.00000000000E+00 0.  1.
        -16    1    1    2    0    0  0.19033861769E+02 -0.26774038698E+03 -0.10629711246E+03  0.28869755599E+03  0.00000000000E+00 0.  1.
         16    1    4    4    0    0 -0.27403338497E+03  0.35917391783E+03 -0.35405419974E+03  0.57398133740E+03  0.00000000000E+00 0. -1.
    9900018    1    1    2    0    0  0.31870783238E+02 -0.51595246386E+02  0.21088605448E+02  0.11152454415E+03  0.91187600000E+02 0.  0.
<mgrwt>
<rscale>  0 0.25931500E+04</rscale>
<asrwt>0</asrwt>
<pdfrwt beam="1">  1        2 0.23832579E+00 0.25931500E+04</pdfrwt>
<pdfrwt beam="2">  1       -2 0.16695427E+00 0.25931500E+04</pdfrwt>
<totfact> 0.23626775E+00</totfact>
</mgrwt>
</event>
<event>
12    1  0.3437080E-014  0.2976967E+04  0.7818608E-02  0.8250339E-01
          2   -1    0    0  501    0  0.00000000000E+00  0.00000000000E+00  0.31740746401E+04  0.31740746401E+04  0.00000000000E+00 0. -1.
         -2   -1    0    0    0  501 -0.00000000000E+00 -0.00000000000E+00 -0.69802472304E+03  0.69802472304E+03  0.00000000000E+00 0.  1.
    9900016    2    1    2    0    0  0.24016986083E+03  0.37714624362E+03  0.23975629710E+04  0.32508424883E+04  0.21493598659E+04 0.  0.
        -24    2    3    3    0    0  0.32033179705E+03  0.10058837908E+04  0.42550781455E+03  0.11418512821E+04  0.91393596190E+02 0.  0.
         23    2    3    3    0    0 -0.14534504779E+03 -0.37911399624E+03  0.72847053407E+03  0.83892685030E+03  0.90974370498E+02 0.  0.
        -15    1    3    3    0    0  0.65183111565E+02 -0.24962355094E+03  0.12435846223E+04  0.12700643559E+04  0.00000000000E+00 0.  1.
        -15    1    5    5    0    0 -0.83025267837E+02 -0.28803783623E+03  0.59068124986E+03  0.66239212641E+03  0.00000000000E+00 0. -1.
         15    1    5    5    0    0 -0.62319779952E+02 -0.91076160004E+02  0.13778928422E+03  0.17653472389E+03  0.00000000000E+00 0.  1.
         15    1    4    4    0    0  0.21719407781E+03  0.69505230971E+03  0.33829864336E+03  0.80294268337E+03  0.00000000000E+00 0. -1.
        -16    1    4    4    0    0  0.10313771924E+03  0.31083148108E+03  0.87209171193E+02  0.33890859874E+03  0.00000000000E+00 0.  1.
         16    1    1    2    0    0 -0.25757808921E+03 -0.33952093776E+03 -0.80149883386E+02  0.43364149135E+03  0.00000000000E+00 0. -1.
    9900018    1    1    2    0    0  0.17408228381E+02 -0.37625305860E+02  0.15863682952E+03  0.18761538351E+03  0.91187600000E+02 0.  0.
<mgrwt>
<rscale>  0 0.29769666E+04</rscale>
<asrwt>0</asrwt>
<pdfrwt beam="1">  1        2 0.48831917E+00 0.29769666E+04</pdfrwt>
<pdfrwt beam="2">  1       -2 0.10738842E+00 0.29769666E+04</pdfrwt>
<totfact> 0.80458193E-01</totfact>
</mgrwt>
</event>
<event>
12    1  0.3897636E-014  0.3319918E+04  0.7818608E-02  0.8157846E-01
         -1   -1    0    0    0  501 -0.00000000000E+00  0.00000000000E+00  0.14661120261E+04  0.14661120261E+04  0.00000000000E+00 0.  1.
          1   -1    0    0  501    0  0.00000000000E+00 -0.00000000000E+00 -0.18794357439E+04  0.18794357439E+04  0.00000000000E+00 0. -1.
    9900016    2    1    2    0    0  0.58584036286E+03  0.42418142350E+03  0.19417105953E+02  0.22649907174E+04  0.21463147754E+04 0.  0.
        -24    2    3    3    0    0 -0.20997896121E+03 -0.60274993115E+03 -0.26493575594E+03  0.69712894162E+03  0.91646946614E+02 0.  0.
         23    2    3    3    0    0  0.85156634914E+02 -0.45832039699E+02 -0.16049327125E+03  0.20633658685E+03  0.86397156345E+02 0.  0.
        -15    1    5    5    0    0  0.43058337069E+02 -0.41826723897E+02 -0.26119109234E+02  0.65465281564E+02  0.00000000000E+00 0.  1.
        -15    1    3    3    0    0  0.71066268915E+03  0.10727633943E+04  0.44484613314E+03  0.13615251890E+04  0.00000000000E+00 0.  1.
         15    1    5    5    0    0  0.42098297845E+02 -0.40053158022E+01 -0.13437416202E+03  0.14087130529E+03  0.00000000000E+00 0. -1.
         15    1    4    4    0    0 -0.17766002760E+03 -0.38336152948E+03 -0.16011722568E+03  0.45184806478E+03  0.00000000000E+00 0. -1.
        -16    1    4    4    0    0 -0.32318933613E+02 -0.21938840167E+03 -0.10481853026E+03  0.24528087684E+03  0.00000000000E+00 0.  1.
         16    1    1    2    0    0 -0.67303592670E+03 -0.48643878805E+03 -0.43978939072E+03  0.93968865128E+03  0.00000000000E+00 0. -1.
    9900018    1    1    2    0    0  0.87195563846E+02  0.62257364550E+02  0.70485668745E+01  0.14086840130E+03  0.91187600000E+02 0.  0.
<mgrwt>
<rscale>  0 0.33199177E+04</rscale>
<asrwt>0</asrwt>
<pdfrwt beam="1">  1        1 0.28914396E+00 0.33199177E+04</pdfrwt>
<pdfrwt beam="2">  1       -1 0.22555570E+00 0.33199177E+04</pdfrwt>
<totfact> 0.30109868E-01</totfact>
</mgrwt>
</event>
<event>
12    1  0.3437080E-014  0.2603853E+04  0.7818608E-02  0.8366894E-01
         -2   -1    0    0    0  501 -0.00000000000E+00  0.00000000000E+00  0.10068656391E+04  0.10068656391E+04  0.00000000000E+00 0.  1.
          2   -1    0    0  501    0  0.00000000000E+00 -0.00000000000E+00 -0.16834547680E+04  0.16834547680E+04  0.00000000000E+00 0. -1.
    9900016    2    1    2    0    0 -0.15253861987E+03 -0.29799629486E+03 -0.60097829392E+03  0.22613014936E+04  0.21541215641E+04 0.  0.
        -24    2    3    3    0    0 -0.41947830719E+02  0.17935168831E+03 -0.11284172327E+04  0.11444108626E+04  0.49235380738E+02 0.  0.
         23    2    3    3    0    0  0.31441631313E+03 -0.30185462226E+03  0.48121330003E+03  0.65475886803E+03  0.84670562711E+02 0.  0.
        -15    1    3    3    0    0 -0.42500710227E+03 -0.17549336091E+03  0.46225638755E+02  0.46213176301E+03  0.00000000000E+00 0.  1.
        -15    1    5    5    0    0  0.60166639944E+02 -0.91377314782E+02  0.16275294873E+03  0.19610803283E+03  0.00000000000E+00 0. -1.
         15    1    4    4    0    0 -0.33005357437E+02  0.16340555579E+03 -0.90342205644E+03  0.91867412140E+03  0.00000000000E+00 0. -1.
         15    1    5    5    0    0  0.25424967318E+03 -0.21047730748E+03  0.31846035130E+03  0.45865083520E+03  0.00000000000E+00 0.  1.
        -16    1    4    4    0    0 -0.89424732815E+01  0.15946132516E+02 -0.22499517627E+03  0.22573674117E+03  0.00000000000E+00 0.  1.
         16    1    1    2    0    0  0.14571891956E+03  0.29173037525E+03 -0.84680650040E+02  0.33691457055E+03  0.00000000000E+00 0. -1.
    9900018    1    1    2    0    0  0.68197003060E+01  0.62659196170E+01  0.90698150242E+01  0.92104342999E+02  0.91187600000E+02 0.  0.
<mgrwt>
<rscale>  0 0.26038531E+04</rscale>
<asrwt>0</asrwt>
<pdfrwt beam="1">  1        2 0.25899304E+00 0.26038531E+04</pdfrwt>
<pdfrwt beam="2">  1       -2 0.15490241E+00 0.26038531E+04</pdfrwt>
<totfact> 0.24362501E+00</totfact>
</mgrwt>
</event>
<event>
12    1  0.3437080E-014  0.2337911E+04  0.7818608E-02  0.8463122E-01
         -1   -1    0    0    0  501 -0.00000000000E+00  0.00000000000E+00  0.11574301979E+04  0.11574301979E+04  0.00000000000E+00 0.  1.
          1   -1    0    0  501    0  0.00000000000E+00 -0.00000000000E+00 -0.11805953405E+04  0.11805953405E+04  0.00000000000E+00 0. -1.
    9900016    2    1    2    0    0 -0.32602274118E+02 -0.12350152469E+03 -0.67712836822E+01  0.21449169449E+04  0.21410995576E+04 0.  0.
        -24    2    3    3    0    0  0.32943289174E+03 -0.50550538447E+03  0.41759933346E+02  0.61391754995E+03  0.10530499620E+03 0.  0.
         23    2    3    3    0    0  0.38296803930E+03 -0.18039660149E+03 -0.34291791500E+03  0.55223099413E+03  0.90326748496E+02 0.  0.
        -15    1    5    5    0    0  0.13376592124E+03 -0.11131445388E+03 -0.14688948469E+03  0.22772955460E+03  0.00000000000E+00 0.  1.
        -15    1    3    3    0    0 -0.74500320516E+03  0.56240046127E+03  0.29438669797E+03  0.97876840083E+03  0.00000000000E+00 0.  1.
         15    1    5    5    0    0  0.24920211806E+03 -0.69082147615E+02 -0.19602843031E+03  0.32450143952E+03  0.00000000000E+00 0. -1.
         15    1    4    4    0    0  0.23614290796E+03 -0.31311422593E+03  0.69566647186E+02  0.39830077813E+03  0.00000000000E+00 0. -1.
        -16    1    4    4    0    0  0.93289983781E+02 -0.19239115854E+03 -0.27806713840E+02  0.21561677183E+03  0.00000000000E+00 0.  1.
         16    1    1    2    0    0  0.46675117717E+02  0.58916513435E+02  0.13993094549E+02  0.76456058389E+02  0.00000000000E+00 0. -1.
    9900018    1    1    2    0    0 -0.14072843599E+02  0.64585011255E+02 -0.30386953534E+02  0.11665253510E+03  0.91187600000E+02 0.  0.
<mgrwt>
<rscale>  0 0.23379108E+04</rscale>
<asrwt>0</asrwt>
<pdfrwt beam="1">  1        1 0.18163005E+00 0.23379108E+04</pdfrwt>
<pdfrwt beam="2">  1       -1 0.17806619E+00 0.23379108E+04</pdfrwt>
<totfact> 0.21379449E+00</totfact>
</mgrwt>
</event>
<event>
12    1  0.3437080E-014  0.2603047E+04  0.7818608E-02  0.8367167E-01
         -1   -1    0    0    0  501 -0.00000000000E+00  0.00000000000E+00  0.75554092811E+03  0.75554092811E+03  0.00000000000E+00 0.  1.
          1   -1    0    0  501    0  0.00000000000E+00 -0.00000000000E+00 -0.22420537652E+04  0.22420537652E+04  0.00000000000E+00 0. -1.
    9900016    2    1    2    0    0  0.47043391649E+02  0.23904335898E+03 -0.15515250506E+04  0.27454411764E+04  0.22518575582E+04 0.  0.
         24    2    3    3    0    0  0.31925254226E+03  0.56143520582E+03 -0.52738799305E+03  0.83652867442E+03  0.67159897539E+02 0.  0.
         23    2    3    3    0    0  0.36262956902E+03 -0.65291254106E+02 -0.95877991472E+03  0.10311449848E+04  0.90762892448E+02 0.  0.
        -15    1    4    4    0    0  0.61279210157E+02  0.14001426664E+03 -0.15612706463E+03  0.21848294388E+03  0.00000000000E+00 0.  1.
        -15    1    5    5    0    0  0.62461458490E+02 -0.33465223979E+02 -0.26966232788E+03  0.27881737049E+03  0.00000000000E+00 0. -1.
         15    1    3    3    0    0 -0.64194524022E+03 -0.28112086882E+03  0.78951304353E+02  0.70523467214E+03  0.00000000000E+00 0. -1.
         15    1    5    5    0    0  0.30016811053E+03 -0.31826030127E+02 -0.68911758684E+03  0.75232761432E+03  0.00000000000E+00 0.  1.
        -16    1    1    2    0    0 -0.47043391649E+02 -0.23904335898E+03  0.65012213513E+02  0.25215351689E+03  0.00000000000E+00 0.  1.
         16    1    4    4    0    0  0.25797333210E+03  0.42142093918E+03 -0.37126092842E+03  0.61804573054E+03  0.00000000000E+00 0. -1.
    9900018    1    3    3    0    0  0.71065205885E+01  0.24020276091E+02 -0.14430844718E+03  0.17253284504E+03  0.91187600000E+02 0.  0.
<mgrwt>
<rscale>  0 0.26030470E+04</rscale>
<asrwt>0</asrwt>
<pdfrwt beam="1">  1        1 0.34493135E+00 0.26030470E+04</pdfrwt>
<pdfrwt beam="2">  1       -1 0.11623707E+00 0.26030470E+04</pdfrwt>
<totfact> 0.12007314E+00</totfact>
</mgrwt>
</event>
<event>
11    1  0.3437080E-014  0.3093233E+04  0.7818608E-02  0.8217597E-01
          2   -1    0    0  501    0  0.00000000000E+00  0.00000000000E+00  0.98861371853E+03  0.98861371853E+03  0.00000000000E+00 0. -1.
         -2   -1    0    0    0  501 -0.00000000000E+00 -0.00000000000E+00 -0.24195727501E+04  0.24195727501E+04  0.00000000000E+00 0.  1.
    9900016    2    1    2    0    0 -0.22065365541E+03 -0.61737974160E+03 -0.83996704004E+03  0.24080462210E+04  0.21594666455E+04 0.  0.
         23    2    3    3    0    0 -0.21394442551E+03  0.74141430215E+02  0.40735322249E+02  0.24678617182E+03  0.89302179374E+02 0.  0.
        -15    1    4    4    0    0 -0.12714997692E+03  0.89047045732E+02  0.29477160442E+02  0.15800441757E+03  0.00000000000E+00 0. -1.
        -15    1    3    3    0    0 -0.11301849925E+03 -0.66227065274E+03 -0.44862643263E+03  0.80786216319E+03  0.00000000000E+00 0.  1.
         15    1    4    4    0    0 -0.86794448587E+02 -0.14905615517E+02  0.11258161807E+02  0.88781754245E+02  0.00000000000E+00 0.  1.
         15    1    3    3    0    0  0.21815412711E+03  0.58632393721E+03 -0.67377054297E+02  0.62921113306E+03  0.00000000000E+00 0. -1.
        -16    1    1    2    0    0  0.22852147101E+03  0.65878055659E+03 -0.56202540449E+03  0.89559278679E+03  0.00000000000E+00 0.  1.
         16    1    3    3    0    0 -0.11184485775E+03 -0.61557445628E+03 -0.36469887536E+03  0.72418675293E+03  0.00000000000E+00 0. -1.
    9900018    1    1    2    0    0 -0.78678156060E+01 -0.41400814997E+02 -0.28966587028E+02  0.10454746081E+03  0.91187600000E+02 0.  0.
<mgrwt>
<rscale>  0 0.30932331E+04</rscale>
<asrwt>0</asrwt>
<pdfrwt beam="1">  1        2 0.15209442E+00 0.30932331E+04</pdfrwt>
<pdfrwt beam="2">  1       -2 0.37224196E+00 0.30932331E+04</pdfrwt>
<totfact> 0.24431003E-01</totfact>
</mgrwt>
</event>
<event>
12    1  0.3437080E-014  0.2892488E+04  0.7818608E-02  0.8275116E-01
         -2   -1    0    0    0  501 -0.00000000000E+00  0.00000000000E+00  0.10619252030E+04  0.10619252030E+04  0.00000000000E+00 0.  1.
          2   -1    0    0  501    0  0.00000000000E+00 -0.00000000000E+00 -0.19696500769E+04  0.19696500769E+04  0.00000000000E+00 0. -1.
    9900016    2    1    2    0    0 -0.45249630927E+03 -0.14869281494E+03 -0.38726909240E+03  0.23260707203E+04  0.22436053982E+04 0.  0.
        -24    2    3    3    0    0 -0.34140672622E+03  0.17470847097E+03 -0.10904735538E+04  0.11595976880E+04  0.91938152599E+02 0.  0.
         23    2    3    3    0    0 -0.33579238273E+02  0.17666129636E+03  0.32016342437E+03  0.37845482478E+03  0.91578694172E+02 0.  0.
        -15    1    3    3    0    0 -0.39302050081E+02 -0.52510171120E+03  0.42603655618E+03  0.67733566675E+03  0.00000000000E+00 0.  1.
        -15    1    5    5    0    0 -0.52033801303E+02  0.80668001267E+02  0.21167160734E+03  0.23242141093E+03  0.00000000000E+00 0. -1.
         15    1    4    4    0    0 -0.12801916953E+03  0.32285147347E+02 -0.28161294257E+03  0.31102586376E+03  0.00000000000E+00 0. -1.
         15    1    5    5    0    0  0.18454563030E+02  0.95993295091E+02  0.10849181703E+03  0.14603341385E+03  0.00000000000E+00 0.  1.
        -16    1    4    4    0    0 -0.21338755669E+03  0.14242332362E+03 -0.80886061127E+03  0.84857182426E+03  0.00000000000E+00 0.  1.
         16    1    1    2    0    0  0.45249630927E+03  0.14869281494E+03 -0.52045578148E+03  0.70550455959E+03  0.00000000000E+00 0. -1.
    9900018    1    3    3    0    0 -0.38208294695E+02  0.25039128932E+02 -0.42995519104E+02  0.11068254071E+03  0.91187600000E+02 0.  0.
<mgrwt>
<rscale>  0 0.28924876E+04</rscale>
<asrwt>0</asrwt>
<pdfrwt beam="1">  1        2 0.30302309E+00 0.28924876E+04</pdfrwt>
<pdfrwt beam="2">  1       -2 0.16337311E+00 0.28924876E+04</pdfrwt>
<totfact> 0.14272969E+00</totfact>
</mgrwt>
</event>
