<event>
12    1  0.4326033E-016  0.1750616E+04  0.7818608E-02  0.8733012E-01
          2   -1    0    0  501    0  0.00000000000E+00  0.00000000000E+00  0.11668262961E+04  0.11668262961E+04  0.00000000000E+00 0. -1.
         -2   -1    0    0    0  501 -0.00000000000E+00 -0.00000000000E+00 -0.65662193480E+03  0.65662193480E+03  0.00000000000E+00 0.  1.
         23    2    1    2    0    0 -0.29474275986E+01 -0.17231913006E+03 -0.10164729184E+03  0.23119723192E+03  0.11583357974E+03 0.  0.
    9900016    2    1    2    0    0 -0.13805267169E+03  0.31773411864E+03 -0.10557275771E+03  0.84678179626E+03  0.76542817625E+03 0.  0.
         23    2    4    4    0    0 -0.28435937167E+03 -0.16855454437E+02 -0.24294242515E+03  0.39117241574E+03  0.11335995012E+03 0.  0.
        -15    1    5    5    0    0 -0.17337214446E+03 -0.53794166027E+02 -0.18999835080E+03  0.26277573343E+03  0.00000000000E+00 0.  1.
        -15    1    3    3    0    0  0.17098819723E+02 -0.61094996076E+02  0.18662155089E+02  0.66130508950E+02  0.00000000000E+00 0.  1.
         15    1    5    5    0    0 -0.11098722721E+03  0.36938711590E+02 -0.52944074352E+02  0.12839668231E+03  0.00000000000E+00 0. -1.
         15    1    3    3    0    0 -0.20046247322E+02 -0.11122413398E+03 -0.12030944693E+03  0.16506672297E+03  0.00000000000E+00 0. -1.
        -16    1    4    4    0    0  0.14359340160E+03  0.22561538827E+03  0.16008421906E+03  0.31168626149E+03  0.00000000000E+00 0.  1.
         16    1    1    2    0    0  0.14100009929E+03 -0.14541498858E+03  0.71742441086E+03  0.74546920272E+03  0.00000000000E+00 0. -1.
    9900018    1    4    4    0    0  0.27132983840E+01  0.10897418480E+03 -0.22714551617E+02  0.14392311903E+03  0.91187600000E+02 0.  0.
<mgrwt>
<rscale>  0 0.17506156E+04</rscale>
<asrwt>0</asrwt>
<pdfrwt beam="1">  1        2 0.17951174E+00 0.17506156E+04</pdfrwt>
<pdfrwt beam="2">  1       -2 0.10101876E+00 0.17506156E+04</pdfrwt>
<totfact> 0.15158057E+01</totfact>
</mgrwt>
</event>
<event>
12    1  0.4326033E-016  0.1206742E+04  0.7818608E-02  0.9713943E-01
          2   -1    0    0  501    0  0.00000000000E+00  0.00000000000E+00  0.50211042057E+03  0.50211042057E+03  0.00000000000E+00 0. -1.
         -2   -1    0    0    0  501 -0.00000000000E+00 -0.00000000000E+00 -0.90112472736E+03  0.90112472736E+03  0.00000000000E+00 0.  1.
         23    2    1    2    0    0  0.50601700081E+02  0.53409719866E+01 -0.30362385633E+02  0.14143878931E+03  0.12842896335E+03 0.  0.
    9900016    2    1    2    0    0 -0.25903852763E+03  0.41018421292E+02 -0.34083169287E+02  0.71652782357E+03  0.66593317220E+03 0.  0.
         23    2    4    4    0    0  0.17070220519E+03 -0.13585928488E+03  0.68847132721E+02  0.24054729093E+03  0.74337630758E+02 0.  0.
        -15    1    3    3    0    0  0.84025292409E+02 -0.15196722891E+02  0.90056292433E+01  0.85862049295E+02  0.00000000000E+00 0. -1.
        -15    1    5    5    0    0  0.15822959713E+02 -0.50207528136E+02  0.71952482375E+01  0.53131285820E+02  0.00000000000E+00 0. -1.
         15    1    5    5    0    0  0.15487924547E+03 -0.85651756744E+02  0.61651884484E+02  0.18741600511E+03  0.00000000000E+00 0.  1.
         15    1    3    3    0    0 -0.33423592328E+02  0.20537694878E+02 -0.39368014876E+02  0.55576740011E+02  0.00000000000E+00 0.  1.
        -16    1    1    2    0    0  0.27531641200E+03 -0.36587945272E+02 -0.33048121442E+03  0.43168928356E+03  0.00000000000E+00 0.  1.
         16    1    4    4    0    0 -0.42974073282E+03  0.17687770617E+03 -0.10293030201E+03  0.47598053264E+03  0.00000000000E+00 0. -1.
    9900018    1    1    2    0    0 -0.66879584455E+02 -0.97714480071E+01 -0.40875374433E+01  0.11357925149E+03  0.91187600000E+02 0.  0.
<mgrwt>
<rscale>  0 0.70192670E+03</rscale>
<asrwt>0</asrwt>
<pdfrwt beam="1">  1        2 0.77247757E-01 0.12067418E+04</pdfrwt>
<pdfrwt beam="2">  1       -2 0.13863457E+00 0.12067418E+04</pdfrwt>
<totfact> 0.22194850E+01</totfact>
</mgrwt>
</event>
<event>
11    1  0.4326033E-016  0.1231585E+04  0.7818608E-02  0.9550707E-01
          1   -1    0    0  501    0  0.00000000000E+00  0.00000000000E+00  0.46195504301E+03  0.46195504301E+03  0.00000000000E+00 0. -1.
         -1   -1    0    0    0  501 -0.00000000000E+00 -0.00000000000E+00 -0.13174250195E+04  0.13174250195E+04  0.00000000000E+00 0.  1.
         23    2    1    2    0    0  0.17827163722E+03  0.62519640428E+02  0.72020622741E+02  0.23761446804E+03  0.12483662623E+03 0.  0.
    9900016    2    1    2    0    0 -0.44250008738E+03 -0.10767839960E+03 -0.78235457939E+03  0.11223111808E+04  0.66340239187E+03 0.  0.
        -15    1    4    4    0    0 -0.43937694999E+02 -0.25030271117E+03 -0.25291995926E+03  0.35853936193E+03  0.00000000000E+00 0. -1.
        -15    1    3    3    0    0  0.42524178748E+02  0.55567829054E+02  0.73771901975E+02  0.10167783891E+03  0.00000000000E+00 0.  1.
         15    1    3    3    0    0  0.13574745847E+03  0.69518113744E+01 -0.17512792344E+01  0.13593662914E+03  0.00000000000E+00 0. -1.
         15    1    4    4    0    0 -0.17599234228E+03 -0.11476039452E+03 -0.20996738947E+03  0.29703460629E+03  0.00000000000E+00 0.  1.
        -16    1    4    4    0    0 -0.22257005010E+03  0.25738470608E+03 -0.31946723066E+03  0.46673721257E+03  0.00000000000E+00 0.  1.
         16    1    1    2    0    0  0.26867373592E+03  0.49601307272E+02 -0.33634448227E+02  0.27527648313E+03  0.00000000000E+00 0. -1.
    9900018    1    1    2    0    0 -0.44452857565E+01 -0.44425480999E+01 -0.11150157164E+03  0.14417793060E+03  0.91187600000E+02 0.  0.
<mgrwt>
<rscale>  0 0.80646434E+03</rscale>
<asrwt>0</asrwt>
<pdfrwt beam="1">  1        1 0.71070007E-01 0.12315853E+04</pdfrwt>
<pdfrwt beam="2">  1       -1 0.20268077E+00 0.12315853E+04</pdfrwt>
<totfact> 0.70175128E+00</totfact>
</mgrwt>
</event>
<event>
11    1  0.4326033E-016  0.1339456E+04  0.7818608E-02  0.8998849E-01
         -3   -1    0    0    0  501 -0.00000000000E+00  0.00000000000E+00  0.10509822871E+04  0.10509822871E+04  0.00000000000E+00 0.  1.
          3   -1    0    0  501    0  0.00000000000E+00 -0.00000000000E+00 -0.42677729368E+03  0.42677729368E+03  0.00000000000E+00 0. -1.
    9900016    2    1    2    0    0 -0.11949260798E+03 -0.12448012868E+03  0.15895533918E+02  0.68586304155E+03  0.66361258123E+03 0.  0.
         23    2    3    3    0    0 -0.55675044090E+02  0.12812622555E+03  0.26730999030E+03  0.32379691425E+03  0.11778697108E+03 0.  0.
        -15    1    1    2    0    0  0.19823319171E+02 -0.27979053910E+02  0.15210316514E+02  0.37511933690E+02  0.00000000000E+00 0.  1.
        -15    1    4    4    0    0 -0.92530114927E+02  0.86389000925E+02  0.17481993695E+03  0.21583996851E+03  0.00000000000E+00 0. -1.
         15    1    4    4    0    0  0.36855070837E+02  0.41737224626E+02  0.92490053347E+02  0.10795694574E+03  0.00000000000E+00 0.  1.
         15    1    1    2    0    0  0.58278287709E+02  0.89525843368E+02  0.50344225586E+03  0.51465069750E+03  0.00000000000E+00 0. -1.
        -16    1    1    2    0    0  0.55055049644E+02  0.10019721583E+03  0.80578826222E+02  0.13986953845E+03  0.00000000000E+00 0.  1.
         16    1    3    3    0    0 -0.63817563891E+02 -0.25260635423E+03 -0.25141445638E+03  0.36206612730E+03  0.00000000000E+00 0. -1.
    9900018    1    1    2    0    0 -0.13664048542E+02 -0.37263876600E+02  0.90780608508E+01  0.99864369544E+02  0.91187600000E+02 0.  0.
<mgrwt>
<rscale>  0 0.13394557E+04</rscale>
<asrwt>0</asrwt>
<pdfrwt beam="1">  1        3 0.65658046E-01 0.13394557E+04</pdfrwt>
<pdfrwt beam="2">  1       -3 0.16168958E+00 0.13394557E+04</pdfrwt>
<totfact> 0.15196840E+00</totfact>
</mgrwt>
</event>
<event>
11    1  0.4326033E-016  0.1097668E+04  0.7818608E-02  0.9676587E-01
          2   -1    0    0  501    0  0.00000000000E+00  0.00000000000E+00  0.92125775185E+03  0.92125775185E+03  0.00000000000E+00 0. -1.
         -2   -1    0    0    0  501 -0.00000000000E+00 -0.00000000000E+00 -0.60723310152E+03  0.60723310152E+03  0.00000000000E+00 0.  1.
         23    2    1    2    0    0 -0.17239356745E+03  0.93708178418E+02  0.37529327463E+03  0.42911463375E+03  0.69235555280E+02 0.  0.
    9900016    2    1    2    0    0 -0.11594222535E+03  0.71775296889E+02  0.10873301564E+02  0.67623906137E+03  0.66225882144E+03 0.  0.
        -15    1    4    4    0    0 -0.40815878529E+02  0.79146750335E+02  0.22272161675E+03  0.23986467559E+03  0.00000000000E+00 0.  1.
        -15    1    3    3    0    0 -0.94111032394E+02  0.54359739914E+02  0.27635880983E+03  0.29696137714E+03  0.00000000000E+00 0. -1.
         15    1    3    3    0    0 -0.78282535061E+02  0.39348438504E+02  0.98934464807E+02  0.13215325662E+03  0.00000000000E+00 0. -1.
         15    1    4    4    0    0 -0.81652711608E+02 -0.51318967913E+02  0.89617958586E+02  0.13165173862E+03  0.00000000000E+00 0.  1.
        -16    1    1    2    0    0  0.28861341168E+03 -0.13913279507E+03 -0.39811166392E+02  0.32286307474E+03  0.00000000000E+00 0.  1.
         16    1    4    4    0    0  0.65263647880E+01  0.43947514467E+02 -0.30146627378E+03  0.30472264716E+03  0.00000000000E+00 0. -1.
    9900018    1    1    2    0    0 -0.27761887129E+00 -0.26350680235E+02 -0.32330759467E+02  0.10027408350E+03  0.91187600000E+02 0.  0.
<mgrwt>
<rscale>  0 0.72428087E+03</rscale>
<asrwt>0</asrwt>
<pdfrwt beam="1">  1        2 0.14173196E+00 0.10976676E+04</pdfrwt>
<pdfrwt beam="2">  1       -2 0.93420477E-01 0.10976676E+04</pdfrwt>
<totfact> 0.27172281E+01</totfact>
</mgrwt>
</event>
<event>
11    1  0.4326034E-016  0.1105636E+04  0.7818608E-02  0.9199716E-01
          2   -1    0    0  501    0  0.00000000000E+00  0.00000000000E+00  0.55668203340E+03  0.55668203340E+03  0.00000000000E+00 0. -1.
         -2   -1    0    0    0  501 -0.00000000000E+00 -0.00000000000E+00 -0.54898044276E+03  0.54898044276E+03  0.00000000000E+00 0.  1.
         23    2    1    2    0    0  0.28589594714E+02 -0.62559516902E+02  0.69988238282E+02  0.11368951716E+03  0.57409883586E+02 0.  0.
    9900016    2    1    2    0    0 -0.37347560489E+02  0.52450014389E+02  0.10170090374E+03  0.67998347092E+03  0.66924480021E+03 0.  0.
        -15    1    4    4    0    0 -0.15313518315E+03  0.13075962962E+02 -0.20977289276E+03  0.26005005608E+03  0.00000000000E+00 0.  1.
        -15    1    3    3    0    0  0.16166913548E+02  0.30945375258E+01  0.34047808155E+02  0.37817965259E+02  0.00000000000E+00 0.  1.
         15    1    4    4    0    0  0.40303009636E+02  0.76250592260E+02 -0.10771917175E+02  0.86916739501E+02  0.00000000000E+00 0. -1.
         15    1    3    3    0    0  0.12422681166E+02 -0.65654054428E+02  0.35940430127E+02  0.75871551901E+02  0.00000000000E+00 0. -1.
        -16    1    1    2    0    0  0.12827626617E+02  0.47013521578E+01 -0.20943452940E+03  0.20987966272E+03  0.00000000000E+00 0.  1.
         16    1    4    4    0    0  0.75484613029E+02 -0.36876540833E+02  0.32224571368E+03  0.33301667534E+03  0.00000000000E+00 0. -1.
    9900018    1    1    2    0    0 -0.40696608419E+01  0.54081503550E+01  0.45446978018E+02  0.10210982536E+03  0.91187600000E+02 0.  0.
<mgrwt>
<rscale>  0 0.11056357E+04</rscale>
<asrwt>0</asrwt>
<pdfrwt beam="1">  1        2 0.85643390E-01 0.11056357E+04</pdfrwt>
<pdfrwt beam="2">  1       -2 0.84458529E-01 0.11056357E+04</pdfrwt>
<totfact> 0.65888014E+01</totfact>
</mgrwt>
</event>
<event>
12    1  0.4326033E-016  0.1565361E+04  0.7818608E-02  0.8842115E-01
         -1   -1    0    0    0  501 -0.00000000000E+00  0.00000000000E+00  0.44315478215E+03  0.44315478215E+03  0.00000000000E+00 0.  1.
          1   -1    0    0  501    0  0.00000000000E+00 -0.00000000000E+00 -0.13823366541E+04  0.13823366541E+04  0.00000000000E+00 0. -1.
         23    2    1    2    0    0 -0.82412214226E+02  0.36850351049E+03  0.58979883711E+02  0.38800305015E+03  0.66941242436E+02 0.  0.
    9900016    2    1    2    0    0  0.20583413226E+02 -0.30063803343E+03 -0.94843827859E+03  0.12033607448E+04  0.67656116485E+03 0.  0.
         23    2    4    4    0    0 -0.22078021320E+03 -0.25597969087E+03 -0.88017603117E+03  0.94858534931E+03  0.10409041460E+03 0.  0.
        -15    1    5    5    0    0 -0.14417144861E+03 -0.92107795223E+02 -0.38119102878E+03  0.41782275304E+03  0.00000000000E+00 0.  1.
        -15    1    3    3    0    0 -0.53735152851E+01  0.62783012415E+02  0.34344544792E+02  0.71764399749E+02  0.00000000000E+00 0. -1.
         15    1    5    5    0    0 -0.76608764585E+02 -0.16387189565E+03 -0.49898500239E+03  0.53076259627E+03  0.00000000000E+00 0. -1.
         15    1    3    3    0    0 -0.77038698941E+02  0.30572049808E+03  0.24635338919E+02  0.31623865040E+03  0.00000000000E+00 0.  1.
        -16    1    1    2    0    0  0.61655823461E+02 -0.18081473213E+02  0.56487908885E+02  0.85552697739E+02  0.00000000000E+00 0.  1.
         16    1    4    4    0    0  0.24136362643E+03 -0.44658342560E+02 -0.68262247426E+02  0.25477539549E+03  0.00000000000E+00 0. -1.
    9900018    1    1    2    0    0  0.17297753828E+00 -0.49784003849E+02 -0.10621138599E+03  0.14857494361E+03  0.91187600000E+02 0.  0.
<mgrwt>
<rscale>  0 0.15653614E+04</rscale>
<asrwt>0</asrwt>
<pdfrwt beam="1">  1        1 0.21266717E+00 0.15653614E+04</pdfrwt>
<pdfrwt beam="2">  1       -1 0.68177660E-01 0.15653614E+04</pdfrwt>
<totfact> 0.16568178E+01</totfact>
</mgrwt>
</event>
