<event>
10    1  0.2085520E-011  0.8389287E+03  0.7818608E-02  0.9505318E-01
         -2   -1    0    0    0  501 -0.00000000000E+00  0.00000000000E+00  0.27003850634E+03  0.27003850634E+03  0.00000000000E+00 0.  1.
          2   -1    0    0  501    0  0.00000000000E+00 -0.00000000000E+00 -0.65157496626E+03  0.65157496626E+03  0.00000000000E+00 0. -1.
    9900016    2    1    2    0    0  0.24025137656E+02  0.26024281060E+02 -0.20475406516E+03  0.74131792207E+03  0.71159930012E+03 0.  0.
        -15    1    3    3    0    0 -0.70046073699E+02  0.12154764998E+03 -0.12498475634E+02  0.14084209438E+03  0.00000000000E+00 0.  1.
        -15    1    3    3    0    0  0.57882976657E+02  0.21548758669E+00  0.36286275892E+02  0.68316756653E+02  0.00000000000E+00 0.  1.
         15    1    3    3    0    0  0.61264635138E+02  0.10814249036E+02 -0.22871075383E+03  0.23702091135E+03  0.00000000000E+00 0. -1.
         15    1    3    3    0    0  0.23303666137E+02  0.32449543941E+02  0.11140307144E+02  0.41474572941E+02  0.00000000000E+00 0. -1.
        -16    1    3    3    0    0  0.12565920037E+02 -0.13620231267E+03 -0.35344953413E+02  0.14127362831E+03  0.00000000000E+00 0.  1.
         16    1    1    2    0    0 -0.24025137656E+02 -0.26024281060E+02 -0.17678239476E+03  0.18029555053E+03  0.00000000000E+00 0. -1.
    9900018    1    3    3    0    0 -0.60945986614E+02 -0.28003368057E+01  0.24373534677E+02  0.11238995843E+03  0.91187600000E+02 0.  0.
<mgrwt>
<rscale>  0 0.83892868E+03</rscale>
<asrwt>0</asrwt>
<pdfrwt beam="1">  1        2 0.10024230E+00 0.83892868E+03</pdfrwt>
<pdfrwt beam="2">  1       -2 0.41544386E-01 0.83892868E+03</pdfrwt>
<totfact> 0.24728308E+02</totfact>
</mgrwt>
</event>
<event>
10    1  0.2085520E-011  0.1035040E+04  0.7818608E-02  0.9270927E-01
         -1   -1    0    0    0  501 -0.00000000000E+00  0.00000000000E+00  0.36262821522E+03  0.36262821522E+03  0.00000000000E+00 0.  1.
          1   -1    0    0  501    0  0.00000000000E+00 -0.00000000000E+00 -0.73857200874E+03  0.73857200874E+03  0.00000000000E+00 0. -1.
    9900016    2    1    2    0    0 -0.70997721437E+02 -0.91398091409E+02 -0.12781338950E+02  0.72004244040E+03  0.71056559569E+03 0.  0.
        -15    1    3    3    0    0 -0.93376984775E+01 -0.10769912188E+02 -0.18832757627E+02  0.23618983492E+02  0.00000000000E+00 0. -1.
        -15    1    3    3    0    0 -0.18866012758E+03 -0.21792761080E+03  0.37112192316E+02  0.29062415953E+03  0.00000000000E+00 0.  1.
         15    1    3    3    0    0  0.15148950815E+02 -0.27806631604E+02 -0.38941719241E+02  0.50191204104E+02  0.00000000000E+00 0.  1.
         15    1    3    3    0    0 -0.18792067216E+02 -0.45639059768E+02 -0.34478032841E+02  0.60206314580E+02  0.00000000000E+00 0. -1.
        -16    1    3    3    0    0  0.39870349440E+02  0.11743203671E+02 -0.25675827608E+02  0.48854843366E+02  0.00000000000E+00 0.  1.
         16    1    1    2    0    0  0.70997721437E+02  0.91398091409E+02 -0.36316245457E+03  0.38115778357E+03  0.00000000000E+00 0. -1.
    9900018    1    3    3    0    0  0.90772871577E+02  0.19900191928E+03  0.68034806050E+02  0.24654693532E+03  0.91187600000E+02 0.  0.
<mgrwt>
<rscale>  0 0.10350402E+04</rscale>
<asrwt>0</asrwt>
<pdfrwt beam="1">  1        1 0.11362646E+00 0.10350402E+04</pdfrwt>
<pdfrwt beam="2">  1       -1 0.55788956E-01 0.10350402E+04</pdfrwt>
<totfact> 0.81562931E+01</totfact>
</mgrwt>
</event>
<event>
10    1  0.2085520E-011  0.1044119E+04  0.7818608E-02  0.9261437E-01
         -2   -1    0    0    0  501 -0.00000000000E+00  0.00000000000E+00  0.23269821754E+03  0.23269821754E+03  0.00000000000E+00 0.  1.
          2   -1    0    0  501    0  0.00000000000E+00 -0.00000000000E+00 -0.11712431138E+04  0.11712431138E+04  0.00000000000E+00 0. -1.
    9900016    2    1    2    0    0  0.61598380009E+02 -0.24783842406E+03 -0.82197541519E+03  0.11232160407E+04  0.72163179399E+03 0.  0.
        -15    1    3    3    0    0  0.52109592819E+02  0.20768433021E+02 -0.13315420790E+03  0.14448799450E+03  0.00000000000E+00 0. -1.
        -15    1    3    3    0    0 -0.59295825150E+01 -0.86725954398E+01  0.68286732243E+01  0.12530149180E+02  0.00000000000E+00 0.  1.
         15    1    3    3    0    0 -0.14079166233E+03 -0.11549329601E+02 -0.55637100095E+02  0.15182610482E+03  0.00000000000E+00 0. -1.
         15    1    3    3    0    0 -0.11737911835E+01 -0.12898872105E+02  0.92727373119E+01  0.15929292030E+02  0.00000000000E+00 0.  1.
        -16    1    1    2    0    0 -0.61598380009E+02  0.24783842406E+03 -0.11656948104E+03  0.28072529058E+03  0.00000000000E+00 0.  1.
         16    1    3    3    0    0  0.15424992304E+03 -0.11182712142E+03 -0.76342333169E+02  0.20524740115E+03  0.00000000000E+00 0. -1.
    9900018    1    3    3    0    0  0.31339001815E+01 -0.12365893851E+03 -0.57294318456E+03  0.59319509905E+03  0.91187600000E+02 0.  0.
<mgrwt>
<rscale>  0 0.10441191E+04</rscale>
<asrwt>0</asrwt>
<pdfrwt beam="1">  1        2 0.18019124E+00 0.10441191E+04</pdfrwt>
<pdfrwt beam="2">  1       -2 0.35799727E-01 0.10441191E+04</pdfrwt>
<totfact> 0.14385128E+02</totfact>
</mgrwt>
</event>
<event>
10    1  0.2085520E-011  0.1197762E+04  0.7818608E-02  0.9114818E-01
          1   -1    0    0  501    0  0.00000000000E+00  0.00000000000E+00  0.18143032601E+03  0.18143032601E+03  0.00000000000E+00 0. -1.
         -1   -1    0    0    0  501 -0.00000000000E+00 -0.00000000000E+00 -0.19768375572E+04  0.19768375572E+04  0.00000000000E+00 0.  1.
    9900016    2    1    2    0    0 -0.15498117220E+03 -0.24197673607E+03 -0.74016431620E+03  0.10645999655E+04  0.70919529544E+03 0.  0.
        -15    1    3    3    0    0  0.16937839731E+02 -0.94267735772E+01  0.42847510630E+02  0.47028328081E+02  0.00000000000E+00 0. -1.
        -15    1    3    3    0    0 -0.98118251792E+02 -0.10665916379E+03 -0.55966426245E+03  0.57812408289E+03  0.00000000000E+00 0.  1.
         15    1    3    3    0    0  0.33070987253E+02 -0.26297383382E+02  0.18063546217E+02  0.45951433847E+02  0.00000000000E+00 0. -1.
         15    1    3    3    0    0  0.16493268982E+02 -0.17727138339E+01  0.30363314222E+02  0.34599151530E+02  0.00000000000E+00 0.  1.
        -16    1    1    2    0    0  0.15498117220E+03  0.24197673607E+03 -0.10552429149E+04  0.10936679176E+04  0.00000000000E+00 0.  1.
         16    1    3    3    0    0 -0.77910629800E+02 -0.40963846211E+02 -0.20815359347E+03  0.22600004736E+03  0.00000000000E+00 0. -1.
    9900018    1    3    3    0    0 -0.45454386575E+02 -0.56856855284E+02 -0.63620831351E+02  0.13289692181E+03  0.91187600000E+02 0.  0.
<mgrwt>
<rscale>  0 0.11977617E+04</rscale>
<asrwt>0</asrwt>
<pdfrwt beam="1">  1        1 0.27912360E-01 0.11977617E+04</pdfrwt>
<pdfrwt beam="2">  1       -1 0.30412884E+00 0.11977617E+04</pdfrwt>
<totfact> 0.52307111E+00</totfact>
</mgrwt>
</event>
<event>
10    1  0.2085520E-011  0.1000599E+04  0.7818608E-02  0.9307888E-01
          1   -1    0    0  501    0  0.00000000000E+00  0.00000000000E+00  0.38106232340E+03  0.38106232340E+03  0.00000000000E+00 0. -1.
         -1   -1    0    0    0  501 -0.00000000000E+00 -0.00000000000E+00 -0.65684717833E+03  0.65684717833E+03  0.00000000000E+00 0.  1.
    9900016    2    1    2    0    0  0.15519793902E+03 -0.16112033829E+03 -0.10881987162E+03  0.75876174634E+03  0.71682038166E+03 0.  0.
        -15    1    3    3    0    0  0.37765010489E+02  0.29726524666E+02 -0.19258575483E+03  0.19849215413E+03  0.00000000000E+00 0.  1.
        -15    1    3    3    0    0 -0.20976154144E+02 -0.21464416754E+02 -0.35859042999E+02  0.46761000781E+02  0.00000000000E+00 0.  1.
         15    1    3    3    0    0 -0.68631578250E+02 -0.85471640984E+02 -0.85087429510E+01  0.10994586692E+03  0.00000000000E+00 0. -1.
         15    1    3    3    0    0  0.13484697502E+02  0.86661774756E+01 -0.33532183610E+02  0.37166477321E+02  0.00000000000E+00 0. -1.
        -16    1    1    2    0    0 -0.15519793902E+03  0.16112033829E+03 -0.16696498331E+03  0.27914775539E+03  0.00000000000E+00 0.  1.
         16    1    3    3    0    0 -0.26553730355E+02 -0.11261800582E+02 -0.36137778235E+02  0.46237082130E+02  0.00000000000E+00 0. -1.
    9900018    1    3    3    0    0  0.22010969378E+03 -0.81315182112E+02  0.19780363101E+03  0.32015916506E+03  0.91187600000E+02 0.  0.
<mgrwt>
<rscale>  0 0.10005992E+04</rscale>
<asrwt>0</asrwt>
<pdfrwt beam="1">  1        1 0.58624973E-01 0.10005992E+04</pdfrwt>
<pdfrwt beam="2">  1       -1 0.10105341E+00 0.10005992E+04</pdfrwt>
<totfact> 0.59734736E+01</totfact>
</mgrwt>
</event>
<event>
10    1  0.2085520E-011  0.8796242E+03  0.7818608E-02  0.9451417E-01
          1   -1    0    0  501    0  0.00000000000E+00  0.00000000000E+00  0.11701811495E+04  0.11701811495E+04  0.00000000000E+00 0. -1.
         -1   -1    0    0    0  501 -0.00000000000E+00 -0.00000000000E+00 -0.16530318613E+03  0.16530318613E+03  0.00000000000E+00 0.  1.
    9900016    2    1    2    0    0 -0.34226815302E+02  0.14908892648E+03  0.87987767339E+03  0.11379392639E+04  0.70521065310E+03 0.  0.
        -15    1    3    3    0    0  0.27293819169E+02  0.18922917573E+02 -0.38778384023E+02  0.51056757063E+02  0.00000000000E+00 0.  1.
        -15    1    3    3    0    0  0.10547487870E+03 -0.36204760652E+02  0.48620338420E+03  0.49882809217E+03  0.00000000000E+00 0.  1.
         15    1    3    3    0    0  0.19950899601E+02  0.41546445468E+01  0.46548498513E+02  0.50813995907E+02  0.00000000000E+00 0. -1.
         15    1    3    3    0    0  0.11160612391E+02 -0.40933927144E+01 -0.22993080468E+02  0.25884297986E+02  0.00000000000E+00 0. -1.
        -16    1    1    2    0    0  0.34226815302E+02 -0.14908892648E+03  0.12500029001E+03  0.19754507178E+03  0.00000000000E+00 0.  1.
         16    1    3    3    0    0 -0.19013786997E+02  0.19511020486E+02  0.14916981516E+03  0.15163719125E+03  0.00000000000E+00 0. -1.
    9900018    1    3    3    0    0 -0.17909323817E+03  0.14679849724E+03  0.25972744002E+03  0.35971892950E+03  0.91187600000E+02 0.  0.
<mgrwt>
<rscale>  0 0.87962418E+03</rscale>
<asrwt>0</asrwt>
<pdfrwt beam="1">  1        1 0.18002786E+00 0.87962418E+03</pdfrwt>
<pdfrwt beam="2">  1       -1 0.25431260E-01 0.87962418E+03</pdfrwt>
<totfact> 0.15399670E+02</totfact>
</mgrwt>
</event>
<event>
10    1  0.2085520E-011  0.1015786E+04  0.7818608E-02  0.9291398E-01
          1   -1    0    0  501    0  0.00000000000E+00  0.00000000000E+00  0.81990092410E+03  0.81990092410E+03  0.00000000000E+00 0. -1.
         -1   -1    0    0    0  501 -0.00000000000E+00 -0.00000000000E+00 -0.31461783720E+03  0.31461783720E+03  0.00000000000E+00 0.  1.
    9900016    2    1    2    0    0 -0.81797505457E+02 -0.19135772173E+03  0.54812606036E+03  0.92204728100E+03  0.71163220892E+03 0.  0.
        -15    1    3    3    0    0  0.80743339890E+02 -0.11338021483E+03  0.63738184918E+02  0.15309185566E+03  0.00000000000E+00 0.  1.
        -15    1    3    3    0    0  0.15306743179E+02  0.62006351904E+01  0.24718867834E+02  0.29728213712E+02  0.00000000000E+00 0.  1.
         15    1    3    3    0    0  0.44124577502E+02 -0.10552172636E+01  0.86016213381E+02  0.96679267620E+02  0.00000000000E+00 0. -1.
         15    1    3    3    0    0 -0.49483246381E+01 -0.14169247531E+03  0.10274003350E+03  0.17509071352E+03  0.00000000000E+00 0. -1.
        -16    1    1    2    0    0  0.81797505457E+02  0.19135772173E+03 -0.42842973463E+02  0.21247148030E+03  0.00000000000E+00 0.  1.
         16    1    3    3    0    0 -0.49928912660E+02  0.10995693889E+03 -0.13359691819E+02  0.12149858474E+03  0.00000000000E+00 0. -1.
    9900018    1    3    3    0    0 -0.16709492873E+03 -0.51387388400E+02  0.28427245255E+03  0.34595864574E+03  0.91187600000E+02 0.  0.
<mgrwt>
<rscale>  0 0.10157863E+04</rscale>
<asrwt>0</asrwt>
<pdfrwt beam="1">  1        1 0.12613860E+00 0.10157863E+04</pdfrwt>
<pdfrwt beam="2">  1       -1 0.48402745E-01 0.10157863E+04</pdfrwt>
<totfact> 0.90829843E+01</totfact>
</mgrwt>
</event>
<event>
10    1  0.2085520E-011  0.1129980E+04  0.7818608E-02  0.9176455E-01
         -2   -1    0    0    0  501 -0.00000000000E+00  0.00000000000E+00  0.36156534869E+03  0.36156534869E+03  0.00000000000E+00 0.  1.
          2   -1    0    0  501    0  0.00000000000E+00 -0.00000000000E+00 -0.88286517315E+03  0.88286517315E+03  0.00000000000E+00 0. -1.
    9900016    2    1    2    0    0 -0.24688025582E+03 -0.26850617363E+02 -0.62510216856E+03  0.97527305305E+03  0.70621100990E+03 0.  0.
        -15    1    3    3    0    0  0.27850660188E+02  0.44012430967E+02 -0.37305754024E+02  0.64066158273E+02  0.00000000000E+00 0.  1.
        -15    1    3    3    0    0  0.25911718290E+02 -0.20230786983E+02 -0.85871050538E+01  0.33977054903E+02  0.00000000000E+00 0.  1.
         15    1    3    3    0    0 -0.30895208083E+03 -0.14248118022E+03 -0.44868629629E+03  0.56309117153E+03  0.00000000000E+00 0. -1.
         15    1    3    3    0    0 -0.14587548772E+02  0.62261386878E+02 -0.43786189485E+02  0.77501659755E+02  0.00000000000E+00 0. -1.
        -16    1    1    2    0    0  0.24688025582E+03  0.26850617363E+02  0.10380234411E+03  0.26915746879E+03  0.00000000000E+00 0.  1.
         16    1    3    3    0    0  0.49164205561E+02 -0.28520927765E+02  0.38849451886E+02  0.68846512917E+02  0.00000000000E+00 0. -1.
    9900018    1    3    3    0    0 -0.26267210252E+02  0.58108459757E+02 -0.12558627559E+03  0.16779049568E+03  0.91187600000E+02 0.  0.
<mgrwt>
<rscale>  0 0.11299796E+04</rscale>
<asrwt>0</asrwt>
<pdfrwt beam="1">  1        2 0.13582541E+00 0.11299796E+04</pdfrwt>
<pdfrwt beam="2">  1       -2 0.55625439E-01 0.11299796E+04</pdfrwt>
<totfact> 0.90658226E+01</totfact>
</mgrwt>
</event>
<event>
11    1  0.2085520E-011  0.8368194E+03  0.7818608E-02  0.9508200E-01
          2   -1    0    0  501    0  0.00000000000E+00  0.00000000000E+00  0.18077077295E+04  0.18077077295E+04  0.00000000000E+00 0. -1.
         -2   -1    0    0    0  501 -0.00000000000E+00 -0.00000000000E+00 -0.96844576312E+02  0.96844576312E+02  0.00000000000E+00 0.  1.
    9900016    2    1    2    0    0 -0.25314106261E+02 -0.95363472973E+02  0.16193564947E+04  0.17699846110E+04  0.70766875730E+03 0.  0.
         24    2    3    3    0    0  0.23015324786E+03  0.17111222991E+02  0.23355174676E+03  0.33506311519E+03  0.66764970534E+02 0.  0.
        -15    1    4    4    0    0  0.10938831193E+02 -0.82805652514E+01  0.14025005232E+02  0.19619545370E+02  0.00000000000E+00 0.  1.
        -15    1    4    4    0    0  0.29798516691E+02  0.89918196024E+01  0.11338521675E+02  0.33126522464E+02  0.00000000000E+00 0. -1.
         15    1    4    4    0    0  0.81828657053E+02  0.10177479693E+02  0.80617185236E+02  0.11531973276E+03  0.00000000000E+00 0.  1.
         15    1    3    3    0    0 -0.19046069396E+03 -0.16061579862E+03  0.98259482665E+03  0.10136889582E+04  0.00000000000E+00 0. -1.
        -16    1    1    2    0    0  0.25314106261E+02  0.95363472973E+02  0.91506658425E+02  0.13456769482E+03  0.00000000000E+00 0.  1.
         16    1    4    4    0    0  0.10758724292E+03  0.62224889475E+01  0.12757103462E+03  0.16699731460E+03  0.00000000000E+00 0. -1.
    9900018    1    3    3    0    0 -0.65006660164E+02  0.48141102653E+02  0.40320992131E+03  0.42123253753E+03  0.91187600000E+02 0.  0.
<mgrwt>
<rscale>  0 0.83681943E+03</rscale>
<asrwt>0</asrwt>
<pdfrwt beam="1">  1        2 0.27810886E+00 0.83681943E+03</pdfrwt>
<pdfrwt beam="2">  1       -2 0.14899167E-01 0.83681943E+03</pdfrwt>
<totfact> 0.30667200E+02</totfact>
</mgrwt>
</event>
<event>
10    1  0.2085520E-011  0.1485082E+04  0.7818608E-02  0.8894434E-01
          2   -1    0    0  501    0  0.00000000000E+00  0.00000000000E+00  0.12941914469E+04  0.12941914469E+04  0.00000000000E+00 0. -1.
         -2   -1    0    0    0  501 -0.00000000000E+00 -0.00000000000E+00 -0.42603216660E+03  0.42603216660E+03  0.00000000000E+00 0.  1.
    9900016    2    1    2    0    0 -0.20232060046E+03 -0.68950979910E+02  0.11489462613E+04  0.13673366746E+04  0.70981984151E+03 0.  0.
        -15    1    3    3    0    0  0.49555473360E+02  0.17906341232E+02  0.10536318726E+02  0.53734495518E+02  0.00000000000E+00 0. -1.
        -15    1    3    3    0    0 -0.11351916340E+02 -0.18309924133E+02  0.67707750028E+01  0.22582354184E+02  0.00000000000E+00 0.  1.
         15    1    3    3    0    0 -0.80361310525E+01 -0.10035940001E+02 -0.84759171486E+01  0.15399372244E+02  0.00000000000E+00 0.  1.
         15    1    3    3    0    0 -0.48513326585E+02 -0.22908365282E+03  0.33570354813E+03  0.40930396415E+03  0.00000000000E+00 0. -1.
        -16    1    1    2    0    0  0.20232060046E+03  0.68950979910E+02 -0.28078698095E+03  0.35288693893E+03  0.00000000000E+00 0.  1.
         16    1    3    3    0    0 -0.12207109789E+03  0.84558694349E+02  0.22008282562E+03  0.26549571722E+03  0.00000000000E+00 0. -1.
    9900018    1    3    3    0    0 -0.61903601943E+02  0.86013501466E+02  0.58432871093E+03  0.60082077126E+03  0.91187600000E+02 0.  0.
<mgrwt>
<rscale>  0 0.14850821E+04</rscale>
<asrwt>0</asrwt>
<pdfrwt beam="1">  1        2 0.19910637E+00 0.14850821E+04</pdfrwt>
<pdfrwt beam="2">  1       -2 0.65543411E-01 0.14850821E+04</pdfrwt>
<totfact> 0.34557480E+01</totfact>
</mgrwt>
</event>
<event>
10    1  0.2085520E-011  0.8422369E+03  0.7818608E-02  0.9500816E-01
         -1   -1    0    0    0  501 -0.00000000000E+00  0.00000000000E+00  0.43521404551E+03  0.43521404551E+03  0.00000000000E+00 0.  1.
          1   -1    0    0  501    0  0.00000000000E+00 -0.00000000000E+00 -0.40747938078E+03  0.40747938078E+03  0.00000000000E+00 0. -1.
    9900016    2    1    2    0    0  0.14129834185E+02 -0.10036785445E+03 -0.45243490977E+02  0.71779679051E+03  0.70916281668E+03 0.  0.
        -15    1    3    3    0    0  0.10874152763E+02  0.54767155100E+00  0.30801627316E+02  0.32669364667E+02  0.00000000000E+00 0.  1.
        -15    1    3    3    0    0 -0.10731538858E+02 -0.12925747860E+02  0.72034115381E+01  0.18279223774E+02  0.00000000000E+00 0.  1.
         15    1    3    3    0    0 -0.14042518613E+02 -0.37651128033E+02  0.12155497967E+03  0.12802504775E+03  0.00000000000E+00 0. -1.
         15    1    3    3    0    0  0.44358331058E+02 -0.13812460374E+02  0.77746051269E+02  0.90569829876E+02  0.00000000000E+00 0. -1.
        -16    1    1    2    0    0 -0.14129834185E+02  0.10036785445E+03  0.72978155703E+02  0.12489663579E+03  0.00000000000E+00 0.  1.
         16    1    3    3    0    0 -0.12830308518E+03  0.89272322882E+02 -0.13391000357E+03  0.20582302679E+03  0.00000000000E+00 0. -1.
    9900018    1    3    3    0    0  0.11197449301E+03 -0.12579851262E+03 -0.14863955719E+03  0.24243029765E+03  0.91187600000E+02 0.  0.
<mgrwt>
<rscale>  0 0.84223690E+03</rscale>
<asrwt>0</asrwt>
<pdfrwt beam="1">  1        1 0.62689136E-01 0.84223690E+03</pdfrwt>
<pdfrwt beam="2">  1       -1 0.66956007E-01 0.84223690E+03</pdfrwt>
<totfact> 0.13369055E+02</totfact>
</mgrwt>
</event>
<event>
11    1  0.2085520E-011  0.1183138E+04  0.7818608E-02  0.9127746E-01
          1   -1    0    0  501    0  0.00000000000E+00  0.00000000000E+00  0.15705696244E+04  0.15705696244E+04  0.00000000000E+00 0. -1.
         -1   -1    0    0    0  501 -0.00000000000E+00 -0.00000000000E+00 -0.22281956186E+03  0.22281956186E+03  0.00000000000E+00 0.  1.
    9900016    2    1    2    0    0  0.37407759159E+03  0.58067987032E+02  0.83343919491E+03  0.11547800693E+04  0.70398166262E+03 0.  0.
        -24    2    3    3    0    0  0.54836943688E+02 -0.43645368818E+02  0.68951894978E+03  0.70154073096E+03  0.10867845453E+03 0.  0.
        -15    1    3    3    0    0  0.23539453923E+03  0.15947374567E+03  0.53392992361E+02  0.28929790233E+03  0.00000000000E+00 0.  1.
        -15    1    4    4    0    0  0.20779806390E+02  0.18905232303E+01  0.78079951868E+02  0.80819881931E+02  0.00000000000E+00 0.  1.
         15    1    4    4    0    0 -0.46578956878E+01 -0.48097004601E+02  0.17921480449E+03  0.18561509635E+03  0.00000000000E+00 0. -1.
         15    1    4    4    0    0  0.52147523368E+01  0.12254404832E+02  0.74078804271E+02  0.75266415631E+02  0.00000000000E+00 0. -1.
        -16    1    4    4    0    0  0.33500280649E+02 -0.96932922797E+01  0.35814538915E+03  0.35983933705E+03  0.00000000000E+00 0.  1.
         16    1    1    2    0    0 -0.37407759159E+03 -0.58067987032E+02  0.51431086766E+03  0.63860911694E+03  0.00000000000E+00 0. -1.
    9900018    1    3    3    0    0  0.83846108670E+02 -0.57760389815E+02  0.90527252771E+02  0.16394143606E+03  0.91187600000E+02 0.  0.
<mgrwt>
<rscale>  0 0.11831376E+04</rscale>
<asrwt>0</asrwt>
<pdfrwt beam="1">  1        1 0.24162609E+00 0.11831376E+04</pdfrwt>
<pdfrwt beam="2">  1       -1 0.34279934E-01 0.11831376E+04</pdfrwt>
<totfact> 0.46658743E+01</totfact>
</mgrwt>
</event>
