<event>
11    1  0.3208002E-015  0.2051165E+04  0.7818608E-02  0.9311835E-01
          2   -1    0    0  501    0  0.00000000000E+00  0.00000000000E+00  0.24787841157E+04  0.24787841157E+04  0.00000000000E+00 0.  1.
         -2   -1    0    0    0  501 -0.00000000000E+00 -0.00000000000E+00 -0.50161417610E+03  0.50161417610E+03  0.00000000000E+00 0. -1.
         23    2    1    2    0    0 -0.61135002099E+03  0.20352942323E+03  0.18284790761E+04  0.19401804791E+04  0.76101812011E+02 0.  0.
        -24    2    1    2    0    0  0.92126098034E+02 -0.26859158808E+02  0.33133446274E+03  0.35055919523E+03  0.62454710071E+02 0.  0.
        -15    1    3    3    0    0 -0.21073382459E+02 -0.26952204795E+01  0.36298420560E+02  0.42058613825E+02  0.00000000000E+00 0.  1.
        -15    1    1    2    0    0  0.24294163728E+03  0.35277638255E+02 -0.64662409928E+02  0.25386291211E+03  0.00000000000E+00 0.  1.
         15    1    4    4    0    0  0.80177888957E+02 -0.38853126900E+02  0.31372738881E+03  0.32613330685E+03  0.00000000000E+00 0. -1.
         15    1    3    3    0    0 -0.59027663853E+03  0.20622464371E+03  0.17921806555E+04  0.18981218653E+04  0.00000000000E+00 0. -1.
        -16    1    4    4    0    0  0.11948209076E+02  0.11993968092E+02  0.17607073929E+02  0.24425888378E+02  0.00000000000E+00 0.  1.
         16    1    1    2    0    0  0.26421056279E+03 -0.14694131073E+03 -0.11396134785E+03  0.32308846945E+03  0.00000000000E+00 0. -1.
    9900018    1    1    2    0    0  0.12071722877E+02 -0.65006591943E+02 -0.40198414533E+01  0.11270723583E+03  0.91187600000E+02 0.  0.
<mgrwt>
<rscale>  0 0.99700578E+03</rscale>
<asrwt>0</asrwt>
<pdfrwt beam="1">  1        2 0.38135139E+00 0.20511653E+04</pdfrwt>
<pdfrwt beam="2">  1       -2 0.77171413E-01 0.20511653E+04</pdfrwt>
<totfact> 0.49447518E+00</totfact>
</mgrwt>
</event>
<event>
10    1  0.3208002E-015  0.3945828E+04  0.7818608E-02  0.8015565E-01
          2   -1    0    0  501    0  0.00000000000E+00  0.00000000000E+00  0.15409080384E+04  0.15409080384E+04  0.00000000000E+00 0. -1.
         -2   -1    0    0    0  501 -0.00000000000E+00 -0.00000000000E+00 -0.25260363021E+04  0.25260363021E+04  0.00000000000E+00 0.  1.
    9900016    2    1    2    0    0 -0.51655110479E+03  0.42090829030E+03 -0.84650593408E+03  0.23830299942E+04  0.21256224556E+04 0.  0.
        -15    1    3    3    0    0 -0.13761630537E+03 -0.11315256641E+03  0.80146159415E+02  0.19535904806E+03  0.00000000000E+00 0.  1.
        -15    1    1    2    0    0  0.76936066145E+03 -0.48916242544E+03  0.12151882000E+03  0.91976221354E+03  0.00000000000E+00 0.  1.
         15    1    1    2    0    0 -0.30639919615E+02 -0.46606820236E+02  0.21774496468E+03  0.22477515434E+03  0.00000000000E+00 0. -1.
         15    1    3    3    0    0  0.42576088060E+03  0.32833828880E+03 -0.51732686744E+03  0.74612696447E+03  0.00000000000E+00 0. -1.
        -16    1    1    2    0    0 -0.22216963704E+03  0.11486095538E+03 -0.47788611423E+03  0.53937697844E+03  0.00000000000E+00 0.  1.
         16    1    3    3    0    0 -0.38325992104E+03 -0.33183654861E+03  0.17676853999E+03  0.53688991311E+03  0.00000000000E+00 0. -1.
    9900018    1    3    3    0    0 -0.42143575898E+03  0.53755911652E+03 -0.58609376604E+03  0.90465406852E+03  0.91187600000E+02 0.  0.
<mgrwt>
<rscale>  0 0.39458280E+04</rscale>
<asrwt>0</asrwt>
<pdfrwt beam="1">  1        2 0.23706278E+00 0.39458280E+04</pdfrwt>
<pdfrwt beam="2">  1       -2 0.38862097E+00 0.39458280E+04</pdfrwt>
<totfact> 0.83931210E-02</totfact>
</mgrwt>
</event>
<event>
10    1  0.3208002E-015  0.2579031E+04  0.7818608E-02  0.9057663E-01
         -2   -1    0    0    0  501 -0.00000000000E+00  0.00000000000E+00  0.93363799917E+03  0.93363799917E+03  0.00000000000E+00 0.  1.
          2   -1    0    0  501    0  0.00000000000E+00 -0.00000000000E+00 -0.20737002097E+04  0.20737002097E+04  0.00000000000E+00 0. -1.
         23    2    1    2    0    0  0.84587714614E+02 -0.45101606738E+02 -0.22645157436E+03  0.27126701620E+03  0.11452616362E+03 0.  0.
        -15    1    3    3    0    0  0.81409779287E+02 -0.79061128205E+02 -0.19027888523E+03  0.22154969718E+03  0.00000000000E+00 0. -1.
        -15    1    1    2    0    0  0.44505760014E+03  0.14151856321E+03  0.23474545941E+03  0.52269417625E+03  0.00000000000E+00 0.  1.
         15    1    3    3    0    0  0.31779353269E+01  0.33959521467E+02 -0.36172689129E+02  0.49717319015E+02  0.00000000000E+00 0.  1.
         15    1    1    2    0    0  0.39063534710E+02 -0.36177224628E+03 -0.11354393567E+04  0.11923202802E+04  0.00000000000E+00 0. -1.
        -16    1    1    2    0    0 -0.53313927384E+03 -0.29440603619E+02 -0.19897958086E+03  0.56982199681E+03  0.00000000000E+00 0.  1.
         16    1    1    2    0    0  0.64708875305E+02  0.10555737804E+02  0.10874280799E+03  0.12697897634E+03  0.00000000000E+00 0. -1.
    9900018    1    1    2    0    0 -0.10027845093E+03  0.28424015563E+03  0.77320034014E+02  0.32425576301E+03  0.91187600000E+02 0.  0.
<mgrwt>
<rscale>  0 0.12651554E+04</rscale>
<asrwt>0</asrwt>
<pdfrwt beam="1">  1        2 0.31903080E+00 0.25790311E+04</pdfrwt>
<pdfrwt beam="2">  1       -2 0.14363662E+00 0.25790311E+04</pdfrwt>
<totfact> 0.17967638E+00</totfact>
</mgrwt>
</event>
<event>
10    1  0.3208002E-015  0.6594282E+03  0.7818608E-02  0.9789247E-01
          1   -1    0    0  501    0  0.00000000000E+00  0.00000000000E+00  0.34258344559E+03  0.34258344559E+03  0.00000000000E+00 0. -1.
         -1   -1    0    0    0  501 -0.00000000000E+00 -0.00000000000E+00 -0.31732822340E+03  0.31732822340E+03  0.00000000000E+00 0.  1.
         23    2    1    2    0    0 -0.22222663502E+02  0.11873727071E+03  0.27869044028E+02  0.14412266179E+03  0.73500148293E+02 0.  0.
        -15    1    1    2    0    0 -0.60981572719E+02  0.96880584014E+01  0.61926087313E+01  0.62056096314E+02  0.00000000000E+00 0.  1.
        -15    1    3    3    0    0 -0.81571258243E+00  0.11564545743E+03  0.35835375354E+02  0.12107316523E+03  0.00000000000E+00 0. -1.
         15    1    1    2    0    0 -0.10010260940E+03  0.77693294998E+02  0.17793449603E+02  0.12795853760E+03  0.00000000000E+00 0.  1.
         15    1    3    3    0    0 -0.21406950919E+02  0.30918132732E+01 -0.79663313267E+01  0.23049496562E+02  0.00000000000E+00 0. -1.
        -16    1    1    2    0    0  0.53286302656E+02 -0.16648797487E+02  0.13838322118E+02  0.57516186136E+02  0.00000000000E+00 0.  1.
         16    1    1    2    0    0  0.73912262524E+02 -0.60448450073E+02  0.12572408384E+01  0.95491456802E+02  0.00000000000E+00 0. -1.
    9900018    1    1    2    0    0  0.56108280445E+02 -0.12902137655E+03 -0.41695443123E+02  0.17276673034E+03  0.91187600000E+02 0.  0.
<mgrwt>
<rscale>  0 0.65942823E+03</rscale>
<asrwt>0</asrwt>
<pdfrwt beam="1">  1        1 0.52705146E-01 0.65942823E+03</pdfrwt>
<pdfrwt beam="2">  1       -1 0.48819727E-01 0.65942823E+03</pdfrwt>
<totfact> 0.31368087E+02</totfact>
</mgrwt>
</event>
<event>
11    1  0.3208002E-015  0.7245190E+03  0.7818608E-02  0.9676196E-01
         -2   -1    0    0    0  501 -0.00000000000E+00  0.00000000000E+00  0.10173328722E+03  0.10173328722E+03  0.00000000000E+00 0.  1.
          2   -1    0    0  501    0  0.00000000000E+00 -0.00000000000E+00 -0.12899606460E+04  0.12899606460E+04  0.00000000000E+00 0. -1.
         23    2    1    2    0    0  0.11214221941E+03 -0.55507997324E+02 -0.55978519548E+03  0.57837600047E+03  0.74177609162E+02 0.  0.
        -24    2    1    2    0    0 -0.30565749895E+02 -0.41230670206E+02 -0.49870447306E+03  0.50514452156E+03  0.61891865288E+02 0.  0.
        -15    1    3    3    0    0  0.22354395902E+02 -0.50356089654E+02 -0.23467600717E+03  0.24105659734E+03  0.00000000000E+00 0.  1.
        -15    1    1    2    0    0 -0.73156136697E+02 -0.19020610646E+02 -0.70618858358E+02  0.10344383559E+03  0.00000000000E+00 0.  1.
         15    1    3    3    0    0  0.89787823505E+02 -0.51519076699E+01 -0.32510918832E+03  0.33731940313E+03  0.00000000000E+00 0. -1.
         15    1    4    4    0    0 -0.26444618263E+02 -0.55954420932E+02 -0.33035207352E+03  0.33609925251E+03  0.00000000000E+00 0. -1.
        -16    1    4    4    0    0 -0.41211316327E+01  0.14723750726E+02 -0.16835239954E+03  0.16904526906E+03  0.00000000000E+00 0.  1.
         16    1    1    2    0    0  0.21340331110E+02  0.45652372275E+02  0.27768671908E+02  0.57538230471E+02  0.00000000000E+00 0. -1.
    9900018    1    1    2    0    0 -0.29760663925E+02  0.70106905902E+02 -0.86887503800E+02  0.14719134514E+03  0.91187600000E+02 0.  0.
<mgrwt>
<rscale>  0 0.72451898E+03</rscale>
<asrwt>0</asrwt>
<pdfrwt beam="1">  1        2 0.19845549E+00 0.72451898E+03</pdfrwt>
<pdfrwt beam="2">  1       -2 0.15651274E-01 0.72451898E+03</pdfrwt>
<totfact> 0.55165382E+02</totfact>
</mgrwt>
</event>
<event>
10    1  0.3208002E-015  0.8936143E+03  0.7818608E-02  0.9433599E-01
          1   -1    0    0  501    0  0.00000000000E+00  0.00000000000E+00  0.30085533314E+03  0.30085533314E+03  0.00000000000E+00 0. -1.
         -1   -1    0    0    0  501 -0.00000000000E+00 -0.00000000000E+00 -0.66356358906E+03  0.66356358906E+03  0.00000000000E+00 0.  1.
        -24    2    1    2    0    0 -0.53807818261E+02  0.83649689080E+02 -0.34665419270E+03  0.37241178499E+03  0.92891638464E+02 0.  0.
        -15    1    1    2    0    0 -0.47603419175E+02 -0.29855713297E+02 -0.60712508885E+01  0.56518220256E+02  0.00000000000E+00 0.  1.
        -15    1    1    2    0    0 -0.26663612431E+02  0.10868551990E+03  0.11567407948E+03  0.16094714390E+03  0.00000000000E+00 0. -1.
         15    1    3    3    0    0 -0.72476197468E+02  0.70273673620E+02 -0.32685462743E+03  0.34208936826E+03  0.00000000000E+00 0.  1.
         15    1    1    2    0    0  0.79064493796E+02  0.80031552850E+01  0.20476538716E+01  0.79494890151E+02  0.00000000000E+00 0. -1.
        -16    1    3    3    0    0  0.18668379207E+02  0.13376015460E+02 -0.19799565272E+02  0.30322416737E+02  0.00000000000E+00 0.  1.
         16    1    1    2    0    0  0.73501697681E+02 -0.13433043946E+03 -0.11831365544E+03  0.19350784891E+03  0.00000000000E+00 0. -1.
    9900018    1    1    2    0    0 -0.24491341610E+02 -0.36152211513E+02 -0.93908902465E+01  0.10153903399E+03  0.91187600000E+02 0.  0.
<mgrwt>
<rscale>  0 0.89361433E+03</rscale>
<asrwt>0</asrwt>
<pdfrwt beam="1">  1        1 0.46285437E-01 0.89361433E+03</pdfrwt>
<pdfrwt beam="2">  1       -1 0.10208670E+00 0.89361433E+03</pdfrwt>
<totfact> 0.80084933E+01</totfact>
</mgrwt>
</event>
<event>
10    1  0.3208002E-015  0.9612526E+03  0.7818608E-02  0.9352094E-01
         -1   -1    0    0    0  501 -0.00000000000E+00  0.00000000000E+00  0.44644838606E+03  0.44644838606E+03  0.00000000000E+00 0.  1.
          1   -1    0    0  501    0  0.00000000000E+00 -0.00000000000E+00 -0.51742067757E+03  0.51742067757E+03  0.00000000000E+00 0. -1.
         23    2    1    2    0    0 -0.11777660036E+03 -0.21515954405E+03 -0.54315533885E+02  0.28140562851E+03  0.12678325420E+03 0.  0.
        -15    1    1    2    0    0 -0.33040516141E+01  0.80059820979E+02 -0.84274869835E+02  0.11628733971E+03  0.00000000000E+00 0.  1.
        -15    1    3    3    0    0 -0.67885947158E+02 -0.15677917067E+03  0.23054768907E+02  0.17239411982E+03  0.00000000000E+00 0.  1.
         15    1    3    3    0    0 -0.49890653203E+02 -0.58380373377E+02 -0.77370302792E+02  0.10901150869E+03  0.00000000000E+00 0. -1.
         15    1    1    2    0    0  0.54713125194E+01  0.10288454719E+02 -0.39407833503E+00  0.11659453629E+02  0.00000000000E+00 0. -1.
        -16    1    1    2    0    0  0.25247822039E+02  0.51337324342E+02  0.98862932095E+02  0.11422282053E+03  0.00000000000E+00 0.  1.
         16    1    1    2    0    0  0.40338028717E+02  0.52468723748E+02 -0.21653908878E+03  0.22642725211E+03  0.00000000000E+00 0. -1.
    9900018    1    1    2    0    0  0.50023488700E+02  0.21005220260E+02  0.18568834723E+03  0.21386656913E+03  0.91187600000E+02 0.  0.
<mgrwt>
<rscale>  0 0.96125257E+03</rscale>
<asrwt>0</asrwt>
<pdfrwt beam="1">  1        1 0.79603181E-01 0.96125257E+03</pdfrwt>
<pdfrwt beam="2">  1       -1 0.68684367E-01 0.96125257E+03</pdfrwt>
<totfact> 0.91136230E+01</totfact>
</mgrwt>
</event>
<event>
11    1  0.3208002E-015  0.6400050E+03  0.7818608E-02  0.9825717E-01
          2   -1    0    0  501    0  0.00000000000E+00  0.00000000000E+00  0.12051857495E+04  0.12051857495E+04  0.00000000000E+00 0. -1.
         -2   -1    0    0    0  501 -0.00000000000E+00 -0.00000000000E+00 -0.84967482612E+02  0.84967482612E+02  0.00000000000E+00 0.  1.
         23    2    1    2    0    0 -0.57816296386E+02 -0.10200395652E+03  0.67323742090E+02  0.15601851238E+03  0.77857296914E+02 0.  0.
        -24    2    1    2    0    0 -0.24302177830E+02 -0.11056088181E+02  0.21046346486E+03  0.22309130380E+03  0.69007440574E+02 0.  0.
        -15    1    3    3    0    0 -0.62196420758E+02 -0.86166156388E+02  0.81810842168E+02  0.13411195009E+03  0.00000000000E+00 0.  1.
        -15    1    1    2    0    0  0.34997447750E+02  0.49275796314E+02  0.32838048588E+02  0.68784176134E+02  0.00000000000E+00 0.  1.
         15    1    4    4    0    0 -0.13054535506E+02  0.26475662415E+02  0.13354622316E+03  0.13676978949E+03  0.00000000000E+00 0. -1.
         15    1    3    3    0    0  0.43801243726E+01 -0.15837800131E+02 -0.14487100078E+02  0.21906562286E+02  0.00000000000E+00 0. -1.
        -16    1    4    4    0    0 -0.11247642323E+02 -0.37531750596E+02  0.76917241704E+02  0.86321514305E+02  0.00000000000E+00 0.  1.
         16    1    1    2    0    0 -0.16099095054E+02 -0.51033908612E+02  0.86246482653E+02  0.10149924364E+03  0.00000000000E+00 0. -1.
    9900018    1    1    2    0    0  0.63220121519E+02  0.11481815700E+03  0.72334652868E+03  0.74075999614E+03  0.91187600000E+02 0.  0.
<mgrwt>
<rscale>  0 0.64000500E+03</rscale>
<asrwt>0</asrwt>
<pdfrwt beam="1">  1        2 0.18541318E+00 0.64000500E+03</pdfrwt>
<pdfrwt beam="2">  1       -2 0.13071921E-01 0.64000500E+03</pdfrwt>
<totfact> 0.83956557E+02</totfact>
</mgrwt>
</event>
