<event>
12    1  0.6553714E-014  0.1748180E+04  0.7818608E-02  0.8734353E-01
          2   -1    0    0  501    0  0.00000000000E+00  0.00000000000E+00  0.56101517989E+03  0.56101517989E+03  0.00000000000E+00 0.  1.
         -2   -1    0    0    0  501 -0.00000000000E+00 -0.00000000000E+00 -0.13618758179E+04  0.13618758179E+04  0.00000000000E+00 0. -1.
         23    2    1    2    0    0  0.15944061986E+03  0.50353880721E+03 -0.12321804287E+03  0.54937716346E+03  0.87521083268E+02 0.  0.
    9900016    2    1    2    0    0 -0.25811231868E+03 -0.49328251494E+03 -0.78208067253E+03  0.12294700643E+04  0.76811252564E+03 0.  0.
         23    2    4    4    0    0  0.13608924354E+03 -0.10990973133E+03  0.58338344488E+02  0.20401904815E+03  0.87292487202E+02 0.  0.
        -15    1    5    5    0    0  0.68086761966E+02 -0.39356524558E+02 -0.16945673203E+02  0.80448113841E+02  0.00000000000E+00 0. -1.
        -15    1    3    3    0    0  0.11885664185E+03  0.46133223162E+03 -0.10276788058E+03  0.48735568789E+03  0.00000000000E+00 0.  1.
         15    1    3    3    0    0  0.40583978006E+02  0.42206575588E+02 -0.20450162286E+02  0.62021475564E+02  0.00000000000E+00 0. -1.
         15    1    5    5    0    0  0.68002481572E+02 -0.70553206773E+02  0.75284017691E+02  0.12357093431E+03  0.00000000000E+00 0.  1.
        -16    1    1    2    0    0  0.98671698816E+02 -0.10256292261E+02  0.10443807740E+03  0.14404377004E+03  0.00000000000E+00 0.  1.
         16    1    4    4    0    0 -0.30127581591E+03 -0.32609167195E+03 -0.66557635119E+03  0.80005923220E+03  0.00000000000E+00 0. -1.
    9900018    1    4    4    0    0 -0.92925746306E+02 -0.57281111662E+02 -0.17484266583E+03  0.22539178394E+03  0.91187600000E+02 0.  0.
<mgrwt>
<rscale>  0 0.17481796E+04</rscale>
<asrwt>0</asrwt>
<pdfrwt beam="1">  1        2 0.86310028E-01 0.17481796E+04</pdfrwt>
<pdfrwt beam="2">  1       -2 0.20951936E+00 0.17481796E+04</pdfrwt>
<totfact> 0.58734365E+00</totfact>
</mgrwt>
</event>
<event>
12    1  0.6553714E-014  0.3627597E+04  0.7818608E-02  0.8634647E-01
         -1   -1    0    0    0  501 -0.00000000000E+00  0.00000000000E+00  0.10574889850E+04  0.10574889850E+04  0.00000000000E+00 0.  1.
          1   -1    0    0  501    0  0.00000000000E+00 -0.00000000000E+00 -0.39254063702E+04  0.39254063702E+04  0.00000000000E+00 0. -1.
         23    2    1    2    0    0  0.28233278157E+03  0.24204967573E+02 -0.69088459166E+03  0.75218259727E+03  0.90329732882E+02 0.  0.
    9900016    2    1    2    0    0 -0.66259107167E+03  0.16070229067E+04 -0.15262570973E+04  0.24337681979E+04  0.75645050289E+03 0.  0.
         23    2    4    4    0    0  0.11938860533E+03  0.39902892724E+03 -0.23880481554E+03  0.48835758984E+03  0.89373775634E+02 0.  0.
        -15    1    3    3    0    0  0.18906617501E+03  0.39697423914E+02 -0.36648265548E+03  0.41428425117E+03  0.00000000000E+00 0. -1.
        -15    1    5    5    0    0  0.89189126254E+01  0.93205300850E+02 -0.18095480182E+02  0.95363627825E+02  0.00000000000E+00 0.  1.
         15    1    3    3    0    0  0.93266606557E+02 -0.15492456342E+02 -0.32440193618E+03  0.33789834610E+03  0.00000000000E+00 0.  1.
         15    1    5    5    0    0  0.11046969271E+03  0.30582362639E+03 -0.22070933536E+03  0.39299396201E+03  0.00000000000E+00 0. -1.
        -16    1    1    2    0    0  0.38025829011E+03 -0.16312278743E+04 -0.65077569632E+03  0.17969445601E+04  0.00000000000E+00 0.  1.
         16    1    4    4    0    0 -0.65290965307E+03  0.89560147692E+03 -0.98413875384E+03  0.14822017769E+04  0.00000000000E+00 0. -1.
    9900018    1    4    4    0    0 -0.12907002394E+03  0.31239250257E+03 -0.30331352786E+03  0.46320883122E+03  0.91187600000E+02 0.  0.
<mgrwt>
<rscale>  0 0.19411356E+04</rscale>
<asrwt>0</asrwt>
<pdfrwt beam="1">  1        1 0.60390869E+00 0.36275968E+04</pdfrwt>
<pdfrwt beam="2">  1       -1 0.16269061E+00 0.36275968E+04</pdfrwt>
<totfact> 0.24693295E-02</totfact>
</mgrwt>
</event>
<event>
12    1  0.6553714E-014  0.2020338E+04  0.7818608E-02  0.9340793E-01
         -1   -1    0    0    0  501 -0.00000000000E+00  0.00000000000E+00  0.10136159371E+04  0.10136159371E+04  0.00000000000E+00 0.  1.
          1   -1    0    0  501    0  0.00000000000E+00 -0.00000000000E+00 -0.11251436164E+04  0.11251436164E+04  0.00000000000E+00 0. -1.
         23    2    1    2    0    0 -0.25034397160E+02  0.53700975417E+02  0.34274260775E+02  0.11316744745E+03  0.90120088824E+02 0.  0.
    9900016    2    1    2    0    0  0.19433428990E+03 -0.37188702270E+02 -0.93162183751E+03  0.12215721933E+04  0.76496441715E+03 0.  0.
         23    2    4    4    0    0 -0.17347343855E+03  0.93752877576E+02 -0.35970216036E+02  0.22025747507E+03  0.91306423342E+02 0.  0.
        -15    1    5    5    0    0 -0.98127163135E+02  0.92118241374E+02 -0.50038485612E+02  0.14359164523E+03  0.00000000000E+00 0.  1.
        -15    1    3    3    0    0 -0.74493342182E+01  0.17436984629E+02  0.61614593815E+02  0.64466263923E+02  0.00000000000E+00 0. -1.
         15    1    3    3    0    0 -0.17585062942E+02  0.36263990788E+02 -0.27340333040E+02  0.48701183530E+02  0.00000000000E+00 0.  1.
         15    1    5    5    0    0 -0.75346275418E+02  0.16346362022E+01  0.14068269576E+02  0.76665829831E+02  0.00000000000E+00 0. -1.
        -16    1    1    2    0    0 -0.16929989274E+03 -0.16512273146E+02  0.78581989743E+03  0.80401991271E+03  0.00000000000E+00 0.  1.
         16    1    4    4    0    0  0.27977785678E+03 -0.99721783594E+02 -0.74472599411E+03  0.80177109550E+03  0.00000000000E+00 0. -1.
    9900018    1    4    4    0    0  0.88029871682E+02 -0.31219796253E+02 -0.15092562737E+03  0.19954362274E+03  0.91187600000E+02 0.  0.
<mgrwt>
<rscale>  0 0.97112579E+03</rscale>
<asrwt>0</asrwt>
<pdfrwt beam="1">  1        1 0.17309902E+00 0.20203379E+04</pdfrwt>
<pdfrwt beam="2">  1       -1 0.15594091E+00 0.20203379E+04</pdfrwt>
<totfact> 0.35159642E+00</totfact>
</mgrwt>
</event>
<event>
12    1  0.6553714E-014  0.1408455E+04  0.7818608E-02  0.9332928E-01
          2   -1    0    0  501    0  0.00000000000E+00  0.00000000000E+00  0.52594786766E+03  0.52594786766E+03  0.00000000000E+00 0. -1.
         -2   -1    0    0    0  501 -0.00000000000E+00 -0.00000000000E+00 -0.14581507043E+04  0.14581507043E+04  0.00000000000E+00 0.  1.
         23    2    1    2    0    0  0.14214699072E+03  0.28036948350E+03 -0.28454997070E+03  0.43387293448E+03  0.92001213035E+02 0.  0.
    9900016    2    1    2    0    0 -0.73485493379E+02 -0.14865847430E+03 -0.78303083320E+03  0.10419490367E+04  0.66709898037E+03 0.  0.
         23    2    4    4    0    0 -0.28806346118E+03 -0.66365638432E+01 -0.71412682604E+03  0.77556268284E+03  0.92172391188E+02 0.  0.
        -15    1    3    3    0    0  0.90349158773E+02  0.24578492631E+03 -0.20341127886E+03  0.33158611078E+03  0.00000000000E+00 0.  1.
        -15    1    5    5    0    0 -0.18430566056E+03  0.11773091881E+02 -0.55311529005E+03  0.58313266612E+03  0.00000000000E+00 0. -1.
         15    1    3    3    0    0  0.51797831945E+02  0.34584557194E+02 -0.81138691836E+02  0.10228682370E+03  0.00000000000E+00 0. -1.
         15    1    5    5    0    0 -0.10375780062E+03 -0.18409655724E+02 -0.16101153599E+03  0.19243001672E+03  0.00000000000E+00 0.  1.
        -16    1    4    4    0    0  0.21457796781E+03 -0.14202191045E+03 -0.68904007159E+02  0.26638635385E+03  0.00000000000E+00 0.  1.
         16    1    1    2    0    0 -0.53230568220E+02 -0.57812972744E+02  0.29740364321E+03  0.30761137853E+03  0.00000000000E+00 0. -1.
    9900018    1    1    2    0    0 -0.15430929120E+02 -0.73898036461E+02 -0.16202567599E+03  0.20066522229E+03  0.91187600000E+02 0.  0.
<mgrwt>
<rscale>  0 0.97807141E+03</rscale>
<asrwt>0</asrwt>
<pdfrwt beam="1">  1        2 0.80915057E-01 0.14084549E+04</pdfrwt>
<pdfrwt beam="2">  1       -2 0.22433088E+00 0.14084549E+04</pdfrwt>
<totfact> 0.52033830E+00</totfact>
</mgrwt>
</event>
<event>
12    1  0.6553714E-014  0.1988411E+04  0.7818608E-02  0.8612058E-01
         -1   -1    0    0    0  501 -0.00000000000E+00  0.00000000000E+00  0.12708044288E+04  0.12708044288E+04  0.00000000000E+00 0.  1.
          1   -1    0    0  501    0  0.00000000000E+00 -0.00000000000E+00 -0.77781003663E+03  0.77781003663E+03  0.00000000000E+00 0. -1.
         23    2    1    2    0    0 -0.39626155305E+02 -0.20026144406E+03 -0.10811889300E+02  0.22355260550E+03  0.90465420546E+02 0.  0.
    9900016    2    1    2    0    0 -0.84520133479E+02 -0.21829753131E+02  0.90650111759E+03  0.11224170852E+04  0.65609118714E+03 0.  0.
         23    2    4    4    0    0 -0.35399802136E+03  0.45483806327E+02  0.63352882631E+03  0.73297733484E+03  0.92269300746E+02 0.  0.
        -15    1    5    5    0    0 -0.11883225957E+03 -0.28198380653E+02  0.21675969310E+03  0.24879915422E+03  0.00000000000E+00 0.  1.
        -15    1    3    3    0    0 -0.27092242929E+02 -0.50268926737E+02  0.34060168996E+02  0.66490974833E+02  0.00000000000E+00 0.  1.
         15    1    3    3    0    0 -0.12533912376E+02 -0.14999251732E+03 -0.44872058296E+02  0.15706163066E+03  0.00000000000E+00 0. -1.
         15    1    5    5    0    0 -0.23516576179E+03  0.73682186980E+02  0.41676913321E+03  0.48417818062E+03  0.00000000000E+00 0. -1.
        -16    1    4    4    0    0  0.26947788788E+03 -0.67313559458E+02  0.27297229128E+03  0.38943975035E+03  0.00000000000E+00 0.  1.
         16    1    1    2    0    0  0.89661276241E+02  0.17423397875E+03 -0.51220896228E+03  0.54841101816E+03  0.00000000000E+00 0. -1.
    9900018    1    1    2    0    0  0.34485012543E+02  0.47857218441E+02  0.10951412616E+03  0.15423375658E+03  0.91187600000E+02 0.  0.
<mgrwt>
<rscale>  0 0.19884109E+04</rscale>
<asrwt>0</asrwt>
<pdfrwt beam="1">  1        1 0.11966308E+00 0.19884109E+04</pdfrwt>
<pdfrwt beam="2">  1       -1 0.19550837E+00 0.19884109E+04</pdfrwt>
<totfact> 0.34719647E+00</totfact>
</mgrwt>
</event>
<event>
12    1  0.6553714E-014  0.9584688E+03  0.7818608E-02  0.9933888E-01
         -2   -1    0    0    0  501 -0.00000000000E+00  0.00000000000E+00  0.97007862951E+03  0.97007862951E+03  0.00000000000E+00 0.  1.
          2   -1    0    0  501    0  0.00000000000E+00 -0.00000000000E+00 -0.33127411660E+03  0.33127411660E+03  0.00000000000E+00 0. -1.
         23    2    1    2    0    0  0.78420945320E+02 -0.57216830812E+02  0.21464445897E+03  0.25322381958E+03  0.92878677005E+02 0.  0.
    9900016    2    1    2    0    0 -0.48117425993E+02 -0.58515050524E+00  0.14230680917E+03  0.75881832543E+03  0.74379996907E+03 0.  0.
         23    2    4    4    0    0  0.19616648370E+03  0.23821557978E+03  0.77097363838E+02  0.33160932829E+03  0.93769884941E+02 0.  0.
        -15    1    3    3    0    0  0.80064368290E+02 -0.79014008706E+02  0.18040209317E+03  0.21259922827E+03  0.00000000000E+00 0.  1.
        -15    1    5    5    0    0  0.14493055563E+02  0.25894142532E+02  0.39872380426E+02  0.49702736321E+02  0.00000000000E+00 0. -1.
         15    1    3    3    0    0 -0.16434229708E+01  0.21797177895E+02  0.34242365799E+02  0.40624591306E+02  0.00000000000E+00 0. -1.
         15    1    5    5    0    0  0.18167342814E+03  0.21232143725E+03  0.37224983413E+02  0.28190659197E+03  0.00000000000E+00 0.  1.
        -16    1    1    2    0    0 -0.30303519327E+02  0.57801981317E+02  0.28185324477E+03  0.28931060111E+03  0.00000000000E+00 0.  1.
         16    1    4    4    0    0 -0.23373169307E+03 -0.23217909969E+03  0.40613256448E+02  0.33194438582E+03  0.00000000000E+00 0. -1.
    9900018    1    4    4    0    0 -0.10552216621E+02 -0.66216305937E+01  0.24596188889E+02  0.95264611315E+02  0.91187600000E+02 0.  0.
<mgrwt>
<rscale>  0 0.58646665E+03</rscale>
<asrwt>0</asrwt>
<pdfrwt beam="1">  1        2 0.50965249E-01 0.95846883E+03</pdfrwt>
<pdfrwt beam="2">  1       -2 0.14924287E+00 0.95846883E+03</pdfrwt>
<totfact> 0.29809088E+01</totfact>
</mgrwt>
</event>
<event>
12    1  0.6553714E-014  0.1435948E+04  0.7818608E-02  0.9340690E-01
         -1   -1    0    0    0  501 -0.00000000000E+00  0.00000000000E+00  0.72376228897E+03  0.72376228897E+03  0.00000000000E+00 0.  1.
          1   -1    0    0  501    0  0.00000000000E+00 -0.00000000000E+00 -0.14839847417E+04  0.14839847417E+04  0.00000000000E+00 0. -1.
         23    2    1    2    0    0 -0.17862001387E+03 -0.22623374288E+03 -0.70993908790E+03  0.77091844345E+03  0.84940697828E+02 0.  0.
    9900016    2    1    2    0    0 -0.10971677295E+03  0.12862894752E+03  0.34179752193E+03  0.77749555313E+03  0.67756225746E+03 0.  0.
         23    2    4    4    0    0  0.19044826532E+03  0.15903449524E+03 -0.63960211101E+02  0.27186437782E+03  0.90867039589E+02 0.  0.
        -15    1    3    3    0    0 -0.13759585311E+03 -0.19913892266E+03 -0.50286374031E+03  0.55808679489E+03  0.00000000000E+00 0.  1.
        -15    1    5    5    0    0  0.72029438199E+02  0.74026589040E+02 -0.71945419054E+02  0.12587421966E+03  0.00000000000E+00 0.  1.
         15    1    5    5    0    0  0.11841882713E+03  0.85007906198E+02  0.79852079538E+01  0.14599015816E+03  0.00000000000E+00 0. -1.
         15    1    3    3    0    0 -0.41024160758E+02 -0.27094820222E+02 -0.20707534759E+03  0.21283164856E+03  0.00000000000E+00 0. -1.
        -16    1    4    4    0    0 -0.30016503828E+03 -0.30405547718E+02  0.40575773303E+03  0.50563117531E+03  0.00000000000E+00 0.  1.
         16    1    1    2    0    0  0.30008081108E+03  0.70917658950E+02 -0.45143482924E+03  0.54669114917E+03  0.00000000000E+00 0. -1.
    9900018    1    1    2    0    0 -0.11744024259E+02  0.26687136412E+02  0.59353942487E+02  0.11264188492E+03  0.91187600000E+02 0.  0.
<mgrwt>
<rscale>  0 0.97121672E+03</rscale>
<asrwt>0</asrwt>
<pdfrwt beam="1">  1        1 0.22830535E+00 0.14359485E+04</pdfrwt>
<pdfrwt beam="2">  1       -1 0.11134804E+00 0.14359485E+04</pdfrwt>
<totfact> 0.47896866E+00</totfact>
</mgrwt>
</event>
<event>
12    1  0.6553714E-014  0.1455798E+04  0.7818608E-02  0.9319545E-01
          1   -1    0    0  501    0  0.00000000000E+00  0.00000000000E+00  0.71318301466E+03  0.71318301466E+03  0.00000000000E+00 0. -1.
         -1   -1    0    0    0  501 -0.00000000000E+00 -0.00000000000E+00 -0.12924468631E+04  0.12924468631E+04  0.00000000000E+00 0.  1.
         23    2    1    2    0    0 -0.18811274089E+03 -0.23172561707E+03  0.18419968239E+03  0.36178525755E+03  0.88746181274E+02 0.  0.
    9900016    2    1    2    0    0  0.44978093306E+03  0.47104870041E+03 -0.80551377782E+03  0.12867535894E+04  0.76334303404E+03 0.  0.
         23    2    4    4    0    0 -0.64275819121E+01  0.41383390115E+03 -0.20688540970E+03  0.47131976892E+03  0.89671290154E+02 0.  0.
        -15    1    5    5    0    0 -0.39526852719E+02  0.20193320031E+03 -0.13047024144E+03  0.24364292187E+03  0.00000000000E+00 0.  1.
        -15    1    3    3    0    0 -0.71863372338E+02 -0.10480495565E+03  0.29702540852E+02  0.13050158599E+03  0.00000000000E+00 0.  1.
         15    1    3    3    0    0 -0.11624936855E+03 -0.12692066143E+03  0.15449714154E+03  0.23128367156E+03  0.00000000000E+00 0. -1.
         15    1    5    5    0    0  0.33099270806E+02  0.21190070084E+03 -0.76415168252E+02  0.22767684705E+03  0.00000000000E+00 0. -1.
        -16    1    4    4    0    0  0.35554784580E+03 -0.75339457455E+02 -0.40899093286E+03  0.54714156090E+03  0.00000000000E+00 0.  1.
         16    1    1    2    0    0 -0.26166819217E+03 -0.23932308333E+03  0.42050247021E+02  0.35709103081E+03  0.00000000000E+00 0. -1.
    9900018    1    4    4    0    0  0.10066066917E+03  0.13255425671E+03 -0.18963743527E+03  0.26829225956E+03  0.91187600000E+02 0.  0.
<mgrwt>
<rscale>  0 0.99003248E+03</rscale>
<asrwt>0</asrwt>
<pdfrwt beam="1">  1        1 0.10972047E+00 0.14557983E+04</pdfrwt>
<pdfrwt beam="2">  1       -1 0.19883798E+00 0.14557983E+04</pdfrwt>
<totfact> 0.39081302E+00</totfact>
</mgrwt>
</event>
<event>
12    1  0.6553714E-014  0.1439400E+04  0.7818608E-02  0.9596219E-01
          1   -1    0    0  501    0  0.00000000000E+00  0.00000000000E+00  0.16162295534E+04  0.16162295534E+04  0.00000000000E+00 0. -1.
         -1   -1    0    0    0  501 -0.00000000000E+00 -0.00000000000E+00 -0.45795027500E+03  0.45795027500E+03  0.00000000000E+00 0.  1.
         23    2    1    2    0    0  0.78943293167E+02 -0.66905881506E+01  0.45741911324E+03  0.47321878265E+03  0.91798494467E+02 0.  0.
    9900016    2    1    2    0    0 -0.10290730237E+03 -0.31918956790E+03  0.57521154589E+02  0.75664216937E+03  0.67581565246E+03 0.  0.
         23    2    4    4    0    0 -0.13591428501E+03 -0.13139313694E+01  0.30947604224E+03  0.34968314611E+03  0.89601688991E+02 0.  0.
        -15    1    3    3    0    0  0.37378846544E+02  0.41368722293E+02  0.25659892900E+03  0.26258629004E+03  0.00000000000E+00 0.  1.
        -15    1    5    5    0    0 -0.27353505987E+02  0.36468249290E+02  0.63445686060E+02  0.78124916484E+02  0.00000000000E+00 0.  1.
         15    1    5    5    0    0 -0.10856077902E+03 -0.37782180659E+02  0.24603035618E+03  0.27155822963E+03  0.00000000000E+00 0. -1.
         15    1    3    3    0    0  0.41564446622E+02 -0.48059310444E+02  0.20082018424E+03  0.21063249260E+03  0.00000000000E+00 0. -1.
        -16    1    4    4    0    0  0.33006982636E+02 -0.31787563653E+03 -0.25195488765E+03  0.40695902326E+03  0.00000000000E+00 0.  1.
         16    1    1    2    0    0  0.39450640796E+02  0.35023707905E+03  0.65906493163E+03  0.74738808440E+03  0.00000000000E+00 0. -1.
    9900018    1    1    2    0    0 -0.15486631591E+02 -0.24356922999E+02 -0.15725921011E+02  0.96930792019E+02  0.91187600000E+02 0.  0.
<mgrwt>
<rscale>  0 0.77546934E+03</rscale>
<asrwt>0</asrwt>
<pdfrwt beam="1">  1        1 0.24865070E+00 0.14393996E+04</pdfrwt>
<pdfrwt beam="2">  1       -1 0.70453889E-01 0.14393996E+04</pdfrwt>
<totfact> 0.10720002E+01</totfact>
</mgrwt>
</event>
<event>
12    1  0.6553714E-014  0.2286204E+04  0.7818608E-02  0.9176332E-01
         -1   -1    0    0    0  501 -0.00000000000E+00  0.00000000000E+00  0.72326620847E+03  0.72326620847E+03  0.00000000000E+00 0.  1.
          1   -1    0    0  501    0  0.00000000000E+00 -0.00000000000E+00 -0.21260404661E+04  0.21260404661E+04  0.00000000000E+00 0. -1.
         23    2    1    2    0    0  0.93973038668E+02  0.36990364830E+02 -0.25941876956E+03  0.29313938637E+03  0.91833451158E+02 0.  0.
    9900016    2    1    2    0    0 -0.54480447239E+03 -0.25009553180E+03 -0.12415747434E+04  0.15319100702E+04  0.66774316283E+03 0.  0.
         23    2    4    4    0    0 -0.80039501511E+02  0.19109198083E+03 -0.16913758641E+03  0.28260051881E+03  0.91285613076E+02 0.  0.
        -15    1    3    3    0    0  0.38028847139E+02  0.21667950570E+02 -0.21676651437E+03  0.22114116543E+03  0.00000000000E+00 0. -1.
        -15    1    5    5    0    0 -0.89413785917E+02  0.16988533539E+03 -0.11519956245E+03  0.22389013261E+03  0.00000000000E+00 0. -1.
         15    1    5    5    0    0  0.93742844057E+01  0.21206645440E+02 -0.53938023953E+02  0.58710386193E+02  0.00000000000E+00 0.  1.
         15    1    3    3    0    0  0.55944191529E+02  0.15322414259E+02 -0.42652255188E+02  0.71998220931E+02  0.00000000000E+00 0.  1.
        -16    1    1    2    0    0  0.55217934833E+03  0.30225954982E+03  0.35310397567E+03  0.72176539527E+03  0.00000000000E+00 0.  1.
         16    1    4    4    0    0 -0.46476497087E+03 -0.44118751263E+03 -0.10724371570E+04  0.12493095514E+04  0.00000000000E+00 0. -1.
    9900018    1    1    2    0    0 -0.10134791461E+03 -0.89154382856E+02 -0.25488472033E+03  0.30249182275E+03  0.91187600000E+02 0.  0.
<mgrwt>
<rscale>  0 0.11301093E+04</rscale>
<asrwt>0</asrwt>
<pdfrwt beam="1">  1        1 0.32708315E+00 0.22862042E+04</pdfrwt>
<pdfrwt beam="2">  1       -1 0.11127172E+00 0.22862042E+04</pdfrwt>
<totfact> 0.16348608E+00</totfact>
</mgrwt>
</event>
<event>
12    1  0.6553714E-014  0.1570196E+04  0.7818608E-02  0.9303632E-01
          2   -1    0    0  501    0  0.00000000000E+00  0.00000000000E+00  0.34626731923E+04  0.34626731923E+04  0.00000000000E+00 0. -1.
         -2   -1    0    0    0  501 -0.00000000000E+00 -0.00000000000E+00 -0.25435429695E+03  0.25435429695E+03  0.00000000000E+00 0.  1.
         23    2    1    2    0    0 -0.21134070046E+03  0.12382134046E+03  0.79938543599E+03  0.84153184360E+03  0.95719133463E+02 0.  0.
    9900016    2    1    2    0    0  0.52360576817E+03 -0.72790032353E+02  0.18688166957E+04  0.20495262327E+04  0.65469118458E+03 0.  0.
         23    2    4    4    0    0 -0.10014067340E+03 -0.10255889463E+03  0.16930468803E+03  0.23892222500E+03  0.88731453687E+02 0.  0.
        -15    1    3    3    0    0 -0.13225496417E+03  0.12500893406E+03  0.60141293886E+03  0.62834396008E+03  0.00000000000E+00 0.  1.
        -15    1    5    5    0    0  0.91588167386E+01  0.65336658163E+01  0.23396427240E+01  0.11491154908E+02  0.00000000000E+00 0. -1.
         15    1    3    3    0    0 -0.79085736286E+02 -0.11875936030E+01  0.19797249712E+03  0.21318788352E+03  0.00000000000E+00 0. -1.
         15    1    5    5    0    0 -0.10929949014E+03 -0.10909256045E+03  0.16696504531E+03  0.22743107009E+03  0.00000000000E+00 0.  1.
        -16    1    4    4    0    0  0.62374644157E+03  0.29768862277E+02  0.16995120077E+04  0.18106040077E+04  0.00000000000E+00 0.  1.
         16    1    1    2    0    0 -0.43571817624E+03  0.79060039432E+01  0.27914147894E+03  0.51752565083E+03  0.00000000000E+00 0. -1.
    9900018    1    1    2    0    0  0.12345310852E+03 -0.58937312049E+02  0.26097528476E+03  0.30844376214E+03  0.91187600000E+02 0.  0.
<mgrwt>
<rscale>  0 0.10044915E+04</rscale>
<asrwt>0</asrwt>
<pdfrwt beam="1">  1        2 0.53271892E+00 0.15701958E+04</pdfrwt>
<pdfrwt beam="2">  1       -2 0.39131433E-01 0.15701958E+04</pdfrwt>
<totfact> 0.51657528E+00</totfact>
</mgrwt>
</event>
<event>
12    1  0.6553714E-014  0.1097618E+04  0.7818608E-02  0.9751279E-01
          2   -1    0    0  501    0  0.00000000000E+00  0.00000000000E+00  0.48753417818E+03  0.48753417818E+03  0.00000000000E+00 0.  1.
         -2   -1    0    0    0  501 -0.00000000000E+00 -0.00000000000E+00 -0.93916276523E+03  0.93916276523E+03  0.00000000000E+00 0. -1.
         23    2    1    2    0    0 -0.79374782354E+02  0.10844454176E+03 -0.26888261959E+03  0.31396979988E+03  0.90656480245E+02 0.  0.
    9900016    2    1    2    0    0  0.14963709881E+03 -0.99485423121E+02 -0.40601446926E+03  0.87849246887E+03  0.75803209554E+03 0.  0.
         23    2    4    4    0    0  0.76526579115E+02 -0.17174882068E+03 -0.48064896010E+03  0.52415836861E+03  0.91458175265E+02 0.  0.
        -15    1    5    5    0    0  0.89204427028E+02 -0.99374508422E+02 -0.34394767431E+03  0.36896168553E+03  0.00000000000E+00 0. -1.
        -15    1    3    3    0    0 -0.48074340504E+02  0.99470693779E+01 -0.41811439726E+02  0.64484749329E+02  0.00000000000E+00 0.  1.
         15    1    5    5    0    0 -0.12677847913E+02 -0.72374312260E+02 -0.13670128579E+03  0.15519668308E+03  0.00000000000E+00 0.  1.
         15    1    3    3    0    0 -0.31300441850E+02  0.98497472383E+02 -0.22707117986E+03  0.24948505055E+03  0.00000000000E+00 0. -1.
        -16    1    4    4    0    0  0.16894568779E+02  0.89998488975E+02  0.18067976172E+03  0.20255944996E+03  0.00000000000E+00 0.  1.
         16    1    1    2    0    0 -0.70262316456E+02 -0.89591186409E+01  0.22326850179E+03  0.23423467466E+03  0.00000000000E+00 0. -1.
    9900018    1    4    4    0    0  0.56215950916E+02 -0.17735091414E+02 -0.10604527088E+03  0.15177465030E+03  0.91187600000E+02 0.  0.
<mgrwt>
<rscale>  0 0.68044013E+03</rscale>
<asrwt>0</asrwt>
<pdfrwt beam="1">  1        2 0.75005259E-01 0.10976182E+04</pdfrwt>
<pdfrwt beam="2">  1       -2 0.14448658E+00 0.10976182E+04</pdfrwt>
<totfact> 0.20740506E+01</totfact>
</mgrwt>
</event>
<event>
12    1  0.6553714E-014  0.1894725E+04  0.7818608E-02  0.9363511E-01
         -1   -1    0    0    0  501 -0.00000000000E+00  0.00000000000E+00  0.11044125928E+04  0.11044125928E+04  0.00000000000E+00 0.  1.
          1   -1    0    0  501    0  0.00000000000E+00 -0.00000000000E+00 -0.10222116142E+04  0.10222116142E+04  0.00000000000E+00 0. -1.
         23    2    1    2    0    0 -0.74852546310E+02  0.28361019323E+02 -0.17715939781E+03  0.21423038832E+03  0.90010865685E+02 0.  0.
    9900016    2    1    2    0    0  0.53460521964E+03  0.22877166261E+03  0.73931816992E+03  0.11997584138E+04  0.74477491946E+03 0.  0.
         23    2    4    4    0    0  0.10868275709E+03 -0.21848367943E+03  0.12831863389E+03  0.29036341968E+03  0.91094367663E+02 0.  0.
        -15    1    5    5    0    0  0.36355265003E+02 -0.92401730266E+02  0.10254435461E+03  0.14274147860E+03  0.00000000000E+00 0.  1.
        -15    1    3    3    0    0 -0.36564118702E+02  0.57170733182E+02 -0.13182082290E+03  0.14826380833E+03  0.00000000000E+00 0. -1.
         15    1    3    3    0    0 -0.38288427608E+02 -0.28809713859E+02 -0.45338574906E+02  0.65966579992E+02  0.00000000000E+00 0.  1.
         15    1    5    5    0    0  0.72327492089E+02 -0.12608194917E+03  0.25774279274E+02  0.14762194108E+03  0.00000000000E+00 0. -1.
        -16    1    4    4    0    0  0.36060670115E+03  0.42435396161E+03  0.53317613343E+03  0.77096709846E+03  0.00000000000E+00 0.  1.
         16    1    1    2    0    0 -0.45975267333E+03 -0.25713268193E+03 -0.47995779355E+03  0.71263540491E+03  0.00000000000E+00 0. -1.
    9900018    1    4    4    0    0  0.65315761394E+02  0.22901380432E+02  0.77823402608E+02  0.13842789567E+03  0.91187600000E+02 0.  0.
<mgrwt>
<rscale>  0 0.95140422E+03</rscale>
<asrwt>0</asrwt>
<pdfrwt beam="1">  1        1 0.15726332E+00 0.18947249E+04</pdfrwt>
<pdfrwt beam="2">  1       -1 0.16990963E+00 0.18947249E+04</pdfrwt>
<totfact> 0.33322723E+00</totfact>
</mgrwt>
</event>
