<event>
11    1  0.8799133E-011  0.2991615E+04  0.7818608E-02  0.8246129E-01
         -2   -1    0    0    0  501 -0.00000000000E+00  0.00000000000E+00  0.15420163111E+04  0.15420163111E+04  0.00000000000E+00 0. -1.
          2   -1    0    0  501    0  0.00000000000E+00 -0.00000000000E+00 -0.14509831925E+04  0.14509831925E+04  0.00000000000E+00 0.  1.
    9900016    2    1    2    0    0 -0.40950488491E+03 -0.36433974866E+03  0.37528254401E+03  0.23755568431E+04  0.22807883777E+04 0.  0.
         24    2    3    3    0    0  0.23324813719E+03  0.15330645097E+03  0.18255822884E+02  0.29104291604E+03  0.80406109794E+02 0.  0.
        -15    1    3    3    0    0 -0.13919360495E+03 -0.19999543654E+03  0.10120087047E+03  0.26384588395E+03  0.00000000000E+00 0.  1.
        -15    1    4    4    0    0  0.88630028074E+02  0.96399653540E+02  0.32668284546E+02  0.13496440973E+03  0.00000000000E+00 0.  1.
         15    1    3    3    0    0  0.54635866952E+02 -0.59481331127E+03  0.57463782708E+03  0.82885257165E+03  0.00000000000E+00 0. -1.
         15    1    3    3    0    0 -0.52844586763E+03  0.18372763192E+03 -0.51090936391E+03  0.75765378365E+03  0.00000000000E+00 0. -1.
        -16    1    1    2    0    0  0.40950488491E+03  0.36433974866E+03 -0.28424942542E+03  0.61744266055E+03  0.00000000000E+00 0.  1.
         16    1    4    4    0    0  0.14461810912E+03  0.56906797432E+02 -0.14412461662E+02  0.15607850630E+03  0.00000000000E+00 0. -1.
    9900018    1    3    3    0    0 -0.29749416465E+02  0.93434916264E+02  0.19209738750E+03  0.23416168780E+03  0.91187600000E+02 0.  0.
<mgrwt>
<rscale>  0 0.29916148E+04</rscale>
<asrwt>0</asrwt>
<pdfrwt beam="1">  1        2 0.22322818E+00 0.29916148E+04</pdfrwt>
<pdfrwt beam="2">  1       -2 0.23723328E+00 0.29916148E+04</pdfrwt>
<totfact> 0.89335080E-01</totfact>
</mgrwt>
</event>
<event>
11    1  0.8799133E-011  0.2917273E+04  0.7818608E-02  0.8267757E-01
         -1   -1    0    0    0  501 -0.00000000000E+00  0.00000000000E+00  0.67301004462E+03  0.67301004462E+03  0.00000000000E+00 0.  1.
          1   -1    0    0  501    0  0.00000000000E+00 -0.00000000000E+00 -0.31613497855E+04  0.31613497855E+04  0.00000000000E+00 0. -1.
    9900016    2    1    2    0    0 -0.64359785065E+02  0.12808222752E+03 -0.13152832159E+04  0.26525777648E+04  0.22990545060E+04 0.  0.
        -24    2    3    3    0    0  0.48502212794E+02 -0.36310467341E+03 -0.62555331861E+03  0.72894703629E+03  0.76481100847E+02 0.  0.
        -15    1    3    3    0    0  0.33317557658E+03 -0.25275040165E+03  0.10192436339E+03  0.43043850457E+03  0.00000000000E+00 0.  1.
        -15    1    3    3    0    0 -0.13116680227E+03  0.25928254875E+03 -0.40839912150E+03  0.50122052287E+03  0.00000000000E+00 0.  1.
         15    1    3    3    0    0 -0.52401964517E+03  0.41948970112E+03 -0.33349169664E+03  0.74952312145E+03  0.00000000000E+00 0. -1.
         15    1    4    4    0    0  0.57224841715E+02 -0.17971906021E+03 -0.27907929394E+03  0.33683657079E+03  0.00000000000E+00 0. -1.
        -16    1    4    4    0    0 -0.87226289209E+01 -0.18338561320E+03 -0.34647402467E+03  0.39211046550E+03  0.00000000000E+00 0.  1.
         16    1    1    2    0    0  0.64359785065E+02 -0.12808222752E+03 -0.11730565250E+04  0.11817820653E+04  0.00000000000E+00 0. -1.
    9900018    1    3    3    0    0  0.20914887301E+03  0.65165052719E+02 -0.49763442496E+02  0.24244857966E+03  0.91187600000E+02 0.  0.
<mgrwt>
<rscale>  0 0.29172728E+04</rscale>
<asrwt>0</asrwt>
<pdfrwt beam="1">  1        1 0.48636150E+00 0.29172728E+04</pdfrwt>
<pdfrwt beam="2">  1       -1 0.10354001E+00 0.29172728E+04</pdfrwt>
<totfact> 0.34227979E-01</totfact>
</mgrwt>
</event>
<event>
10    1  0.8799133E-011  0.6561211E+04  0.7818608E-02  0.7624462E-01
         -2   -1    0    0    0  501 -0.00000000000E+00  0.00000000000E+00  0.20970018685E+04  0.20970018685E+04  0.00000000000E+00 0.  1.
          2   -1    0    0  501    0  0.00000000000E+00 -0.00000000000E+00 -0.51322660741E+04  0.51322660741E+04  0.00000000000E+00 0. -1.
         24    2    1    2    0    0  0.27368214272E+03 -0.51590714482E+03 -0.87631548571E+03  0.10564806259E+04  0.84619059311E+02 0.  0.
        -15    1    1    2    0    0  0.13478939661E+03  0.32308353405E+03 -0.16851136567E+04  0.17210924401E+04  0.00000000000E+00 0.  1.
        -15    1    3    3    0    0  0.19002259780E+03 -0.27010199037E+03 -0.47676814294E+03  0.57997546069E+03  0.00000000000E+00 0.  1.
         15    1    1    2    0    0  0.34487875720E+03 -0.11059514414E+03 -0.93791702816E+03  0.10054158318E+04  0.00000000000E+00 0. -1.
         15    1    1    2    0    0 -0.70760084810E+02  0.57063857802E+02 -0.19812651051E+03  0.21798483350E+03  0.00000000000E+00 0. -1.
        -16    1    1    2    0    0 -0.16086212744E+04 -0.19231155451E+03  0.12474968456E+04  0.20447235799E+04  0.00000000000E+00 0.  1.
         16    1    3    3    0    0  0.83659544916E+02 -0.24580515445E+03 -0.39954734276E+03  0.47650516526E+03  0.00000000000E+00 0. -1.
    9900018    1    1    2    0    0  0.92603106265E+03  0.43866645161E+03 -0.58528837016E+03  0.11835706314E+04  0.91187600000E+02 0.  0.
<mgrwt>
<rscale>  0 0.65612107E+04</rscale>
<asrwt>0</asrwt>
<pdfrwt beam="1">  1        2 0.78957939E+00 0.65612107E+04</pdfrwt>
<pdfrwt beam="2">  1       -2 0.32261567E+00 0.65612107E+04</pdfrwt>
<totfact> 0.33249306E-04</totfact>
</mgrwt>
</event>
<event>
11    1  0.8799133E-011  0.4071810E+04  0.7818608E-02  0.7990215E-01
          2   -1    0    0  501    0  0.00000000000E+00  0.00000000000E+00  0.26214944522E+04  0.26214944522E+04  0.00000000000E+00 0.  1.
         -2   -1    0    0    0  501 -0.00000000000E+00 -0.00000000000E+00 -0.15811247611E+04  0.15811247611E+04  0.00000000000E+00 0. -1.
    9900016    2    1    2    0    0  0.42091045963E+03 -0.32664484245E+03  0.33596363528E+03  0.22099802838E+04  0.21183198111E+04 0.  0.
         24    2    3    3    0    0 -0.60962817817E+03 -0.27782441205E+03 -0.28910219413E+03  0.73398052928E+03  0.79463319621E+02 0.  0.
        -15    1    4    4    0    0 -0.56052948674E+03 -0.22964090480E+03 -0.26355902409E+03  0.66059943221E+03  0.00000000000E+00 0.  1.
        -15    1    3    3    0    0  0.75371561385E+03  0.19540902342E+03  0.56793770680E+03  0.96375575319E+03  0.00000000000E+00 0.  1.
         15    1    3    3    0    0 -0.63800270092E+01  0.45271622750E+02 -0.73631149540E+02  0.86670472213E+02  0.00000000000E+00 0. -1.
         15    1    3    3    0    0  0.28320305096E+03 -0.28950107657E+03  0.13075927215E+03  0.42557352909E+03  0.00000000000E+00 0. -1.
        -16    1    1    2    0    0 -0.21761039840E+03  0.86018856237E+03  0.10052765882E+04  0.13408428943E+04  0.00000000000E+00 0.  1.
         16    1    4    4    0    0 -0.49098691426E+02 -0.48183507254E+02 -0.25543170046E+02  0.73381097069E+02  0.00000000000E+00 0. -1.
    9900018    1    1    2    0    0 -0.20330006123E+03 -0.53354371992E+03 -0.30087053234E+03  0.65179603526E+03  0.91187600000E+02 0.  0.
<mgrwt>
<rscale>  0 0.40718103E+04</rscale>
<asrwt>0</asrwt>
<pdfrwt beam="1">  1        2 0.40330684E+00 0.40718103E+04</pdfrwt>
<pdfrwt beam="2">  1       -2 0.24324996E+00 0.40718103E+04</pdfrwt>
<totfact> 0.16395247E-01</totfact>
</mgrwt>
</event>
