<event>
12    1  0.1744349E-016  0.1558252E+04  0.7818608E-02  0.9164245E-01
         -2   -1    0    0    0  501 -0.00000000000E+00  0.00000000000E+00  0.43930018627E+03  0.43930018627E+03  0.00000000000E+00 0.  1.
          2   -1    0    0  501    0  0.00000000000E+00 -0.00000000000E+00 -0.23295395281E+04  0.23295395281E+04  0.00000000000E+00 0. -1.
         23    2    1    2    0    0  0.36639129369E+03  0.25370525604E+03 -0.29615821585E+03  0.53965989851E+03  0.70101214025E+02 0.  0.
    9900016    2    1    2    0    0 -0.68183568176E+03  0.14714408847E+03 -0.89112253873E+03  0.13606545518E+04  0.75546684280E+03 0.  0.
         23    2    4    4    0    0 -0.14266889295E+03  0.15787784839E+03  0.43697851983E+02  0.24882210994E+03  0.12133883179E+03 0.  0.
        -15    1    3    3    0    0  0.34967745158E+03  0.22511377139E+03 -0.28702344632E+03  0.50530484754E+03  0.00000000000E+00 0.  1.
        -15    1    5    5    0    0 -0.29204567300E+02  0.12066600642E+03  0.35523363982E+02  0.12913210772E+03  0.00000000000E+00 0. -1.
         15    1    5    5    0    0 -0.11346432565E+03  0.37211841979E+02  0.81744880013E+01  0.11969000222E+03  0.00000000000E+00 0.  1.
         15    1    3    3    0    0  0.16713842117E+02  0.28591484652E+02 -0.91347695349E+01  0.34355050973E+02  0.00000000000E+00 0. -1.
        -16    1    4    4    0    0 -0.48720500734E+03 -0.50297093319E+01 -0.83568490755E+03  0.96734858342E+03  0.00000000000E+00 0.  1.
         16    1    1    2    0    0  0.31544438806E+03 -0.40084934450E+03 -0.70295858725E+03  0.86852526407E+03  0.00000000000E+00 0. -1.
    9900018    1    4    4    0    0 -0.51961781471E+02 -0.57040505962E+01 -0.99135483168E+02  0.14448385842E+03  0.91187600000E+02 0.  0.
<mgrwt>
<rscale>  0 0.11430228E+04</rscale>
<asrwt>0</asrwt>
<pdfrwt beam="1">  1        2 0.35839070E+00 0.15582516E+04</pdfrwt>
<pdfrwt beam="2">  1       -2 0.67584643E-01 0.15582516E+04</pdfrwt>
<totfact> 0.83691935E+00</totfact>
</mgrwt>
</event>
<event>
12    1  0.1744349E-016  0.1572261E+04  0.7818608E-02  0.9278026E-01
         -2   -1    0    0    0  501 -0.00000000000E+00  0.00000000000E+00  0.47752827996E+03  0.47752827996E+03  0.00000000000E+00 0.  1.
          2   -1    0    0  501    0  0.00000000000E+00 -0.00000000000E+00 -0.19136250349E+04  0.19136250349E+04  0.00000000000E+00 0. -1.
         23    2    1    2    0    0 -0.72688457869E+02  0.26917020404E+03 -0.45365351577E+03  0.53718477654E+03  0.70920808841E+02 0.  0.
    9900016    2    1    2    0    0 -0.27583306885E+02  0.10900573134E+03  0.10397825422E+02  0.68402243812E+03  0.67463730462E+03 0.  0.
         23    2    4    4    0    0  0.24380701604E+03  0.14448744109E+03 -0.17802942942E+03  0.35173267079E+03  0.10817999936E+03 0.  0.
        -15    1    5    5    0    0  0.77897244561E+02  0.12451795972E+01 -0.79846512257E+02  0.11155714546E+03  0.00000000000E+00 0. -1.
        -15    1    3    3    0    0  0.77316863985E+01  0.98310842698E+02 -0.16609742831E+03  0.19316613694E+03  0.00000000000E+00 0. -1.
         15    1    3    3    0    0 -0.80420144268E+02  0.17085936134E+03 -0.28755608746E+03  0.34401863960E+03  0.00000000000E+00 0.  1.
         15    1    5    5    0    0  0.16590977148E+03  0.14324226149E+03 -0.98182917159E+02  0.24017552533E+03  0.00000000000E+00 0.  1.
        -16    1    1    2    0    0  0.11660998849E+03 -0.41257636547E+03 -0.98077585943E+03  0.10703917195E+04  0.00000000000E+00 0.  1.
         16    1    4    4    0    0 -0.27139032292E+03 -0.35481709741E+02  0.18842725484E+03  0.33228976733E+03  0.00000000000E+00 0. -1.
    9900018    1    1    2    0    0 -0.16338223735E+02  0.34400430086E+02 -0.12065205161E+02  0.99554380688E+02  0.91187600000E+02 0.  0.
<mgrwt>
<rscale>  0 0.10283121E+04</rscale>
<asrwt>0</asrwt>
<pdfrwt beam="1">  1        2 0.29440385E+00 0.15722610E+04</pdfrwt>
<pdfrwt beam="2">  1       -2 0.73465890E-01 0.15722610E+04</pdfrwt>
<totfact> 0.11910383E+01</totfact>
</mgrwt>
</event>
<event>
12    1  0.1744349E-016  0.1165862E+04  0.7818608E-02  0.9494559E-01
          2   -1    0    0  501    0  0.00000000000E+00  0.00000000000E+00  0.27449816835E+04  0.27449816835E+04  0.00000000000E+00 0. -1.
         -2   -1    0    0    0  501 -0.00000000000E+00 -0.00000000000E+00 -0.21637347949E+03  0.21637347949E+03  0.00000000000E+00 0.  1.
         23    2    1    2    0    0  0.17744432527E+03  0.26236524839E+03  0.91328626581E+03  0.96924576370E+03  0.70876900451E+02 0.  0.
    9900016    2    1    2    0    0  0.16137171405E+03 -0.30127181292E+03  0.11534912612E+04  0.14180034827E+04  0.75059060203E+03 0.  0.
         23    2    4    4    0    0  0.24692529970E+03  0.11165904334E+03  0.23250636521E+03  0.37568999215E+03  0.11680716907E+03 0.  0.
        -15    1    5    5    0    0  0.26299444619E+02  0.42971943052E+02  0.37204462300E+01  0.50518218467E+02  0.00000000000E+00 0. -1.
        -15    1    3    3    0    0  0.62173640882E+02  0.13737921411E+03  0.50322811536E+03  0.52533527026E+03  0.00000000000E+00 0. -1.
         15    1    5    5    0    0  0.22062585508E+03  0.68687100286E+02  0.22878591898E+03  0.32517177368E+03  0.00000000000E+00 0.  1.
         15    1    3    3    0    0  0.11527068438E+03  0.12498603428E+03  0.41005815045E+03  0.44391049345E+03  0.00000000000E+00 0.  1.
        -16    1    1    2    0    0 -0.33881603932E+03  0.38906564532E+02  0.46183067699E+03  0.57410591660E+03  0.00000000000E+00 0.  1.
         16    1    4    4    0    0 -0.99722784465E+02 -0.37164813517E+03  0.76693820368E+03  0.85805662888E+03  0.00000000000E+00 0. -1.
    9900018    1    4    4    0    0  0.14169198819E+02 -0.41282721095E+02  0.15404669236E+03  0.18425686168E+03  0.91187600000E+02 0.  0.
<mgrwt>
<rscale>  0 0.84686165E+03</rscale>
<asrwt>0</asrwt>
<pdfrwt beam="1">  1        2 0.42230485E+00 0.11658623E+04</pdfrwt>
<pdfrwt beam="2">  1       -2 0.33288230E-01 0.11658623E+04</pdfrwt>
<totfact> 0.21015060E+01</totfact>
</mgrwt>
</event>
<event>
12    1  0.1744349E-016  0.1648457E+04  0.7818608E-02  0.9519485E-01
          2   -1    0    0  501    0  0.00000000000E+00  0.00000000000E+00  0.15674966365E+04  0.15674966365E+04  0.00000000000E+00 0. -1.
         -2   -1    0    0    0  501 -0.00000000000E+00 -0.00000000000E+00 -0.52800858524E+03  0.52800858524E+03  0.00000000000E+00 0.  1.
         23    2    1    2    0    0  0.71091941754E+02  0.15562974785E+01  0.24279300444E+03  0.26462177022E+03  0.77587060935E+02 0.  0.
    9900016    2    1    2    0    0 -0.50276329109E+03  0.29743827081E+03  0.34956095263E+03  0.94804751271E+03  0.65981874401E+03 0.  0.
         23    2    4    4    0    0 -0.39365425961E+03  0.20195512458E+03  0.54431076624E+03  0.70525273957E+03  0.73196092592E+02 0.  0.
        -15    1    5    5    0    0 -0.32031518935E+03  0.18420783494E+03  0.41607677987E+03  0.55646584237E+03  0.00000000000E+00 0.  1.
        -15    1    3    3    0    0  0.50545544261E+02  0.34439787804E+02  0.18645000352E+03  0.19622577517E+03  0.00000000000E+00 0.  1.
         15    1    5    5    0    0 -0.73339070259E+02  0.17747289638E+02  0.12823398638E+03  0.14878689720E+03  0.00000000000E+00 0. -1.
         15    1    3    3    0    0  0.20546397493E+02 -0.32883490326E+02  0.56343000919E+02  0.68395995048E+02  0.00000000000E+00 0. -1.
        -16    1    1    2    0    0  0.47574927882E+03 -0.38497338168E+03  0.43202557876E+03  0.74912481043E+03  0.00000000000E+00 0.  1.
         16    1    4    4    0    0 -0.10910903148E+03  0.95483146232E+02 -0.19474981361E+03  0.24279477314E+03  0.00000000000E+00 0. -1.
    9900018    1    1    2    0    0 -0.44077929490E+02  0.85978813388E+02  0.15108515417E+02  0.13371112838E+03  0.91187600000E+02 0.  0.
<mgrwt>
<rscale>  0 0.82862360E+03</rscale>
<asrwt>0</asrwt>
<pdfrwt beam="1">  1        2 0.24115333E+00 0.16484572E+04</pdfrwt>
<pdfrwt beam="2">  1       -2 0.81232091E-01 0.16484572E+04</pdfrwt>
<totfact> 0.14775842E+01</totfact>
</mgrwt>
</event>
<event>
12    1  0.1744349E-016  0.1069973E+04  0.7818608E-02  0.9668113E-01
         -2   -1    0    0    0  501 -0.00000000000E+00  0.00000000000E+00  0.64904770308E+03  0.64904770308E+03  0.00000000000E+00 0.  1.
          2   -1    0    0  501    0  0.00000000000E+00 -0.00000000000E+00 -0.71524146631E+03  0.71524146631E+03  0.00000000000E+00 0. -1.
         23    2    1    2    0    0 -0.16344589168E+03 -0.12191108950E+03 -0.17338111742E+03  0.28896068706E+03  0.10890543393E+03 0.  0.
    9900016    2    1    2    0    0  0.13940137365E+03  0.87753723075E+02  0.21457832703E+03  0.70570224858E+03  0.65179624603E+03 0.  0.
         23    2    4    4    0    0 -0.13010026024E+02 -0.18025427803E+03 -0.13585364491E+03  0.23894739820E+03  0.77322575905E+02 0.  0.
        -15    1    5    5    0    0  0.11741959431E+02 -0.75762057483E+02 -0.16547830520E+02  0.78432095855E+02  0.00000000000E+00 0. -1.
        -15    1    3    3    0    0 -0.60332301129E+02 -0.11167808302E+03 -0.84957913510E+02  0.15274104836E+03  0.00000000000E+00 0. -1.
         15    1    3    3    0    0 -0.10311359055E+03 -0.10233006484E+02 -0.88423203908E+02  0.13621963870E+03  0.00000000000E+00 0.  1.
         15    1    5    5    0    0 -0.24751985456E+02 -0.10449222055E+03 -0.11930581439E+03  0.16051530234E+03  0.00000000000E+00 0.  1.
        -16    1    4    4    0    0  0.15241139968E+03  0.26800800111E+03  0.35043197193E+03  0.46675485039E+03  0.00000000000E+00 0.  1.
         16    1    1    2    0    0  0.14566103142E+02 -0.39901946937E+02 -0.20945550140E+03  0.21371931077E+03  0.00000000000E+00 0. -1.
    9900018    1    1    2    0    0  0.94784148894E+01  0.74059313364E+02  0.10206452857E+03  0.15590692297E+03  0.91187600000E+02 0.  0.
<mgrwt>
<rscale>  0 0.72947455E+03</rscale>
<asrwt>0</asrwt>
<pdfrwt beam="1">  1        2 0.11003715E+00 0.10699730E+04</pdfrwt>
<pdfrwt beam="2">  1       -2 0.99853492E-01 0.10699730E+04</pdfrwt>
<totfact> 0.32747863E+01</totfact>
</mgrwt>
</event>
<event>
12    1  0.1744349E-016  0.1869662E+04  0.7818608E-02  0.9118876E-01
          2   -1    0    0  501    0  0.00000000000E+00  0.00000000000E+00  0.33369254702E+04  0.33369254702E+04  0.00000000000E+00 0. -1.
         -2   -1    0    0    0  501 -0.00000000000E+00 -0.00000000000E+00 -0.37099640695E+03  0.37099640695E+03  0.00000000000E+00 0.  1.
         23    2    1    2    0    0  0.26099522088E+03 -0.14903872616E+03  0.73111596387E+03  0.79415730975E+03  0.76316661246E+02 0.  0.
    9900016    2    1    2    0    0 -0.40670637841E+03  0.44740302679E+03  0.20304255137E+04  0.22197044428E+04  0.66248056577E+03 0.  0.
         23    2    4    4    0    0  0.87026399109E+02  0.26687068110E+03  0.36774424791E+03  0.47589454058E+03  0.11156266090E+03 0.  0.
        -15    1    3    3    0    0  0.22759670190E+03 -0.98842707563E+02  0.55312610339E+03  0.60623314475E+03  0.00000000000E+00 0.  1.
        -15    1    5    5    0    0  0.60319808023E+02  0.87685375840E+02  0.21104818323E+03  0.23636526822E+03  0.00000000000E+00 0.  1.
         15    1    3    3    0    0  0.33398518982E+02 -0.50196018597E+02  0.17798986048E+03  0.18792416499E+03  0.00000000000E+00 0. -1.
         15    1    5    5    0    0  0.26706591086E+02  0.17918530526E+03  0.15669606468E+03  0.23952927236E+03  0.00000000000E+00 0. -1.
        -16    1    1    2    0    0  0.24738025253E+03 -0.34448795947E+03 -0.23109318356E+02  0.42473872458E+03  0.00000000000E+00 0.  1.
         16    1    4    4    0    0 -0.49373277752E+03  0.18053234569E+03  0.16626812657E+04  0.17438099022E+04  0.00000000000E+00 0. -1.
    9900018    1    1    2    0    0 -0.10166909500E+03  0.46123658836E+02  0.22749690409E+03  0.26932140009E+03  0.91187600000E+02 0.  0.
<mgrwt>
<rscale>  0 0.11931468E+04</rscale>
<asrwt>0</asrwt>
<pdfrwt beam="1">  1        2 0.51337313E+00 0.18696616E+04</pdfrwt>
<pdfrwt beam="2">  1       -2 0.57076372E-01 0.18696616E+04</pdfrwt>
<totfact> 0.28405322E+00</totfact>
</mgrwt>
</event>
<event>
12    1  0.1744349E-016  0.1262241E+04  0.7818608E-02  0.9720459E-01
          2   -1    0    0  501    0  0.00000000000E+00  0.00000000000E+00  0.42170832414E+03  0.42170832414E+03  0.00000000000E+00 0. -1.
         -2   -1    0    0    0  501 -0.00000000000E+00 -0.00000000000E+00 -0.11309469081E+04  0.11309469081E+04  0.00000000000E+00 0.  1.
         23    2    1    2    0    0  0.47283998941E+02  0.44529794406E+01 -0.76317254102E+02  0.14062067921E+03  0.10813993974E+03 0.  0.
    9900016    2    1    2    0    0 -0.16745217591E+03 -0.37894704542E+03 -0.49782356982E+03  0.99617688391E+03  0.75690090694E+03 0.  0.
         23    2    4    4    0    0 -0.44103988150E+02 -0.40228863615E+03 -0.55500410469E+03  0.69114054534E+03  0.76579296439E+02 0.  0.
        -15    1    5    5    0    0 -0.21418193048E+02 -0.25796030724E+02 -0.61021799393E+02  0.69626390081E+02  0.00000000000E+00 0.  1.
        -15    1    3    3    0    0  0.71439132316E+02 -0.28697809622E+02 -0.46958143632E+02  0.90178606978E+02  0.00000000000E+00 0.  1.
         15    1    3    3    0    0 -0.24155133375E+02  0.33150789062E+02 -0.29359110470E+02  0.50442072235E+02  0.00000000000E+00 0. -1.
         15    1    5    5    0    0 -0.22685795102E+02 -0.37649260543E+03 -0.49398230530E+03  0.62151415526E+03  0.00000000000E+00 0. -1.
        -16    1    4    4    0    0 -0.91077017579E+02  0.11232785683E+03  0.89000036877E+02  0.16980452619E+03  0.00000000000E+00 0.  1.
         16    1    1    2    0    0  0.12016817697E+03  0.37449406598E+03 -0.13509776007E+03  0.41585766914E+03  0.00000000000E+00 0. -1.
    9900018    1    4    4    0    0 -0.32271170181E+02 -0.88986266097E+02 -0.31819502006E+02  0.13523181238E+03  0.91187600000E+02 0.  0.
<mgrwt>
<rscale>  0 0.69811649E+03</rscale>
<asrwt>0</asrwt>
<pdfrwt beam="1">  1        2 0.64878204E-01 0.12622409E+04</pdfrwt>
<pdfrwt beam="2">  1       -2 0.17399183E+00 0.12622409E+04</pdfrwt>
<totfact> 0.14651313E+01</totfact>
</mgrwt>
</event>
<event>
12    1  0.1744349E-016  0.9247406E+03  0.7818608E-02  0.9844153E-01
         -2   -1    0    0    0  501 -0.00000000000E+00  0.00000000000E+00  0.19234166410E+04  0.19234166410E+04  0.00000000000E+00 0. -1.
          2   -1    0    0  501    0  0.00000000000E+00 -0.00000000000E+00 -0.19659144826E+03  0.19659144826E+03  0.00000000000E+00 0.  1.
         23    2    1    2    0    0  0.15448445248E+03 -0.10090184290E+03  0.74472605965E+03  0.77105893645E+03  0.76605166896E+02 0.  0.
    9900016    2    1    2    0    0 -0.17264174094E+02 -0.12276627335E+01  0.78564287611E+03  0.10884594186E+04  0.75313320090E+03 0.  0.
         23    2    4    4    0    0 -0.29083518132E+03  0.12202607538E+03  0.41049747110E+03  0.52235080362E+03  0.69761898654E+02 0.  0.
        -15    1    5    5    0    0 -0.18424540395E+03  0.76265686022E+02  0.31146783491E+03  0.36983109107E+03  0.00000000000E+00 0.  1.
        -15    1    3    3    0    0  0.22763841507E+02 -0.46602918210E+02  0.28778994550E+03  0.29242619102E+03  0.00000000000E+00 0.  1.
         15    1    3    3    0    0  0.13172061097E+03 -0.54298924689E+02  0.45693611415E+03  0.47863274543E+03  0.00000000000E+00 0. -1.
         15    1    5    5    0    0 -0.10658977736E+03  0.45760389358E+02  0.99029636194E+02  0.15251971255E+03  0.00000000000E+00 0. -1.
        -16    1    1    2    0    0 -0.13722027838E+03  0.10212950563E+03  0.19645625698E+03  0.26048973420E+03  0.00000000000E+00 0.  1.
         16    1    4    4    0    0  0.30801567690E+03 -0.96826944303E+02  0.28069311989E+03  0.42782910363E+03  0.00000000000E+00 0. -1.
    9900018    1    4    4    0    0 -0.34444669677E+02 -0.26426793811E+02  0.94452285114E+02  0.13827951134E+03  0.91187600000E+02 0.  0.
<mgrwt>
<rscale>  0 0.63045910E+03</rscale>
<asrwt>0</asrwt>
<pdfrwt beam="1">  1        2 0.30244839E-01 0.92474056E+03</pdfrwt>
<pdfrwt beam="2">  1       -2 0.29591024E+00 0.92474056E+03</pdfrwt>
<totfact> 0.60450636E+00</totfact>
</mgrwt>
</event>
