<event>
13    1  0.2370590E-012  0.6464555E+04  0.7818608E-02  0.7635327E-01
         -2   -1    0    0    0  501 -0.00000000000E+00  0.00000000000E+00  0.26848732547E+04  0.26848732547E+04  0.00000000000E+00 0.  1.
          2   -1    0    0  501    0  0.00000000000E+00 -0.00000000000E+00 -0.38912890240E+04  0.38912890240E+04  0.00000000000E+00 0. -1.
    9900016    2    1    2    0    0 -0.60755468904E+03 -0.19784037380E+04  0.51283337583E+03  0.30655705424E+04  0.22026167684E+04 0.  0.
         23    2    3    3    0    0  0.35709958105E+02 -0.17249983162E+03 -0.74612637453E+03  0.77208891432E+03  0.91571457487E+02 0.  0.
    9900016    2    1    2    0    0  0.60755468904E+03  0.19784037380E+04 -0.17192491452E+04  0.35105917363E+04  0.22550460451E+04 0.  0.
         24    2    5    5    0    0 -0.25808017133E+03  0.52747120539E+02  0.40972469725E+03  0.49128478449E+03  0.64021702378E+02 0.  0.
        -15    1    6    6    0    0 -0.14229312740E+03  0.42324479145E+01  0.25490819190E+03  0.29196478216E+03  0.00000000000E+00 0.  1.
        -15    1    4    4    0    0 -0.10137879021E+02 -0.13522613164E+03 -0.44431179158E+03  0.46454477869E+03  0.00000000000E+00 0. -1.
         15    1    4    4    0    0  0.45847837127E+02 -0.37273699985E+02 -0.30181458295E+03  0.30754413563E+03  0.00000000000E+00 0.  1.
         15    1    5    5    0    0  0.79952280791E+03  0.18135085369E+04 -0.19776639159E+04  0.27998579425E+04  0.00000000000E+00 0. -1.
        -16    1    3    3    0    0 -0.64326464714E+03 -0.18059039063E+04  0.12589597504E+04  0.22934816280E+04  0.00000000000E+00 0.  1.
         16    1    6    6    0    0 -0.11578704393E+03  0.48514672625E+02  0.15481650534E+03  0.19932000233E+03  0.00000000000E+00 0. -1.
    9900018    1    5    5    0    0  0.66112052454E+02  0.11214808050E+03 -0.15130992654E+03  0.21944900935E+03  0.91187600000E+02 0.  0.
<mgrwt>
<rscale>  0 0.64645550E+04</rscale>
<asrwt>0</asrwt>
<pdfrwt beam="1">  1        2 0.59865985E+00 0.64645550E+04</pdfrwt>
<pdfrwt beam="2">  1       -2 0.41305742E+00 0.64645550E+04</pdfrwt>
<totfact> 0.16483737E-03</totfact>
</mgrwt>
</event>
<event>
13    1  0.2370590E-012  0.5109952E+04  0.7818608E-02  0.7811766E-01
          2   -1    0    0  501    0  0.00000000000E+00  0.00000000000E+00  0.20809999256E+04  0.20809999256E+04  0.00000000000E+00 0. -1.
         -2   -1    0    0    0  501 -0.00000000000E+00 -0.00000000000E+00 -0.31369066708E+04  0.31369066708E+04  0.00000000000E+00 0.  1.
    9900016    2    1    2    0    0  0.25180237898E+03 -0.48515994180E+03  0.63058532773E+03  0.23488322270E+04  0.21955842885E+04 0.  0.
         23    2    3    3    0    0 -0.11888557825E+03  0.35694348777E+03 -0.65920001623E+03  0.76450461533E+03  0.91543493977E+02 0.  0.
    9900016    2    1    2    0    0 -0.25180237898E+03  0.48515994180E+03 -0.16864920729E+04  0.28690743694E+04  0.22557809331E+04 0.  0.
        -24    2    5    5    0    0  0.24824106533E+03 -0.47227839251E+03 -0.16387418005E+04  0.17269734401E+04  0.11086959733E+03 0.  0.
        -15    1    5    5    0    0 -0.47171619577E+03  0.86968625278E+03  0.31930024126E+02  0.98989387011E+03  0.00000000000E+00 0.  1.
        -15    1    4    4    0    0 -0.28578989483E+02  0.18511773339E+03 -0.25812888576E+03  0.31892923277E+03  0.00000000000E+00 0.  1.
         15    1    6    6    0    0  0.65435732930E+02 -0.11428862790E+03 -0.57320874795E+03  0.58814283498E+03  0.00000000000E+00 0. -1.
         15    1    4    4    0    0 -0.90306588770E+02  0.17182575437E+03 -0.40107113047E+03  0.44557538256E+03  0.00000000000E+00 0. -1.
        -16    1    6    6    0    0  0.18280533240E+03 -0.35798976460E+03 -0.10655330525E+04  0.11388306051E+04  0.00000000000E+00 0.  1.
         16    1    3    3    0    0  0.37068795723E+03 -0.84210342956E+03  0.12897853440E+04  0.15843276117E+04  0.00000000000E+00 0. -1.
    9900018    1    5    5    0    0 -0.28327248530E+02  0.87752081524E+02 -0.79680296567E+02  0.15220705922E+03  0.91187600000E+02 0.  0.
<mgrwt>
<rscale>  0 0.51099521E+04</rscale>
<asrwt>0</asrwt>
<pdfrwt beam="1">  1        2 0.32015383E+00 0.51099521E+04</pdfrwt>
<pdfrwt beam="2">  1       -2 0.48260103E+00 0.51099521E+04</pdfrwt>
<totfact> 0.92863080E-03</totfact>
</mgrwt>
</event>
<event>
13    1  0.2370590E-012  0.6044287E+04  0.7818608E-02  0.7684935E-01
          2   -1    0    0  501    0  0.00000000000E+00  0.00000000000E+00  0.20232046708E+04  0.20232046708E+04  0.00000000000E+00 0. -1.
         -2   -1    0    0    0  501 -0.00000000000E+00 -0.00000000000E+00 -0.45142987924E+04  0.45142987924E+04  0.00000000000E+00 0.  1.
    9900016    2    1    2    0    0  0.38612776625E+03  0.15804785620E+04  0.28939540474E+02  0.27851668488E+04  0.22603782298E+04 0.  0.
         23    2    3    3    0    0  0.22014663522E+03 -0.22286688361E+03  0.76409934123E+03  0.83066832881E+03  0.89598439775E+02 0.  0.
    9900016    2    1    2    0    0 -0.34294924042E+03 -0.14679927274E+04 -0.24311604389E+04  0.35770338013E+04  0.21475597563E+04 0.  0.
        -24    2    5    5    0    0 -0.94556421333E+02  0.24419033729E+03  0.25555958149E+03  0.38145336774E+03  0.10782455390E+03 0.  0.
        -15    1    4    4    0    0  0.59083268574E+02 -0.59210865504E+02  0.11538317400E+03  0.14251328381E+03  0.00000000000E+00 0. -1.
        -15    1    5    5    0    0 -0.24839281908E+03 -0.17121830647E+04 -0.26867200204E+04  0.31955804336E+04  0.00000000000E+00 0.  1.
         15    1    4    4    0    0  0.16106336665E+03 -0.16365601811E+03  0.64871616722E+03  0.68815504500E+03  0.00000000000E+00 0.  1.
         15    1    6    6    0    0 -0.68153375939E+02  0.75412837341E+02  0.47356322072E+02  0.11213652361E+03  0.00000000000E+00 0. -1.
        -16    1    6    6    0    0 -0.26403045394E+02  0.16877749995E+03  0.20820325942E+03  0.26931684412E+03  0.00000000000E+00 0.  1.
         16    1    3    3    0    0  0.16598113103E+03  0.18033454456E+04 -0.73515980075E+03  0.19544985200E+04  0.00000000000E+00 0. -1.
    9900018    1    1    2    0    0 -0.43178525837E+02 -0.11248583459E+03 -0.88873223182E+02  0.17530281307E+03  0.91187600000E+02 0.  0.
<mgrwt>
<rscale>  0 0.60442867E+04</rscale>
<asrwt>0</asrwt>
<pdfrwt beam="1">  1        2 0.31126226E+00 0.60442867E+04</pdfrwt>
<pdfrwt beam="2">  1       -2 0.69450751E+00 0.60442867E+04</pdfrwt>
<totfact> 0.10546038E-03</totfact>
</mgrwt>
</event>
<event>
13    1  0.2370590E-012  0.6102168E+04  0.7818608E-02  0.7677862E-01
          1   -1    0    0  501    0  0.00000000000E+00  0.00000000000E+00  0.22786286773E+04  0.22786286773E+04  0.00000000000E+00 0. -1.
         -1   -1    0    0    0  501 -0.00000000000E+00 -0.00000000000E+00 -0.40854019053E+04  0.40854019053E+04  0.00000000000E+00 0.  1.
    9900016    2    1    2    0    0 -0.14947771136E+04 -0.14398794489E+04 -0.10636882197E+04  0.32078524665E+04  0.22025606397E+04 0.  0.
         23    2    3    3    0    0  0.48797692840E+03 -0.66976835239E+03 -0.61068259602E+03  0.10330883903E+04  0.87334188886E+02 0.  0.
    9900016    2    1    2    0    0  0.13768258115E+04  0.13643673526E+04 -0.71274008703E+03  0.29863235341E+04  0.21570772427E+04 0.  0.
        -24    2    5    5    0    0  0.34849625090E+03 -0.77992829600E+02 -0.11127097411E+04  0.11703278556E+04  0.63338797034E+02 0.  0.
        -15    1    4    4    0    0  0.46052671988E+03 -0.63678111929E+03 -0.55185144162E+03  0.96026822671E+03  0.00000000000E+00 0. -1.
        -15    1    5    5    0    0  0.10283295606E+04  0.14423601822E+04  0.39996965408E+03  0.18159956785E+04  0.00000000000E+00 0.  1.
         15    1    4    4    0    0  0.27450208525E+02 -0.32987233093E+02 -0.58831154398E+02  0.72820163574E+02  0.00000000000E+00 0.  1.
         15    1    6    6    0    0  0.18569663399E+03 -0.69421472806E+02 -0.55875346410E+03  0.59288111322E+03  0.00000000000E+00 0. -1.
        -16    1    6    6    0    0  0.16279961692E+03 -0.85713567941E+01 -0.55395627701E+03  0.57744674236E+03  0.00000000000E+00 0.  1.
         16    1    3    3    0    0 -0.19827540420E+04 -0.77011109649E+03 -0.45300562366E+03  0.21747640762E+04  0.00000000000E+00 0. -1.
    9900018    1    1    2    0    0  0.11795130214E+03  0.75512096321E+02 -0.30344921251E+02  0.16985458194E+03  0.91187600000E+02 0.  0.
<mgrwt>
<rscale>  0 0.61021681E+04</rscale>
<asrwt>0</asrwt>
<pdfrwt beam="1">  1        1 0.35055826E+00 0.61021681E+04</pdfrwt>
<pdfrwt beam="2">  1       -1 0.62852336E+00 0.61021681E+04</pdfrwt>
<totfact> 0.45115701E-04</totfact>
</mgrwt>
</event>
