<event>
12    1  0.1736477E-010  0.2162776E+04  0.7818608E-02  0.9268464E-01
         -1   -1    0    0    0  501 -0.00000000000E+00  0.00000000000E+00  0.11176406451E+04  0.11176406451E+04  0.00000000000E+00 0.  1.
          1   -1    0    0  501    0  0.00000000000E+00 -0.00000000000E+00 -0.15083417706E+04  0.15083417706E+04  0.00000000000E+00 0. -1.
         23    2    1    2    0    0  0.35082249273E+01 -0.67827385535E+02  0.32761459923E+03  0.34704023615E+03  0.92156052475E+02 0.  0.
    9900016    2    1    2    0    0  0.26688494930E+03  0.12982342884E+03 -0.67445420426E+03  0.19980866810E+04  0.18572507134E+04 0.  0.
         24    2    4    4    0    0 -0.28063420033E+03  0.52052597737E+03 -0.32146379923E+03  0.67617488613E+03  0.64580607808E+02 0.  0.
        -15    1    3    3    0    0  0.37007935270E+02 -0.63186067377E+01  0.17698647064E+03  0.18092463307E+03  0.00000000000E+00 0.  1.
        -15    1    5    5    0    0 -0.51801286833E+02  0.52021741323E+02 -0.42748045266E+02  0.84953106253E+02  0.00000000000E+00 0.  1.
         15    1    3    3    0    0 -0.33499710343E+02 -0.61508778797E+02  0.15062812860E+03  0.16611560308E+03  0.00000000000E+00 0. -1.
         15    1    4    4    0    0 -0.13791730033E+03 -0.44202153474E+03  0.12515726580E+03  0.47965462583E+03  0.00000000000E+00 0. -1.
        -16    1    1    2    0    0 -0.27039317423E+03 -0.61996043303E+02 -0.43861520454E+02  0.28085549849E+03  0.00000000000E+00 0.  1.
         16    1    5    5    0    0 -0.22883291350E+03  0.46850423605E+03 -0.27871575396E+03  0.59122177988E+03  0.00000000000E+00 0. -1.
    9900018    1    4    4    0    0  0.68543644996E+03  0.51318986204E+02 -0.47814767084E+03  0.84225716904E+03  0.91187600000E+02 0.  0.
<mgrwt>
<rscale>  0 0.10373869E+04</rscale>
<asrwt>0</asrwt>
<pdfrwt beam="1">  1        1 0.23205258E+00 0.21627760E+04</pdfrwt>
<pdfrwt beam="2">  1       -1 0.17194471E+00 0.21627760E+04</pdfrwt>
<totfact> 0.13881289E+00</totfact>
</mgrwt>
</event>
<event>
12    1  0.1736477E-010  0.5254138E+04  0.7818608E-02  0.8347431E-01
          2   -1    0    0  501    0  0.00000000000E+00  0.00000000000E+00  0.47336769945E+04  0.47336769945E+04  0.00000000000E+00 0. -1.
         -2   -1    0    0    0  501 -0.00000000000E+00 -0.00000000000E+00 -0.16704158722E+04  0.16704158722E+04  0.00000000000E+00 0.  1.
         23    2    1    2    0    0  0.67909480141E+02 -0.32914111662E+03  0.34369259348E+03  0.48784263439E+03  0.83188130019E+02 0.  0.
    9900016    2    1    2    0    0  0.60252263033E+03 -0.11010408491E+03  0.39770647313E+04  0.44250385568E+04  0.18408601039E+04 0.  0.
         24    2    4    4    0    0  0.21681602296E+03  0.13048026866E+03  0.49312116898E+02  0.26503238567E+03  0.61450730303E+02 0.  0.
        -15    1    3    3    0    0  0.65715705140E+02 -0.17998137316E+03  0.23530948474E+03  0.30345082335E+03  0.00000000000E+00 0. -1.
        -15    1    5    5    0    0  0.10994797242E+03  0.69845914815E+02  0.56429639951E+02  0.14195531945E+03  0.00000000000E+00 0.  1.
         15    1    4    4    0    0 -0.30055556954E+03  0.64558897000E+02  0.22552094262E+03  0.38126263536E+03  0.00000000000E+00 0. -1.
         15    1    3    3    0    0  0.21937750004E+01 -0.14915974346E+03  0.10838310874E+03  0.18439181104E+03  0.00000000000E+00 0.  1.
        -16    1    1    2    0    0 -0.67043211047E+03  0.43924520153E+03 -0.12574962025E+04  0.14912116755E+04  0.00000000000E+00 0.  1.
         16    1    5    5    0    0  0.10686805054E+03  0.60634353849E+02 -0.71175230527E+01  0.12307706622E+03  0.00000000000E+00 0. -1.
    9900018    1    4    4    0    0  0.68626217690E+03 -0.30514325057E+03  0.37022316718E+04  0.37787435357E+04  0.91187600000E+02 0.  0.
<mgrwt>
<rscale>  0 0.26620305E+04</rscale>
<asrwt>0</asrwt>
<pdfrwt beam="1">  1        2 0.72825800E+00 0.52541378E+04</pdfrwt>
<pdfrwt beam="2">  1       -2 0.25698706E+00 0.52541378E+04</pdfrwt>
<totfact> 0.28534831E-03</totfact>
</mgrwt>
</event>
<event>
11    1  0.1736477E-010  0.2272346E+04  0.7818608E-02  0.8488905E-01
         -1   -1    0    0    0  501 -0.00000000000E+00  0.00000000000E+00  0.65675259292E+03  0.65675259292E+03  0.00000000000E+00 0.  1.
          1   -1    0    0  501    0  0.00000000000E+00 -0.00000000000E+00 -0.19655632146E+04  0.19655632146E+04  0.00000000000E+00 0. -1.
         23    2    1    2    0    0  0.47829239883E+02  0.81851435855E+02  0.13896206366E+03  0.18712021551E+03  0.81952584935E+02 0.  0.
    9900016    2    1    2    0    0  0.60945578313E+02 -0.85356143587E+02 -0.13188369838E+04  0.22664690109E+04  0.18402583386E+04 0.  0.
        -15    1    3    3    0    0  0.29606677805E+02  0.13214352270E+02  0.10206758508E+03  0.10709326029E+03  0.00000000000E+00 0.  1.
        -15    1    4    4    0    0 -0.35722648562E+03 -0.75497741829E+02 -0.15560797345E+03  0.39689357824E+03  0.00000000000E+00 0.  1.
         15    1    4    4    0    0  0.23171541804E+03 -0.79685537210E+02 -0.99303266752E+03  0.10228175295E+04  0.00000000000E+00 0. -1.
         15    1    3    3    0    0  0.18222562078E+02  0.68637083585E+02  0.36894478579E+02  0.80026955218E+02  0.00000000000E+00 0. -1.
        -16    1    4    4    0    0  0.15949597743E+03 -0.14941462820E+03 -0.43698456746E+03  0.48858899920E+03  0.00000000000E+00 0.  1.
         16    1    1    2    0    0 -0.10877481820E+03  0.35047077318E+01 -0.12893570155E+03  0.16872658114E+03  0.00000000000E+00 0. -1.
    9900018    1    4    4    0    0  0.26960668460E+02  0.21924176365E+03  0.26678822465E+03  0.35816890398E+03  0.91187600000E+02 0.  0.
<mgrwt>
<rscale>  0 0.22723457E+04</rscale>
<asrwt>0</asrwt>
<pdfrwt beam="1">  1        1 0.30239433E+00 0.22723457E+04</pdfrwt>
<pdfrwt beam="2">  1       -1 0.10103886E+00 0.22723457E+04</pdfrwt>
<totfact> 0.26515060E+00</totfact>
</mgrwt>
</event>
<event>
12    1  0.1736477E-010  0.3499576E+04  0.7818608E-02  0.8741268E-01
         -2   -1    0    0    0  501 -0.00000000000E+00  0.00000000000E+00  0.15124245113E+04  0.15124245113E+04  0.00000000000E+00 0. -1.
          2   -1    0    0  501    0  0.00000000000E+00 -0.00000000000E+00 -0.28636576759E+04  0.28636576759E+04  0.00000000000E+00 0.  1.
         23    2    1    2    0    0 -0.18522570766E+03  0.48219860066E+02 -0.80714882414E+03  0.83446437437E+03  0.90597185925E+02 0.  0.
    9900016    2    1    2    0    0  0.11469271045E+04  0.46223159818E+03 -0.90174167971E+03  0.23956033975E+04  0.18430077991E+04 0.  0.
         24    2    4    4    0    0 -0.19544509857E+03  0.48168954599E+03 -0.42452259217E+03  0.67440579704E+03  0.66182645337E+02 0.  0.
        -15    1    5    5    0    0 -0.10857902530E+03  0.28200774958E+03 -0.28764298834E+03  0.41720050851E+03  0.00000000000E+00 0.  1.
        -15    1    3    3    0    0 -0.30441966365E+02  0.40462819580E+02 -0.29731407087E+03  0.30159510908E+03  0.00000000000E+00 0.  1.
         15    1    3    3    0    0 -0.15478374129E+03  0.77570404857E+01 -0.50983475327E+03  0.53286926528E+03  0.00000000000E+00 0. -1.
         15    1    4    4    0    0  0.65436244575E+03 -0.48418789665E+03 -0.29861143313E+03  0.86706223402E+03  0.00000000000E+00 0. -1.
        -16    1    1    2    0    0 -0.96170139688E+03 -0.51045145825E+03  0.35765733925E+03  0.11460144154E+04  0.00000000000E+00 0.  1.
         16    1    5    5    0    0 -0.86866073272E+02  0.19968179641E+03 -0.13687960383E+03  0.25720528854E+03  0.00000000000E+00 0. -1.
    9900018    1    4    4    0    0  0.68800975736E+03  0.46472994884E+03 -0.17860765440E+03  0.85413536643E+03  0.91187600000E+02 0.  0.
<mgrwt>
<rscale>  0 0.17356879E+04</rscale>
<asrwt>0</asrwt>
<pdfrwt beam="1">  1        2 0.44056271E+00 0.34995755E+04</pdfrwt>
<pdfrwt beam="2">  1       -2 0.23268070E+00 0.34995755E+04</pdfrwt>
<totfact> 0.13970774E-01</totfact>
</mgrwt>
</event>
<event>
12    1  0.1736477E-010  0.5815456E+04  0.7818608E-02  0.7713714E-01
          1   -1    0    0  501    0  0.00000000000E+00  0.00000000000E+00  0.24216122777E+04  0.24216122777E+04  0.00000000000E+00 0. -1.
         -1   -1    0    0    0  501 -0.00000000000E+00 -0.00000000000E+00 -0.34914262619E+04  0.34914262619E+04  0.00000000000E+00 0.  1.
    9900016    2    1    2    0    0  0.26636046390E+03 -0.12423284937E+04 -0.23770919617E+04  0.33150105198E+04  0.19298706094E+04 0.  0.
         23    2    3    3    0    0 -0.19086916288E+03  0.20695615617E+03  0.17558659033E+03  0.34421050667E+03  0.91587850091E+02 0.  0.
    9900016    2    1    2    0    0 -0.26636046390E+03  0.12423284937E+04  0.13072779775E+04  0.25980280198E+04  0.18510661518E+04 0.  0.
        -15    1    4    4    0    0 -0.18010857825E+03  0.18897258180E+03  0.12496747107E+03  0.28942461101E+03  0.00000000000E+00 0.  1.
        -15    1    5    5    0    0  0.94898282082E+02  0.56486193292E+03  0.14206535159E+03  0.59013324879E+03  0.00000000000E+00 0.  1.
         15    1    5    5    0    0 -0.12343435560E+03 -0.34772126915E+03  0.38917974183E+03  0.53629002658E+03  0.00000000000E+00 0. -1.
         15    1    4    4    0    0 -0.10760584623E+02  0.17983574371E+02  0.50619119261E+02  0.54785895660E+02  0.00000000000E+00 0. -1.
        -16    1    3    3    0    0  0.45722962678E+03 -0.14492846498E+04 -0.25526785521E+04  0.29708000131E+04  0.00000000000E+00 0.  1.
         16    1    5    5    0    0 -0.17515048779E+03  0.54145622284E+03  0.22711462056E+02  0.56953344514E+03  0.00000000000E+00 0. -1.
    9900018    1    5    5    0    0 -0.62673902598E+02  0.48373160707E+03  0.75332142205E+03  0.90207129932E+03  0.91187600000E+02 0.  0.
<mgrwt>
<rscale>  0 0.58154555E+04</rscale>
<asrwt>0</asrwt>
<pdfrwt beam="1">  1        1 0.37255574E+00 0.58154555E+04</pdfrwt>
<pdfrwt beam="2">  1       -1 0.53714250E+00 0.58154555E+04</pdfrwt>
<totfact> 0.93271374E-04</totfact>
</mgrwt>
</event>
<event>
11    1  0.1736477E-010  0.3881371E+04  0.7818608E-02  0.8446234E-01
         -2   -1    0    0    0  501 -0.00000000000E+00  0.00000000000E+00  0.19760833175E+04  0.19760833175E+04  0.00000000000E+00 0.  1.
          2   -1    0    0  501    0  0.00000000000E+00 -0.00000000000E+00 -0.25379789537E+04  0.25379789537E+04  0.00000000000E+00 0. -1.
         23    2    1    2    0    0 -0.14175664149E+03 -0.52398721701E+03 -0.29206169391E+03  0.62332295382E+03  0.92595478914E+02 0.  0.
    9900016    2    1    2    0    0 -0.47494376587E+03  0.16936700301E+04 -0.34855954835E+03  0.25660978577E+04  0.18355584178E+04 0.  0.
        -15    1    3    3    0    0 -0.14940714391E+03 -0.41069369872E+03 -0.23628130531E+03  0.49681049109E+03  0.00000000000E+00 0.  1.
        -15    1    4    4    0    0 -0.54167764502E+02 -0.17962966321E+03  0.96595549302E+02  0.21102526569E+03  0.00000000000E+00 0.  1.
         15    1    4    4    0    0 -0.14832489845E+03  0.96900715278E+03 -0.48222882551E+03  0.10924833078E+04  0.00000000000E+00 0. -1.
         15    1    3    3    0    0  0.76505024182E+01 -0.11329351829E+03 -0.55780388598E+02  0.12651246273E+03  0.00000000000E+00 0. -1.
        -16    1    1    2    0    0  0.61670040736E+03 -0.11696828131E+04  0.78725606103E+02  0.13246414597E+04  0.00000000000E+00 0.  1.
         16    1    4    4    0    0 -0.15680088688E+01 -0.15190372248E+03  0.71422405086E+02  0.16786411023E+03  0.00000000000E+00 0. -1.
    9900018    1    4    4    0    0 -0.27088309405E+03  0.10561962630E+04 -0.34348677227E+02  0.10947251740E+04  0.91187600000E+02 0.  0.
<mgrwt>
<rscale>  0 0.23821037E+04</rscale>
<asrwt>0</asrwt>
<pdfrwt beam="1">  1        2 0.39045830E+00 0.38813712E+04</pdfrwt>
<pdfrwt beam="2">  1       -2 0.30401282E+00 0.38813712E+04</pdfrwt>
<totfact> 0.77464823E-02</totfact>
</mgrwt>
</event>
<event>
12    1  0.1736477E-010  0.4081320E+04  0.7818608E-02  0.8429070E-01
         -2   -1    0    0    0  501 -0.00000000000E+00  0.00000000000E+00  0.22731680009E+04  0.22731680009E+04  0.00000000000E+00 0. -1.
          2   -1    0    0  501    0  0.00000000000E+00 -0.00000000000E+00 -0.27590760161E+04  0.27590760161E+04  0.00000000000E+00 0.  1.
         23    2    1    2    0    0 -0.32189279086E+03 -0.38596965132E+03  0.62013379258E+03  0.80371030221E+03  0.93791197040E+02 0.  0.
    9900016    2    1    2    0    0  0.16413099501E+04  0.74364625348E+03 -0.17652512362E+03  0.25754168230E+04  0.18315847211E+04 0.  0.
         24    2    4    4    0    0 -0.18802966480E+03  0.80723399846E+02 -0.31379708805E+03  0.38822010881E+03  0.10185685196E+03 0.  0.
        -15    1    3    3    0    0 -0.48404786541E+02 -0.44828230933E+02  0.13728562122E+03  0.15231525020E+03  0.00000000000E+00 0.  1.
        -15    1    5    5    0    0 -0.11821847242E+03  0.97634425574E+02 -0.18074292205E+03  0.23701496187E+03  0.00000000000E+00 0.  1.
         15    1    4    4    0    0  0.12617376889E+04 -0.51803135692E+02  0.13463706917E+03  0.12699577555E+04  0.00000000000E+00 0. -1.
         15    1    3    3    0    0 -0.27348800432E+03 -0.34114142038E+03  0.48284817135E+03  0.65139505201E+03  0.00000000000E+00 0. -1.
        -16    1    1    2    0    0 -0.13194171593E+04 -0.35767660216E+03 -0.92951668417E+03  0.16531168918E+04  0.00000000000E+00 0.  1.
         16    1    5    5    0    0 -0.69811192384E+02 -0.16911025728E+02 -0.13305416600E+03  0.15120514694E+03  0.00000000000E+00 0. -1.
    9900018    1    4    4    0    0  0.56760192602E+03  0.71472598933E+03  0.26348952601E+01  0.91723895867E+03  0.91187600000E+02 0.  0.
<mgrwt>
<rscale>  0 0.24280655E+04</rscale>
<asrwt>0</asrwt>
<pdfrwt beam="1">  1        2 0.42447323E+00 0.40813195E+04</pdfrwt>
<pdfrwt beam="2">  1       -2 0.34971816E+00 0.40813195E+04</pdfrwt>
<totfact> 0.29011370E-02</totfact>
</mgrwt>
</event>
