<event>
11    1  0.2013703E-014  0.1008896E+04  0.7818608E-02  0.9298842E-01
          1   -1    0    0  501    0  0.00000000000E+00  0.00000000000E+00  0.17098118885E+03  0.17098118885E+03  0.00000000000E+00 0. -1.
         -1   -1    0    0    0  501 -0.00000000000E+00 -0.00000000000E+00 -0.14882782337E+04  0.14882782337E+04  0.00000000000E+00 0.  1.
    9900016    2    1    2    0    0 -0.56631505253E+02  0.25570426977E+01 -0.13766498790E+04  0.15771836967E+04  0.76754795149E+03 0.  0.
         23    2    3    3    0    0 -0.18611729235E+03 -0.52665075916E+02 -0.39876320496E+03  0.45294269868E+03  0.93443768786E+02 0.  0.
        -15    1    3    3    0    0  0.60982849032E+02  0.11897261521E+03 -0.27982845462E+03  0.31012474113E+03  0.00000000000E+00 0.  1.
        -15    1    4    4    0    0 -0.18208975209E+03 -0.34436644354E+02 -0.30146353311E+03  0.35386836830E+03  0.00000000000E+00 0.  1.
         15    1    3    3    0    0  0.19695341749E+03 -0.23555306889E+02 -0.29636225987E+03  0.35661756858E+03  0.00000000000E+00 0. -1.
         15    1    4    4    0    0 -0.40275402644E+01 -0.18228431562E+02 -0.97299671857E+02  0.99074330385E+02  0.00000000000E+00 0. -1.
        -16    1    3    3    0    0 -0.82509403222E+02 -0.36095006625E+02 -0.81749033976E+02  0.12162876173E+03  0.00000000000E+00 0.  1.
         16    1    1    2    0    0  0.56631505253E+02 -0.25570426977E+01  0.59352834156E+02  0.82075725869E+02  0.00000000000E+00 0. -1.
    9900018    1    3    3    0    0 -0.45941076204E+02 -0.41001830788E+01 -0.31994692559E+03  0.33586992657E+03  0.91187600000E+02 0.  0.
<mgrwt>
<rscale>  0 0.10088956E+04</rscale>
<asrwt>0</asrwt>
<pdfrwt beam="1">  1        1 0.26304797E-01 0.10088956E+04</pdfrwt>
<pdfrwt beam="2">  1       -1 0.22896589E+00 0.10088956E+04</pdfrwt>
<totfact> 0.17624239E+01</totfact>
</mgrwt>
</event>
<event>
12    1  0.2013703E-014  0.1030052E+04  0.7818608E-02  0.9276185E-01
         -2   -1    0    0    0  501 -0.00000000000E+00  0.00000000000E+00  0.18005151871E+03  0.18005151871E+03  0.00000000000E+00 0.  1.
          2   -1    0    0  501    0  0.00000000000E+00 -0.00000000000E+00 -0.14731985675E+04  0.14731985675E+04  0.00000000000E+00 0. -1.
    9900016    2    1    2    0    0 -0.24018302286E+02 -0.10354554063E+03 -0.63278172238E+03  0.92086088535E+03  0.66051003335E+03 0.  0.
         23    2    3    3    0    0 -0.70895563552E+02 -0.11533695142E+03 -0.60292004193E+03  0.62667555102E+03  0.10431143750E+03 0.  0.
         23    2    3    3    0    0  0.15029841517E+03  0.22411356258E+02 -0.47645232828E+02  0.18871034652E+03  0.10124052638E+03 0.  0.
        -15    1    5    5    0    0  0.20943424218E+02 -0.19722093055E+02 -0.44058952285E+02  0.52619190880E+02  0.00000000000E+00 0.  1.
        -15    1    4    4    0    0  0.20847632825E+02  0.14945084412E+01 -0.10540376569E+03  0.10745608950E+03  0.00000000000E+00 0.  1.
         15    1    5    5    0    0  0.12935499096E+03  0.42133449313E+02 -0.35862805424E+01  0.13609115564E+03  0.00000000000E+00 0. -1.
         15    1    4    4    0    0 -0.91743196378E+02 -0.11683145986E+03 -0.49751627624E+03  0.51921946152E+03  0.00000000000E+00 0. -1.
        -16    1    3    3    0    0 -0.10342115391E+03 -0.10619945471E+02  0.17783552376E+02  0.10547498780E+03  0.00000000000E+00 0.  1.
         16    1    1    2    0    0  0.47398676169E+02  0.16281130286E+03 -0.55056607798E+03  0.57608780673E+03  0.00000000000E+00 0. -1.
    9900018    1    1    2    0    0 -0.23380373883E+02 -0.59265762229E+02 -0.10979924840E+03  0.15630139410E+03  0.91187600000E+02 0.  0.
<mgrwt>
<rscale>  0 0.10300517E+04</rscale>
<asrwt>0</asrwt>
<pdfrwt beam="1">  1        2 0.22664593E+00 0.10300517E+04</pdfrwt>
<pdfrwt beam="2">  1       -2 0.27700234E-01 0.10300517E+04</pdfrwt>
<totfact> 0.15566273E+02</totfact>
</mgrwt>
</event>
<event>
12    1  0.2013703E-014  0.9811283E+03  0.7818608E-02  0.9329489E-01
         -1   -1    0    0    0  501 -0.00000000000E+00  0.00000000000E+00  0.13659052356E+03  0.13659052356E+03  0.00000000000E+00 0.  1.
          1   -1    0    0  501    0  0.00000000000E+00 -0.00000000000E+00 -0.17618586357E+04  0.17618586357E+04  0.00000000000E+00 0. -1.
    9900016    2    1    2    0    0  0.45907506004E+02 -0.58177633674E+02 -0.95989860553E+03  0.12289652412E+04  0.76384428719E+03 0.  0.
         23    2    3    3    0    0  0.14112715909E+03 -0.77323612855E+02 -0.71392982733E+03  0.73582516740E+03  0.76466087180E+02 0.  0.
         23    2    3    3    0    0  0.69567909307E+01 -0.10677958240E+03 -0.78730212243E+02  0.16155752206E+03  0.91935360206E+02 0.  0.
        -15    1    5    5    0    0  0.13795074003E+02 -0.16586812753E+02  0.18745476798E+02  0.28580051162E+02  0.00000000000E+00 0.  1.
        -15    1    4    4    0    0  0.11808047111E+03 -0.29214961240E+02 -0.42744094000E+03  0.44441227346E+03  0.00000000000E+00 0.  1.
         15    1    4    4    0    0  0.23046687972E+02 -0.48108651614E+02 -0.28648888733E+03  0.29141289393E+03  0.00000000000E+00 0. -1.
         15    1    5    5    0    0 -0.68382830719E+01 -0.90192769646E+02 -0.97475689041E+02  0.13297747090E+03  0.00000000000E+00 0. -1.
        -16    1    3    3    0    0 -0.46295029916E+02  0.13650069397E+03 -0.14557601629E+02  0.14487095297E+03  0.00000000000E+00 0.  1.
         16    1    1    2    0    0 -0.45907506004E+02  0.58177633674E+02 -0.66536950658E+03  0.66948391800E+03  0.00000000000E+00 0. -1.
    9900018    1    3    3    0    0 -0.55881414096E+02 -0.10575132387E+02 -0.15268096433E+03  0.18671159881E+03  0.91187600000E+02 0.  0.
<mgrwt>
<rscale>  0 0.98112832E+03</rscale>
<asrwt>0</asrwt>
<pdfrwt beam="1">  1        1 0.27105517E+00 0.98112832E+03</pdfrwt>
<pdfrwt beam="2">  1       -1 0.21013927E-01 0.98112832E+03</pdfrwt>
<totfact> 0.81901854E+01</totfact>
</mgrwt>
</event>
<event>
12    1  0.2013703E-014  0.9806853E+03  0.7818608E-02  0.9329986E-01
         -2   -1    0    0    0  501 -0.00000000000E+00  0.00000000000E+00  0.24967625011E+03  0.24967625011E+03  0.00000000000E+00 0. -1.
          2   -1    0    0  501    0  0.00000000000E+00 -0.00000000000E+00 -0.96299068487E+03  0.96299068487E+03  0.00000000000E+00 0.  1.
    9900016    2    1    2    0    0  0.12729037992E+03 -0.91319787900E+02 -0.72891602198E+03  0.10552326503E+04  0.74676317170E+03 0.  0.
         23    2    3    3    0    0  0.39648204691E+02  0.47147250108E+02 -0.28449035483E+02  0.10310502388E+03  0.77630245409E+02 0.  0.
         23    2    3    3    0    0  0.28225402421E+03  0.78530061254E+01 -0.44588401538E+03  0.53564933398E+03  0.91534965659E+02 0.  0.
        -15    1    4    4    0    0  0.55976365594E+02  0.89203121337E+01 -0.97100822178E+01  0.57508357396E+02  0.00000000000E+00 0. -1.
        -15    1    5    5    0    0  0.23319112631E+03  0.77816746236E+01 -0.28989269722E+03  0.37212421548E+03  0.00000000000E+00 0.  1.
         15    1    5    5    0    0  0.49062897901E+02  0.71331501826E-01 -0.15599131816E+03  0.16352511850E+03  0.00000000000E+00 0. -1.
         15    1    4    4    0    0 -0.16328160903E+02  0.38226937974E+02 -0.18738953266E+02  0.45596666488E+02  0.00000000000E+00 0.  1.
        -16    1    3    3    0    0 -0.20113752776E+03 -0.11851244937E+03 -0.19182322262E+03  0.30215501728E+03  0.00000000000E+00 0.  1.
         16    1    1    2    0    0 -0.12729037992E+03  0.91319787900E+02  0.15601587225E+02  0.15743428472E+03  0.00000000000E+00 0. -1.
    9900018    1    3    3    0    0  0.65256787746E+01 -0.27807594764E+02 -0.62759748499E+02  0.11432327513E+03  0.91187600000E+02 0.  0.
<mgrwt>
<rscale>  0 0.98068528E+03</rscale>
<asrwt>0</asrwt>
<pdfrwt beam="1">  1        2 0.14815241E+00 0.98068528E+03</pdfrwt>
<pdfrwt beam="2">  1       -2 0.38411731E-01 0.98068528E+03</pdfrwt>
<totfact> 0.17013232E+02</totfact>
</mgrwt>
</event>
<event>
12    1  0.2013703E-014  0.1076419E+04  0.7818608E-02  0.9228486E-01
          1   -1    0    0  501    0  0.00000000000E+00  0.00000000000E+00  0.19063741780E+04  0.19063741780E+04  0.00000000000E+00 0. -1.
         -1   -1    0    0    0  501 -0.00000000000E+00 -0.00000000000E+00 -0.15194775440E+03  0.15194775440E+03  0.00000000000E+00 0.  1.
    9900016    2    1    2    0    0  0.18668538324E+02 -0.16915247124E+03  0.92170291645E+03  0.12083869277E+04  0.76269366591E+03 0.  0.
         23    2    3    3    0    0  0.21414598174E+03  0.10480713940E+03  0.21800445612E+03  0.34024903668E+03  0.10677277796E+03 0.  0.
         23    2    3    3    0    0 -0.11570217738E+03 -0.26027408559E+02  0.19506946310E+03  0.24687780041E+03  0.93979428875E+02 0.  0.
        -15    1    4    4    0    0  0.47004561098E+01  0.29753923800E+02  0.20544726140E+01  0.30192898616E+02  0.00000000000E+00 0.  1.
        -15    1    5    5    0    0 -0.16518054156E+02  0.30557513281E+02  0.65726724323E+02  0.74341173123E+02  0.00000000000E+00 0.  1.
         15    1    4    4    0    0  0.20944552563E+03  0.75053215596E+02  0.21594998350E+03  0.31005613806E+03  0.00000000000E+00 0. -1.
         15    1    5    5    0    0 -0.99184123225E+02 -0.56584921840E+02  0.12934273878E+03  0.17253662728E+03  0.00000000000E+00 0. -1.
        -16    1    3    3    0    0 -0.30111849786E+02 -0.25051307598E+03  0.37570125582E+03  0.45256486647E+03  0.00000000000E+00 0.  1.
         16    1    1    2    0    0 -0.18668538324E+02  0.16915247124E+03  0.83272350718E+03  0.84993500473E+03  0.00000000000E+00 0. -1.
    9900018    1    3    3    0    0 -0.49663416244E+02  0.25808738981E+01  0.13292774141E+03  0.16869522415E+03  0.91187600000E+02 0.  0.
<mgrwt>
<rscale>  0 0.10764186E+04</rscale>
<asrwt>0</asrwt>
<pdfrwt beam="1">  1        1 0.29328832E+00 0.10764186E+04</pdfrwt>
<pdfrwt beam="2">  1       -1 0.23376579E-01 0.10764186E+04</pdfrwt>
<totfact> 0.54222656E+01</totfact>
</mgrwt>
</event>
<event>
12    1  0.2013703E-014  0.7958372E+03  0.7818608E-02  0.9566062E-01
         -1   -1    0    0    0  501 -0.00000000000E+00  0.00000000000E+00  0.63417348257E+03  0.63417348257E+03  0.00000000000E+00 0.  1.
          1   -1    0    0  501    0  0.00000000000E+00 -0.00000000000E+00 -0.24967804911E+03  0.24967804911E+03  0.00000000000E+00 0. -1.
    9900016    2    1    2    0    0 -0.42274666901E+02  0.23180066868E+01  0.31743002307E+03  0.74033821222E+03  0.66749256798E+03 0.  0.
         23    2    3    3    0    0  0.91921020890E+01 -0.19519167936E+03  0.14204661524E+02  0.20838751044E+03  0.70987996641E+02 0.  0.
         23    2    3    3    0    0 -0.66167180237E+02  0.79016095760E+01 -0.57279475640E+02  0.12435891777E+03  0.87998130234E+02 0.  0.
        -15    1    5    5    0    0 -0.33813189545E+02  0.35865706645E+02  0.41984697590E+01  0.49470272374E+02  0.00000000000E+00 0. -1.
        -15    1    4    4    0    0 -0.12942303006E+02 -0.28376665660E+01 -0.41796460304E+01  0.13893343714E+02  0.00000000000E+00 0.  1.
         15    1    4    4    0    0  0.22134405095E+02 -0.19235401280E+03  0.18384307555E+02  0.19449416673E+03  0.00000000000E+00 0. -1.
         15    1    5    5    0    0 -0.32353990691E+02 -0.27964097069E+02 -0.61477945399E+02  0.74888645395E+02  0.00000000000E+00 0.  1.
        -16    1    1    2    0    0  0.25103799406E+02  0.19004944964E+02  0.20057722888E+02  0.37332304043E+02  0.00000000000E+00 0.  1.
         16    1    3    3    0    0  0.14700411247E+02  0.18960807647E+03  0.36050483719E+03  0.40759178401E+03  0.00000000000E+00 0. -1.
    9900018    1    1    2    0    0  0.17170867495E+02 -0.21322951651E+02  0.47007687496E+02  0.10618101542E+03  0.91187600000E+02 0.  0.
<mgrwt>
<rscale>  0 0.79583716E+03</rscale>
<asrwt>0</asrwt>
<pdfrwt beam="1">  1        1 0.38412008E-01 0.79583716E+03</pdfrwt>
<pdfrwt beam="2">  1       -1 0.97565150E-01 0.79583716E+03</pdfrwt>
<totfact> 0.11374979E+02</totfact>
</mgrwt>
</event>
<event>
12    1  0.2013703E-014  0.8254071E+03  0.7818608E-02  0.9523952E-01
          1   -1    0    0  501    0  0.00000000000E+00  0.00000000000E+00  0.20297527072E+03  0.20297527072E+03  0.00000000000E+00 0. -1.
         -1   -1    0    0    0  501 -0.00000000000E+00 -0.00000000000E+00 -0.83913769153E+03  0.83913769153E+03  0.00000000000E+00 0.  1.
    9900016    2    1    2    0    0 -0.43012112365E+02  0.54117850641E+02 -0.61762647742E+03  0.97054226458E+03  0.74546028610E+03 0.  0.
         23    2    3    3    0    0 -0.13928232910E+03  0.25189082370E+03 -0.12841045930E+03  0.32459225830E+03  0.77603697250E+02 0.  0.
         23    2    3    3    0    0 -0.40301882100E+02 -0.13188384311E+03 -0.17386806411E+03  0.24070190477E+03  0.93218632619E+02 0.  0.
        -15    1    5    5    0    0 -0.31006870104E+02  0.14714923793E+00 -0.53294969901E+02  0.61658750096E+02  0.00000000000E+00 0. -1.
        -15    1    4    4    0    0 -0.85617149193E+02  0.20922378569E+03 -0.11874936051E+03  0.25535524149E+03  0.00000000000E+00 0. -1.
         15    1    5    5    0    0 -0.92950119961E+01 -0.13203099234E+03 -0.12057309421E+03  0.17904315467E+03  0.00000000000E+00 0.  1.
         15    1    4    4    0    0 -0.53665179911E+02  0.42667038015E+02 -0.96610987898E+01  0.69237016816E+02  0.00000000000E+00 0.  1.
        -16    1    3    3    0    0  0.13358093866E+03 -0.76149805732E+02 -0.24635751791E+03  0.29040435037E+03  0.00000000000E+00 0.  1.
         16    1    1    2    0    0  0.43012112365E+02 -0.54117850641E+02 -0.18535943385E+02  0.71570697672E+02  0.00000000000E+00 0. -1.
    9900018    1    3    3    0    0  0.29911601741E+01  0.10260675778E+02 -0.68990436103E+02  0.11484375113E+03  0.91187600000E+02 0.  0.
<mgrwt>
<rscale>  0 0.82540705E+03</rscale>
<asrwt>0</asrwt>
<pdfrwt beam="1">  1        1 0.31226964E-01 0.82540705E+03</pdfrwt>
<pdfrwt beam="2">  1       -1 0.12909811E+00 0.82540705E+03</pdfrwt>
<totfact> 0.76241573E+01</totfact>
</mgrwt>
</event>
<event>
11    1  0.2013703E-014  0.1019942E+04  0.7818608E-02  0.9286939E-01
          2   -1    0    0  501    0  0.00000000000E+00  0.00000000000E+00  0.29387102539E+04  0.29387102539E+04  0.00000000000E+00 0. -1.
         -2   -1    0    0    0  501 -0.00000000000E+00 -0.00000000000E+00 -0.88498153925E+02  0.88498153925E+02  0.00000000000E+00 0.  1.
    9900016    2    1    2    0    0 -0.15105545760E+03  0.90503137843E+02  0.15509866889E+04  0.16967822803E+04  0.66520810920E+03 0.  0.
         23    2    3    3    0    0  0.10122541025E+03 -0.85267279174E+01  0.35503202921E+03  0.38055939182E+03  0.91969669845E+02 0.  0.
        -15    1    3    3    0    0 -0.24722932537E+03  0.23025804317E+03  0.76306243273E+03  0.83450906647E+03  0.00000000000E+00 0.  1.
        -15    1    4    4    0    0  0.36207121278E+02  0.22637340258E+01  0.25113716076E+02  0.44122317008E+02  0.00000000000E+00 0.  1.
         15    1    3    3    0    0 -0.18624612252E+02  0.36432747091E+02  0.11498300243E+03  0.12204635222E+03  0.00000000000E+00 0. -1.
         15    1    4    4    0    0  0.65018288968E+02 -0.10790461943E+02  0.32991831313E+03  0.33643707481E+03  0.00000000000E+00 0. -1.
        -16    1    3    3    0    0  0.13573069773E+02 -0.16766092450E+03  0.31790922451E+03  0.35966746983E+03  0.00000000000E+00 0.  1.
         16    1    1    2    0    0  0.16833694125E+03 -0.86601170817E+02  0.97239963733E+03  0.99065541096E+03  0.00000000000E+00 0. -1.
    9900018    1    1    2    0    0 -0.17281483650E+02 -0.39019670262E+01  0.32682577376E+03  0.33977071653E+03  0.91187600000E+02 0.  0.
<mgrwt>
<rscale>  0 0.10199420E+04</rscale>
<asrwt>0</asrwt>
<pdfrwt beam="1">  1        2 0.45210919E+00 0.10199420E+04</pdfrwt>
<pdfrwt beam="2">  1       -2 0.13615103E-01 0.10199420E+04</pdfrwt>
<totfact> 0.80103490E+01</totfact>
</mgrwt>
</event>
<event>
12    1  0.2013703E-014  0.9924374E+03  0.7818608E-02  0.9316878E-01
          2   -1    0    0  501    0  0.00000000000E+00  0.00000000000E+00  0.12446900190E+04  0.12446900190E+04  0.00000000000E+00 0. -1.
         -2   -1    0    0    0  501 -0.00000000000E+00 -0.00000000000E+00 -0.19782677418E+03  0.19782677418E+03  0.00000000000E+00 0.  1.
    9900016    2    1    2    0    0 -0.19614990549E+03  0.15584662085E+02  0.74752406070E+03  0.10842967292E+04  0.76038773558E+03 0.  0.
         23    2    3    3    0    0  0.54018777119E+02 -0.15184170494E+03  0.29267864313E+03  0.34146507125E+03  0.70453354109E+02 0.  0.
         23    2    3    3    0    0  0.10926025025E+03  0.38665994628E+02  0.11382120046E+03  0.18591321229E+03  0.90418999145E+02 0.  0.
        -15    1    5    5    0    0  0.52268434726E+02 -0.18219198330E+02  0.12957113438E+02  0.56849056678E+02  0.00000000000E+00 0.  1.
        -15    1    4    4    0    0  0.26010881063E+02 -0.12608862610E+03  0.17145217587E+03  0.21440792004E+03  0.00000000000E+00 0.  1.
         15    1    5    5    0    0  0.56991815525E+02  0.56885192957E+02  0.10086408702E+03  0.12906415562E+03  0.00000000000E+00 0. -1.
         15    1    4    4    0    0  0.28007896056E+02 -0.25753078835E+02  0.12122646726E+03  0.12705715121E+03  0.00000000000E+00 0. -1.
        -16    1    3    3    0    0 -0.28922809081E+03  0.14009436123E+03  0.21955758795E+03  0.38921055097E+03  0.00000000000E+00 0.  1.
         16    1    1    2    0    0  0.19614990549E+03 -0.15584662085E+02  0.29933918411E+03  0.35822006402E+03  0.00000000000E+00 0. -1.
    9900018    1    3    3    0    0 -0.70200842048E+02 -0.11333988833E+02  0.12146662917E+03  0.16770789464E+03  0.91187600000E+02 0.  0.
<mgrwt>
<rscale>  0 0.99243743E+03</rscale>
<asrwt>0</asrwt>
<pdfrwt beam="1">  1        2 0.19149077E+00 0.99243743E+03</pdfrwt>
<pdfrwt beam="2">  1       -2 0.30434889E-01 0.99243743E+03</pdfrwt>
<totfact> 0.17736291E+02</totfact>
</mgrwt>
</event>
<event>
12    1  0.2013703E-014  0.9572425E+03  0.7818608E-02  0.9356725E-01
         -2   -1    0    0    0  501 -0.00000000000E+00  0.00000000000E+00  0.24869264756E+03  0.24869264756E+03  0.00000000000E+00 0.  1.
          2   -1    0    0  501    0  0.00000000000E+00 -0.00000000000E+00 -0.92113012668E+03  0.92113012668E+03  0.00000000000E+00 0. -1.
    9900016    2    1    2    0    0 -0.14430798206E+03 -0.86649592909E+02 -0.46286128648E+03  0.82620436339E+03  0.66335520946E+03 0.  0.
         23    2    3    3    0    0  0.61019982054E+02 -0.27300009112E+03 -0.36855567815E+03  0.47476447534E+03  0.10637448559E+03 0.  0.
         23    2    3    3    0    0 -0.23369819874E+03  0.16422689583E+03 -0.97290913771E+02  0.31533952734E+03  0.91586976113E+02 0.  0.
        -15    1    5    5    0    0 -0.55432368523E+02 -0.26643268960E+01 -0.23211801685E+02  0.60155081709E+02  0.00000000000E+00 0. -1.
        -15    1    4    4    0    0  0.51642807382E+02 -0.21220426694E+03 -0.34616463414E+03  0.40930133690E+03  0.00000000000E+00 0.  1.
         15    1    5    5    0    0 -0.17826583022E+03  0.16689122272E+03 -0.74079112086E+02  0.25518444563E+03  0.00000000000E+00 0.  1.
         15    1    4    4    0    0  0.93771746725E+01 -0.60795824175E+02 -0.22391044017E+02  0.65463138438E+02  0.00000000000E+00 0. -1.
        -16    1    3    3    0    0  0.28370234625E+02  0.22123602378E+02  0.29853054410E+01  0.36100360710E+02  0.00000000000E+00 0.  1.
         16    1    1    2    0    0  0.15413682028E+03  0.77709709806E+02 -0.17325125426E+03  0.24456687320E+03  0.00000000000E+00 0. -1.
    9900018    1    1    2    0    0 -0.98288382120E+01  0.89398831029E+01 -0.36324938370E+02  0.99051537655E+02  0.91187600000E+02 0.  0.
<mgrwt>
<rscale>  0 0.95724248E+03</rscale>
<asrwt>0</asrwt>
<pdfrwt beam="1">  1        2 0.14171233E+00 0.95724248E+03</pdfrwt>
<pdfrwt beam="2">  1       -2 0.38260407E-01 0.95724248E+03</pdfrwt>
<totfact> 0.18294970E+02</totfact>
</mgrwt>
</event>
<event>
12    1  0.2013703E-014  0.8732138E+03  0.7818608E-02  0.9459699E-01
          2   -1    0    0  501    0  0.00000000000E+00  0.00000000000E+00  0.65989077297E+03  0.65989077297E+03  0.00000000000E+00 0. -1.
         -2   -1    0    0    0  501 -0.00000000000E+00 -0.00000000000E+00 -0.28887445673E+03  0.28887445673E+03  0.00000000000E+00 0.  1.
    9900016    2    1    2    0    0 -0.90189454440E+01 -0.35480452152E+02  0.43539279373E+03  0.87470758515E+03  0.75776399414E+03 0.  0.
         23    2    3    3    0    0 -0.15839149343E+03 -0.21251790659E+03  0.64759256446E+02  0.29557117945E+03  0.11365225475E+03 0.  0.
         23    2    3    3    0    0  0.98156844059E+02  0.18007841768E+02  0.14481271139E+03  0.19799378263E+03  0.90949261552E+02 0.  0.
        -15    1    4    4    0    0 -0.11782288216E+03 -0.64870006611E+02  0.19529830251E+02  0.13591086634E+03  0.00000000000E+00 0. -1.
        -15    1    5    5    0    0  0.26046069469E+02  0.56347057761E+01 -0.86211832363E+01  0.28008435236E+02  0.00000000000E+00 0.  1.
         15    1    4    4    0    0 -0.40568611271E+02 -0.14764789998E+03  0.45229426195E+02  0.15966031311E+03  0.00000000000E+00 0.  1.
         15    1    5    5    0    0  0.72110774589E+02  0.12373135992E+02  0.15343389463E+03  0.16998534739E+03  0.00000000000E+00 0. -1.
        -16    1    1    2    0    0  0.90189454440E+01  0.35480452152E+02 -0.64376477497E+02  0.74057644553E+02  0.00000000000E+00 0.  1.
         16    1    3    3    0    0  0.52632987182E+02  0.19705163715E+03  0.12126717607E+03  0.23728739333E+03  0.00000000000E+00 0. -1.
    9900018    1    3    3    0    0 -0.14172832499E+01 -0.38022024487E+02  0.10455364983E+03  0.14385522974E+03  0.91187600000E+02 0.  0.
<mgrwt>
<rscale>  0 0.87321381E+03</rscale>
<asrwt>0</asrwt>
<pdfrwt beam="1">  1        2 0.10152166E+00 0.87321381E+03</pdfrwt>
<pdfrwt beam="2">  1       -2 0.44442224E-01 0.87321381E+03</pdfrwt>
<totfact> 0.21270709E+02</totfact>
</mgrwt>
</event>
<event>
12    1  0.2013703E-014  0.8966851E+03  0.7818608E-02  0.9429735E-01
          1   -1    0    0  501    0  0.00000000000E+00  0.00000000000E+00  0.46647081912E+03  0.46647081912E+03  0.00000000000E+00 0. -1.
         -1   -1    0    0    0  501 -0.00000000000E+00 -0.00000000000E+00 -0.43091877300E+03  0.43091877300E+03  0.00000000000E+00 0.  1.
    9900016    2    1    2    0    0  0.47317536718E+01 -0.11225467025E+03  0.42866163994E+02  0.67572737422E+03  0.66494095661E+03 0.  0.
         23    2    3    3    0    0  0.38906491167E+02 -0.25427693337E+03  0.12491537411E+03  0.29654735010E+03  0.78523921603E+02 0.  0.
         23    2    3    3    0    0 -0.15698751865E+03  0.17627919013E+02  0.79334313433E+01  0.18257430746E+03  0.91184504563E+02 0.  0.
        -15    1    4    4    0    0  0.14697330685E+02 -0.18205064691E+03  0.12327818889E+03  0.22035417270E+03  0.00000000000E+00 0.  1.
        -15    1    5    5    0    0 -0.11914383875E+03  0.47461653702E+02 -0.15151411797E+02  0.12914111725E+03  0.00000000000E+00 0.  1.
         15    1    5    5    0    0 -0.37843679895E+02 -0.29833734689E+02  0.23084843141E+02  0.53433190213E+02  0.00000000000E+00 0. -1.
         15    1    4    4    0    0  0.24209160482E+02 -0.72226286457E+02  0.16371852169E+01  0.76193177398E+02  0.00000000000E+00 0. -1.
        -16    1    3    3    0    0  0.12281278115E+03  0.12439434411E+03 -0.89982641458E+02  0.19660571666E+03  0.00000000000E+00 0.  1.
         16    1    1    2    0    0  0.32869198751E+02  0.11657738906E+03  0.95638421047E+01  0.12149954297E+03  0.00000000000E+00 0. -1.
    9900018    1    1    2    0    0 -0.37600952423E+02 -0.43227188128E+01 -0.16877959983E+02  0.10016267492E+03  0.91187600000E+02 0.  0.
<mgrwt>
<rscale>  0 0.89668508E+03</rscale>
<asrwt>0</asrwt>
<pdfrwt beam="1">  1        1 0.71764741E-01 0.89668508E+03</pdfrwt>
<pdfrwt beam="2">  1       -1 0.66295196E-01 0.89668508E+03</pdfrwt>
<totfact> 0.11337365E+02</totfact>
</mgrwt>
</event>
<event>
12    1  0.2013703E-014  0.9740012E+03  0.7818608E-02  0.9337529E-01
         -1   -1    0    0    0  501 -0.00000000000E+00  0.00000000000E+00  0.11391289080E+04  0.11391289080E+04  0.00000000000E+00 0.  1.
          1   -1    0    0  501    0  0.00000000000E+00 -0.00000000000E+00 -0.20820258744E+03  0.20820258744E+03  0.00000000000E+00 0. -1.
    9900016    2    1    2    0    0 -0.11028037222E+03  0.42159999059E+01  0.71125883805E+03  0.97790196620E+03  0.66198458113E+03 0.  0.
         23    2    3    3    0    0  0.10116725067E+03 -0.15899597523E+03  0.21807216061E+03  0.31266171996E+03  0.12119138233E+03 0.  0.
         23    2    3    3    0    0 -0.28820843553E+03  0.49443444746E+02  0.37426635698E+03  0.48364304504E+03  0.91249835676E+02 0.  0.
        -15    1    4    4    0    0  0.96417184096E+02 -0.11441219560E+03  0.22193510237E+03  0.26765951049E+03  0.00000000000E+00 0.  1.
        -15    1    5    5    0    0 -0.19139891508E+03  0.56383586446E+02  0.30474311408E+03  0.36425405845E+03  0.00000000000E+00 0. -1.
         15    1    4    4    0    0  0.47500665695E+01 -0.44583779627E+02 -0.38629417638E+01  0.45002209472E+02  0.00000000000E+00 0. -1.
         15    1    5    5    0    0 -0.96809520453E+02 -0.69401417009E+01  0.69523242891E+02  0.11938898659E+03  0.00000000000E+00 0.  1.
        -16    1    1    2    0    0  0.18105175867E+03 -0.79138579907E+01  0.12584335388E+03  0.22063299431E+03  0.00000000000E+00 0.  1.
         16    1    3    3    0    0  0.76760812650E+02  0.11376853039E+03  0.11892032047E+03  0.18159720120E+03  0.00000000000E+00 0. -1.
    9900018    1    1    2    0    0 -0.70771386451E+02  0.36978580849E+01  0.93824128583E+02  0.14879653488E+03  0.91187600000E+02 0.  0.
<mgrwt>
<rscale>  0 0.97400120E+03</rscale>
<asrwt>0</asrwt>
<pdfrwt beam="1">  1        1 0.32031168E-01 0.97400120E+03</pdfrwt>
<pdfrwt beam="2">  1       -1 0.17525060E+00 0.97400120E+03</pdfrwt>
<totfact> 0.31961230E+01</totfact>
</mgrwt>
</event>
<event>
12    1  0.2013703E-014  0.9397313E+03  0.7818608E-02  0.9377234E-01
         -1   -1    0    0    0  501 -0.00000000000E+00  0.00000000000E+00  0.16583582912E+03  0.16583582912E+03  0.00000000000E+00 0.  1.
          1   -1    0    0  501    0  0.00000000000E+00 -0.00000000000E+00 -0.13312789083E+04  0.13312789083E+04  0.00000000000E+00 0. -1.
    9900016    2    1    2    0    0  0.37234581541E+02 -0.11527111927E+03 -0.11439499849E+04  0.13740871060E+04  0.75154504985E+03 0.  0.
         23    2    3    3    0    0 -0.49499471863E+02  0.12973040855E+03 -0.52799152891E+03  0.55093020319E+03  0.73951724535E+02 0.  0.
         23    2    3    3    0    0  0.12566773021E+03  0.27628132523E+02 -0.24593856604E+03  0.29139302645E+03  0.88704145791E+02 0.  0.
        -15    1    4    4    0    0 -0.45469855526E+02  0.50024773554E+02 -0.14887431248E+03  0.16350396523E+03  0.00000000000E+00 0. -1.
        -15    1    5    5    0    0  0.94205605589E+02  0.27191512836E+02 -0.24015565237E+03  0.25940087097E+03  0.00000000000E+00 0. -1.
         15    1    4    4    0    0 -0.40296163371E+01  0.79705634994E+02 -0.37911721644E+03  0.38742623796E+03  0.00000000000E+00 0.  1.
         15    1    5    5    0    0  0.31462124618E+02  0.43661968700E+00 -0.57829136692E+01  0.31992155488E+02  0.00000000000E+00 0.  1.
        -16    1    3    3    0    0 -0.31014441166E+02 -0.28485864586E+03 -0.24956901564E+03  0.37998820672E+03  0.00000000000E+00 0.  1.
         16    1    1    2    0    0 -0.37234581541E+02  0.11527111927E+03 -0.21493094345E+02  0.12302763147E+03  0.00000000000E+00 0. -1.
    9900018    1    3    3    0    0 -0.79192356378E+01  0.12228985513E+02 -0.12045087427E+03  0.15177566961E+03  0.91187600000E+02 0.  0.
<mgrwt>
<rscale>  0 0.93973133E+03</rscale>
<asrwt>0</asrwt>
<pdfrwt beam="1">  1        1 0.20481214E+00 0.93973133E+03</pdfrwt>
<pdfrwt beam="2">  1       -1 0.25513204E-01 0.93973133E+03</pdfrwt>
<totfact> 0.11682674E+02</totfact>
</mgrwt>
</event>
<event>
12    1  0.2013703E-014  0.8176136E+03  0.7818608E-02  0.9534866E-01
         -2   -1    0    0    0  501 -0.00000000000E+00  0.00000000000E+00  0.13394074135E+03  0.13394074135E+03  0.00000000000E+00 0.  1.
          2   -1    0    0  501    0  0.00000000000E+00 -0.00000000000E+00 -0.12477382251E+04  0.12477382251E+04  0.00000000000E+00 0. -1.
    9900016    2    1    2    0    0  0.19798350290E+02 -0.22726597245E+02 -0.90362849108E+03  0.11281014007E+04  0.67465535456E+03 0.  0.
         23    2    3    3    0    0 -0.22106191951E+02  0.25810704314E+02  0.50727064940E+02  0.12235917232E+03  0.10603610590E+03 0.  0.
         23    2    3    3    0    0  0.81731467354E+02 -0.14858541085E+03 -0.42640174665E+03  0.46691847892E+03  0.86236647291E+02 0.  0.
        -15    1    5    5    0    0  0.10010568195E+03 -0.12543228065E+03 -0.36768622057E+03  0.40118270325E+03  0.00000000000E+00 0. -1.
        -15    1    4    4    0    0  0.93997508669E+01 -0.29996509750E+02  0.49040618667E+02  0.58250563884E+02  0.00000000000E+00 0. -1.
         15    1    5    5    0    0 -0.18374214598E+02 -0.23153130206E+02 -0.58715526077E+02  0.65735775670E+02  0.00000000000E+00 0.  1.
         15    1    4    4    0    0 -0.31505942818E+02  0.55807214065E+02  0.16864462734E+01  0.64108608436E+02  0.00000000000E+00 0.  1.
        -16    1    1    2    0    0 -0.29960654148E+02  0.35575426298E+02 -0.48187793035E+02  0.66972495480E+02  0.00000000000E+00 0.  1.
         16    1    3    3    0    0 -0.39826925114E+02  0.10004810930E+03 -0.52795380937E+03  0.53882374944E+03  0.00000000000E+00 0. -1.
    9900018    1    1    2    0    0  0.10162303858E+02 -0.12848829054E+02 -0.16198119959E+03  0.18660507025E+03  0.91187600000E+02 0.  0.
<mgrwt>
<rscale>  0 0.81761356E+03</rscale>
<asrwt>0</asrwt>
<pdfrwt beam="1">  1        2 0.19195973E+00 0.81761356E+03</pdfrwt>
<pdfrwt beam="2">  1       -2 0.20606268E-01 0.81761356E+03</pdfrwt>
<totfact> 0.36128731E+02</totfact>
</mgrwt>
</event>
<event>
12    1  0.2013703E-014  0.2280801E+04  0.7818608E-02  0.8485530E-01
          2   -1    0    0  501    0  0.00000000000E+00  0.00000000000E+00  0.20821296533E+04  0.20821296533E+04  0.00000000000E+00 0. -1.
         -2   -1    0    0    0  501 -0.00000000000E+00 -0.00000000000E+00 -0.62460748131E+03  0.62460748131E+03  0.00000000000E+00 0.  1.
    9900016    2    1    2    0    0 -0.78693674910E+03 -0.96272838084E+02  0.19276199724E+03  0.10538929711E+04  0.66707968073E+03 0.  0.
         23    2    3    3    0    0 -0.17161697065E+03  0.28870235848E+02 -0.18319669389E+03  0.26237220891E+03  0.70656013368E+02 0.  0.
         23    2    3    3    0    0 -0.34044154457E+03 -0.18430131848E+03  0.30572541633E+03  0.50170969568E+03  0.91526866451E+02 0.  0.
        -15    1    4    4    0    0 -0.14230483119E+03  0.41835242358E+02 -0.11733344568E+03  0.18912427120E+03  0.00000000000E+00 0.  1.
        -15    1    5    5    0    0 -0.28602080180E+03 -0.12922132893E+03  0.20587085114E+03  0.37535164614E+03  0.00000000000E+00 0.  1.
         15    1    4    4    0    0 -0.29312139455E+02 -0.12965006509E+02 -0.65863248219E+02  0.73247937712E+02  0.00000000000E+00 0. -1.
         15    1    5    5    0    0 -0.54420742770E+02 -0.55079989549E+02  0.99854565193E+02  0.12635804954E+03  0.00000000000E+00 0. -1.
        -16    1    3    3    0    0 -0.27487823388E+03  0.59158244549E+02  0.70233274808E+02  0.28981106647E+03  0.00000000000E+00 0.  1.
         16    1    1    2    0    0  0.88151702850E+03  0.13832349275E+03  0.12122499621E+04  0.15052427149E+04  0.00000000000E+00 0. -1.
    9900018    1    1    2    0    0 -0.94580279397E+02 -0.42050654669E+02  0.52510212640E+02  0.14760144862E+03  0.91187600000E+02 0.  0.
<mgrwt>
<rscale>  0 0.22808014E+04</rscale>
<asrwt>0</asrwt>
<pdfrwt beam="1">  1        2 0.32032764E+00 0.22808014E+04</pdfrwt>
<pdfrwt beam="2">  1       -2 0.96093460E-01 0.22808014E+04</pdfrwt>
<totfact> 0.49533112E+00</totfact>
</mgrwt>
</event>
<event>
12    1  0.2013703E-014  0.9055429E+03  0.7818608E-02  0.9418679E-01
          2   -1    0    0  501    0  0.00000000000E+00  0.00000000000E+00  0.18139965513E+04  0.18139965513E+04  0.00000000000E+00 0.  1.
         -2   -1    0    0    0  501 -0.00000000000E+00 -0.00000000000E+00 -0.11301122106E+03  0.11301122106E+03  0.00000000000E+00 0. -1.
    9900016    2    1    2    0    0  0.96071349174E+02  0.81925397131E+02  0.13434530457E+04  0.15478365586E+04  0.75828124824E+03 0.  0.
         23    2    3    3    0    0  0.17368364291E+03 -0.25838478874E+02  0.48970078147E+03  0.53089026319E+03  0.10584886102E+03 0.  0.
         23    2    3    3    0    0 -0.79558715699E+02  0.56389729767E+02  0.13474198676E+02  0.13860288196E+03  0.97569534127E+02 0.  0.
        -15    1    5    5    0    0 -0.76132883706E+02  0.81692959668E+02  0.16533097967E+02  0.11288622134E+03  0.00000000000E+00 0. -1.
        -15    1    4    4    0    0  0.66021195147E+02  0.86627421380E+00  0.32940235487E+03  0.33595455055E+03  0.00000000000E+00 0.  1.
         15    1    5    5    0    0 -0.34258319930E+01 -0.25303229901E+02 -0.30588992905E+01  0.25716660614E+02  0.00000000000E+00 0.  1.
         15    1    4    4    0    0  0.10766244776E+03 -0.26704753087E+02  0.16029842660E+03  0.19493571265E+03  0.00000000000E+00 0. -1.
        -16    1    3    3    0    0 -0.34383102263E+02  0.90280871676E+02  0.67727483601E+03  0.68413013163E+03  0.00000000000E+00 0.  1.
         16    1    1    2    0    0 -0.96071349174E+02 -0.81925397131E+02  0.35753228455E+03  0.37917121373E+03  0.00000000000E+00 0. -1.
    9900018    1    3    3    0    0  0.36329524226E+02 -0.38906725437E+02  0.16300322953E+03  0.19421328185E+03  0.91187600000E+02 0.  0.
<mgrwt>
<rscale>  0 0.90554285E+03</rscale>
<asrwt>0</asrwt>
<pdfrwt beam="1">  1        2 0.27907637E+00 0.90554285E+03</pdfrwt>
<pdfrwt beam="2">  1       -2 0.17386343E-01 0.90554285E+03</pdfrwt>
<totfact> 0.23261700E+02</totfact>
</mgrwt>
</event>
<event>
11    1  0.2013703E-014  0.9236882E+03  0.7818608E-02  0.9396445E-01
         -2   -1    0    0    0  501 -0.00000000000E+00  0.00000000000E+00  0.12557541679E+03  0.12557541679E+03  0.00000000000E+00 0.  1.
          2   -1    0    0  501    0  0.00000000000E+00 -0.00000000000E+00 -0.16985805187E+04  0.16985805187E+04  0.00000000000E+00 0. -1.
    9900016    2    1    2    0    0  0.84397610536E+02 -0.78991700957E+02 -0.11670752733E+04  0.13460464519E+04  0.66061616060E+03 0.  0.
         23    2    3    3    0    0 -0.15249259140E+03 -0.10196119557E+03 -0.18016056293E+03  0.27262662898E+03  0.90649735576E+02 0.  0.
        -15    1    4    4    0    0 -0.14305967671E+03 -0.53294584365E+02 -0.15284017050E+03  0.21602430775E+03  0.00000000000E+00 0. -1.
        -15    1    3    3    0    0  0.18821155665E+03  0.90249222584E+02 -0.50186991251E+03  0.54354569386E+03  0.00000000000E+00 0.  1.
         15    1    4    4    0    0 -0.94329146883E+01 -0.48666611200E+02 -0.27320392432E+02  0.56602321223E+02  0.00000000000E+00 0.  1.
         15    1    3    3    0    0  0.95320027450E+02 -0.36242315035E+02 -0.45502778050E+03  0.46631501590E+03  0.00000000000E+00 0. -1.
        -16    1    3    3    0    0 -0.46641382166E+02 -0.31037412941E+02 -0.30017017324E+02  0.63559113127E+02  0.00000000000E+00 0.  1.
         16    1    1    2    0    0 -0.50820120344E+02  0.13230193732E+03 -0.23215717730E+03  0.27199897468E+03  0.00000000000E+00 0. -1.
    9900018    1    1    2    0    0 -0.33577490192E+02 -0.53310236364E+02 -0.17377265133E+03  0.20611050893E+03  0.91187600000E+02 0.  0.
<mgrwt>
<rscale>  0 0.92368817E+03</rscale>
<asrwt>0</asrwt>
<pdfrwt beam="1">  1        2 0.26132006E+00 0.92368817E+03</pdfrwt>
<pdfrwt beam="2">  1       -2 0.19319296E-01 0.92368817E+03</pdfrwt>
<totfact> 0.22390722E+02</totfact>
</mgrwt>
</event>
<event>
12    1  0.2013703E-014  0.8516083E+03  0.7818608E-02  0.9488181E-01
          1   -1    0    0  501    0  0.00000000000E+00  0.00000000000E+00  0.13374083935E+04  0.13374083935E+04  0.00000000000E+00 0.  1.
         -1   -1    0    0    0  501 -0.00000000000E+00 -0.00000000000E+00 -0.13556754929E+03  0.13556754929E+03  0.00000000000E+00 0. -1.
    9900016    2    1    2    0    0 -0.48913239829E+02  0.65771771851E+02  0.99179929551E+03  0.12475078005E+04  0.75225756143E+03 0.  0.
         23    2    3    3    0    0 -0.16992103276E+03 -0.16621102895E+03  0.14808976345E+03  0.30313110533E+03  0.11601131608E+03 0.  0.
         23    2    3    3    0    0  0.75125518042E+02  0.66261503276E+02  0.47468587197E+03  0.49506218003E+03  0.98617720383E+02 0.  0.
        -15    1    5    5    0    0  0.29397976145E+02  0.85310859393E+02  0.28043982752E+03  0.29459918633E+03  0.00000000000E+00 0. -1.
        -15    1    4    4    0    0 -0.14056355339E+03 -0.83881428856E+02  0.13992312736E+03  0.21534318708E+03  0.00000000000E+00 0.  1.
         15    1    5    5    0    0  0.45727541898E+02 -0.19049356117E+02  0.19424604446E+03  0.20046299370E+03  0.00000000000E+00 0.  1.
         15    1    4    4    0    0 -0.29357479370E+02 -0.82329600091E+02  0.81666360912E+01  0.87787918252E+02  0.00000000000E+00 0. -1.
        -16    1    3    3    0    0  0.77016101385E+02  0.13304320177E+03  0.23977276030E+03  0.28482090863E+03  0.00000000000E+00 0.  1.
         16    1    1    2    0    0  0.48913239829E+02 -0.65771771851E+02  0.21004154866E+03  0.22546814224E+03  0.00000000000E+00 0. -1.
    9900018    1    3    3    0    0 -0.31133826494E+02  0.32678095752E+02  0.12925089979E+03  0.16449360651E+03  0.91187600000E+02 0.  0.
<mgrwt>
<rscale>  0 0.85160831E+03</rscale>
<asrwt>0</asrwt>
<pdfrwt beam="1">  1        1 0.20575513E+00 0.85160831E+03</pdfrwt>
<pdfrwt beam="2">  1       -1 0.20856547E-01 0.85160831E+03</pdfrwt>
<totfact> 0.16376951E+02</totfact>
</mgrwt>
</event>
<event>
12    1  0.2185231E-014  0.1847512E+04  0.7818608E-02  0.8681434E-01
         -2   -1    0    0    0  501 -0.00000000000E+00  0.00000000000E+00  0.23721913448E+03  0.23721913448E+03  0.00000000000E+00 0.  1.
          2   -1    0    0  501    0  0.00000000000E+00 -0.00000000000E+00 -0.35972004101E+04  0.35972004101E+04  0.00000000000E+00 0. -1.
    9900016    2    1    2    0    0 -0.43509057695E+03  0.18226050097E+03 -0.75325804404E+03  0.11085156287E+04  0.66248510761E+03 0.  0.
         23    2    3    3    0    0 -0.12200011545E+03 -0.13455965016E+03 -0.12377256578E+03  0.23161314911E+03  0.73038860739E+02 0.  0.
         23    2    3    3    0    0 -0.15710034710E+03 -0.37302276747E+02 -0.73399305370E+02  0.19943112124E+03  0.91177492730E+02 0.  0.
        -15    1    5    5    0    0 -0.15805781746E+03 -0.49327261551E+02 -0.81850403546E+02  0.18470230359E+03  0.00000000000E+00 0.  1.
        -15    1    4    4    0    0 -0.10315625316E+03 -0.12094598794E+03 -0.71298172286E+02  0.17421990109E+03  0.00000000000E+00 0.  1.
         15    1    5    5    0    0  0.95747035224E+00  0.12024984804E+02  0.84510981768E+01  0.14728817651E+02  0.00000000000E+00 0. -1.
         15    1    4    4    0    0 -0.18843862289E+02 -0.13613662218E+02 -0.52474393494E+02  0.57393248013E+02  0.00000000000E+00 0. -1.
        -16    1    3    3    0    0 -0.15599011439E+03  0.35412242787E+03 -0.55608617289E+03  0.67747135835E+03  0.00000000000E+00 0.  1.
         16    1    1    2    0    0  0.46867345281E+03 -0.22104156957E+03 -0.25589444725E+04  0.26108831828E+04  0.00000000000E+00 0. -1.
    9900018    1    1    2    0    0 -0.33582875864E+02  0.38781068603E+02 -0.47778759140E+02  0.11502073314E+03  0.91187600000E+02 0.  0.
<mgrwt>
<rscale>  0 0.18475116E+04</rscale>
<asrwt>0</asrwt>
<pdfrwt beam="1">  1        2 0.55341542E+00 0.18475116E+04</pdfrwt>
<pdfrwt beam="2">  1       -2 0.36495253E-01 0.18475116E+04</pdfrwt>
<totfact> 0.46506736E+00</totfact>
</mgrwt>
</event>
<event>
12    1  0.2013703E-014  0.8633559E+03  0.7818608E-02  0.9472584E-01
         -1   -1    0    0    0  501 -0.00000000000E+00  0.00000000000E+00  0.26534562859E+03  0.26534562859E+03  0.00000000000E+00 0. -1.
          1   -1    0    0  501    0  0.00000000000E+00 -0.00000000000E+00 -0.70227595208E+03  0.70227595208E+03  0.00000000000E+00 0.  1.
    9900016    2    1    2    0    0  0.62733383443E+02  0.82765850066E+02 -0.35414531150E+03  0.83480960249E+03  0.74880071275E+03 0.  0.
         23    2    3    3    0    0  0.12783544149E+03  0.15465900755E+03 -0.30258185725E+03  0.37111189001E+03  0.76856657825E+02 0.  0.
         23    2    3    3    0    0 -0.74416636075E+02  0.52055898887E+02  0.11846623643E+03  0.17483574285E+03  0.91025466047E+02 0.  0.
        -15    1    4    4    0    0  0.69702285109E+02  0.84833908061E+02 -0.97632676204E+02  0.14692630795E+03  0.00000000000E+00 0.  1.
        -15    1    5    5    0    0 -0.62152806820E+02  0.60857820133E+02  0.41456073646E+02  0.96360010944E+02  0.00000000000E+00 0. -1.
         15    1    5    5    0    0 -0.12263829256E+02 -0.88019212461E+01  0.77010162786E+02  0.78475731904E+02  0.00000000000E+00 0.  1.
         15    1    4    4    0    0  0.58133156377E+02  0.69825099486E+02 -0.20494918105E+03  0.22418558206E+03  0.00000000000E+00 0. -1.
        -16    1    3    3    0    0  0.11990306917E+02 -0.14010503170E+03 -0.10907016361E+03  0.17795923117E+03  0.00000000000E+00 0.  1.
         16    1    1    2    0    0 -0.62733383443E+02 -0.82765850066E+02 -0.82785011994E+02  0.13281197817E+03  0.00000000000E+00 0. -1.
    9900018    1    3    3    0    0 -0.26757288856E+01  0.16155975337E+02 -0.60959527068E+02  0.11090273846E+03  0.91187600000E+02 0.  0.
<mgrwt>
<rscale>  0 0.86335590E+03</rscale>
<asrwt>0</asrwt>
<pdfrwt beam="1">  1        1 0.10804245E+00 0.86335590E+03</pdfrwt>
<pdfrwt beam="2">  1       -1 0.40822404E-01 0.86335590E+03</pdfrwt>
<totfact> 0.16040312E+02</totfact>
</mgrwt>
</event>
<event>
12    1  0.2013703E-014  0.1456764E+04  0.7818608E-02  0.8913725E-01
          2   -1    0    0  501    0  0.00000000000E+00  0.00000000000E+00  0.10005961202E+04  0.10005961202E+04  0.00000000000E+00 0. -1.
         -2   -1    0    0    0  501 -0.00000000000E+00 -0.00000000000E+00 -0.53022394389E+03  0.53022394389E+03  0.00000000000E+00 0.  1.
    9900016    2    1    2    0    0 -0.90010848942E+02  0.10098603652E+03 -0.24875701903E+03  0.79907766946E+03  0.74722482214E+03 0.  0.
         23    2    3    3    0    0  0.33318195733E+01  0.23387229157E+03 -0.24427101581E+01  0.25613061107E+03  0.10435311834E+03 0.  0.
         23    2    3    3    0    0 -0.91061875759E+02 -0.22821688585E+03 -0.22172693985E+03  0.34470345563E+03  0.96345338544E+02 0.  0.
        -15    1    5    5    0    0 -0.26978574364E+02 -0.44060705568E+02 -0.10610051109E+03  0.11801062539E+03  0.00000000000E+00 0. -1.
        -15    1    4    4    0    0  0.82800281984E+01  0.13261827986E+03  0.50026955824E+02  0.14198191198E+03  0.00000000000E+00 0.  1.
         15    1    4    4    0    0 -0.49482086250E+01  0.10125401171E+03 -0.52469665982E+02  0.11414869909E+03  0.00000000000E+00 0. -1.
         15    1    5    5    0    0 -0.64083301395E+02 -0.18415618028E+03 -0.11562642876E+03  0.22669283024E+03  0.00000000000E+00 0.  1.
        -16    1    3    3    0    0  0.41554597134E+02  0.77361201552E+02  0.13107121309E+02  0.88788156178E+02  0.00000000000E+00 0.  1.
         16    1    1    2    0    0  0.90010848942E+02 -0.10098603652E+03  0.71912919531E+03  0.73174239459E+03  0.00000000000E+00 0. -1.
    9900018    1    3    3    0    0 -0.43835389890E+02  0.17969429249E+02 -0.37694490331E+02  0.10945544660E+03  0.91187600000E+02 0.  0.
<mgrwt>
<rscale>  0 0.14567636E+04</rscale>
<asrwt>0</asrwt>
<pdfrwt beam="1">  1        2 0.15393786E+00 0.14567636E+04</pdfrwt>
<pdfrwt beam="2">  1       -2 0.81572915E-01 0.14567636E+04</pdfrwt>
<totfact> 0.32278202E+01</totfact>
</mgrwt>
</event>
<event>
12    1  0.2013703E-014  0.2062246E+04  0.7818608E-02  0.8578059E-01
          2   -1    0    0  501    0  0.00000000000E+00  0.00000000000E+00  0.95762492937E+03  0.95762492937E+03  0.00000000000E+00 0. -1.
         -2   -1    0    0    0  501 -0.00000000000E+00 -0.00000000000E+00 -0.11102626033E+04  0.11102626033E+04  0.00000000000E+00 0.  1.
    9900016    2    1    2    0    0  0.85852770239E+02 -0.72533034697E+03 -0.16887142883E+03  0.99658529999E+03  0.65665050847E+03 0.  0.
         23    2    3    3    0    0 -0.20144511230E+02 -0.17138731205E+03 -0.28540664650E+03  0.33961169135E+03  0.64029172807E+02 0.  0.
         23    2    3    3    0    0  0.11582881681E+01 -0.16392661888E+03 -0.85039943815E+02  0.20560173865E+03  0.90371482674E+02 0.  0.
        -15    1    5    5    0    0  0.26933585478E+02 -0.56309034920E+02  0.54452468082E+01  0.62656014501E+02  0.00000000000E+00 0. -1.
        -15    1    4    4    0    0 -0.27321992390E+02 -0.28633680090E+02 -0.45042323198E+02  0.59959901457E+02  0.00000000000E+00 0. -1.
         15    1    5    5    0    0 -0.25775297310E+02 -0.10761758396E+03 -0.90485190624E+02  0.14294572415E+03  0.00000000000E+00 0.  1.
         15    1    4    4    0    0  0.71774811598E+01 -0.14275363196E+03 -0.24036432330E+03  0.27965178989E+03  0.00000000000E+00 0.  1.
        -16    1    3    3    0    0  0.10483899330E+03 -0.39001641604E+03  0.20157516148E+03  0.45137187000E+03  0.00000000000E+00 0.  1.
         16    1    1    2    0    0 -0.15738878065E+03  0.87092793814E+03  0.17321721334E+02  0.88520435140E+03  0.00000000000E+00 0. -1.
    9900018    1    1    2    0    0  0.71536010415E+02 -0.14559759117E+03 -0.10879664117E+01  0.18609788125E+03  0.91187600000E+02 0.  0.
<mgrwt>
<rscale>  0 0.20622465E+04</rscale>
<asrwt>0</asrwt>
<pdfrwt beam="1">  1        2 0.14732691E+00 0.20622465E+04</pdfrwt>
<pdfrwt beam="2">  1       -2 0.17080963E+00 0.20622465E+04</pdfrwt>
<totfact> 0.52166385E+00</totfact>
</mgrwt>
</event>
<event>
12    1  0.2013703E-014  0.1249981E+04  0.7818608E-02  0.9070199E-01
         -2   -1    0    0    0  501 -0.00000000000E+00  0.00000000000E+00  0.30363480883E+03  0.30363480883E+03  0.00000000000E+00 0.  1.
          2   -1    0    0  501    0  0.00000000000E+00 -0.00000000000E+00 -0.12864569836E+04  0.12864569836E+04  0.00000000000E+00 0. -1.
    9900016    2    1    2    0    0  0.30534509326E+03 -0.13860342010E+03 -0.94369028669E+03  0.12524857518E+04  0.75214537632E+03 0.  0.
         23    2    3    3    0    0 -0.72705129982E+02  0.13708884847E+03 -0.22076373322E+03  0.27738863770E+03  0.64252954158E+02 0.  0.
         23    2    3    3    0    0  0.10149927030E+03  0.73029766281E+02 -0.14738599013E+03  0.21247133172E+03  0.88238246153E+02 0.  0.
        -15    1    5    5    0    0  0.76313167090E+02  0.48634404571E+02 -0.38972372793E+02  0.98528425444E+02  0.00000000000E+00 0.  1.
        -15    1    4    4    0    0 -0.10541846322E+02  0.15777996994E+02 -0.12768432715E+01  0.19018570971E+02  0.00000000000E+00 0. -1.
         15    1    5    5    0    0  0.25186103206E+02  0.24395361709E+02 -0.10841361733E+03  0.11394290628E+03  0.00000000000E+00 0. -1.
         15    1    4    4    0    0 -0.62163283660E+02  0.12131085148E+03 -0.21948688995E+03  0.25837006673E+03  0.00000000000E+00 0.  1.
        -16    1    1    2    0    0 -0.30534509326E+03  0.13860342010E+03 -0.39131888089E+02  0.33760604068E+03  0.00000000000E+00 0.  1.
         16    1    3    3    0    0  0.25037075303E+03 -0.30847989637E+03 -0.45693473895E+03  0.60550368793E+03  0.00000000000E+00 0. -1.
    9900018    1    3    3    0    0  0.26180199915E+02 -0.40242138484E+02 -0.11860582439E+03  0.15712209440E+03  0.91187600000E+02 0.  0.
<mgrwt>
<rscale>  0 0.12499810E+04</rscale>
<asrwt>0</asrwt>
<pdfrwt beam="1">  1        2 0.19791646E+00 0.12499810E+04</pdfrwt>
<pdfrwt beam="2">  1       -2 0.46713048E-01 0.12499810E+04</pdfrwt>
<totfact> 0.71906277E+01</totfact>
</mgrwt>
</event>
<event>
12    1  0.2013703E-014  0.9788354E+03  0.7818608E-02  0.9332067E-01
          1   -1    0    0  501    0  0.00000000000E+00  0.00000000000E+00  0.68110796590E+03  0.68110796590E+03  0.00000000000E+00 0. -1.
         -1   -1    0    0    0  501 -0.00000000000E+00 -0.00000000000E+00 -0.35167650733E+03  0.35167650733E+03  0.00000000000E+00 0.  1.
    9900016    2    1    2    0    0 -0.78939820173E+02  0.15345285188E+03  0.94224077290E+02  0.68506862893E+03  0.65624810601E+03 0.  0.
         23    2    3    3    0    0 -0.18908042911E+02  0.18082578259E+03  0.25603411311E+03  0.33370170142E+03  0.11290651318E+03 0.  0.
         23    2    3    3    0    0 -0.16538624560E+03  0.57347972625E+01 -0.53022647076E+02  0.19634956848E+03  0.91412547298E+02 0.  0.
        -15    1    4    4    0    0 -0.38226376864E+02  0.13056098075E+02  0.80807527881E+02  0.90341430956E+02  0.00000000000E+00 0.  1.
        -15    1    5    5    0    0 -0.48333770685E+02 -0.40106442360E+02 -0.10727025074E+02  0.63716161014E+02  0.00000000000E+00 0. -1.
         15    1    4    4    0    0  0.19318333953E+02  0.16776968452E+03  0.17522658523E+03  0.24336027047E+03  0.00000000000E+00 0. -1.
         15    1    5    5    0    0 -0.11705247492E+03  0.45841239622E+02 -0.42295622002E+02  0.13263340746E+03  0.00000000000E+00 0.  1.
        -16    1    3    3    0    0  0.10535446834E+03 -0.33107727973E+02 -0.10878738874E+03  0.15501735903E+03  0.00000000000E+00 0.  1.
         16    1    1    2    0    0  0.61425661829E+02 -0.12463633901E+03  0.20160290257E+03  0.24484905403E+03  0.00000000000E+00 0. -1.
    9900018    1    1    2    0    0  0.17514158343E+02 -0.28816512868E+02  0.33604478713E+02  0.10286679027E+03  0.91187600000E+02 0.  0.
<mgrwt>
<rscale>  0 0.97883537E+03</rscale>
<asrwt>0</asrwt>
<pdfrwt beam="1">  1        1 0.10478584E+00 0.97883537E+03</pdfrwt>
<pdfrwt beam="2">  1       -1 0.54104078E-01 0.97883537E+03</pdfrwt>
<totfact> 0.98315045E+01</totfact>
</mgrwt>
</event>
<event>
12    1  0.2013703E-014  0.1165435E+04  0.7818608E-02  0.9143661E-01
          2   -1    0    0  501    0  0.00000000000E+00  0.00000000000E+00  0.46521411817E+03  0.46521411817E+03  0.00000000000E+00 0.  1.
         -2   -1    0    0    0  501 -0.00000000000E+00 -0.00000000000E+00 -0.72990028261E+03  0.72990028261E+03  0.00000000000E+00 0. -1.
    9900016    2    1    2    0    0 -0.19079898933E+02 -0.97336817057E+02  0.14074912979E+03  0.77772216762E+03  0.75842135649E+03 0.  0.
         23    2    3    3    0    0  0.50028560731E+02 -0.14110251123E+03  0.15550165172E+03  0.22946977215E+03  0.77864222065E+02 0.  0.
         23    2    3    3    0    0 -0.15459816934E+03 -0.72237916094E+02  0.60241899395E+02  0.20280879889E+03  0.91560974114E+02 0.  0.
        -15    1    4    4    0    0 -0.13661839300E+02 -0.47229633389E+02  0.77574204138E+02  0.91842480752E+02  0.00000000000E+00 0.  1.
        -15    1    5    5    0    0 -0.11555017067E+03 -0.86344436171E+01  0.18634916300E+02  0.11736121874E+03  0.00000000000E+00 0. -1.
         15    1    5    5    0    0 -0.39047998661E+02 -0.63603472477E+02  0.41606983094E+02  0.85447580146E+02  0.00000000000E+00 0.  1.
         15    1    4    4    0    0  0.63690400031E+02 -0.93872877841E+02  0.77927447582E+02  0.13762729140E+03  0.00000000000E+00 0. -1.
        -16    1    1    2    0    0  0.19079898933E+02  0.97336817057E+02 -0.40543529422E+03  0.41739223316E+03  0.00000000000E+00 0.  1.
         16    1    3    3    0    0  0.12760977633E+03  0.16163681692E+03 -0.10492889671E+03  0.23112937711E+03  0.00000000000E+00 0. -1.
    9900018    1    3    3    0    0 -0.42120066654E+02 -0.45633206654E+02  0.29934475379E+02  0.11431421948E+03  0.91187600000E+02 0.  0.
<mgrwt>
<rscale>  0 0.11654354E+04</rscale>
<asrwt>0</asrwt>
<pdfrwt beam="1">  1        2 0.71571403E-01 0.11654354E+04</pdfrwt>
<pdfrwt beam="2">  1       -2 0.11229235E+00 0.11654354E+04</pdfrwt>
<totfact> 0.41365751E+01</totfact>
</mgrwt>
</event>
<event>
12    1  0.2013703E-014  0.8897342E+03  0.7818608E-02  0.9438506E-01
          2   -1    0    0  501    0  0.00000000000E+00  0.00000000000E+00  0.15777404299E+04  0.15777404299E+04  0.00000000000E+00 0. -1.
         -2   -1    0    0    0  501 -0.00000000000E+00 -0.00000000000E+00 -0.12543682493E+03  0.12543682493E+03  0.00000000000E+00 0.  1.
    9900016    2    1    2    0    0  0.81300004526E+01 -0.12206086240E+03  0.12700032157E+04  0.14836359535E+04  0.75716743445E+03 0.  0.
         23    2    3    3    0    0  0.15449806426E+03 -0.21380876967E+03  0.38563527918E+03  0.48111773312E+03  0.11478616085E+03 0.  0.
         23    2    3    3    0    0  0.42599702216E+01  0.78489631016E+02  0.54190456087E+02  0.13239157979E+03  0.91717802768E+02 0.  0.
        -15    1    4    4    0    0  0.15814624149E+03 -0.14598273175E+03  0.25345588115E+03  0.33250725610E+03  0.00000000000E+00 0. -1.
        -15    1    5    5    0    0  0.10474964271E+02  0.20103231078E+02  0.68334057666E+02  0.71995890253E+02  0.00000000000E+00 0. -1.
         15    1    5    5    0    0 -0.62149940490E+01  0.58386399938E+02 -0.14143601579E+02  0.60395689534E+02  0.00000000000E+00 0.  1.
         15    1    4    4    0    0 -0.36481772316E+01 -0.67826037925E+02  0.13217939803E+03  0.14861047702E+03  0.00000000000E+00 0.  1.
        -16    1    1    2    0    0 -0.81300004526E+01  0.12206086240E+03  0.18230038931E+03  0.21954130130E+03  0.00000000000E+00 0.  1.
         16    1    3    3    0    0 -0.16366733726E+03  0.25388763211E+02  0.58277734391E+03  0.60585560916E+03  0.00000000000E+00 0. -1.
    9900018    1    3    3    0    0  0.13039303233E+02 -0.12130486952E+02  0.24740013650E+03  0.26427103147E+03  0.91187600000E+02 0.  0.
<mgrwt>
<rscale>  0 0.88973423E+03</rscale>
<asrwt>0</asrwt>
<pdfrwt beam="1">  1        2 0.24272928E+00 0.88973423E+03</pdfrwt>
<pdfrwt beam="2">  1       -2 0.19297974E-01 0.88973423E+03</pdfrwt>
<totfact> 0.26221176E+02</totfact>
</mgrwt>
</event>
