<event>
12    1  0.1967497E-010  0.9859280E+03  0.7818608E-02  0.9324115E-01
          1   -1    0    0  501    0  0.00000000000E+00  0.00000000000E+00  0.13270389635E+04  0.13270389635E+04  0.00000000000E+00 0. -1.
         -1   -1    0    0    0  501 -0.00000000000E+00 -0.00000000000E+00 -0.18312460172E+03  0.18312460172E+03  0.00000000000E+00 0.  1.
    9900016    2    1    2    0    0 -0.75279177495E+02  0.97774472356E+02  0.11778244421E+04  0.13821921014E+04  0.71271157332E+03 0.  0.
         23    2    3    3    0    0 -0.22657292772E+03  0.65605897834E+02  0.49429970523E+03  0.55948291466E+03  0.11423444225E+03 0.  0.
         23    2    3    3    0    0  0.11901953342E+03  0.17698681528E+03  0.28086844742E+03  0.36497221448E+03  0.93955577103E+02 0.  0.
        -15    1    5    5    0    0  0.34897873508E+02  0.10938085714E+03  0.90706811484E+02  0.14632074061E+03  0.00000000000E+00 0. -1.
        -15    1    4    4    0    0 -0.11387669280E+03  0.50909959339E+02  0.37279481899E+03  0.39311029265E+03  0.00000000000E+00 0. -1.
         15    1    5    5    0    0  0.84121659916E+02  0.67605958136E+02  0.19016163594E+03  0.21865147387E+03  0.00000000000E+00 0.  1.
         15    1    4    4    0    0 -0.11269623492E+03  0.14695938495E+02  0.12150488625E+03  0.16637262201E+03  0.00000000000E+00 0.  1.
        -16    1    3    3    0    0  0.40653694944E+01 -0.11262108242E+03  0.16715682773E+03  0.20159722342E+03  0.00000000000E+00 0.  1.
         16    1    1    2    0    0  0.75279177495E+02 -0.97774472356E+02 -0.33910080312E+02  0.12797146383E+03  0.00000000000E+00 0. -1.
    9900018    1    3    3    0    0  0.28208847304E+02 -0.32197158336E+02  0.23549946175E+03  0.25613974886E+03  0.91187600000E+02 0.  0.
<mgrwt>
<rscale>  0 0.98592795E+03</rscale>
<asrwt>0</asrwt>
<pdfrwt beam="1">  1        1 0.20415983E+00 0.98592795E+03</pdfrwt>
<pdfrwt beam="2">  1       -1 0.28173016E-01 0.98592795E+03</pdfrwt>
<totfact> 0.98813707E+01</totfact>
</mgrwt>
</event>
<event>
12    1  0.1967497E-010  0.7429833E+03  0.7818608E-02  0.9646423E-01
         -3   -1    0    0    0  501 -0.00000000000E+00  0.00000000000E+00  0.27946629224E+03  0.27946629224E+03  0.00000000000E+00 0.  1.
          3   -1    0    0  501    0  0.00000000000E+00 -0.00000000000E+00 -0.49382003752E+03  0.49382003752E+03  0.00000000000E+00 0. -1.
    9900016    2    1    2    0    0 -0.29265963697E+02  0.47802527448E+01 -0.19265606357E+03  0.73654212153E+03  0.71028064207E+03 0.  0.
         23    2    3    3    0    0  0.13872069731E+02 -0.61448368528E+02 -0.33932657375E+02  0.10407181524E+03  0.75572357233E+02 0.  0.
         23    2    3    3    0    0 -0.25454693724E+03 -0.96961356810E+01 -0.22461327243E+03  0.35178582804E+03  0.91727794885E+02 0.  0.
        -15    1    5    5    0    0 -0.47214539245E+02 -0.48847248709E+01 -0.19570163505E+01  0.47506874936E+02  0.00000000000E+00 0. -1.
        -15    1    4    4    0    0 -0.19473313049E+00 -0.75279999993E+02 -0.15062927068E+02  0.76772443571E+02  0.00000000000E+00 0.  1.
         15    1    4    4    0    0  0.14066802861E+02  0.13831631466E+02 -0.18869730307E+02  0.27299371670E+02  0.00000000000E+00 0. -1.
         15    1    5    5    0    0 -0.20733239799E+03 -0.48114108101E+01 -0.22265625608E+03  0.30427895311E+03  0.00000000000E+00 0.  1.
        -16    1    3    3    0    0  0.48528395822E+02  0.11796866156E+02  0.66676285610E+02  0.83306052090E+02  0.00000000000E+00 0.  1.
         16    1    1    2    0    0  0.29265963697E+02 -0.47802527448E+01 -0.21697681710E+02  0.36744208238E+02  0.00000000000E+00 0. -1.
    9900018    1    3    3    0    0  0.16288050799E+03  0.64127890798E+02 -0.78641937811E+00  0.19737842615E+03  0.91187600000E+02 0.  0.
<mgrwt>
<rscale>  0 0.74298332E+03</rscale>
<asrwt>0</asrwt>
<pdfrwt beam="1">  1        3 0.75972313E-01 0.74298332E+03</pdfrwt>
<pdfrwt beam="2">  1       -3 0.42994814E-01 0.74298332E+03</pdfrwt>
<totfact> 0.23159609E+01</totfact>
</mgrwt>
</event>
<event>
12    1  0.1967497E-010  0.1540181E+04  0.7818608E-02  0.8858164E-01
         -1   -1    0    0    0  501 -0.00000000000E+00  0.00000000000E+00  0.40284342963E+03  0.40284342963E+03  0.00000000000E+00 0.  1.
          1   -1    0    0  501    0  0.00000000000E+00 -0.00000000000E+00 -0.14721334354E+04  0.14721334354E+04  0.00000000000E+00 0. -1.
    9900016    2    1    2    0    0 -0.57608240007E+03  0.10514286896E+03 -0.67849471935E+03  0.11709549119E+04  0.75356112362E+03 0.  0.
         23    2    3    3    0    0 -0.20104501526E+03  0.33252123313E+02 -0.21846720544E+03  0.30530795980E+03  0.62930347183E+02 0.  0.
         23    2    3    3    0    0  0.65130100398E+02  0.68810321922E+02 -0.67557416576E+02  0.14813486462E+03  0.91668659854E+02 0.  0.
        -15    1    4    4    0    0 -0.68259956325E+02 -0.17640445956E+02 -0.83072945395E+02  0.10895742851E+03  0.00000000000E+00 0.  1.
        -15    1    5    5    0    0  0.31631520663E+02 -0.16422358475E+02 -0.37534457519E+02  0.51759853734E+02  0.00000000000E+00 0.  1.
         15    1    5    5    0    0  0.33498579735E+02  0.85232680397E+02 -0.30022959057E+02  0.96375010882E+02  0.00000000000E+00 0. -1.
         15    1    4    4    0    0 -0.13278505893E+03  0.50892569269E+02 -0.13539426005E+03  0.19635053129E+03  0.00000000000E+00 0. -1.
        -16    1    1    2    0    0  0.57608240007E+03 -0.10514286896E+03 -0.39079528647E+03  0.70402195313E+03  0.00000000000E+00 0.  1.
         16    1    3    3    0    0 -0.79965966267E+02 -0.14186389862E+03 -0.72387531350E+01  0.16301018692E+03  0.00000000000E+00 0. -1.
    9900018    1    3    3    0    0 -0.36020151895E+03  0.14494432235E+03 -0.38523134420E+03  0.55450190061E+03  0.91187600000E+02 0.  0.
<mgrwt>
<rscale>  0 0.15401809E+04</rscale>
<asrwt>0</asrwt>
<pdfrwt beam="1">  1        1 0.22648206E+00 0.15401809E+04</pdfrwt>
<pdfrwt beam="2">  1       -1 0.61975913E-01 0.15401809E+04</pdfrwt>
<totfact> 0.17414788E+01</totfact>
</mgrwt>
</event>
<event>
12    1  0.1967497E-010  0.9589583E+03  0.7818608E-02  0.9354741E-01
          2   -1    0    0  501    0  0.00000000000E+00  0.00000000000E+00  0.49629813308E+03  0.49629813308E+03  0.00000000000E+00 0.  1.
         -2   -1    0    0    0  501 -0.00000000000E+00 -0.00000000000E+00 -0.46323016495E+03  0.46323016495E+03  0.00000000000E+00 0. -1.
    9900016    2    1    2    0    0  0.20083175046E+03  0.88584504907E+02  0.33756744707E+02  0.74002640530E+03  0.70591710294E+03 0.  0.
         23    2    3    3    0    0  0.56847957331E+02  0.54195666326E+02 -0.53975830392E+02  0.15611230361E+03  0.12364788947E+03 0.  0.
         23    2    3    3    0    0 -0.17286253867E+03 -0.32192942002E+02 -0.55393868730E+02  0.20503330148E+03  0.89734782738E+02 0.  0.
        -15    1    5    5    0    0 -0.11434305403E+03  0.22041305765E+02 -0.21840009313E+02  0.11847843336E+03  0.00000000000E+00 0. -1.
        -15    1    4    4    0    0  0.58574356979E+02  0.25562003866E+02  0.27619180516E+02  0.69621767211E+02  0.00000000000E+00 0.  1.
         15    1    4    4    0    0 -0.17263996479E+01  0.28633662460E+02 -0.81595010908E+02  0.86490536399E+02  0.00000000000E+00 0. -1.
         15    1    5    5    0    0 -0.58519484637E+02 -0.54234247767E+02 -0.33553859417E+02  0.86554868118E+02  0.00000000000E+00 0.  1.
        -16    1    1    2    0    0 -0.20083175046E+03 -0.88584504907E+02 -0.68877658132E+00  0.21950189273E+03  0.00000000000E+00 0.  1.
         16    1    3    3    0    0  0.12356558701E+03  0.50168774313E+02  0.79656894549E+02  0.15534021069E+03  0.00000000000E+00 0. -1.
    9900018    1    3    3    0    0  0.19328074479E+03  0.16413006269E+02  0.63469549280E+02  0.22354058952E+03  0.91187600000E+02 0.  0.
<mgrwt>
<rscale>  0 0.95895832E+03</rscale>
<asrwt>0</asrwt>
<pdfrwt beam="1">  1        2 0.76353560E-01 0.95895832E+03</pdfrwt>
<pdfrwt beam="2">  1       -2 0.71266179E-01 0.95895832E+03</pdfrwt>
<totfact> 0.11116251E+02</totfact>
</mgrwt>
</event>
<event>
12    1  0.1967497E-010  0.1528567E+04  0.7818608E-02  0.8865675E-01
          3   -1    0    0  501    0  0.00000000000E+00  0.00000000000E+00  0.88004175723E+03  0.88004175723E+03  0.00000000000E+00 0. -1.
         -3   -1    0    0    0  501 -0.00000000000E+00 -0.00000000000E+00 -0.66375179768E+03  0.66375179768E+03  0.00000000000E+00 0.  1.
    9900016    2    1    2    0    0  0.25361943658E+03 -0.92061512304E+02  0.67230830632E+03  0.10139342592E+04  0.70941249114E+03 0.  0.
         23    2    3    3    0    0  0.12044454303E+03  0.25924647891E+02  0.84830839671E+02  0.16008008581E+03  0.57012167122E+02 0.  0.
         23    2    3    3    0    0 -0.37589073450E+02 -0.23971937294E+02 -0.40577861593E+02  0.10742590067E+03  0.88916641088E+02 0.  0.
        -15    1    4    4    0    0  0.28105727446E+02  0.15934803983E+02  0.52673949450E+02  0.61793161789E+02  0.00000000000E+00 0.  1.
        -15    1    5    5    0    0 -0.22048740704E+02  0.28741383584E+02 -0.37865958683E+02  0.52402718670E+02  0.00000000000E+00 0.  1.
         15    1    5    5    0    0 -0.15540332746E+02 -0.52713320878E+02 -0.27119029096E+01  0.55023181999E+02  0.00000000000E+00 0. -1.
         15    1    4    4    0    0  0.92338815589E+02  0.99898439078E+01  0.32156890221E+02  0.98286924025E+02  0.00000000000E+00 0. -1.
        -16    1    1    2    0    0 -0.25361943658E+03  0.92061512304E+02 -0.45601834677E+03  0.52985929571E+03  0.00000000000E+00 0.  1.
         16    1    3    3    0    0  0.99824770506E+02 -0.21195955156E+03  0.31589652358E+03  0.39329689792E+03  0.00000000000E+00 0. -1.
    9900018    1    3    3    0    0  0.70939196490E+02  0.11794532865E+03  0.31215880466E+03  0.35313137480E+03  0.91187600000E+02 0.  0.
<mgrwt>
<rscale>  0 0.15285670E+04</rscale>
<asrwt>0</asrwt>
<pdfrwt beam="1">  1        3 0.13539104E+00 0.15285670E+04</pdfrwt>
<pdfrwt beam="2">  1       -3 0.10211566E+00 0.15285670E+04</pdfrwt>
<totfact> 0.88291930E-01</totfact>
</mgrwt>
</event>
<event>
12    1  0.1967497E-010  0.1576308E+04  0.7818608E-02  0.8835236E-01
         -2   -1    0    0    0  501 -0.00000000000E+00  0.00000000000E+00  0.62619742404E+03  0.62619742404E+03  0.00000000000E+00 0. -1.
          2   -1    0    0  501    0  0.00000000000E+00 -0.00000000000E+00 -0.99199849535E+03  0.99199849535E+03  0.00000000000E+00 0.  1.
    9900016    2    1    2    0    0  0.16855910133E+03  0.98092364618E+02  0.39347225159E+03  0.83427611385E+03  0.70933908586E+03 0.  0.
         23    2    3    3    0    0  0.20488363163E+03  0.12916914923E+03  0.42159750911E+03  0.49751429053E+03  0.10542313774E+03 0.  0.
         23    2    3    3    0    0 -0.33265170106E+01  0.38806913978E+01 -0.49848474940E+02  0.10333026308E+03  0.90366737978E+02 0.  0.
        -15    1    4    4    0    0  0.95293092386E+02  0.51579981747E+01  0.11821532518E+03  0.15192840916E+03  0.00000000000E+00 0.  1.
        -15    1    5    5    0    0  0.25250776676E+01  0.31128332945E+02 -0.64632810168E+02  0.71782653053E+02  0.00000000000E+00 0.  1.
         15    1    4    4    0    0  0.10959053925E+03  0.12401115105E+03  0.30338218393E+03  0.34558588137E+03  0.00000000000E+00 0. -1.
         15    1    5    5    0    0 -0.58515946782E+01 -0.27247641547E+02  0.14784335228E+02  0.31547610025E+02  0.00000000000E+00 0. -1.
        -16    1    1    2    0    0 -0.16855910133E+03 -0.98092364618E+02 -0.75927332291E+03  0.78391980554E+03  0.00000000000E+00 0.  1.
         16    1    3    3    0    0 -0.70127884382E+02 -0.34601312449E+02  0.85698355743E+02  0.11601456447E+03  0.00000000000E+00 0. -1.
    9900018    1    3    3    0    0  0.37129871094E+02 -0.35616355672E+00 -0.63975138325E+02  0.11741699578E+03  0.91187600000E+02 0.  0.
<mgrwt>
<rscale>  0 0.15763082E+04</rscale>
<asrwt>0</asrwt>
<pdfrwt beam="1">  1        2 0.15261515E+00 0.15763082E+04</pdfrwt>
<pdfrwt beam="2">  1       -2 0.96338065E-01 0.15763082E+04</pdfrwt>
<totfact> 0.22090761E+01</totfact>
</mgrwt>
</event>
<event>
11    1  0.1967497E-010  0.1325377E+04  0.7818608E-02  0.9009679E-01
         -2   -1    0    0    0  501 -0.00000000000E+00  0.00000000000E+00  0.43742742201E+03  0.43742742201E+03  0.00000000000E+00 0. -1.
          2   -1    0    0  501    0  0.00000000000E+00 -0.00000000000E+00 -0.10039521663E+04  0.10039521663E+04  0.00000000000E+00 0.  1.
    9900016    2    1    2    0    0 -0.24607386886E+03  0.53791499786E+01  0.89075471075E+02  0.74109898271E+03  0.69333395880E+03 0.  0.
         23    2    3    3    0    0  0.19949362109E+02  0.68857179346E+02 -0.29982187559E+02  0.12119595607E+03  0.93006666432E+02 0.  0.
        -15    1    3    3    0    0  0.17249149704E+02 -0.44007101431E+02  0.71018872145E+01  0.47797436583E+02  0.00000000000E+00 0. -1.
        -15    1    4    4    0    0  0.51066112389E+02  0.12599169930E+02 -0.19288242123E+02  0.56022524057E+02  0.00000000000E+00 0.  1.
         15    1    3    3    0    0 -0.16030259901E+02 -0.28932245008E+02 -0.18985227803E+02  0.38137683574E+02  0.00000000000E+00 0.  1.
         15    1    4    4    0    0 -0.31116750280E+02  0.56258009416E+02 -0.10693945436E+02  0.65173432013E+02  0.00000000000E+00 0. -1.
        -16    1    1    2    0    0  0.24607386886E+03 -0.53791499786E+01 -0.65560021537E+03  0.70028060560E+03  0.00000000000E+00 0.  1.
         16    1    3    3    0    0 -0.21602678906E+03 -0.12000966546E+03  0.23224342503E+03  0.33912667525E+03  0.00000000000E+00 0. -1.
    9900018    1    3    3    0    0 -0.51215331712E+02  0.12947098253E+03 -0.10130242580E+03  0.19484123123E+03  0.91187600000E+02 0.  0.
<mgrwt>
<rscale>  0 0.13253772E+04</rscale>
<asrwt>0</asrwt>
<pdfrwt beam="1">  1        2 0.15445418E+00 0.13253772E+04</pdfrwt>
<pdfrwt beam="2">  1       -2 0.67296528E-01 0.13253772E+04</pdfrwt>
<totfact> 0.49636690E+01</totfact>
</mgrwt>
</event>
