<event>
11    1  0.8881051E-012  0.3511092E+04  0.7818608E-02  0.8341615E-01
         -1   -1    0    0    0  501 -0.00000000000E+00  0.00000000000E+00  0.21261180924E+04  0.21261180924E+04  0.00000000000E+00 0.  1.
          1   -1    0    0  501    0  0.00000000000E+00 -0.00000000000E+00 -0.26765854767E+04  0.26765854767E+04  0.00000000000E+00 0. -1.
    9900016    2    1    2    0    0  0.12812533550E+03  0.11446026543E+02  0.51376319557E+03  0.20090071155E+04  0.19379395904E+04 0.  0.
         24    2    3    3    0    0  0.22948180555E+03 -0.80965825699E+02 -0.10189094067E+03  0.27566435298E+03  0.79948156336E+02 0.  0.
        -15    1    4    4    0    0  0.20573076436E+03 -0.59280832280E+02 -0.59050704931E+02  0.22209536293E+03  0.00000000000E+00 0.  1.
        -15    1    1    2    0    0 -0.11367477230E+03  0.28212359577E+03  0.40585069656E+03  0.50717892804E+03  0.00000000000E+00 0.  1.
         15    1    1    2    0    0 -0.32273703535E+03  0.59316416638E+03 -0.19454205279E+03  0.70274428675E+03  0.00000000000E+00 0. -1.
         15    1    3    3    0    0  0.75469035309E+03  0.34161951656E+02  0.24447785909E+03  0.79403651778E+03  0.00000000000E+00 0. -1.
        -16    1    1    2    0    0  0.30828647215E+03 -0.88673378869E+03 -0.12755392237E+04  0.15837732388E+04  0.00000000000E+00 0.  1.
         16    1    4    4    0    0  0.23751041193E+02 -0.21684993419E+02 -0.42840235736E+02  0.53568990052E+02  0.00000000000E+00 0. -1.
    9900018    1    3    3    0    0 -0.85604682314E+03  0.58249900585E+02  0.37117627715E+03  0.93930624476E+03  0.91187600000E+02 0.  0.
<mgrwt>
<rscale>  0 0.26797207E+04</rscale>
<asrwt>0</asrwt>
<pdfrwt beam="1">  1        1 0.41178238E+00 0.35110921E+04</pdfrwt>
<pdfrwt beam="2">  1       -1 0.32709509E+00 0.35110921E+04</pdfrwt>
<totfact> 0.17578841E-02</totfact>
</mgrwt>
</event>
<event>
11    1  0.8881051E-012  0.3368104E+04  0.7818608E-02  0.8145779E-01
         -1   -1    0    0    0  501 -0.00000000000E+00  0.00000000000E+00  0.12121209645E+04  0.12121209645E+04  0.00000000000E+00 0.  1.
          1   -1    0    0  501    0  0.00000000000E+00 -0.00000000000E+00 -0.23397258169E+04  0.23397258169E+04  0.00000000000E+00 0. -1.
    9900016    2    1    2    0    0 -0.10037144623E+03 -0.69234838541E+03 -0.88768943498E+03  0.24290347449E+04  0.21500689629E+04 0.  0.
         24    2    3    3    0    0  0.73709113845E+03 -0.15354906478E+03 -0.31612362620E+03  0.82060688387E+03  0.81122432973E+02 0.  0.
        -15    1    1    2    0    0  0.17570301177E+03  0.21020095769E+02  0.65182958118E+02  0.18857945488E+03  0.00000000000E+00 0.  1.
        -15    1    4    4    0    0  0.19516907067E+03 -0.32661748867E+02 -0.46071791517E+02  0.20317570219E+03  0.00000000000E+00 0.  1.
         15    1    1    2    0    0 -0.15675333279E+03  0.54429712492E+02 -0.26247285518E+03  0.31052568437E+03  0.00000000000E+00 0. -1.
         15    1    3    3    0    0 -0.49056156146E+03 -0.75672552506E+03 -0.31153419566E+01  0.90182807187E+03  0.00000000000E+00 0. -1.
        -16    1    1    2    0    0  0.81421767247E+02  0.61689857715E+03 -0.42625520386E+02  0.62370689723E+03  0.00000000000E+00 0.  1.
         16    1    4    4    0    0  0.54192206778E+03 -0.12088731591E+03 -0.27005183468E+03  0.61743118168E+03  0.00000000000E+00 0. -1.
    9900018    1    3    3    0    0 -0.34690102321E+03  0.21792620443E+03 -0.56845046682E+03  0.70659978921E+03  0.91187600000E+02 0.  0.
<mgrwt>
<rscale>  0 0.33681037E+04</rscale>
<asrwt>0</asrwt>
<pdfrwt beam="1">  1        1 0.35995782E+00 0.33681037E+04</pdfrwt>
<pdfrwt beam="2">  1       -1 0.18648015E+00 0.33681037E+04</pdfrwt>
<totfact> 0.26973762E-01</totfact>
</mgrwt>
</event>
<event>
11    1  0.9004269E-012  0.3787483E+04  0.7818608E-02  0.8048846E-01
          1   -1    0    0  501    0  0.00000000000E+00  0.00000000000E+00  0.25772788770E+04  0.25772788770E+04  0.00000000000E+00 0. -1.
         -1   -1    0    0    0  501 -0.00000000000E+00 -0.00000000000E+00 -0.13914897143E+04  0.13914897143E+04  0.00000000000E+00 0.  1.
    9900016    2    1    2    0    0  0.24516488637E+03 -0.18623393285E+03  0.65654651452E+03  0.22120191939E+04  0.20897814932E+04 0.  0.
         24    2    3    3    0    0 -0.50629420180E+03 -0.61250115299E+03  0.89566766967E+03  0.12000594461E+04  0.80191136877E+02 0.  0.
        -15    1    4    4    0    0 -0.36716875156E+03 -0.49308230478E+03  0.67030364700E+03  0.90953286394E+03  0.00000000000E+00 0.  1.
        -15    1    1    2    0    0  0.20516986096E+03 -0.28294311394E+03  0.17577208466E+03  0.39121260629E+03  0.00000000000E+00 0.  1.
         15    1    1    2    0    0 -0.25346727628E+03  0.16459875917E+03  0.76170916357E+03  0.81947499140E+03  0.00000000000E+00 0. -1.
         15    1    3    3    0    0  0.52937129903E+03  0.50402515787E+03 -0.17662557654E+03  0.75197867409E+03  0.00000000000E+00 0. -1.
        -16    1    1    2    0    0 -0.19686747105E+03  0.30457828762E+03 -0.40823860011E+03  0.54606179967E+03  0.00000000000E+00 0.  1.
         16    1    4    4    0    0 -0.13912545024E+03 -0.11941884821E+03  0.22536402267E+03  0.29052658213E+03  0.00000000000E+00 0. -1.
    9900018    1    3    3    0    0  0.22208778914E+03 -0.77757937731E+02 -0.62495578606E+02  0.25998107374E+03  0.91187600000E+02 0.  0.
<mgrwt>
<rscale>  0 0.37874831E+04</rscale>
<asrwt>0</asrwt>
<pdfrwt beam="1">  1        1 0.39650444E+00 0.37874831E+04</pdfrwt>
<pdfrwt beam="2">  1       -1 0.21407534E+00 0.37874831E+04</pdfrwt>
<totfact> 0.11498874E-01</totfact>
</mgrwt>
</event>
<event>
10    1  0.8881051E-012  0.8284951E+04  0.7818608E-02  0.7457722E-01
          2   -1    0    0  501    0  0.00000000000E+00  0.00000000000E+00  0.32176642952E+04  0.32176642952E+04  0.00000000000E+00 0. -1.
         -2   -1    0    0    0  501 -0.00000000000E+00 -0.00000000000E+00 -0.53330937209E+04  0.53330937209E+04  0.00000000000E+00 0.  1.
        -24    2    1    2    0    0  0.11535249906E+04 -0.47930221554E+02 -0.16906976584E+03  0.11696709275E+04  0.81414267739E+02 0.  0.
        -15    1    1    2    0    0  0.11261535312E+04  0.10150031485E+04  0.48167615908E+02  0.15168300124E+04  0.00000000000E+00 0.  1.
        -15    1    1    2    0    0  0.32757778674E+03 -0.11509336476E+03  0.61878137614E+03  0.70953793446E+03  0.00000000000E+00 0.  1.
         15    1    1    2    0    0 -0.12701392636E+03  0.39087042573E+03 -0.19862303538E+02  0.41146900041E+03  0.00000000000E+00 0. -1.
         15    1    3    3    0    0  0.36421780891E+03 -0.24753569804E+02 -0.16578295583E+02  0.36543425048E+03  0.00000000000E+00 0. -1.
        -16    1    3    3    0    0  0.78930718165E+03 -0.23176651751E+02 -0.15249147026E+03  0.80423667704E+03  0.00000000000E+00 0.  1.
         16    1    1    2    0    0 -0.23829280838E+04 -0.15829662469E+04 -0.30345893532E+04  0.41704749050E+04  0.00000000000E+00 0. -1.
    9900018    1    1    2    0    0 -0.97314298358E+02  0.34011625897E+03  0.44114300474E+03  0.57277523629E+03  0.91187600000E+02 0.  0.
<mgrwt>
<rscale>  0 0.82849515E+04</rscale>
<asrwt>0</asrwt>
<pdfrwt beam="1">  1        2 0.49502528E+00 0.82849515E+04</pdfrwt>
<pdfrwt beam="2">  1       -2 0.82047595E+00 0.82849515E+04</pdfrwt>
<totfact> 0.40839492E-05</totfact>
</mgrwt>
</event>
<event>
10    1  0.8881051E-012  0.3033492E+04  0.7818608E-02  0.8234231E-01
         -1   -1    0    0    0  501 -0.00000000000E+00  0.00000000000E+00  0.82725275178E+03  0.82725275178E+03  0.00000000000E+00 0.  1.
          1   -1    0    0  501    0  0.00000000000E+00 -0.00000000000E+00 -0.27809135955E+04  0.27809135955E+04  0.00000000000E+00 0. -1.
         24    2    1    2    0    0  0.30909542897E+03  0.47992038003E+03 -0.40240036177E+03  0.70295259446E+03  0.79704099815E+02 0.  0.
        -15    1    3    3    0    0  0.97365655135E+02  0.21036377360E+03 -0.18989716594E+03  0.29965633929E+03  0.00000000000E+00 0.  1.
        -15    1    1    2    0    0 -0.14795394291E+03 -0.22899184028E+03 -0.88908155427E+02  0.28676173426E+03  0.00000000000E+00 0.  1.
         15    1    1    2    0    0  0.17051636484E+03  0.12282763659E+02 -0.16633270064E+03  0.23852308958E+03  0.00000000000E+00 0. -1.
         15    1    1    2    0    0  0.43569662413E+03  0.45695070570E+03  0.22388078420E+02  0.63177268204E+03  0.00000000000E+00 0. -1.
        -16    1    1    2    0    0 -0.34008388435E+03 -0.60420466828E+03 -0.85513906889E+03  0.11009010658E+04  0.00000000000E+00 0.  1.
         16    1    3    3    0    0  0.21172977383E+03  0.26955660643E+03 -0.21250319583E+03  0.40329625517E+03  0.00000000000E+00 0. -1.
    9900018    1    1    2    0    0 -0.42727059068E+03 -0.11595734083E+03 -0.46326863546E+03  0.64725518117E+03  0.91187600000E+02 0.  0.
<mgrwt>
<rscale>  0 0.30334920E+04</rscale>
<asrwt>0</asrwt>
<pdfrwt beam="1">  1        1 0.42783287E+00 0.30334920E+04</pdfrwt>
<pdfrwt beam="2">  1       -1 0.12726965E+00 0.30334920E+04</pdfrwt>
<totfact> 0.39017461E-01</totfact>
</mgrwt>
</event>
<event>
11    1  0.8881052E-012  0.5461809E+04  0.7818608E-02  0.7923003E-01
          2   -1    0    0  501    0  0.00000000000E+00  0.00000000000E+00  0.36014228525E+04  0.36014228525E+04  0.00000000000E+00 0. -1.
         -2   -1    0    0    0  501 -0.00000000000E+00 -0.00000000000E+00 -0.44199411873E+04  0.44199411873E+04  0.00000000000E+00 0.  1.
    9900016    2    1    2    0    0 -0.35149388349E+03 -0.12678636294E+04  0.72315094669E+03  0.24370457312E+04  0.19196922856E+04 0.  0.
         24    2    3    3    0    0  0.56898140109E+03 -0.98259172009E+03  0.33132706155E+03  0.11854313038E+04  0.79015384935E+02 0.  0.
        -15    1    1    2    0    0 -0.69485934102E+02  0.47527071889E+03 -0.34143854911E+03  0.58931386721E+03  0.00000000000E+00 0.  1.
        -15    1    4    4    0    0  0.16693437899E+03 -0.23695441501E+03  0.10848164557E+03  0.30948788200E+03  0.00000000000E+00 0.  1.
         15    1    1    2    0    0  0.15094677688E+02 -0.16302106719E+04  0.81033065525E+03  0.18205632246E+04  0.00000000000E+00 0. -1.
         15    1    3    3    0    0 -0.33900424025E+03  0.22735276894E+03  0.13555439445E+03  0.43010248814E+03  0.00000000000E+00 0. -1.
        -16    1    1    2    0    0  0.40588513991E+03  0.24228035824E+04 -0.20105613876E+04  0.31744412168E+04  0.00000000000E+00 0.  1.
         16    1    4    4    0    0  0.40204702210E+03 -0.74563730508E+03  0.22284541599E+03  0.87594342176E+03  0.00000000000E+00 0. -1.
    9900018    1    3    3    0    0 -0.58147104433E+03 -0.51262467827E+03  0.25626949069E+03  0.82151193931E+03  0.91187600000E+02 0.  0.
<mgrwt>
<rscale>  0 0.44300234E+04</rscale>
<asrwt>0</asrwt>
<pdfrwt beam="1">  1        2 0.55406506E+00 0.54618092E+04</pdfrwt>
<pdfrwt beam="2">  1       -2 0.67999095E+00 0.54618092E+04</pdfrwt>
<totfact> 0.12087241E-04</totfact>
</mgrwt>
</event>
<event>
11    1  0.8881051E-012  0.5182005E+04  0.7818608E-02  0.7801029E-01
         -2   -1    0    0    0  501 -0.00000000000E+00  0.00000000000E+00  0.21171820095E+04  0.21171820095E+04  0.00000000000E+00 0.  1.
          2   -1    0    0  501    0  0.00000000000E+00 -0.00000000000E+00 -0.31708626765E+04  0.31708626765E+04  0.00000000000E+00 0. -1.
    9900016    2    1    2    0    0 -0.59644414818E+03  0.17021955286E+03 -0.41295836401E+03  0.22199971234E+04  0.20912035528E+04 0.  0.
         24    2    3    3    0    0 -0.11042693146E+04  0.24883130099E+03 -0.12762813860E+03  0.11419646926E+04  0.80415681181E+02 0.  0.
        -15    1    1    2    0    0  0.39009819640E+03  0.55884665948E+03 -0.14754851899E+03  0.69732112911E+03  0.00000000000E+00 0.  1.
        -15    1    4    4    0    0 -0.35714425943E+03  0.60715886770E+02 -0.85200041721E+01  0.36236864022E+03  0.00000000000E+00 0.  1.
         15    1    3    3    0    0  0.43165311639E+03  0.22184452916E+03 -0.49471307143E+03  0.69302267715E+03  0.00000000000E+00 0. -1.
         15    1    1    2    0    0  0.21712098834E+03 -0.97556078238E+03 -0.12351206202E+04  0.15888307997E+04  0.00000000000E+00 0. -1.
        -16    1    1    2    0    0 -0.10775036565E+02  0.24649457004E+03  0.74194683618E+03  0.78189563382E+03  0.00000000000E+00 0.  1.
         16    1    4    4    0    0 -0.74712505521E+03  0.18811541422E+03 -0.11910813443E+03  0.77959605237E+03  0.00000000000E+00 0. -1.
    9900018    1    3    3    0    0  0.76172050063E+02 -0.30045627729E+03  0.20938284602E+03  0.38500975361E+03  0.91187600000E+02 0.  0.
<mgrwt>
<rscale>  0 0.51820048E+04</rscale>
<asrwt>0</asrwt>
<pdfrwt beam="1">  1        2 0.48782503E+00 0.51820048E+04</pdfrwt>
<pdfrwt beam="2">  1       -2 0.32572031E+00 0.51820048E+04</pdfrwt>
<totfact> 0.21435053E-02</totfact>
</mgrwt>
</event>
<event>
10    1  0.8881051E-012  0.3026330E+04  0.7818608E-02  0.8779495E-01
         -1   -1    0    0    0  501 -0.00000000000E+00  0.00000000000E+00  0.16831302921E+04  0.16831302921E+04  0.00000000000E+00 0.  1.
          1   -1    0    0  501    0  0.00000000000E+00 -0.00000000000E+00 -0.16648507587E+04  0.16648507587E+04  0.00000000000E+00 0. -1.
         24    2    1    2    0    0 -0.68725682487E+03 -0.16019923407E+03 -0.68463848873E+03  0.98637578552E+03  0.78877069371E+02 0.  0.
        -15    1    3    3    0    0 -0.65401937098E+02  0.70954026623E+01 -0.55054275964E+02  0.85783048542E+02  0.00000000000E+00 0.  1.
        -15    1    1    2    0    0 -0.58124815134E+01  0.37964403463E+02  0.66284283644E+02  0.76607356891E+02  0.00000000000E+00 0. -1.
         15    1    1    2    0    0  0.19377752593E+03  0.11645969326E+03  0.86481142317E+02  0.24205697198E+03  0.00000000000E+00 0.  1.
         15    1    1    2    0    0  0.62118720180E+03 -0.57758529195E+03 -0.57430133945E+02  0.85016264881E+03  0.00000000000E+00 0. -1.
        -16    1    1    2    0    0 -0.43603535840E+03  0.13160201822E+03  0.36884317297E+03  0.58608123261E+03  0.00000000000E+00 0.  1.
         16    1    3    3    0    0 -0.62185488777E+03 -0.16729463674E+03 -0.62958421277E+03  0.90059273698E+03  0.00000000000E+00 0. -1.
    9900018    1    1    2    0    0  0.31413993706E+03  0.45175841108E+03  0.23873955718E+03  0.60669705504E+03  0.91187600000E+02 0.  0.
<mgrwt>
<rscale>  0 0.16685713E+04</rscale>
<asrwt>0</asrwt>
<pdfrwt beam="1">  1        1 0.25613088E+00 0.30263300E+04</pdfrwt>
<pdfrwt beam="2">  1       -1 0.25894312E+00 0.30263300E+04</pdfrwt>
<totfact> 0.25792390E-01</totfact>
</mgrwt>
</event>
