<event>
13    1  0.9990956E-008  0.6269712E+04  0.7818608E-02  0.7657832E-01
          2   -1    0    0  501    0  0.00000000000E+00  0.00000000000E+00  0.37431658287E+04  0.37431658287E+04  0.00000000000E+00 0. -1.
         -2   -1    0    0    0  501 -0.00000000000E+00 -0.00000000000E+00 -0.26254036973E+04  0.26254036973E+04  0.00000000000E+00 0.  1.
    9900016    2    1    2    0    0  0.11991321861E+04  0.11934306459E+04 -0.74561231337E+03  0.28693741126E+04  0.21943507855E+04 0.  0.
         24    2    3    3    0    0 -0.57530709140E+02  0.84531195881E+03 -0.12150791042E+04  0.14834493959E+04  0.79641639292E+02 0.  0.
    9900016    2    1    2    0    0 -0.86671216100E+03 -0.10125356016E+04  0.15788192713E+04  0.30169994831E+04  0.21984533825E+04 0.  0.
         23    2    5    5    0    0 -0.34895629938E+03  0.10385662083E+03  0.17360769667E+04  0.17763816090E+04  0.94929920906E+02 0.  0.
        -15    1    4    4    0    0 -0.12215034669E+02  0.54952276265E+03 -0.83568482351E+03  0.10002467685E+04  0.00000000000E+00 0.  1.
        -15    1    6    6    0    0 -0.27057787144E+03  0.11716300727E+03  0.12892489132E+04  0.13225363190E+04  0.00000000000E+00 0. -1.
         15    1    6    6    0    0 -0.78378427947E+02 -0.13306386438E+02  0.44682805348E+03  0.45384529001E+03  0.00000000000E+00 0.  1.
         15    1    3    3    0    0  0.12566628952E+04  0.34811868706E+03  0.46946679079E+03  0.13859247166E+04  0.00000000000E+00 0. -1.
        -16    1    5    5    0    0 -0.51775586162E+03 -0.11163922225E+04 -0.15725769546E+03  0.12406178741E+04  0.00000000000E+00 0.  1.
         16    1    4    4    0    0 -0.45315674471E+02  0.29578919616E+03 -0.37939428065E+03  0.48320262738E+03  0.00000000000E+00 0. -1.
    9900018    1    1    2    0    0 -0.33242002510E+03 -0.18089504423E+03  0.28455517355E+03  0.48219593040E+03  0.91187600000E+02 0.  0.
<mgrwt>
<rscale>  0 0.62697118E+04</rscale>
<asrwt>0</asrwt>
<pdfrwt beam="1">  1        2 0.57587167E+00 0.62697118E+04</pdfrwt>
<pdfrwt beam="2">  1       -2 0.40390826E+00 0.62697118E+04</pdfrwt>
<totfact> 0.24959948E-03</totfact>
</mgrwt>
</event>
<event>
13    1  0.9990957E-008  0.5885052E+04  0.7818608E-02  0.7704819E-01
          2   -1    0    0  501    0  0.00000000000E+00  0.00000000000E+00  0.39413429338E+04  0.39413429338E+04  0.00000000000E+00 0.  1.
         -2   -1    0    0    0  501 -0.00000000000E+00 -0.00000000000E+00 -0.21968300627E+04  0.21968300627E+04  0.00000000000E+00 0. -1.
    9900016    2    1    2    0    0 -0.48093746218E+03  0.16228468848E+03  0.25918903205E+04  0.34373638996E+04  0.21999859049E+04 0.  0.
        -24    2    3    3    0    0  0.40876063954E+02  0.92853619540E+03  0.22727028367E+04  0.24568990212E+04  0.85582110427E+02 0.  0.
    9900016    2    1    2    0    0  0.14267208625E+03 -0.14842101401E+03 -0.75430607937E+03  0.23380514307E+04  0.22034342989E+04 0.  0.
         23    2    5    5    0    0 -0.25803079845E+03 -0.25746293659E+03 -0.14666295635E+04  0.15135165990E+04  0.82844205130E+02 0.  0.
        -15    1    3    3    0    0 -0.52181352614E+03 -0.76625150692E+03  0.31918748380E+03  0.98046487837E+03  0.00000000000E+00 0.  1.
        -15    1    6    6    0    0 -0.15080139498E+03 -0.14959188982E+03 -0.68319175292E+03  0.71545074288E+03  0.00000000000E+00 0.  1.
         15    1    4    4    0    0 -0.17364782542E+02  0.36404970115E+03  0.82342503047E+03  0.90047903995E+03  0.00000000000E+00 0. -1.
         15    1    6    6    0    0 -0.10722940347E+03 -0.10787104678E+03 -0.78343781057E+03  0.79806585614E+03  0.00000000000E+00 0. -1.
        -16    1    4    4    0    0  0.58240846496E+02  0.56448649425E+03  0.14492778062E+04  0.15564199813E+04  0.00000000000E+00 0.  1.
         16    1    5    5    0    0  0.40070288470E+03  0.10904192259E+03  0.71232348412E+03  0.82453483172E+03  0.00000000000E+00 0. -1.
    9900018    1    1    2    0    0  0.33826537593E+03 -0.13863674479E+02 -0.93071370057E+02  0.36275766614E+03  0.91187600000E+02 0.  0.
<mgrwt>
<rscale>  0 0.58850525E+04</rscale>
<asrwt>0</asrwt>
<pdfrwt beam="1">  1        2 0.60636045E+00 0.58850525E+04</pdfrwt>
<pdfrwt beam="2">  1       -2 0.33797385E+00 0.58850525E+04</pdfrwt>
<totfact> 0.47707393E-03</totfact>
</mgrwt>
</event>
<event>
13    1  0.9990956E-008  0.5843571E+04  0.7818608E-02  0.7710105E-01
         -2   -1    0    0    0  501 -0.00000000000E+00  0.00000000000E+00  0.25252791288E+04  0.25252791288E+04  0.00000000000E+00 0.  1.
          2   -1    0    0  501    0  0.00000000000E+00 -0.00000000000E+00 -0.33805494249E+04  0.33805494249E+04  0.00000000000E+00 0. -1.
    9900016    2    1    2    0    0 -0.63155631093E+03  0.31811767391E+03  0.65109659851E+03  0.23847680473E+04  0.21824595370E+04 0.  0.
         24    2    3    3    0    0  0.23163932953E+03  0.32729699868E+03  0.12624674899E+04  0.13269564665E+04  0.78798456070E+02 0.  0.
    9900016    2    1    2    0    0 -0.28787715061E+03 -0.28186041562E+03 -0.12817021917E+04  0.25695028959E+04  0.21902662112E+04 0.  0.
         23    2    5    5    0    0  0.21764913904E+03 -0.33782024041E+03  0.53932581873E+03  0.67878045551E+03  0.91525436225E+02 0.  0.
        -15    1    6    6    0    0  0.10832334798E+03 -0.16380218328E+03  0.18858842257E+03  0.27226952839E+03  0.00000000000E+00 0.  1.
        -15    1    4    4    0    0  0.13131099289E+03  0.13072087714E+03  0.50159814021E+03  0.53472536767E+03  0.00000000000E+00 0.  1.
         15    1    6    6    0    0  0.10932579106E+03 -0.17401805714E+03  0.35073739616E+03  0.40651092712E+03  0.00000000000E+00 0. -1.
         15    1    3    3    0    0 -0.86319564046E+03 -0.91793247748E+01 -0.61137089135E+03  0.10578115808E+04  0.00000000000E+00 0. -1.
        -16    1    5    5    0    0 -0.50552628965E+03  0.55959824792E+02 -0.18210280105E+04  0.18907224403E+04  0.00000000000E+00 0.  1.
         16    1    4    4    0    0  0.10032833664E+03  0.19657612155E+03  0.76086934966E+03  0.79223109882E+03  0.00000000000E+00 0. -1.
    9900018    1    1    2    0    0  0.91943346153E+03 -0.36257258286E+02 -0.22466470292E+03  0.95155761050E+03  0.91187600000E+02 0.  0.
<mgrwt>
<rscale>  0 0.58435711E+04</rscale>
<asrwt>0</asrwt>
<pdfrwt beam="1">  1        2 0.52008453E+00 0.58435711E+04</pdfrwt>
<pdfrwt beam="2">  1       -2 0.38850448E+00 0.58435711E+04</pdfrwt>
<totfact> 0.59020722E-03</totfact>
</mgrwt>
</event>
<event>
13    1  0.9990956E-008  0.5950741E+04  0.7818608E-02  0.7696539E-01
         -2   -1    0    0    0  501 -0.00000000000E+00  0.00000000000E+00  0.49024090740E+04  0.49024090740E+04  0.00000000000E+00 0. -1.
          2   -1    0    0  501    0  0.00000000000E+00 -0.00000000000E+00 -0.18058119110E+04  0.18058119110E+04  0.00000000000E+00 0.  1.
    9900016    2    1    2    0    0 -0.29535324749E+03 -0.28121097678E+03 -0.10251047798E+03  0.22277210234E+04  0.21876744286E+04 0.  0.
        -24    2    3    3    0    0 -0.52155498287E+03  0.25941128483E+03  0.89501012673E+03  0.10707910291E+04  0.78971426514E+02 0.  0.
    9900016    2    1    2    0    0  0.11517759465E+03 -0.14784592198E+03  0.13159261763E+04  0.25385317086E+04  0.21627198707E+04 0.  0.
         23    2    5    5    0    0 -0.55884462478E+02  0.16655523211E+03 -0.57817476568E+03  0.61090915956E+03  0.89778745087E+02 0.  0.
        -15    1    3    3    0    0  0.22620173538E+03 -0.54062226161E+03 -0.99752060471E+03  0.11569299943E+04  0.00000000000E+00 0.  1.
        -15    1    6    6    0    0  0.11193842298E+02  0.10357521396E+03 -0.27463248492E+03  0.29372798441E+03  0.00000000000E+00 0.  1.
         15    1    6    6    0    0 -0.67078304775E+02  0.62980018154E+02 -0.30354228076E+03  0.31718117515E+03  0.00000000000E+00 0. -1.
         15    1    4    4    0    0 -0.10020536929E+03  0.17285144526E+02  0.16525990506E+03  0.19403795628E+03  0.00000000000E+00 0. -1.
        -16    1    4    4    0    0 -0.42134961358E+03  0.24212614030E+03  0.72975022167E+03  0.87675307283E+03  0.00000000000E+00 0.  1.
         16    1    5    5    0    0  0.17106205713E+03 -0.31440115409E+03  0.18941009420E+04  0.19276225491E+04  0.00000000000E+00 0. -1.
    9900018    1    1    2    0    0  0.18017565283E+03  0.42905689876E+03  0.18831814647E+04  0.19419682530E+04  0.91187600000E+02 0.  0.
<mgrwt>
<rscale>  0 0.59507407E+04</rscale>
<asrwt>0</asrwt>
<pdfrwt beam="1">  1        2 0.27781722E+00 0.59507407E+04</pdfrwt>
<pdfrwt beam="2">  1       -2 0.75421678E+00 0.59507407E+04</pdfrwt>
<totfact> 0.80291300E-04</totfact>
</mgrwt>
</event>
<event>
13    1  0.9990956E-008  0.6612455E+04  0.7818608E-02  0.7618779E-01
          2   -1    0    0  501    0  0.00000000000E+00  0.00000000000E+00  0.40410690385E+04  0.40410690385E+04  0.00000000000E+00 0. -1.
         -2   -1    0    0    0  501 -0.00000000000E+00 -0.00000000000E+00 -0.27050121369E+04  0.27050121369E+04  0.00000000000E+00 0.  1.
    9900016    2    1    2    0    0 -0.73762758076E+03  0.11365372555E+03 -0.25044929817E+03  0.23357336911E+04  0.21990714876E+04 0.  0.
         24    2    3    3    0    0 -0.52276908173E+03  0.43950470409E+03 -0.11586063899E+04  0.13472538795E+04  0.79198177274E+02 0.  0.
    9900016    2    1    2    0    0  0.15977373100E+04 -0.17228871777E+03  0.20620701877E+04  0.34215587841E+04  0.22073701864E+04 0.  0.
         23    2    5    5    0    0 -0.29024159189E+02 -0.29825872365E+03 -0.37510129036E+03  0.48863769181E+03  0.90912858125E+02 0.  0.
        -15    1    6    6    0    0 -0.51095569280E+02 -0.22311385743E+03 -0.31756239378E+03  0.39145424321E+03  0.00000000000E+00 0.  1.
        -15    1    4    4    0    0 -0.16506251955E+03  0.11264389070E+03 -0.28179063206E+03  0.34545657005E+03  0.00000000000E+00 0.  1.
         15    1    6    6    0    0  0.22071410090E+02 -0.75144866220E+02 -0.57538896577E+02  0.97183448601E+02  0.00000000000E+00 0. -1.
         15    1    3    3    0    0 -0.21485849903E+03 -0.32585097854E+03  0.90815709173E+03  0.98847981167E+03  0.00000000000E+00 0. -1.
        -16    1    5    5    0    0  0.16267614692E+04  0.12597000588E+03  0.24371714781E+04  0.29329210923E+04  0.00000000000E+00 0.  1.
         16    1    4    4    0    0 -0.35770656217E+03  0.32686081339E+03 -0.87681575783E+03  0.10017973094E+04  0.00000000000E+00 0. -1.
    9900018    1    1    2    0    0 -0.86010972925E+03  0.58634992221E+02 -0.47556398791E+03  0.98878870021E+03  0.91187600000E+02 0.  0.
<mgrwt>
<rscale>  0 0.66124552E+04</rscale>
<asrwt>0</asrwt>
<pdfrwt beam="1">  1        2 0.62170293E+00 0.66124552E+04</pdfrwt>
<pdfrwt beam="2">  1       -2 0.41615571E+00 0.66124552E+04</pdfrwt>
<totfact> 0.11779878E-03</totfact>
</mgrwt>
</event>
<event>
13    1  0.9990956E-008  0.6675039E+04  0.7818608E-02  0.7611910E-01
          2   -1    0    0  501    0  0.00000000000E+00  0.00000000000E+00  0.49071441139E+04  0.49071441139E+04  0.00000000000E+00 0. -1.
         -2   -1    0    0    0  501 -0.00000000000E+00 -0.00000000000E+00 -0.22699633547E+04  0.22699633547E+04  0.00000000000E+00 0.  1.
    9900016    2    1    2    0    0 -0.10714623669E+03 -0.62956143180E+03 -0.10215695275E+04  0.24942900513E+04  0.21840445619E+04 0.  0.
         24    2    3    3    0    0  0.11595606411E+03  0.57473070543E+03 -0.11187899615E+04  0.12656542220E+04  0.80177547177E+02 0.  0.
    9900016    2    1    2    0    0 -0.37689339570E+03  0.41146676150E+03  0.24269722524E+04  0.33384023196E+04  0.22233718101E+04 0.  0.
         23    2    5    5    0    0  0.37279878654E+03  0.55755799022E+02 -0.29852593245E+03  0.48938336341E+03  0.91053279283E+02 0.  0.
        -15    1    6    6    0    0  0.15432633025E+03  0.65442796405E+02 -0.15078963484E+03  0.22547037452E+03  0.00000000000E+00 0. -1.
        -15    1    4    4    0    0  0.48896787781E+02  0.90123211569E+02 -0.19113568428E+03  0.21690075824E+03  0.00000000000E+00 0.  1.
         15    1    6    6    0    0  0.21847245629E+03 -0.96869973839E+01 -0.14773629761E+03  0.26391298889E+03  0.00000000000E+00 0.  1.
         15    1    3    3    0    0 -0.22310230080E+03 -0.12042921372E+04  0.97220434018E+02  0.12286358294E+04  0.00000000000E+00 0. -1.
        -16    1    5    5    0    0 -0.74969218224E+03  0.35571096248E+03  0.27254981849E+04  0.28490189562E+04  0.00000000000E+00 0.  1.
         16    1    4    4    0    0  0.67059276328E+02  0.48460749386E+03 -0.92765427722E+03  0.10487534637E+04  0.00000000000E+00 0. -1.
    9900018    1    1    2    0    0  0.48403963239E+03  0.21809467030E+03  0.12317780342E+04  0.13444150977E+04  0.91187600000E+02 0.  0.
<mgrwt>
<rscale>  0 0.66750393E+04</rscale>
<asrwt>0</asrwt>
<pdfrwt beam="1">  1        2 0.75494525E+00 0.66750393E+04</pdfrwt>
<pdfrwt beam="2">  1       -2 0.34922513E+00 0.66750393E+04</pdfrwt>
<totfact> 0.43977020E-04</totfact>
</mgrwt>
</event>
<event>
13    1  0.9990956E-008  0.7222468E+04  0.7818608E-02  0.7554917E-01
          2   -1    0    0  501    0  0.00000000000E+00  0.00000000000E+00  0.21926621445E+04  0.21926621445E+04  0.00000000000E+00 0. -1.
         -2   -1    0    0    0  501 -0.00000000000E+00 -0.00000000000E+00 -0.59475693826E+04  0.59475693826E+04  0.00000000000E+00 0.  1.
    9900016    2    1    2    0    0 -0.79930323737E+02 -0.16653068702E+04 -0.19431993864E+03  0.27672972349E+04  0.22001222509E+04 0.  0.
        -24    2    3    3    0    0  0.96706599577E+03 -0.83616150990E+03  0.34560095410E+03  0.13267425181E+04  0.80143490427E+02 0.  0.
    9900016    2    1    2    0    0 -0.95386250628E+03  0.58287551030E+03 -0.18062185794E+04  0.30650109727E+04  0.22095857450E+04 0.  0.
         23    2    5    5    0    0  0.30260152680E+03  0.52419705625E+03 -0.16953185230E+04  0.18022980798E+04  0.88449059860E+02 0.  0.
        -15    1    3    3    0    0 -0.10469963195E+04 -0.82914536035E+03 -0.53992089273E+03  0.14405547168E+04  0.00000000000E+00 0.  1.
        -15    1    6    6    0    0  0.30046597779E+03  0.49138601894E+03 -0.16367075970E+04  0.17350941708E+04  0.00000000000E+00 0. -1.
         15    1    6    6    0    0  0.21355490119E+01  0.32811037308E+02 -0.58610925982E+02  0.67203908988E+02  0.00000000000E+00 0.  1.
         15    1    4    4    0    0  0.80249527381E+03 -0.70974623293E+03  0.31713811550E+03  0.11172801636E+04  0.00000000000E+00 0. -1.
        -16    1    4    4    0    0  0.16457072195E+03 -0.12641527697E+03  0.28462838594E+02  0.20946235451E+03  0.00000000000E+00 0.  1.
         16    1    5    5    0    0 -0.12564640331E+04  0.58678454053E+02 -0.11090005647E+03  0.12627128929E+04  0.00000000000E+00 0. -1.
    9900018    1    1    2    0    0  0.10337928300E+04  0.10824313599E+04 -0.17543687200E+04  0.23079233195E+04  0.91187600000E+02 0.  0.
<mgrwt>
<rscale>  0 0.72224678E+04</rscale>
<asrwt>0</asrwt>
<pdfrwt beam="1">  1        2 0.33733265E+00 0.72224678E+04</pdfrwt>
<pdfrwt beam="2">  1       -2 0.91501065E+00 0.72224678E+04</pdfrwt>
<totfact> 0.15600972E-05</totfact>
</mgrwt>
</event>
<event>
13    1  0.9990956E-008  0.5841279E+04  0.7818608E-02  0.7710399E-01
         -2   -1    0    0    0  501 -0.00000000000E+00  0.00000000000E+00  0.23994232660E+04  0.23994232660E+04  0.00000000000E+00 0.  1.
          2   -1    0    0  501    0  0.00000000000E+00 -0.00000000000E+00 -0.35550770081E+04  0.35550770081E+04  0.00000000000E+00 0. -1.
    9900016    2    1    2    0    0  0.22729316766E+03 -0.42556069445E+03 -0.13513682950E+04  0.26168443062E+04  0.21883586921E+04 0.  0.
         24    2    3    3    0    0  0.96486129822E+03  0.28712091987E+02  0.49451019866E+02  0.96982722533E+03  0.79609890075E+02 0.  0.
    9900016    2    1    2    0    0 -0.25902606013E+03  0.71029997050E+03  0.95878483648E+03  0.25174883827E+04  0.22015582769E+04 0.  0.
         23    2    5    5    0    0 -0.24161465068E+03  0.20169572612E+02 -0.68630567495E+03  0.73341834092E+03  0.90014066944E+02 0.  0.
        -15    1    6    6    0    0 -0.11804395198E+03  0.38823441909E+02 -0.44016615556E+03  0.45737061421E+03  0.00000000000E+00 0.  1.
        -15    1    4    4    0    0  0.18977837389E+03  0.17053987453E+02  0.39492204502E+02  0.19459266147E+03  0.00000000000E+00 0.  1.
         15    1    3    3    0    0 -0.73756813056E+03 -0.45427278644E+03 -0.14008193149E+04  0.16470170809E+04  0.00000000000E+00 0. -1.
         15    1    6    6    0    0 -0.12357069870E+03 -0.18653869297E+02 -0.24613951938E+03  0.27604772671E+03  0.00000000000E+00 0. -1.
        -16    1    5    5    0    0 -0.17411409452E+02  0.69013039789E+03  0.16450905114E+04  0.17840700418E+04  0.00000000000E+00 0.  1.
         16    1    4    4    0    0  0.77508292434E+03  0.11658104534E+02  0.99588153635E+01  0.77523456386E+03  0.00000000000E+00 0. -1.
    9900018    1    1    2    0    0  0.31732892469E+02 -0.28473927605E+03 -0.76307028355E+03  0.82016758520E+03  0.91187600000E+02 0.  0.
<mgrwt>
<rscale>  0 0.58412788E+04</rscale>
<asrwt>0</asrwt>
<pdfrwt beam="1">  1        2 0.54693493E+00 0.58412788E+04</pdfrwt>
<pdfrwt beam="2">  1       -2 0.36914204E+00 0.58412788E+04</pdfrwt>
<totfact> 0.59438248E-03</totfact>
</mgrwt>
</event>
<event>
13    1  0.9990956E-008  0.5635138E+04  0.7818608E-02  0.7737363E-01
          2   -1    0    0  501    0  0.00000000000E+00  0.00000000000E+00  0.31947702958E+04  0.31947702958E+04  0.00000000000E+00 0. -1.
         -2   -1    0    0    0  501 -0.00000000000E+00 -0.00000000000E+00 -0.24849028872E+04  0.24849028872E+04  0.00000000000E+00 0.  1.
    9900016    2    1    2    0    0 -0.31390018856E+03 -0.49545009465E+02  0.75216383234E+03  0.23553465162E+04  0.22092801416E+04 0.  0.
        -24    2    3    3    0    0  0.19752396641E+03 -0.78106521124E+03  0.11266343706E+04  0.13874081628E+04  0.80733038596E+02 0.  0.
    9900016    2    1    2    0    0  0.10579455206E+04  0.10658952480E+03  0.36720415019E+03  0.24682522359E+04  0.21970025400E+04 0.  0.
         23    2    5    5    0    0 -0.43198352874E+03  0.90464817296E+02  0.79872112661E+03  0.91700903149E+03  0.90313196545E+02 0.  0.
        -15    1    6    6    0    0 -0.16795642126E+03  0.54376653205E+02  0.23943001497E+03  0.29747758222E+03  0.00000000000E+00 0. -1.
        -15    1    3    3    0    0 -0.51142415498E+03  0.73152020178E+03 -0.37447053831E+03  0.96793835339E+03  0.00000000000E+00 0.  1.
         15    1    4    4    0    0  0.10437317747E+03 -0.55869646799E+03  0.77562660586E+03  0.96157794028E+03  0.00000000000E+00 0. -1.
         15    1    6    6    0    0 -0.26402710748E+03  0.36088164091E+02  0.55929111164E+03  0.61953144927E+03  0.00000000000E+00 0.  1.
        -16    1    4    4    0    0  0.93150788943E+02 -0.22236874325E+03  0.35100776479E+03  0.42583022250E+03  0.00000000000E+00 0.  1.
         16    1    5    5    0    0  0.14899290493E+04  0.16124707507E+02 -0.43151697642E+03  0.15512432044E+04  0.00000000000E+00 0. -1.
    9900018    1    1    2    0    0 -0.74404533200E+03 -0.57044515339E+02 -0.40950057394E+03  0.85607443091E+03  0.91187600000E+02 0.  0.
<mgrwt>
<rscale>  0 0.56351376E+04</rscale>
<asrwt>0</asrwt>
<pdfrwt beam="1">  1        2 0.49150312E+00 0.56351376E+04</pdfrwt>
<pdfrwt beam="2">  1       -2 0.38229275E+00 0.56351376E+04</pdfrwt>
<totfact> 0.87538978E-03</totfact>
</mgrwt>
</event>
<event>
13    1  0.9990956E-008  0.5486364E+04  0.7818608E-02  0.7757568E-01
          2   -1    0    0  501    0  0.00000000000E+00  0.00000000000E+00  0.27066609849E+04  0.27066609849E+04  0.00000000000E+00 0. -1.
         -2   -1    0    0    0  501 -0.00000000000E+00 -0.00000000000E+00 -0.27801953111E+04  0.27801953111E+04  0.00000000000E+00 0.  1.
    9900016    2    1    2    0    0  0.11752276187E+04  0.57531614654E+03  0.26898081022E+01  0.25643822259E+04  0.22054252065E+04 0.  0.
         24    2    3    3    0    0 -0.82832645510E+02 -0.32172098651E+03  0.76776082072E+03  0.84022303933E+03  0.78437476193E+02 0.  0.
    9900016    2    1    2    0    0 -0.80170805398E+03 -0.72507470427E+03  0.13322801914E+03  0.24597323777E+04  0.22054624309E+04 0.  0.
         23    2    5    5    0    0 -0.20811726192E+03  0.30783077796E+03 -0.83890033482E+03  0.92211171572E+03  0.91998162695E+02 0.  0.
        -15    1    6    6    0    0 -0.96745758421E+02  0.17546812918E+03 -0.55024351671E+03  0.58559092703E+03  0.00000000000E+00 0.  1.
        -15    1    4    4    0    0 -0.47148905745E+02 -0.19365030763E+03  0.55099358717E+03  0.58593292624E+03  0.00000000000E+00 0.  1.
         15    1    3    3    0    0  0.12580602642E+04  0.89703713305E+03 -0.76507101261E+03  0.17241591866E+04  0.00000000000E+00 0. -1.
         15    1    6    6    0    0 -0.11137150350E+03  0.13236264878E+03 -0.28865681810E+03  0.33652078869E+03  0.00000000000E+00 0. -1.
        -16    1    5    5    0    0 -0.59359079206E+03 -0.10329054822E+04  0.97212835395E+03  0.15376206620E+04  0.00000000000E+00 0.  1.
         16    1    4    4    0    0 -0.35683739765E+02 -0.12807067888E+03  0.21676723355E+03  0.25429011309E+03  0.00000000000E+00 0. -1.
    9900018    1    1    2    0    0 -0.37351956472E+03  0.14975855774E+03 -0.20945215340E+03  0.46274169231E+03  0.91187600000E+02 0.  0.
<mgrwt>
<rscale>  0 0.54863635E+04</rscale>
<asrwt>0</asrwt>
<pdfrwt beam="1">  1        2 0.41640938E+00 0.54863635E+04</pdfrwt>
<pdfrwt beam="2">  1       -2 0.42772236E+00 0.54863635E+04</pdfrwt>
<totfact> 0.90062657E-03</totfact>
</mgrwt>
</event>
<event>
13    1  0.9990956E-008  0.5552732E+04  0.7818608E-02  0.7748475E-01
          1   -1    0    0  501    0  0.00000000000E+00  0.00000000000E+00  0.29950500694E+04  0.29950500694E+04  0.00000000000E+00 0. -1.
         -1   -1    0    0    0  501 -0.00000000000E+00 -0.00000000000E+00 -0.25736495155E+04  0.25736495155E+04  0.00000000000E+00 0.  1.
    9900016    2    1    2    0    0 -0.29575728919E+02 -0.30511906774E+03  0.73260230579E+03  0.23442733825E+04  0.22056607137E+04 0.  0.
         24    2    3    3    0    0  0.80170167110E+03 -0.48693358513E+03 -0.31687432414E+03  0.99317019199E+03  0.78407953549E+02 0.  0.
    9900016    2    1    2    0    0 -0.46567728982E+03  0.16486969805E+03 -0.90433608049E+03  0.24338131818E+04  0.22049003383E+04 0.  0.
         23    2    5    5    0    0  0.30216124627E+03 -0.20716005737E+03  0.59710236270E+03  0.70687961180E+03  0.94503152941E+02 0.  0.
        -15    1    6    6    0    0  0.16233131076E+03 -0.16686800902E+03  0.37160359770E+03  0.43850384344E+03  0.00000000000E+00 0.  1.
        -15    1    4    4    0    0  0.35858499513E+03 -0.17685709333E+03 -0.15230923640E+03  0.42785480445E+03  0.00000000000E+00 0.  1.
         15    1    3    3    0    0 -0.83127740002E+03  0.18181451739E+03  0.10494766299E+04  0.13511031905E+04  0.00000000000E+00 0. -1.
         15    1    6    6    0    0  0.13982993551E+03 -0.40292048345E+02  0.22549876501E+03  0.26837576836E+03  0.00000000000E+00 0. -1.
        -16    1    5    5    0    0 -0.76783853609E+03  0.37202975542E+03 -0.15014384432E+04  0.17269335700E+04  0.00000000000E+00 0.  1.
         16    1    4    4    0    0  0.44311667597E+03 -0.31007649180E+03 -0.16456508774E+03  0.56531538754E+03  0.00000000000E+00 0. -1.
    9900018    1    1    2    0    0  0.49525301874E+03  0.14024936969E+03  0.59313432862E+03  0.79061302067E+03  0.91187600000E+02 0.  0.
<mgrwt>
<rscale>  0 0.55527324E+04</rscale>
<asrwt>0</asrwt>
<pdfrwt beam="1">  1        1 0.46077693E+00 0.55527324E+04</pdfrwt>
<pdfrwt beam="2">  1       -1 0.39594608E+00 0.55527324E+04</pdfrwt>
<totfact> 0.31788829E-03</totfact>
</mgrwt>
</event>
<event>
13    1  0.9990956E-008  0.6706143E+04  0.7818608E-02  0.7608524E-01
         -2   -1    0    0    0  501 -0.00000000000E+00  0.00000000000E+00  0.33977813847E+04  0.33977813847E+04  0.00000000000E+00 0.  1.
          2   -1    0    0  501    0  0.00000000000E+00 -0.00000000000E+00 -0.33089502156E+04  0.33089502156E+04  0.00000000000E+00 0. -1.
    9900016    2    1    2    0    0 -0.10215380244E+04  0.52641269335E+03 -0.99301578372E+03  0.26761798275E+04  0.22034536218E+04 0.  0.
         24    2    3    3    0    0  0.29103091510E+03 -0.16940667846E+03 -0.11323542691E+04  0.11840615237E+04  0.79861660629E+02 0.  0.
    9900016    2    1    2    0    0  0.10328787110E+04 -0.14852871219E+04  0.46874781673E+03  0.28887223153E+04  0.22027427978E+04 0.  0.
         23    2    5    5    0    0  0.17110535490E+03 -0.33278139047E+03  0.12101004356E+04  0.12699182864E+04  0.91262772261E+02 0.  0.
        -15    1    6    6    0    0  0.99935822795E+02 -0.20875400232E+03  0.88493121705E+03  0.91469593913E+03  0.00000000000E+00 0.  1.
        -15    1    4    4    0    0  0.17135768313E+03 -0.12261866799E+03 -0.81211289537E+03  0.83900306801E+03  0.00000000000E+00 0.  1.
         15    1    3    3    0    0 -0.13125689395E+04  0.69581937181E+03  0.13933848542E+03  0.14921183038E+04  0.00000000000E+00 0. -1.
         15    1    6    6    0    0  0.71169532102E+02 -0.12402738815E+03  0.32516921859E+03  0.35522234732E+03  0.00000000000E+00 0. -1.
        -16    1    5    5    0    0  0.86177335609E+03 -0.11525057315E+04 -0.74135261891E+03  0.16188040289E+04  0.00000000000E+00 0.  1.
         16    1    4    4    0    0  0.11967323197E+03 -0.46788010470E+02 -0.32024137377E+03  0.34505845569E+03  0.00000000000E+00 0. -1.
    9900018    1    1    2    0    0 -0.11340686582E+02  0.95887442858E+03  0.61309913606E+03  0.11418294575E+04  0.91187600000E+02 0.  0.
<mgrwt>
<rscale>  0 0.67061433E+04</rscale>
<asrwt>0</asrwt>
<pdfrwt beam="1">  1        2 0.50906926E+00 0.67061433E+04</pdfrwt>
<pdfrwt beam="2">  1       -2 0.52273560E+00 0.67061433E+04</pdfrwt>
<totfact> 0.85803472E-04</totfact>
</mgrwt>
</event>
<event>
13    1  0.9990956E-008  0.6579266E+04  0.7818608E-02  0.7622454E-01
         -1   -1    0    0    0  501 -0.00000000000E+00  0.00000000000E+00  0.31619734494E+04  0.31619734494E+04  0.00000000000E+00 0.  1.
          1   -1    0    0  501    0  0.00000000000E+00 -0.00000000000E+00 -0.34224464551E+04  0.34224464551E+04  0.00000000000E+00 0. -1.
    9900016    2    1    2    0    0 -0.12154075034E+04  0.11490288955E+04  0.17444137912E+03  0.27746754106E+04  0.22070140546E+04 0.  0.
         24    2    3    3    0    0  0.29125246915E+03 -0.41770005854E+03  0.30198244059E+03  0.59730759350E+03  0.79256716680E+02 0.  0.
    9900016    2    1    2    0    0  0.12242353668E+04 -0.18162193168E+04 -0.27100415780E+03  0.31166335862E+04  0.22005810180E+04 0.  0.
         23    2    5    5    0    0  0.34365542119E+03  0.21843378620E+03 -0.74158792450E+03  0.85020834546E+03  0.84197467034E+02 0.  0.
        -15    1    6    6    0    0  0.20854079329E+03  0.15264387661E+03 -0.54110834152E+03  0.59965627888E+03  0.00000000000E+00 0.  1.
        -15    1    4    4    0    0  0.87404523296E+02 -0.99420687635E+02  0.43227237542E+02  0.13925738001E+03  0.00000000000E+00 0.  1.
         15    1    6    6    0    0  0.13511462790E+03  0.65789909594E+02 -0.20047958298E+03  0.25055206659E+03  0.00000000000E+00 0. -1.
         15    1    3    3    0    0 -0.15066599726E+04  0.15667289540E+04 -0.12754106146E+03  0.21773678171E+04  0.00000000000E+00 0. -1.
        -16    1    5    5    0    0  0.88057994565E+03 -0.20346531030E+04  0.47058376670E+03  0.22664252407E+04  0.00000000000E+00 0.  1.
         16    1    4    4    0    0  0.20384794585E+03 -0.31827937091E+03  0.25875520304E+03  0.45805021349E+03  0.00000000000E+00 0. -1.
    9900018    1    1    2    0    0 -0.88278633954E+01  0.66719042135E+03 -0.16391022697E+03  0.69311090773E+03  0.91187600000E+02 0.  0.
<mgrwt>
<rscale>  0 0.65792659E+04</rscale>
<asrwt>0</asrwt>
<pdfrwt beam="1">  1        1 0.52653023E+00 0.65792659E+04</pdfrwt>
<pdfrwt beam="2">  1       -1 0.48645745E+00 0.65792659E+04</pdfrwt>
<totfact> 0.33910550E-04</totfact>
</mgrwt>
</event>
<event>
13    1  0.9990956E-008  0.4963659E+04  0.7818608E-02  0.7834138E-01
          1   -1    0    0  501    0  0.00000000000E+00  0.00000000000E+00  0.34822128334E+04  0.34822128334E+04  0.00000000000E+00 0. -1.
         -1   -1    0    0    0  501 -0.00000000000E+00 -0.00000000000E+00 -0.17688403664E+04  0.17688403664E+04  0.00000000000E+00 0.  1.
    9900016    2    1    2    0    0 -0.47959316360E+02 -0.37906053936E+03  0.12723465444E+04  0.25654479130E+04  0.21946913854E+04 0.  0.
         24    2    3    3    0    0 -0.67849988025E+03 -0.87007449229E+03  0.53019060397E+02  0.11075605313E+04  0.80545639653E+02 0.  0.
    9900016    2    1    2    0    0 -0.12271311519E+03  0.51441565201E+03  0.96224685389E+02  0.22676900357E+04  0.22030608109E+04 0.  0.
         23    2    5    5    0    0 -0.29140915648E+03 -0.31724185834E+03  0.96035074826E+03  0.10565639393E+04  0.92152618227E+02 0.  0.
        -15    1    6    6    0    0 -0.10837261730E+03 -0.18467602045E+03  0.44504344570E+03  0.49387602217E+03  0.00000000000E+00 0.  1.
        -15    1    4    4    0    0 -0.59089618499E+03 -0.73904318786E+03  0.71179703993E+02  0.94889919656E+03  0.00000000000E+00 0.  1.
         15    1    3    3    0    0  0.63054056389E+03  0.49101395293E+03  0.12193274840E+04  0.14578873817E+04  0.00000000000E+00 0. -1.
         15    1    6    6    0    0 -0.18303653918E+03 -0.13256583789E+03  0.51530730256E+03  0.56268791717E+03  0.00000000000E+00 0. -1.
        -16    1    5    5    0    0  0.16869604129E+03  0.83165751034E+03 -0.86412606287E+03  0.12111260964E+04  0.00000000000E+00 0.  1.
         16    1    4    4    0    0 -0.87603695254E+02 -0.13103130443E+03 -0.18160643596E+02  0.15866133473E+03  0.00000000000E+00 0. -1.
    9900018    1    1    2    0    0  0.17067243155E+03 -0.13535511265E+03  0.34480123731E+03  0.41791525104E+03  0.91187600000E+02 0.  0.
<mgrwt>
<rscale>  0 0.49636594E+04</rscale>
<asrwt>0</asrwt>
<pdfrwt beam="1">  1        1 0.53572505E+00 0.49636594E+04</pdfrwt>
<pdfrwt beam="2">  1       -1 0.27212929E+00 0.49636594E+04</pdfrwt>
<totfact> 0.93426113E-03</totfact>
</mgrwt>
</event>
<event>
13    1  0.9990956E-008  0.5773101E+04  0.7818608E-02  0.7719189E-01
          2   -1    0    0  501    0  0.00000000000E+00  0.00000000000E+00  0.31854348481E+04  0.31854348481E+04  0.00000000000E+00 0. -1.
         -2   -1    0    0    0  501 -0.00000000000E+00 -0.00000000000E+00 -0.26157104183E+04  0.26157104183E+04  0.00000000000E+00 0.  1.
    9900016    2    1    2    0    0  0.15095967018E+04 -0.64197155427E+02 -0.47419000275E+03  0.27095015476E+04  0.21985311008E+04 0.  0.
        -24    2    3    3    0    0 -0.48694848030E+02  0.61390040332E+03 -0.76520341796E+03  0.98532706076E+03  0.78027254131E+02 0.  0.
    9900016    2    1    2    0    0 -0.11260049833E+04  0.92044333667E+02  0.73020678927E+03  0.25870193677E+04  0.22097755253E+04 0.  0.
         23    2    5    5    0    0  0.43869347035E+03 -0.36586341132E+03  0.76168309107E+03  0.95639019117E+03  0.90625988998E+02 0.  0.
        -15    1    3    3    0    0  0.15582915498E+04 -0.67809755875E+03  0.29101341521E+03  0.17241744869E+04  0.00000000000E+00 0.  1.
        -15    1    6    6    0    0  0.41879482119E+02 -0.28672601478E+02  0.32161871039E+02  0.60086562947E+02  0.00000000000E+00 0.  1.
         15    1    4    4    0    0  0.10491204157E+02  0.34456266293E+03 -0.43940978718E+03  0.55849302155E+03  0.00000000000E+00 0. -1.
         15    1    6    6    0    0  0.39681398823E+03 -0.33719080984E+03  0.72952122003E+03  0.89630362823E+03  0.00000000000E+00 0. -1.
        -16    1    4    4    0    0 -0.59186052187E+02  0.26933774039E+03 -0.32579363078E+03  0.42683403921E+03  0.00000000000E+00 0.  1.
         16    1    5    5    0    0 -0.15646984537E+04  0.45790774499E+03 -0.31476301793E+02  0.16306291766E+04  0.00000000000E+00 0. -1.
    9900018    1    1    2    0    0 -0.38359171846E+03 -0.27847178241E+02  0.31370764332E+03  0.50462435105E+03  0.91187600000E+02 0.  0.
<mgrwt>
<rscale>  0 0.57731015E+04</rscale>
<asrwt>0</asrwt>
<pdfrwt beam="1">  1        2 0.49006690E+00 0.57731015E+04</pdfrwt>
<pdfrwt beam="2">  1       -2 0.40241699E+00 0.57731015E+04</pdfrwt>
<totfact> 0.65001694E-03</totfact>
</mgrwt>
</event>
<event>
13    1  0.9990956E-008  0.6917776E+04  0.7818608E-02  0.7585975E-01
          3   -1    0    0  501    0  0.00000000000E+00  0.00000000000E+00  0.33541649390E+04  0.33541649390E+04  0.00000000000E+00 0. -1.
         -3   -1    0    0    0  501 -0.00000000000E+00 -0.00000000000E+00 -0.35668806972E+04  0.35668806972E+04  0.00000000000E+00 0.  1.
    9900016    2    1    2    0    0 -0.81240477318E+03  0.10943119803E+04 -0.44123733946E+03  0.26215439837E+04  0.21955141181E+04 0.  0.
         24    2    3    3    0    0 -0.25626346704E+03  0.14156432265E+04  0.46222098177E+03  0.15130387467E+04  0.76950009247E+02 0.  0.
    9900016    2    1    2    0    0  0.21327469013E+03 -0.18970940984E+04 -0.66857030467E+03  0.29517238461E+04  0.21497058636E+04 0.  0.
         23    2    5    5    0    0 -0.27217319146E+03  0.25324877245E+03  0.35414789602E+03  0.52158256918E+03  0.91730351155E+02 0.  0.
        -15    1    4    4    0    0 -0.17819196415E+03  0.78378710950E+03  0.24367497027E+03  0.83991195982E+03  0.00000000000E+00 0.  1.
        -15    1    6    6    0    0 -0.88508923166E+02  0.62337305092E+02  0.53124128448E+02  0.12058997516E+03  0.00000000000E+00 0.  1.
         15    1    6    6    0    0 -0.18366426829E+03  0.19091146736E+03  0.30102376757E+03  0.40099259402E+03  0.00000000000E+00 0. -1.
         15    1    3    3    0    0 -0.55614130614E+03 -0.32133124614E+03 -0.90345832123E+03  0.11085052369E+04  0.00000000000E+00 0. -1.
        -16    1    5    5    0    0  0.48544788159E+03 -0.21503428708E+04 -0.10227182007E+04  0.24301412769E+04  0.00000000000E+00 0.  1.
         16    1    4    4    0    0 -0.78071502888E+02  0.63185611697E+03  0.21854601150E+03  0.67312678691E+03  0.00000000000E+00 0. -1.
    9900018    1    1    2    0    0  0.59913008305E+03  0.80278211804E+03  0.89709188590E+03  0.13477778065E+04  0.91187600000E+02 0.  0.
<mgrwt>
<rscale>  0 0.69177760E+04</rscale>
<asrwt>0</asrwt>
<pdfrwt beam="1">  1        3 0.51602537E+00 0.69177760E+04</pdfrwt>
<pdfrwt beam="2">  1       -3 0.54875088E+00 0.69177760E+04</pdfrwt>
<totfact> 0.77831972E-06</totfact>
</mgrwt>
</event>
<event>
13    1  0.9990956E-008  0.6623451E+04  0.7818608E-02  0.7617567E-01
         -2   -1    0    0    0  501 -0.00000000000E+00  0.00000000000E+00  0.32108284027E+04  0.32108284027E+04  0.00000000000E+00 0.  1.
          2   -1    0    0  501    0  0.00000000000E+00 -0.00000000000E+00 -0.34157930779E+04  0.34157930779E+04  0.00000000000E+00 0. -1.
    9900016    2    1    2    0    0  0.13461372400E+04 -0.22153205126E+02 -0.58082168553E+03  0.26411174696E+04  0.21967183307E+04 0.  0.
         24    2    3    3    0    0 -0.54297824456E+03  0.99796801754E+02 -0.49564910931E+03  0.74615480873E+03  0.79335889277E+02 0.  0.
    9900016    2    1    2    0    0 -0.21154257213E+04 -0.32775548720E+03  0.56569364352E+03  0.31145309998E+04  0.21903982307E+04 0.  0.
         23    2    5    5    0    0 -0.34316416319E+03  0.70843131123E+03 -0.35166852459E+03  0.86594311873E+03  0.80933108522E+02 0.  0.
        -15    1    6    6    0    0 -0.10961997241E+01  0.42077794713E+02 -0.23199993681E+02  0.48062273860E+02  0.00000000000E+00 0. -1.
        -15    1    4    4    0    0 -0.24632332485E+03  0.85420910273E+02 -0.22802093861E+03  0.34636030477E+03  0.00000000000E+00 0.  1.
         15    1    6    6    0    0 -0.34206796347E+03  0.66635351652E+03 -0.32846853091E+03  0.81788084487E+03  0.00000000000E+00 0.  1.
         15    1    3    3    0    0  0.18891154846E+04 -0.12195000688E+03 -0.85172576226E+02  0.18949626608E+04  0.00000000000E+00 0. -1.
        -16    1    5    5    0    0 -0.17722615581E+04 -0.10361867984E+04  0.91736216810E+03  0.22485878811E+04  0.00000000000E+00 0.  1.
         16    1    4    4    0    0 -0.29665491971E+03  0.14375891481E+02 -0.26762817070E+03  0.39979450396E+03  0.00000000000E+00 0. -1.
    9900018    1    1    2    0    0  0.76928848127E+03  0.34990869233E+03 -0.18983663318E+03  0.87097301111E+03  0.91187600000E+02 0.  0.
<mgrwt>
<rscale>  0 0.66234509E+04</rscale>
<asrwt>0</asrwt>
<pdfrwt beam="1">  1        2 0.52550663E+00 0.66234509E+04</pdfrwt>
<pdfrwt beam="2">  1       -2 0.49397360E+00 0.66234509E+04</pdfrwt>
<totfact> 0.10851242E-03</totfact>
</mgrwt>
</event>
<event>
13    1  0.9990956E-008  0.5473508E+04  0.7818608E-02  0.7759345E-01
         -2   -1    0    0    0  501 -0.00000000000E+00  0.00000000000E+00  0.26402274585E+04  0.26402274585E+04  0.00000000000E+00 0.  1.
          2   -1    0    0  501    0  0.00000000000E+00 -0.00000000000E+00 -0.28368098923E+04  0.28368098923E+04  0.00000000000E+00 0. -1.
    9900016    2    1    2    0    0  0.12128327298E+03 -0.30818684376E+03  0.11538882288E+04  0.25069694967E+04  0.22008519373E+04 0.  0.
        -24    2    3    3    0    0 -0.55128266116E+03  0.75206155152E+03  0.27862845089E+03  0.97642995968E+03  0.79199133512E+02 0.  0.
    9900016    2    1    2    0    0 -0.25248094585E+03 -0.58083339861E+02 -0.10302451547E+04  0.24579875566E+04  0.22165688456E+04 0.  0.
         23    2    5    5    0    0  0.10518115910E+03 -0.22434442464E+03  0.66641449269E+03  0.71608661551E+03  0.85312764293E+02 0.  0.
        -15    1    3    3    0    0  0.67256593414E+03 -0.10602483953E+04  0.87525977789E+03  0.15305395370E+04  0.00000000000E+00 0.  1.
        -15    1    6    6    0    0  0.86131205562E+02 -0.12270375924E+03  0.30019685321E+03  0.33554872639E+03  0.00000000000E+00 0.  1.
         15    1    4    4    0    0 -0.38441342481E+03  0.52987044553E+03  0.15752927574E+03  0.67331407451E+03  0.00000000000E+00 0. -1.
         15    1    6    6    0    0  0.19049953535E+02 -0.10164066540E+03  0.36621763948E+03  0.38053788913E+03  0.00000000000E+00 0. -1.
        -16    1    4    4    0    0 -0.16686923635E+03  0.22219110599E+03  0.12109917515E+03  0.30311588517E+03  0.00000000000E+00 0.  1.
         16    1    5    5    0    0 -0.35766210495E+03  0.16626108478E+03 -0.16966596474E+04  0.17419009411E+04  0.00000000000E+00 0. -1.
    9900018    1    1    2    0    0  0.13119767288E+03  0.36627018362E+03 -0.32022550786E+03  0.51208029747E+03  0.91187600000E+02 0.  0.
<mgrwt>
<rscale>  0 0.54735083E+04</rscale>
<asrwt>0</asrwt>
<pdfrwt beam="1">  1        2 0.43643229E+00 0.54735083E+04</pdfrwt>
<pdfrwt beam="2">  1       -2 0.40618884E+00 0.54735083E+04</pdfrwt>
<totfact> 0.10423883E-02</totfact>
</mgrwt>
</event>
<event>
13    1  0.9990956E-008  0.6575034E+04  0.7818608E-02  0.7622924E-01
          2   -1    0    0  501    0  0.00000000000E+00  0.00000000000E+00  0.30488526098E+04  0.30488526098E+04  0.00000000000E+00 0. -1.
         -2   -1    0    0    0  501 -0.00000000000E+00 -0.00000000000E+00 -0.35448645398E+04  0.35448645398E+04  0.00000000000E+00 0.  1.
    9900016    2    1    2    0    0  0.57061357909E+03 -0.60505056853E+03 -0.57552841024E+03  0.24260920923E+04  0.22052219485E+04 0.  0.
         24    2    3    3    0    0  0.21523324524E+03  0.56793326589E+01  0.82566956827E+03  0.85681137523E+03  0.77703874356E+02 0.  0.
    9900016    2    1    2    0    0 -0.43969772091E+03  0.16915942768E+04  0.71807740477E+03  0.28972741512E+04  0.21963007684E+04 0.  0.
         23    2    5    5    0    0 -0.35053014096E+03  0.23443514561E+03 -0.72563975986E+03  0.84408569369E+03  0.89979886501E+02 0.  0.
        -15    1    6    6    0    0 -0.26456740995E+03  0.16475163511E+03 -0.60379562665E+03  0.67949111432E+03  0.00000000000E+00 0.  1.
        -15    1    4    4    0    0  0.13693314365E+03 -0.31843146497E+02  0.46177214998E+03  0.48269886089E+03  0.00000000000E+00 0.  1.
         15    1    6    6    0    0 -0.85962731010E+02  0.69683510503E+02 -0.12184413321E+03  0.16459457937E+03  0.00000000000E+00 0. -1.
         15    1    3    3    0    0  0.35538033385E+03 -0.61072990118E+03 -0.14011979785E+04  0.15692807170E+04  0.00000000000E+00 0. -1.
        -16    1    5    5    0    0 -0.89167579943E+02  0.14571591311E+04  0.14437171646E+04  0.20531884576E+04  0.00000000000E+00 0.  1.
         16    1    4    4    0    0  0.78300101591E+02  0.37522479156E+02  0.36389741828E+03  0.37411251434E+03  0.00000000000E+00 0. -1.
    9900018    1    1    2    0    0 -0.13091585818E+03 -0.10865437082E+04 -0.63856092458E+03  0.12703509061E+04  0.91187600000E+02 0.  0.
<mgrwt>
<rscale>  0 0.65750344E+04</rscale>
<asrwt>0</asrwt>
<pdfrwt beam="1">  1        2 0.46905425E+00 0.65750344E+04</pdfrwt>
<pdfrwt beam="2">  1       -2 0.54536378E+00 0.65750344E+04</pdfrwt>
<totfact> 0.96249609E-04</totfact>
</mgrwt>
</event>
<event>
13    1  0.9990956E-008  0.6063852E+04  0.7818608E-02  0.7682535E-01
          2   -1    0    0  501    0  0.00000000000E+00  0.00000000000E+00  0.29934765538E+04  0.29934765538E+04  0.00000000000E+00 0. -1.
         -2   -1    0    0    0  501 -0.00000000000E+00 -0.00000000000E+00 -0.30708692848E+04  0.30708692848E+04  0.00000000000E+00 0.  1.
    9900016    2    1    2    0    0 -0.30414831840E+03 -0.17642051939E+04 -0.27129266121E+02  0.28423304878E+04  0.22075281287E+04 0.  0.
        -24    2    3    3    0    0  0.49886276770E+03 -0.19349337235E+04  0.13936592885E+03  0.20046577085E+04  0.79981816341E+02 0.  0.
    9900016    2    1    2    0    0 -0.43880396324E+01  0.16024018637E+04  0.28520291511E+03  0.27298488419E+04  0.21915800257E+04 0.  0.
         23    2    5    5    0    0  0.12496651010E+03  0.25874520268E+03 -0.89084171351E+03  0.93953412354E+03  0.80991988576E+02 0.  0.
        -15    1    3    3    0    0 -0.80301108610E+03  0.17072852956E+03 -0.16649519497E+03  0.83767277929E+03  0.00000000000E+00 0.  1.
        -15    1    6    6    0    0  0.60286301529E+02  0.17569279342E+03 -0.46155652919E+03  0.49753072814E+03  0.00000000000E+00 0.  1.
         15    1    6    6    0    0  0.64680208571E+02  0.83052409260E+02 -0.42928518432E+03  0.44200339540E+03  0.00000000000E+00 0. -1.
         15    1    4    4    0    0  0.23763730722E+03 -0.99969793851E+03  0.36652088246E+02  0.10282075829E+04  0.00000000000E+00 0. -1.
        -16    1    4    4    0    0  0.26122546048E+03 -0.93523578498E+03  0.10271384060E+03  0.97645012559E+03  0.00000000000E+00 0.  1.
         16    1    5    5    0    0 -0.12935454973E+03  0.13436566611E+04  0.11760446286E+04  0.17903147184E+04  0.00000000000E+00 0. -1.
    9900018    1    1    2    0    0  0.30853635804E+03  0.16180333020E+03 -0.33546638007E+03  0.49216650886E+03  0.91187600000E+02 0.  0.
<mgrwt>
<rscale>  0 0.60638520E+04</rscale>
<asrwt>0</asrwt>
<pdfrwt beam="1">  1        2 0.46053486E+00 0.60638520E+04</pdfrwt>
<pdfrwt beam="2">  1       -2 0.47244143E+00 0.60638520E+04</pdfrwt>
<totfact> 0.29308710E-03</totfact>
</mgrwt>
</event>
<event>
13    1  0.9990956E-008  0.5681402E+04  0.7818608E-02  0.7731210E-01
          2   -1    0    0  501    0  0.00000000000E+00  0.00000000000E+00  0.31839158392E+04  0.31839158392E+04  0.00000000000E+00 0. -1.
         -2   -1    0    0    0  501 -0.00000000000E+00 -0.00000000000E+00 -0.25344836051E+04  0.25344836051E+04  0.00000000000E+00 0.  1.
    9900016    2    1    2    0    0  0.20739783962E+03  0.10789008273E+04  0.29195864247E+03  0.24764173976E+04  0.22000823665E+04 0.  0.
        -24    2    3    3    0    0  0.61839964653E+03 -0.33081287798E+03  0.65578645750E+03  0.96361010815E+03  0.81444948427E+02 0.  0.
    9900016    2    1    2    0    0 -0.10149620364E+03 -0.15861050864E+04  0.25636072841E+03  0.27062486181E+04  0.21753229497E+04 0.  0.
         23    2    5    5    0    0  0.53218526616E+03  0.19530403500E+03  0.54741584627E+03  0.79321862759E+03  0.90370674438E+02 0.  0.
        -15    1    3    3    0    0 -0.41100180691E+03  0.14097137053E+04 -0.36382781503E+03  0.15128072895E+04  0.00000000000E+00 0.  1.
        -15    1    6    6    0    0  0.45335223181E+03  0.13148447407E+03  0.46392081500E+03  0.66184509940E+03  0.00000000000E+00 0. -1.
         15    1    6    6    0    0  0.78833034348E+02  0.63819560924E+02  0.83495031274E+02  0.13137352819E+03  0.00000000000E+00 0.  1.
         15    1    4    4    0    0  0.20789338091E+03 -0.69742587035E+02  0.19158690383E+03  0.29118589937E+03  0.00000000000E+00 0. -1.
        -16    1    4    4    0    0  0.41050626562E+03 -0.26107029094E+03  0.46419955367E+03  0.67242420878E+03  0.00000000000E+00 0.  1.
         16    1    5    5    0    0 -0.63368146980E+03 -0.17814091214E+04 -0.29105511786E+03  0.19130299905E+04  0.00000000000E+00 0. -1.
    9900018    1    1    2    0    0 -0.10590163597E+03  0.50720425914E+03  0.10111286323E+03  0.53573342858E+03  0.91187600000E+02 0.  0.
<mgrwt>
<rscale>  0 0.56814021E+04</rscale>
<asrwt>0</asrwt>
<pdfrwt beam="1">  1        2 0.48983320E+00 0.56814021E+04</pdfrwt>
<pdfrwt beam="2">  1       -2 0.38992056E+00 0.56814021E+04</pdfrwt>
<totfact> 0.79132127E-03</totfact>
</mgrwt>
</event>
