<event>
10    1  0.2586852E-012  0.1314293E+04  0.7818608E-02  0.9018307E-01
          1   -1    0    0  501    0  0.00000000000E+00  0.00000000000E+00  0.53493149086E+03  0.53493149086E+03  0.00000000000E+00 0. -1.
         -1   -1    0    0    0  501 -0.00000000000E+00 -0.00000000000E+00 -0.80728372363E+03  0.80728372363E+03  0.00000000000E+00 0.  1.
         23    2    1    2    0    0 -0.39320936352E+02  0.22581529022E+03 -0.25325819085E+03  0.35344603023E+03  0.90805857309E+02 0.  0.
        -15    1    3    3    0    0  0.29036560276E+00  0.76189252588E+02 -0.97873160995E+02  0.12403242385E+03  0.00000000000E+00 0. -1.
        -15    1    3    3    0    0 -0.53444397500E+02  0.12078856564E+03 -0.10501557595E+03  0.16874374775E+03  0.00000000000E+00 0.  1.
         15    1    3    3    0    0  0.10420240812E+02  0.19210609632E+02 -0.24359716108E+02  0.32726513867E+02  0.00000000000E+00 0.  1.
         15    1    3    3    0    0  0.34128547327E+01  0.96268623559E+01 -0.26009737802E+02  0.27943344767E+02  0.00000000000E+00 0. -1.
        -16    1    1    2    0    0 -0.15626514847E+03 -0.12659945748E+03  0.28665743559E+02  0.20314513067E+03  0.00000000000E+00 0.  1.
         16    1    1    2    0    0 -0.22465220605E+03  0.12802131032E+03  0.10011547963E+03  0.27727455499E+03  0.00000000000E+00 0. -1.
    9900018    1    1    2    0    0  0.42023829088E+03 -0.22723714306E+03 -0.14787526511E+03  0.50834949860E+03  0.91187600000E+02 0.  0.
<mgrwt>
<rscale>  0 0.13142929E+04</rscale>
<asrwt>0</asrwt>
<pdfrwt beam="1">  1        1 0.82297153E-01 0.13142929E+04</pdfrwt>
<pdfrwt beam="2">  1       -1 0.12419750E+00 0.13142929E+04</pdfrwt>
<totfact> 0.22523438E+01</totfact>
</mgrwt>
</event>
<event>
11    1  0.2586852E-012  0.2385170E+04  0.7818608E-02  0.8445077E-01
         -2   -1    0    0    0  501 -0.00000000000E+00  0.00000000000E+00  0.33471240991E+04  0.33471240991E+04  0.00000000000E+00 0.  1.
          2   -1    0    0  501    0  0.00000000000E+00 -0.00000000000E+00 -0.42491974767E+03  0.42491974767E+03  0.00000000000E+00 0. -1.
    9900016    2    1    2    0    0  0.70707392783E+03  0.54914260960E+03  0.25084856077E+04  0.27858013087E+04  0.81650336328E+03 0.  0.
         23    2    3    3    0    0 -0.11107678730E+03  0.78627127091E+02  0.15018777137E+03  0.22234328293E+03  0.91432439568E+02 0.  0.
        -15    1    4    4    0    0 -0.28636010241E+02  0.54195957052E+02  0.52857079726E+02  0.80938827027E+02  0.00000000000E+00 0.  1.
        -15    1    4    4    0    0 -0.12617791647E+02  0.15609792380E+02  0.35776213320E+02  0.41022088242E+02  0.00000000000E+00 0. -1.
         15    1    4    4    0    0 -0.54119414725E+02  0.10232585931E+01  0.24553850191E+02  0.59437779799E+02  0.00000000000E+00 0. -1.
         15    1    4    4    0    0 -0.15703570684E+02  0.77981190656E+01  0.37000628129E+02  0.40944587861E+02  0.00000000000E+00 0.  1.
        -16    1    3    3    0    0  0.57945309033E+03  0.29747039725E+03  0.12071877908E+04  0.13716985396E+04  0.00000000000E+00 0.  1.
         16    1    1    2    0    0 -0.70707392783E+03 -0.54914260960E+03  0.41371874376E+03  0.98624253814E+03  0.00000000000E+00 0. -1.
    9900018    1    3    3    0    0  0.23869762479E+03  0.17304508527E+03  0.11511100455E+04  0.11917594862E+04  0.91187600000E+02 0.  0.
<mgrwt>
<rscale>  0 0.23851701E+04</rscale>
<asrwt>0</asrwt>
<pdfrwt beam="1">  1        2 0.65372271E-01 0.23851701E+04</pdfrwt>
<pdfrwt beam="2">  1       -2 0.51494215E+00 0.23851701E+04</pdfrwt>
<totfact> 0.88918867E-02</totfact>
</mgrwt>
</event>
<event>
11    1  0.2586852E-012  0.8199018E+03  0.7818608E-02  0.9531649E-01
          1   -1    0    0  501    0  0.00000000000E+00  0.00000000000E+00  0.13263515926E+04  0.13263515926E+04  0.00000000000E+00 0. -1.
         -1   -1    0    0    0  501 -0.00000000000E+00 -0.00000000000E+00 -0.12670829250E+03  0.12670829250E+03  0.00000000000E+00 0.  1.
    9900016    2    1    2    0    0  0.95354118131E+02  0.11281519240E+03  0.89696389837E+03  0.11162595055E+04  0.64782047907E+03 0.  0.
         23    2    3    3    0    0 -0.17280639418E+03  0.21767170095E+02  0.29529666531E+03  0.35490388200E+03  0.91764837231E+02 0.  0.
        -15    1    4    4    0    0 -0.10309480086E+02  0.18615131538E+01  0.28306477196E+02  0.30182896847E+02  0.00000000000E+00 0. -1.
        -15    1    4    4    0    0 -0.15846726564E+02  0.13623419673E+02  0.65971582726E+02  0.69202355695E+02  0.00000000000E+00 0. -1.
         15    1    4    4    0    0 -0.13393575305E+03  0.63076738031E+01  0.14262212405E+03  0.19575403689E+03  0.00000000000E+00 0.  1.
         15    1    4    4    0    0 -0.12714434485E+02 -0.25436534437E-01  0.58396481340E+02  0.59764592563E+02  0.00000000000E+00 0.  1.
        -16    1    3    3    0    0  0.99584313440E+02  0.12201734217E+03  0.53242730915E+03  0.55523338048E+03  0.00000000000E+00 0.  1.
         16    1    1    2    0    0 -0.95354118131E+02 -0.11281519240E+03  0.30267940177E+03  0.33680037966E+03  0.00000000000E+00 0. -1.
    9900018    1    3    3    0    0  0.16857619887E+03 -0.30969319860E+02  0.69239923905E+02  0.20612224299E+03  0.91187600000E+02 0.  0.
<mgrwt>
<rscale>  0 0.81990181E+03</rscale>
<asrwt>0</asrwt>
<pdfrwt beam="1">  1        1 0.20405408E+00 0.81990181E+03</pdfrwt>
<pdfrwt beam="2">  1       -1 0.19493584E-01 0.81990181E+03</pdfrwt>
<totfact> 0.18707123E+02</totfact>
</mgrwt>
</event>
<event>
11    1  0.2586852E-012  0.1366025E+04  0.7818608E-02  0.8978785E-01
         -1   -1    0    0    0  501 -0.00000000000E+00  0.00000000000E+00  0.45961831698E+03  0.45961831698E+03  0.00000000000E+00 0.  1.
          1   -1    0    0  501    0  0.00000000000E+00 -0.00000000000E+00 -0.10149856128E+04  0.10149856128E+04  0.00000000000E+00 0. -1.
    9900016    2    1    2    0    0  0.42523101795E+03  0.25718590020E+03 -0.31029680862E+03  0.84865859462E+03  0.61397988151E+03 0.  0.
         23    2    3    3    0    0 -0.36772203143E+02  0.17263818766E+03 -0.32280388569E+03  0.37881636688E+03  0.90240525482E+02 0.  0.
        -15    1    4    4    0    0 -0.74699065648E+00  0.20983445176E+02 -0.37526080838E+02  0.43000810569E+02  0.00000000000E+00 0. -1.
        -15    1    4    4    0    0 -0.28050131410E+02  0.10718564779E+03 -0.12054258020E+03  0.16372564432E+03  0.00000000000E+00 0. -1.
         15    1    4    4    0    0 -0.12580760460E+02  0.32644715081E+02 -0.95613785039E+02  0.10181330388E+03  0.00000000000E+00 0.  1.
         15    1    4    4    0    0  0.46056793835E+01  0.11824379614E+02 -0.69121439605E+02  0.70276608121E+02  0.00000000000E+00 0.  1.
        -16    1    1    2    0    0 -0.37443712051E+03 -0.20461816198E+03 -0.27199145524E+03  0.50601492187E+03  0.00000000000E+00 0.  1.
         16    1    3    3    0    0  0.46200322109E+03  0.84547712532E+02  0.12507077063E+02  0.46984222774E+03  0.00000000000E+00 0. -1.
    9900018    1    1    2    0    0 -0.50793897432E+02 -0.52567738217E+02  0.26920968039E+02  0.11993041329E+03  0.91187600000E+02 0.  0.
<mgrwt>
<rscale>  0 0.13660249E+04</rscale>
<asrwt>0</asrwt>
<pdfrwt beam="1">  1        1 0.15615163E+00 0.13660249E+04</pdfrwt>
<pdfrwt beam="2">  1       -1 0.70710510E-01 0.13660249E+04</pdfrwt>
<totfact> 0.29102438E+01</totfact>
</mgrwt>
</event>
<event>
11    1  0.2586852E-012  0.7506541E+03  0.7818608E-02  0.9634325E-01
         -2   -1    0    0    0  501 -0.00000000000E+00  0.00000000000E+00  0.13438455198E+03  0.13438455198E+03  0.00000000000E+00 0.  1.
          2   -1    0    0  501    0  0.00000000000E+00 -0.00000000000E+00 -0.10482633536E+04  0.10482633536E+04  0.00000000000E+00 0. -1.
    9900016    2    1    2    0    0 -0.87736619390E+02 -0.35805951395E+02 -0.82129390033E+03  0.10501649086E+04  0.64756689543E+03 0.  0.
         23    2    3    3    0    0  0.58117015811E+02  0.14653659991E+03 -0.39094889342E+03  0.43140497500E+03  0.91753215477E+02 0.  0.
        -15    1    4    4    0    0 -0.10320549657E+02  0.42813155125E+02 -0.65998153603E+02  0.79342525016E+02  0.00000000000E+00 0.  1.
        -15    1    4    4    0    0  0.95246659744E+01  0.45235169270E+01 -0.81378967579E+01  0.13319415564E+02  0.00000000000E+00 0.  1.
         15    1    4    4    0    0  0.50876154838E+02  0.59402205434E+02 -0.22927430289E+03  0.24224721073E+03  0.00000000000E+00 0. -1.
         15    1    4    4    0    0  0.80367446553E+01  0.39797722427E+02 -0.87538540171E+02  0.96495823694E+02  0.00000000000E+00 0. -1.
        -16    1    1    2    0    0  0.87736619390E+02  0.35805951395E+02 -0.92584901303E+02  0.13248299697E+03  0.00000000000E+00 0.  1.
         16    1    3    3    0    0  0.64923661219E+01 -0.32843680041E+02  0.64227807718E+02  0.72429755078E+02  0.00000000000E+00 0. -1.
    9900018    1    3    3    0    0 -0.15234600132E+03 -0.14949887127E+03 -0.49457281463E+03  0.54633017855E+03  0.91187600000E+02 0.  0.
<mgrwt>
<rscale>  0 0.75065412E+03</rscale>
<asrwt>0</asrwt>
<pdfrwt beam="1">  1        2 0.16127129E+00 0.75065412E+03</pdfrwt>
<pdfrwt beam="2">  1       -2 0.20674546E-01 0.75065412E+03</pdfrwt>
<totfact> 0.47537261E+02</totfact>
</mgrwt>
</event>
