<event>
11    1  0.4678654E-009  0.4260902E+04  0.7818608E-02  0.7953887E-01
         -2   -1    0    0    0  501 -0.00000000000E+00  0.00000000000E+00  0.94488540699E+03  0.94488540699E+03  0.00000000000E+00 0.  1.
          2   -1    0    0  501    0  0.00000000000E+00 -0.00000000000E+00 -0.48035685267E+04  0.48035685267E+04  0.00000000000E+00 0. -1.
    9900016    2    1    2    0    0 -0.98782402054E+02 -0.79191420482E+03 -0.25294537291E+04  0.33699092555E+04  0.20787655356E+04 0.  0.
        -24    2    3    3    0    0 -0.18414028075E+02 -0.27927358367E+03 -0.18191039838E+03  0.34362532318E+03  0.81573026930E+02 0.  0.
        -15    1    3    3    0    0 -0.18306009963E+03  0.47678422061E+03 -0.11892457925E+03  0.52438273107E+03  0.00000000000E+00 0.  1.
        -15    1    3    3    0    0 -0.16824629067E+03 -0.92618797639E+02 -0.27693176264E+03  0.33701076713E+03  0.00000000000E+00 0.  1.
         15    1    4    4    0    0  0.19323833844E+02 -0.15724604361E+03 -0.67724199487E+02  0.17229711542E+03  0.00000000000E+00 0. -1.
         15    1    3    3    0    0  0.27093801632E+03 -0.89680604412E+03 -0.19516869888E+04  0.21648904341E+04  0.00000000000E+00 0. -1.
        -16    1    4    4    0    0 -0.37737861919E+02 -0.12202754006E+03 -0.11418619889E+03  0.17132820775E+03  0.00000000000E+00 0.  1.
         16    1    1    2    0    0 -0.37006592401E+03  0.11859733941E+04 -0.12357870989E+04  0.17523274333E+04  0.00000000000E+00 0. -1.
    9900018    1    1    2    0    0  0.46884832607E+03 -0.39405918927E+03 -0.93442291659E+02  0.62621724487E+03  0.91187600000E+02 0.  0.
<mgrwt>
<rscale>  0 0.42609022E+04</rscale>
<asrwt>0</asrwt>
<pdfrwt beam="1">  1        2 0.73901054E+00 0.42609022E+04</pdfrwt>
<pdfrwt beam="2">  1       -2 0.14536699E+00 0.42609022E+04</pdfrwt>
<totfact> 0.14664187E-02</totfact>
</mgrwt>
</event>
<event>
11    1  0.4678654E-009  0.3280323E+04  0.7818608E-02  0.8167920E-01
          2   -1    0    0  501    0  0.00000000000E+00  0.00000000000E+00  0.17224600734E+04  0.17224600734E+04  0.00000000000E+00 0. -1.
         -2   -1    0    0    0  501 -0.00000000000E+00 -0.00000000000E+00 -0.15617951483E+04  0.15617951483E+04  0.00000000000E+00 0.  1.
    9900016    2    1    2    0    0  0.48828955104E+03  0.28619174232E+03 -0.17161907530E+02  0.22101655150E+04  0.21363999330E+04 0.  0.
        -24    2    3    3    0    0  0.21908389481E+02 -0.24534954320E+03 -0.45553216426E+03  0.52383791674E+03  0.78868463017E+02 0.  0.
        -15    1    3    3    0    0  0.28793554510E+03 -0.39688114922E+03  0.95465269859E+00  0.49032890605E+03  0.00000000000E+00 0.  1.
        -15    1    3    3    0    0 -0.30571749696E+02  0.87486597253E+03  0.25052263401E+03  0.91054197702E+03  0.00000000000E+00 0.  1.
         15    1    3    3    0    0  0.20901736615E+03  0.53556462218E+02  0.18689297002E+03  0.28545671518E+03  0.00000000000E+00 0. -1.
         15    1    4    4    0    0 -0.19663593028E+02 -0.11661410622E+03 -0.26472760653E+03  0.28994173953E+03  0.00000000000E+00 0. -1.
        -16    1    4    4    0    0  0.41571982509E+02 -0.12873543698E+03 -0.19080455774E+03  0.23389617722E+03  0.00000000000E+00 0.  1.
         16    1    1    2    0    0 -0.44259104572E+03 -0.38623240986E+03  0.46773351594E+03  0.75089077109E+03  0.00000000000E+00 0. -1.
    9900018    1    1    2    0    0 -0.45698505319E+02  0.10004066754E+03 -0.28990668329E+03  0.32319893558E+03  0.91187600000E+02 0.  0.
<mgrwt>
<rscale>  0 0.32803230E+04</rscale>
<asrwt>0</asrwt>
<pdfrwt beam="1">  1        2 0.26499386E+00 0.32803230E+04</pdfrwt>
<pdfrwt beam="2">  1       -2 0.24027618E+00 0.32803230E+04</pdfrwt>
<totfact> 0.58818246E-01</totfact>
</mgrwt>
</event>
<event>
11    1  0.4678654E-009  0.2868072E+04  0.7818608E-02  0.8282441E-01
         -1   -1    0    0    0  501 -0.00000000000E+00  0.00000000000E+00  0.67591487467E+03  0.67591487467E+03  0.00000000000E+00 0.  1.
          1   -1    0    0  501    0  0.00000000000E+00 -0.00000000000E+00 -0.30424824044E+04  0.30424824044E+04  0.00000000000E+00 0. -1.
    9900016    2    1    2    0    0  0.16841806586E+03  0.32059215149E+03 -0.24317614081E+04  0.33504377511E+04  0.22761427032E+04 0.  0.
         24    2    3    3    0    0 -0.74393815571E+03 -0.27188614701E+03 -0.84564900370E+03  0.11615474045E+04  0.81878440975E+02 0.  0.
        -15    1    3    3    0    0  0.63805023637E+03  0.43785645067E+03 -0.74052171836E+03  0.10710736627E+04  0.00000000000E+00 0.  1.
        -15    1    4    4    0    0 -0.10098647965E+03 -0.33030306381E+02 -0.15724041839E+03  0.18977307340E+03  0.00000000000E+00 0.  1.
         15    1    3    3    0    0  0.93028336812E+02  0.19474206649E+03 -0.52189660278E+03  0.56476084133E+03  0.00000000000E+00 0. -1.
         15    1    3    3    0    0  0.63166234451E+02 -0.15550823743E+03  0.11703835196E+02  0.16825505889E+03  0.00000000000E+00 0. -1.
        -16    1    1    2    0    0 -0.16841806586E+03 -0.32059215149E+03  0.65193878332E+02  0.36795952804E+03  0.00000000000E+00 0.  1.
         16    1    4    4    0    0 -0.64295167606E+03 -0.23885584063E+03 -0.68840858531E+03  0.97177433115E+03  0.00000000000E+00 0. -1.
    9900018    1    3    3    0    0  0.11811141393E+03  0.11538801877E+03 -0.33539791844E+03  0.38480078361E+03  0.91187600000E+02 0.  0.
<mgrwt>
<rscale>  0 0.28680719E+04</rscale>
<asrwt>0</asrwt>
<pdfrwt beam="1">  1        1 0.46807423E+00 0.28680719E+04</pdfrwt>
<pdfrwt beam="2">  1       -1 0.10398690E+00 0.28680719E+04</pdfrwt>
<totfact> 0.41676286E-01</totfact>
</mgrwt>
</event>
<event>
11    1  0.4678654E-009  0.3004268E+04  0.7818608E-02  0.8242513E-01
          2   -1    0    0  501    0  0.00000000000E+00  0.00000000000E+00  0.43605035839E+04  0.43605035839E+04  0.00000000000E+00 0. -1.
         -2   -1    0    0    0  501 -0.00000000000E+00 -0.00000000000E+00 -0.51746450021E+03  0.51746450021E+03  0.00000000000E+00 0.  1.
    9900016    2    1    2    0    0 -0.13199192202E+03 -0.29961441887E+02  0.20268068325E+04  0.30566995301E+04  0.22841073805E+04 0.  0.
        -24    2    3    3    0    0  0.38521438959E+03 -0.30390650890E+03  0.22875475932E+03  0.54711965596E+03  0.79132079039E+02 0.  0.
        -15    1    3    3    0    0 -0.14205920771E+03 -0.23376214493E+03  0.16223350376E+03  0.31803343950E+03  0.00000000000E+00 0.  1.
        -15    1    3    3    0    0 -0.77814625858E+02  0.43981467484E+03  0.80180817533E+03  0.91781720088E+03  0.00000000000E+00 0.  1.
         15    1    4    4    0    0  0.31191123897E+03 -0.20483007365E+03  0.18345933481E+03  0.41581403006E+03  0.00000000000E+00 0. -1.
         15    1    3    3    0    0 -0.22503371919E+03 -0.26965612156E+03  0.84649553932E+03  0.91646565498E+03  0.00000000000E+00 0. -1.
        -16    1    4    4    0    0  0.73303150617E+02 -0.99076435244E+02  0.45295424511E+02  0.13130562590E+03  0.00000000000E+00 0.  1.
         16    1    1    2    0    0  0.13199192202E+03  0.29961441887E+02  0.18162322512E+04  0.18212685540E+04  0.00000000000E+00 0. -1.
    9900018    1    3    3    0    0 -0.72298758846E+02  0.33754865867E+03 -0.12485145222E+02  0.35726357881E+03  0.91187600000E+02 0.  0.
<mgrwt>
<rscale>  0 0.30042675E+04</rscale>
<asrwt>0</asrwt>
<pdfrwt beam="1">  1        2 0.67084668E+00 0.30042675E+04</pdfrwt>
<pdfrwt beam="2">  1       -2 0.79609926E-01 0.30042675E+04</pdfrwt>
<totfact> 0.19962227E-01</totfact>
</mgrwt>
</event>
