<event>
11    1  0.4016917E-012  0.1550151E+04  0.7818608E-02  0.8851771E-01
          1   -1    0    0  501    0  0.00000000000E+00  0.00000000000E+00  0.12851259016E+04  0.12851259016E+04  0.00000000000E+00 0. -1.
         -1   -1    0    0    0  501 -0.00000000000E+00 -0.00000000000E+00 -0.46745755900E+03  0.46745755900E+03  0.00000000000E+00 0.  1.
    9900016    2    1    2    0    0 -0.27254412914E+03 -0.23530555623E+02  0.22028567171E+03  0.80153431948E+03  0.72048421133E+03 0.  0.
         23    2    3    3    0    0 -0.30829690260E+02  0.12139011732E+03  0.19955375533E+02  0.15544836285E+03  0.89888520493E+02 0.  0.
        -15    1    3    3    0    0 -0.28541070113E+03  0.24843040069E+02 -0.89990653823E+02  0.30029112996E+03  0.00000000000E+00 0.  1.
        -15    1    4    4    0    0  0.28699327638E+02  0.38956931816E+02  0.23317607235E+02  0.53712240230E+02  0.00000000000E+00 0. -1.
         15    1    4    4    0    0 -0.59529017898E+02  0.82433185504E+02 -0.33622317013E+01  0.10173612262E+03  0.00000000000E+00 0.  1.
         15    1    3    3    0    0  0.13123271551E+01 -0.11709202572E+03  0.15237744251E+03  0.19217478939E+03  0.00000000000E+00 0. -1.
        -16    1    3    3    0    0  0.42383935092E+02 -0.52671687293E+02  0.13794350749E+03  0.15362003728E+03  0.00000000000E+00 0.  1.
         16    1    1    2    0    0  0.31442000915E+03 -0.19656638079E+03  0.60437022832E+03  0.70905687860E+03  0.00000000000E+00 0. -1.
    9900018    1    1    2    0    0 -0.41875880007E+02  0.22009693641E+03 -0.69875574763E+01  0.24199226247E+03  0.91187600000E+02 0.  0.
<mgrwt>
<rscale>  0 0.15501507E+04</rscale>
<asrwt>0</asrwt>
<pdfrwt beam="1">  1        1 0.19771168E+00 0.15501507E+04</pdfrwt>
<pdfrwt beam="2">  1       -1 0.71916548E-01 0.15501507E+04</pdfrwt>
<totfact> 0.17428506E+01</totfact>
</mgrwt>
</event>
<event>
11    1  0.4016917E-012  0.1044289E+04  0.7818608E-02  0.9261260E-01
          2   -1    0    0  501    0  0.00000000000E+00  0.00000000000E+00  0.17467535435E+04  0.17467535435E+04  0.00000000000E+00 0. -1.
         -2   -1    0    0    0  501 -0.00000000000E+00 -0.00000000000E+00 -0.15608099909E+03  0.15608099909E+03  0.00000000000E+00 0.  1.
    9900016    2    1    2    0    0 -0.74811241836E+02 -0.13750456411E+02  0.10852636800E+04  0.12979526044E+04  0.70788269590E+03 0.  0.
         23    2    3    3    0    0  0.72229678136E+02 -0.95132789284E+02  0.60429670552E+02  0.16217307372E+03  0.91547729394E+02 0.  0.
        -15    1    4    4    0    0  0.48071984501E+02  0.19234274024E+01  0.65149206567E+01  0.48549556723E+02  0.00000000000E+00 0.  1.
        -15    1    3    3    0    0 -0.18432138622E+03  0.10577314212E+03  0.92621080733E+03  0.95027827010E+03  0.00000000000E+00 0.  1.
         15    1    4    4    0    0  0.24157693635E+02 -0.97056216686E+02  0.53914749895E+02  0.11362351700E+03  0.00000000000E+00 0. -1.
         15    1    3    3    0    0  0.17544869992E+02  0.30986571399E+02  0.11827150780E+03  0.12351574647E+03  0.00000000000E+00 0. -1.
        -16    1    3    3    0    0  0.19735596251E+02 -0.55377380646E+02 -0.19648305643E+02  0.61985514124E+02  0.00000000000E+00 0.  1.
         16    1    1    2    0    0  0.15353084742E+03  0.98522749743E+02  0.24162587438E+03  0.30275653006E+03  0.00000000000E+00 0. -1.
    9900018    1    1    2    0    0 -0.78719605584E+02 -0.84772293332E+02  0.26378298999E+03  0.30212540810E+03  0.91187600000E+02 0.  0.
<mgrwt>
<rscale>  0 0.10442893E+04</rscale>
<asrwt>0</asrwt>
<pdfrwt beam="1">  1        2 0.26873130E+00 0.10442893E+04</pdfrwt>
<pdfrwt beam="2">  1       -2 0.24012463E-01 0.10442893E+04</pdfrwt>
<totfact> 0.14204610E+02</totfact>
</mgrwt>
</event>
<event>
11    1  0.4016917E-012  0.1071021E+04  0.7818608E-02  0.9233906E-01
          1   -1    0    0  501    0  0.00000000000E+00  0.00000000000E+00  0.50580567622E+03  0.50580567622E+03  0.00000000000E+00 0. -1.
         -1   -1    0    0    0  501 -0.00000000000E+00 -0.00000000000E+00 -0.56695992069E+03  0.56695992069E+03  0.00000000000E+00 0.  1.
    9900016    2    1    2    0    0  0.76231822768E+02  0.23274476193E+02 -0.50259867153E+02  0.71781594942E+03  0.71160430785E+03 0.  0.
         23    2    3    3    0    0 -0.15056064622E+03 -0.97846017040E+02  0.39899931624E+02  0.20545646965E+03  0.91531443442E+02 0.  0.
        -15    1    4    4    0    0 -0.10052254217E+03 -0.16671028168E+02 -0.49099325176E+00  0.10189674057E+03  0.00000000000E+00 0.  1.
        -15    1    3    3    0    0 -0.51988984987E+02  0.10835173308E+03 -0.22365270052E+02  0.12224221008E+03  0.00000000000E+00 0.  1.
         15    1    4    4    0    0 -0.50038104043E+02 -0.81174988871E+02  0.40390924876E+02  0.10355972908E+03  0.00000000000E+00 0. -1.
         15    1    3    3    0    0 -0.18693366540E+02  0.71976257669E+02 -0.42747459300E+02  0.85775106513E+02  0.00000000000E+00 0. -1.
        -16    1    3    3    0    0  0.29747482051E+03 -0.59207497513E+02 -0.25047069426E+02  0.30434216318E+03  0.00000000000E+00 0.  1.
         16    1    1    2    0    0 -0.19049887066E+03 -0.30776680621E+02  0.45188921447E+02  0.19818946090E+03  0.00000000000E+00 0. -1.
    9900018    1    1    2    0    0  0.11426704789E+03  0.75022044275E+01 -0.56083298766E+02  0.15676018659E+03  0.91187600000E+02 0.  0.
<mgrwt>
<rscale>  0 0.10710211E+04</rscale>
<asrwt>0</asrwt>
<pdfrwt beam="1">  1        1 0.77816258E-01 0.10710211E+04</pdfrwt>
<pdfrwt beam="2">  1       -1 0.87224603E-01 0.10710211E+04</pdfrwt>
<totfact> 0.56387721E+01</totfact>
</mgrwt>
</event>
<event>
11    1  0.4016919E-012  0.1946583E+04  0.7818608E-02  0.8632010E-01
          1   -1    0    0  501    0  0.00000000000E+00  0.00000000000E+00  0.19338666339E+04  0.19338666339E+04  0.00000000000E+00 0. -1.
         -1   -1    0    0    0  501 -0.00000000000E+00 -0.00000000000E+00 -0.48984596305E+03  0.48984596305E+03  0.00000000000E+00 0.  1.
    9900016    2    1    2    0    0  0.14987790155E+03 -0.21155329715E+03  0.21519982538E+03  0.79248394905E+03  0.71728771198E+03 0.  0.
         23    2    3    3    0    0  0.15846390120E+01 -0.14189285441E+03 -0.83815927593E+02  0.18762789776E+03  0.89682914137E+02 0.  0.
        -15    1    4    4    0    0  0.39696605716E+02 -0.82590535989E+02 -0.22880867646E+02  0.94448669893E+02  0.00000000000E+00 0. -1.
        -15    1    3    3    0    0  0.43573479111E+02 -0.10328415518E+03  0.30971279516E+03  0.32937559151E+03  0.00000000000E+00 0.  1.
         15    1    4    4    0    0 -0.38111966704E+02 -0.59302318420E+02 -0.60935059947E+02  0.93179227872E+02  0.00000000000E+00 0.  1.
         15    1    3    3    0    0  0.13879416877E+03 -0.12220004567E+02  0.85593986010E+02  0.16352210932E+03  0.00000000000E+00 0. -1.
        -16    1    3    3    0    0 -0.34074385346E+02  0.45843717006E+02 -0.96291028200E+02  0.11195835046E+03  0.00000000000E+00 0.  1.
         16    1    1    2    0    0 -0.20979675143E+02 -0.50489560303E+02  0.13128304728E+04  0.13139684900E+04  0.00000000000E+00 0. -1.
    9900018    1    1    2    0    0 -0.12889822640E+03  0.26204285745E+03 -0.84009627310E+02  0.31726015789E+03  0.91187600000E+02 0.  0.
<mgrwt>
<rscale>  0 0.19465834E+04</rscale>
<asrwt>0</asrwt>
<pdfrwt beam="1">  1        1 0.29751794E+00 0.19465834E+04</pdfrwt>
<pdfrwt beam="2">  1       -1 0.75360919E-01 0.19465834E+04</pdfrwt>
<totfact> 0.54503137E+00</totfact>
</mgrwt>
</event>
<event>
11    1  0.4016917E-012  0.1327397E+04  0.7818608E-02  0.9008117E-01
         -2   -1    0    0    0  501 -0.00000000000E+00  0.00000000000E+00  0.37734368602E+03  0.37734368602E+03  0.00000000000E+00 0. -1.
          2   -1    0    0  501    0  0.00000000000E+00 -0.00000000000E+00 -0.11673601340E+04  0.11673601340E+04  0.00000000000E+00 0.  1.
    9900016    2    1    2    0    0 -0.19170898402E+03  0.32602533144E+03 -0.54987280007E+03  0.96693148450E+03  0.69967960394E+03 0.  0.
         23    2    3    3    0    0  0.31938877826E+02  0.11761767743E+02 -0.88088347724E+02  0.13014977645E+03  0.89559902909E+02 0.  0.
        -15    1    3    3    0    0 -0.31637283510E+03  0.13401699279E+03 -0.13579398378E+03  0.36944868544E+03  0.00000000000E+00 0. -1.
        -15    1    4    4    0    0  0.33770177916E+02 -0.20626119317E+02 -0.37029010534E+01  0.39743844690E+02  0.00000000000E+00 0. -1.
         15    1    4    4    0    0 -0.18313000901E+01  0.32387887060E+02 -0.84385446671E+02  0.90405931764E+02  0.00000000000E+00 0.  1.
         15    1    3    3    0    0 -0.87032390599E+02  0.10908099755E+03 -0.16201308989E+03  0.21382596273E+03  0.00000000000E+00 0.  1.
        -16    1    1    2    0    0 -0.14617071356E+02 -0.28915373226E+03 -0.18180756378E+03  0.34187355835E+03  0.00000000000E+00 0.  1.
         16    1    3    3    0    0  0.17975736385E+03  0.71165573357E+02 -0.16397737867E+03  0.25350705987E+03  0.00000000000E+00 0. -1.
    9900018    1    1    2    0    0  0.20632605538E+03 -0.36871599181E+02 -0.58336084109E+02  0.23589877714E+03  0.91187600000E+02 0.  0.
<mgrwt>
<rscale>  0 0.13273974E+04</rscale>
<asrwt>0</asrwt>
<pdfrwt beam="1">  1        2 0.17959387E+00 0.13273974E+04</pdfrwt>
<pdfrwt beam="2">  1       -2 0.58052875E-01 0.13273974E+04</pdfrwt>
<totfact> 0.53829406E+01</totfact>
</mgrwt>
</event>
<event>
11    1  0.4016917E-012  0.1221760E+04  0.7818608E-02  0.9094020E-01
          2   -1    0    0  501    0  0.00000000000E+00  0.00000000000E+00  0.29617788857E+04  0.29617788857E+04  0.00000000000E+00 0. -1.
         -2   -1    0    0    0  501 -0.00000000000E+00 -0.00000000000E+00 -0.12599669464E+03  0.12599669464E+03  0.00000000000E+00 0.  1.
    9900016    2    1    2    0    0 -0.16229219409E+03  0.20161975088E+03  0.16587590289E+04  0.18260525883E+04  0.71832949196E+03 0.  0.
         23    2    3    3    0    0 -0.23760579109E+02 -0.56029822432E+02  0.17076135375E+03  0.20330655640E+03  0.92033742822E+02 0.  0.
        -15    1    4    4    0    0 -0.10151330862E+01 -0.47092951423E+02  0.17249132662E+03  0.17880725469E+03  0.00000000000E+00 0.  1.
        -15    1    3    3    0    0 -0.15299389264E+03 -0.13379470754E+03  0.49039265678E+03  0.53084189056E+03  0.00000000000E+00 0.  1.
         15    1    4    4    0    0 -0.22745446023E+02 -0.89368710093E+01 -0.17299728698E+01  0.24499301711E+02  0.00000000000E+00 0. -1.
         15    1    3    3    0    0  0.11146574397E+03  0.21536580666E+03  0.56720425643E+03  0.61686928216E+03  0.00000000000E+00 0. -1.
        -16    1    1    2    0    0  0.24091754465E+03 -0.22741618881E+03  0.86669283514E+03  0.92785551501E+03  0.00000000000E+00 0.  1.
         16    1    3    3    0    0 -0.97003466309E+02  0.17607847419E+03  0.43040076192E+03  0.47503485915E+03  0.00000000000E+00 0. -1.
    9900018    1    1    2    0    0 -0.78625350555E+02  0.25796437931E+02  0.31033032708E+03  0.33386747709E+03  0.91187600000E+02 0.  0.
<mgrwt>
<rscale>  0 0.12217600E+04</rscale>
<asrwt>0</asrwt>
<pdfrwt beam="1">  1        2 0.45565824E+00 0.12217600E+04</pdfrwt>
<pdfrwt beam="2">  1       -2 0.19384109E-01 0.12217600E+04</pdfrwt>
<totfact> 0.41471107E+01</totfact>
</mgrwt>
</event>
<event>
11    1  0.4016917E-012  0.1720089E+04  0.7818608E-02  0.8749989E-01
          1   -1    0    0  501    0  0.00000000000E+00  0.00000000000E+00  0.79097543722E+03  0.79097543722E+03  0.00000000000E+00 0. -1.
         -1   -1    0    0    0  501 -0.00000000000E+00 -0.00000000000E+00 -0.93514486533E+03  0.93514486533E+03  0.00000000000E+00 0.  1.
    9900016    2    1    2    0    0  0.21830647613E+03 -0.22203799466E+03 -0.11030162913E+03  0.78800161786E+03  0.71541701948E+03 0.  0.
         23    2    3    3    0    0 -0.18892977035E+02 -0.71556207286E+01 -0.55488331916E+02  0.10856833950E+03  0.91104236308E+02 0.  0.
        -15    1    3    3    0    0  0.22769187569E+02  0.11128725209E+03  0.14512351044E+03  0.18429357467E+03  0.00000000000E+00 0. -1.
        -15    1    4    4    0    0 -0.10210122037E+01 -0.45604288973E+02 -0.46672982768E+02  0.65262247579E+02  0.00000000000E+00 0. -1.
         15    1    4    4    0    0 -0.17871964831E+02  0.38448668244E+02 -0.88153491482E+01  0.43306091919E+02  0.00000000000E+00 0.  1.
         15    1    3    3    0    0  0.13886579166E+02 -0.12821780392E+03  0.28869055576E+02  0.13215923990E+03  0.00000000000E+00 0.  1.
        -16    1    3    3    0    0  0.20054368643E+03 -0.19795182211E+03 -0.22880586324E+03  0.36298046379E+03  0.00000000000E+00 0.  1.
         16    1    1    2    0    0  0.89985088024E+02 -0.12716259304E+03  0.31340586604E+03  0.34998696833E+03  0.00000000000E+00 0. -1.
    9900018    1    1    2    0    0 -0.30829156415E+03  0.34920058770E+03 -0.34727366501E+03  0.58813171636E+03  0.91187600000E+02 0.  0.
<mgrwt>
<rscale>  0 0.17200891E+04</rscale>
<asrwt>0</asrwt>
<pdfrwt beam="1">  1        1 0.12168853E+00 0.17200891E+04</pdfrwt>
<pdfrwt beam="2">  1       -1 0.14386844E+00 0.17200891E+04</pdfrwt>
<totfact> 0.83455282E+00</totfact>
</mgrwt>
</event>
<event>
11    1  0.4016917E-012  0.1077556E+04  0.7818608E-02  0.9227348E-01
         -2   -1    0    0    0  501 -0.00000000000E+00  0.00000000000E+00  0.90397921588E+03  0.90397921588E+03  0.00000000000E+00 0. -1.
          2   -1    0    0  501    0  0.00000000000E+00 -0.00000000000E+00 -0.32111543327E+03  0.32111543327E+03  0.00000000000E+00 0.  1.
    9900016    2    1    2    0    0  0.11967554134E+03  0.66920887301E+02  0.37110413123E+03  0.80831278786E+03  0.70487633415E+03 0.  0.
         23    2    3    3    0    0  0.39451482957E+02  0.57965277481E+02  0.25297989690E+03  0.27830559812E+03  0.92405545342E+02 0.  0.
        -15    1    4    4    0    0  0.36314479594E+01  0.54574869511E+02  0.56799092645E+02  0.78852651964E+02  0.00000000000E+00 0.  1.
        -15    1    3    3    0    0  0.12302610191E+03 -0.10131986521E+02 -0.20933530992E+02  0.12520499839E+03  0.00000000000E+00 0.  1.
         15    1    3    3    0    0  0.12768536177E+03 -0.19118952562E+02  0.18364428010E+03  0.22448676480E+03  0.00000000000E+00 0. -1.
         15    1    4    4    0    0  0.35820034997E+02  0.33904079702E+01  0.19618080426E+03  0.19945294616E+03  0.00000000000E+00 0. -1.
        -16    1    1    2    0    0  0.32623020611E+02 -0.14732512129E+03  0.37791350782E+02  0.15555429609E+03  0.00000000000E+00 0.  1.
         16    1    3    3    0    0 -0.17048740531E+03  0.38206548902E+02 -0.44586514775E+02  0.18031542654E+03  0.00000000000E+00 0. -1.
    9900018    1    1    2    0    0 -0.15229856195E+03  0.80404233992E+02  0.17396830059E+03  0.26122756520E+03  0.91187600000E+02 0.  0.
<mgrwt>
<rscale>  0 0.10775559E+04</rscale>
<asrwt>0</asrwt>
<pdfrwt beam="1">  1        2 0.49402375E-01 0.10775559E+04</pdfrwt>
<pdfrwt beam="2">  1       -2 0.13907372E+00 0.10775559E+04</pdfrwt>
<totfact> 0.36933520E+01</totfact>
</mgrwt>
</event>
<event>
11    1  0.4016917E-012  0.1509376E+04  0.7818608E-02  0.8878242E-01
          1   -1    0    0  501    0  0.00000000000E+00  0.00000000000E+00  0.26199731233E+03  0.26199731233E+03  0.00000000000E+00 0. -1.
         -1   -1    0    0    0  501 -0.00000000000E+00 -0.00000000000E+00 -0.21738934985E+04  0.21738934985E+04  0.00000000000E+00 0.  1.
    9900016    2    1    2    0    0 -0.41804624360E+03  0.17652130832E+03 -0.12260023853E+04  0.14867836714E+04  0.70818175826E+03 0.  0.
         23    2    3    3    0    0  0.93056259702E+02  0.56869412553E+02 -0.30655960659E+03  0.33713390630E+03  0.88243304726E+02 0.  0.
        -15    1    4    4    0    0  0.12551206335E+01 -0.99476462279E+01  0.20720509018E+00  0.10028655305E+02  0.00000000000E+00 0. -1.
        -15    1    3    3    0    0 -0.85023558011E+02  0.87050911466E+02 -0.60964417897E+02  0.13610116404E+03  0.00000000000E+00 0.  1.
         15    1    3    3    0    0 -0.29298929706E+03  0.16473309356E+03 -0.65889820688E+03  0.73968004389E+03  0.00000000000E+00 0. -1.
         15    1    4    4    0    0  0.91801139069E+02  0.66817058781E+02 -0.30676681168E+03  0.32710525099E+03  0.00000000000E+00 0.  1.
        -16    1    3    3    0    0 -0.13308964824E+03 -0.13213210926E+03 -0.19958015395E+03  0.27386855719E+03  0.00000000000E+00 0.  1.
         16    1    1    2    0    0  0.19501336352E+03 -0.76400079476E+02  0.61212083786E+01  0.20953437256E+03  0.00000000000E+00 0. -1.
    9900018    1    1    2    0    0  0.22303288009E+03 -0.10012122884E+03 -0.69201500919E+03  0.73957276681E+03  0.91187600000E+02 0.  0.
<mgrwt>
<rscale>  0 0.15093764E+04</rscale>
<asrwt>0</asrwt>
<pdfrwt beam="1">  1        1 0.40307276E-01 0.15093764E+04</pdfrwt>
<pdfrwt beam="2">  1       -1 0.33444517E+00 0.15093764E+04</pdfrwt>
<totfact> 0.19989325E+00</totfact>
</mgrwt>
</event>
<event>
11    1  0.4016917E-012  0.2469912E+04  0.7818608E-02  0.8413784E-01
         -1   -1    0    0    0  501 -0.00000000000E+00  0.00000000000E+00  0.13006801263E+04  0.13006801263E+04  0.00000000000E+00 0.  1.
          1   -1    0    0  501    0  0.00000000000E+00 -0.00000000000E+00 -0.11725525259E+04  0.11725525259E+04  0.00000000000E+00 0. -1.
    9900016    2    1    2    0    0  0.99046418104E+02 -0.35013499274E+03  0.66209947591E+03  0.10356034741E+04  0.70830370147E+03 0.  0.
         23    2    3    3    0    0  0.98550274708E+02 -0.10031254502E+03  0.80833464875E+02  0.18469128405E+03  0.88329259166E+02 0.  0.
        -15    1    4    4    0    0  0.32706399264E+02 -0.71651543314E+02  0.30424976692E+01  0.78822008374E+02  0.00000000000E+00 0.  1.
        -15    1    3    3    0    0  0.15545643728E+03 -0.81941260525E+02  0.38995427540E+03  0.42772118368E+03  0.00000000000E+00 0. -1.
         15    1    3    3    0    0  0.84091918367E+02 -0.10462656016E+02  0.12388956242E+02  0.85641135807E+02  0.00000000000E+00 0. -1.
         15    1    4    4    0    0  0.65843875444E+02 -0.28661001709E+02  0.77790967206E+02  0.10586927567E+03  0.00000000000E+00 0.  1.
        -16    1    1    2    0    0  0.14134802380E+03  0.40214396036E+03 -0.89502425900E+03  0.99134628303E+03  0.00000000000E+00 0.  1.
         16    1    3    3    0    0 -0.23905221225E+03 -0.15741853118E+03  0.17892277940E+03  0.33754987058E+03  0.00000000000E+00 0. -1.
    9900018    1    1    2    0    0 -0.24039444190E+03 -0.52008967623E+02  0.36105238352E+03  0.44628289509E+03  0.91187600000E+02 0.  0.
<mgrwt>
<rscale>  0 0.24699116E+04</rscale>
<asrwt>0</asrwt>
<pdfrwt beam="1">  1        1 0.18039270E+00 0.24699116E+04</pdfrwt>
<pdfrwt beam="2">  1       -1 0.20010464E+00 0.24699116E+04</pdfrwt>
<totfact> 0.14981330E+00</totfact>
</mgrwt>
</event>
<event>
11    1  0.4016917E-012  0.1630004E+04  0.7818608E-02  0.8802324E-01
         -1   -1    0    0    0  501 -0.00000000000E+00  0.00000000000E+00  0.71101058181E+03  0.71101058181E+03  0.00000000000E+00 0.  1.
          1   -1    0    0  501    0  0.00000000000E+00 -0.00000000000E+00 -0.93420318800E+03  0.93420318800E+03  0.00000000000E+00 0. -1.
    9900016    2    1    2    0    0 -0.13040570895E+03  0.89492426213E+02  0.99903629244E+02  0.73023619223E+03  0.70586798910E+03 0.  0.
         23    2    3    3    0    0 -0.12161590994E+03  0.15768976790E+02 -0.22196149251E+03  0.26925898243E+03  0.90522954445E+02 0.  0.
        -15    1    4    4    0    0 -0.22734358059E+02 -0.87391894560E+01  0.73500655809E+00  0.24367287566E+02  0.00000000000E+00 0.  1.
        -15    1    3    3    0    0 -0.83146268951E+02 -0.20385735527E+01  0.20699014923E+03  0.22307482982E+03  0.00000000000E+00 0.  1.
         15    1    3    3    0    0 -0.26562862939E+02 -0.28375518633E+02  0.79714565280E+02  0.88685780501E+02  0.00000000000E+00 0. -1.
         15    1    4    4    0    0 -0.98881551885E+02  0.24508166246E+02 -0.22269649907E+03  0.24489169486E+03  0.00000000000E+00 0. -1.
        -16    1    1    2    0    0 -0.98929250450E+02 -0.34429830794E+03  0.91107252083E+02  0.36963340329E+03  0.00000000000E+00 0.  1.
         16    1    3    3    0    0  0.10091933289E+03  0.10413754161E+03  0.35160407246E+02  0.14921659948E+03  0.00000000000E+00 0. -1.
    9900018    1    1    2    0    0  0.22933495940E+03  0.25480588173E+03 -0.41420348752E+03  0.54534417429E+03  0.91187600000E+02 0.  0.
<mgrwt>
<rscale>  0 0.16300041E+04</rscale>
<asrwt>0</asrwt>
<pdfrwt beam="1">  1        1 0.14372357E+00 0.16300041E+04</pdfrwt>
<pdfrwt beam="2">  1       -1 0.10938624E+00 0.16300041E+04</pdfrwt>
<totfact> 0.12636271E+01</totfact>
</mgrwt>
</event>
<event>
11    1  0.4016917E-012  0.1892301E+04  0.7818608E-02  0.8658698E-01
          1   -1    0    0  501    0  0.00000000000E+00  0.00000000000E+00  0.19625950781E+04  0.19625950781E+04  0.00000000000E+00 0. -1.
         -1   -1    0    0    0  501 -0.00000000000E+00 -0.00000000000E+00 -0.45613095670E+03  0.45613095670E+03  0.00000000000E+00 0.  1.
    9900016    2    1    2    0    0 -0.63571666078E+02 -0.21179543839E+03  0.50983341865E+03  0.90102326652E+03  0.70923490296E+03 0.  0.
         23    2    3    3    0    0 -0.13941819806E+03 -0.13142203393E+03  0.28365450430E+02  0.21501511984E+03  0.93368720824E+02 0.  0.
        -15    1    3    3    0    0 -0.34120111453E+01 -0.17655536674E+03  0.46554322791E+03  0.49790956649E+03  0.00000000000E+00 0.  1.
        -15    1    4    4    0    0 -0.12279459534E+03 -0.76580885474E+02 -0.11551480799E+02  0.14517775785E+03  0.00000000000E+00 0.  1.
         15    1    3    3    0    0  0.68246686991E+02  0.10404334259E+03  0.62751007715E+02  0.13935679529E+03  0.00000000000E+00 0. -1.
         15    1    4    4    0    0 -0.16623602724E+02 -0.54841148460E+02  0.39916931229E+02  0.69837361996E+02  0.00000000000E+00 0. -1.
        -16    1    3    3    0    0  0.11011856139E+02 -0.78613803133E+01 -0.46826267408E+02  0.48741784902E+02  0.00000000000E+00 0.  1.
         16    1    1    2    0    0  0.23965081987E+03  0.41871682535E+03  0.11093683077E+04  0.12097331679E+04  0.00000000000E+00 0. -1.
    9900018    1    1    2    0    0 -0.17607915379E+03 -0.20692138696E+03 -0.11273760500E+03  0.30796960038E+03  0.91187600000E+02 0.  0.
<mgrwt>
<rscale>  0 0.18923006E+04</rscale>
<asrwt>0</asrwt>
<pdfrwt beam="1">  1        1 0.30193770E+00 0.18923006E+04</pdfrwt>
<pdfrwt beam="2">  1       -1 0.70173994E-01 0.18923006E+04</pdfrwt>
<totfact> 0.60717037E+00</totfact>
</mgrwt>
</event>
<event>
11    1  0.4016917E-012  0.1634892E+04  0.7818608E-02  0.8799395E-01
          2   -1    0    0  501    0  0.00000000000E+00  0.00000000000E+00  0.32201133761E+04  0.32201133761E+04  0.00000000000E+00 0. -1.
         -2   -1    0    0    0  501 -0.00000000000E+00 -0.00000000000E+00 -0.20751382621E+03  0.20751382621E+03  0.00000000000E+00 0.  1.
    9900016    2    1    2    0    0  0.15269363509E+03  0.50648596099E+02  0.13036546729E+04  0.14946162639E+04  0.71307898846E+03 0.  0.
         23    2    3    3    0    0 -0.57245896543E+02  0.13740425747E+03  0.37430086969E+03  0.41043711717E+03  0.78743021628E+02 0.  0.
        -15    1    4    4    0    0 -0.42675509672E+02  0.79944250666E+02  0.12628472102E+03  0.15543523765E+03  0.00000000000E+00 0.  1.
        -15    1    3    3    0    0 -0.14465125611E+03 -0.76299323047E+02  0.15381240817E+03  0.22450797202E+03  0.00000000000E+00 0.  1.
         15    1    3    3    0    0  0.13506044223E+03  0.46905766680E+02  0.26909134115E+03  0.30471564431E+03  0.00000000000E+00 0. -1.
         15    1    4    4    0    0 -0.14570386871E+02  0.57460006809E+02  0.24801614868E+03  0.25500187952E+03  0.00000000000E+00 0. -1.
        -16    1    3    3    0    0  0.21953034552E+03 -0.57362105009E+02  0.50645005389E+03  0.55495553046E+03  0.00000000000E+00 0.  1.
         16    1    1    2    0    0 -0.43564517398E+03 -0.15812219396E+03  0.14565298227E+04  0.15284856788E+04  0.00000000000E+00 0. -1.
    9900018    1    1    2    0    0  0.28295153888E+03  0.10747359787E+03  0.25241505424E+03  0.40452525953E+03  0.91187600000E+02 0.  0.
<mgrwt>
<rscale>  0 0.16348921E+04</rscale>
<asrwt>0</asrwt>
<pdfrwt beam="1">  1        2 0.49540202E+00 0.16348921E+04</pdfrwt>
<pdfrwt beam="2">  1       -2 0.31925206E-01 0.16348921E+04</pdfrwt>
<totfact> 0.11063541E+01</totfact>
</mgrwt>
</event>
<event>
11    1  0.4016917E-012  0.1183181E+04  0.7818608E-02  0.9127707E-01
         -2   -1    0    0    0  501 -0.00000000000E+00  0.00000000000E+00  0.67602568804E+03  0.67602568804E+03  0.00000000000E+00 0.  1.
          2   -1    0    0  501    0  0.00000000000E+00 -0.00000000000E+00 -0.51770116630E+03  0.51770116630E+03  0.00000000000E+00 0. -1.
    9900016    2    1    2    0    0 -0.20913094738E+03  0.12187270387E+03  0.68534157551E+02  0.75172173044E+03  0.70837837359E+03 0.  0.
         23    2    3    3    0    0  0.19233877531E+03 -0.39346015676E+02 -0.66019718684E+02  0.22569819899E+03  0.89659134134E+02 0.  0.
        -15    1    4    4    0    0  0.93093572909E+02  0.26373007052E+02 -0.27514151851E+02  0.10059312785E+03  0.00000000000E+00 0. -1.
        -15    1    3    3    0    0 -0.14077314022E+03  0.11893676301E+02  0.44379163702E+02  0.14808121661E+03  0.00000000000E+00 0.  1.
         15    1    4    4    0    0  0.99245202401E+02 -0.65719022728E+02 -0.38505566833E+02  0.12510507114E+03  0.00000000000E+00 0.  1.
         15    1    3    3    0    0  0.16001706204E+02  0.28691813375E+02  0.67706396974E+02  0.75255770193E+02  0.00000000000E+00 0. -1.
        -16    1    1    2    0    0  0.23733820870E+03 -0.93828868963E+02  0.17628526338E+03  0.31017700760E+03  0.00000000000E+00 0.  1.
         16    1    3    3    0    0 -0.27669828868E+03  0.12063322987E+03  0.22468315559E+02  0.30268654465E+03  0.00000000000E+00 0. -1.
    9900018    1    1    2    0    0 -0.28207261313E+02 -0.28043834904E+02 -0.86494899189E+02  0.13182811630E+03  0.91187600000E+02 0.  0.
<mgrwt>
<rscale>  0 0.11831809E+04</rscale>
<asrwt>0</asrwt>
<pdfrwt beam="1">  1        2 0.79646333E-01 0.11831809E+04</pdfrwt>
<pdfrwt beam="2">  1       -2 0.10400395E+00 0.11831809E+04</pdfrwt>
<totfact> 0.43932516E+01</totfact>
</mgrwt>
</event>
<event>
11    1  0.4016917E-012  0.9451497E+03  0.7818608E-02  0.9370838E-01
         -3   -1    0    0    0  501 -0.00000000000E+00  0.00000000000E+00  0.98432361038E+03  0.98432361038E+03  0.00000000000E+00 0.  1.
          3   -1    0    0  501    0  0.00000000000E+00 -0.00000000000E+00 -0.22688369503E+03  0.22688369503E+03  0.00000000000E+00 0. -1.
    9900016    2    1    2    0    0  0.13368898899E+03 -0.22771302300E+02  0.57230904032E+03  0.92568939233E+03  0.71482300988E+03 0.  0.
         23    2    3    3    0    0 -0.10029686717E+03 -0.10014251698E+03  0.34582174462E+03  0.38473022134E+03  0.91305415447E+02 0.  0.
        -15    1    3    3    0    0  0.16571699741E+03  0.77945943064E+02 -0.26952812369E+02  0.18510577345E+03  0.00000000000E+00 0.  1.
        -15    1    4    4    0    0 -0.53728031553E+02 -0.86639754100E+02  0.13946199661E+03  0.17275067833E+03  0.00000000000E+00 0.  1.
         15    1    3    3    0    0  0.10040451513E+03  0.10071269933E+03  0.16296952689E+03  0.21629420048E+03  0.00000000000E+00 0. -1.
         15    1    4    4    0    0 -0.46568835612E+02 -0.13502762876E+02  0.20635974801E+03  0.21197954301E+03  0.00000000000E+00 0. -1.
        -16    1    3    3    0    0 -0.32135656388E+02 -0.10128742772E+03  0.90470581177E+02  0.13955919706E+03  0.00000000000E+00 0.  1.
         16    1    1    2    0    0  0.13220495652E+01  0.50120053742E+02  0.60520669444E+02  0.78590833003E+02  0.00000000000E+00 0. -1.
    9900018    1    1    2    0    0 -0.13501103855E+03 -0.27348751442E+02  0.12461020559E+03  0.20692708007E+03  0.91187600000E+02 0.  0.
<mgrwt>
<rscale>  0 0.94514968E+03</rscale>
<asrwt>0</asrwt>
<pdfrwt beam="1">  1        3 0.34905184E-01 0.94514968E+03</pdfrwt>
<pdfrwt beam="2">  1       -3 0.15143440E+00 0.94514968E+03</pdfrwt>
<totfact> 0.66977852E+00</totfact>
</mgrwt>
</event>
<event>
11    1  0.4016917E-012  0.1671991E+04  0.7818608E-02  0.8777502E-01
          2   -1    0    0  501    0  0.00000000000E+00  0.00000000000E+00  0.54545240554E+03  0.54545240554E+03  0.00000000000E+00 0.  1.
         -2   -1    0    0    0  501 -0.00000000000E+00 -0.00000000000E+00 -0.12812999911E+04  0.12812999911E+04  0.00000000000E+00 0. -1.
    9900016    2    1    2    0    0  0.15739920057E+03  0.45017790816E+03 -0.68648664394E+03  0.10960399761E+04  0.70894644341E+03 0.  0.
         23    2    3    3    0    0  0.29581254742E+03  0.14579928918E+03 -0.20378899305E+03  0.39606272562E+03  0.81075477176E+02 0.  0.
        -15    1    3    3    0    0 -0.91125466790E+02  0.30718524955E+02 -0.14007033137E+03  0.16990343199E+03  0.00000000000E+00 0.  1.
        -15    1    4    4    0    0  0.41580635091E+02  0.21661251131E+02  0.84715037165E+00  0.46892181426E+02  0.00000000000E+00 0.  1.
         15    1    3    3    0    0  0.10269675409E+03  0.19066131062E+03 -0.11524336487E+03  0.24531488299E+03  0.00000000000E+00 0. -1.
         15    1    4    4    0    0  0.25423191233E+03  0.12413803804E+03 -0.20463614342E+03  0.34917054419E+03  0.00000000000E+00 0. -1.
        -16    1    3    3    0    0 -0.14998463416E+03  0.82998783407E+02 -0.22738395465E+03  0.28475893553E+03  0.00000000000E+00 0.  1.
         16    1    1    2    0    0 -0.10142312125E+03 -0.29992015343E+03 -0.28874681142E+03  0.42850142247E+03  0.00000000000E+00 0. -1.
    9900018    1    1    2    0    0 -0.55976079322E+02 -0.15025775473E+03  0.23938586977E+03  0.30221099807E+03  0.91187600000E+02 0.  0.
<mgrwt>
<rscale>  0 0.16719906E+04</rscale>
<asrwt>0</asrwt>
<pdfrwt beam="1">  1        2 0.83915754E-01 0.16719906E+04</pdfrwt>
<pdfrwt beam="2">  1       -2 0.19712308E+00 0.16719906E+04</pdfrwt>
<totfact> 0.73593100E+00</totfact>
</mgrwt>
</event>
