<event>
12    1  0.1715684E-015  0.3971066E+04  0.7818608E-02  0.8444435E-01
         -2   -1    0    0    0  501 -0.00000000000E+00  0.00000000000E+00  0.18786177639E+04  0.18786177639E+04  0.00000000000E+00 0.  1.
          2   -1    0    0  501    0  0.00000000000E+00 -0.00000000000E+00 -0.28040008273E+04  0.28040008273E+04  0.00000000000E+00 0. -1.
         23    2    1    2    0    0  0.40406520285E+03 -0.30722714905E+03 -0.44398900335E+03  0.68247999663E+03  0.10485943659E+03 0.  0.
    9900016    2    1    2    0    0  0.33704024203E+03  0.96795327792E+03 -0.93040781551E+03  0.25480063968E+04  0.21391933578E+04 0.  0.
         23    2    4    4    0    0 -0.32848855469E+03  0.16573569673E+03  0.59208241155E+03  0.70288902435E+03  0.90101868745E+02 0.  0.
        -15    1    3    3    0    0  0.26847896256E+03 -0.16681838651E+03 -0.21854596337E+03  0.38428071188E+03  0.00000000000E+00 0.  1.
        -15    1    5    5    0    0 -0.21200823101E+03  0.10663263053E+03  0.29682583639E+03  0.38003103171E+03  0.00000000000E+00 0.  1.
         15    1    5    5    0    0 -0.11648032367E+03  0.59103066200E+02  0.29525657516E+03  0.32285799264E+03  0.00000000000E+00 0. -1.
         15    1    3    3    0    0  0.13558624029E+03 -0.14040876254E+03 -0.22544303998E+03  0.29819928475E+03  0.00000000000E+00 0. -1.
        -16    1    4    4    0    0  0.66552879671E+03  0.80221758118E+03 -0.15224902271E+04  0.18451173725E+04  0.00000000000E+00 0.  1.
         16    1    1    2    0    0 -0.80167941019E+03 -0.78753124488E+03  0.55554553184E+03  0.12536052713E+04  0.00000000000E+00 0. -1.
    9900018    1    1    2    0    0  0.60573965314E+02  0.12680511601E+03 -0.10653177641E+03  0.19852692638E+03  0.91187600000E+02 0.  0.
<mgrwt>
<rscale>  0 0.23868728E+04</rscale>
<asrwt>0</asrwt>
<pdfrwt beam="1">  1        2 0.43138474E+00 0.39710664E+04</pdfrwt>
<pdfrwt beam="2">  1       -2 0.28901812E+00 0.39710664E+04</pdfrwt>
<totfact> 0.65966455E-02</totfact>
</mgrwt>
</event>
<event>
12    1  0.1715684E-015  0.4891694E+04  0.7818608E-02  0.7845435E-01
         -2   -1    0    0    0  501 -0.00000000000E+00  0.00000000000E+00  0.18943836962E+04  0.18943836962E+04  0.00000000000E+00 0.  1.
          2   -1    0    0  501    0  0.00000000000E+00 -0.00000000000E+00 -0.31578439440E+04  0.31578439440E+04  0.00000000000E+00 0. -1.
    9900016    2    1    2    0    0 -0.51627407449E+02  0.39262546701E+03 -0.16770337174E+04  0.27250773060E+04  0.21111096816E+04 0.  0.
    9900016    2    1    2    0    0  0.51627407449E+02 -0.39262546701E+03  0.41357346958E+03  0.23271503342E+04  0.22556075715E+04 0.  0.
         23    2    4    4    0    0  0.31005048439E+03  0.34632804987E+03 -0.74723319998E+03  0.88470372291E+03  0.90932948822E+02 0.  0.
        -15    1    3    3    0    0  0.61150726090E+02 -0.14170981295E+02  0.11469920275E+03  0.13075218975E+03  0.00000000000E+00 0. -1.
        -15    1    5    5    0    0  0.32894612890E+02  0.90122663092E+02 -0.16385203292E+03  0.18987269065E+03  0.00000000000E+00 0.  1.
         15    1    3    3    0    0  0.20473928904E+03  0.23835113964E+03  0.32220345406E+03  0.45004945067E+03  0.00000000000E+00 0.  1.
         15    1    5    5    0    0  0.27715587150E+03  0.25620538678E+03 -0.58338116706E+03  0.69483103227E+03  0.00000000000E+00 0. -1.
        -16    1    4    4    0    0 -0.25718549018E+03 -0.71105611834E+03  0.10740763996E+04  0.13135392236E+04  0.00000000000E+00 0.  1.
         16    1    3    3    0    0 -0.31751742258E+03  0.16844530867E+03 -0.21139363742E+04  0.21442756655E+04  0.00000000000E+00 0. -1.
    9900018    1    4    4    0    0 -0.12375867640E+01 -0.27897398537E+02  0.86730269984E+02  0.12890738765E+03  0.91187600000E+02 0.  0.
<mgrwt>
<rscale>  0 0.48916942E+04</rscale>
<asrwt>0</asrwt>
<pdfrwt beam="1">  1        2 0.48582214E+00 0.48916942E+04</pdfrwt>
<pdfrwt beam="2">  1       -2 0.29144365E+00 0.48916942E+04</pdfrwt>
<totfact> 0.36334030E-02</totfact>
</mgrwt>
</event>
<event>
13    1  0.1715684E-015  0.5963680E+04  0.7818608E-02  0.7694921E-01
         -2   -1    0    0    0  501 -0.00000000000E+00  0.00000000000E+00  0.31100022816E+04  0.31100022816E+04  0.00000000000E+00 0.  1.
          2   -1    0    0  501    0  0.00000000000E+00 -0.00000000000E+00 -0.28589592266E+04  0.28589592266E+04  0.00000000000E+00 0. -1.
    9900016    2    1    2    0    0 -0.10868765666E+03 -0.12547507203E+04  0.15857239103E+04  0.30566184002E+04  0.22895814788E+04 0.  0.
         23    2    3    3    0    0 -0.17734836875E+03  0.29011989045E+03  0.14616719683E+04  0.15052550058E+04  0.11698587448E+03 0.  0.
    9900016    2    1    2    0    0  0.12016568124E+03  0.11895574027E+04 -0.12785910351E+04  0.27864734928E+04  0.21679835990E+04 0.  0.
         23    2    5    5    0    0 -0.27441284213E+03 -0.82827516965E+02  0.48844706741E+03  0.57353895906E+03  0.90573696009E+02 0.  0.
        -15    1    6    6    0    0 -0.11605408119E+03 -0.22165020492E+02  0.28604423534E+03  0.30948528635E+03  0.00000000000E+00 0. -1.
        -15    1    4    4    0    0 -0.46440398498E+02  0.75255961014E+01  0.15516864816E+03  0.16214393169E+03  0.00000000000E+00 0. -1.
         15    1    6    6    0    0 -0.15835876093E+03 -0.60662496473E+02  0.20240283207E+03  0.26405367271E+03  0.00000000000E+00 0.  1.
         15    1    4    4    0    0 -0.13090797025E+03  0.28259429434E+03  0.13065033201E+04  0.13431110741E+04  0.00000000000E+00 0.  1.
        -16    1    3    3    0    0  0.68660712082E+02 -0.15448706107E+04  0.12405194208E+03  0.15513633945E+04  0.00000000000E+00 0.  1.
         16    1    5    5    0    0  0.39457852337E+03  0.12723849197E+04 -0.17670381025E+04  0.22129345337E+04  0.00000000000E+00 0. -1.
    9900018    1    1    2    0    0 -0.11478024577E+02  0.65193317608E+02 -0.56089820297E+02  0.12586961525E+03  0.91187600000E+02 0.  0.
<mgrwt>
<rscale>  0 0.59636800E+04</rscale>
<asrwt>0</asrwt>
<pdfrwt beam="1">  1        2 0.43983988E+00 0.59636800E+04</pdfrwt>
<pdfrwt beam="2">  1       -2 0.47846189E+00 0.59636800E+04</pdfrwt>
<totfact> 0.32726724E-03</totfact>
</mgrwt>
</event>
