<event>
12    1  0.3065082E-011  0.1054995E+04  0.7818608E-02  0.9250202E-01
         -2   -1    0    0    0  501 -0.00000000000E+00  0.00000000000E+00  0.30966794963E+03  0.30966794963E+03  0.00000000000E+00 0. -1.
          2   -1    0    0  501    0  0.00000000000E+00 -0.00000000000E+00 -0.89855483926E+03  0.89855483926E+03  0.00000000000E+00 0.  1.
    9900016    2    1    2    0    0 -0.17239576104E+03 -0.97100100642E+02 -0.27305346985E+03  0.78469280640E+03  0.70854489982E+03 0.  0.
         23    2    3    3    0    0 -0.20825584629E+03 -0.94578846847E+02 -0.13448368441E+03  0.28037356346E+03  0.90597008383E+02 0.  0.
         23    2    3    3    0    0  0.85155210413E+02 -0.10890208031E+03 -0.27684433790E+03  0.32302737475E+03  0.92697488948E+02 0.  0.
        -15    1    5    5    0    0  0.70741113641E+02 -0.17942566562E+02 -0.14319533232E+03  0.16072070200E+03  0.00000000000E+00 0.  1.
        -15    1    4    4    0    0 -0.56935106288E+02  0.13666746885E+02 -0.19768870722E+02  0.61799632265E+02  0.00000000000E+00 0.  1.
         15    1    4    4    0    0 -0.15132074000E+03 -0.10824559373E+03 -0.11471481369E+03  0.21857393119E+03  0.00000000000E+00 0. -1.
         15    1    5    5    0    0  0.14414096772E+02 -0.90959513751E+02 -0.13364900558E+03  0.16230667275E+03  0.00000000000E+00 0. -1.
        -16    1    1    2    0    0  0.14090616715E+03  0.37833432859E+01 -0.11471125342E+03  0.18173478833E+03  0.00000000000E+00 0.  1.
         16    1    3    3    0    0 -0.49295125162E+02  0.10638082652E+03  0.13827455246E+03  0.18129186819E+03  0.00000000000E+00 0. -1.
    9900018    1    1    2    0    0  0.31489593891E+02  0.93316757356E+02 -0.20112216636E+03  0.24179519417E+03  0.91187600000E+02 0.  0.
<mgrwt>
<rscale>  0 0.10549950E+04</rscale>
<asrwt>0</asrwt>
<pdfrwt beam="1">  1        2 0.13823921E+00 0.10549950E+04</pdfrwt>
<pdfrwt beam="2">  1       -2 0.47641222E-01 0.10549950E+04</pdfrwt>
<totfact> 0.12210576E+02</totfact>
</mgrwt>
</event>
<event>
12    1  0.3065082E-011  0.1719560E+04  0.7818608E-02  0.8750287E-01
          2   -1    0    0  501    0  0.00000000000E+00  0.00000000000E+00  0.10531349276E+04  0.10531349276E+04  0.00000000000E+00 0. -1.
         -2   -1    0    0    0  501 -0.00000000000E+00 -0.00000000000E+00 -0.70192471676E+03  0.70192471676E+03  0.00000000000E+00 0.  1.
    9900016    2    1    2    0    0 -0.41674090065E+02 -0.53882010047E+02 -0.23700982173E+03  0.75218007841E+03  0.71060622989E+03 0.  0.
         23    2    3    3    0    0  0.70822080548E+02  0.19829397312E+03 -0.15746431783E+03  0.27851226378E+03  0.91857513657E+02 0.  0.
         23    2    3    3    0    0 -0.48257274843E+02  0.75444679805E+02 -0.72097800790E+02  0.13972559984E+03  0.79400793983E+02 0.  0.
        -15    1    4    4    0    0  0.24293950088E+02  0.10845752854E+03 -0.13502068677E+03  0.17488229574E+03  0.00000000000E+00 0.  1.
        -15    1    5    5    0    0  0.34007013133E+01 -0.14795750931E+02 -0.50343608635E+01  0.15994492938E+02  0.00000000000E+00 0. -1.
         15    1    4    4    0    0  0.46528130460E+02  0.89836444588E+02 -0.22443631055E+02  0.10362996804E+03  0.00000000000E+00 0. -1.
         15    1    5    5    0    0 -0.51657976156E+02  0.90240430736E+02 -0.67063439926E+02  0.12373110690E+03  0.00000000000E+00 0.  1.
        -16    1    3    3    0    0 -0.64238895770E+02 -0.32762066297E+03 -0.74477031144E+01  0.33394221479E+03  0.00000000000E+00 0.  1.
         16    1    1    2    0    0 -0.19010113176E+03  0.49864120145E+02  0.70202333243E+03  0.72901414941E+03  0.00000000000E+00 0. -1.
    9900018    1    1    2    0    0  0.23177522183E+03  0.40178899019E+01 -0.11380329989E+03  0.27386541649E+03  0.91187600000E+02 0.  0.
<mgrwt>
<rscale>  0 0.17195598E+04</rscale>
<asrwt>0</asrwt>
<pdfrwt beam="1">  1        2 0.16202076E+00 0.17195598E+04</pdfrwt>
<pdfrwt beam="2">  1       -2 0.10798842E+00 0.17195598E+04</pdfrwt>
<totfact> 0.15212669E+01</totfact>
</mgrwt>
</event>
<event>
12    1  0.3065082E-011  0.1872265E+04  0.7818608E-02  0.8668787E-01
          2   -1    0    0  501    0  0.00000000000E+00  0.00000000000E+00  0.14916267489E+04  0.14916267489E+04  0.00000000000E+00 0. -1.
         -2   -1    0    0    0  501 -0.00000000000E+00 -0.00000000000E+00 -0.58750873806E+03  0.58750873806E+03  0.00000000000E+00 0.  1.
    9900016    2    1    2    0    0 -0.62704057850E+02 -0.84542011267E+02  0.23479142464E+03  0.76297087435E+03  0.71827459337E+03 0.  0.
         23    2    3    3    0    0  0.22280501772E+03 -0.95192910698E+02 -0.56730334416E+01  0.25885036998E+03  0.90926148955E+02 0.  0.
         23    2    3    3    0    0 -0.99868253884E+02 -0.31411010457E+02 -0.57539290083E+02  0.15051344440E+03  0.91559856547E+02 0.  0.
        -15    1    4    4    0    0  0.12296010824E+03 -0.89877906833E+02 -0.31616135746E+02  0.15555322689E+03  0.00000000000E+00 0.  1.
        -15    1    5    5    0    0 -0.85414950346E+02 -0.35383654306E+01 -0.59873929103E+00  0.85490305072E+02  0.00000000000E+00 0.  1.
         15    1    4    4    0    0  0.99844909476E+02 -0.53150038656E+01  0.25943102304E+02  0.10329714309E+03  0.00000000000E+00 0. -1.
         15    1    5    5    0    0 -0.14453303538E+02 -0.27872645026E+02 -0.56940550792E+02  0.65023139331E+02  0.00000000000E+00 0. -1.
        -16    1    1    2    0    0  0.62524432427E+02  0.54957500167E+03  0.78332953153E+02  0.55863945319E+03  0.00000000000E+00 0.  1.
         16    1    3    3    0    0 -0.18564082168E+03  0.42061909888E+02  0.29800374816E+03  0.35360705997E+03  0.00000000000E+00 0. -1.
    9900018    1    1    2    0    0  0.17962542391E+00 -0.46503299041E+03  0.59099363303E+03  0.75752515939E+03  0.91187600000E+02 0.  0.
<mgrwt>
<rscale>  0 0.18722647E+04</rscale>
<asrwt>0</asrwt>
<pdfrwt beam="1">  1        2 0.22948104E+00 0.18722647E+04</pdfrwt>
<pdfrwt beam="2">  1       -2 0.90385961E-01 0.18722647E+04</pdfrwt>
<totfact> 0.12605318E+01</totfact>
</mgrwt>
</event>
<event>
12    1  0.3065082E-011  0.1081677E+04  0.7818608E-02  0.9223237E-01
         -2   -1    0    0    0  501 -0.00000000000E+00  0.00000000000E+00  0.18638413121E+04  0.18638413121E+04  0.00000000000E+00 0.  1.
          2   -1    0    0  501    0  0.00000000000E+00 -0.00000000000E+00 -0.15693737890E+03  0.15693737890E+03  0.00000000000E+00 0. -1.
    9900016    2    1    2    0    0 -0.66726043638E+02  0.24667790324E+02  0.12368257470E+04  0.14244290577E+04  0.70299313461E+03 0.  0.
         23    2    3    3    0    0  0.22049969144E+03  0.63138507389E+02  0.23069215365E+03  0.33890142409E+03  0.95019579321E+02 0.  0.
         23    2    3    3    0    0 -0.13900022054E+03 -0.81749831865E+02  0.24010791511E+03  0.30409355156E+03  0.93898779984E+02 0.  0.
        -15    1    5    5    0    0 -0.10815869612E+03 -0.14125373937E+02  0.11447517945E+03  0.15812146105E+03  0.00000000000E+00 0.  1.
        -15    1    4    4    0    0  0.17422830473E+03  0.78970371037E+02  0.21445340004E+03  0.28737098403E+03  0.00000000000E+00 0. -1.
         15    1    4    4    0    0  0.46271386707E+02 -0.15831863647E+02  0.16238753610E+02  0.51530440064E+02  0.00000000000E+00 0.  1.
         15    1    5    5    0    0 -0.30841524423E+02 -0.67624457928E+02  0.12563273566E+03  0.14597209051E+03  0.00000000000E+00 0. -1.
        -16    1    1    2    0    0  0.13540354934E+03  0.11658994817E+03  0.17665105718E+03  0.25126267767E+03  0.00000000000E+00 0.  1.
         16    1    3    3    0    0 -0.14822551454E+03  0.43279114799E+02  0.76602567819E+03  0.78143408205E+03  0.00000000000E+00 0. -1.
    9900018    1    1    2    0    0 -0.68677505707E+02 -0.14125773850E+03  0.29342712902E+03  0.34508695559E+03  0.91187600000E+02 0.  0.
<mgrwt>
<rscale>  0 0.10816772E+04</rscale>
<asrwt>0</asrwt>
<pdfrwt beam="1">  1        2 0.24144213E-01 0.10816772E+04</pdfrwt>
<pdfrwt beam="2">  1       -2 0.28674480E+00 0.10816772E+04</pdfrwt>
<totfact> 0.87809532E+00</totfact>
</mgrwt>
</event>
<event>
12    1  0.3065082E-011  0.1134308E+04  0.7818608E-02  0.9172384E-01
          2   -1    0    0  501    0  0.00000000000E+00  0.00000000000E+00  0.55869779188E+03  0.55869779188E+03  0.00000000000E+00 0.  1.
         -2   -1    0    0    0  501 -0.00000000000E+00 -0.00000000000E+00 -0.57573800791E+03  0.57573800791E+03  0.00000000000E+00 0. -1.
    9900016    2    1    2    0    0 -0.94655525564E+01  0.92978315171E+02  0.85503563141E+02  0.73068620785E+03  0.71962275621E+03 0.  0.
         23    2    3    3    0    0 -0.20053398291E+03  0.15194001453E+02  0.17381123557E+02  0.22146641248E+03  0.91107257780E+02 0.  0.
         23    2    3    3    0    0  0.30327792834E+03 -0.69957430438E+01 -0.56340011343E+02  0.32141795525E+03  0.90049224522E+02 0.  0.
        -15    1    5    5    0    0  0.17417173579E+03 -0.44661572791E+02 -0.50671374647E+02  0.18681016525E+03  0.00000000000E+00 0. -1.
        -15    1    4    4    0    0 -0.11064183942E+03  0.12471027747E+02 -0.35835875614E+02  0.11696731656E+03  0.00000000000E+00 0. -1.
         15    1    4    4    0    0 -0.89892143489E+02  0.27229737060E+01  0.53216999171E+02  0.10449909592E+03  0.00000000000E+00 0.  1.
         15    1    5    5    0    0  0.12910619256E+03  0.37665829747E+02 -0.56686366958E+01  0.13460779000E+03  0.00000000000E+00 0.  1.
        -16    1    3    3    0    0 -0.11220949799E+03  0.84780056762E+02  0.12446245093E+03  0.18780184013E+03  0.00000000000E+00 0.  1.
         16    1    1    2    0    0 -0.83270877414E+02 -0.52839511107E+02 -0.20890236235E+03  0.23101136326E+03  0.00000000000E+00 0. -1.
    9900018    1    1    2    0    0  0.92736429971E+02 -0.40138804064E+02  0.10635858318E+03  0.17273822867E+03  0.91187600000E+02 0.  0.
<mgrwt>
<rscale>  0 0.11343078E+04</rscale>
<asrwt>0</asrwt>
<pdfrwt beam="1">  1        2 0.85953506E-01 0.11343078E+04</pdfrwt>
<pdfrwt beam="2">  1       -2 0.88575078E-01 0.11343078E+04</pdfrwt>
<totfact> 0.58728844E+01</totfact>
</mgrwt>
</event>
<event>
12    1  0.3065082E-011  0.2332240E+04  0.7818608E-02  0.8465317E-01
         -1   -1    0    0    0  501 -0.00000000000E+00  0.00000000000E+00  0.69535424629E+03  0.69535424629E+03  0.00000000000E+00 0.  1.
          1   -1    0    0  501    0  0.00000000000E+00 -0.00000000000E+00 -0.19556015694E+04  0.19556015694E+04  0.00000000000E+00 0. -1.
    9900016    2    1    2    0    0 -0.70632321134E+02 -0.32327928509E+03 -0.66812740686E+03  0.10148401416E+04  0.68848228749E+03 0.  0.
         23    2    3    3    0    0 -0.16474446503E+03 -0.17603984643E+03 -0.23602096798E+03  0.34942003026E+03  0.90871854450E+02 0.  0.
         23    2    3    3    0    0  0.50475400314E+02 -0.31411467355E+03 -0.31283640298E+03  0.45571352851E+03  0.92695258004E+02 0.  0.
        -15    1    5    5    0    0  0.42637480253E+02 -0.29103514724E+03 -0.31531821092E+03  0.43121338777E+03  0.00000000000E+00 0.  1.
        -15    1    4    4    0    0 -0.12649715901E+03 -0.71392872259E+02 -0.11828751150E+03  0.18732434125E+03  0.00000000000E+00 0. -1.
         15    1    4    4    0    0 -0.38247306017E+02 -0.10464697417E+03 -0.11773345648E+03  0.16209568901E+03  0.00000000000E+00 0. -1.
         15    1    5    5    0    0  0.78379200612E+01 -0.23079526308E+02  0.24818079396E+01  0.24500140737E+02  0.00000000000E+00 0.  1.
        -16    1    1    2    0    0  0.21749743701E+03  0.22448416329E+03  0.46506575281E+03  0.56034313515E+03  0.00000000000E+00 0.  1.
         16    1    3    3    0    0  0.43636743583E+02  0.16687523489E+03 -0.11927003591E+03  0.20970658281E+03  0.00000000000E+00 0. -1.
    9900018    1    1    2    0    0 -0.14686511587E+03  0.98795121801E+02 -0.10571856690E+04  0.10757725389E+04  0.91187600000E+02 0.  0.
<mgrwt>
<rscale>  0 0.23322400E+04</rscale>
<asrwt>0</asrwt>
<pdfrwt beam="1">  1        1 0.30086177E+00 0.23322400E+04</pdfrwt>
<pdfrwt beam="2">  1       -1 0.10697758E+00 0.23322400E+04</pdfrwt>
<totfact> 0.23460314E+00</totfact>
</mgrwt>
</event>
<event>
12    1  0.3065082E-011  0.1429405E+04  0.7818608E-02  0.8932804E-01
         -2   -1    0    0    0  501 -0.00000000000E+00  0.00000000000E+00  0.44210837001E+03  0.44210837001E+03  0.00000000000E+00 0.  1.
          2   -1    0    0  501    0  0.00000000000E+00 -0.00000000000E+00 -0.11553728112E+04  0.11553728112E+04  0.00000000000E+00 0. -1.
    9900016    2    1    2    0    0 -0.28837987987E+03 -0.21253930546E+03 -0.10232107762E+03  0.80384335482E+03  0.71229110951E+03 0.  0.
         23    2    3    3    0    0 -0.37022286341E+02  0.19042934654E+01 -0.79366065458E+02  0.12852087816E+03  0.94044498814E+02 0.  0.
         23    2    3    3    0    0  0.13958351795E+03 -0.22662103080E+03  0.20311120292E+02  0.28180602121E+03  0.90340699016E+02 0.  0.
        -15    1    5    5    0    0  0.14074553622E+02 -0.22294050488E+02  0.32320022927E+02  0.41709730625E+02  0.00000000000E+00 0. -1.
        -15    1    4    4    0    0 -0.32624720218E+02 -0.24342073847E+02 -0.90838077572E+02  0.99541274180E+02  0.00000000000E+00 0. -1.
         15    1    4    4    0    0 -0.43975661230E+01  0.26246367312E+02  0.11472012114E+02  0.28979603980E+02  0.00000000000E+00 0.  1.
         15    1    5    5    0    0  0.12550896433E+03 -0.20432698031E+03 -0.12008902635E+02  0.24009629058E+03  0.00000000000E+00 0.  1.
        -16    1    1    2    0    0 -0.12644471766E+01  0.92892016000E+00  0.42567071627E+02  0.42595977582E+02  0.00000000000E+00 0.  1.
         16    1    3    3    0    0 -0.39094111148E+03  0.12177431878E+02 -0.43266132453E+02  0.39351645545E+03  0.00000000000E+00 0. -1.
    9900018    1    1    2    0    0  0.28964432705E+03  0.21161038530E+03 -0.65351043519E+03  0.75104184881E+03  0.91187600000E+02 0.  0.
<mgrwt>
<rscale>  0 0.14294055E+04</rscale>
<asrwt>0</asrwt>
<pdfrwt beam="1">  1        2 0.17774967E+00 0.14294055E+04</pdfrwt>
<pdfrwt beam="2">  1       -2 0.68016672E-01 0.14294055E+04</pdfrwt>
<totfact> 0.38737219E+01</totfact>
</mgrwt>
</event>
<event>
12    1  0.3065082E-011  0.1585087E+04  0.7818608E-02  0.8829762E-01
         -2   -1    0    0    0  501 -0.00000000000E+00  0.00000000000E+00  0.31275861068E+03  0.31275861068E+03  0.00000000000E+00 0.  1.
          2   -1    0    0  501    0  0.00000000000E+00 -0.00000000000E+00 -0.20083395030E+04  0.20083395030E+04  0.00000000000E+00 0. -1.
    9900016    2    1    2    0    0  0.21747998048E+03 -0.26555521515E+01 -0.41889269123E+03  0.86104520985E+03  0.72015496442E+03 0.  0.
         23    2    3    3    0    0  0.20571650681E+03 -0.99501738393E+02  0.77489770772E+02  0.25814277668E+03  0.91723232935E+02 0.  0.
         23    2    3    3    0    0  0.50157636483E+02  0.94903434477E+02 -0.53233316094E+03  0.55026842537E+03  0.88849847203E+02 0.  0.
        -15    1    4    4    0    0  0.84924890883E+02 -0.91991058362E+02  0.40808958098E+02  0.13168129317E+03  0.00000000000E+00 0. -1.
        -15    1    5    5    0    0  0.25626146135E+02 -0.58814278961E+01 -0.45884897152E+02  0.52883970601E+02  0.00000000000E+00 0. -1.
         15    1    4    4    0    0  0.12079161593E+03 -0.75106800314E+01  0.36680812674E+02  0.12646148351E+03  0.00000000000E+00 0.  1.
         15    1    5    5    0    0  0.24531490348E+02  0.10078486237E+03 -0.48644826379E+03  0.49738445477E+03  0.00000000000E+00 0.  1.
        -16    1    3    3    0    0 -0.38394162811E+02  0.19427517650E+01  0.35950698945E+02  0.52634007799E+02  0.00000000000E+00 0.  1.
         16    1    1    2    0    0 -0.82961311459E+02 -0.12341749867E+03 -0.12427192956E+04  0.12515852771E+04  0.00000000000E+00 0. -1.
    9900018    1    1    2    0    0 -0.13451866902E+03  0.12607305082E+03 -0.33968905480E+02  0.20846762672E+03  0.91187600000E+02 0.  0.
<mgrwt>
<rscale>  0 0.15850873E+04</rscale>
<asrwt>0</asrwt>
<pdfrwt beam="1">  1        2 0.30897532E+00 0.15850873E+04</pdfrwt>
<pdfrwt beam="2">  1       -2 0.48116708E-01 0.15850873E+04</pdfrwt>
<totfact> 0.25973582E+01</totfact>
</mgrwt>
</event>
<event>
12    1  0.3065082E-011  0.1205018E+04  0.7818608E-02  0.9108476E-01
          2   -1    0    0  501    0  0.00000000000E+00  0.00000000000E+00  0.15517309987E+04  0.15517309987E+04  0.00000000000E+00 0. -1.
         -2   -1    0    0    0  501 -0.00000000000E+00 -0.00000000000E+00 -0.23394316978E+03  0.23394316978E+03  0.00000000000E+00 0.  1.
    9900016    2    1    2    0    0  0.84457245646E+02 -0.65792620861E+02  0.71392351070E+03  0.10179567532E+04  0.71769595017E+03 0.  0.
         23    2    3    3    0    0  0.26664221985E+03 -0.98709326227E+02  0.32459010617E+03  0.44080330700E+03  0.90040068565E+02 0.  0.
         23    2    3    3    0    0 -0.16227779075E+03  0.14004029085E+03  0.74348779905E+02  0.24385617305E+03  0.89402056074E+02 0.  0.
        -15    1    5    5    0    0 -0.43231875358E+02  0.76096751690E+02  0.63813816543E+02  0.10831395961E+03  0.00000000000E+00 0.  1.
        -15    1    4    4    0    0  0.49084535097E+02 -0.32078364118E+01  0.16806393867E+02  0.51981118447E+02  0.00000000000E+00 0.  1.
         15    1    4    4    0    0  0.21755768476E+03 -0.95501489816E+02  0.30778371230E+03  0.38882218856E+03  0.00000000000E+00 0. -1.
         15    1    5    5    0    0 -0.11904591539E+03  0.63943539159E+02  0.10534963362E+02  0.13554221344E+03  0.00000000000E+00 0. -1.
        -16    1    1    2    0    0  0.56401451106E+02 -0.77855918869E+02 -0.26539910568E+02  0.99734821615E+02  0.00000000000E+00 0.  1.
         16    1    3    3    0    0 -0.19907183461E+02 -0.10712358548E+03  0.31498462463E+03  0.33329727312E+03  0.00000000000E+00 0. -1.
    9900018    1    1    2    0    0 -0.14085869675E+03  0.14364853973E+03  0.63040422878E+03  0.66798259369E+03  0.91187600000E+02 0.  0.
<mgrwt>
<rscale>  0 0.12050176E+04</rscale>
<asrwt>0</asrwt>
<pdfrwt beam="1">  1        2 0.23872784E+00 0.12050176E+04</pdfrwt>
<pdfrwt beam="2">  1       -2 0.35991258E-01 0.12050176E+04</pdfrwt>
<totfact> 0.84969567E+01</totfact>
</mgrwt>
</event>
<event>
12    1  0.3065082E-011  0.1938674E+04  0.7818608E-02  0.8635842E-01
         -1   -1    0    0    0  501 -0.00000000000E+00  0.00000000000E+00  0.12522757223E+04  0.12522757223E+04  0.00000000000E+00 0.  1.
          1   -1    0    0  501    0  0.00000000000E+00 -0.00000000000E+00 -0.75032568163E+03  0.75032568163E+03  0.00000000000E+00 0. -1.
    9900016    2    1    2    0    0  0.12994427702E+03 -0.73047627210E+02  0.13609217923E+03  0.74121404669E+03  0.71320103112E+03 0.  0.
         23    2    3    3    0    0 -0.16378762149E+02 -0.98116659754E+02  0.18479954548E+03  0.23059284721E+03  0.95535576640E+02 0.  0.
         23    2    3    3    0    0  0.80082018365E+02 -0.19043867029E+03  0.92469172415E+02  0.24460943679E+03  0.92753500802E+02 0.  0.
        -15    1    5    5    0    0  0.51617877810E+02 -0.12593273063E+03  0.10638036487E+03  0.17274327768E+03  0.00000000000E+00 0.  1.
        -15    1    4    4    0    0  0.10859225480E+02  0.93402458845E+01  0.68274060902E+02  0.69760378176E+02  0.00000000000E+00 0.  1.
         15    1    4    4    0    0 -0.27237987629E+02 -0.10745690564E+03  0.11652548458E+03  0.16083246904E+03  0.00000000000E+00 0. -1.
         15    1    5    5    0    0  0.28464140555E+02 -0.64505939666E+02 -0.13911192458E+02  0.71866159111E+02  0.00000000000E+00 0. -1.
        -16    1    1    2    0    0 -0.34441572537E+03  0.27710165882E+03  0.68588996291E+03  0.81599789364E+03  0.00000000000E+00 0.  1.
         16    1    3    3    0    0  0.66241020805E+02  0.21550770284E+03 -0.14117653867E+03  0.26601176269E+03  0.00000000000E+00 0. -1.
    9900018    1    1    2    0    0  0.21447144835E+03 -0.20405403161E+03 -0.32003210144E+03  0.44538946364E+03  0.91187600000E+02 0.  0.
<mgrwt>
<rscale>  0 0.19386744E+04</rscale>
<asrwt>0</asrwt>
<pdfrwt beam="1">  1        1 0.11543472E+00 0.19386744E+04</pdfrwt>
<pdfrwt beam="2">  1       -1 0.19265780E+00 0.19386744E+04</pdfrwt>
<totfact> 0.38632612E+00</totfact>
</mgrwt>
</event>
<event>
12    1  0.3065082E-011  0.2074795E+04  0.7818608E-02  0.8572428E-01
         -1   -1    0    0    0  501 -0.00000000000E+00  0.00000000000E+00  0.47048967487E+03  0.47048967487E+03  0.00000000000E+00 0.  1.
          1   -1    0    0  501    0  0.00000000000E+00 -0.00000000000E+00 -0.22873914207E+04  0.22873914207E+04  0.00000000000E+00 0. -1.
    9900016    2    1    2    0    0  0.52453701955E+03  0.12333320646E+02 -0.11508938222E+04  0.14530431841E+04  0.71518298991E+03 0.  0.
         23    2    3    3    0    0  0.36704519237E+03  0.10468928849E+03 -0.96256476929E+03  0.10396046338E+04  0.92546416183E+02 0.  0.
         23    2    3    3    0    0  0.23002684762E+03 -0.29932637514E+02 -0.19657983048E+03  0.31738608183E+03  0.91005394194E+02 0.  0.
        -15    1    4    4    0    0  0.33236494382E+02  0.63610042196E-01 -0.17078827942E+03  0.17399225555E+03  0.00000000000E+00 0.  1.
        -15    1    5    5    0    0  0.99254545089E+02  0.12622804437E+02 -0.36881165705E+02  0.10663498627E+03  0.00000000000E+00 0.  1.
         15    1    4    4    0    0  0.33380869799E+03  0.10462567844E+03 -0.79177648987E+03  0.86561237824E+03  0.00000000000E+00 0. -1.
         15    1    5    5    0    0  0.13077230254E+03 -0.42555441951E+02 -0.15969866478E+03  0.21075109557E+03  0.00000000000E+00 0. -1.
        -16    1    1    2    0    0 -0.35550181647E+03 -0.27575174757E+03  0.10997433929E+03  0.46315755754E+03  0.00000000000E+00 0.  1.
         16    1    3    3    0    0 -0.72535020446E+02 -0.62423330327E+02  0.82507775750E+01  0.96052468426E+02  0.00000000000E+00 0. -1.
    9900018    1    1    2    0    0 -0.16903520308E+03  0.26341842693E+03 -0.77598226289E+03  0.84168035396E+03  0.91187600000E+02 0.  0.
<mgrwt>
<rscale>  0 0.20747955E+04</rscale>
<asrwt>0</asrwt>
<pdfrwt beam="1">  1        1 0.35190638E+00 0.20747955E+04</pdfrwt>
<pdfrwt beam="2">  1       -1 0.72383025E-01 0.20747955E+04</pdfrwt>
<totfact> 0.33692338E+00</totfact>
</mgrwt>
</event>
<event>
12    1  0.3065082E-011  0.2269418E+04  0.7818608E-02  0.8490078E-01
         -1   -1    0    0    0  501 -0.00000000000E+00  0.00000000000E+00  0.45319510799E+03  0.45319510799E+03  0.00000000000E+00 0.  1.
          1   -1    0    0  501    0  0.00000000000E+00 -0.00000000000E+00 -0.28410818452E+04  0.28410818452E+04  0.00000000000E+00 0. -1.
    9900016    2    1    2    0    0  0.20206369016E+03  0.49752059131E+03 -0.75663195719E+03  0.11758272466E+04  0.72230279074E+03 0.  0.
         23    2    3    3    0    0  0.15602276487E+03  0.21699418197E+03 -0.61813593902E+03  0.67943581390E+03  0.90063355120E+02 0.  0.
         23    2    3    3    0    0 -0.82964788873E+02  0.30630232224E+02 -0.17278949751E+03  0.21307779667E+03  0.87889531031E+02 0.  0.
        -15    1    4    4    0    0  0.18021225885E+02 -0.57885094367E+01 -0.58377904579E+02  0.61369790345E+02  0.00000000000E+00 0.  1.
        -15    1    5    5    0    0 -0.38358642399E+02 -0.30400861617E+02 -0.62946745763E+02  0.79736382134E+02  0.00000000000E+00 0.  1.
         15    1    4    4    0    0  0.13800153898E+03  0.22278269140E+03 -0.55975803444E+03  0.61806602356E+03  0.00000000000E+00 0. -1.
         15    1    5    5    0    0 -0.44606146475E+02  0.61031093841E+02 -0.10984275175E+03  0.13334141454E+03  0.00000000000E+00 0. -1.
        -16    1    1    2    0    0 -0.47722899746E+03 -0.80028580843E+03 -0.10940267454E+04  0.14370453754E+04  0.00000000000E+00 0.  1.
         16    1    3    3    0    0  0.12900571416E+03  0.24989617712E+03  0.34293479345E+02  0.28331363602E+03  0.00000000000E+00 0. -1.
    9900018    1    1    2    0    0  0.27516530731E+03  0.30276521712E+03 -0.53722803457E+03  0.68140433119E+03  0.91187600000E+02 0.  0.
<mgrwt>
<rscale>  0 0.22694179E+04</rscale>
<asrwt>0</asrwt>
<pdfrwt beam="1">  1        1 0.43708952E+00 0.22694179E+04</pdfrwt>
<pdfrwt beam="2">  1       -1 0.69722324E-01 0.22694179E+04</pdfrwt>
<totfact> 0.14688424E+00</totfact>
</mgrwt>
</event>
<event>
12    1  0.3065082E-011  0.2047495E+04  0.7818608E-02  0.8584732E-01
         -2   -1    0    0    0  501 -0.00000000000E+00  0.00000000000E+00  0.84377272833E+03  0.84377272833E+03  0.00000000000E+00 0. -1.
          2   -1    0    0  501    0  0.00000000000E+00 -0.00000000000E+00 -0.12421104189E+04  0.12421104189E+04  0.00000000000E+00 0.  1.
    9900016    2    1    2    0    0  0.24835735168E+03 -0.21987581623E+03 -0.45481178834E+02  0.79151914744E+03  0.71722191436E+03 0.  0.
         23    2    3    3    0    0  0.33571023013E+02 -0.21066873094E+03  0.12267070047E+03  0.26256268071E+03  0.91557264972E+02 0.  0.
         23    2    3    3    0    0  0.21738995647E+02  0.17989248504E+02  0.13652836090E+03  0.16724254367E+03  0.92378991608E+02 0.  0.
        -15    1    4    4    0    0  0.56235523493E+02 -0.95178955440E+02  0.35525316282E+02  0.11611854184E+03  0.00000000000E+00 0. -1.
        -15    1    5    5    0    0  0.55143180774E+02  0.75930920014E+01  0.53767079029E+02  0.77390724375E+02  0.00000000000E+00 0.  1.
         15    1    4    4    0    0 -0.22664500481E+02 -0.11548977550E+03  0.87145384188E+02  0.14644413888E+03  0.00000000000E+00 0.  1.
         15    1    5    5    0    0 -0.33404185127E+02  0.10396156503E+02  0.82761281873E+02  0.89851819299E+02  0.00000000000E+00 0. -1.
        -16    1    1    2    0    0 -0.26055392457E+03  0.70060122097E+03 -0.13929238695E+03  0.76035043729E+03  0.00000000000E+00 0.  1.
         16    1    3    3    0    0  0.19304733302E+03 -0.27196333796E+02 -0.30468024021E+03  0.36171392305E+03  0.00000000000E+00 0. -1.
    9900018    1    1    2    0    0  0.12196572885E+02 -0.48072540474E+03 -0.21356412483E+03  0.53401356253E+03  0.91187600000E+02 0.  0.
<mgrwt>
<rscale>  0 0.20474950E+04</rscale>
<asrwt>0</asrwt>
<pdfrwt beam="1">  1        2 0.19109391E+00 0.20474950E+04</pdfrwt>
<pdfrwt beam="2">  1       -2 0.12981119E+00 0.20474950E+04</pdfrwt>
<totfact> 0.72138617E+00</totfact>
</mgrwt>
</event>
<event>
12    1  0.3065082E-011  0.1401394E+04  0.7818608E-02  0.8952810E-01
          2   -1    0    0  501    0  0.00000000000E+00  0.00000000000E+00  0.22773218169E+04  0.22773218169E+04  0.00000000000E+00 0.  1.
         -2   -1    0    0    0  501 -0.00000000000E+00 -0.00000000000E+00 -0.21559370587E+03  0.21559370587E+03  0.00000000000E+00 0. -1.
    9900016    2    1    2    0    0 -0.74145546882E+02  0.11873743605E+03  0.12288980633E+04  0.14248196969E+04  0.70733625503E+03 0.  0.
         23    2    3    3    0    0  0.17067355093E+03 -0.64669289824E+02  0.17383372432E+03  0.26777056428E+03  0.90395427713E+02 0.  0.
         23    2    3    3    0    0 -0.77036401447E+02 -0.93512652987E+02  0.32346242926E+03  0.35700117781E+03  0.90236768540E+02 0.  0.
        -15    1    5    5    0    0 -0.37107225050E+02  0.11307655573E+02  0.77295908344E+02  0.86483909904E+02  0.00000000000E+00 0. -1.
        -15    1    4    4    0    0  0.14465937798E+03 -0.42937069420E+02  0.17829745854E+03  0.23358063124E+03  0.00000000000E+00 0.  1.
         15    1    4    4    0    0  0.26014172951E+02 -0.21732220404E+02 -0.44637342261E+01  0.34189933040E+02  0.00000000000E+00 0. -1.
         15    1    5    5    0    0 -0.39929176397E+02 -0.10482030856E+03  0.24616652092E+03  0.27051726790E+03  0.00000000000E+00 0.  1.
        -16    1    3    3    0    0 -0.16778269637E+03  0.27691937886E+03  0.73160190974E+03  0.80004795477E+03  0.00000000000E+00 0.  1.
         16    1    1    2    0    0 -0.16637741883E+03  0.51980492770E+02 -0.58415031307E+01  0.17440625070E+03  0.00000000000E+00 0. -1.
    9900018    1    1    2    0    0  0.24052296571E+03 -0.17071792882E+03  0.83867155082E+03  0.89368957519E+03  0.91187600000E+02 0.  0.
<mgrwt>
<rscale>  0 0.14013939E+04</rscale>
<asrwt>0</asrwt>
<pdfrwt beam="1">  1        2 0.35035719E+00 0.14013939E+04</pdfrwt>
<pdfrwt beam="2">  1       -2 0.33168264E-01 0.14013939E+04</pdfrwt>
<totfact> 0.38652631E+01</totfact>
</mgrwt>
</event>
<event>
12    1  0.3065082E-011  0.1717286E+04  0.7818608E-02  0.8751566E-01
          1   -1    0    0  501    0  0.00000000000E+00  0.00000000000E+00  0.18317648767E+04  0.18317648767E+04  0.00000000000E+00 0. -1.
         -1   -1    0    0    0  501 -0.00000000000E+00 -0.00000000000E+00 -0.40249048642E+03  0.40249048642E+03  0.00000000000E+00 0.  1.
    9900016    2    1    2    0    0 -0.15727356927E+03  0.40643756663E+03  0.58325810701E+03  0.10174743291E+04  0.71073027226E+03 0.  0.
         23    2    3    3    0    0 -0.86193378654E+02  0.34057957600E+02  0.93072057618E+01  0.13107236988E+03  0.92217672203E+02 0.  0.
         23    2    3    3    0    0  0.99918565912E+02 -0.95850771178E+02  0.21733495711E+03  0.27349479231E+03  0.91617834999E+02 0.  0.
        -15    1    4    4    0    0 -0.51092702026E+02 -0.25090604275E+02  0.22196336651E+02  0.61095662562E+02  0.00000000000E+00 0. -1.
        -15    1    5    5    0    0  0.44531806397E+02  0.78931165654E+01  0.38169447373E+02  0.59180146864E+02  0.00000000000E+00 0.  1.
         15    1    4    4    0    0 -0.35100676628E+02  0.59148561875E+02 -0.12889130889E+02  0.69976707315E+02  0.00000000000E+00 0.  1.
         15    1    5    5    0    0  0.55386759515E+02 -0.10374388774E+03  0.17916550974E+03  0.21431464545E+03  0.00000000000E+00 0. -1.
        -16    1    1    2    0    0  0.24421205343E+02 -0.42874157578E+03  0.83974618633E+02  0.43756996086E+03  0.00000000000E+00 0.  1.
         16    1    3    3    0    0 -0.17099875653E+03  0.46823038021E+03  0.35661594414E+03  0.61290716696E+03  0.00000000000E+00 0. -1.
    9900018    1    1    2    0    0  0.13285236393E+03  0.22304009145E+02  0.76204166465E+03  0.77921107313E+03  0.91187600000E+02 0.  0.
<mgrwt>
<rscale>  0 0.17172862E+04</rscale>
<asrwt>0</asrwt>
<pdfrwt beam="1">  1        1 0.28180998E+00 0.17172862E+04</pdfrwt>
<pdfrwt beam="2">  1       -1 0.61921614E-01 0.17172862E+04</pdfrwt>
<totfact> 0.97443782E+00</totfact>
</mgrwt>
</event>
<event>
12    1  0.3065082E-011  0.1718815E+04  0.7818608E-02  0.8750706E-01
         -1   -1    0    0    0  501 -0.00000000000E+00  0.00000000000E+00  0.30683542585E+03  0.30683542585E+03  0.00000000000E+00 0.  1.
          1   -1    0    0  501    0  0.00000000000E+00 -0.00000000000E+00 -0.24070921360E+04  0.24070921360E+04  0.00000000000E+00 0. -1.
    9900016    2    1    2    0    0  0.13925720534E+03  0.15556560460E+03 -0.92374238030E+03  0.11859357780E+04  0.71382803103E+03 0.  0.
         23    2    3    3    0    0  0.13118516162E+03 -0.17572699401E+03 -0.21452246468E+03  0.31859128750E+03  0.85970911152E+02 0.  0.
         23    2    3    3    0    0  0.87421216012E+02 -0.19929190505E+02 -0.27781910269E+03  0.30541949759E+03  0.89766218872E+02 0.  0.
        -15    1    5    5    0    0  0.84847781434E+02  0.19281568280E+02 -0.20431611818E+03  0.22207206271E+03  0.00000000000E+00 0. -1.
        -15    1    4    4    0    0 -0.52749690148E+01 -0.47178634610E+02 -0.34550169909E+02  0.58714249569E+02  0.00000000000E+00 0.  1.
         15    1    4    4    0    0  0.13646013064E+03 -0.12854835940E+03 -0.17997229477E+03  0.25987703793E+03  0.00000000000E+00 0. -1.
         15    1    5    5    0    0  0.25734345780E+01 -0.39210758785E+02 -0.73502984510E+02  0.83347434885E+02  0.00000000000E+00 0.  1.
        -16    1    3    3    0    0 -0.79349172294E+02  0.35122178912E+03 -0.43140081293E+03  0.56192499294E+03  0.00000000000E+00 0.  1.
         16    1    1    2    0    0 -0.21284093905E+01 -0.31290634389E+03 -0.12500762613E+04  0.12886448577E+04  0.00000000000E+00 0. -1.
    9900018    1    1    2    0    0 -0.13712879595E+03  0.15734073929E+03  0.73561931416E+02  0.23934692617E+03  0.91187600000E+02 0.  0.
<mgrwt>
<rscale>  0 0.17188149E+04</rscale>
<asrwt>0</asrwt>
<pdfrwt beam="1">  1        1 0.37032186E+00 0.17188149E+04</pdfrwt>
<pdfrwt beam="2">  1       -1 0.47205451E-01 0.17188149E+04</pdfrwt>
<totfact> 0.66889438E+00</totfact>
</mgrwt>
</event>
<event>
12    1  0.3065082E-011  0.1681945E+04  0.7818608E-02  0.8771729E-01
          1   -1    0    0  501    0  0.00000000000E+00  0.00000000000E+00  0.38435242321E+03  0.38435242321E+03  0.00000000000E+00 0. -1.
         -1   -1    0    0    0  501 -0.00000000000E+00 -0.00000000000E+00 -0.18400691684E+04  0.18400691684E+04  0.00000000000E+00 0.  1.
    9900016    2    1    2    0    0  0.40613237092E+02  0.43868765527E+03 -0.98887687347E+03  0.12961840266E+04  0.71282484944E+03 0.  0.
         23    2    3    3    0    0  0.46628228761E+02  0.73829519065E+02  0.52448749024E+02  0.13642045532E+03  0.90745136255E+02 0.  0.
         23    2    3    3    0    0  0.23550292946E+02  0.46343730747E+02 -0.44839188362E+02  0.11319262481E+03  0.89998110100E+02 0.  0.
        -15    1    4    4    0    0  0.47050142348E+02  0.11445434151E+02 -0.85474814699E+01  0.49170858213E+02  0.00000000000E+00 0.  1.
        -15    1    5    5    0    0  0.42991294639E+02  0.38165203270E+02 -0.63052596455E+02  0.85325635509E+02  0.00000000000E+00 0.  1.
         15    1    4    4    0    0 -0.42191358722E+00  0.62384084914E+02  0.60996230494E+02  0.87249597112E+02  0.00000000000E+00 0. -1.
         15    1    5    5    0    0 -0.19441001692E+02  0.81785274776E+01  0.18213408092E+02  0.27866989303E+02  0.00000000000E+00 0. -1.
        -16    1    1    2    0    0 -0.88731200676E+02 -0.57090959695E+03 -0.19676877798E+03  0.61035149369E+03  0.00000000000E+00 0.  1.
         16    1    3    3    0    0 -0.29565284615E+02  0.31851440545E+03 -0.99648643413E+03  0.10465709464E+04  0.00000000000E+00 0. -1.
    9900018    1    1    2    0    0  0.48117963583E+02  0.13222194169E+03 -0.27007109370E+03  0.31788607130E+03  0.91187600000E+02 0.  0.
<mgrwt>
<rscale>  0 0.16819454E+04</rscale>
<asrwt>0</asrwt>
<pdfrwt beam="1">  1        1 0.59131143E-01 0.16819454E+04</pdfrwt>
<pdfrwt beam="2">  1       -1 0.28308756E+00 0.16819454E+04</pdfrwt>
<totfact> 0.25658433E+00</totfact>
</mgrwt>
</event>
<event>
12    1  0.3065082E-011  0.1517748E+04  0.7818608E-02  0.8872735E-01
         -2   -1    0    0    0  501 -0.00000000000E+00  0.00000000000E+00  0.46436998882E+03  0.46436998882E+03  0.00000000000E+00 0.  1.
          2   -1    0    0  501    0  0.00000000000E+00 -0.00000000000E+00 -0.12401536007E+04  0.12401536007E+04  0.00000000000E+00 0. -1.
    9900016    2    1    2    0    0 -0.54132121414E+02  0.21270090347E+03 -0.10137551611E+03  0.75067473548E+03  0.71067826920E+03 0.  0.
         23    2    3    3    0    0 -0.40705152337E+02  0.11764617712E+03 -0.57611581660E+02  0.16492632457E+03  0.91564544331E+02 0.  0.
         23    2    3    3    0    0 -0.23929467887E+02  0.24939616290E+03 -0.22417656827E+03  0.34809256739E+03  0.90234340519E+02 0.  0.
        -15    1    5    5    0    0 -0.36551056672E+02  0.24817835315E+03 -0.22247955671E+03  0.33529931087E+03  0.00000000000E+00 0.  1.
        -15    1    4    4    0    0 -0.66518752292E+02  0.66655252716E+02 -0.51810214257E+02  0.10748006988E+03  0.00000000000E+00 0. -1.
         15    1    4    4    0    0  0.25813599955E+02  0.50990924400E+02 -0.58013674038E+01  0.57446254687E+02  0.00000000000E+00 0.  1.
         15    1    5    5    0    0  0.12621588785E+02  0.12178097407E+01 -0.16970115616E+01  0.12793256515E+02  0.00000000000E+00 0. -1.
        -16    1    3    3    0    0  0.10502498811E+02 -0.15434143654E+03  0.18041263382E+03  0.23765584352E+03  0.00000000000E+00 0.  1.
         16    1    1    2    0    0  0.57685353406E+02 -0.13415055704E+03 -0.78009050411E+03  0.79364045169E+03  0.00000000000E+00 0. -1.
    9900018    1    1    2    0    0 -0.35532319925E+01 -0.78550346426E+02  0.10568240831E+03  0.16020840240E+03  0.91187600000E+02 0.  0.
<mgrwt>
<rscale>  0 0.15177485E+04</rscale>
<asrwt>0</asrwt>
<pdfrwt beam="1">  1        2 0.19079286E+00 0.15177485E+04</pdfrwt>
<pdfrwt beam="2">  1       -2 0.71441538E-01 0.15177485E+04</pdfrwt>
<totfact> 0.30751875E+01</totfact>
</mgrwt>
</event>
<event>
12    1  0.3065082E-011  0.2445634E+04  0.7818608E-02  0.8422614E-01
          2   -1    0    0  501    0  0.00000000000E+00  0.00000000000E+00  0.82954144990E+03  0.82954144990E+03  0.00000000000E+00 0. -1.
         -2   -1    0    0    0  501 -0.00000000000E+00 -0.00000000000E+00 -0.18025403383E+04  0.18025403383E+04  0.00000000000E+00 0.  1.
    9900016    2    1    2    0    0 -0.34423211328E+03  0.39551104866E+02 -0.57215857009E+02  0.79535580399E+03  0.71362256336E+03 0.  0.
         23    2    3    3    0    0 -0.18642582309E+03  0.11878436061E+03 -0.56105653441E+00  0.24023810068E+03  0.94072941882E+02 0.  0.
         23    2    3    3    0    0 -0.15733445429E+03 -0.11563049849E+03 -0.26611906427E+03  0.34251417625E+03  0.91498971997E+02 0.  0.
        -15    1    5    5    0    0 -0.20736810672E+02 -0.61646541045E+02 -0.11270100412E+03  0.13012235653E+03  0.00000000000E+00 0.  1.
        -15    1    4    4    0    0 -0.16528006041E+03  0.12628879532E+03 -0.22048431026E+02  0.20917096238E+03  0.00000000000E+00 0.  1.
         15    1    4    4    0    0 -0.21145762683E+02 -0.75044347107E+01  0.21487374492E+02  0.31067138303E+02  0.00000000000E+00 0. -1.
         15    1    5    5    0    0 -0.13659764361E+03 -0.53983957448E+02 -0.15341806015E+03  0.21239181972E+03  0.00000000000E+00 0. -1.
        -16    1    1    2    0    0  0.47556698585E+03  0.67761051426E+02 -0.13114664381E+04  0.13966745277E+04  0.00000000000E+00 0.  1.
         16    1    3    3    0    0 -0.47183589980E+00  0.36397242748E+02  0.20946426380E+03  0.21260352706E+03  0.00000000000E+00 0. -1.
    9900018    1    1    2    0    0 -0.13133487257E+03 -0.10731215629E+03  0.39568340669E+03  0.44005145650E+03  0.91187600000E+02 0.  0.
<mgrwt>
<rscale>  0 0.24456344E+04</rscale>
<asrwt>0</asrwt>
<pdfrwt beam="1">  1        2 0.12762176E+00 0.24456344E+04</pdfrwt>
<pdfrwt beam="2">  1       -2 0.27731390E+00 0.24456344E+04</pdfrwt>
<totfact> 0.12854102E+00</totfact>
</mgrwt>
</event>
<event>
12    1  0.3065082E-011  0.1795354E+04  0.7818608E-02  0.8708774E-01
         -2   -1    0    0    0  501 -0.00000000000E+00  0.00000000000E+00  0.62166553940E+03  0.62166553940E+03  0.00000000000E+00 0.  1.
          2   -1    0    0  501    0  0.00000000000E+00 -0.00000000000E+00 -0.12962344106E+04  0.12962344106E+04  0.00000000000E+00 0. -1.
    9900016    2    1    2    0    0 -0.12811618567E+03 -0.84533029033E+02 -0.75013134438E+03  0.10726676524E+04  0.75123848987E+03 0.  0.
         23    2    3    3    0    0  0.15446968513E+03  0.15290064015E+03 -0.43255111484E+02  0.24014516184E+03  0.92515969984E+02 0.  0.
         23    2    3    3    0    0 -0.28437376109E+02 -0.48495388972E+01 -0.14058316636E+03  0.16966905864E+03  0.90508344402E+02 0.  0.
        -15    1    5    5    0    0 -0.45783627865E+02  0.30061116396E+02 -0.68341462874E+02  0.87580630549E+02  0.00000000000E+00 0.  1.
        -15    1    4    4    0    0  0.11279030589E+03  0.88109053970E+02 -0.69037430037E+02  0.15890571179E+03  0.00000000000E+00 0. -1.
         15    1    4    4    0    0  0.41679379241E+02  0.64791586184E+02  0.25782318553E+02  0.81239450049E+02  0.00000000000E+00 0.  1.
         15    1    5    5    0    0  0.17346251756E+02 -0.34910655293E+02 -0.72241703490E+02  0.82088428089E+02  0.00000000000E+00 0. -1.
        -16    1    3    3    0    0 -0.25414849469E+03 -0.23258413029E+03 -0.56629306653E+03  0.66285343193E+03  0.00000000000E+00 0.  1.
         16    1    1    2    0    0  0.34209108924E+03  0.17449099084E+03 -0.23246847160E+03  0.44890423201E+03  0.00000000000E+00 0. -1.
    9900018    1    1    2    0    0 -0.21397490357E+03 -0.89957961806E+02  0.30803094477E+03  0.39632806560E+03  0.91187600000E+02 0.  0.
<mgrwt>
<rscale>  0 0.17953543E+04</rscale>
<asrwt>0</asrwt>
<pdfrwt beam="1">  1        2 0.19942068E+00 0.17953543E+04</pdfrwt>
<pdfrwt beam="2">  1       -2 0.95640853E-01 0.17953543E+04</pdfrwt>
<totfact> 0.14398635E+01</totfact>
</mgrwt>
</event>
<event>
12    1  0.3065082E-011  0.1228615E+04  0.7818608E-02  0.9088172E-01
         -2   -1    0    0    0  501 -0.00000000000E+00  0.00000000000E+00  0.16977609324E+03  0.16977609324E+03  0.00000000000E+00 0.  1.
          2   -1    0    0  501    0  0.00000000000E+00 -0.00000000000E+00 -0.22227717780E+04  0.22227717780E+04  0.00000000000E+00 0. -1.
    9900016    2    1    2    0    0 -0.64978826009E+02 -0.24617471248E+03 -0.15048329555E+04  0.16821576756E+04  0.70732452570E+03 0.  0.
         23    2    3    3    0    0 -0.10177357571E+03  0.11340452411E+03 -0.18546797898E+03  0.25924396553E+03  0.97931688615E+02 0.  0.
         23    2    3    3    0    0 -0.42628753771E+02 -0.13896779578E+03 -0.14200719603E+03  0.22243512048E+03  0.90454851654E+02 0.  0.
        -15    1    4    4    0    0 -0.63189679038E+01  0.44838042302E+02 -0.11158267138E+03  0.12042039672E+03  0.00000000000E+00 0. -1.
        -15    1    5    5    0    0  0.24799940417E+02 -0.71374466806E+02 -0.67677402317E+02  0.10143757854E+03  0.00000000000E+00 0.  1.
         15    1    4    4    0    0 -0.95454607805E+02  0.68566481804E+02 -0.73885307597E+02  0.13882356881E+03  0.00000000000E+00 0.  1.
         15    1    5    5    0    0 -0.67428694188E+02 -0.67593328976E+02 -0.74329793714E+02  0.12099754194E+03  0.00000000000E+00 0. -1.
        -16    1    1    2    0    0 -0.94571804130E+01  0.18592685399E+03 -0.46906682886E+02  0.19198559893E+03  0.00000000000E+00 0.  1.
         16    1    3    3    0    0  0.79423503471E+02 -0.22061144081E+03 -0.11773577805E+04  0.12004785896E+04  0.00000000000E+00 0. -1.
    9900018    1    1    2    0    0  0.74436006422E+02  0.60247858489E+02 -0.50125604632E+03  0.51840459669E+03  0.91187600000E+02 0.  0.
<mgrwt>
<rscale>  0 0.12286147E+04</rscale>
<asrwt>0</asrwt>
<pdfrwt beam="1">  1        2 0.34196489E+00 0.12286147E+04</pdfrwt>
<pdfrwt beam="2">  1       -2 0.26119399E-01 0.12286147E+04</pdfrwt>
<totfact> 0.65594632E+01</totfact>
</mgrwt>
</event>
<event>
12    1  0.3065082E-011  0.1835074E+04  0.7818608E-02  0.8687867E-01
         -2   -1    0    0    0  501 -0.00000000000E+00  0.00000000000E+00  0.44316101758E+03  0.44316101758E+03  0.00000000000E+00 0.  1.
          2   -1    0    0  501    0  0.00000000000E+00 -0.00000000000E+00 -0.18997022584E+04  0.18997022584E+04  0.00000000000E+00 0. -1.
    9900016    2    1    2    0    0 -0.34375999044E+03 -0.11787991077E+03 -0.15331952769E+03  0.80953514061E+03  0.70694671789E+03 0.  0.
         23    2    3    3    0    0  0.10818131192E+03 -0.12139335534E+03 -0.80784168215E+02  0.20613064916E+03  0.97592108895E+02 0.  0.
         23    2    3    3    0    0 -0.16203979123E+03 -0.17361147300E+03 -0.72285086177E+02  0.26367491486E+03  0.88890323107E+02 0.  0.
        -15    1    4    4    0    0 -0.16630361965E+02 -0.12935021988E+02 -0.22457831977E+02  0.30793472523E+02  0.00000000000E+00 0.  1.
        -15    1    5    5    0    0 -0.13780328217E+03 -0.10354112605E+03 -0.21267162594E+02  0.17367441253E+03  0.00000000000E+00 0.  1.
         15    1    4    4    0    0  0.12481167388E+03 -0.10845833335E+03 -0.58326336237E+02  0.17533717663E+03  0.00000000000E+00 0. -1.
         15    1    5    5    0    0 -0.24236509054E+02 -0.70070346948E+02 -0.51017923583E+02  0.90000502328E+02  0.00000000000E+00 0. -1.
        -16    1    3    3    0    0 -0.28990151113E+03  0.17712491758E+03 -0.25027329581E+00  0.33972957660E+03  0.00000000000E+00 0.  1.
         16    1    1    2    0    0  0.55629238564E+03  0.46145164748E+02 -0.10004553203E+04  0.11456445533E+04  0.00000000000E+00 0. -1.
    9900018    1    1    2    0    0 -0.21253239520E+03  0.71734746019E+02 -0.30276639284E+03  0.38768358209E+03  0.91187600000E+02 0.  0.
<mgrwt>
<rscale>  0 0.18350738E+04</rscale>
<asrwt>0</asrwt>
<pdfrwt beam="1">  1        2 0.29226189E+00 0.18350738E+04</pdfrwt>
<pdfrwt beam="2">  1       -2 0.68178618E-01 0.18350738E+04</pdfrwt>
<totfact> 0.14079185E+01</totfact>
</mgrwt>
</event>
<event>
12    1  0.3065082E-011  0.1466292E+04  0.7818608E-02  0.8907183E-01
         -1   -1    0    0    0  501 -0.00000000000E+00  0.00000000000E+00  0.38182080039E+03  0.38182080039E+03  0.00000000000E+00 0.  1.
          1   -1    0    0  501    0  0.00000000000E+00 -0.00000000000E+00 -0.14077365823E+04  0.14077365823E+04  0.00000000000E+00 0. -1.
    9900016    2    1    2    0    0  0.14191219335E+03  0.15821537590E+03 -0.30195625733E+03  0.80282072273E+03  0.71286208744E+03 0.  0.
         23    2    3    3    0    0  0.27940451461E+03  0.31412677030E+02 -0.11546241958E+03  0.31647692460E+03  0.88161411119E+02 0.  0.
         23    2    3    3    0    0 -0.57849797361E+02 -0.13533709828E+03 -0.90706722093E+02  0.19611048441E+03  0.92568263657E+02 0.  0.
        -15    1    5    5    0    0 -0.29582771054E+02 -0.23372739306E+01 -0.42525593641E+02  0.51855851234E+02  0.00000000000E+00 0. -1.
        -15    1    4    4    0    0  0.18134185379E+03  0.30883882954E+02 -0.11770426474E+03  0.21838721598E+03  0.00000000000E+00 0. -1.
         15    1    4    4    0    0  0.98062660813E+02  0.52879407597E+00  0.22418451618E+01  0.98089708627E+02  0.00000000000E+00 0.  1.
         15    1    5    5    0    0 -0.28267026307E+02 -0.13299982435E+03 -0.48181128452E+02  0.14425463318E+03  0.00000000000E+00 0.  1.
        -16    1    3    3    0    0 -0.79642523893E+02  0.26213979715E+03 -0.95787115659E+02  0.29023331371E+03  0.00000000000E+00 0.  1.
         16    1    1    2    0    0 -0.34762606380E+03 -0.13538853870E+03 -0.64878816418E+03  0.74839830213E+03  0.00000000000E+00 0. -1.
    9900018    1    1    2    0    0  0.20571387045E+03 -0.22826837192E+02 -0.75171360370E+02  0.23833835781E+03  0.91187600000E+02 0.  0.
<mgrwt>
<rscale>  0 0.14662921E+04</rscale>
<asrwt>0</asrwt>
<pdfrwt beam="1">  1        1 0.21657486E+00 0.14662921E+04</pdfrwt>
<pdfrwt beam="2">  1       -1 0.58741661E-01 0.14662921E+04</pdfrwt>
<totfact> 0.21614062E+01</totfact>
</mgrwt>
</event>
<event>
12    1  0.3065082E-011  0.1251268E+04  0.7818608E-02  0.9069129E-01
         -2   -1    0    0    0  501 -0.00000000000E+00  0.00000000000E+00  0.30608301657E+03  0.30608301657E+03  0.00000000000E+00 0. -1.
          2   -1    0    0  501    0  0.00000000000E+00 -0.00000000000E+00 -0.12787965227E+04  0.12787965227E+04  0.00000000000E+00 0.  1.
    9900016    2    1    2    0    0  0.30247300585E+03 -0.25092838580E+03 -0.57372566244E+03  0.99505119387E+03  0.71169569944E+03 0.  0.
         23    2    3    3    0    0  0.15658674178E+03 -0.17263255504E+03 -0.57861233974E+03  0.63042613399E+03  0.91233020105E+02 0.  0.
         23    2    3    3    0    0 -0.36499338596E+02 -0.69509020824E+02 -0.98987061796E+02  0.15455014522E+03  0.89014624033E+02 0.  0.
        -15    1    5    5    0    0 -0.26582562676E+02 -0.91100702273E+02 -0.80543232530E+02  0.12447161483E+03  0.00000000000E+00 0.  1.
        -15    1    4    4    0    0  0.14406357371E+03 -0.18374207705E+03 -0.53622712097E+03  0.58485467376E+03  0.00000000000E+00 0.  1.
         15    1    4    4    0    0  0.12523168068E+02  0.11109522011E+02 -0.42385218770E+02  0.45571460235E+02  0.00000000000E+00 0. -1.
         15    1    5    5    0    0 -0.99167759199E+01  0.21591681448E+02 -0.18443829266E+02  0.30078530390E+02  0.00000000000E+00 0. -1.
        -16    1    1    2    0    0 -0.60388377592E+02  0.10047628768E+03 -0.43236233429E+02  0.12494643819E+03  0.00000000000E+00 0.  1.
         16    1    3    3    0    0  0.18238560267E+03 -0.87868099372E+01  0.10387373910E+03  0.21007491465E+03  0.00000000000E+00 0. -1.
    9900018    1    1    2    0    0 -0.24208462826E+03  0.15045209812E+03 -0.35575161030E+03  0.46488190726E+03  0.91187600000E+02 0.  0.
<mgrwt>
<rscale>  0 0.12512680E+04</rscale>
<asrwt>0</asrwt>
<pdfrwt beam="1">  1        2 0.19673793E+00 0.12512680E+04</pdfrwt>
<pdfrwt beam="2">  1       -2 0.47089694E-01 0.12512680E+04</pdfrwt>
<totfact> 0.71480169E+01</totfact>
</mgrwt>
</event>
<event>
12    1  0.3065082E-011  0.9924873E+03  0.7818608E-02  0.9316823E-01
         -2   -1    0    0    0  501 -0.00000000000E+00  0.00000000000E+00  0.48728534531E+03  0.48728534531E+03  0.00000000000E+00 0.  1.
          2   -1    0    0  501    0  0.00000000000E+00 -0.00000000000E+00 -0.50536665814E+03  0.50536665814E+03  0.00000000000E+00 0. -1.
    9900016    2    1    2    0    0 -0.31618632854E+02 -0.13089917208E+02 -0.12681446199E+03  0.73152542705E+03  0.71963633787E+03 0.  0.
         23    2    3    3    0    0 -0.33097208016E+03  0.23800645223E+02 -0.41929254070E+02  0.34624536266E+03  0.89547754048E+02 0.  0.
         23    2    3    3    0    0  0.12582860006E+03 -0.57365209239E+02  0.40021154963E+02  0.17049718969E+03  0.91345470745E+02 0.  0.
        -15    1    4    4    0    0 -0.57281614479E+02 -0.30106610449E+02 -0.98785083637E+01  0.65461257836E+02  0.00000000000E+00 0.  1.
        -15    1    5    5    0    0  0.32411627957E+02 -0.40764523910E+02 -0.22645281303E+02  0.56789689221E+02  0.00000000000E+00 0. -1.
         15    1    4    4    0    0 -0.27369046568E+03  0.53907255671E+02 -0.32050745707E+02  0.28078410482E+03  0.00000000000E+00 0. -1.
         15    1    5    5    0    0  0.93416972099E+02 -0.16600685329E+02  0.62666436266E+02  0.11370750047E+03  0.00000000000E+00 0.  1.
        -16    1    1    2    0    0 -0.82958359056E+02  0.31462483653E+02  0.53138726748E+02  0.10342002463E+03  0.00000000000E+00 0.  1.
         16    1    3    3    0    0  0.17352484725E+03  0.20474646809E+02 -0.12490636288E+03  0.21478287470E+03  0.00000000000E+00 0. -1.
    9900018    1    1    2    0    0  0.11457699191E+03 -0.18372566445E+02  0.55594422400E+02  0.15770655176E+03  0.91187600000E+02 0.  0.
<mgrwt>
<rscale>  0 0.99248731E+03</rscale>
<asrwt>0</asrwt>
<pdfrwt beam="1">  1        2 0.77748716E-01 0.99248731E+03</pdfrwt>
<pdfrwt beam="2">  1       -2 0.74966977E-01 0.99248731E+03</pdfrwt>
<totfact> 0.97167517E+01</totfact>
</mgrwt>
</event>
<event>
12    1  0.3065082E-011  0.1011311E+04  0.7818608E-02  0.9296225E-01
         -1   -1    0    0    0  501 -0.00000000000E+00  0.00000000000E+00  0.66439183510E+03  0.66439183510E+03  0.00000000000E+00 0.  1.
          1   -1    0    0  501    0  0.00000000000E+00 -0.00000000000E+00 -0.38484451371E+03  0.38484451371E+03  0.00000000000E+00 0. -1.
    9900016    2    1    2    0    0 -0.94018283701E+02 -0.12044206273E+03  0.33560408647E+03  0.79641464294E+03  0.70590399665E+03 0.  0.
         23    2    3    3    0    0 -0.27585298822E+03 -0.60117348442E+02 -0.56080186890E+02  0.30192922605E+03  0.91144410072E+02 0.  0.
         23    2    3    3    0    0  0.48595122432E+02  0.27486492213E+02  0.49582567585E+02  0.11699744183E+03  0.90072066744E+02 0.  0.
        -15    1    4    4    0    0 -0.21065073505E+03 -0.72361805299E+01 -0.24328271276E+02  0.21217436053E+03  0.00000000000E+00 0. -1.
        -15    1    5    5    0    0  0.60717072832E+01 -0.17964388877E+02 -0.17275326769E+02  0.25651935834E+02  0.00000000000E+00 0. -1.
         15    1    4    4    0    0 -0.65202253172E+02 -0.52881167912E+02 -0.31751915614E+02  0.89754865515E+02  0.00000000000E+00 0.  1.
         15    1    5    5    0    0  0.42523415149E+02  0.45450881090E+02  0.66857894355E+02  0.91345505994E+02  0.00000000000E+00 0.  1.
        -16    1    1    2    0    0  0.49120685164E+02  0.11976223065E+03  0.12762337568E+02  0.13007194494E+03  0.00000000000E+00 0.  1.
         16    1    3    3    0    0  0.13323958208E+03 -0.87811206506E+02  0.34210170577E+03  0.37748797506E+03  0.00000000000E+00 0. -1.
    9900018    1    1    2    0    0  0.44897598537E+02  0.67983208368E+00 -0.68819102641E+02  0.12274976093E+03  0.91187600000E+02 0.  0.
<mgrwt>
<rscale>  0 0.10113111E+04</rscale>
<asrwt>0</asrwt>
<pdfrwt beam="1">  1        1 0.59206848E-01 0.10113111E+04</pdfrwt>
<pdfrwt beam="2">  1       -1 0.10221413E+00 0.10113111E+04</pdfrwt>
<totfact> 0.57386258E+01</totfact>
</mgrwt>
</event>
<event>
12    1  0.3065082E-011  0.1067907E+04  0.7818608E-02  0.9237049E-01
         -2   -1    0    0    0  501 -0.00000000000E+00  0.00000000000E+00  0.40884835179E+03  0.40884835179E+03  0.00000000000E+00 0.  1.
          2   -1    0    0  501    0  0.00000000000E+00 -0.00000000000E+00 -0.69734053173E+03  0.69734053173E+03  0.00000000000E+00 0. -1.
    9900016    2    1    2    0    0  0.17049378321E+03  0.11103807205E+03 -0.26412205546E+03  0.79353891359E+03  0.72010135651E+03 0.  0.
         23    2    3    3    0    0  0.20828484644E+03  0.75236113031E+02 -0.25067802220E+03  0.34642824626E+03  0.90166562692E+02 0.  0.
         23    2    3    3    0    0  0.19600886955E+02  0.16796751589E+02  0.20194215956E+03  0.22340048448E+03  0.91982688740E+02 0.  0.
        -15    1    4    4    0    0  0.69955746304E+02  0.52964031702E+02 -0.15042160553E+03  0.17414262690E+03  0.00000000000E+00 0.  1.
        -15    1    5    5    0    0  0.52319135080E+02 -0.98198422068E+01  0.10694277619E+03  0.11945910838E+03  0.00000000000E+00 0. -1.
         15    1    4    4    0    0  0.13832910014E+03  0.22272081329E+02 -0.10025641668E+03  0.17228561935E+03  0.00000000000E+00 0. -1.
         15    1    5    5    0    0 -0.32718248125E+02  0.26616593795E+02  0.94999383371E+02  0.10394137610E+03  0.00000000000E+00 0.  1.
        -16    1    3    3    0    0 -0.57391950189E+02  0.19005207431E+02 -0.21538619282E+03  0.22371018285E+03  0.00000000000E+00 0.  1.
         16    1    1    2    0    0  0.40830204997E+02 -0.26346249765E+02 -0.45403492624E+02  0.66503440957E+02  0.00000000000E+00 0. -1.
    9900018    1    1    2    0    0 -0.21132398820E+03 -0.84691822286E+02  0.21033368147E+02  0.24614652897E+03  0.91187600000E+02 0.  0.
<mgrwt>
<rscale>  0 0.10679073E+04</rscale>
<asrwt>0</asrwt>
<pdfrwt beam="1">  1        2 0.10728316E+00 0.10679073E+04</pdfrwt>
<pdfrwt beam="2">  1       -2 0.62899747E-01 0.10679073E+04</pdfrwt>
<totfact> 0.95985643E+01</totfact>
</mgrwt>
</event>
<event>
12    1  0.3065082E-011  0.2023446E+04  0.7818608E-02  0.8595737E-01
         -1   -1    0    0    0  501 -0.00000000000E+00  0.00000000000E+00  0.67972501421E+03  0.67972501421E+03  0.00000000000E+00 0.  1.
          1   -1    0    0  501    0  0.00000000000E+00 -0.00000000000E+00 -0.15058784987E+04  0.15058784987E+04  0.00000000000E+00 0. -1.
    9900016    2    1    2    0    0 -0.11292820363E+03  0.36409079369E+03 -0.39729421747E+03  0.89713792300E+03  0.70830704671E+03 0.  0.
         23    2    3    3    0    0  0.11885596049E+03  0.53122341046E+02 -0.12705347493E+01  0.15749692905E+03  0.88628132882E+02 0.  0.
         23    2    3    3    0    0 -0.34022482261E+03  0.31000790451E+03 -0.41856810100E+03  0.62887750781E+03  0.91814126795E+02 0.  0.
        -15    1    5    5    0    0 -0.20732569425E+03  0.24070556620E+03 -0.30938021720E+03  0.44344022358E+03  0.00000000000E+00 0.  1.
        -15    1    4    4    0    0  0.38008379141E+02  0.61973418395E+02 -0.16994465110E+02  0.74660252590E+02  0.00000000000E+00 0. -1.
         15    1    4    4    0    0  0.80847581353E+02 -0.88510773482E+01  0.15723930361E+02  0.82836676459E+02  0.00000000000E+00 0.  1.
         15    1    5    5    0    0 -0.13289912836E+03  0.69302338311E+02 -0.10918788380E+03  0.18543728423E+03  0.00000000000E+00 0. -1.
        -16    1    3    3    0    0  0.10844065848E+03  0.96054812955E+00  0.22544418277E+02  0.11076348613E+03  0.00000000000E+00 0.  1.
         16    1    1    2    0    0  0.13010862456E+03 -0.77856126673E+03 -0.30252283054E+03  0.84534369533E+03  0.00000000000E+00 0. -1.
    9900018    1    1    2    0    0 -0.17180420936E+02  0.41447047304E+03 -0.12633643647E+03  0.44312189458E+03  0.91187600000E+02 0.  0.
<mgrwt>
<rscale>  0 0.20234459E+04</rscale>
<asrwt>0</asrwt>
<pdfrwt beam="1">  1        1 0.23167361E+00 0.20234459E+04</pdfrwt>
<pdfrwt beam="2">  1       -1 0.10457308E+00 0.20234459E+04</pdfrwt>
<totfact> 0.51563451E+00</totfact>
</mgrwt>
</event>
<event>
12    1  0.3065082E-011  0.1587607E+04  0.7818608E-02  0.8828198E-01
          2   -1    0    0  501    0  0.00000000000E+00  0.00000000000E+00  0.18140251948E+04  0.18140251948E+04  0.00000000000E+00 0.  1.
         -2   -1    0    0    0  501 -0.00000000000E+00 -0.00000000000E+00 -0.34736244314E+03  0.34736244314E+03  0.00000000000E+00 0. -1.
    9900016    2    1    2    0    0  0.12146664676E+02 -0.64571301644E+01  0.13046374106E+04  0.14807138988E+04  0.70017543591E+03 0.  0.
         23    2    3    3    0    0  0.40044279814E+02  0.26762886102E+03  0.38262720644E+03  0.47648486863E+03  0.86055210900E+02 0.  0.
         23    2    3    3    0    0 -0.69445952795E+02 -0.45722889325E+02  0.56513721578E+03  0.57851280960E+03  0.91562411718E+02 0.  0.
        -15    1    5    5    0    0 -0.45149368450E+02  0.21554599031E+02  0.28680711872E+03  0.29113809363E+03  0.00000000000E+00 0. -1.
        -15    1    4    4    0    0  0.50381554569E+02  0.10802224758E+03  0.12103858610E+03  0.16987479606E+03  0.00000000000E+00 0. -1.
         15    1    4    4    0    0 -0.10337274755E+02  0.15960661344E+03  0.26158862035E+03  0.30661007257E+03  0.00000000000E+00 0.  1.
         15    1    5    5    0    0 -0.24296584345E+02 -0.67277488357E+02  0.27833009706E+03  0.28737471597E+03  0.00000000000E+00 0.  1.
        -16    1    1    2    0    0 -0.27629320175E+02  0.42611430842E+02  0.41021854154E+03  0.41335017260E+03  0.00000000000E+00 0.  1.
         16    1    3    3    0    0  0.41548337658E+02 -0.22836310186E+03  0.35687298840E+03  0.42571622063E+03  0.00000000000E+00 0. -1.
    9900018    1    1    2    0    0  0.15482655499E+02 -0.36154300677E+02 -0.24819320045E+03  0.26732356653E+03  0.91187600000E+02 0.  0.
<mgrwt>
<rscale>  0 0.15876073E+04</rscale>
<asrwt>0</asrwt>
<pdfrwt beam="1">  1        2 0.27908079E+00 0.15876073E+04</pdfrwt>
<pdfrwt beam="2">  1       -2 0.53440377E-01 0.15876073E+04</pdfrwt>
<totfact> 0.26846816E+01</totfact>
</mgrwt>
</event>
<event>
12    1  0.3065082E-011  0.1188718E+04  0.7818608E-02  0.9122789E-01
         -2   -1    0    0    0  501 -0.00000000000E+00  0.00000000000E+00  0.32854893391E+03  0.32854893391E+03  0.00000000000E+00 0.  1.
          2   -1    0    0  501    0  0.00000000000E+00 -0.00000000000E+00 -0.10752211124E+04  0.10752211124E+04  0.00000000000E+00 0. -1.
    9900016    2    1    2    0    0  0.70900125743E+02 -0.21470698182E+03 -0.37199210213E+03  0.83393433891E+03  0.71129631076E+03 0.  0.
         23    2    3    3    0    0  0.27545689519E+03  0.99411290368E+02 -0.15807642772E+03  0.34467425978E+03  0.89738969220E+02 0.  0.
         23    2    3    3    0    0 -0.18891294036E+03 -0.15368745094E+03 -0.61215475272E+02  0.26722375640E+03  0.91396225086E+02 0.  0.
        -15    1    5    5    0    0 -0.64205319833E+02 -0.10939675694E+03 -0.18664390411E+02  0.12821206259E+03  0.00000000000E+00 0. -1.
        -15    1    4    4    0    0  0.99025375319E+02  0.60766021891E+01 -0.18007558728E+02  0.10083264463E+03  0.00000000000E+00 0.  1.
         15    1    4    4    0    0  0.17643151987E+03  0.93334688179E+02 -0.14006886899E+03  0.24384161515E+03  0.00000000000E+00 0. -1.
         15    1    5    5    0    0 -0.12470762053E+03 -0.44290693991E+02 -0.42551084861E+02  0.13901169381E+03  0.00000000000E+00 0.  1.
        -16    1    1    2    0    0  0.79265616244E+02  0.16192051783E+03 -0.34797894964E+02  0.18360878385E+03  0.00000000000E+00 0.  1.
         16    1    3    3    0    0 -0.15643829083E+02 -0.16043082125E+03 -0.15270019914E+03  0.22203632274E+03  0.00000000000E+00 0. -1.
    9900018    1    1    2    0    0 -0.15016574199E+03  0.52786463997E+02 -0.33988218138E+03  0.38622692353E+03  0.91187600000E+02 0.  0.
<mgrwt>
<rscale>  0 0.11887182E+04</rscale>
<asrwt>0</asrwt>
<pdfrwt beam="1">  1        2 0.16541863E+00 0.11887182E+04</pdfrwt>
<pdfrwt beam="2">  1       -2 0.50545989E-01 0.11887182E+04</pdfrwt>
<totfact> 0.82475611E+01</totfact>
</mgrwt>
</event>
<event>
12    1  0.3065082E-011  0.9430678E+03  0.7818608E-02  0.9373290E-01
         -2   -1    0    0    0  501 -0.00000000000E+00  0.00000000000E+00  0.37591877874E+03  0.37591877874E+03  0.00000000000E+00 0.  1.
          2   -1    0    0  501    0  0.00000000000E+00 -0.00000000000E+00 -0.59146878612E+03  0.59146878612E+03  0.00000000000E+00 0. -1.
    9900016    2    1    2    0    0  0.56670512745E+02  0.41368896823E+02 -0.21808248917E+03  0.75298226203E+03  0.71728612297E+03 0.  0.
         23    2    3    3    0    0  0.10943770845E+03 -0.10849482515E+03 -0.12612450234E+03  0.21815642465E+03  0.89090383383E+02 0.  0.
         23    2    3    3    0    0 -0.84112825944E+02  0.15454043927E+03  0.17532346328E+03  0.26567198956E+03  0.94263324796E+02 0.  0.
        -15    1    5    5    0    0 -0.21761496092E+02  0.12271164019E+03  0.82700892169E+02  0.14956987302E+03  0.00000000000E+00 0. -1.
        -15    1    4    4    0    0  0.37837467567E+02 -0.32727070153E+02 -0.98240787712E+02  0.11024512435E+03  0.00000000000E+00 0. -1.
         15    1    4    4    0    0  0.71600240885E+02 -0.75767754993E+02 -0.27883714632E+02  0.10791130030E+03  0.00000000000E+00 0.  1.
         15    1    5    5    0    0 -0.62351329851E+02  0.31828799082E+02  0.92622571114E+02  0.11610211654E+03  0.00000000000E+00 0.  1.
        -16    1    1    2    0    0 -0.43578523387E+02  0.59585343022E+02  0.20364545612E+02  0.76578166090E+02  0.00000000000E+00 0.  1.
         16    1    3    3    0    0  0.31345630237E+02 -0.46767173025E+01 -0.26728145011E+03  0.26915384781E+03  0.00000000000E+00 0. -1.
    9900018    1    1    2    0    0 -0.13091989358E+02 -0.10095423985E+03 -0.17832063828E+02  0.13782713674E+03  0.91187600000E+02 0.  0.
<mgrwt>
<rscale>  0 0.94306781E+03</rscale>
<asrwt>0</asrwt>
<pdfrwt beam="1">  1        2 0.90995197E-01 0.94306781E+03</pdfrwt>
<pdfrwt beam="2">  1       -2 0.57833659E-01 0.94306781E+03</pdfrwt>
<totfact> 0.14149123E+02</totfact>
</mgrwt>
</event>
<event>
12    1  0.3065082E-011  0.1572159E+04  0.7818608E-02  0.8837836E-01
         -2   -1    0    0    0  501 -0.00000000000E+00  0.00000000000E+00  0.40012399782E+03  0.40012399782E+03  0.00000000000E+00 0. -1.
          2   -1    0    0  501    0  0.00000000000E+00 -0.00000000000E+00 -0.15443246295E+04  0.15443246295E+04  0.00000000000E+00 0.  1.
    9900016    2    1    2    0    0 -0.11050315637E+03  0.69139351257E+02 -0.22241583039E+03  0.75110260327E+03  0.70547510344E+03 0.  0.
         23    2    3    3    0    0 -0.15202899784E+02  0.59980094187E+02  0.14163443484E+03  0.17921999776E+03  0.90723506357E+02 0.  0.
         23    2    3    3    0    0 -0.55228359302E+02  0.66879117852E+02 -0.44751110851E+03  0.46278149808E+03  0.79859468075E+02 0.  0.
        -15    1    5    5    0    0 -0.45905383217E+02 -0.33325630676E+01 -0.20717452582E+03  0.21222557418E+03  0.00000000000E+00 0. -1.
        -15    1    4    4    0    0  0.57444861227E+01  0.62370073639E+02  0.37562586903E+02  0.73034054669E+02  0.00000000000E+00 0.  1.
         15    1    4    4    0    0 -0.20947385906E+02 -0.23899794519E+01  0.10407184793E+03  0.10618594309E+03  0.00000000000E+00 0. -1.
         15    1    5    5    0    0 -0.93229760852E+01  0.70211680920E+02 -0.24033658269E+03  0.25055592390E+03  0.00000000000E+00 0.  1.
        -16    1    1    2    0    0  0.10657357278E+03 -0.28801260011E+03 -0.90491554785E+03  0.95560521816E+03  0.00000000000E+00 0.  1.
         16    1    3    3    0    0 -0.40071897284E+02 -0.57719860783E+02  0.83460843285E+02  0.10910110743E+03  0.00000000000E+00 0. -1.
    9900018    1    1    2    0    0  0.39295835899E+01  0.21887324885E+03 -0.16869253458E+02  0.23774080591E+03  0.91187600000E+02 0.  0.
<mgrwt>
<rscale>  0 0.15721595E+04</rscale>
<asrwt>0</asrwt>
<pdfrwt beam="1">  1        2 0.23758840E+00 0.15721595E+04</pdfrwt>
<pdfrwt beam="2">  1       -2 0.61557538E-01 0.15721595E+04</pdfrwt>
<totfact> 0.28243245E+01</totfact>
</mgrwt>
</event>
<event>
12    1  0.5567901E-011  0.1448863E+04  0.7818608E-02  0.8919189E-01
          2   -1    0    0  501    0  0.00000000000E+00  0.00000000000E+00  0.92113032488E+03  0.92113032488E+03  0.00000000000E+00 0. -1.
         -2   -1    0    0    0  501 -0.00000000000E+00 -0.00000000000E+00 -0.56973619154E+03  0.56973619154E+03  0.00000000000E+00 0.  1.
    9900016    2    1    2    0    0  0.20500559347E+03  0.29825845745E+02  0.25101589930E+03  0.78147835886E+03  0.71048051996E+03 0.  0.
         23    2    3    3    0    0  0.11562136361E+03  0.11517392270E+03 -0.16354897768E+03  0.24921502072E+03  0.93415877982E+02 0.  0.
         23    2    3    3    0    0  0.86374843181E+02 -0.15131192236E+03  0.42228778565E+03  0.46578079436E+03  0.90933289254E+02 0.  0.
        -15    1    4    4    0    0  0.10506287437E+03  0.64442246170E+02 -0.68626622562E+02  0.14106957144E+03  0.00000000000E+00 0. -1.
        -15    1    5    5    0    0 -0.12808536748E+00 -0.63263914230E+02  0.21900248530E+03  0.22795707450E+03  0.00000000000E+00 0.  1.
         15    1    4    4    0    0  0.10558489241E+02  0.50731676528E+02 -0.94922355121E+02  0.10814544928E+03  0.00000000000E+00 0.  1.
         15    1    5    5    0    0  0.86502928548E+02 -0.88048008134E+02  0.20328530036E+03  0.23782371985E+03  0.00000000000E+00 0. -1.
        -16    1    3    3    0    0  0.30093866783E+01  0.65963845411E+02 -0.77229086721E+01  0.66482543784E+02  0.00000000000E+00 0.  1.
         16    1    1    2    0    0  0.12282669032E+03 -0.13106775902E+03  0.26332803014E+03  0.31875822306E+03  0.00000000000E+00 0. -1.
    9900018    1    1    2    0    0 -0.32783228378E+03  0.10124191327E+03 -0.16294979609E+03  0.39062993451E+03  0.91187600000E+02 0.  0.
<mgrwt>
<rscale>  0 0.14488634E+04</rscale>
<asrwt>0</asrwt>
<pdfrwt beam="1">  1        2 0.14171236E+00 0.14488634E+04</pdfrwt>
<pdfrwt beam="2">  1       -2 0.87651722E-01 0.14488634E+04</pdfrwt>
<totfact> 0.30918598E+01</totfact>
</mgrwt>
</event>
<event>
12    1  0.3065082E-011  0.1648945E+04  0.7818608E-02  0.8791031E-01
          2   -1    0    0  501    0  0.00000000000E+00  0.00000000000E+00  0.66608539494E+03  0.66608539494E+03  0.00000000000E+00 0. -1.
         -2   -1    0    0    0  501 -0.00000000000E+00 -0.00000000000E+00 -0.10205217695E+04  0.10205217695E+04  0.00000000000E+00 0.  1.
    9900016    2    1    2    0    0 -0.17918500002E+02 -0.20268474995E+03 -0.13139212245E+03  0.75191452379E+03  0.71183522022E+03 0.  0.
         23    2    3    3    0    0 -0.31682550612E+02 -0.12934253187E+03 -0.37595895689E+03  0.40950247834E+03  0.92810925728E+02 0.  0.
         23    2    3    3    0    0 -0.36976328900E+02 -0.13059768857E+03  0.16556624653E+03  0.23243992214E+03  0.90515911602E+02 0.  0.
        -15    1    5    5    0    0 -0.59087315182E+02 -0.79289622522E+02  0.67998063535E+02  0.12000788182E+03  0.00000000000E+00 0.  1.
        -15    1    4    4    0    0  0.97828817292E+01 -0.26607145364E+02 -0.15305922041E+02  0.32216706984E+02  0.00000000000E+00 0.  1.
         15    1    4    4    0    0 -0.41465432341E+02 -0.10273538651E+03 -0.36065303485E+03  0.37728577136E+03  0.00000000000E+00 0. -1.
         15    1    5    5    0    0  0.22110986282E+02 -0.51308066053E+02  0.97568182992E+02  0.11243204031E+03  0.00000000000E+00 0. -1.
        -16    1    1    2    0    0  0.29663086615E+03  0.96732808446E+02 -0.45102996346E+03  0.54842969916E+03  0.00000000000E+00 0.  1.
         16    1    3    3    0    0  0.50740379510E+02  0.57255470495E+02  0.79000587921E+02  0.10997212331E+03  0.00000000000E+00 0. -1.
    9900018    1    1    2    0    0 -0.27871236615E+03  0.10595194151E+03  0.22798571138E+03  0.38626294145E+03  0.91187600000E+02 0.  0.
<mgrwt>
<rscale>  0 0.16489447E+04</rscale>
<asrwt>0</asrwt>
<pdfrwt beam="1">  1        2 0.10247468E+00 0.16489447E+04</pdfrwt>
<pdfrwt beam="2">  1       -2 0.15700335E+00 0.16489447E+04</pdfrwt>
<totfact> 0.11041270E+01</totfact>
</mgrwt>
</event>
<event>
12    1  0.3065082E-011  0.1543961E+04  0.7818608E-02  0.8855734E-01
          5   -1    0    0  501    0  0.00000000000E+00  0.00000000000E+00  0.15068980253E+04  0.15068980253E+04  0.00000000000E+00 0. -1.
         -5   -1    0    0    0  501 -0.00000000000E+00 -0.00000000000E+00 -0.39548387401E+03  0.39548387401E+03  0.00000000000E+00 0.  1.
    9900016    2    1    2    0    0  0.38078324412E+02  0.12866645320E+03  0.72026261796E+03  0.10034690802E+04  0.68568720355E+03 0.  0.
         23    2    3    3    0    0 -0.73476477882E+02 -0.16913059956E+02  0.98919346725E+02  0.15297483491E+03  0.89058511998E+02 0.  0.
         23    2    3    3    0    0  0.29795862289E+03 -0.43229077235E+02  0.35662526796E+03  0.47570004924E+03  0.91982938751E+02 0.  0.
        -15    1    4    4    0    0 -0.18562816087E+02 -0.46300197248E+02  0.65378231785E+02  0.82235026586E+02  0.00000000000E+00 0.  1.
        -15    1    5    5    0    0  0.20032083041E+03 -0.66843061153E+02  0.20880578556E+03  0.29697859519E+03  0.00000000000E+00 0.  1.
         15    1    4    4    0    0 -0.54913661795E+02  0.29387137291E+02  0.33541114939E+02  0.70739808321E+02  0.00000000000E+00 0. -1.
         15    1    5    5    0    0  0.97637792480E+02  0.23613983918E+02  0.14781948241E+03  0.17872145405E+03  0.00000000000E+00 0. -1.
        -16    1    1    2    0    0 -0.32937888908E+02 -0.28541016112E+03 -0.15286882660E+03  0.32544238007E+03  0.00000000000E+00 0.  1.
         16    1    3    3    0    0 -0.18640382060E+03  0.18880859040E+03  0.26471800327E+03  0.37479419606E+03  0.00000000000E+00 0. -1.
    9900018    1    1    2    0    0 -0.51404355040E+01  0.15674370792E+03  0.54402035997E+03  0.57347043909E+03  0.91187600000E+02 0.  0.
<mgrwt>
<rscale>  0 0.15439610E+04</rscale>
<asrwt>0</asrwt>
<pdfrwt beam="1">  1        5 0.23183046E+00 0.15439610E+04</pdfrwt>
<pdfrwt beam="2">  1       -5 0.60843674E-01 0.15439610E+04</pdfrwt>
<totfact> 0.15962238E-01</totfact>
</mgrwt>
</event>
<event>
12    1  0.3065082E-011  0.1066970E+04  0.7818608E-02  0.9237997E-01
         -2   -1    0    0    0  501 -0.00000000000E+00  0.00000000000E+00  0.90135613083E+03  0.90135613083E+03  0.00000000000E+00 0.  1.
          2   -1    0    0  501    0  0.00000000000E+00 -0.00000000000E+00 -0.31575332630E+03  0.31575332630E+03  0.00000000000E+00 0. -1.
    9900016    2    1    2    0    0  0.74099425933E+02  0.80782953286E+02  0.37783336295E+03  0.81889051051E+03  0.71819705345E+03 0.  0.
         23    2    3    3    0    0  0.21933297793E+03 -0.57421133485E+02  0.37439210943E+03  0.44663484727E+03  0.88933083886E+02 0.  0.
         23    2    3    3    0    0 -0.17049311744E+03  0.13935229194E+03  0.10871573187E+03  0.26398710911E+03  0.96866501203E+02 0.  0.
        -15    1    5    5    0    0 -0.76430181533E+01  0.53792746856E+02  0.10101859780E+02  0.55264119570E+02  0.00000000000E+00 0. -1.
        -15    1    4    4    0    0  0.11548976038E+03 -0.36901003141E+02  0.27874679008E+03  0.30397260035E+03  0.00000000000E+00 0.  1.
         15    1    4    4    0    0  0.10384321755E+03 -0.20520130344E+02  0.95645319356E+02  0.14266224692E+03  0.00000000000E+00 0. -1.
         15    1    5    5    0    0 -0.16285009928E+03  0.85559545084E+02  0.98613872094E+02  0.20872298954E+03  0.00000000000E+00 0.  1.
        -16    1    1    2    0    0 -0.16031812739E+03 -0.16350155339E+02  0.20012636849E+03  0.25694317059E+03  0.00000000000E+00 0.  1.
         16    1    3    3    0    0  0.25259565438E+02 -0.11482051690E+01 -0.10527447836E+03  0.10826855414E+03  0.00000000000E+00 0. -1.
    9900018    1    1    2    0    0  0.86218701452E+02 -0.64432797948E+02  0.76430730831E+01  0.14127577602E+03  0.91187600000E+02 0.  0.
<mgrwt>
<rscale>  0 0.10669699E+04</rscale>
<asrwt>0</asrwt>
<pdfrwt beam="1">  1        2 0.48577435E-01 0.10669699E+04</pdfrwt>
<pdfrwt beam="2">  1       -2 0.13867017E+00 0.10669699E+04</pdfrwt>
<totfact> 0.37943096E+01</totfact>
</mgrwt>
</event>
<event>
12    1  0.3065082E-011  0.1639291E+04  0.7818608E-02  0.8796767E-01
         -2   -1    0    0    0  501 -0.00000000000E+00  0.00000000000E+00  0.50279826589E+03  0.50279826589E+03  0.00000000000E+00 0.  1.
          2   -1    0    0  501    0  0.00000000000E+00 -0.00000000000E+00 -0.13361589491E+04  0.13361589491E+04  0.00000000000E+00 0. -1.
    9900016    2    1    2    0    0  0.31824186371E+03 -0.41783550178E+02 -0.49868081666E+03  0.92517417883E+03  0.71009925742E+03 0.  0.
         23    2    3    3    0    0  0.63321243367E+02  0.27536590535E+02 -0.24865767556E+03  0.27448835285E+03  0.93516696649E+02 0.  0.
         23    2    3    3    0    0  0.25112352149E+03 -0.47884502680E+02 -0.40943031408E+03  0.48979906042E+03  0.83150399028E+02 0.  0.
        -15    1    4    4    0    0  0.68527969804E+02  0.49641897341E+02 -0.14084563413E+03  0.16431035655E+03  0.00000000000E+00 0.  1.
        -15    1    5    5    0    0  0.10473623297E+03  0.93855923183E+01 -0.11359630664E+03  0.15479628136E+03  0.00000000000E+00 0. -1.
         15    1    4    4    0    0 -0.52067264369E+01 -0.22105306806E+02 -0.10781204144E+03  0.11017799630E+03  0.00000000000E+00 0. -1.
         15    1    5    5    0    0  0.14638728852E+03 -0.57270094999E+02 -0.29583400743E+03  0.33500277905E+03  0.00000000000E+00 0.  1.
        -16    1    3    3    0    0  0.37970988489E+01 -0.21435638033E+02  0.15940717298E+03  0.16088676557E+03  0.00000000000E+00 0.  1.
         16    1    1    2    0    0 -0.44074158095E+03 -0.88847231337E+02 -0.48610936396E+03  0.66215503126E+03  0.00000000000E+00 0. -1.
    9900018    1    1    2    0    0  0.12249971724E+03  0.13063078152E+03  0.15142949737E+03  0.25162800494E+03  0.91187600000E+02 0.  0.
<mgrwt>
<rscale>  0 0.16392906E+04</rscale>
<asrwt>0</asrwt>
<pdfrwt beam="1">  1        2 0.20556291E+00 0.16392906E+04</pdfrwt>
<pdfrwt beam="2">  1       -2 0.77353580E-01 0.16392906E+04</pdfrwt>
<totfact> 0.22446170E+01</totfact>
</mgrwt>
</event>
<event>
12    1  0.3065082E-011  0.1449496E+04  0.7818608E-02  0.8918750E-01
         -2   -1    0    0    0  501 -0.00000000000E+00  0.00000000000E+00  0.40978523469E+03  0.40978523469E+03  0.00000000000E+00 0.  1.
          2   -1    0    0  501    0  0.00000000000E+00 -0.00000000000E+00 -0.12817926005E+04  0.12817926005E+04  0.00000000000E+00 0. -1.
    9900016    2    1    2    0    0  0.83803095968E+02 -0.77996248133E+02 -0.35222129125E+03  0.79918014000E+03  0.70818266326E+03 0.  0.
         23    2    3    3    0    0  0.84626902939E+02 -0.19443552722E+03 -0.27416103516E+03  0.35832776530E+03  0.90926493583E+02 0.  0.
         23    2    3    3    0    0  0.19312280280E+03  0.24728465813E+02 -0.74879687385E+01  0.21500594800E+03  0.90904202411E+02 0.  0.
        -15    1    5    5    0    0  0.12167823565E+03  0.45495119921E+02  0.27506483596E+02  0.13278556249E+03  0.00000000000E+00 0.  1.
        -15    1    4    4    0    0 -0.16988471092E+02 -0.22981043658E+02 -0.55757728646E+02  0.62655094138E+02  0.00000000000E+00 0. -1.
         15    1    4    4    0    0  0.10161537403E+03 -0.17145448356E+03 -0.21840330651E+03  0.29567267116E+03  0.00000000000E+00 0.  1.
         15    1    5    5    0    0  0.71444567154E+02 -0.20766654107E+02 -0.34994452334E+02  0.82220385506E+02  0.00000000000E+00 0. -1.
        -16    1    3    3    0    0 -0.19394660977E+03  0.91710813275E+02 -0.70572287350E+02  0.22584642670E+03  0.00000000000E+00 0.  1.
         16    1    1    2    0    0  0.38534277741E+02  0.92605114390E+01 -0.66780456375E+03  0.66897950865E+03  0.00000000000E+00 0. -1.
    9900018    1    1    2    0    0 -0.12233737371E+03  0.68735736694E+02  0.14801848924E+03  0.22341818649E+03  0.91187600000E+02 0.  0.
<mgrwt>
<rscale>  0 0.14494960E+04</rscale>
<asrwt>0</asrwt>
<pdfrwt beam="1">  1        2 0.19719886E+00 0.14494960E+04</pdfrwt>
<pdfrwt beam="2">  1       -2 0.63043882E-01 0.14494960E+04</pdfrwt>
<totfact> 0.38300010E+01</totfact>
</mgrwt>
</event>
<event>
12    1  0.3065082E-011  0.1270384E+04  0.7818608E-02  0.9053386E-01
         -2   -1    0    0    0  501 -0.00000000000E+00  0.00000000000E+00  0.72769104099E+03  0.72769104099E+03  0.00000000000E+00 0.  1.
          2   -1    0    0  501    0  0.00000000000E+00 -0.00000000000E+00 -0.55445113829E+03  0.55445113829E+03  0.00000000000E+00 0. -1.
    9900016    2    1    2    0    0 -0.26883150015E+02  0.38285333849E+03 -0.11349523256E+03  0.76549834494E+03  0.65253901473E+03 0.  0.
         23    2    3    3    0    0  0.20042775753E+01  0.25708072369E+03  0.23534744703E+02  0.27372607307E+03  0.90981114802E+02 0.  0.
         23    2    3    3    0    0  0.15190986305E+03 -0.95859019220E+01  0.64306283939E+02  0.18920677743E+03  0.92170550946E+02 0.  0.
        -15    1    5    5    0    0  0.15091729612E+03  0.15488844584E+02  0.62394569424E+02  0.16403968077E+03  0.00000000000E+00 0.  1.
        -15    1    4    4    0    0  0.34376915071E+02  0.15629897003E+03 -0.15772413032E+02  0.16081016552E+03  0.00000000000E+00 0.  1.
         15    1    4    4    0    0 -0.32372637496E+02  0.10078175366E+03  0.39307157735E+02  0.11291590755E+03  0.00000000000E+00 0. -1.
         15    1    5    5    0    0  0.99256693107E+00 -0.25074746506E+02  0.19117145151E+01  0.25167096651E+02  0.00000000000E+00 0. -1.
        -16    1    1    2    0    0  0.62351678811E+02 -0.24997116373E+03  0.21948855685E+03  0.33845020481E+03  0.00000000000E+00 0.  1.
         16    1    3    3    0    0 -0.18079729064E+03  0.13535851672E+03 -0.20133626120E+03  0.30256549444E+03  0.00000000000E+00 0. -1.
    9900018    1    1    2    0    0 -0.35468528796E+02 -0.13288217475E+03  0.67246578401E+02  0.17819362952E+03  0.91187600000E+02 0.  0.
<mgrwt>
<rscale>  0 0.12703844E+04</rscale>
<asrwt>0</asrwt>
<pdfrwt beam="1">  1        2 0.85300175E-01 0.12703844E+04</pdfrwt>
<pdfrwt beam="2">  1       -2 0.11195247E+00 0.12703844E+04</pdfrwt>
<totfact> 0.33713175E+01</totfact>
</mgrwt>
</event>
<event>
12    1  0.3065082E-011  0.1876809E+04  0.7818608E-02  0.8666487E-01
         -2   -1    0    0    0  501 -0.00000000000E+00  0.00000000000E+00  0.52690355440E+03  0.52690355440E+03  0.00000000000E+00 0.  1.
          2   -1    0    0  501    0  0.00000000000E+00 -0.00000000000E+00 -0.16712797975E+04  0.16712797975E+04  0.00000000000E+00 0. -1.
    9900016    2    1    2    0    0  0.12247425601E+03  0.23588267290E+02 -0.24949512825E+03  0.75468427650E+03  0.70124474218E+03 0.  0.
         23    2    3    3    0    0  0.93945890116E+02  0.77475855629E+02  0.10319474580E+03  0.18424504091E+03  0.92025763051E+02 0.  0.
         23    2    3    3    0    0  0.18121123202E+03 -0.94650364126E+02 -0.47267489007E+02  0.22655481490E+03  0.85420527980E+02 0.  0.
        -15    1    4    4    0    0 -0.40878597331E+01  0.37747412421E+02  0.22573164297E+01  0.38035157673E+02  0.00000000000E+00 0.  1.
        -15    1    5    5    0    0  0.41995492310E+02 -0.57380821217E+02  0.93407237304E+01  0.71717704493E+02  0.00000000000E+00 0. -1.
         15    1    4    4    0    0  0.98033749849E+02  0.39728443208E+02  0.10093742937E+03  0.14620988324E+03  0.00000000000E+00 0. -1.
         15    1    5    5    0    0  0.13921573971E+03 -0.37269542908E+02 -0.56608212738E+02  0.15483711041E+03  0.00000000000E+00 0.  1.
        -16    1    1    2    0    0  0.37183126009E+03 -0.25180119108E+03 -0.75288226514E+02  0.45533574740E+03  0.00000000000E+00 0.  1.
         16    1    3    3    0    0 -0.15268286612E+03  0.40762775787E+02 -0.30542238505E+03  0.34388442068E+03  0.00000000000E+00 0. -1.
    9900018    1    1    2    0    0 -0.49430551610E+03  0.22821292379E+03 -0.81959288836E+03  0.98816332803E+03  0.91187600000E+02 0.  0.
<mgrwt>
<rscale>  0 0.18768093E+04</rscale>
<asrwt>0</asrwt>
<pdfrwt beam="1">  1        2 0.25711997E+00 0.18768093E+04</pdfrwt>
<pdfrwt beam="2">  1       -2 0.81062085E-01 0.18768093E+04</pdfrwt>
<totfact> 0.12809682E+01</totfact>
</mgrwt>
</event>
<event>
12    1  0.3065082E-011  0.1751313E+04  0.7818608E-02  0.8732628E-01
          2   -1    0    0  501    0  0.00000000000E+00  0.00000000000E+00  0.18088904079E+04  0.18088904079E+04  0.00000000000E+00 0. -1.
         -2   -1    0    0    0  501 -0.00000000000E+00 -0.00000000000E+00 -0.42389188069E+03  0.42389188069E+03  0.00000000000E+00 0.  1.
    9900016    2    1    2    0    0 -0.60545186798E+02 -0.24463551049E+02  0.76761098366E+03  0.10405394020E+04  0.69945081311E+03 0.  0.
         23    2    3    3    0    0 -0.38154258843E+02  0.20793300870E+03  0.16144709752E+03  0.28080061832E+03  0.89955202036E+02 0.  0.
         23    2    3    3    0    0 -0.18114602781E+03 -0.39076798569E+02  0.25500578908E+03  0.32859180074E+03  0.92756344646E+02 0.  0.
        -15    1    4    4    0    0  0.17019938894E+02  0.51325299400E+01  0.23235958815E+02  0.29256297879E+02  0.00000000000E+00 0.  1.
        -15    1    5    5    0    0 -0.75390318044E+02 -0.52453892499E+00  0.38687308831E+02  0.84738911136E+02  0.00000000000E+00 0.  1.
         15    1    4    4    0    0 -0.55174197737E+02  0.20280047876E+03  0.13821113871E+03  0.25154432044E+03  0.00000000000E+00 0. -1.
         15    1    5    5    0    0 -0.10575570977E+03 -0.38552259644E+02  0.21631848025E+03  0.24385288961E+03  0.00000000000E+00 0. -1.
        -16    1    1    2    0    0  0.70994262609E+02  0.30866537081E+03 -0.16332495058E+03  0.35635591189E+03  0.00000000000E+00 0.  1.
         16    1    3    3    0    0  0.15875509986E+03 -0.19331976118E+03  0.35115809706E+03  0.43114698297E+03  0.00000000000E+00 0. -1.
    9900018    1    1    2    0    0 -0.10449075810E+02 -0.28420181976E+03  0.78071249411E+03  0.83588697465E+03  0.91187600000E+02 0.  0.
<mgrwt>
<rscale>  0 0.17513126E+04</rscale>
<asrwt>0</asrwt>
<pdfrwt beam="1">  1        2 0.27829083E+00 0.17513126E+04</pdfrwt>
<pdfrwt beam="2">  1       -2 0.65214137E-01 0.17513126E+04</pdfrwt>
<totfact> 0.17525129E+01</totfact>
</mgrwt>
</event>
<event>
12    1  0.3065082E-011  0.1040510E+04  0.7818608E-02  0.9265197E-01
          2   -1    0    0  501    0  0.00000000000E+00  0.00000000000E+00  0.20419100189E+04  0.20419100189E+04  0.00000000000E+00 0. -1.
         -2   -1    0    0    0  501 -0.00000000000E+00 -0.00000000000E+00 -0.13255506354E+03  0.13255506354E+03  0.00000000000E+00 0.  1.
    9900016    2    1    2    0    0  0.76543918369E+01 -0.13311637774E+03  0.11587941698E+04  0.13691732812E+04  0.71697488545E+03 0.  0.
         23    2    3    3    0    0 -0.79226961981E+02 -0.25702245249E+02  0.81969299073E+02  0.14652355089E+03  0.88389298326E+02 0.  0.
         23    2    3    3    0    0  0.14171392342E+03 -0.29729545662E+03  0.44755468688E+03  0.56307221995E+03  0.90981880147E+02 0.  0.
        -15    1    5    5    0    0  0.10004841136E+03 -0.22321843566E+03  0.25903475767E+03  0.35627960974E+03  0.00000000000E+00 0.  1.
        -15    1    4    4    0    0 -0.58848849455E+02  0.29459485697E+01  0.17611890343E+01  0.58948854798E+02  0.00000000000E+00 0. -1.
         15    1    4    4    0    0 -0.20378112526E+02 -0.28648193819E+02  0.80208110038E+02  0.87574696089E+02  0.00000000000E+00 0.  1.
         15    1    5    5    0    0  0.41665512064E+02 -0.74077020958E+02  0.18851992921E+03  0.20679261021E+03  0.00000000000E+00 0. -1.
        -16    1    3    3    0    0 -0.54832569603E+02  0.18988132413E+03  0.62927018386E+03  0.65957751041E+03  0.00000000000E+00 0.  1.
         16    1    1    2    0    0  0.94087182438E+02  0.10696961380E+03  0.48519352473E+03  0.50567544197E+03  0.00000000000E+00 0. -1.
    9900018    1    1    2    0    0 -0.10174157428E+03  0.26146763941E+02  0.26536726078E+03  0.29961635918E+03  0.91187600000E+02 0.  0.
<mgrwt>
<rscale>  0 0.10405105E+04</rscale>
<asrwt>0</asrwt>
<pdfrwt beam="1">  1        2 0.31413998E+00 0.10405105E+04</pdfrwt>
<pdfrwt beam="2">  1       -2 0.20393088E-01 0.10405105E+04</pdfrwt>
<totfact> 0.13073330E+02</totfact>
</mgrwt>
</event>
<event>
12    1  0.3065082E-011  0.1782424E+04  0.7818608E-02  0.8715702E-01
          2   -1    0    0  501    0  0.00000000000E+00  0.00000000000E+00  0.25432595951E+04  0.25432595951E+04  0.00000000000E+00 0. -1.
         -2   -1    0    0    0  501 -0.00000000000E+00 -0.00000000000E+00 -0.31229967386E+03  0.31229967386E+03  0.00000000000E+00 0.  1.
    9900016    2    1    2    0    0 -0.17089642003E+03 -0.21718188457E+03  0.78375070292E+03  0.10950239619E+04  0.71304891520E+03 0.  0.
         23    2    3    3    0    0 -0.59264983091E+01  0.17691901996E+03  0.39707613180E+03  0.44378325546E+03  0.89099160306E+02 0.  0.
         23    2    3    3    0    0 -0.17586009474E+03 -0.12959270770E+03  0.28446577783E+03  0.36746294220E+03  0.79919911944E+02 0.  0.
        -15    1    4    4    0    0  0.19768968639E+02  0.13233913029E+02  0.10800365379E+03  0.11059266615E+03  0.00000000000E+00 0. -1.
        -15    1    5    5    0    0 -0.15818259203E+03 -0.99049190695E+02  0.18871715580E+03  0.26541785827E+03  0.00000000000E+00 0.  1.
         15    1    4    4    0    0 -0.25695466948E+02  0.16368510693E+03  0.28907247801E+03  0.33319058930E+03  0.00000000000E+00 0.  1.
         15    1    5    5    0    0 -0.17677502711E+02 -0.30543517006E+02  0.95748622030E+02  0.10204508393E+03  0.00000000000E+00 0. -1.
        -16    1    1    2    0    0  0.22256371195E+03  0.38955085068E+03  0.14884805360E+04  0.15546249635E+04  0.00000000000E+00 0.  1.
         16    1    3    3    0    0  0.10890173018E+02 -0.26450819683E+03  0.10220879329E+03  0.28377776425E+03  0.00000000000E+00 0. -1.
    9900018    1    1    2    0    0 -0.51667291922E+02 -0.17236896612E+03 -0.41271317636E+02  0.20591034357E+03  0.91187600000E+02 0.  0.
<mgrwt>
<rscale>  0 0.17824244E+04</rscale>
<asrwt>0</asrwt>
<pdfrwt beam="1">  1        2 0.39127069E+00 0.17824244E+04</pdfrwt>
<pdfrwt beam="2">  1       -2 0.48046105E-01 0.17824244E+04</pdfrwt>
<totfact> 0.12764534E+01</totfact>
</mgrwt>
</event>
<event>
12    1  0.3576765E-011  0.2175052E+04  0.7818608E-02  0.8528884E-01
         -2   -1    0    0    0  501 -0.00000000000E+00  0.00000000000E+00  0.34905365922E+03  0.34905365922E+03  0.00000000000E+00 0.  1.
          2   -1    0    0  501    0  0.00000000000E+00 -0.00000000000E+00 -0.33883420123E+04  0.33883420123E+04  0.00000000000E+00 0. -1.
    9900016    2    1    2    0    0  0.29637198254E+03 -0.94712129132E+02 -0.68708293746E+03  0.10382156990E+04  0.71344385571E+03 0.  0.
         23    2    3    3    0    0 -0.46646410989E+02 -0.12807714433E+03 -0.15834405785E+02  0.16469646933E+03  0.91074453308E+02 0.  0.
         23    2    3    3    0    0  0.12201744506E+03 -0.19317142870E+03 -0.26932433032E+03  0.36194983724E+03  0.79174692971E+02 0.  0.
        -15    1    4    4    0    0 -0.17569066430E+02 -0.12685848482E+03 -0.31159224491E+02  0.13180532818E+03  0.00000000000E+00 0.  1.
        -15    1    5    5    0    0  0.62056542271E+02 -0.14143567874E+03 -0.13084405196E+03  0.20242339685E+03  0.00000000000E+00 0.  1.
         15    1    4    4    0    0 -0.29077344559E+02 -0.12186595084E+01  0.15324818706E+02  0.32891141147E+02  0.00000000000E+00 0. -1.
         15    1    5    5    0    0  0.59960902792E+02 -0.51735749962E+02 -0.13848027836E+03  0.15952644039E+03  0.00000000000E+00 0. -1.
        -16    1    3    3    0    0  0.22100094847E+03  0.22653644390E+03 -0.40192420135E+03  0.51156939243E+03  0.00000000000E+00 0.  1.
         16    1    1    2    0    0 -0.56760898009E+03 -0.32396158576E+03 -0.19353428411E+04  0.20427146095E+04  0.00000000000E+00 0. -1.
    9900018    1    1    2    0    0  0.27123699755E+03  0.41867371489E+03 -0.41686257446E+03  0.65646536295E+03  0.91187600000E+02 0.  0.
<mgrwt>
<rscale>  0 0.21750523E+04</rscale>
<asrwt>0</asrwt>
<pdfrwt beam="1">  1        2 0.52128338E+00 0.21750523E+04</pdfrwt>
<pdfrwt beam="2">  1       -2 0.53700563E-01 0.21750523E+04</pdfrwt>
<totfact> 0.29148986E+00</totfact>
</mgrwt>
</event>
<event>
12    1  0.3065082E-011  0.1383484E+04  0.7818608E-02  0.8965861E-01
         -1   -1    0    0    0  501 -0.00000000000E+00  0.00000000000E+00  0.56634381077E+03  0.56634381077E+03  0.00000000000E+00 0.  1.
          1   -1    0    0  501    0  0.00000000000E+00 -0.00000000000E+00 -0.84490576912E+03  0.84490576912E+03  0.00000000000E+00 0. -1.
    9900016    2    1    2    0    0  0.26063126791E+03 -0.19988265115E+03  0.63343365181E+02  0.78802895433E+03  0.71350929840E+03 0.  0.
         23    2    3    3    0    0  0.55508823246E+02  0.74996031002E+02 -0.40119801814E+02  0.13710256213E+03  0.92097122213E+02 0.  0.
         23    2    3    3    0    0  0.81073180899E+02 -0.22123603957E+03 -0.19767295199E+03  0.32085258969E+03  0.91397716041E+02 0.  0.
        -15    1    4    4    0    0 -0.88861564357E+01  0.38951279572E+02 -0.48494629377E+02  0.62832277015E+02  0.00000000000E+00 0.  1.
        -15    1    5    5    0    0  0.84804489928E+02 -0.11080549597E+03 -0.86833542796E+02  0.16434635257E+03  0.00000000000E+00 0. -1.
         15    1    4    4    0    0  0.64394979682E+02  0.36044751431E+02  0.83748275630E+01  0.74270285112E+02  0.00000000000E+00 0. -1.
         15    1    5    5    0    0 -0.37313090290E+01 -0.11043054359E+03 -0.11083940920E+03  0.15650623712E+03  0.00000000000E+00 0.  1.
        -16    1    3    3    0    0  0.12404926376E+03 -0.53642642586E+02  0.30113611899E+03  0.33007380251E+03  0.00000000000E+00 0.  1.
         16    1    1    2    0    0 -0.22454325134E+02  0.17727977006E+03 -0.31966427509E+03  0.36622064710E+03  0.00000000000E+00 0. -1.
    9900018    1    1    2    0    0 -0.23817694278E+03  0.22602881091E+02 -0.22241048442E+02  0.25699997847E+03  0.91187600000E+02 0.  0.
<mgrwt>
<rscale>  0 0.13834842E+04</rscale>
<asrwt>0</asrwt>
<pdfrwt beam="1">  1        1 0.12998550E+00 0.13834842E+04</pdfrwt>
<pdfrwt beam="2">  1       -1 0.87129817E-01 0.13834842E+04</pdfrwt>
<totfact> 0.25627244E+01</totfact>
</mgrwt>
</event>
<event>
12    1  0.3065082E-011  0.2112271E+04  0.7818608E-02  0.8555857E-01
         -1   -1    0    0    0  501 -0.00000000000E+00  0.00000000000E+00  0.67485839386E+03  0.67485839386E+03  0.00000000000E+00 0.  1.
          1   -1    0    0  501    0  0.00000000000E+00 -0.00000000000E+00 -0.16528248068E+04  0.16528248068E+04  0.00000000000E+00 0. -1.
    9900016    2    1    2    0    0 -0.93971022299E+02  0.39180185088E+03 -0.82772541928E+03  0.11741695762E+04  0.72883851466E+03 0.  0.
         23    2    3    3    0    0 -0.14026244182E+03  0.78939147385E+02  0.49756816775E+02  0.19136368609E+03  0.90771019406E+02 0.  0.
         23    2    3    3    0    0 -0.72202056130E+02  0.28919106852E+03 -0.51606153691E+03  0.60172063471E+03  0.83087913334E+02 0.  0.
        -15    1    5    5    0    0 -0.14980476126E+02  0.18854424787E+03 -0.36807543321E+03  0.41382710472E+03  0.00000000000E+00 0.  1.
        -15    1    4    4    0    0 -0.75483468089E+02  0.59052568920E+02 -0.15739053542E+02  0.97121973091E+02  0.00000000000E+00 0.  1.
         15    1    4    4    0    0 -0.64778973728E+02  0.19886578465E+02  0.65495870317E+02  0.94241712999E+02  0.00000000000E+00 0. -1.
         15    1    5    5    0    0 -0.57221580003E+02  0.10064682064E+03 -0.14798610370E+03  0.18789352999E+03  0.00000000000E+00 0. -1.
        -16    1    1    2    0    0  0.86959722152E+02 -0.43233113510E+03  0.39932198091E+03  0.59492037122E+03  0.00000000000E+00 0.  1.
         16    1    3    3    0    0  0.11849347565E+03  0.23671634985E+02 -0.36142069914E+03  0.38108525535E+03  0.00000000000E+00 0. -1.
    9900018    1    1    2    0    0  0.70113001464E+01  0.40529284211E+02 -0.54956297460E+03  0.55859325332E+03  0.91187600000E+02 0.  0.
<mgrwt>
<rscale>  0 0.21122715E+04</rscale>
<asrwt>0</asrwt>
<pdfrwt beam="1">  1        1 0.25428074E+00 0.21122715E+04</pdfrwt>
<pdfrwt beam="2">  1       -1 0.10382437E+00 0.21122715E+04</pdfrwt>
<totfact> 0.41214111E+00</totfact>
</mgrwt>
</event>
<event>
12    1  0.3065082E-011  0.1520715E+04  0.7818608E-02  0.8870793E-01
          2   -1    0    0  501    0  0.00000000000E+00  0.00000000000E+00  0.13706129555E+04  0.13706129555E+04  0.00000000000E+00 0. -1.
         -2   -1    0    0    0  501 -0.00000000000E+00 -0.00000000000E+00 -0.42181403408E+03  0.42181403408E+03  0.00000000000E+00 0.  1.
    9900016    2    1    2    0    0  0.17198523614E+03  0.12059151140E+03  0.66318827072E+03  0.10005831145E+04  0.71918471383E+03 0.  0.
         23    2    3    3    0    0  0.10068923544E+03  0.25008134159E+03  0.31473927381E+03  0.42345430654E+03  0.87027235373E+02 0.  0.
         23    2    3    3    0    0 -0.10263494025E+03 -0.21715434939E+03  0.14370145149E+03  0.29453617276E+03  0.91714270871E+02 0.  0.
        -15    1    4    4    0    0  0.21816289723E+01  0.10996643156E+03  0.98902085415E+02  0.14791550992E+03  0.00000000000E+00 0.  1.
        -15    1    5    5    0    0 -0.84162383659E+02 -0.16402523422E+03  0.60355943964E+02  0.19398562899E+03  0.00000000000E+00 0.  1.
         15    1    4    4    0    0  0.98507606470E+02  0.14011491003E+03  0.21583718840E+03  0.27553879662E+03  0.00000000000E+00 0. -1.
         15    1    5    5    0    0 -0.18472556588E+02 -0.53129115173E+02  0.83345507529E+02  0.10055054376E+03  0.00000000000E+00 0. -1.
        -16    1    1    2    0    0 -0.21632201950E+03 -0.19982703978E+03 -0.15502362841E+03  0.33280382707E+03  0.00000000000E+00 0.  1.
         16    1    3    3    0    0  0.17393094095E+03  0.87664519194E+02  0.20474754542E+03  0.28259263525E+03  0.00000000000E+00 0. -1.
    9900018    1    1    2    0    0  0.44336783356E+02  0.79235528382E+02  0.44063427916E+03  0.45904004801E+03  0.91187600000E+02 0.  0.
<mgrwt>
<rscale>  0 0.15207153E+04</rscale>
<asrwt>0</asrwt>
<pdfrwt beam="1">  1        2 0.21086353E+00 0.15207153E+04</pdfrwt>
<pdfrwt beam="2">  1       -2 0.64894468E-01 0.15207153E+04</pdfrwt>
<totfact> 0.31793451E+01</totfact>
</mgrwt>
</event>
<event>
12    1  0.3065082E-011  0.9455619E+03  0.7818608E-02  0.9370353E-01
         -1   -1    0    0    0  501 -0.00000000000E+00  0.00000000000E+00  0.23676470514E+03  0.23676470514E+03  0.00000000000E+00 0.  1.
          1   -1    0    0  501    0  0.00000000000E+00 -0.00000000000E+00 -0.94406727787E+03  0.94406727787E+03  0.00000000000E+00 0. -1.
    9900016    2    1    2    0    0 -0.14756159056E+03  0.46196603941E+02 -0.62898175471E+03  0.95567365466E+03  0.70269875283E+03 0.  0.
         23    2    3    3    0    0 -0.24372214521E+03  0.92458229353E+02 -0.25363271135E+03  0.37472391771E+03  0.90218922603E+02 0.  0.
         23    2    3    3    0    0  0.82210187014E+02  0.15718201493E+03 -0.30727999097E+03  0.36596759014E+03  0.89702750898E+02 0.  0.
        -15    1    5    5    0    0  0.25677365904E+02  0.55863485163E+01 -0.97868944999E+02  0.10133540746E+03  0.00000000000E+00 0.  1.
        -15    1    4    4    0    0 -0.20147515999E+03  0.37163365412E+02 -0.20501781648E+03  0.28983730074E+03  0.00000000000E+00 0.  1.
         15    1    4    4    0    0 -0.42246985218E+02  0.55294863940E+02 -0.48614894870E+02  0.84886616975E+02  0.00000000000E+00 0. -1.
         15    1    5    5    0    0  0.56532821110E+02  0.15159566641E+03 -0.20941104597E+03  0.26463218268E+03  0.00000000000E+00 0. -1.
        -16    1    1    2    0    0  0.75451611496E+02 -0.29259026617E+02  0.50767655641E+01  0.81085201267E+02  0.00000000000E+00 0.  1.
         16    1    3    3    0    0  0.13950367635E+02 -0.20344364034E+03 -0.68069052384E+02  0.21498214681E+03  0.00000000000E+00 0. -1.
    9900018    1    1    2    0    0  0.72109979067E+02 -0.16937577324E+02 -0.83397583578E+02  0.14407312708E+03  0.91187600000E+02 0.  0.
<mgrwt>
<rscale>  0 0.94556187E+03</rscale>
<asrwt>0</asrwt>
<pdfrwt beam="1">  1        1 0.14524112E+00 0.94556187E+03</pdfrwt>
<pdfrwt beam="2">  1       -1 0.36425340E-01 0.94556187E+03</pdfrwt>
<totfact> 0.12154037E+02</totfact>
</mgrwt>
</event>
<event>
12    1  0.3065082E-011  0.1925975E+04  0.7818608E-02  0.8642034E-01
         -2   -1    0    0    0  501 -0.00000000000E+00  0.00000000000E+00  0.43529863546E+03  0.43529863546E+03  0.00000000000E+00 0.  1.
          2   -1    0    0  501    0  0.00000000000E+00 -0.00000000000E+00 -0.21303642785E+04  0.21303642785E+04  0.00000000000E+00 0. -1.
    9900016    2    1    2    0    0  0.60462463655E+03 -0.22031436953E+03 -0.67317937871E+03  0.11561189534E+04  0.68507750354E+03 0.  0.
         23    2    3    3    0    0  0.11512731899E+03 -0.36556754201E+03 -0.32402355388E+03  0.51014845456E+03  0.91467233860E+02 0.  0.
         23    2    3    3    0    0  0.39806016672E+03  0.68200360487E+02 -0.32024948645E+03  0.52295235059E+03  0.88409512611E+02 0.  0.
        -15    1    4    4    0    0  0.10990282250E+03 -0.22935756926E+03 -0.24197876174E+03  0.35105162883E+03  0.00000000000E+00 0.  1.
        -15    1    5    5    0    0  0.36645165195E+02 -0.17977368496E+02 -0.21132130657E+02  0.45963255502E+02  0.00000000000E+00 0.  1.
         15    1    4    4    0    0  0.52244964915E+01 -0.13620997275E+03 -0.82044792143E+02  0.15909682573E+03  0.00000000000E+00 0. -1.
         15    1    5    5    0    0  0.36141500152E+03  0.86177728983E+02 -0.29911735579E+03  0.47698909509E+03  0.00000000000E+00 0. -1.
        -16    1    1    2    0    0 -0.13392842247E+03  0.41982548129E+03 -0.36513444207E+03  0.57228788024E+03  0.00000000000E+00 0.  1.
         16    1    3    3    0    0  0.91437150839E+02  0.77052811996E+02 -0.28906338377E+02  0.12301814821E+03  0.00000000000E+00 0. -1.
    9900018    1    1    2    0    0 -0.47069621408E+03 -0.19951111176E+03 -0.65675182229E+03  0.83725608039E+03  0.91187600000E+02 0.  0.
<mgrwt>
<rscale>  0 0.19259747E+04</rscale>
<asrwt>0</asrwt>
<pdfrwt beam="1">  1        2 0.32774835E+00 0.19259747E+04</pdfrwt>
<pdfrwt beam="2">  1       -2 0.66969021E-01 0.19259747E+04</pdfrwt>
<totfact> 0.10809813E+01</totfact>
</mgrwt>
</event>
<event>
12    1  0.3065082E-011  0.1661258E+04  0.7818608E-02  0.8783774E-01
         -1   -1    0    0    0  501 -0.00000000000E+00  0.00000000000E+00  0.42466219351E+03  0.42466219351E+03  0.00000000000E+00 0.  1.
          1   -1    0    0  501    0  0.00000000000E+00 -0.00000000000E+00 -0.16246894364E+04  0.16246894364E+04  0.00000000000E+00 0. -1.
    9900016    2    1    2    0    0 -0.10631267454E+02  0.23203916203E+03 -0.58130436823E+03  0.94768641861E+03  0.71150515312E+03 0.  0.
         23    2    3    3    0    0  0.19914088880E+03  0.14357318965E+03 -0.13094172755E+03  0.29309498174E+03  0.92133478889E+02 0.  0.
         23    2    3    3    0    0 -0.55167553196E+02  0.11182485606E+03  0.25057276157E+02  0.15411934167E+03  0.87043937357E+02 0.  0.
        -15    1    5    5    0    0  0.15490449981E+02  0.59769355209E+02 -0.34561453673E+01  0.61840721240E+02  0.00000000000E+00 0.  1.
        -15    1    4    4    0    0  0.76200884093E+02  0.11156229599E+03 -0.63923027953E+02  0.14946194876E+03  0.00000000000E+00 0.  1.
         15    1    4    4    0    0  0.12294000470E+03  0.32010893662E+02 -0.67018699593E+02  0.14363303299E+03  0.00000000000E+00 0. -1.
         15    1    5    5    0    0 -0.70658003177E+02  0.52055500852E+02  0.28513421524E+02  0.92278620432E+02  0.00000000000E+00 0. -1.
        -16    1    1    2    0    0  0.13176044510E+03  0.12807871871E+03  0.15140009520E+03  0.23809023900E+03  0.00000000000E+00 0.  1.
         16    1    3    3    0    0 -0.15460460306E+03 -0.23358883680E+02 -0.47541991684E+03  0.50047209519E+03  0.00000000000E+00 0. -1.
    9900018    1    1    2    0    0 -0.12112917764E+03 -0.36011788074E+03 -0.77012296988E+03  0.86357497233E+03  0.91187600000E+02 0.  0.
<mgrwt>
<rscale>  0 0.16612576E+04</rscale>
<asrwt>0</asrwt>
<pdfrwt beam="1">  1        1 0.24995222E+00 0.16612576E+04</pdfrwt>
<pdfrwt beam="2">  1       -1 0.65332646E-01 0.16612576E+04</pdfrwt>
<totfact> 0.12167792E+01</totfact>
</mgrwt>
</event>
<event>
12    1  0.3065082E-011  0.1576246E+04  0.7818608E-02  0.8835275E-01
          1   -1    0    0  501    0  0.00000000000E+00  0.00000000000E+00  0.97325222787E+03  0.97325222787E+03  0.00000000000E+00 0. -1.
         -1   -1    0    0    0  501 -0.00000000000E+00 -0.00000000000E+00 -0.63820854095E+03  0.63820854095E+03  0.00000000000E+00 0.  1.
    9900016    2    1    2    0    0 -0.24399647117E+03  0.18314643254E+01  0.16660626913E+03  0.77129613766E+03  0.71246224521E+03 0.  0.
         23    2    3    3    0    0 -0.13469786080E+03  0.12120790544E+03 -0.84279693277E+02  0.22040388312E+03  0.92951250400E+02 0.  0.
         23    2    3    3    0    0 -0.33956792897E+02  0.13170060460E+03 -0.29708863050E+02  0.16690068117E+03  0.92060348664E+02 0.  0.
        -15    1    5    5    0    0 -0.59205566821E+02  0.46453150769E+02 -0.16100673293E+02  0.76957300104E+02  0.00000000000E+00 0. -1.
        -15    1    4    4    0    0 -0.10659848706E+03  0.33810628542E+02 -0.47752741097E+02  0.12160065924E+03  0.00000000000E+00 0. -1.
         15    1    4    4    0    0 -0.28099373741E+02  0.87397276896E+02 -0.36526952179E+02  0.98803223879E+02  0.00000000000E+00 0.  1.
         15    1    5    5    0    0  0.25248773923E+02  0.85247453833E+02 -0.13608189757E+02  0.89943381069E+02  0.00000000000E+00 0.  1.
        -16    1    3    3    0    0 -0.75341817476E+02 -0.25107704571E+03  0.28059482545E+03  0.38399157337E+03  0.00000000000E+00 0.  1.
         16    1    1    2    0    0  0.42367877723E+02 -0.33861150840E+03  0.25745141221E+03  0.42747399960E+03  0.00000000000E+00 0. -1.
    9900018    1    1    2    0    0  0.20162859345E+03  0.33678004408E+03 -0.89013994416E+02  0.41269063156E+03  0.91187600000E+02 0.  0.
<mgrwt>
<rscale>  0 0.15762460E+04</rscale>
<asrwt>0</asrwt>
<pdfrwt beam="1">  1        1 0.14973111E+00 0.15762460E+04</pdfrwt>
<pdfrwt beam="2">  1       -1 0.98185930E-01 0.15762460E+04</pdfrwt>
<totfact> 0.15178690E+01</totfact>
</mgrwt>
</event>
<event>
12    1  0.3065082E-011  0.3322981E+04  0.7818608E-02  0.8157072E-01
          1   -1    0    0  501    0  0.00000000000E+00  0.00000000000E+00  0.29723439826E+04  0.29723439826E+04  0.00000000000E+00 0. -1.
         -1   -1    0    0    0  501 -0.00000000000E+00 -0.00000000000E+00 -0.92874537114E+03  0.92874537114E+03  0.00000000000E+00 0.  1.
    9900016    2    1    2    0    0  0.64555668715E+03 -0.19210753190E+03  0.91107026415E+03  0.13356923476E+04  0.70737280199E+03 0.  0.
         23    2    3    3    0    0  0.23868533538E+03 -0.21395996723E+03  0.18990007835E+02  0.33350125760E+03  0.90071702075E+02 0.  0.
         23    2    3    3    0    0  0.23674160992E+03 -0.39053383169E+02  0.37483652550E+03  0.45429080264E+03  0.91137017236E+02 0.  0.
        -15    1    5    5    0    0  0.12767109701E+03 -0.57711173295E+02  0.16031650784E+03  0.21291282540E+03  0.00000000000E+00 0.  1.
        -15    1    4    4    0    0  0.59267534138E+02 -0.80271508660E+02  0.42633704232E+02  0.10850708936E+03  0.00000000000E+00 0.  1.
         15    1    4    4    0    0  0.17941780125E+03 -0.13368845857E+03 -0.23643696398E+02  0.22499416823E+03  0.00000000000E+00 0. -1.
         15    1    5    5    0    0  0.10907051291E+03  0.18657790125E+02  0.21452001766E+03  0.24137797724E+03  0.00000000000E+00 0. -1.
        -16    1    1    2    0    0 -0.21058461114E+03 -0.56457026269E+03 -0.45257251243E+03  0.75359627053E+03  0.00000000000E+00 0.  1.
         16    1    3    3    0    0  0.17012974184E+03  0.60905818499E+02  0.51724373082E+03  0.54790028733E+03  0.00000000000E+00 0. -1.
    9900018    1    1    2    0    0 -0.43497207601E+03  0.75667779459E+03  0.15851008597E+04  0.18118007356E+04  0.91187600000E+02 0.  0.
<mgrwt>
<rscale>  0 0.33229810E+04</rscale>
<asrwt>0</asrwt>
<pdfrwt beam="1">  1        1 0.45728369E+00 0.33229810E+04</pdfrwt>
<pdfrwt beam="2">  1       -1 0.14288390E+00 0.33229810E+04</pdfrwt>
<totfact> 0.20580665E-01</totfact>
</mgrwt>
</event>
<event>
12    1  0.3065082E-011  0.1752874E+04  0.7818608E-02  0.8731770E-01
         -2   -1    0    0    0  501 -0.00000000000E+00  0.00000000000E+00  0.85762297788E+03  0.85762297788E+03  0.00000000000E+00 0.  1.
          2   -1    0    0  501    0  0.00000000000E+00 -0.00000000000E+00 -0.89566405522E+03  0.89566405522E+03  0.00000000000E+00 0. -1.
    9900016    2    1    2    0    0  0.67714704941E+02  0.13941134623E+03  0.46189539000E+03  0.86563718213E+03  0.71551350445E+03 0.  0.
         23    2    3    3    0    0  0.89405863207E+02 -0.16757304016E+03  0.18270077550E+02  0.21098176002E+03  0.90029857065E+02 0.  0.
         23    2    3    3    0    0 -0.72013965462E+02 -0.98578666397E+01  0.12383795868E+02  0.11716993965E+03  0.91061779039E+02 0.  0.
        -15    1    4    4    0    0  0.59563676911E+02 -0.69817702898E+02  0.49286225744E+02  0.10417041467E+03  0.00000000000E+00 0. -1.
        -15    1    5    5    0    0 -0.22995655623E+02 -0.45039041739E+02  0.23590011047E+02  0.55801470227E+02  0.00000000000E+00 0. -1.
         15    1    4    4    0    0  0.29842186296E+02 -0.97755337259E+02 -0.31016148193E+02  0.10681134534E+03  0.00000000000E+00 0.  1.
         15    1    5    5    0    0 -0.49018309840E+02  0.35181175100E+02 -0.11206215179E+02  0.61368469425E+02  0.00000000000E+00 0.  1.
        -16    1    3    3    0    0  0.50322807196E+02  0.31684225303E+03  0.43124151658E+03  0.53748548246E+03  0.00000000000E+00 0.  1.
         16    1    1    2    0    0 -0.21027908235E+03  0.17845678735E+03 -0.44476724215E+03  0.52333738364E+03  0.00000000000E+00 0. -1.
    9900018    1    1    2    0    0  0.14256437741E+03 -0.31786813359E+03 -0.55169225185E+02  0.36431246734E+03  0.91187600000E+02 0.  0.
<mgrwt>
<rscale>  0 0.17528743E+04</rscale>
<asrwt>0</asrwt>
<pdfrwt beam="1">  1        2 0.13779447E+00 0.17528743E+04</pdfrwt>
<pdfrwt beam="2">  1       -2 0.13194200E+00 0.17528743E+04</pdfrwt>
<totfact> 0.11699054E+01</totfact>
</mgrwt>
</event>
<event>
12    1  0.3065082E-011  0.1235010E+04  0.7818608E-02  0.9082752E-01
          3   -1    0    0  501    0  0.00000000000E+00  0.00000000000E+00  0.17939283167E+03  0.17939283167E+03  0.00000000000E+00 0. -1.
         -3   -1    0    0    0  501 -0.00000000000E+00 -0.00000000000E+00 -0.21255730244E+04  0.21255730244E+04  0.00000000000E+00 0.  1.
    9900016    2    1    2    0    0  0.20988854401E+03  0.47992227884E+02 -0.15397756494E+04  0.17153364076E+04  0.72464714581E+03 0.  0.
         23    2    3    3    0    0 -0.35532952461E+02 -0.22287524568E+03 -0.24867302033E+03  0.34726431414E+03  0.88420964636E+02 0.  0.
         23    2    3    3    0    0  0.56344340334E+02  0.40156015427E+02 -0.14834948070E+03  0.18702903498E+03  0.90471549336E+02 0.  0.
        -15    1    5    5    0    0  0.65371897285E+02 -0.24911839694E+01 -0.11436980518E+03  0.13175789650E+03  0.00000000000E+00 0. -1.
        -15    1    4    4    0    0 -0.62156979457E+02 -0.17881878386E+03 -0.17817564880E+03  0.25997347823E+03  0.00000000000E+00 0. -1.
         15    1    4    4    0    0  0.26624026996E+02 -0.44056461820E+02 -0.70497371529E+02  0.87290835911E+02  0.00000000000E+00 0.  1.
         15    1    5    5    0    0 -0.90275569504E+01  0.42647199396E+02 -0.33979675516E+02  0.55271138481E+02  0.00000000000E+00 0.  1.
        -16    1    3    3    0    0  0.18907715614E+03  0.23071145814E+03 -0.11427531484E+04  0.11810430585E+04  0.00000000000E+00 0.  1.
         16    1    1    2    0    0  0.25471591527E+02 -0.13728161135E+03 -0.22980498151E+03  0.26889658294E+03  0.00000000000E+00 0. -1.
    9900018    1    1    2    0    0 -0.23536013554E+03  0.89289383464E+02 -0.17659956182E+03  0.32073286553E+03  0.91187600000E+02 0.  0.
<mgrwt>
<rscale>  0 0.12350102E+04</rscale>
<asrwt>0</asrwt>
<pdfrwt beam="1">  1        3 0.27598896E-01 0.12350102E+04</pdfrwt>
<pdfrwt beam="2">  1       -3 0.32701125E+00 0.12350102E+04</pdfrwt>
<totfact> 0.89013485E-01</totfact>
</mgrwt>
</event>
<event>
12    1  0.3065082E-011  0.1280537E+04  0.7818608E-02  0.9045143E-01
          1   -1    0    0  501    0  0.00000000000E+00  0.00000000000E+00  0.83565824377E+03  0.83565824377E+03  0.00000000000E+00 0. -1.
         -1   -1    0    0    0  501 -0.00000000000E+00 -0.00000000000E+00 -0.49056402422E+03  0.49056402422E+03  0.00000000000E+00 0.  1.
    9900016    2    1    2    0    0 -0.79917454260E+02 -0.22575429990E+03  0.19595556934E+03  0.78044572640E+03  0.71648108369E+03 0.  0.
         23    2    3    3    0    0  0.21637477424E+03  0.50082461103E+02  0.20930535801E+03  0.31865885518E+03  0.91697531361E+02 0.  0.
         23    2    3    3    0    0 -0.16518572697E+03 -0.43289269475E+02  0.91154382254E+01  0.19388402133E+03  0.91365405197E+02 0.  0.
        -15    1    5    5    0    0 -0.28683633989E+02  0.10515525575E+02 -0.29178260108E+02  0.42245686169E+02  0.00000000000E+00 0. -1.
        -15    1    4    4    0    0  0.10006777044E+03  0.21968792626E+02  0.37096920162E+02  0.10896039655E+03  0.00000000000E+00 0.  1.
         15    1    4    4    0    0  0.11630700380E+03  0.28113668478E+02  0.17220843785E+03  0.20969845864E+03  0.00000000000E+00 0. -1.
         15    1    5    5    0    0 -0.13650209298E+03 -0.53804795050E+02  0.38293698333E+02  0.15163833516E+03  0.00000000000E+00 0.  1.
        -16    1    1    2    0    0  0.24255232658E+03  0.77170178246E+02 -0.17130466382E+02  0.25510844835E+03  0.00000000000E+00 0.  1.
         16    1    3    3    0    0 -0.13110650153E+03 -0.23254749153E+03 -0.22465226896E+02  0.26790284988E+03  0.00000000000E+00 0. -1.
    9900018    1    1    2    0    0 -0.16263487232E+03  0.14858412165E+03  0.16626911659E+03  0.29066809324E+03  0.91187600000E+02 0.  0.
<mgrwt>
<rscale>  0 0.12805372E+04</rscale>
<asrwt>0</asrwt>
<pdfrwt beam="1">  1        1 0.12856281E+00 0.12805372E+04</pdfrwt>
<pdfrwt beam="2">  1       -1 0.75471388E-01 0.12805372E+04</pdfrwt>
<totfact> 0.35774080E+01</totfact>
</mgrwt>
</event>
<event>
12    1  0.3065082E-011  0.1803383E+04  0.7818608E-02  0.8704503E-01
          2   -1    0    0  501    0  0.00000000000E+00  0.00000000000E+00  0.25304781643E+04  0.25304781643E+04  0.00000000000E+00 0. -1.
         -2   -1    0    0    0  501 -0.00000000000E+00 -0.00000000000E+00 -0.32130187532E+03  0.32130187532E+03  0.00000000000E+00 0.  1.
    9900016    2    1    2    0    0 -0.14035248524E+03 -0.15822623538E+03  0.27351768457E+03  0.78547472221E+03  0.70528310186E+03 0.  0.
         23    2    3    3    0    0 -0.67199403338E+02 -0.97542723091E+02  0.31563586428E+03  0.34956258463E+03  0.92399454110E+02 0.  0.
         23    2    3    3    0    0 -0.19660734001E+03 -0.58215361845E+02 -0.15025737187E+03  0.27177460228E+03  0.96128466872E+02 0.  0.
        -15    1    5    5    0    0 -0.12928012859E+03 -0.58464426504E+02 -0.48864822110E+02  0.15006402518E+03  0.00000000000E+00 0.  1.
        -15    1    4    4    0    0  0.28934979805E+01  0.15182477953E+02  0.54168142700E+02  0.56329988912E+02  0.00000000000E+00 0.  1.
         15    1    4    4    0    0 -0.70092901319E+02 -0.11272520104E+03  0.26146772158E+03  0.29323259572E+03  0.00000000000E+00 0. -1.
         15    1    5    5    0    0 -0.67327211421E+02  0.24906465897E+00 -0.10139254976E+03  0.12171057710E+03  0.00000000000E+00 0. -1.
        -16    1    1    2    0    0  0.13573603309E+03  0.53942980492E+02  0.19214275116E+04  0.19269711462E+04  0.00000000000E+00 0.  1.
         16    1    3    3    0    0  0.12345425811E+03 -0.24681504478E+01  0.10813919216E+03  0.16413753529E+03  0.00000000000E+00 0. -1.
    9900018    1    1    2    0    0  0.46164521473E+01  0.10428325489E+03  0.14231092816E+02  0.13933417125E+03  0.91187600000E+02 0.  0.
<mgrwt>
<rscale>  0 0.18033828E+04</rscale>
<asrwt>0</asrwt>
<pdfrwt beam="1">  1        2 0.38930432E+00 0.18033828E+04</pdfrwt>
<pdfrwt beam="2">  1       -2 0.49431059E-01 0.18033828E+04</pdfrwt>
<totfact> 0.12234113E+01</totfact>
</mgrwt>
</event>
<event>
12    1  0.3065082E-011  0.1727395E+04  0.7818608E-02  0.8745893E-01
         -1   -1    0    0    0  501 -0.00000000000E+00  0.00000000000E+00  0.49584491736E+03  0.49584491736E+03  0.00000000000E+00 0.  1.
          1   -1    0    0  501    0  0.00000000000E+00 -0.00000000000E+00 -0.15044486743E+04  0.15044486743E+04  0.00000000000E+00 0. -1.
    9900016    2    1    2    0    0 -0.35346065301E+03  0.16068038425E+03 -0.62468802668E+03  0.10207229315E+04  0.70773409770E+03 0.  0.
         23    2    3    3    0    0 -0.29502627195E+02  0.55071272761E+02 -0.18291741993E+03  0.21535539047E+03  0.94952154234E+02 0.  0.
         23    2    3    3    0    0  0.15053156842E+03 -0.28229384489E+02 -0.15139947166E+03  0.23320627516E+03  0.89480252086E+02 0.  0.
        -15    1    5    5    0    0  0.44937212476E+02 -0.14441842719E+02  0.10901119755E+01  0.47213432732E+02  0.00000000000E+00 0.  1.
        -15    1    4    4    0    0  0.11161046252E+02 -0.13907114561E+02 -0.94090638053E+02  0.95765468505E+02  0.00000000000E+00 0.  1.
         15    1    4    4    0    0 -0.40663673447E+02  0.68978387323E+02 -0.88826781882E+02  0.11958992196E+03  0.00000000000E+00 0. -1.
         15    1    5    5    0    0  0.10559435595E+03 -0.13787541770E+02 -0.15248958364E+03  0.18599284243E+03  0.00000000000E+00 0. -1.
        -16    1    3    3    0    0 -0.47448959424E+03  0.13383849598E+03 -0.29037113509E+03  0.57216126585E+03  0.00000000000E+00 0.  1.
         16    1    1    2    0    0  0.50791873510E+03 -0.26461756831E+03 -0.48356474771E+03  0.74955904648E+03  0.00000000000E+00 0. -1.
    9900018    1    1    2    0    0 -0.15445808209E+03  0.10393718406E+03  0.99649017472E+02  0.23001161369E+03  0.91187600000E+02 0.  0.
<mgrwt>
<rscale>  0 0.17273948E+04</rscale>
<asrwt>0</asrwt>
<pdfrwt beam="1">  1        1 0.23145364E+00 0.17273948E+04</pdfrwt>
<pdfrwt beam="2">  1       -1 0.76283834E-01 0.17273948E+04</pdfrwt>
<totfact> 0.10639226E+01</totfact>
</mgrwt>
</event>
<event>
12    1  0.3065082E-011  0.3052220E+04  0.7818608E-02  0.8228974E-01
          2   -1    0    0  501    0  0.00000000000E+00  0.00000000000E+00  0.34785857014E+04  0.34785857014E+04  0.00000000000E+00 0. -1.
         -2   -1    0    0    0  501 -0.00000000000E+00 -0.00000000000E+00 -0.66952838851E+03  0.66952838851E+03  0.00000000000E+00 0.  1.
    9900016    2    1    2    0    0  0.70758701717E+03 -0.45900763200E+03  0.19079130735E+04  0.21999175617E+04  0.69866843997E+03 0.  0.
         23    2    3    3    0    0  0.10970322392E+03 -0.16530106216E+03  0.70922094453E+03  0.74180889919E+03  0.89032894304E+02 0.  0.
         23    2    3    3    0    0 -0.32935665475E+02 -0.12135303198E+03  0.38401839997E+03  0.41344019055E+03  0.87471956739E+02 0.  0.
        -15    1    4    4    0    0  0.10990314259E+03 -0.91704479667E+02  0.49619427287E+03  0.51642731218E+03  0.00000000000E+00 0. -1.
        -15    1    5    5    0    0  0.18983780924E+02  0.12539885616E+01  0.65646229660E+02  0.68347522955E+02  0.00000000000E+00 0. -1.
         15    1    4    4    0    0 -0.19991867181E+00 -0.73596582492E+02  0.21302667166E+03  0.22538158701E+03  0.00000000000E+00 0.  1.
         15    1    5    5    0    0 -0.51919446399E+02 -0.12260702054E+03  0.31837217031E+03  0.34509266759E+03  0.00000000000E+00 0.  1.
        -16    1    1    2    0    0 -0.10082473585E+04  0.36632301374E+03  0.93676953364E+02  0.10768150528E+04  0.00000000000E+00 0.  1.
         16    1    3    3    0    0  0.63081945872E+03 -0.17235353787E+03  0.81467372899E+03  0.10446684719E+04  0.00000000000E+00 0. -1.
    9900018    1    1    2    0    0  0.30066034136E+03  0.92684618262E+02  0.80746728604E+03  0.87138147545E+03  0.91187600000E+02 0.  0.
<mgrwt>
<rscale>  0 0.30522201E+04</rscale>
<asrwt>0</asrwt>
<pdfrwt beam="1">  1        2 0.53516702E+00 0.30522201E+04</pdfrwt>
<pdfrwt beam="2">  1       -2 0.10300437E+00 0.30522201E+04</pdfrwt>
<totfact> 0.55154312E-01</totfact>
</mgrwt>
</event>
<event>
12    1  0.3065082E-011  0.1806326E+04  0.7818608E-02  0.8702943E-01
          2   -1    0    0  501    0  0.00000000000E+00  0.00000000000E+00  0.55030478396E+03  0.55030478396E+03  0.00000000000E+00 0. -1.
         -2   -1    0    0    0  501 -0.00000000000E+00 -0.00000000000E+00 -0.14822748890E+04  0.14822748890E+04  0.00000000000E+00 0.  1.
    9900016    2    1    2    0    0  0.25232818681E+02 -0.35262880194E+02 -0.19438454560E+03  0.74144013257E+03  0.71419041772E+03 0.  0.
         23    2    3    3    0    0 -0.18611283069E+03 -0.21891848119E+03 -0.20808920528E+03  0.36794918615E+03  0.97581755880E+02 0.  0.
         23    2    3    3    0    0  0.18611252950E+03  0.22696836120E+03 -0.27109036942E+02  0.30884991171E+03  0.92200094655E+02 0.  0.
        -15    1    4    4    0    0 -0.10051594400E+03 -0.15046682535E+03 -0.17905553131E+03  0.25456748383E+03  0.00000000000E+00 0. -1.
        -15    1    5    5    0    0  0.29238158765E+02  0.66319016635E+02 -0.42087339471E+02  0.83811849038E+02  0.00000000000E+00 0. -1.
         15    1    4    4    0    0 -0.85596886691E+02 -0.68451655837E+02 -0.29033673977E+02  0.11338170233E+03  0.00000000000E+00 0.  1.
         15    1    5    5    0    0  0.15687437074E+03  0.16064934457E+03  0.14978302530E+02  0.22503806267E+03  0.00000000000E+00 0.  1.
        -16    1    1    2    0    0 -0.58740115272E+02  0.50510447102E+03 -0.61103594098E+03  0.79495021792E+03  0.00000000000E+00 0.  1.
         16    1    3    3    0    0  0.25233119872E+02 -0.43312760209E+02  0.40813696630E+02  0.64641034707E+02  0.00000000000E+00 0. -1.
    9900018    1    1    2    0    0  0.33507296590E+02 -0.46984159083E+03 -0.12654961845E+03  0.49618932246E+03  0.91187600000E+02 0.  0.
<mgrwt>
<rscale>  0 0.18063255E+04</rscale>
<asrwt>0</asrwt>
<pdfrwt beam="1">  1        2 0.84662275E-01 0.18063255E+04</pdfrwt>
<pdfrwt beam="2">  1       -2 0.22804229E+00 0.18063255E+04</pdfrwt>
<totfact> 0.45630641E+00</totfact>
</mgrwt>
</event>
<event>
12    1  0.3065082E-011  0.2245699E+04  0.7818608E-02  0.8499644E-01
          2   -1    0    0  501    0  0.00000000000E+00  0.00000000000E+00  0.12080074001E+04  0.12080074001E+04  0.00000000000E+00 0. -1.
         -2   -1    0    0    0  501 -0.00000000000E+00 -0.00000000000E+00 -0.10436948069E+04  0.10436948069E+04  0.00000000000E+00 0.  1.
    9900016    2    1    2    0    0  0.28772914209E+02 -0.61604600065E+01  0.62539823662E+03  0.95340061353E+03  0.71901595507E+03 0.  0.
         23    2    3    3    0    0 -0.16968974250E+03 -0.46315173503E+02  0.15525871120E+03  0.25134887402E+03  0.90173638402E+02 0.  0.
         23    2    3    3    0    0 -0.72664605361E+02 -0.98569694708E+02  0.33671040941E+03  0.36954943475E+03  0.90535933902E+02 0.  0.
        -15    1    5    5    0    0 -0.67699859082E+02 -0.11298137079E+03  0.26135587865E+03  0.29266868020E+03  0.00000000000E+00 0.  1.
        -15    1    4    4    0    0 -0.97010715543E+02 -0.56022877201E+02  0.49062093869E+02  0.12229771361E+03  0.00000000000E+00 0. -1.
         15    1    4    4    0    0 -0.72679026956E+02  0.97077036977E+01  0.10619661733E+03  0.12905116041E+03  0.00000000000E+00 0.  1.
         15    1    5    5    0    0 -0.49647462790E+01  0.14411676082E+02  0.75354530762E+02  0.76880754545E+02  0.00000000000E+00 0. -1.
        -16    1    1    2    0    0 -0.15709975268E+03 -0.23514840265E+03 -0.80290442119E+03  0.85125237922E+03  0.00000000000E+00 0.  1.
         16    1    3    3    0    0  0.27112726207E+03  0.13872440821E+03  0.13342911601E+03  0.33250230475E+03  0.00000000000E+00 0. -1.
    9900018    1    1    2    0    0  0.12832683848E+03  0.24130886266E+03  0.34181877782E+03  0.44704921422E+03  0.91187600000E+02 0.  0.
<mgrwt>
<rscale>  0 0.22456990E+04</rscale>
<asrwt>0</asrwt>
<pdfrwt beam="1">  1        2 0.18584729E+00 0.22456990E+04</pdfrwt>
<pdfrwt beam="2">  1       -2 0.16056843E+00 0.22456990E+04</pdfrwt>
<totfact> 0.42559242E+00</totfact>
</mgrwt>
</event>
<event>
12    1  0.3065082E-011  0.1892356E+04  0.7818608E-02  0.8658671E-01
          2   -1    0    0  501    0  0.00000000000E+00  0.00000000000E+00  0.13021333255E+04  0.13021333255E+04  0.00000000000E+00 0.  1.
         -2   -1    0    0    0  501 -0.00000000000E+00 -0.00000000000E+00 -0.68752793978E+03  0.68752793978E+03  0.00000000000E+00 0. -1.
    9900016    2    1    2    0    0 -0.98215639659E+02 -0.21771817855E+03  0.18048622111E+03  0.76835936403E+03  0.70763925777E+03 0.  0.
         23    2    3    3    0    0  0.12603094730E+03 -0.17649767838E+03  0.14662315870E+03  0.27756032903E+03  0.92228821065E+02 0.  0.
         23    2    3    3    0    0 -0.40247116940E+02  0.29486022896E+02  0.20462165980E+03  0.23000464098E+03  0.92427567557E+02 0.  0.
        -15    1    4    4    0    0  0.81535803211E+02 -0.17273309041E+03  0.11974035564E+03  0.22543859585E+03  0.00000000000E+00 0. -1.
        -15    1    5    5    0    0 -0.35374467370E+02  0.62193571581E+02  0.14915388996E+03  0.16542755568E+03  0.00000000000E+00 0. -1.
         15    1    4    4    0    0  0.44495144090E+02 -0.37645879698E+01  0.26882803056E+02  0.52121733186E+02  0.00000000000E+00 0.  1.
         15    1    5    5    0    0 -0.48726495698E+01 -0.32707548686E+02  0.55467769836E+02  0.64577085297E+02  0.00000000000E+00 0.  1.
        -16    1    1    2    0    0 -0.35826312647E+02  0.15210577313E+03  0.80034530643E+03  0.81545833764E+03  0.00000000000E+00 0.  1.
         16    1    3    3    0    0 -0.18399947002E+03 -0.70706523067E+02 -0.17075859739E+03  0.26079439402E+03  0.00000000000E+00 0. -1.
    9900018    1    1    2    0    0  0.13404195231E+03  0.65612405421E+02 -0.36622614186E+03  0.40584356358E+03  0.91187600000E+02 0.  0.
<mgrwt>
<rscale>  0 0.18923562E+04</rscale>
<asrwt>0</asrwt>
<pdfrwt beam="1">  1        2 0.20032820E+00 0.18923562E+04</pdfrwt>
<pdfrwt beam="2">  1       -2 0.10577353E+00 0.18923562E+04</pdfrwt>
<totfact> 0.11158710E+01</totfact>
</mgrwt>
</event>
<event>
12    1  0.3065082E-011  0.1406529E+04  0.7818608E-02  0.8949106E-01
          1   -1    0    0  501    0  0.00000000000E+00  0.00000000000E+00  0.12915402437E+04  0.12915402437E+04  0.00000000000E+00 0. -1.
         -1   -1    0    0    0  501 -0.00000000000E+00 -0.00000000000E+00 -0.38293872726E+03  0.38293872726E+03  0.00000000000E+00 0.  1.
    9900016    2    1    2    0    0 -0.10524021385E+03  0.27238173303E+03  0.70452468188E+03  0.10328408748E+04  0.69651843772E+03 0.  0.
         23    2    3    3    0    0  0.34069791415E+02  0.14655781111E+03  0.19498074145E+02  0.17790820513E+03  0.92904315685E+02 0.  0.
         23    2    3    3    0    0  0.11732829316E+03 -0.24528583702E+02  0.58934330660E+02  0.16177999410E+03  0.91279413713E+02 0.  0.
        -15    1    4    4    0    0  0.61095186723E+02  0.10351450217E+03  0.34254797508E+02  0.12498505972E+03  0.00000000000E+00 0.  1.
        -15    1    5    5    0    0 -0.11963198894E+02 -0.15404367806E+02  0.26265544352E+00  0.19505939176E+02  0.00000000000E+00 0. -1.
         15    1    4    4    0    0 -0.27025395308E+02  0.43043308943E+02 -0.14756723362E+02  0.52923145415E+02  0.00000000000E+00 0. -1.
         15    1    5    5    0    0  0.12929149205E+03 -0.91242158967E+01  0.58671675217E+02  0.14227405493E+03  0.00000000000E+00 0.  1.
        -16    1    1    2    0    0  0.14625617170E+03 -0.29543070013E+03 -0.80321004307E+02  0.33929578552E+03  0.00000000000E+00 0.  1.
         16    1    3    3    0    0 -0.25663829842E+03  0.15035250562E+03  0.62609227707E+03  0.69315267551E+03  0.00000000000E+00 0. -1.
    9900018    1    1    2    0    0 -0.41015957846E+02  0.23048967096E+02  0.28439783889E+03  0.30234231070E+03  0.91187600000E+02 0.  0.
<mgrwt>
<rscale>  0 0.14065287E+04</rscale>
<asrwt>0</asrwt>
<pdfrwt beam="1">  1        1 0.19869850E+00 0.14065287E+04</pdfrwt>
<pdfrwt beam="2">  1       -1 0.58913651E-01 0.14065287E+04</pdfrwt>
<totfact> 0.26103249E+01</totfact>
</mgrwt>
</event>
<event>
12    1  0.3065082E-011  0.1181521E+04  0.7818608E-02  0.9129186E-01
          4   -1    0    0  501    0  0.00000000000E+00  0.00000000000E+00  0.52958477502E+03  0.52958477502E+03  0.00000000000E+00 0. -1.
         -4   -1    0    0    0  501 -0.00000000000E+00 -0.00000000000E+00 -0.65900329609E+03  0.65900329609E+03  0.00000000000E+00 0.  1.
    9900016    2    1    2    0    0 -0.21848867588E+03  0.49110921901E+02  0.64875050494E+02  0.73456156734E+03  0.69657931342E+03 0.  0.
         23    2    3    3    0    0 -0.85493809491E+02  0.43595760054E+02 -0.26387482424E+03  0.29520261859E+03  0.91131122028E+02 0.  0.
         23    2    3    3    0    0  0.47971946787E+02 -0.41683463054E+01  0.86395535350E+02  0.13673974310E+03  0.94418674139E+02 0.  0.
        -15    1    5    5    0    0  0.53012645906E+02 -0.40059209204E+02  0.71348761175E+02  0.97497315805E+02  0.00000000000E+00 0.  1.
        -15    1    4    4    0    0 -0.68400122064E+02 -0.15642036064E+02 -0.12731524089E+03  0.14536994377E+03  0.00000000000E+00 0.  1.
         15    1    4    4    0    0 -0.17093687427E+02  0.59237796118E+02 -0.13655958335E+03  0.14983267482E+03  0.00000000000E+00 0. -1.
         15    1    5    5    0    0 -0.50406991182E+01  0.35890862899E+02  0.15046774174E+02  0.39242427298E+02  0.00000000000E+00 0. -1.
        -16    1    1    2    0    0  0.84273094439E+02  0.48453911560E+02  0.76434476827E+02  0.12366068591E+03  0.00000000000E+00 0.  1.
         16    1    3    3    0    0 -0.18096681318E+03  0.96835081527E+01  0.24235433938E+03  0.30261920564E+03  0.00000000000E+00 0. -1.
    9900018    1    1    2    0    0  0.13421558145E+03 -0.97564833462E+02 -0.27072804840E+03  0.33036581787E+03  0.91187600000E+02 0.  0.
<mgrwt>
<rscale>  0 0.11815212E+04</rscale>
<asrwt>0</asrwt>
<pdfrwt beam="1">  1        4 0.81474581E-01 0.11815212E+04</pdfrwt>
<pdfrwt beam="2">  1       -4 0.10138512E+00 0.11815212E+04</pdfrwt>
<totfact> 0.20943945E+00</totfact>
</mgrwt>
</event>
<event>
12    1  0.3065082E-011  0.1124219E+04  0.7818608E-02  0.9181903E-01
          2   -1    0    0  501    0  0.00000000000E+00  0.00000000000E+00  0.10979508510E+04  0.10979508510E+04  0.00000000000E+00 0. -1.
         -2   -1    0    0    0  501 -0.00000000000E+00 -0.00000000000E+00 -0.28777891184E+03  0.28777891184E+03  0.00000000000E+00 0.  1.
    9900016    2    1    2    0    0  0.16460202776E+03 -0.65566293563E+02  0.30509336940E+03  0.77551347004E+03  0.69061306950E+03 0.  0.
         23    2    3    3    0    0 -0.32376458219E+01 -0.31225275993E+03  0.23541032124E+03  0.40170449911E+03  0.91848880377E+02 0.  0.
         23    2    3    3    0    0  0.50478523699E+01  0.55385286381E+02  0.60283182725E+02  0.12244135967E+03  0.90911020661E+02 0.  0.
        -15    1    5    5    0    0  0.26271780258E+02  0.21255768837E+02 -0.15099810716E+02  0.37013760015E+02  0.00000000000E+00 0.  1.
        -15    1    4    4    0    0 -0.35938329232E+02 -0.26670433987E+03  0.18803304110E+03  0.32829741540E+03  0.00000000000E+00 0. -1.
         15    1    4    4    0    0  0.32700683410E+02 -0.45548420054E+02  0.47377280138E+02  0.73407083706E+02  0.00000000000E+00 0.  1.
         15    1    5    5    0    0 -0.21223927889E+02  0.34129517544E+02  0.75382993441E+02  0.85427599656E+02  0.00000000000E+00 0. -1.
        -16    1    3    3    0    0  0.16279182122E+03  0.19130117998E+03  0.93998654412E+01  0.25136761126E+03  0.00000000000E+00 0.  1.
         16    1    1    2    0    0  0.53027906001E+02 -0.30404070217E+02  0.21804115859E+03  0.22644715308E+03  0.00000000000E+00 0. -1.
    9900018    1    1    2    0    0 -0.21762993377E+03  0.95970363780E+02  0.28703741114E+03  0.38376913969E+03  0.91187600000E+02 0.  0.
<mgrwt>
<rscale>  0 0.11242190E+04</rscale>
<asrwt>0</asrwt>
<pdfrwt beam="1">  1        2 0.16891551E+00 0.11242190E+04</pdfrwt>
<pdfrwt beam="2">  1       -2 0.44273679E-01 0.11242190E+04</pdfrwt>
<totfact> 0.10475033E+02</totfact>
</mgrwt>
</event>
<event>
12    1  0.3065082E-011  0.3009478E+04  0.7818608E-02  0.8241030E-01
         -2   -1    0    0    0  501 -0.00000000000E+00  0.00000000000E+00  0.84555961410E+03  0.84555961410E+03  0.00000000000E+00 0.  1.
          2   -1    0    0  501    0  0.00000000000E+00 -0.00000000000E+00 -0.26777996533E+04  0.26777996533E+04  0.00000000000E+00 0. -1.
    9900016    2    1    2    0    0 -0.11667544667E+03  0.22328397837E+03 -0.10024126177E+03  0.75886582143E+03  0.70877368004E+03 0.  0.
         23    2    3    3    0    0 -0.37400967572E+02  0.16747491329E+03 -0.26874036912E+03  0.33129650864E+03  0.89940600897E+02 0.  0.
         23    2    3    3    0    0  0.12898710324E+03 -0.29253081068E+02  0.31257345907E+02  0.16404747978E+03  0.91875668130E+02 0.  0.
        -15    1    5    5    0    0  0.12397312328E+03 -0.25184013645E+01  0.18825732773E+01  0.12401299014E+03  0.00000000000E+00 0.  1.
        -15    1    4    4    0    0  0.28586883479E+02  0.33919088005E+02 -0.71092728095E+02  0.83796720855E+02  0.00000000000E+00 0.  1.
         15    1    4    4    0    0 -0.65987851051E+02  0.13355582528E+03 -0.19764764102E+03  0.24749978779E+03  0.00000000000E+00 0. -1.
         15    1    5    5    0    0  0.50139799654E+01 -0.26734679704E+02  0.29374772629E+02  0.40034489643E+02  0.00000000000E+00 0. -1.
        -16    1    1    2    0    0  0.52234480002E+03 -0.89942637442E+03 -0.16711734075E+04  0.19684086088E+04  0.00000000000E+00 0.  1.
         16    1    3    3    0    0 -0.20826158234E+03  0.85062146148E+02  0.13724176144E+03  0.26352183300E+03  0.00000000000E+00 0. -1.
    9900018    1    1    2    0    0 -0.40566935336E+03  0.67614239605E+03 -0.60825369915E+02  0.79608483720E+03  0.91187600000E+02 0.  0.
<mgrwt>
<rscale>  0 0.30094779E+04</rscale>
<asrwt>0</asrwt>
<pdfrwt beam="1">  1        2 0.41196917E+00 0.30094779E+04</pdfrwt>
<pdfrwt beam="2">  1       -2 0.13008610E+00 0.30094779E+04</pdfrwt>
<totfact> 0.10148804E+00</totfact>
</mgrwt>
</event>
<event>
12    1  0.3065082E-011  0.1365182E+04  0.7818608E-02  0.8979415E-01
          1   -1    0    0  501    0  0.00000000000E+00  0.00000000000E+00  0.22989818272E+04  0.22989818272E+04  0.00000000000E+00 0. -1.
         -1   -1    0    0    0  501 -0.00000000000E+00 -0.00000000000E+00 -0.20266811069E+03  0.20266811069E+03  0.00000000000E+00 0.  1.
    9900016    2    1    2    0    0 -0.12964285848E+03 -0.23598542020E+03  0.13878028124E+04  0.15754041592E+04  0.69527349249E+03 0.  0.
         23    2    3    3    0    0  0.38862471532E+02 -0.10360749111E+03  0.14995053539E+03  0.20709980192E+03  0.90334716378E+02 0.  0.
         23    2    3    3    0    0 -0.25441706793E+03 -0.25142988258E+03  0.11224538808E+04  0.11815666155E+04  0.90840091029E+02 0.  0.
        -15    1    5    5    0    0 -0.23838101472E+03 -0.18792903259E+03  0.92533698121E+03  0.97385386905E+03  0.00000000000E+00 0. -1.
        -15    1    4    4    0    0  0.55856546703E+02 -0.91176017038E+02  0.15211255041E+03  0.18593345015E+03  0.00000000000E+00 0.  1.
         15    1    4    4    0    0 -0.16994075171E+02 -0.12431474071E+02 -0.21620150113E+01  0.21166351774E+02  0.00000000000E+00 0. -1.
         15    1    5    5    0    0 -0.16036053205E+02 -0.63500849989E+02  0.19711689956E+03  0.20771274646E+03  0.00000000000E+00 0.  1.
        -16    1    1    2    0    0  0.27697164974E+03  0.28887147046E+03  0.38420844498E+03  0.55477576588E+03  0.00000000000E+00 0.  1.
         16    1    3    3    0    0  0.85911737910E+02  0.11905195348E+03  0.11539839624E+03  0.18673774175E+03  0.00000000000E+00 0. -1.
    9900018    1    1    2    0    0 -0.14732879126E+03 -0.52886050261E+02  0.32430245912E+03  0.37147001283E+03  0.91187600000E+02 0.  0.
<mgrwt>
<rscale>  0 0.13651818E+04</rscale>
<asrwt>0</asrwt>
<pdfrwt beam="1">  1        1 0.35368949E+00 0.13651818E+04</pdfrwt>
<pdfrwt beam="2">  1       -1 0.31179711E-01 0.13651818E+04</pdfrwt>
<totfact> 0.17418902E+01</totfact>
</mgrwt>
</event>
<event>
12    1  0.3065082E-011  0.1815455E+04  0.7818608E-02  0.8698124E-01
          2   -1    0    0  501    0  0.00000000000E+00  0.00000000000E+00  0.15543625859E+04  0.15543625859E+04  0.00000000000E+00 0. -1.
         -2   -1    0    0    0  501 -0.00000000000E+00 -0.00000000000E+00 -0.53010106340E+03  0.53010106340E+03  0.00000000000E+00 0.  1.
    9900016    2    1    2    0    0  0.16338271081E+03  0.84777224331E+02  0.15592933684E+03  0.75139716287E+03  0.71161973717E+03 0.  0.
         23    2    3    3    0    0  0.10465369203E+03  0.79170733830E+02 -0.15387702630E+03  0.22465360810E+03  0.97829975265E+02 0.  0.
         23    2    3    3    0    0  0.99586906322E+02 -0.66686534204E+01 -0.64720275807E+02  0.14979495162E+03  0.91037303247E+02 0.  0.
        -15    1    4    4    0    0  0.92046417315E+02  0.10173371810E+02 -0.99303661314E+02  0.13578386349E+03  0.00000000000E+00 0. -1.
        -15    1    5    5    0    0  0.78058496335E+02  0.34015893269E+02 -0.24327147356E+02  0.88555180218E+02  0.00000000000E+00 0.  1.
         15    1    4    4    0    0  0.12607274718E+02  0.68997362020E+02 -0.54573364982E+02  0.88869744610E+02  0.00000000000E+00 0.  1.
         15    1    5    5    0    0  0.21528409987E+02 -0.40684546689E+02 -0.40393128452E+02  0.61239771407E+02  0.00000000000E+00 0. -1.
        -16    1    1    2    0    0 -0.53490830724E+02 -0.51306011350E+03  0.26618241733E+03  0.58046966185E+03  0.00000000000E+00 0.  1.
         16    1    3    3    0    0 -0.40857887543E+02  0.12275143921E+02  0.37452663894E+03  0.37694860314E+03  0.00000000000E+00 0. -1.
    9900018    1    1    2    0    0 -0.10989188009E+03  0.42828288917E+03  0.60214976828E+03  0.75259682453E+03  0.91187600000E+02 0.  0.
<mgrwt>
<rscale>  0 0.18154551E+04</rscale>
<asrwt>0</asrwt>
<pdfrwt beam="1">  1        2 0.23913270E+00 0.18154551E+04</pdfrwt>
<pdfrwt beam="2">  1       -2 0.81554011E-01 0.18154551E+04</pdfrwt>
<totfact> 0.14762630E+01</totfact>
</mgrwt>
</event>
<event>
12    1  0.3065082E-011  0.1921350E+04  0.7818608E-02  0.8644302E-01
          2   -1    0    0  501    0  0.00000000000E+00  0.00000000000E+00  0.29068186705E+04  0.29068186705E+04  0.00000000000E+00 0.  1.
         -2   -1    0    0    0  501 -0.00000000000E+00 -0.00000000000E+00 -0.31749355874E+03  0.31749355874E+03  0.00000000000E+00 0. -1.
    9900016    2    1    2    0    0  0.15086087138E+03  0.25620745776E+03  0.99621579628E+03  0.12628759282E+04  0.71694381457E+03 0.  0.
         23    2    3    3    0    0  0.45934957870E+02  0.18435522659E+03  0.36744886385E+03  0.42352869775E+03  0.90890155428E+02 0.  0.
         23    2    3    3    0    0  0.19737112444E+03  0.10627848020E+03  0.68458113087E+03  0.72600479178E+03  0.90449747549E+02 0.  0.
        -15    1    5    5    0    0  0.15673021597E+03  0.42175242008E+02  0.40521451867E+03  0.43651107406E+03  0.00000000000E+00 0. -1.
        -15    1    4    4    0    0  0.56734312674E+02  0.59629367663E+02  0.11134895620E+03  0.13846672441E+03  0.00000000000E+00 0. -1.
         15    1    4    4    0    0 -0.10799354804E+02  0.12472585893E+03  0.25609990765E+03  0.28506197335E+03  0.00000000000E+00 0.  1.
         15    1    5    5    0    0  0.40640908464E+02  0.64103238190E+02  0.27936661220E+03  0.28949371772E+03  0.00000000000E+00 0.  1.
        -16    1    3    3    0    0 -0.92445210931E+02 -0.34426249027E+02 -0.55814198437E+02  0.11334243862E+03  0.00000000000E+00 0.  1.
         16    1    1    2    0    0 -0.40915024499E+03 -0.34582680431E+03  0.15850348826E+04  0.16731215379E+04  0.00000000000E+00 0. -1.
    9900018    1    1    2    0    0  0.25828937361E+03  0.89619346547E+02  0.80744328587E+01  0.28831476316E+03  0.91187600000E+02 0.  0.
<mgrwt>
<rscale>  0 0.19213497E+04</rscale>
<asrwt>0</asrwt>
<pdfrwt beam="1">  1        2 0.44720285E+00 0.19213497E+04</pdfrwt>
<pdfrwt beam="2">  1       -2 0.48845165E-01 0.19213497E+04</pdfrwt>
<totfact> 0.74011807E+00</totfact>
</mgrwt>
</event>
<event>
12    1  0.3065082E-011  0.1133044E+04  0.7818608E-02  0.9173570E-01
          1   -1    0    0  501    0  0.00000000000E+00  0.00000000000E+00  0.72346264605E+03  0.72346264605E+03  0.00000000000E+00 0. -1.
         -1   -1    0    0    0  501 -0.00000000000E+00 -0.00000000000E+00 -0.44362668809E+03  0.44362668809E+03  0.00000000000E+00 0.  1.
    9900016    2    1    2    0    0  0.96263783092E+02  0.27293038987E+02  0.14092630022E+03  0.73324911624E+03  0.71258853377E+03 0.  0.
         23    2    3    3    0    0 -0.60715999365E+02  0.56997024892E+02  0.12941981118E+03  0.17946471131E+03  0.92320104283E+02 0.  0.
         23    2    3    3    0    0  0.17153706391E+03  0.64891197517E+01  0.24773821302E+03  0.31435323997E+03  0.89312173429E+02 0.  0.
        -15    1    4    4    0    0 -0.74907739205E+02  0.10443030439E+02  0.80642404512E+02  0.11055959336E+03  0.00000000000E+00 0. -1.
        -15    1    5    5    0    0  0.11457630892E+03 -0.10669975078E+02  0.22093200349E+03  0.24910345060E+03  0.00000000000E+00 0. -1.
         15    1    4    4    0    0  0.14191739840E+02  0.46553994453E+02  0.48777406670E+02  0.68905117957E+02  0.00000000000E+00 0.  1.
         15    1    5    5    0    0  0.56960754986E+02  0.17159094830E+02  0.26806209526E+02  0.65249789372E+02  0.00000000000E+00 0.  1.
        -16    1    3    3    0    0 -0.14557281452E+02 -0.36193105656E+02 -0.23623172397E+03  0.23943116496E+03  0.00000000000E+00 0.  1.
         16    1    1    2    0    0 -0.36495966950E+02 -0.19942974073E+03  0.10128970191E+03  0.22663578889E+03  0.00000000000E+00 0. -1.
    9900018    1    1    2    0    0 -0.59767816142E+02  0.17213670174E+03  0.37619955824E+02  0.20720442901E+03  0.91187600000E+02 0.  0.
<mgrwt>
<rscale>  0 0.11330443E+04</rscale>
<asrwt>0</asrwt>
<pdfrwt beam="1">  1        1 0.11130195E+00 0.11330443E+04</pdfrwt>
<pdfrwt beam="2">  1       -1 0.68250260E-01 0.11330443E+04</pdfrwt>
<totfact> 0.55986626E+01</totfact>
</mgrwt>
</event>
<event>
12    1  0.3065082E-011  0.2036215E+04  0.7818608E-02  0.8589874E-01
          1   -1    0    0  501    0  0.00000000000E+00  0.00000000000E+00  0.17140079734E+04  0.17140079734E+04  0.00000000000E+00 0. -1.
         -1   -1    0    0    0  501 -0.00000000000E+00 -0.00000000000E+00 -0.60474782122E+03  0.60474782122E+03  0.00000000000E+00 0.  1.
    9900016    2    1    2    0    0  0.41357136085E+03 -0.42408630188E+02  0.38299737051E+03  0.90895786803E+03  0.71181293723E+03 0.  0.
         23    2    3    3    0    0  0.12683183520E+03 -0.98428528188E+02  0.93731214842E+02  0.20385841034E+03  0.83655371897E+02 0.  0.
         23    2    3    3    0    0 -0.11083156397E+03  0.16969515605E+03  0.15133179536E+03  0.26919726300E+03  0.92118253144E+02 0.  0.
        -15    1    5    5    0    0 -0.68690674763E+02  0.15727380542E+03  0.90096129797E+02  0.19383181182E+03  0.00000000000E+00 0. -1.
        -15    1    4    4    0    0  0.31310386524E+02 -0.43440258886E+02  0.74853833554E+02  0.92035280160E+02  0.00000000000E+00 0.  1.
         15    1    4    4    0    0  0.95521448677E+02 -0.54988269302E+02  0.18877381288E+02  0.11182313018E+03  0.00000000000E+00 0. -1.
         15    1    5    5    0    0 -0.42140889203E+02  0.12421350631E+02  0.61235665562E+02  0.75365451177E+02  0.00000000000E+00 0.  1.
        -16    1    3    3    0    0  0.39757108961E+03 -0.11367525805E+03  0.13793436031E+03  0.43590219470E+03  0.00000000000E+00 0.  1.
         16    1    1    2    0    0 -0.73651304405E+03  0.15280493275E+03  0.74146931972E+03  0.10562090530E+04  0.00000000000E+00 0. -1.
    9900018    1    1    2    0    0  0.32294168321E+03 -0.11039630256E+03 -0.15206538007E+02  0.35358887364E+03  0.91187600000E+02 0.  0.
<mgrwt>
<rscale>  0 0.20362147E+04</rscale>
<asrwt>0</asrwt>
<pdfrwt beam="1">  1        1 0.26369353E+00 0.20362147E+04</pdfrwt>
<pdfrwt beam="2">  1       -1 0.93038127E-01 0.20362147E+04</pdfrwt>
<totfact> 0.48370818E+00</totfact>
</mgrwt>
</event>
<event>
12    1  0.3065082E-011  0.1107645E+04  0.7818608E-02  0.9197772E-01
         -1   -1    0    0    0  501 -0.00000000000E+00  0.00000000000E+00  0.19485619160E+04  0.19485619160E+04  0.00000000000E+00 0.  1.
          1   -1    0    0  501    0  0.00000000000E+00 -0.00000000000E+00 -0.15740810127E+03  0.15740810127E+03  0.00000000000E+00 0. -1.
    9900016    2    1    2    0    0  0.32656760674E+02  0.16652089079E+03  0.10320440741E+04  0.12642793244E+04  0.71027569871E+03 0.  0.
         23    2    3    3    0    0  0.24573965621E+02 -0.11737199655E+03  0.53545325065E+02  0.15939571038E+03  0.90331751289E+02 0.  0.
         23    2    3    3    0    0  0.10488773077E+03  0.34417453402E+03  0.56638076986E+03  0.67727830389E+03  0.91984664578E+02 0.  0.
        -15    1    4    4    0    0 -0.31139900318E+01 -0.12009792801E+03  0.53650973572E+02  0.13157369118E+03  0.00000000000E+00 0.  1.
        -15    1    5    5    0    0  0.65436771418E+02  0.21258357273E+03  0.26438468673E+03  0.34550399278E+03  0.00000000000E+00 0.  1.
         15    1    4    4    0    0  0.27687955653E+02  0.27259314606E+01 -0.10564850773E+00  0.27822019197E+02  0.00000000000E+00 0. -1.
         15    1    5    5    0    0  0.39450959347E+02  0.13159096129E+03  0.30199608313E+03  0.33177431111E+03  0.00000000000E+00 0. -1.
        -16    1    3    3    0    0 -0.96804935712E+02 -0.60281646681E+02  0.41211797920E+03  0.42760531017E+03  0.00000000000E+00 0.  1.
         16    1    1    2    0    0 -0.14718639829E+02 -0.19751309094E+01 -0.28279306845E+02  0.31941488634E+02  0.00000000000E+00 0. -1.
    9900018    1    1    2    0    0 -0.17938120846E+02 -0.16454575988E+03  0.78738904743E+03  0.80974920419E+03  0.91187600000E+02 0.  0.
<mgrwt>
<rscale>  0 0.11076451E+04</rscale>
<asrwt>0</asrwt>
<pdfrwt beam="1">  1        1 0.24216632E-01 0.11076451E+04</pdfrwt>
<pdfrwt beam="2">  1       -1 0.29977874E+00 0.11076451E+04</pdfrwt>
<totfact> 0.67815718E+00</totfact>
</mgrwt>
</event>
<event>
12    1  0.3065082E-011  0.1200256E+04  0.7818608E-02  0.9112632E-01
          1   -1    0    0  501    0  0.00000000000E+00  0.00000000000E+00  0.68200306745E+03  0.68200306745E+03  0.00000000000E+00 0. -1.
         -1   -1    0    0    0  501 -0.00000000000E+00 -0.00000000000E+00 -0.52808215579E+03  0.52808215579E+03  0.00000000000E+00 0.  1.
    9900016    2    1    2    0    0  0.12464240411E+03  0.52638139045E+02  0.97558124259E+01  0.71924676989E+03  0.70633861394E+03 0.  0.
         23    2    3    3    0    0 -0.58045543316E+02  0.34337425533E+02  0.57199459191E+02  0.12607629982E+03  0.89861623360E+02 0.  0.
         23    2    3    3    0    0 -0.56669065952E+02 -0.70784896719E+02  0.20054287631E+03  0.23718544029E+03  0.88417211042E+02 0.  0.
        -15    1    5    5    0    0 -0.29880146672E+02 -0.86387555224E+02  0.11976467544E+03  0.15066257115E+03  0.00000000000E+00 0. -1.
        -15    1    4    4    0    0 -0.10669679677E+02 -0.64186443624E+01 -0.21945948597E+02  0.25232235725E+02  0.00000000000E+00 0.  1.
         15    1    4    4    0    0 -0.47375863639E+02  0.40756069895E+02  0.79145407788E+02  0.10084406409E+03  0.00000000000E+00 0. -1.
         15    1    5    5    0    0 -0.26788919280E+02  0.15602658505E+02  0.80778200867E+02  0.86522869139E+02  0.00000000000E+00 0.  1.
        -16    1    3    3    0    0  0.23935701337E+03  0.89085610231E+02 -0.24798652308E+03  0.35598502978E+03  0.00000000000E+00 0.  1.
         16    1    1    2    0    0 -0.15864311952E+03 -0.36910091134E+02  0.27944473450E+03  0.32344915186E+03  0.00000000000E+00 0. -1.
    9900018    1    1    2    0    0  0.34000715415E+02 -0.15728047912E+02 -0.13527963527E+03  0.16738930149E+03  0.91187600000E+02 0.  0.
<mgrwt>
<rscale>  0 0.12002561E+04</rscale>
<asrwt>0</asrwt>
<pdfrwt beam="1">  1        1 0.10492355E+00 0.12002561E+04</pdfrwt>
<pdfrwt beam="2">  1       -1 0.81243409E-01 0.12002561E+04</pdfrwt>
<totfact> 0.42357250E+01</totfact>
</mgrwt>
</event>
<event>
12    1  0.3065082E-011  0.1520814E+04  0.7818608E-02  0.8870729E-01
         -1   -1    0    0    0  501 -0.00000000000E+00  0.00000000000E+00  0.45501891022E+03  0.45501891022E+03  0.00000000000E+00 0.  1.
          1   -1    0    0  501    0  0.00000000000E+00 -0.00000000000E+00 -0.12707579737E+04  0.12707579737E+04  0.00000000000E+00 0. -1.
    9900016    2    1    2    0    0 -0.95413833607E+02 -0.23029412247E+03 -0.71942439014E+03  0.10592695321E+04  0.73643825683E+03 0.  0.
         23    2    3    3    0    0 -0.19661584479E+02  0.19455605231E+02 -0.15179849572E+03  0.17921070585E+03  0.91151496474E+02 0.  0.
         23    2    3    3    0    0 -0.24790539963E+03 -0.22469738106E+03 -0.60897308629E+03  0.70124630556E+03  0.94615860271E+02 0.  0.
        -15    1    4    4    0    0  0.58543548287E+01  0.37867502715E+02 -0.19064309761E+02  0.42798003914E+02  0.00000000000E+00 0.  1.
        -15    1    5    5    0    0 -0.16272492434E+03 -0.13755307765E+03 -0.47228479497E+03  0.51812467393E+03  0.00000000000E+00 0. -1.
         15    1    4    4    0    0 -0.25515939308E+02 -0.18411897484E+02 -0.13273418596E+03  0.13641270194E+03  0.00000000000E+00 0. -1.
         15    1    5    5    0    0 -0.85180475286E+02 -0.87144303415E+02 -0.13668829132E+03  0.18312163163E+03  0.00000000000E+00 0.  1.
        -16    1    1    2    0    0 -0.83126925660E+02  0.24222341398E+03  0.18851432466E+03  0.31799358272E+03  0.00000000000E+00 0.  1.
         16    1    3    3    0    0  0.17215315050E+03 -0.25052346636E+02  0.41347191865E+02  0.17881252074E+03  0.00000000000E+00 0. -1.
    9900018    1    1    2    0    0  0.17854075927E+03 -0.11929291519E+02 -0.28482899796E+03  0.34851376901E+03  0.91187600000E+02 0.  0.
<mgrwt>
<rscale>  0 0.15208141E+04</rscale>
<asrwt>0</asrwt>
<pdfrwt beam="1">  1        1 0.19550122E+00 0.15208141E+04</pdfrwt>
<pdfrwt beam="2">  1       -1 0.70002910E-01 0.15208141E+04</pdfrwt>
<totfact> 0.18914751E+01</totfact>
</mgrwt>
</event>
<event>
12    1  0.3065082E-011  0.1005370E+04  0.7818608E-02  0.9302675E-01
          3   -1    0    0  501    0  0.00000000000E+00  0.00000000000E+00  0.17483661470E+04  0.17483661470E+04  0.00000000000E+00 0. -1.
         -3   -1    0    0    0  501 -0.00000000000E+00 -0.00000000000E+00 -0.14453039725E+03  0.14453039725E+03  0.00000000000E+00 0.  1.
    9900016    2    1    2    0    0  0.12611731938E+03  0.12049255796E+02  0.10096604878E+04  0.12441045097E+04  0.71577298602E+03 0.  0.
         23    2    3    3    0    0  0.13827164197E+03  0.49094368972E+02  0.32934432399E+02  0.17826295892E+03  0.95727225221E+02 0.  0.
         23    2    3    3    0    0  0.18147844974E+03  0.38608035424E+02  0.61436112597E+03  0.64807918827E+03  0.90233214796E+02 0.  0.
        -15    1    4    4    0    0  0.46091292282E+02  0.62076219217E+02 -0.55853694406E+01  0.77518130578E+02  0.00000000000E+00 0. -1.
        -15    1    5    5    0    0  0.38810112080E+02  0.31410928314E+02  0.74832455525E+02  0.89959811122E+02  0.00000000000E+00 0.  1.
         15    1    4    4    0    0  0.92180349683E+02 -0.12981850246E+02  0.38519801840E+02  0.10074482834E+03  0.00000000000E+00 0.  1.
         15    1    5    5    0    0  0.14266833766E+03  0.71971071103E+01  0.53952867044E+03  0.55811937715E+03  0.00000000000E+00 0. -1.
        -16    1    1    2    0    0 -0.57401785736E+02 -0.91111092576E+02  0.15933190627E+03  0.19230926278E+03  0.00000000000E+00 0.  1.
         16    1    3    3    0    0 -0.19363277232E+03 -0.75653148600E+02  0.36236492946E+03  0.41776236249E+03  0.00000000000E+00 0. -1.
    9900018    1    1    2    0    0 -0.68715533647E+02  0.79061836780E+02  0.43484335568E+03  0.45648277183E+03  0.91187600000E+02 0.  0.
<mgrwt>
<rscale>  0 0.10053697E+04</rscale>
<asrwt>0</asrwt>
<pdfrwt beam="1">  1        3 0.26897939E+00 0.10053697E+04</pdfrwt>
<pdfrwt beam="2">  1       -3 0.22235447E-01 0.10053697E+04</pdfrwt>
<totfact> 0.28861891E+00</totfact>
</mgrwt>
</event>
<event>
12    1  0.3065082E-011  0.1055284E+04  0.7818608E-02  0.9249906E-01
          2   -1    0    0  501    0  0.00000000000E+00  0.00000000000E+00  0.11578595898E+04  0.11578595898E+04  0.00000000000E+00 0. -1.
         -2   -1    0    0    0  501 -0.00000000000E+00 -0.00000000000E+00 -0.24044870257E+03  0.24044870257E+03  0.00000000000E+00 0.  1.
    9900016    2    1    2    0    0  0.20011932553E+02  0.16679063456E+03  0.60543472232E+03  0.93758409118E+03  0.69591172703E+03 0.  0.
         23    2    3    3    0    0  0.13316715103E+03  0.29242128769E+03  0.26750263727E+03  0.42756262080E+03  0.89489855035E+02 0.  0.
         23    2    3    3    0    0 -0.15988999500E+03  0.22254169190E+02  0.65421789743E+02  0.19646777312E+03  0.90881883542E+02 0.  0.
        -15    1    5    5    0    0 -0.32998308034E+02 -0.14620437481E+00 -0.22973727462E+02  0.40208231276E+02  0.00000000000E+00 0.  1.
        -15    1    4    4    0    0  0.65649629661E+02  0.23758536563E+03  0.19370034750E+03  0.31349083632E+03  0.00000000000E+00 0.  1.
         15    1    4    4    0    0  0.67517521365E+02  0.54835922063E+02  0.73802289764E+02  0.11407178448E+03  0.00000000000E+00 0. -1.
         15    1    5    5    0    0 -0.12689168696E+03  0.22400373565E+02  0.88395517205E+02  0.15625954185E+03  0.00000000000E+00 0. -1.
        -16    1    1    2    0    0 -0.10635006308E+03 -0.18111522236E+03  0.22178496511E+03  0.30545315588E+03  0.00000000000E+00 0.  1.
         16    1    3    3    0    0  0.46734776523E+02 -0.14788482232E+03  0.27251029532E+03  0.31355369726E+03  0.00000000000E+00 0. -1.
    9900018    1    1    2    0    0  0.86338130525E+02  0.14324587800E+02  0.90191199810E+02  0.15527104532E+03  0.91187600000E+02 0.  0.
<mgrwt>
<rscale>  0 0.10552835E+04</rscale>
<asrwt>0</asrwt>
<pdfrwt beam="1">  1        2 0.17813224E+00 0.10552835E+04</pdfrwt>
<pdfrwt beam="2">  1       -2 0.36992109E-01 0.10552835E+04</pdfrwt>
<totfact> 0.13751113E+02</totfact>
</mgrwt>
</event>
<event>
12    1  0.3065082E-011  0.2034157E+04  0.7818608E-02  0.8590816E-01
         -2   -1    0    0    0  501 -0.00000000000E+00  0.00000000000E+00  0.79800263431E+03  0.79800263431E+03  0.00000000000E+00 0.  1.
          2   -1    0    0  501    0  0.00000000000E+00 -0.00000000000E+00 -0.12962973398E+04  0.12962973398E+04  0.00000000000E+00 0. -1.
    9900016    2    1    2    0    0 -0.22069750482E+03  0.25848712445E+03 -0.41425589301E+03  0.88577209339E+03  0.70530934660E+03 0.  0.
         23    2    3    3    0    0  0.65886719348E+02 -0.55771459111E+02 -0.20140637935E+02  0.12706183899E+03  0.91035982962E+02 0.  0.
         23    2    3    3    0    0 -0.30556197304E+03  0.11930334962E+03 -0.25549484747E+02  0.34132742624E+03  0.90830760939E+02 0.  0.
        -15    1    4    4    0    0 -0.83360751394E+00 -0.36497178572E+02  0.24987103685E+02  0.44239058487E+02  0.00000000000E+00 0. -1.
        -15    1    5    5    0    0 -0.99880155052E+02  0.14922464275E+02 -0.43539995285E+02  0.10997479940E+03  0.00000000000E+00 0.  1.
         15    1    4    4    0    0  0.66720326862E+02 -0.19274280539E+02 -0.45127741621E+02  0.82822780506E+02  0.00000000000E+00 0.  1.
         15    1    5    5    0    0 -0.20568181799E+03  0.10438088535E+03  0.17990510538E+02  0.23135262684E+03  0.00000000000E+00 0. -1.
        -16    1    1    2    0    0  0.31818829242E+03 -0.64580462324E+03  0.15187496800E+03  0.73578081433E+03  0.00000000000E+00 0.  1.
         16    1    3    3    0    0  0.18977748873E+02  0.19495523394E+03 -0.36856577033E+03  0.41738282816E+03  0.00000000000E+00 0. -1.
    9900018    1    1    2    0    0 -0.97490787604E+02  0.38731749880E+03 -0.23591378044E+03  0.47274706634E+03  0.91187600000E+02 0.  0.
<mgrwt>
<rscale>  0 0.20341570E+04</rscale>
<asrwt>0</asrwt>
<pdfrwt beam="1">  1        2 0.19943036E+00 0.20341570E+04</pdfrwt>
<pdfrwt beam="2">  1       -2 0.12276964E+00 0.20341570E+04</pdfrwt>
<totfact> 0.77226380E+00</totfact>
</mgrwt>
</event>
<event>
12    1  0.3065082E-011  0.1470653E+04  0.7818608E-02  0.8904206E-01
          1   -1    0    0  501    0  0.00000000000E+00  0.00000000000E+00  0.12502933409E+04  0.12502933409E+04  0.00000000000E+00 0. -1.
         -1   -1    0    0    0  501 -0.00000000000E+00 -0.00000000000E+00 -0.43246239658E+03  0.43246239658E+03  0.00000000000E+00 0.  1.
    9900016    2    1    2    0    0  0.63899648882E+02 -0.32269530395E+03  0.97240527057E+03  0.12654154178E+04  0.73992482393E+03 0.  0.
         23    2    3    3    0    0 -0.25058233945E+03 -0.11728090710E+03  0.16292506509E+03  0.33402215301E+03  0.92086382566E+02 0.  0.
         23    2    3    3    0    0  0.13506253884E+03 -0.43662544452E+01  0.17721471098E+03  0.24410049606E+03  0.99594401515E+02 0.  0.
        -15    1    4    4    0    0 -0.18212095591E+03 -0.12749042028E+03  0.12124825789E+03  0.25322517625E+03  0.00000000000E+00 0. -1.
        -15    1    5    5    0    0  0.11673865491E+03  0.23245345341E+02  0.85424299161E+02  0.14651133239E+03  0.00000000000E+00 0. -1.
         15    1    4    4    0    0 -0.68461383543E+02  0.10209513183E+02  0.41676807200E+02  0.80796976766E+02  0.00000000000E+00 0.  1.
         15    1    5    5    0    0  0.18323883934E+02 -0.27611599786E+02  0.91790411820E+02  0.97589163678E+02  0.00000000000E+00 0.  1.
        -16    1    1    2    0    0 -0.45169198631E+02  0.22639383134E+03 -0.16382995200E+03  0.28308068911E+03  0.00000000000E+00 0.  1.
         16    1    3    3    0    0  0.17941944949E+03 -0.20104814241E+03  0.63226549450E+03  0.68729276874E+03  0.00000000000E+00 0. -1.
    9900018    1    1    2    0    0 -0.18730450252E+02  0.96301472611E+02  0.92556257192E+01  0.13425963055E+03  0.91187600000E+02 0.  0.
<mgrwt>
<rscale>  0 0.14706527E+04</rscale>
<asrwt>0</asrwt>
<pdfrwt beam="1">  1        1 0.19235282E+00 0.14706527E+04</pdfrwt>
<pdfrwt beam="2">  1       -1 0.66532677E-01 0.14706527E+04</pdfrwt>
<totfact> 0.21800362E+01</totfact>
</mgrwt>
</event>
<event>
12    1  0.3065082E-011  0.1741771E+04  0.7818608E-02  0.8737893E-01
          2   -1    0    0  501    0  0.00000000000E+00  0.00000000000E+00  0.14618062228E+04  0.14618062228E+04  0.00000000000E+00 0. -1.
         -2   -1    0    0    0  501 -0.00000000000E+00 -0.00000000000E+00 -0.51883859562E+03  0.51883859562E+03  0.00000000000E+00 0.  1.
    9900016    2    1    2    0    0  0.51145418172E+03  0.80850637820E+02  0.28579125271E+03  0.91469472528E+03  0.69775898037E+03 0.  0.
         23    2    3    3    0    0  0.26667266493E+03 -0.20803909444E+03 -0.18894779433E+02  0.35147207547E+03  0.93707161439E+02 0.  0.
         23    2    3    3    0    0  0.11784771951E+03  0.73549490703E+01  0.36093029693E+02  0.15393519092E+03  0.91930168831E+02 0.  0.
        -15    1    5    5    0    0  0.91094589320E+02  0.25126856643E+02 -0.12879369987E+02  0.95370127920E+02  0.00000000000E+00 0.  1.
        -15    1    4    4    0    0  0.39898326906E+02 -0.82656927620E+02 -0.22514525481E+01  0.91810202113E+02  0.00000000000E+00 0.  1.
         15    1    4    4    0    0  0.22677433803E+03 -0.12538216683E+03 -0.16643326885E+02  0.25966187336E+03  0.00000000000E+00 0. -1.
         15    1    5    5    0    0  0.26753130192E+02 -0.17771907573E+02  0.48972399680E+02  0.58565063000E+02  0.00000000000E+00 0. -1.
        -16    1    3    3    0    0  0.12693379727E+03  0.28153478319E+03  0.26859300245E+03  0.40928745889E+03  0.00000000000E+00 0.  1.
         16    1    1    2    0    0 -0.41187049168E+03 -0.34761085049E+03  0.39368431133E+03  0.66742635720E+03  0.00000000000E+00 0. -1.
    9900018    1    1    2    0    0 -0.99583690036E+02  0.26676021267E+03  0.26349206312E+03  0.39852373594E+03  0.91187600000E+02 0.  0.
<mgrwt>
<rscale>  0 0.17417709E+04</rscale>
<asrwt>0</asrwt>
<pdfrwt beam="1">  1        2 0.22489326E+00 0.17417709E+04</pdfrwt>
<pdfrwt beam="2">  1       -2 0.79821323E-01 0.17417709E+04</pdfrwt>
<totfact> 0.17580380E+01</totfact>
</mgrwt>
</event>
<event>
12    1  0.3065082E-011  0.3187084E+04  0.7818608E-02  0.8192236E-01
          1   -1    0    0  501    0  0.00000000000E+00  0.00000000000E+00  0.31581043497E+04  0.31581043497E+04  0.00000000000E+00 0. -1.
         -1   -1    0    0    0  501 -0.00000000000E+00 -0.00000000000E+00 -0.80408263416E+03  0.80408263416E+03  0.00000000000E+00 0.  1.
    9900016    2    1    2    0    0 -0.45054209970E+03 -0.60510534892E+02  0.15258996469E+04  0.17472630448E+04  0.71965874314E+03 0.  0.
         23    2    3    3    0    0 -0.17368089409E+03 -0.14137434799E+03  0.34782678990E+03  0.42325072298E+03  0.89475915680E+02 0.  0.
         23    2    3    3    0    0 -0.82958753737E+02  0.29141748751E+03  0.64706344420E+03  0.72076941284E+03  0.94927018360E+02 0.  0.
        -15    1    5    5    0    0  0.42289220346E+01  0.43408798910E+02  0.39796807498E+02  0.59042302559E+02  0.00000000000E+00 0. -1.
        -15    1    4    4    0    0 -0.87243445695E+02 -0.41090083922E+02  0.83254930659E+02  0.12740171621E+03  0.00000000000E+00 0.  1.
         15    1    4    4    0    0 -0.86437448400E+02 -0.10028426407E+03  0.26457185924E+03  0.29584900677E+03  0.00000000000E+00 0. -1.
         15    1    5    5    0    0 -0.87187675771E+02  0.24800868860E+03  0.60726663670E+03  0.66172711028E+03  0.00000000000E+00 0.  1.
        -16    1    1    2    0    0  0.83123772273E+03  0.38807779644E+03 -0.30939252452E+03  0.96813442353E+03  0.00000000000E+00 0.  1.
         16    1    3    3    0    0 -0.19390245187E+03 -0.21055367442E+03  0.53100941284E+03  0.60324290893E+03  0.00000000000E+00 0. -1.
    9900018    1    1    2    0    0 -0.38069562303E+03 -0.32756726155E+03  0.11375145931E+04  0.12467895156E+04  0.91187600000E+02 0.  0.
<mgrwt>
<rscale>  0 0.31870845E+04</rscale>
<asrwt>0</asrwt>
<pdfrwt beam="1">  1        1 0.48586220E+00 0.31870845E+04</pdfrwt>
<pdfrwt beam="2">  1       -1 0.12370502E+00 0.31870845E+04</pdfrwt>
<totfact> 0.21957032E-01</totfact>
</mgrwt>
</event>
<event>
12    1  0.3065082E-011  0.9510303E+03  0.7818608E-02  0.9363947E-01
         -1   -1    0    0    0  501 -0.00000000000E+00  0.00000000000E+00  0.54580379033E+03  0.54580379033E+03  0.00000000000E+00 0.  1.
          1   -1    0    0  501    0  0.00000000000E+00 -0.00000000000E+00 -0.41427827254E+03  0.41427827254E+03  0.00000000000E+00 0. -1.
    9900016    2    1    2    0    0 -0.11040290306E+02 -0.36655450131E+02  0.13357370096E+03  0.71753400134E+03  0.70395141840E+03 0.  0.
         23    2    3    3    0    0 -0.10821524142E+02 -0.23637219395E+03 -0.87518224553E+02  0.26875192513E+03  0.92624177029E+02 0.  0.
         23    2    3    3    0    0 -0.14718794435E+03  0.57897967166E+02  0.13333380677E+03  0.22648949390E+03  0.92212370414E+02 0.  0.
        -15    1    5    5    0    0 -0.39414385908E+02 -0.21925417181E+02  0.55167521577E+02  0.71257793763E+02  0.00000000000E+00 0.  1.
        -15    1    4    4    0    0  0.10086305789E+02 -0.23099256161E+03 -0.71997616969E+02  0.24216307302E+03  0.00000000000E+00 0.  1.
         15    1    4    4    0    0 -0.20907829931E+02 -0.53796323412E+01 -0.15520607584E+02  0.26588852106E+02  0.00000000000E+00 0. -1.
         15    1    5    5    0    0 -0.10777355844E+03  0.79823384347E+02  0.78166285192E+02  0.15523170014E+03  0.00000000000E+00 0. -1.
        -16    1    1    2    0    0 -0.92770286449E+02  0.37987146934E+02  0.21100138003E+02  0.10244298514E+03  0.00000000000E+00 0.  1.
         16    1    3    3    0    0  0.14696917818E+03  0.14181877666E+03  0.87758118742E+02  0.22229258232E+03  0.00000000000E+00 0. -1.
    9900018    1    1    2    0    0  0.10381057675E+03 -0.13316968031E+01 -0.23148321166E+02  0.14010507639E+03  0.91187600000E+02 0.  0.
<mgrwt>
<rscale>  0 0.95103029E+03</rscale>
<asrwt>0</asrwt>
<pdfrwt beam="1">  1        1 0.63735118E-01 0.95103029E+03</pdfrwt>
<pdfrwt beam="2">  1       -1 0.83969814E-01 0.95103029E+03</pdfrwt>
<totfact> 0.80955291E+01</totfact>
</mgrwt>
</event>
<event>
12    1  0.3065082E-011  0.1229028E+04  0.7818608E-02  0.9087821E-01
         -1   -1    0    0    0  501 -0.00000000000E+00  0.00000000000E+00  0.14362109405E+03  0.14362109405E+03  0.00000000000E+00 0.  1.
          1   -1    0    0  501    0  0.00000000000E+00 -0.00000000000E+00 -0.26293306994E+04  0.26293306994E+04  0.00000000000E+00 0. -1.
    9900016    2    1    2    0    0  0.10832037159E+03  0.23963541623E+03 -0.16070867008E+04  0.17752093631E+04  0.70674053467E+03 0.  0.
         23    2    3    3    0    0  0.55490346971E+02  0.12588791525E+03 -0.11034777992E+03  0.19819021896E+03  0.90420045046E+02 0.  0.
         23    2    3    3    0    0  0.18857703344E+03  0.72446386404E+02 -0.30795118567E+03  0.37979347123E+03  0.92732796753E+02 0.  0.
        -15    1    5    5    0    0  0.51344432259E+02 -0.18408031409E+02 -0.10653406870E+03  0.11968548006E+03  0.00000000000E+00 0. -1.
        -15    1    4    4    0    0  0.76643917500E+02  0.10994470136E+03 -0.10698779384E+03  0.17148911183E+03  0.00000000000E+00 0. -1.
         15    1    4    4    0    0 -0.21153570529E+02  0.15943213892E+02 -0.33599860735E+01  0.26701107126E+02  0.00000000000E+00 0.  1.
         15    1    5    5    0    0  0.13723260118E+03  0.90854417813E+02 -0.20141711697E+03  0.26010799117E+03  0.00000000000E+00 0.  1.
        -16    1    1    2    0    0 -0.10229367902E+03 -0.30530356872E+03 -0.44195770708E+03  0.54680972988E+03  0.00000000000E+00 0.  1.
         16    1    3    3    0    0 -0.13574700881E+03  0.41301114580E+02 -0.11887877353E+04  0.11972256730E+04  0.00000000000E+00 0. -1.
    9900018    1    1    2    0    0 -0.60266925771E+01  0.65668152485E+02 -0.43666519743E+03  0.45093270043E+03  0.91187600000E+02 0.  0.
<mgrwt>
<rscale>  0 0.12290278E+04</rscale>
<asrwt>0</asrwt>
<pdfrwt beam="1">  1        1 0.40451238E+00 0.12290278E+04</pdfrwt>
<pdfrwt beam="2">  1       -1 0.22095555E-01 0.12290278E+04</pdfrwt>
<totfact> 0.18931674E+01</totfact>
</mgrwt>
</event>
<event>
12    1  0.3065082E-011  0.1573028E+04  0.7818608E-02  0.8837291E-01
          1   -1    0    0  501    0  0.00000000000E+00  0.00000000000E+00  0.70721652958E+03  0.70721652958E+03  0.00000000000E+00 0. -1.
         -1   -1    0    0    0  501 -0.00000000000E+00 -0.00000000000E+00 -0.87470318708E+03  0.87470318708E+03  0.00000000000E+00 0.  1.
    9900016    2    1    2    0    0 -0.44116975805E+02 -0.16094045179E+03  0.21717343074E+03  0.77338630941E+03  0.72326616677E+03 0.  0.
         23    2    3    3    0    0  0.68749169185E+02  0.12956426492E+03  0.22150314934E+03  0.28009591084E+03  0.88750927286E+02 0.  0.
         23    2    3    3    0    0 -0.40401681653E+02 -0.47010271718E+02 -0.16076286526E+03  0.19494165538E+03  0.91188204432E+02 0.  0.
        -15    1    4    4    0    0  0.10268218685E+02  0.73048038304E+02  0.46716095494E+02  0.87314636764E+02  0.00000000000E+00 0.  1.
        -15    1    5    5    0    0  0.22825996072E+02 -0.36552225145E+02 -0.87965672833E+02  0.97954330464E+02  0.00000000000E+00 0.  1.
         15    1    4    4    0    0  0.58480950499E+02  0.56516226618E+02  0.17478705385E+03  0.19278127408E+03  0.00000000000E+00 0. -1.
         15    1    5    5    0    0 -0.63227677726E+02 -0.10458046573E+02 -0.72797192430E+02  0.96987324916E+02  0.00000000000E+00 0. -1.
        -16    1    1    2    0    0 -0.17544245176E+03  0.13363755103E+03 -0.49732564136E+03  0.54403294246E+03  0.00000000000E+00 0.  1.
         16    1    3    3    0    0 -0.72464463336E+02 -0.24349444499E+03  0.15643314666E+03  0.29834874319E+03  0.00000000000E+00 0. -1.
    9900018    1    1    2    0    0  0.21955942756E+03  0.27302900762E+02  0.11266555312E+03  0.26450046479E+03  0.91187600000E+02 0.  0.
<mgrwt>
<rscale>  0 0.15730284E+04</rscale>
<asrwt>0</asrwt>
<pdfrwt beam="1">  1        1 0.10880254E+00 0.15730284E+04</pdfrwt>
<pdfrwt beam="2">  1       -1 0.13456972E+00 0.15730284E+04</pdfrwt>
<totfact> 0.11981056E+01</totfact>
</mgrwt>
</event>
<event>
12    1  0.3065082E-011  0.2389999E+04  0.7818608E-02  0.8443257E-01
          2   -1    0    0  501    0  0.00000000000E+00  0.00000000000E+00  0.30479313050E+04  0.30479313050E+04  0.00000000000E+00 0.  1.
         -2   -1    0    0    0  501 -0.00000000000E+00 -0.00000000000E+00 -0.46852216376E+03  0.46852216376E+03  0.00000000000E+00 0. -1.
    9900016    2    1    2    0    0  0.98945577975E+01  0.37294372438E+03  0.12663589751E+04  0.15010559038E+04  0.71436604657E+03 0.  0.
         23    2    3    3    0    0  0.72831599712E+02  0.70496316604E+02  0.13729963674E+03  0.19445116446E+03  0.93198135926E+02 0.  0.
         23    2    3    3    0    0  0.15070576197E+03  0.35510008329E+03  0.48655707966E+03  0.62746947709E+03  0.90398324503E+02 0.  0.
        -15    1    4    4    0    0  0.46121319275E+02  0.56214829433E+01  0.10956557742E+03  0.11901005385E+03  0.00000000000E+00 0. -1.
        -15    1    5    5    0    0  0.15498715625E+03  0.29755530354E+03  0.44004962270E+03  0.55335688999E+03  0.00000000000E+00 0.  1.
         15    1    4    4    0    0  0.26710280437E+02  0.64874833661E+02  0.27734059316E+02  0.75441110607E+02  0.00000000000E+00 0.  1.
         15    1    5    5    0    0 -0.42813942789E+01  0.57544779755E+02  0.46507456967E+02  0.74112587106E+02  0.00000000000E+00 0. -1.
        -16    1    3    3    0    0 -0.21364280388E+03 -0.52652675520E+02  0.64250225875E+03  0.67913526222E+03  0.00000000000E+00 0.  1.
         16    1    1    2    0    0 -0.42921634817E+03 -0.49332913056E+03  0.27177408738E+02  0.65447606232E+03  0.00000000000E+00 0. -1.
    9900018    1    1    2    0    0  0.41932179037E+03  0.12038540619E+03  0.12858727573E+04  0.13609215026E+04  0.91187600000E+02 0.  0.
<mgrwt>
<rscale>  0 0.23899986E+04</rscale>
<asrwt>0</asrwt>
<pdfrwt beam="1">  1        2 0.46891250E+00 0.23899986E+04</pdfrwt>
<pdfrwt beam="2">  1       -2 0.72080335E-01 0.23899986E+04</pdfrwt>
<totfact> 0.25496396E+00</totfact>
</mgrwt>
</event>
<event>
12    1  0.3065082E-011  0.1117665E+04  0.7818608E-02  0.9188143E-01
         -2   -1    0    0    0  501 -0.00000000000E+00  0.00000000000E+00  0.81999382301E+03  0.81999382301E+03  0.00000000000E+00 0.  1.
          2   -1    0    0  501    0  0.00000000000E+00 -0.00000000000E+00 -0.38084906050E+03  0.38084906050E+03  0.00000000000E+00 0. -1.
    9900016    2    1    2    0    0  0.20010922580E+03 -0.70318424276E+02  0.37265745500E+03  0.83523933939E+03  0.71677248291E+03 0.  0.
         23    2    3    3    0    0 -0.79049576544E+02 -0.20751847000E+02  0.22175103289E+02  0.12672984672E+03  0.94282788128E+02 0.  0.
         23    2    3    3    0    0  0.14023694039E+03 -0.13330319092E+03 -0.97986750002E+02  0.23160736499E+03  0.81267633054E+02 0.  0.
        -15    1    4    4    0    0 -0.12904935144E+02 -0.10112683440E+02  0.51168047674E+02  0.53730557602E+02  0.00000000000E+00 0.  1.
        -15    1    5    5    0    0  0.27747278800E+02 -0.76704776311E+02 -0.55693932350E+02  0.98769166698E+02  0.00000000000E+00 0. -1.
         15    1    4    4    0    0 -0.66144641400E+02 -0.10639163561E+02 -0.28992944385E+02  0.72999289115E+02  0.00000000000E+00 0. -1.
         15    1    5    5    0    0  0.11248966159E+03 -0.56598414614E+02 -0.42292817652E+02  0.13283819829E+03  0.00000000000E+00 0.  1.
        -16    1    3    3    0    0  0.13892186196E+03  0.83736613649E+02  0.44846910172E+03  0.47690212769E+03  0.00000000000E+00 0.  1.
         16    1    1    2    0    0 -0.17455324396E+03  0.15118272236E+03  0.16813771615E+02  0.23153348231E+03  0.00000000000E+00 0. -1.
    9900018    1    1    2    0    0 -0.25555981847E+02 -0.80864298081E+02  0.49673535889E+02  0.13407006181E+03  0.91187600000E+02 0.  0.
<mgrwt>
<rscale>  0 0.11176652E+04</rscale>
<asrwt>0</asrwt>
<pdfrwt beam="1">  1        2 0.58592163E-01 0.11176652E+04</pdfrwt>
<pdfrwt beam="2">  1       -2 0.12615290E+00 0.11176652E+04</pdfrwt>
<totfact> 0.39033174E+01</totfact>
</mgrwt>
</event>
<event>
12    1  0.3065082E-011  0.1537508E+04  0.7818608E-02  0.8859887E-01
         -2   -1    0    0    0  501 -0.00000000000E+00  0.00000000000E+00  0.14713196277E+04  0.14713196277E+04  0.00000000000E+00 0.  1.
          2   -1    0    0  501    0  0.00000000000E+00 -0.00000000000E+00 -0.40166841793E+03  0.40166841793E+03  0.00000000000E+00 0. -1.
    9900016    2    1    2    0    0  0.10470881101E+03 -0.34762422066E+02  0.91799944051E+03  0.11593296795E+04  0.69939257350E+03 0.  0.
         23    2    3    3    0    0  0.10294215159E+03 -0.14241530379E+03  0.46181513523E+03  0.50271840735E+03  0.92592508526E+02 0.  0.
         23    2    3    3    0    0 -0.14232229620E+03  0.17355519564E+02  0.45509595319E+03  0.48656296942E+03  0.95259364641E+02 0.  0.
        -15    1    4    4    0    0  0.96405709293E+02 -0.94772649600E+02  0.41141544784E+03  0.43305725558E+03  0.00000000000E+00 0.  1.
        -15    1    5    5    0    0 -0.67266493152E+02  0.25765719147E+02  0.98333867706E+02  0.12189422842E+03  0.00000000000E+00 0.  1.
         15    1    4    4    0    0  0.65364422968E+01 -0.47642654189E+02  0.50399687395E+02  0.69661151767E+02  0.00000000000E+00 0. -1.
         15    1    5    5    0    0 -0.75055803049E+02 -0.84101995822E+01  0.35676208548E+03  0.36466874100E+03  0.00000000000E+00 0. -1.
        -16    1    1    2    0    0  0.39464687846E+02 -0.11735733928E+03 -0.23435819438E+03  0.26505465463E+03  0.00000000000E+00 0.  1.
         16    1    3    3    0    0  0.14408895562E+03  0.90297362158E+02  0.10883520961E+01  0.17004830271E+03  0.00000000000E+00 0. -1.
    9900018    1    1    2    0    0 -0.14417349886E+03  0.15211976135E+03  0.38600996359E+03  0.44860371147E+03  0.91187600000E+02 0.  0.
<mgrwt>
<rscale>  0 0.15375079E+04</rscale>
<asrwt>0</asrwt>
<pdfrwt beam="1">  1        2 0.61795142E-01 0.15375079E+04</pdfrwt>
<pdfrwt beam="2">  1       -2 0.22635686E+00 0.15375079E+04</pdfrwt>
<totfact> 0.68687456E+00</totfact>
</mgrwt>
</event>
<event>
12    1  0.3065082E-011  0.2760541E+04  0.7818608E-02  0.8315625E-01
         -1   -1    0    0    0  501 -0.00000000000E+00  0.00000000000E+00  0.14582200307E+04  0.14582200307E+04  0.00000000000E+00 0.  1.
          1   -1    0    0  501    0  0.00000000000E+00 -0.00000000000E+00 -0.13064873913E+04  0.13064873913E+04  0.00000000000E+00 0. -1.
    9900016    2    1    2    0    0  0.48624764657E+02  0.42340248628E+03  0.25117409810E+03  0.84672946849E+03  0.68718871653E+03 0.  0.
         23    2    3    3    0    0  0.20931331166E+02  0.22272103237E+03 -0.10596092944E+03  0.26269175722E+03  0.87957159221E+02 0.  0.
         23    2    3    3    0    0 -0.15970771026E+03  0.64418107349E+02  0.27569789194E+03  0.33843865723E+03  0.94208024136E+02 0.  0.
        -15    1    5    5    0    0 -0.16340840232E+02 -0.19669232580E+02  0.66535081643E+02  0.71279862928E+02  0.00000000000E+00 0. -1.
        -15    1    4    4    0    0  0.52576236056E+02  0.11351458682E+03 -0.70470808458E+02  0.14358257855E+03  0.00000000000E+00 0. -1.
         15    1    4    4    0    0 -0.31644904891E+02  0.10920644555E+03 -0.35490120978E+02  0.11910917867E+03  0.00000000000E+00 0.  1.
         15    1    5    5    0    0 -0.14336687003E+03  0.84087339929E+02  0.20916281030E+03  0.26715879430E+03  0.00000000000E+00 0.  1.
        -16    1    3    3    0    0  0.18740114375E+03  0.13626334656E+03  0.81437135592E+02  0.24559905405E+03  0.00000000000E+00 0.  1.
         16    1    1    2    0    0 -0.58651707272E+03 -0.92492798218E+03 -0.32661512562E+03  0.11428785977E+04  0.00000000000E+00 0. -1.
    9900018    1    1    2    0    0  0.53789230806E+03  0.50152549590E+03  0.22717366687E+03  0.77509935584E+03  0.91187600000E+02 0.  0.
<mgrwt>
<rscale>  0 0.27605406E+04</rscale>
<asrwt>0</asrwt>
<pdfrwt beam="1">  1        1 0.20099806E+00 0.27605406E+04</pdfrwt>
<pdfrwt beam="2">  1       -1 0.22434154E+00 0.27605406E+04</pdfrwt>
<totfact> 0.80022162E-01</totfact>
</mgrwt>
</event>
<event>
12    1  0.3065082E-011  0.1696426E+04  0.7818608E-02  0.8763405E-01
          2   -1    0    0  501    0  0.00000000000E+00  0.00000000000E+00  0.11329538909E+04  0.11329538909E+04  0.00000000000E+00 0. -1.
         -2   -1    0    0    0  501 -0.00000000000E+00 -0.00000000000E+00 -0.63503503974E+03  0.63503503974E+03  0.00000000000E+00 0.  1.
    9900016    2    1    2    0    0 -0.10016853397E+03  0.15853913043E+03  0.38652985302E+03  0.84346514653E+03  0.72585104193E+03 0.  0.
         23    2    3    3    0    0 -0.26147134633E+03  0.32555993118E+03  0.27659090971E+03  0.50971037527E+03  0.94581190432E+02 0.  0.
         23    2    3    3    0    0  0.18415519216E+03 -0.90293179904E+02  0.11718834474E+03  0.25336874707E+03  0.91633076508E+02 0.  0.
        -15    1    4    4    0    0 -0.35726325273E+02  0.88163994205E+02  0.98090792511E+02  0.13664210101E+03  0.00000000000E+00 0. -1.
        -15    1    5    5    0    0  0.12348567841E+03 -0.11395527292E+02  0.77404249238E+02  0.14618477559E+03  0.00000000000E+00 0. -1.
         15    1    4    4    0    0 -0.22574502106E+03  0.23739593698E+03  0.17850011720E+03  0.37306827427E+03  0.00000000000E+00 0.  1.
         15    1    5    5    0    0  0.60669513754E+02 -0.78897652612E+02  0.39784095501E+02  0.10718397148E+03  0.00000000000E+00 0.  1.
        -16    1    3    3    0    0 -0.22852379807E+02 -0.76727620847E+02 -0.72494014358E+01  0.80386024189E+02  0.00000000000E+00 0.  1.
         16    1    1    2    0    0  0.22814632436E+03  0.15556221324E+03  0.38885741814E+03  0.47692812786E+03  0.00000000000E+00 0. -1.
    9900018    1    1    2    0    0 -0.12797779039E+03 -0.31410134367E+03 -0.27746842005E+03  0.44759565620E+03  0.91187600000E+02 0.  0.
<mgrwt>
<rscale>  0 0.16964261E+04</rscale>
<asrwt>0</asrwt>
<pdfrwt beam="1">  1        2 0.17430060E+00 0.16964261E+04</pdfrwt>
<pdfrwt beam="2">  1       -2 0.97697699E-01 0.16964261E+04</pdfrwt>
<totfact> 0.17275992E+01</totfact>
</mgrwt>
</event>
<event>
12    1  0.3065082E-011  0.1441695E+04  0.7818608E-02  0.8924178E-01
         -1   -1    0    0    0  501 -0.00000000000E+00  0.00000000000E+00  0.33238562830E+03  0.33238562830E+03  0.00000000000E+00 0.  1.
          1   -1    0    0  501    0  0.00000000000E+00 -0.00000000000E+00 -0.15633085613E+04  0.15633085613E+04  0.00000000000E+00 0. -1.
    9900016    2    1    2    0    0 -0.46473898742E+02  0.19055803518E+03 -0.58182178128E+03  0.94370950258E+03  0.71665811379E+03 0.  0.
         23    2    3    3    0    0 -0.63065140416E+02 -0.12694725077E+03 -0.30292830034E+01  0.16900778272E+03  0.91987160252E+02 0.  0.
         23    2    3    3    0    0 -0.51443882109E+02 -0.41216097328E+02 -0.19158701537E+02  0.10649531811E+03  0.81418408542E+02 0.  0.
        -15    1    5    5    0    0 -0.31097399592E+02 -0.61556316866E+02 -0.30708966976E+02  0.75493503431E+02  0.00000000000E+00 0. -1.
        -15    1    4    4    0    0  0.10707912686E+02  0.88699194532E+01 -0.39156862922E+01  0.14445326730E+02  0.00000000000E+00 0. -1.
         15    1    4    4    0    0 -0.73773053102E+02 -0.13581717022E+03  0.88640328879E+00  0.15456245599E+03  0.00000000000E+00 0.  1.
         15    1    5    5    0    0 -0.20346482517E+02  0.20340219538E+02  0.11550265439E+02  0.31001814680E+02  0.00000000000E+00 0.  1.
        -16    1    3    3    0    0  0.68035123783E+02  0.35872138328E+03 -0.55963379674E+03  0.66820640175E+03  0.00000000000E+00 0.  1.
         16    1    1    2    0    0 -0.21708103898E+03 -0.25500480033E+03 -0.55947690418E+03  0.65204756881E+03  0.00000000000E+00 0. -1.
    9900018    1    1    2    0    0  0.26355493772E+03  0.64446765150E+02 -0.89624247542E+02  0.29993711820E+03  0.91187600000E+02 0.  0.
<mgrwt>
<rscale>  0 0.14416952E+04</rscale>
<asrwt>0</asrwt>
<pdfrwt beam="1">  1        1 0.24050901E+00 0.14416952E+04</pdfrwt>
<pdfrwt beam="2">  1       -1 0.51136251E-01 0.14416952E+04</pdfrwt>
<totfact> 0.22100937E+01</totfact>
</mgrwt>
</event>
<event>
12    1  0.3065082E-011  0.2070958E+04  0.7818608E-02  0.8574146E-01
         -2   -1    0    0    0  501 -0.00000000000E+00  0.00000000000E+00  0.77903673348E+03  0.77903673348E+03  0.00000000000E+00 0.  1.
          2   -1    0    0  501    0  0.00000000000E+00 -0.00000000000E+00 -0.13763365534E+04  0.13763365534E+04  0.00000000000E+00 0. -1.
    9900016    2    1    2    0    0  0.47840915311E+02 -0.71535376750E+02 -0.68065045391E+03  0.98461237437E+03  0.70623680451E+03 0.  0.
         23    2    3    3    0    0 -0.41942137437E+02  0.15310278652E+03 -0.13074486859E+03  0.22472430093E+03  0.90593513190E+02 0.  0.
         23    2    3    3    0    0 -0.11161860330E+03 -0.16781041687E+03 -0.62924644348E+02  0.22984802147E+03  0.90838061944E+02 0.  0.
        -15    1    5    5    0    0  0.84000004098E+01 -0.29871726505E+02  0.10578516470E+02  0.32783914683E+02  0.00000000000E+00 0.  1.
        -15    1    4    4    0    0 -0.58496456065E+02  0.98099870824E+02 -0.12112663875E+03  0.16648448168E+03  0.00000000000E+00 0. -1.
         15    1    4    4    0    0  0.16554318628E+02  0.55002915694E+02 -0.96182298452E+01  0.58239819243E+02  0.00000000000E+00 0.  1.
         15    1    5    5    0    0 -0.12001860371E+03 -0.13793869036E+03 -0.73503160818E+02  0.19706410679E+03  0.00000000000E+00 0. -1.
        -16    1    1    2    0    0  0.85317645557E+02  0.31737763260E+03  0.53732193513E+03  0.62985913052E+03  0.00000000000E+00 0.  1.
         16    1    3    3    0    0  0.20140165605E+03 -0.56827746401E+02 -0.48698094097E+03  0.53004005197E+03  0.00000000000E+00 0. -1.
    9900018    1    1    2    0    0 -0.13315856087E+03 -0.24584225585E+03 -0.45397130112E+03  0.54090178196E+03  0.91187600000E+02 0.  0.
<mgrwt>
<rscale>  0 0.20709580E+04</rscale>
<asrwt>0</asrwt>
<pdfrwt beam="1">  1        2 0.21174409E+00 0.20709580E+04</pdfrwt>
<pdfrwt beam="2">  1       -2 0.11985180E+00 0.20709580E+04</pdfrwt>
<totfact> 0.73473257E+00</totfact>
</mgrwt>
</event>
<event>
12    1  0.3065082E-011  0.2309965E+04  0.7818608E-02  0.8474002E-01
          2   -1    0    0  501    0  0.00000000000E+00  0.00000000000E+00  0.21060477861E+04  0.21060477861E+04  0.00000000000E+00 0. -1.
         -2   -1    0    0    0  501 -0.00000000000E+00 -0.00000000000E+00 -0.63340676813E+03  0.63340676813E+03  0.00000000000E+00 0.  1.
    9900016    2    1    2    0    0 -0.31653751764E+03  0.18550964883E+03  0.24786292193E+03  0.83135772774E+03  0.70364040072E+03 0.  0.
         23    2    3    3    0    0  0.14733995285E+03  0.12819004520E+03  0.19567724917E+03  0.29049922092E+03  0.89210213085E+02 0.  0.
         23    2    3    3    0    0 -0.30572339182E+02  0.98401935178E+01 -0.73962845545E+01  0.10090664487E+03  0.95372682784E+02 0.  0.
        -15    1    5    5    0    0  0.15444723017E+02  0.39640244176E+02  0.93981072163E+01  0.43568484557E+02  0.00000000000E+00 0.  1.
        -15    1    4    4    0    0  0.10507220895E+02  0.22284631798E+02  0.76575016113E+02  0.80440907491E+02  0.00000000000E+00 0.  1.
         15    1    4    4    0    0  0.13683273195E+03  0.10590541340E+03  0.11910223306E+03  0.21005831343E+03  0.00000000000E+00 0. -1.
         15    1    5    5    0    0 -0.46017062199E+02 -0.29800050658E+02 -0.16794391771E+02  0.57338160308E+02  0.00000000000E+00 0. -1.
        -16    1    3    3    0    0 -0.43330513130E+03  0.47479410117E+02  0.59581957312E+02  0.43995186195E+03  0.00000000000E+00 0.  1.
         16    1    1    2    0    0  0.50331674608E+03 -0.43532468834E+03  0.13918047768E+04  0.15427105587E+04  0.00000000000E+00 0. -1.
    9900018    1    1    2    0    0 -0.18677922844E+03  0.24981503951E+03 -0.16702668084E+03  0.36538626773E+03  0.91187600000E+02 0.  0.
<mgrwt>
<rscale>  0 0.23099653E+04</rscale>
<asrwt>0</asrwt>
<pdfrwt beam="1">  1        2 0.32400735E+00 0.23099653E+04</pdfrwt>
<pdfrwt beam="2">  1       -2 0.97447196E-01 0.23099653E+04</pdfrwt>
<totfact> 0.46367740E+00</totfact>
</mgrwt>
</event>
<event>
12    1  0.3065082E-011  0.2523770E+04  0.7818608E-02  0.8394566E-01
         -2   -1    0    0    0  501 -0.00000000000E+00  0.00000000000E+00  0.37122824986E+03  0.37122824986E+03  0.00000000000E+00 0.  1.
          2   -1    0    0  501    0  0.00000000000E+00 -0.00000000000E+00 -0.42894212257E+04  0.42894212257E+04  0.00000000000E+00 0. -1.
    9900016    2    1    2    0    0 -0.15645115379E+03 -0.73925581224E+02 -0.10772309615E+04  0.12961901897E+04  0.69981462429E+03 0.  0.
         23    2    3    3    0    0 -0.84648193118E+02 -0.19738227167E+03 -0.71208225894E+03  0.74906866751E+03  0.88981163053E+02 0.  0.
         23    2    3    3    0    0 -0.13684934209E+03  0.19140455483E+03 -0.11038972867E+03  0.27555186485E+03  0.91539565156E+02 0.  0.
        -15    1    5    5    0    0 -0.33957312474E+02  0.23283503292E+02 -0.58839815232E+02  0.71814653467E+02  0.00000000000E+00 0.  1.
        -15    1    4    4    0    0 -0.53813648209E+02 -0.10095942914E+03 -0.23505933341E+03  0.26142227390E+03  0.00000000000E+00 0. -1.
         15    1    4    4    0    0 -0.30834544909E+02 -0.96422842529E+02 -0.47702292553E+03  0.48764639361E+03  0.00000000000E+00 0.  1.
         15    1    5    5    0    0 -0.10289202962E+03  0.16812105153E+03 -0.51549913436E+02  0.20373721138E+03  0.00000000000E+00 0. -1.
        -16    1    1    2    0    0 -0.63403789626E+03 -0.44526496657E+03 -0.80263943558E+03  0.11155693649E+04  0.00000000000E+00 0.  1.
         16    1    3    3    0    0  0.65046381422E+02 -0.67947864377E+02 -0.25475897384E+03  0.27156965730E+03  0.00000000000E+00 0. -1.
    9900018    1    1    2    0    0  0.79048905004E+03  0.51919054779E+03 -0.20383225788E+04  0.22488899210E+04  0.91187600000E+02 0.  0.
<mgrwt>
<rscale>  0 0.25237705E+04</rscale>
<asrwt>0</asrwt>
<pdfrwt beam="1">  1        2 0.65991094E+00 0.25237705E+04</pdfrwt>
<pdfrwt beam="2">  1       -2 0.57112040E-01 0.25237705E+04</pdfrwt>
<totfact> 0.49816151E-01</totfact>
</mgrwt>
</event>
<event>
12    1  0.3065082E-011  0.1043946E+04  0.7818608E-02  0.9261617E-01
         -2   -1    0    0    0  501 -0.00000000000E+00  0.00000000000E+00  0.24408519953E+03  0.24408519953E+03  0.00000000000E+00 0.  1.
          2   -1    0    0  501    0  0.00000000000E+00 -0.00000000000E+00 -0.11162328325E+04  0.11162328325E+04  0.00000000000E+00 0. -1.
    9900016    2    1    2    0    0  0.22664215839E+03 -0.21942561105E+02 -0.68070478947E+03  0.10272122968E+04  0.73481830972E+03 0.  0.
         23    2    3    3    0    0  0.26793314453E+02 -0.12385760095E+03  0.80925853694E+02  0.17581549646E+03  0.91123586349E+02 0.  0.
         23    2    3    3    0    0  0.25744372586E+03  0.11351099043E+03 -0.72318416285E+03  0.78118449127E+03  0.89954761263E+02 0.  0.
        -15    1    4    4    0    0  0.45681025643E+02 -0.11805316951E+03  0.44139532706E+02  0.13405821602E+03  0.00000000000E+00 0.  1.
        -15    1    5    5    0    0  0.40681374977E+02  0.10483306225E+02 -0.21643975648E+03  0.22047911957E+03  0.00000000000E+00 0. -1.
         15    1    4    4    0    0 -0.18887711191E+02 -0.58044314387E+01  0.36786320988E+02  0.41757280445E+02  0.00000000000E+00 0. -1.
         15    1    5    5    0    0  0.21676235088E+03  0.10302768420E+03 -0.50674440637E+03  0.56070537170E+03  0.00000000000E+00 0.  1.
        -16    1    1    2    0    0 -0.52111750941E+02 -0.33618253465E+02 -0.17185628949E+02  0.64351902805E+02  0.00000000000E+00 0.  1.
         16    1    3    3    0    0 -0.57594881919E+02 -0.11595950588E+02 -0.38446480317E+02  0.70212309050E+02  0.00000000000E+00 0. -1.
    9900018    1    1    2    0    0 -0.17453040745E+03  0.55560814570E+02 -0.17425721460E+03  0.26875383248E+03  0.91187600000E+02 0.  0.
<mgrwt>
<rscale>  0 0.10439462E+04</rscale>
<asrwt>0</asrwt>
<pdfrwt beam="1">  1        2 0.17172813E+00 0.10439462E+04</pdfrwt>
<pdfrwt beam="2">  1       -2 0.37551569E-01 0.10439462E+04</pdfrwt>
<totfact> 0.14170771E+02</totfact>
</mgrwt>
</event>
<event>
12    1  0.3065082E-011  0.1848254E+04  0.7818608E-02  0.8681051E-01
         -1   -1    0    0    0  501 -0.00000000000E+00  0.00000000000E+00  0.12874259350E+04  0.12874259350E+04  0.00000000000E+00 0.  1.
          1   -1    0    0  501    0  0.00000000000E+00 -0.00000000000E+00 -0.66334780267E+03  0.66334780267E+03  0.00000000000E+00 0. -1.
    9900016    2    1    2    0    0 -0.14150828151E+03  0.27760123367E+03  0.11059390972E+03  0.79007522952E+03  0.71756589715E+03 0.  0.
         23    2    3    3    0    0  0.90942792432E+02  0.18034409593E+03 -0.16706364255E+03  0.27636444646E+03  0.87592592008E+02 0.  0.
         23    2    3    3    0    0 -0.21268209360E+02 -0.10377536946E+03  0.91782061610E+02  0.16793344246E+03  0.92498812021E+02 0.  0.
        -15    1    4    4    0    0  0.29713480415E+02  0.56910914861E+02 -0.10971985261E+03  0.12712273284E+03  0.00000000000E+00 0.  1.
        -15    1    5    5    0    0  0.12175231742E+02 -0.97565574793E+02  0.40369868925E+02  0.10628736505E+03  0.00000000000E+00 0.  1.
         15    1    4    4    0    0  0.61229312016E+02  0.12343318107E+03 -0.57343789935E+02  0.14924171362E+03  0.00000000000E+00 0. -1.
         15    1    5    5    0    0 -0.33443441101E+02 -0.62097946681E+01  0.51412192685E+02  0.61646077403E+02  0.00000000000E+00 0. -1.
        -16    1    3    3    0    0 -0.21118286459E+03  0.20103250720E+03  0.18587549066E+03  0.34577734060E+03  0.00000000000E+00 0.  1.
         16    1    1    2    0    0 -0.31993154717E+03  0.19455580787E+03  0.18036868399E+03  0.41562124514E+03  0.00000000000E+00 0. -1.
    9900018    1    1    2    0    0  0.46143982869E+03 -0.47215704154E+03  0.33311553859E+03  0.74507726298E+03  0.91187600000E+02 0.  0.
<mgrwt>
<rscale>  0 0.18482545E+04</rscale>
<asrwt>0</asrwt>
<pdfrwt beam="1">  1        1 0.10205351E+00 0.18482545E+04</pdfrwt>
<pdfrwt beam="2">  1       -1 0.19806553E+00 0.18482545E+04</pdfrwt>
<totfact> 0.43091087E+00</totfact>
</mgrwt>
</event>
<event>
12    1  0.3065082E-011  0.1819394E+04  0.7818608E-02  0.8696054E-01
         -2   -1    0    0    0  501 -0.00000000000E+00  0.00000000000E+00  0.46859021674E+03  0.46859021674E+03  0.00000000000E+00 0. -1.
          2   -1    0    0  501    0  0.00000000000E+00 -0.00000000000E+00 -0.17660387676E+04  0.17660387676E+04  0.00000000000E+00 0.  1.
    9900016    2    1    2    0    0 -0.76792829731E+02 -0.36852751196E+03 -0.59169587430E+03  0.99337123855E+03  0.70354299382E+03 0.  0.
         23    2    3    3    0    0  0.52690736120E+02 -0.83155581243E+02 -0.22561782337E+03  0.26141783682E+03  0.88004084122E+02 0.  0.
         23    2    3    3    0    0 -0.10507627505E+03  0.10443528432E+03  0.29116836421E+02  0.17632368716E+03  0.91074147266E+02 0.  0.
        -15    1    5    5    0    0 -0.21684776005E+02 -0.96136859020E+01 -0.15294282008E+02  0.28223527936E+02  0.00000000000E+00 0. -1.
        -15    1    4    4    0    0  0.16262196370E+01 -0.56133629300E+02 -0.17768816447E+03  0.18635104701E+03  0.00000000000E+00 0.  1.
         15    1    4    4    0    0  0.51064516483E+02 -0.27021951943E+02 -0.47929658895E+02  0.75066789809E+02  0.00000000000E+00 0. -1.
         15    1    5    5    0    0 -0.83391499045E+02  0.11404897022E+03  0.44411118428E+02  0.14810015922E+03  0.00000000000E+00 0.  1.
        -16    1    3    3    0    0 -0.24407290802E+02 -0.38980721503E+03 -0.39519488735E+03  0.55562971458E+03  0.00000000000E+00 0.  1.
         16    1    1    2    0    0 -0.53184182563E+02  0.53598128186E+03 -0.43979988677E+02  0.54040607989E+03  0.00000000000E+00 0. -1.
    9900018    1    1    2    0    0  0.12997701229E+03 -0.16745376990E+03 -0.66177268787E+03  0.70085166589E+03  0.91187600000E+02 0.  0.
<mgrwt>
<rscale>  0 0.18193938E+04</rscale>
<asrwt>0</asrwt>
<pdfrwt beam="1">  1        2 0.27169827E+00 0.18193938E+04</pdfrwt>
<pdfrwt beam="2">  1       -2 0.72090802E-01 0.18193938E+04</pdfrwt>
<totfact> 0.14801971E+01</totfact>
</mgrwt>
</event>
<event>
12    1  0.3065082E-011  0.1365659E+04  0.7818608E-02  0.8979059E-01
          1   -1    0    0  501    0  0.00000000000E+00  0.00000000000E+00  0.88571747390E+03  0.88571747390E+03  0.00000000000E+00 0. -1.
         -1   -1    0    0    0  501 -0.00000000000E+00 -0.00000000000E+00 -0.52641595863E+03  0.52641595863E+03  0.00000000000E+00 0.  1.
    9900016    2    1    2    0    0 -0.21641177773E+03 -0.14243002481E+03 -0.33330777267E+02  0.75109738060E+03  0.70421301104E+03 0.  0.
         23    2    3    3    0    0  0.32717299741E+02 -0.22373368285E+02  0.21723557649E+02  0.10051631598E+03  0.89780997489E+02 0.  0.
         23    2    3    3    0    0  0.11563312967E+03 -0.22163309820E+03  0.83249005401E+01  0.26667200149E+03  0.92479195037E+02 0.  0.
        -15    1    4    4    0    0 -0.85041920568E+01  0.53822140653E+01 -0.28280640623E+02  0.30018063642E+02  0.00000000000E+00 0.  1.
        -15    1    5    5    0    0  0.48050675488E+02 -0.24021576349E+02 -0.16874908824E+02  0.56308668009E+02  0.00000000000E+00 0. -1.
         15    1    4    4    0    0  0.41221491798E+02 -0.27755582351E+02  0.50004198271E+02  0.70498252336E+02  0.00000000000E+00 0. -1.
         15    1    5    5    0    0  0.67582454186E+02 -0.19761152185E+03  0.25199809364E+02  0.21036333348E+03  0.00000000000E+00 0.  1.
        -16    1    1    2    0    0  0.16121732091E+02  0.85812146633E+02 -0.91347675872E+02  0.12636468115E+03  0.00000000000E+00 0.  1.
         16    1    3    3    0    0 -0.36476220715E+03  0.10157644167E+03 -0.63379235456E+02  0.38390906313E+03  0.00000000000E+00 0. -1.
    9900018    1    1    2    0    0  0.20029004564E+03  0.56617878175E+02  0.48397996841E+03  0.53467137078E+03  0.91187600000E+02 0.  0.
<mgrwt>
<rscale>  0 0.13656585E+04</rscale>
<asrwt>0</asrwt>
<pdfrwt beam="1">  1        1 0.13626423E+00 0.13656585E+04</pdfrwt>
<pdfrwt beam="2">  1       -1 0.80987070E-01 0.13656585E+04</pdfrwt>
<totfact> 0.27785278E+01</totfact>
</mgrwt>
</event>
<event>
12    1  0.3065082E-011  0.1430046E+04  0.7818608E-02  0.8932353E-01
          1   -1    0    0  501    0  0.00000000000E+00  0.00000000000E+00  0.24527753410E+03  0.24527753410E+03  0.00000000000E+00 0. -1.
         -1   -1    0    0    0  501 -0.00000000000E+00 -0.00000000000E+00 -0.20844044347E+04  0.20844044347E+04  0.00000000000E+00 0.  1.
    9900016    2    1    2    0    0 -0.37371690003E+01  0.27227741701E+01 -0.53746706111E+03  0.91689381021E+03  0.74283378861E+03 0.  0.
         23    2    3    3    0    0 -0.90703254420E+02  0.30348126484E+03 -0.17040368809E+03  0.37191626384E+03  0.94637898963E+02 0.  0.
         23    2    3    3    0    0  0.10083092949E+02  0.35153211628E+00 -0.79260437966E+02  0.12141082226E+03  0.91414322712E+02 0.  0.
        -15    1    5    5    0    0 -0.30995425506E+02  0.96292403014E+01 -0.71591275203E+02  0.78605021190E+02  0.00000000000E+00 0.  1.
        -15    1    4    4    0    0 -0.12932647893E+02  0.16819612739E+03 -0.53620380574E+02  0.17700942310E+03  0.00000000000E+00 0.  1.
         15    1    4    4    0    0 -0.77770606527E+02  0.13528513745E+03 -0.11678330751E+03  0.19490684074E+03  0.00000000000E+00 0. -1.
         15    1    5    5    0    0  0.41078518455E+02 -0.92777081852E+01 -0.76691627624E+01  0.42805801068E+02  0.00000000000E+00 0. -1.
        -16    1    3    3    0    0  0.76882992471E+02 -0.30111002279E+03 -0.28780293505E+03  0.42356672412E+03  0.00000000000E+00 0.  1.
         16    1    1    2    0    0 -0.11020816058E+03 -0.10759185486E+03 -0.71914651505E+02  0.16998106657E+03  0.00000000000E+00 0. -1.
    9900018    1    1    2    0    0  0.11394532958E+03  0.10486908069E+03 -0.12297451880E+04  0.12428070921E+04  0.91187600000E+02 0.  0.
<mgrwt>
<rscale>  0 0.14300456E+04</rscale>
<asrwt>0</asrwt>
<pdfrwt beam="1">  1        1 0.37735004E-01 0.14300456E+04</pdfrwt>
<pdfrwt beam="2">  1       -1 0.32067762E+00 0.14300456E+04</pdfrwt>
<totfact> 0.26987377E+00</totfact>
</mgrwt>
</event>
<event>
12    1  0.3065082E-011  0.1394731E+04  0.7818608E-02  0.8957642E-01
         -2   -1    0    0    0  501 -0.00000000000E+00  0.00000000000E+00  0.27705237081E+03  0.27705237081E+03  0.00000000000E+00 0.  1.
          2   -1    0    0  501    0  0.00000000000E+00 -0.00000000000E+00 -0.17553301530E+04  0.17553301530E+04  0.00000000000E+00 0. -1.
    9900016    2    1    2    0    0 -0.28422164007E+01 -0.90429777467E+02 -0.10681852385E+04  0.12799135510E+04  0.69926630933E+03 0.  0.
         23    2    3    3    0    0 -0.67826899970E+02 -0.85790329537E+01  0.66757300160E+01  0.10660751102E+03  0.81526117714E+02 0.  0.
         23    2    3    3    0    0 -0.18266482936E+03 -0.64356594732E+00 -0.37394952814E+03  0.42550811647E+03  0.88611813665E+02 0.  0.
        -15    1    4    4    0    0 -0.41546862504E+02  0.35515933382E+02 -0.12179789953E+01  0.54671809745E+02  0.00000000000E+00 0. -1.
        -15    1    5    5    0    0 -0.70010592522E+02  0.21238344664E+02 -0.72698720755E+02  0.10313900498E+03  0.00000000000E+00 0.  1.
         15    1    4    4    0    0 -0.26280037466E+02 -0.44094966336E+02  0.78937090113E+01  0.51935701279E+02  0.00000000000E+00 0.  1.
         15    1    5    5    0    0 -0.11265423684E+03 -0.21881910611E+02 -0.30125080738E+03  0.32236911148E+03  0.00000000000E+00 0. -1.
        -16    1    1    2    0    0 -0.18259436734E+02  0.32521878058E+03 -0.77662382205E+02  0.33486132635E+03  0.00000000000E+00 0.  1.
         16    1    3    3    0    0  0.24764951293E+03 -0.81207178566E+02 -0.70091144041E+03  0.74779792351E+03  0.00000000000E+00 0. -1.
    9900018    1    1    2    0    0  0.21101653134E+02 -0.23478900311E+03 -0.33243016150E+03  0.41760764650E+03  0.91187600000E+02 0.  0.
<mgrwt>
<rscale>  0 0.13947306E+04</rscale>
<asrwt>0</asrwt>
<pdfrwt beam="1">  1        2 0.27005079E+00 0.13947306E+04</pdfrwt>
<pdfrwt beam="2">  1       -2 0.42623442E-01 0.13947306E+04</pdfrwt>
<totfact> 0.46414929E+01</totfact>
</mgrwt>
</event>
<event>
12    1  0.3065082E-011  0.1161231E+04  0.7818608E-02  0.9147485E-01
          2   -1    0    0  501    0  0.00000000000E+00  0.00000000000E+00  0.15174105899E+04  0.15174105899E+04  0.00000000000E+00 0. -1.
         -2   -1    0    0    0  501 -0.00000000000E+00 -0.00000000000E+00 -0.22216404243E+03  0.22216404243E+03  0.00000000000E+00 0.  1.
    9900016    2    1    2    0    0  0.18820568200E+02 -0.78242725628E+02  0.53414884904E+03  0.88968919060E+03  0.70693403160E+03 0.  0.
         23    2    3    3    0    0 -0.13955664876E+02  0.20076813860E+02  0.17956872308E+02  0.97140777916E+02  0.92282405875E+02 0.  0.
         23    2    3    3    0    0 -0.20157748764E+03  0.13258358685E+03  0.14279745162E+03  0.29489251595E+03  0.91425339770E+02 0.  0.
        -15    1    5    5    0    0 -0.16364181103E+02  0.46881252456E+02  0.50791405030E+02  0.71031014916E+02  0.00000000000E+00 0.  1.
        -15    1    4    4    0    0 -0.50691677383E+02 -0.25666864133E+01  0.97576956277E+00  0.50765994143E+02  0.00000000000E+00 0.  1.
         15    1    4    4    0    0  0.36736012508E+02  0.22643500273E+02  0.16981102746E+02  0.46374783774E+02  0.00000000000E+00 0. -1.
         15    1    5    5    0    0 -0.18521330653E+03  0.85702334398E+02  0.92006046590E+02  0.22386150104E+03  0.00000000000E+00 0. -1.
        -16    1    3    3    0    0  0.23435372071E+03 -0.23090312634E+03  0.37339452511E+03  0.49765589673E+03  0.00000000000E+00 0.  1.
         16    1    1    2    0    0 -0.10529471040E+03  0.84525644595E+02  0.69453287504E+03  0.70753620058E+03  0.00000000000E+00 0. -1.
    9900018    1    1    2    0    0  0.86474142204E+02 -0.62829189673E+01  0.66564823357E+02  0.14234924110E+03  0.91187600000E+02 0.  0.
<mgrwt>
<rscale>  0 0.11612305E+04</rscale>
<asrwt>0</asrwt>
<pdfrwt beam="1">  1        2 0.23344778E+00 0.11612305E+04</pdfrwt>
<pdfrwt beam="2">  1       -2 0.34179084E-01 0.11612305E+04</pdfrwt>
<totfact> 0.98343928E+01</totfact>
</mgrwt>
</event>
<event>
12    1  0.3065082E-011  0.1784871E+04  0.7818608E-02  0.8714387E-01
          2   -1    0    0  501    0  0.00000000000E+00  0.00000000000E+00  0.10279259972E+04  0.10279259972E+04  0.00000000000E+00 0. -1.
         -2   -1    0    0    0  501 -0.00000000000E+00 -0.00000000000E+00 -0.77480358437E+03  0.77480358437E+03  0.00000000000E+00 0.  1.
    9900016    2    1    2    0    0  0.37081151630E+03 -0.14097511593E+03 -0.13307771869E+03  0.82916439342E+03  0.71584128700E+03 0.  0.
         23    2    3    3    0    0  0.96557692241E+02 -0.51839906023E+02  0.69408800769E+02  0.15814157057E+03  0.90445624161E+02 0.  0.
         23    2    3    3    0    0  0.10152882531E+03  0.90254649684E+02 -0.34661916850E+03  0.38329227627E+03  0.91181779525E+02 0.  0.
        -15    1    5    5    0    0  0.71948871331E+02  0.20625686351E+02 -0.97355258342E+02  0.12280108041E+03  0.00000000000E+00 0.  1.
        -15    1    4    4    0    0  0.10487710014E+03 -0.25411215814E+02  0.33918859403E+02  0.11311686455E+03  0.00000000000E+00 0.  1.
         15    1    4    4    0    0 -0.83194078951E+01 -0.26428690209E+02  0.35489941366E+02  0.45024706019E+02  0.00000000000E+00 0. -1.
         15    1    5    5    0    0  0.29579953980E+02  0.69628963333E+02 -0.24926391016E+03  0.26049119586E+03  0.00000000000E+00 0. -1.
        -16    1    3    3    0    0  0.17272499875E+03 -0.17938985959E+03  0.14413264904E+03  0.28773054658E+03  0.00000000000E+00 0.  1.
         16    1    1    2    0    0  0.24566537900E+03 -0.76523106399E+01  0.52994115533E+02  0.25143271979E+03  0.00000000000E+00 0. -1.
    9900018    1    1    2    0    0 -0.61647689530E+03  0.14862742657E+03  0.33320601599E+03  0.72213246836E+03  0.91187600000E+02 0.  0.
<mgrwt>
<rscale>  0 0.17848706E+04</rscale>
<asrwt>0</asrwt>
<pdfrwt beam="1">  1        2 0.15814246E+00 0.17848706E+04</pdfrwt>
<pdfrwt beam="2">  1       -2 0.11920055E+00 0.17848706E+04</pdfrwt>
<totfact> 0.12337169E+01</totfact>
</mgrwt>
</event>
<event>
12    1  0.3065082E-011  0.2033775E+04  0.7818608E-02  0.8590991E-01
          2   -1    0    0  501    0  0.00000000000E+00  0.00000000000E+00  0.65838234171E+03  0.65838234171E+03  0.00000000000E+00 0.  1.
         -2   -1    0    0    0  501 -0.00000000000E+00 -0.00000000000E+00 -0.15706075867E+04  0.15706075867E+04  0.00000000000E+00 0. -1.
    9900016    2    1    2    0    0 -0.12715509853E+03  0.14743286199E+03 -0.25580803669E+03  0.77828912543E+03  0.70879569923E+03 0.  0.
         23    2    3    3    0    0 -0.33511726644E+02 -0.13801129270E+03  0.38306060678E+02  0.17401758698E+03  0.92976413999E+02 0.  0.
         23    2    3    3    0    0 -0.20782240634E+03  0.46345055665E+02 -0.39195877806E+02  0.23659161007E+03  0.95400505022E+02 0.  0.
        -15    1    5    5    0    0 -0.62190972858E+02  0.20794590555E+02  0.31447840979E+02  0.72726190630E+02  0.00000000000E+00 0.  1.
        -15    1    4    4    0    0 -0.51547170046E+02 -0.32034976619E+02  0.25227082706E+02  0.65724851986E+02  0.00000000000E+00 0.  1.
         15    1    4    4    0    0  0.18035443402E+02 -0.10597631608E+03  0.13078977972E+02  0.10829273500E+03  0.00000000000E+00 0. -1.
         15    1    5    5    0    0 -0.14563143348E+03  0.25550465110E+02 -0.70643718785E+02  0.16386541944E+03  0.00000000000E+00 0. -1.
        -16    1    1    2    0    0  0.25073689140E+03 -0.68711411443E+03 -0.34102483192E+03  0.80702709430E+03  0.00000000000E+00 0.  1.
         16    1    3    3    0    0  0.11417903445E+03  0.23909909903E+03 -0.25491821956E+03  0.36767992837E+03  0.00000000000E+00 0. -1.
    9900018    1    1    2    0    0 -0.12358179286E+03  0.53968125243E+03 -0.31539237634E+03  0.64367370864E+03  0.91187600000E+02 0.  0.
<mgrwt>
<rscale>  0 0.20337751E+04</rscale>
<asrwt>0</asrwt>
<pdfrwt beam="1">  1        2 0.10128959E+00 0.20337751E+04</pdfrwt>
<pdfrwt beam="2">  1       -2 0.24163193E+00 0.20337751E+04</pdfrwt>
<totfact> 0.29663995E+00</totfact>
</mgrwt>
</event>
<event>
12    1  0.3065082E-011  0.1640075E+04  0.7818608E-02  0.8796300E-01
         -1   -1    0    0    0  501 -0.00000000000E+00  0.00000000000E+00  0.37550230202E+03  0.37550230202E+03  0.00000000000E+00 0.  1.
          1   -1    0    0  501    0  0.00000000000E+00 -0.00000000000E+00 -0.17908310078E+04  0.17908310078E+04  0.00000000000E+00 0. -1.
    9900016    2    1    2    0    0  0.25543548247E+03 -0.47697318375E+03 -0.81328755348E+03  0.12073482350E+04  0.70957903870E+03 0.  0.
         23    2    3    3    0    0  0.35564085320E+03 -0.27427432328E+03 -0.24541955032E+03  0.51931726812E+03  0.88050260730E+02 0.  0.
         23    2    3    3    0    0 -0.15862908540E+01 -0.23423666032E+03 -0.51199612490E+03  0.57037884186E+03  0.91228624760E+02 0.  0.
        -15    1    4    4    0    0  0.11517523110E+03 -0.39938384010E+02 -0.65846099615E+02  0.13855005309E+03  0.00000000000E+00 0. -1.
        -15    1    5    5    0    0  0.43851960666E+02 -0.12791009001E+03 -0.29441532148E+03  0.32398204750E+03  0.00000000000E+00 0. -1.
         15    1    4    4    0    0  0.24046562210E+03 -0.23433593927E+03 -0.17957345070E+03  0.38076721503E+03  0.00000000000E+00 0.  1.
         15    1    5    5    0    0 -0.45438251520E+02 -0.10632657031E+03 -0.21758080342E+03  0.24639679436E+03  0.00000000000E+00 0.  1.
        -16    1    1    2    0    0 -0.21442787116E+03  0.53263828923E+03 -0.32625116438E+03  0.66039585201E+03  0.00000000000E+00 0.  1.
         16    1    3    3    0    0 -0.98619079884E+02  0.31537799851E+02 -0.55871878264E+02  0.11765212500E+03  0.00000000000E+00 0. -1.
    9900018    1    1    2    0    0 -0.41007611308E+02 -0.55665105486E+02 -0.27578998792E+03  0.29858922282E+03  0.91187600000E+02 0.  0.
<mgrwt>
<rscale>  0 0.16400746E+04</rscale>
<asrwt>0</asrwt>
<pdfrwt beam="1">  1        1 0.27551247E+00 0.16400746E+04</pdfrwt>
<pdfrwt beam="2">  1       -1 0.57769584E-01 0.16400746E+04</pdfrwt>
<totfact> 0.11998084E+01</totfact>
</mgrwt>
</event>
<event>
12    1  0.3065082E-011  0.1192375E+04  0.7818608E-02  0.9119557E-01
          1   -1    0    0  501    0  0.00000000000E+00  0.00000000000E+00  0.11362599092E+04  0.11362599092E+04  0.00000000000E+00 0.  1.
         -1   -1    0    0    0  501 -0.00000000000E+00 -0.00000000000E+00 -0.31281553772E+03  0.31281553772E+03  0.00000000000E+00 0. -1.
    9900016    2    1    2    0    0  0.27192613226E+03  0.15730640171E+03  0.63157238170E+03  0.10015627898E+04  0.71102406655E+03 0.  0.
         23    2    3    3    0    0 -0.21019426164E+03  0.83965379109E+02  0.17414885209E+03  0.30080043260E+03  0.94452448636E+02 0.  0.
         23    2    3    3    0    0  0.16324870195E+03 -0.34263496803E+02  0.14206099887E+03  0.23955588034E+03  0.96858487012E+02 0.  0.
        -15    1    5    5    0    0  0.76280841817E+02 -0.48347197394E+02  0.26261952652E+02  0.94052689920E+02  0.00000000000E+00 0. -1.
        -15    1    4    4    0    0 -0.21907094226E+03  0.73411432702E+02  0.16818611977E+03  0.28577593859E+03  0.00000000000E+00 0. -1.
         15    1    4    4    0    0  0.88766806195E+01  0.10553946408E+02  0.59627323252E+01  0.15024494014E+02  0.00000000000E+00 0.  1.
         15    1    5    5    0    0  0.86967860128E+02  0.14083700590E+02  0.11579904622E+03  0.14550319042E+03  0.00000000000E+00 0.  1.
        -16    1    3    3    0    0  0.31887169196E+03  0.10760451941E+03  0.31536253074E+03  0.46120647689E+03  0.00000000000E+00 0.  1.
         16    1    1    2    0    0 -0.17449379641E+03 -0.62806449089E+02  0.21324127035E+03  0.28260321019E+03  0.00000000000E+00 0. -1.
    9900018    1    1    2    0    0 -0.97432335856E+02 -0.94499952625E+02 -0.21369280614E+02  0.16490944686E+03  0.91187600000E+02 0.  0.
<mgrwt>
<rscale>  0 0.11923754E+04</rscale>
<asrwt>0</asrwt>
<pdfrwt beam="1">  1        1 0.17480922E+00 0.11923754E+04</pdfrwt>
<pdfrwt beam="2">  1       -1 0.48125468E-01 0.11923754E+04</pdfrwt>
<totfact> 0.50883759E+01</totfact>
</mgrwt>
</event>
<event>
12    1  0.3065082E-011  0.3845302E+04  0.7818608E-02  0.8036503E-01
         -2   -1    0    0    0  501 -0.00000000000E+00  0.00000000000E+00  0.11408963635E+04  0.11408963635E+04  0.00000000000E+00 0.  1.
          2   -1    0    0  501    0  0.00000000000E+00 -0.00000000000E+00 -0.32400716674E+04  0.32400716674E+04  0.00000000000E+00 0. -1.
    9900016    2    1    2    0    0 -0.17798878956E+03  0.55200987042E+03 -0.18947934182E+02  0.91436324283E+03  0.70661602683E+03 0.  0.
         23    2    3    3    0    0  0.22137545628E+02  0.10209326772E+03 -0.12291049395E+03  0.18626117654E+03  0.93129641489E+02 0.  0.
         23    2    3    3    0    0 -0.22840760392E+01 -0.99805039210E+02  0.19556871075E+01  0.13502463024E+03  0.90893141673E+02 0.  0.
        -15    1    4    4    0    0 -0.32447055632E+02  0.66913508162E+02 -0.56656702123E+02  0.93489095028E+02  0.00000000000E+00 0. -1.
        -15    1    5    5    0    0  0.30248093011E+02 -0.81693393523E+02  0.25746971701E+02  0.90838671434E+02  0.00000000000E+00 0. -1.
         15    1    4    4    0    0  0.54584601259E+02  0.35179759560E+02 -0.66253791822E+02  0.92772081512E+02  0.00000000000E+00 0.  1.
         15    1    5    5    0    0 -0.32532169050E+02 -0.18111645686E+02 -0.23791284593E+02  0.44185958801E+02  0.00000000000E+00 0.  1.
        -16    1    3    3    0    0 -0.19784225915E+03  0.54972164191E+03  0.10200687266E+03  0.59307743605E+03  0.00000000000E+00 0.  1.
         16    1    1    2    0    0  0.59183654314E+02 -0.12195327436E+04 -0.24141489722E+04  0.27053425065E+04  0.00000000000E+00 0. -1.
    9900018    1    1    2    0    0  0.11880513525E+03  0.66752287315E+03  0.33392160247E+03  0.76126228156E+03  0.91187600000E+02 0.  0.
<mgrwt>
<rscale>  0 0.38453015E+04</rscale>
<asrwt>0</asrwt>
<pdfrwt beam="1">  1        2 0.49847256E+00 0.38453015E+04</pdfrwt>
<pdfrwt beam="2">  1       -2 0.17552252E+00 0.38453015E+04</pdfrwt>
<totfact> 0.18975662E-01</totfact>
</mgrwt>
</event>
<event>
12    1  0.3065082E-011  0.1730506E+04  0.7818608E-02  0.8744154E-01
         -1   -1    0    0    0  501 -0.00000000000E+00  0.00000000000E+00  0.38982895533E+03  0.38982895533E+03  0.00000000000E+00 0.  1.
          1   -1    0    0  501    0  0.00000000000E+00 -0.00000000000E+00 -0.19204911582E+04  0.19204911582E+04  0.00000000000E+00 0. -1.
    9900016    2    1    2    0    0 -0.18094258996E+03 -0.19795878643E+03 -0.92775104700E+03  0.11992536664E+04  0.71102703834E+03 0.  0.
         23    2    3    3    0    0  0.34513429646E+02 -0.65885388413E+02 -0.16270683154E+03  0.20021612570E+03  0.89893952692E+02 0.  0.
         23    2    3    3    0    0  0.26478732659E+02  0.19321494946E+03 -0.15012586492E+03  0.26251224504E+03  0.91333255165E+02 0.  0.
        -15    1    4    4    0    0  0.27303879329E+02  0.17090329000E+02 -0.58838499364E+02  0.67078686475E+02  0.00000000000E+00 0. -1.
        -15    1    5    5    0    0  0.27688332229E+02  0.13227074288E+03 -0.47678611355E+02  0.14330193001E+03  0.00000000000E+00 0. -1.
         15    1    4    4    0    0  0.72095503172E+01 -0.82975717413E+02 -0.10386833217E+03  0.13313743923E+03  0.00000000000E+00 0.  1.
         15    1    5    5    0    0 -0.12095995697E+01  0.60944206584E+02 -0.10244725356E+03  0.11921031503E+03  0.00000000000E+00 0.  1.
        -16    1    1    2    0    0  0.51614502711E+03  0.26042729501E+03 -0.33723251486E+03  0.66929353357E+03  0.00000000000E+00 0.  1.
         16    1    3    3    0    0 -0.24193475226E+03 -0.32528834747E+03 -0.61491835055E+03  0.73652529570E+03  0.00000000000E+00 0. -1.
    9900018    1    1    2    0    0 -0.33520243715E+03 -0.62468508586E+02 -0.26567864099E+03  0.44177291351E+03  0.91187600000E+02 0.  0.
<mgrwt>
<rscale>  0 0.17305064E+04</rscale>
<asrwt>0</asrwt>
<pdfrwt beam="1">  1        1 0.29546018E+00 0.17305064E+04</pdfrwt>
<pdfrwt beam="2">  1       -1 0.59973685E-01 0.17305064E+04</pdfrwt>
<totfact> 0.90297046E+00</totfact>
</mgrwt>
</event>
<event>
12    1  0.3065082E-011  0.1366135E+04  0.7818608E-02  0.8978703E-01
          2   -1    0    0  501    0  0.00000000000E+00  0.00000000000E+00  0.13667687816E+04  0.13667687816E+04  0.00000000000E+00 0. -1.
         -2   -1    0    0    0  501 -0.00000000000E+00 -0.00000000000E+00 -0.34137549535E+03  0.34137549535E+03  0.00000000000E+00 0.  1.
    9900016    2    1    2    0    0  0.23989477846E+03  0.10183149820E+02  0.18833935313E+03  0.80166969732E+03  0.74131598553E+03 0.  0.
         23    2    3    3    0    0  0.27993792585E+03 -0.19493488717E+03  0.36320043524E+02  0.35510853353E+03  0.91750054299E+02 0.  0.
         23    2    3    3    0    0 -0.20444052020E+01  0.15682099210E+03 -0.86226392363E+02  0.20051742081E+03  0.90417045706E+02 0.  0.
        -15    1    4    4    0    0  0.13550787565E+03 -0.65898898225E+02 -0.23280045877E+02  0.15246970088E+03  0.00000000000E+00 0. -1.
        -15    1    5    5    0    0 -0.11105223626E+02  0.12171165583E+03 -0.10368496347E+03  0.16027359360E+03  0.00000000000E+00 0.  1.
         15    1    4    4    0    0  0.14443005020E+03 -0.12903598894E+03  0.59600089402E+02  0.20263883265E+03  0.00000000000E+00 0.  1.
         15    1    5    5    0    0  0.90608184237E+01  0.35109336270E+02  0.17458571103E+02  0.40243827213E+02  0.00000000000E+00 0. -1.
        -16    1    3    3    0    0 -0.37998742187E+02  0.48297044886E+02  0.23824570196E+03  0.24604374298E+03  0.00000000000E+00 0.  1.
         16    1    1    2    0    0 -0.10242331644E+03 -0.10796575381E+03  0.27619190582E+03  0.31373413679E+03  0.00000000000E+00 0. -1.
    9900018    1    1    2    0    0 -0.13747146202E+03  0.97782603995E+02  0.56086202729E+03  0.59274044283E+03  0.91187600000E+02 0.  0.
<mgrwt>
<rscale>  0 0.13661352E+04</rscale>
<asrwt>0</asrwt>
<pdfrwt beam="1">  1        2 0.21027212E+00 0.13661352E+04</pdfrwt>
<pdfrwt beam="2">  1       -2 0.52519308E-01 0.13661352E+04</pdfrwt>
<totfact> 0.50459914E+01</totfact>
</mgrwt>
</event>
<event>
12    1  0.3065082E-011  0.2674320E+04  0.7818608E-02  0.8343385E-01
          1   -1    0    0  501    0  0.00000000000E+00  0.00000000000E+00  0.45343369279E+03  0.45343369279E+03  0.00000000000E+00 0. -1.
         -1   -1    0    0    0  501 -0.00000000000E+00 -0.00000000000E+00 -0.39432390359E+04  0.39432390359E+04  0.00000000000E+00 0.  1.
    9900016    2    1    2    0    0  0.25459014581E+03 -0.35428712702E+03 -0.47367478811E+03  0.96210458422E+03  0.71480201131E+03 0.  0.
         23    2    3    3    0    0  0.30015648298E+02 -0.27985266746E+03 -0.32643453199E+03  0.44103774719E+03  0.93468369728E+02 0.  0.
         23    2    3    3    0    0 -0.93339671776E+01 -0.17830683392E+03 -0.16943226071E+03  0.26417167344E+03  0.95911063559E+02 0.  0.
        -15    1    4    4    0    0  0.34720938503E+02 -0.26476104179E+03 -0.25981799434E+03  0.37257125896E+03  0.00000000000E+00 0. -1.
        -15    1    5    5    0    0 -0.31165397384E+01 -0.38009548845E+02 -0.10098080278E+03  0.10794239739E+03  0.00000000000E+00 0.  1.
         15    1    4    4    0    0 -0.47052902051E+01 -0.15091625670E+02 -0.66616537653E+02  0.68466488227E+02  0.00000000000E+00 0.  1.
         15    1    5    5    0    0 -0.62174274393E+01 -0.14029728508E+03 -0.68451457931E+02  0.15622927605E+03  0.00000000000E+00 0. -1.
        -16    1    1    2    0    0 -0.77529567607E+03  0.24894503857E+03 -0.26761300668E+04  0.27972717336E+04  0.00000000000E+00 0.  1.
         16    1    3    3    0    0  0.23390846469E+03  0.10387237436E+03  0.22192004589E+02  0.25689516359E+03  0.00000000000E+00 0. -1.
    9900018    1    1    2    0    0  0.52070553027E+03  0.10534208845E+03 -0.34000048820E+03  0.63729641080E+03  0.91187600000E+02 0.  0.
<mgrwt>
<rscale>  0 0.26743204E+04</rscale>
<asrwt>0</asrwt>
<pdfrwt beam="1">  1        1 0.69759029E-01 0.26743204E+04</pdfrwt>
<pdfrwt beam="2">  1       -1 0.60665217E+00 0.26743204E+04</pdfrwt>
<totfact> 0.18130729E-02</totfact>
</mgrwt>
</event>
<event>
12    1  0.3847373E-011  0.1822372E+04  0.7818608E-02  0.8694492E-01
         -2   -1    0    0    0  501 -0.00000000000E+00  0.00000000000E+00  0.42199515415E+03  0.42199515415E+03  0.00000000000E+00 0.  1.
          2   -1    0    0  501    0  0.00000000000E+00 -0.00000000000E+00 -0.19674641753E+04  0.19674641753E+04  0.00000000000E+00 0. -1.
    9900016    2    1    2    0    0  0.89781850310E+02 -0.17440143627E+03 -0.10781699104E+04  0.13079450875E+04  0.71399814749E+03 0.  0.
         23    2    3    3    0    0  0.30345610407E+03 -0.99285687009E+02 -0.32162159749E+03  0.46230505429E+03  0.91335954092E+02 0.  0.
         23    2    3    3    0    0  0.24763918060E+02 -0.76696358461E+02 -0.37875666367E+03  0.39889425502E+03  0.95731047063E+02 0.  0.
        -15    1    4    4    0    0  0.17287556539E+03 -0.55199658143E+02 -0.11813759304E+03  0.21653972905E+03  0.00000000000E+00 0.  1.
        -15    1    5    5    0    0  0.11789638141E+02 -0.95424557314E+02 -0.24464682580E+03  0.26286291310E+03  0.00000000000E+00 0. -1.
         15    1    4    4    0    0  0.13058053868E+03 -0.44086028866E+02 -0.20348400446E+03  0.24576532525E+03  0.00000000000E+00 0. -1.
         15    1    5    5    0    0  0.12974279919E+02  0.18728198854E+02 -0.13410983787E+03  0.13603134192E+03  0.00000000000E+00 0.  1.
        -16    1    1    2    0    0  0.10563040301E+02  0.11468565749E+03  0.28886213474E+03  0.31097541822E+03  0.00000000000E+00 0.  1.
         16    1    3    3    0    0 -0.23843817182E+03  0.15806091951E+01 -0.37779164924E+03  0.44674577820E+03  0.00000000000E+00 0. -1.
    9900018    1    1    2    0    0 -0.10034489061E+03  0.59715778786E+02 -0.75616124545E+03  0.77053882369E+03  0.91187600000E+02 0.  0.
<mgrwt>
<rscale>  0 0.18223725E+04</rscale>
<asrwt>0</asrwt>
<pdfrwt beam="1">  1        2 0.30268680E+00 0.18223725E+04</pdfrwt>
<pdfrwt beam="2">  1       -2 0.64922331E-01 0.18223725E+04</pdfrwt>
<totfact> 0.14366911E+01</totfact>
</mgrwt>
</event>
<event>
12    1  0.3065082E-011  0.1145261E+04  0.7818608E-02  0.9162167E-01
         -2   -1    0    0    0  501 -0.00000000000E+00  0.00000000000E+00  0.71093253319E+03  0.71093253319E+03  0.00000000000E+00 0.  1.
          2   -1    0    0  501    0  0.00000000000E+00 -0.00000000000E+00 -0.46123308549E+03  0.46123308549E+03  0.00000000000E+00 0. -1.
    9900016    2    1    2    0    0 -0.44193370127E+02 -0.75644456054E+02  0.14084571897E+03  0.72826015735E+03  0.70911931474E+03 0.  0.
         23    2    3    3    0    0 -0.11842460805E+03 -0.83530792811E+02  0.54177312600E+02  0.17899887451E+03  0.90020190708E+02 0.  0.
         23    2    3    3    0    0  0.25118587366E+03  0.51815512702E+02  0.19702113256E+03  0.33614056637E+03  0.91618574555E+02 0.  0.
        -15    1    5    5    0    0  0.20119018641E+03  0.40848899765E+01  0.12819224767E+03  0.23859469775E+03  0.00000000000E+00 0. -1.
        -15    1    4    4    0    0 -0.26096073686E+02 -0.61215557398E+02 -0.55781917455E+01  0.66779231446E+02  0.00000000000E+00 0. -1.
         15    1    4    4    0    0 -0.92328534363E+02 -0.22315235413E+02  0.59755504346E+02  0.11221964306E+03  0.00000000000E+00 0.  1.
         15    1    5    5    0    0  0.49995687251E+02  0.47730622726E+02  0.68828884895E+02  0.97545868623E+02  0.00000000000E+00 0.  1.
        -16    1    1    2    0    0  0.12135320093E+03  0.15464401467E+03  0.19491229401E+03  0.27682516686E+03  0.00000000000E+00 0.  1.
         16    1    3    3    0    0 -0.17695463574E+03 -0.43929175945E+02 -0.11035272620E+03  0.21312071647E+03  0.00000000000E+00 0. -1.
    9900018    1    1    2    0    0 -0.77159830803E+02 -0.78999558613E+02 -0.86058565281E+02  0.16708029448E+03  0.91187600000E+02 0.  0.
<mgrwt>
<rscale>  0 0.11452609E+04</rscale>
<asrwt>0</asrwt>
<pdfrwt beam="1">  1        2 0.70958936E-01 0.11452609E+04</pdfrwt>
<pdfrwt beam="2">  1       -2 0.10937424E+00 0.11452609E+04</pdfrwt>
<totfact> 0.44593617E+01</totfact>
</mgrwt>
</event>
<event>
12    1  0.3065082E-011  0.9751668E+03  0.7818608E-02  0.9336209E-01
          1   -1    0    0  501    0  0.00000000000E+00  0.00000000000E+00  0.91337079787E+03  0.91337079787E+03  0.00000000000E+00 0. -1.
         -1   -1    0    0    0  501 -0.00000000000E+00 -0.00000000000E+00 -0.26028592027E+03  0.26028592027E+03  0.00000000000E+00 0.  1.
    9900016    2    1    2    0    0 -0.24105437436E+02  0.14456141032E+03  0.41788198197E+03  0.86924789484E+03  0.74798895605E+03 0.  0.
         23    2    3    3    0    0 -0.89504727982E+02 -0.87087665034E+01  0.21683307088E+03  0.25232907083E+03  0.92555066919E+02 0.  0.
         23    2    3    3    0    0  0.16513555500E+02  0.51766464008E+02 -0.18564699395E+03  0.21414526259E+03  0.91874494901E+02 0.  0.
        -15    1    4    4    0    0 -0.10749610306E+03 -0.14400423740E+02  0.16789329435E+03  0.19987731904E+03  0.00000000000E+00 0.  1.
        -15    1    5    5    0    0 -0.27406536751E+02  0.55998878264E+02 -0.10112356139E+03  0.11879801047E+03  0.00000000000E+00 0.  1.
         15    1    4    4    0    0  0.17991375078E+02  0.56916572363E+01  0.48939776530E+02  0.52451751793E+02  0.00000000000E+00 0. -1.
         15    1    5    5    0    0  0.43920092251E+02 -0.42324142566E+01 -0.84523432567E+02  0.95347252120E+02  0.00000000000E+00 0. -1.
        -16    1    1    2    0    0  0.11425433176E+02 -0.18078303404E+02 -0.64128909528E+00  0.21395719874E+02  0.00000000000E+00 0.  1.
         16    1    3    3    0    0  0.48885735046E+02  0.10150371282E+03  0.38669590504E+03  0.40277356142E+03  0.00000000000E+00 0. -1.
    9900018    1    1    2    0    0  0.12680004260E+02 -0.12648310692E+03  0.23584418472E+03  0.28301310342E+03  0.91187600000E+02 0.  0.
<mgrwt>
<rscale>  0 0.97516677E+03</rscale>
<asrwt>0</asrwt>
<pdfrwt beam="1">  1        1 0.14051858E+00 0.97516677E+03</pdfrwt>
<pdfrwt beam="2">  1       -1 0.40043988E-01 0.97516677E+03</pdfrwt>
<totfact> 0.10818392E+02</totfact>
</mgrwt>
</event>
<event>
12    1  0.3065082E-011  0.3158775E+04  0.7818608E-02  0.8199790E-01
         -2   -1    0    0    0  501 -0.00000000000E+00  0.00000000000E+00  0.56131739392E+03  0.56131739392E+03  0.00000000000E+00 0.  1.
          2   -1    0    0  501    0  0.00000000000E+00 -0.00000000000E+00 -0.44439478388E+04  0.44439478388E+04  0.00000000000E+00 0. -1.
    9900016    2    1    2    0    0 -0.46871791817E+03 -0.16995522065E+03 -0.43440824303E+03  0.95772087652E+03  0.69277521020E+03 0.  0.
         23    2    3    3    0    0 -0.27013577553E+03 -0.26170790146E+03 -0.12859662453E+03  0.40806605224E+03  0.92284604602E+02 0.  0.
         23    2    3    3    0    0 -0.47176279542E+02 -0.31256544763E+02  0.71658168519E+02  0.12475666581E+03  0.85010349993E+02 0.  0.
        -15    1    4    4    0    0 -0.32375675932E+02 -0.46138659225E+02 -0.55098938920E+02  0.78821655256E+02  0.00000000000E+00 0.  1.
        -15    1    5    5    0    0 -0.48505040313E+02  0.13283218085E+02  0.14613326008E+02  0.52371100003E+02  0.00000000000E+00 0.  1.
         15    1    4    4    0    0 -0.23776009959E+03 -0.21556924224E+03 -0.73497685606E+02  0.32924439699E+03  0.00000000000E+00 0. -1.
         15    1    5    5    0    0  0.13287607709E+01 -0.44539762849E+02  0.57044842510E+02  0.72385565804E+02  0.00000000000E+00 0. -1.
        -16    1    3    3    0    0 -0.15140586311E+03  0.12300922557E+03 -0.37746978702E+03  0.42489815847E+03  0.00000000000E+00 0.  1.
         16    1    1    2    0    0  0.12234236609E+04  0.36131765952E+03 -0.25776926936E+04  0.28760764120E+04  0.00000000000E+00 0. -1.
    9900018    1    1    2    0    0 -0.75470574272E+03 -0.19136243887E+03 -0.87052950819E+03  0.11714679441E+04  0.91187600000E+02 0.  0.
<mgrwt>
<rscale>  0 0.31587752E+04</rscale>
<asrwt>0</asrwt>
<pdfrwt beam="1">  1        2 0.68368427E+00 0.31587752E+04</pdfrwt>
<pdfrwt beam="2">  1       -2 0.86356524E-01 0.31587752E+04</pdfrwt>
<totfact> 0.13661944E-01</totfact>
</mgrwt>
</event>
<event>
12    1  0.3065082E-011  0.1970856E+04  0.7818608E-02  0.8620369E-01
          1   -1    0    0  501    0  0.00000000000E+00  0.00000000000E+00  0.80028689460E+03  0.80028689460E+03  0.00000000000E+00 0. -1.
         -1   -1    0    0    0  501 -0.00000000000E+00 -0.00000000000E+00 -0.12134000323E+04  0.12134000323E+04  0.00000000000E+00 0.  1.
    9900016    2    1    2    0    0 -0.34468138498E+03  0.34224772799E+03 -0.29774690966E+03  0.91513788190E+03  0.71616014704E+03 0.  0.
         23    2    3    3    0    0 -0.92241719020E+02 -0.62571333350E+00 -0.39303663819E+03  0.41373961786E+03  0.90519313862E+02 0.  0.
         23    2    3    3    0    0 -0.18717255873E+03  0.13578931617E+03 -0.30910238708E+02  0.25026072821E+03  0.90568670604E+02 0.  0.
        -15    1    4    4    0    0 -0.11550732385E+02  0.33451568226E+02 -0.17915687054E+03  0.18261875889E+03  0.00000000000E+00 0. -1.
        -15    1    5    5    0    0 -0.16113167646E+03  0.10349100869E+03 -0.58731136556E+02  0.20030764449E+03  0.00000000000E+00 0.  1.
         15    1    4    4    0    0 -0.80690986635E+02 -0.34077281559E+02 -0.21387976765E+03  0.23112085897E+03  0.00000000000E+00 0.  1.
         15    1    5    5    0    0 -0.26040882272E+02  0.32298307484E+02  0.27820897848E+02  0.49953083718E+02  0.00000000000E+00 0. -1.
        -16    1    3    3    0    0 -0.65267107223E+02  0.20708412515E+03  0.12619996724E+03  0.25113753584E+03  0.00000000000E+00 0.  1.
         16    1    1    2    0    0  0.27750258730E+03 -0.57796997424E+03  0.21588282540E+03  0.67650748066E+03  0.00000000000E+00 0. -1.
    9900018    1    1    2    0    0  0.67178797680E+02  0.23572224625E+03 -0.33124905343E+03  0.42204156434E+03  0.91187600000E+02 0.  0.
<mgrwt>
<rscale>  0 0.19708558E+04</rscale>
<asrwt>0</asrwt>
<pdfrwt beam="1">  1        1 0.12312106E+00 0.19708558E+04</pdfrwt>
<pdfrwt beam="2">  1       -1 0.18667693E+00 0.19708558E+04</pdfrwt>
<totfact> 0.38320435E+00</totfact>
</mgrwt>
</event>
<event>
12    1  0.3065082E-011  0.1450687E+04  0.7818608E-02  0.8917924E-01
          1   -1    0    0  501    0  0.00000000000E+00  0.00000000000E+00  0.10426938135E+04  0.10426938135E+04  0.00000000000E+00 0. -1.
         -1   -1    0    0    0  501 -0.00000000000E+00 -0.00000000000E+00 -0.50458081541E+03  0.50458081541E+03  0.00000000000E+00 0.  1.
    9900016    2    1    2    0    0  0.62804167810E+02  0.22615015084E+01  0.18573652352E+03  0.73341959859E+03  0.70672255768E+03 0.  0.
         23    2    3    3    0    0  0.17483282135E+03  0.26195490481E+03  0.24578481435E+02  0.32883584737E+03  0.91334687776E+02 0.  0.
         23    2    3    3    0    0 -0.10086807033E+03 -0.17055213395E+03 -0.21808840610E+01  0.21816934911E+03  0.91272726647E+02 0.  0.
        -15    1    5    5    0    0 -0.40904459845E+02 -0.60342546012E+02 -0.44914265264E+02  0.85625282006E+02  0.00000000000E+00 0.  1.
        -15    1    4    4    0    0  0.63676084333E+02  0.12254601840E+03  0.53697805867E+02  0.14817430511E+03  0.00000000000E+00 0.  1.
         15    1    4    4    0    0  0.11115673702E+03  0.13940888641E+03 -0.29119324433E+02  0.18066154225E+03  0.00000000000E+00 0. -1.
         15    1    5    5    0    0 -0.59963610481E+02 -0.11020958794E+03  0.42733381203E+02  0.13254406710E+03  0.00000000000E+00 0. -1.
        -16    1    3    3    0    0 -0.11160583214E+02 -0.89141269348E+02  0.16333892615E+03  0.18641440211E+03  0.00000000000E+00 0.  1.
         16    1    1    2    0    0  0.13840855893E+03  0.24932141396E+03  0.38316742006E+03  0.47763518342E+03  0.00000000000E+00 0. -1.
    9900018    1    1    2    0    0 -0.20121272674E+03 -0.25158291547E+03 -0.30790945463E+02  0.33621984694E+03  0.91187600000E+02 0.  0.
<mgrwt>
<rscale>  0 0.14506871E+04</rscale>
<asrwt>0</asrwt>
<pdfrwt beam="1">  1        1 0.16041443E+00 0.14506871E+04</pdfrwt>
<pdfrwt beam="2">  1       -1 0.77627818E-01 0.14506871E+04</pdfrwt>
<totfact> 0.22644987E+01</totfact>
</mgrwt>
</event>
<event>
12    1  0.3065082E-011  0.1696193E+04  0.7818608E-02  0.8763539E-01
          2   -1    0    0  501    0  0.00000000000E+00  0.00000000000E+00  0.51828544724E+03  0.51828544724E+03  0.00000000000E+00 0. -1.
         -2   -1    0    0    0  501 -0.00000000000E+00 -0.00000000000E+00 -0.13877823965E+04  0.13877823965E+04  0.00000000000E+00 0.  1.
    9900016    2    1    2    0    0  0.52053892705E+03  0.28018614387E+03 -0.34731373682E+03  0.97742422311E+03  0.69661052988E+03 0.  0.
         23    2    3    3    0    0  0.47147399628E+03  0.85026846586E+01 -0.12471598778E+03  0.49595633374E+03  0.89769608180E+02 0.  0.
         23    2    3    3    0    0 -0.27205509573E+02  0.11809988822E+02 -0.18552157220E+03  0.20810724193E+03  0.89502820094E+02 0.  0.
        -15    1    4    4    0    0  0.44679426938E+03  0.29115411164E+02 -0.11912975606E+03  0.46331924749E+03  0.00000000000E+00 0.  1.
        -15    1    5    5    0    0  0.42767721854E+01  0.39915726984E+02 -0.40319985077E+02  0.56896900070E+02  0.00000000000E+00 0. -1.
         15    1    4    4    0    0  0.24679726905E+02 -0.20612726506E+02 -0.55862317177E+01  0.32637086250E+02  0.00000000000E+00 0. -1.
         15    1    5    5    0    0 -0.31482281758E+02 -0.28105738161E+02 -0.14520158712E+03  0.15121034186E+03  0.00000000000E+00 0.  1.
        -16    1    3    3    0    0  0.76270440343E+02  0.25987347039E+03 -0.37076176849E+02  0.27336064745E+03  0.00000000000E+00 0.  1.
         16    1    1    2    0    0 -0.20416074719E+03 -0.28425569378E+03 -0.50804632586E+02  0.35364391813E+03  0.00000000000E+00 0. -1.
    9900018    1    1    2    0    0 -0.31637817986E+03  0.40695499113E+01 -0.47137857987E+03  0.57499970251E+03  0.91187600000E+02 0.  0.
<mgrwt>
<rscale>  0 0.16961927E+04</rscale>
<asrwt>0</asrwt>
<pdfrwt beam="1">  1        2 0.79736224E-01 0.16961927E+04</pdfrwt>
<pdfrwt beam="2">  1       -2 0.21350498E+00 0.16961927E+04</pdfrwt>
<totfact> 0.61055962E+00</totfact>
</mgrwt>
</event>
<event>
12    1  0.3065082E-011  0.1748585E+04  0.7818608E-02  0.8734129E-01
         -2   -1    0    0    0  501 -0.00000000000E+00  0.00000000000E+00  0.89893584248E+03  0.89893584248E+03  0.00000000000E+00 0.  1.
          2   -1    0    0  501    0  0.00000000000E+00 -0.00000000000E+00 -0.85032487069E+03  0.85032487069E+03  0.00000000000E+00 0. -1.
    9900016    2    1    2    0    0 -0.37514675835E+03  0.12449765652E+03  0.32069353891E+03  0.87029304182E+03  0.70592554562E+03 0.  0.
         23    2    3    3    0    0 -0.11907312316E+03  0.11269921646E+03  0.13664394577E+02  0.19271382290E+03  0.10036124655E+03 0.  0.
         23    2    3    3    0    0  0.92319520203E+02 -0.50729131322E+02 -0.73808873616E+02  0.15765125869E+03  0.91158274260E+02 0.  0.
        -15    1    4    4    0    0 -0.50353074136E+02  0.10797422266E+03 -0.10775456847E+02  0.11962430900E+03  0.00000000000E+00 0.  1.
        -15    1    5    5    0    0  0.71502243563E+02  0.65470152133E+01 -0.15809316155E+02  0.73521212721E+02  0.00000000000E+00 0. -1.
         15    1    4    4    0    0 -0.68720049027E+02  0.47249938005E+01  0.24439851425E+02  0.73089513902E+02  0.00000000000E+00 0. -1.
         15    1    5    5    0    0  0.20817276640E+02 -0.57276146535E+02 -0.57999557461E+02  0.84130045966E+02  0.00000000000E+00 0.  1.
        -16    1    3    3    0    0 -0.34839315539E+03  0.62527571380E+02  0.38083801795E+03  0.51992796022E+03  0.00000000000E+00 0.  1.
         16    1    1    2    0    0  0.28048737380E+03  0.17025921197E+03 -0.41243725699E+03  0.52703496760E+03  0.00000000000E+00 0. -1.
    9900018    1    1    2    0    0  0.94659384552E+02 -0.29475686849E+03  0.14035468987E+03  0.35193270375E+03  0.91187600000E+02 0.  0.
<mgrwt>
<rscale>  0 0.17485851E+04</rscale>
<asrwt>0</asrwt>
<pdfrwt beam="1">  1        2 0.13081921E+00 0.17485851E+04</pdfrwt>
<pdfrwt beam="2">  1       -2 0.13829782E+00 0.17485851E+04</pdfrwt>
<totfact> 0.11146134E+01</totfact>
</mgrwt>
</event>
<event>
12    1  0.3065082E-011  0.1610413E+04  0.7818608E-02  0.8814176E-01
          2   -1    0    0  501    0  0.00000000000E+00  0.00000000000E+00  0.11511768894E+04  0.11511768894E+04  0.00000000000E+00 0. -1.
         -2   -1    0    0    0  501 -0.00000000000E+00 -0.00000000000E+00 -0.56321278682E+03  0.56321278682E+03  0.00000000000E+00 0.  1.
    9900016    2    1    2    0    0 -0.42163862659E+03  0.12601265487E+03  0.19160592819E+03  0.85693681077E+03  0.70990812456E+03 0.  0.
         23    2    3    3    0    0 -0.51321072974E+02  0.11800107253E+03  0.65501491408E+02  0.17252313465E+03  0.94422883676E+02 0.  0.
         23    2    3    3    0    0 -0.81576201077E+02  0.16589993356E+03 -0.15021064694E+03  0.25470409325E+03  0.90185764559E+02 0.  0.
        -15    1    5    5    0    0 -0.98104129947E+02  0.16000648587E+03 -0.13229564077E+03  0.22962715954E+03  0.00000000000E+00 0. -1.
        -15    1    4    4    0    0 -0.40289004059E+02  0.13018355707E+03  0.39715297720E+02  0.14194459219E+03  0.00000000000E+00 0. -1.
         15    1    4    4    0    0 -0.11032068915E+02 -0.12182484534E+02  0.25786193688E+02  0.30578542458E+02  0.00000000000E+00 0.  1.
         15    1    5    5    0    0  0.16527928871E+02  0.58934476949E+01 -0.17915006162E+02  0.25076933710E+02  0.00000000000E+00 0.  1.
        -16    1    3    3    0    0 -0.28874135254E+03 -0.15788835122E+03  0.27631508372E+03  0.42970958287E+03  0.00000000000E+00 0.  1.
         16    1    1    2    0    0  0.20287147394E+03 -0.11504405155E+03  0.53431481772E+03  0.58299596326E+03  0.00000000000E+00 0. -1.
    9900018    1    1    2    0    0  0.21876715265E+03 -0.10968603317E+02 -0.13795664333E+03  0.27445690221E+03  0.91187600000E+02 0.  0.
<mgrwt>
<rscale>  0 0.16104130E+04</rscale>
<asrwt>0</asrwt>
<pdfrwt beam="1">  1        2 0.17710414E+00 0.16104130E+04</pdfrwt>
<pdfrwt beam="2">  1       -2 0.86648121E-01 0.16104130E+04</pdfrwt>
<totfact> 0.22400124E+01</totfact>
</mgrwt>
</event>
<event>
12    1  0.3065082E-011  0.2353708E+04  0.7818608E-02  0.8457041E-01
         -1   -1    0    0    0  501 -0.00000000000E+00  0.00000000000E+00  0.43009799355E+03  0.43009799355E+03  0.00000000000E+00 0.  1.
          1   -1    0    0  501    0  0.00000000000E+00 -0.00000000000E+00 -0.32201626900E+04  0.32201626900E+04  0.00000000000E+00 0. -1.
    9900016    2    1    2    0    0 -0.19644956480E+03  0.20274082120E+02 -0.10644996517E+03  0.75732543574E+03  0.72333031917E+03 0.  0.
         23    2    3    3    0    0  0.75949614065E+02  0.62117077221E+02 -0.38194721676E+02  0.13734240986E+03  0.88188579892E+02 0.  0.
         23    2    3    3    0    0 -0.55238154434E+02 -0.84909690411E+02  0.21905276385E+03  0.25727165046E+03  0.89127322128E+02 0.  0.
        -15    1    5    5    0    0 -0.41462855812E+01 -0.72818076209E+02  0.17177926072E+03  0.18662201992E+03  0.00000000000E+00 0.  1.
        -15    1    4    4    0    0  0.29053437164E+02  0.43417918957E+02 -0.62376140627E+02  0.81363387449E+02  0.00000000000E+00 0. -1.
         15    1    4    4    0    0  0.46896176901E+02  0.18699158264E+02  0.24181418951E+02  0.55979022412E+02  0.00000000000E+00 0.  1.
         15    1    5    5    0    0 -0.51091868852E+02 -0.12091614202E+02  0.47273503129E+02  0.70649630537E+02  0.00000000000E+00 0. -1.
        -16    1    3    3    0    0 -0.21716102443E+03  0.43066695310E+02 -0.28730800734E+03  0.36271137542E+03  0.00000000000E+00 0.  1.
         16    1    1    2    0    0  0.29805127328E+03  0.16532509237E+03 -0.26356464557E+04  0.26575927429E+04  0.00000000000E+00 0. -1.
    9900018    1    1    2    0    0 -0.10160170848E+03 -0.18559917449E+03 -0.47968275534E+02  0.23534250485E+03  0.91187600000E+02 0.  0.
<mgrwt>
<rscale>  0 0.23537081E+04</rscale>
<asrwt>0</asrwt>
<pdfrwt beam="1">  1        1 0.49540964E+00 0.23537081E+04</pdfrwt>
<pdfrwt beam="2">  1       -1 0.66168922E-01 0.23537081E+04</pdfrwt>
<totfact> 0.85560804E-01</totfact>
</mgrwt>
</event>
<event>
12    1  0.3065082E-011  0.2494503E+04  0.7818608E-02  0.8404946E-01
          2   -1    0    0  501    0  0.00000000000E+00  0.00000000000E+00  0.15248372600E+04  0.15248372600E+04  0.00000000000E+00 0. -1.
         -2   -1    0    0    0  501 -0.00000000000E+00 -0.00000000000E+00 -0.10201982670E+04  0.10201982670E+04  0.00000000000E+00 0.  1.
    9900016    2    1    2    0    0 -0.57158368895E+02 -0.35252491752E+03 -0.30567752352E+03  0.85698867441E+03  0.71655421503E+03 0.  0.
         23    2    3    3    0    0  0.26720401110E+03 -0.11092617272E+03 -0.61574531480E+02  0.31099037179E+03  0.96025981255E+02 0.  0.
         23    2    3    3    0    0 -0.21716690838E+03 -0.24335646156E+03 -0.27290924406E+03  0.43498587603E+03  0.91375179179E+02 0.  0.
        -15    1    5    5    0    0 -0.34368011057E+02 -0.63295901252E+02 -0.20096923879E+02  0.74775782502E+02  0.00000000000E+00 0. -1.
        -15    1    4    4    0    0  0.14002641629E+03 -0.80608755997E+01 -0.41017509467E+02  0.14613285414E+03  0.00000000000E+00 0. -1.
         15    1    4    4    0    0  0.12717759481E+03 -0.10286529712E+03 -0.20557022013E+02  0.16485751765E+03  0.00000000000E+00 0.  1.
         15    1    5    5    0    0 -0.18279889732E+03 -0.18006056030E+03 -0.25281232018E+03  0.36021009352E+03  0.00000000000E+00 0.  1.
        -16    1    3    3    0    0 -0.10719547161E+03  0.17577167537E+01  0.28806252026E+02  0.11101242660E+03  0.00000000000E+00 0.  1.
         16    1    1    2    0    0  0.41282492582E+03  0.68648795941E+03  0.87639885733E+03  0.11873352917E+04  0.00000000000E+00 0. -1.
    9900018    1    1    2    0    0 -0.35566655692E+03 -0.33396304189E+03 -0.66082340818E+02  0.50071156090E+03  0.91187600000E+02 0.  0.
<mgrwt>
<rscale>  0 0.24945030E+04</rscale>
<asrwt>0</asrwt>
<pdfrwt beam="1">  1        2 0.23459035E+00 0.24945030E+04</pdfrwt>
<pdfrwt beam="2">  1       -2 0.15695358E+00 0.24945030E+04</pdfrwt>
<totfact> 0.29109793E+00</totfact>
</mgrwt>
</event>
<event>
12    1  0.3065082E-011  0.1073723E+04  0.7818608E-02  0.9231188E-01
          1   -1    0    0  501    0  0.00000000000E+00  0.00000000000E+00  0.56286367696E+03  0.56286367696E+03  0.00000000000E+00 0. -1.
         -1   -1    0    0    0  501 -0.00000000000E+00 -0.00000000000E+00 -0.51206091504E+03  0.51206091504E+03  0.00000000000E+00 0.  1.
    9900016    2    1    2    0    0  0.21117350486E+03  0.12665918466E+03  0.12379098449E+03  0.76500109056E+03  0.71362851856E+03 0.  0.
         23    2    3    3    0    0  0.12664681396E+03 -0.17241354540E+03  0.23436192665E+03  0.33011191129E+03  0.91008324845E+02 0.  0.
         23    2    3    3    0    0  0.14719755374E+03  0.27875135572E+03 -0.14576140217E+03  0.36019671793E+03  0.95529320629E+02 0.  0.
        -15    1    5    5    0    0  0.94861447174E+01  0.11514341717E+03 -0.51772676625E+02  0.12660333133E+03  0.00000000000E+00 0.  1.
        -15    1    4    4    0    0  0.11788704811E+03 -0.17769489406E+03  0.19336789711E+03  0.28786103439E+03  0.00000000000E+00 0.  1.
         15    1    4    4    0    0  0.87597658534E+01  0.52813486596E+01  0.40994029536E+02  0.42250876903E+02  0.00000000000E+00 0. -1.
         15    1    5    5    0    0  0.13771140902E+03  0.16360793855E+03 -0.93988725549E+02  0.23359338660E+03  0.00000000000E+00 0. -1.
        -16    1    3    3    0    0 -0.62670862841E+02  0.20321374339E+02  0.35190460011E+02  0.74692461334E+02  0.00000000000E+00 0.  1.
         16    1    1    2    0    0 -0.76366509932E+02  0.44635303001E+01 -0.65631920948E+02  0.10079343227E+03  0.00000000000E+00 0. -1.
    9900018    1    1    2    0    0 -0.13480699493E+03 -0.13112271497E+03 -0.73563016176E+01  0.20913006916E+03  0.91187600000E+02 0.  0.
<mgrwt>
<rscale>  0 0.10737234E+04</rscale>
<asrwt>0</asrwt>
<pdfrwt beam="1">  1        1 0.86594411E-01 0.10737234E+04</pdfrwt>
<pdfrwt beam="2">  1       -1 0.78778603E-01 0.10737234E+04</pdfrwt>
<totfact> 0.60427909E+01</totfact>
</mgrwt>
</event>
<event>
12    1  0.3065082E-011  0.1097012E+04  0.7818608E-02  0.9208109E-01
         -1   -1    0    0    0  501 -0.00000000000E+00  0.00000000000E+00  0.56791545503E+03  0.56791545503E+03  0.00000000000E+00 0.  1.
          1   -1    0    0  501    0  0.00000000000E+00 -0.00000000000E+00 -0.52975996529E+03  0.52975996529E+03  0.00000000000E+00 0. -1.
    9900016    2    1    2    0    0  0.10409836011E+02 -0.88037650301E+02 -0.15756750978E+03  0.73017317952E+03  0.70743647022E+03 0.  0.
         23    2    3    3    0    0 -0.31180662792E+02 -0.62017333231E+02  0.68267525628E+02  0.13407441318E+03  0.92179769259E+02 0.  0.
         23    2    3    3    0    0  0.28587392309E+03  0.33916589109E+02 -0.13309618271E+03  0.32801795967E+03  0.83707545019E+02 0.  0.
        -15    1    5    5    0    0  0.20722234641E+03  0.58316054350E+02 -0.11353885898E+03  0.24337817393E+03  0.00000000000E+00 0. -1.
        -15    1    4    4    0    0  0.31275561989E+02 -0.34125713831E+02  0.20386320803E+02  0.50579909036E+02  0.00000000000E+00 0.  1.
         15    1    4    4    0    0 -0.62456224780E+02 -0.27891619400E+02  0.47881204825E+02  0.83494504143E+02  0.00000000000E+00 0. -1.
         15    1    5    5    0    0  0.78651576684E+02 -0.24399465241E+02 -0.19557323726E+02  0.84639785741E+02  0.00000000000E+00 0.  1.
        -16    1    3    3    0    0 -0.24428342429E+03 -0.59936906179E+02 -0.92738852701E+02  0.26808080667E+03  0.00000000000E+00 0.  1.
         16    1    1    2    0    0 -0.13737114473E+03  0.44872047937E+02  0.61750230304E+02  0.15715413782E+03  0.00000000000E+00 0. -1.
    9900018    1    1    2    0    0  0.12696130872E+03  0.43165602364E+02  0.13397276921E+03  0.21034810297E+03  0.91187600000E+02 0.  0.
<mgrwt>
<rscale>  0 0.10970121E+04</rscale>
<asrwt>0</asrwt>
<pdfrwt beam="1">  1        1 0.81501533E-01 0.10970121E+04</pdfrwt>
<pdfrwt beam="2">  1       -1 0.87371609E-01 0.10970121E+04</pdfrwt>
<totfact> 0.52582596E+01</totfact>
</mgrwt>
</event>
<event>
12    1  0.3065082E-011  0.1923897E+04  0.7818608E-02  0.8643052E-01
          1   -1    0    0  501    0  0.00000000000E+00  0.00000000000E+00  0.17698459091E+04  0.17698459091E+04  0.00000000000E+00 0. -1.
         -1   -1    0    0    0  501 -0.00000000000E+00 -0.00000000000E+00 -0.52283924027E+03  0.52283924027E+03  0.00000000000E+00 0.  1.
    9900016    2    1    2    0    0 -0.91382165410E+02 -0.35346701822E+03  0.42728644580E+03  0.90269524413E+03  0.70639603898E+03 0.  0.
         23    2    3    3    0    0 -0.16622197475E+03 -0.25425482938E+03 -0.69235694193E+02  0.32457892297E+03  0.91008970623E+02 0.  0.
         23    2    3    3    0    0  0.57399438301E+02 -0.18155419757E+03  0.37353891927E+03  0.42908865419E+03  0.91264049733E+02 0.  0.
        -15    1    5    5    0    0  0.18345182492E+02 -0.32790757767E+02  0.17906758041E+02  0.41622487902E+02  0.00000000000E+00 0.  1.
        -15    1    4    4    0    0 -0.82608129260E+02 -0.70527020348E+02 -0.56204914914E+02  0.12229945249E+03  0.00000000000E+00 0. -1.
         15    1    4    4    0    0 -0.83613845489E+02 -0.18372780903E+03 -0.13030779279E+02  0.20227947048E+03  0.00000000000E+00 0.  1.
         15    1    5    5    0    0  0.39054255809E+02 -0.14876343981E+03  0.35563216123E+03  0.38746616629E+03  0.00000000000E+00 0. -1.
        -16    1    1    2    0    0  0.37739658405E+02  0.65792575384E+03  0.19537989004E+03  0.68736008090E+03  0.00000000000E+00 0.  1.
         16    1    3    3    0    0  0.17440371039E+02  0.82342008732E+02  0.12298322072E+03  0.14902766697E+03  0.00000000000E+00 0. -1.
    9900018    1    1    2    0    0  0.53642507006E+02 -0.30445873562E+03  0.62434033304E+03  0.70262982438E+03  0.91187600000E+02 0.  0.
<mgrwt>
<rscale>  0 0.19238970E+04</rscale>
<asrwt>0</asrwt>
<pdfrwt beam="1">  1        1 0.27228398E+00 0.19238970E+04</pdfrwt>
<pdfrwt beam="2">  1       -1 0.80436807E-01 0.19238970E+04</pdfrwt>
<totfact> 0.61483770E+00</totfact>
</mgrwt>
</event>
<event>
12    1  0.3065082E-011  0.1546375E+04  0.7818608E-02  0.8854187E-01
          4   -1    0    0  501    0  0.00000000000E+00  0.00000000000E+00  0.13365782268E+04  0.13365782268E+04  0.00000000000E+00 0. -1.
         -4   -1    0    0    0  501 -0.00000000000E+00 -0.00000000000E+00 -0.44727554659E+03  0.44727554659E+03  0.00000000000E+00 0.  1.
    9900016    2    1    2    0    0 -0.18304728495E+03 -0.33600869898E+03  0.25651781926E+03  0.85004202054E+03  0.71439617214E+03 0.  0.
         23    2    3    3    0    0  0.55974885686E+02 -0.23712516806E+03  0.15597565602E+03  0.30317668005E+03  0.90698185776E+02 0.  0.
         23    2    3    3    0    0 -0.10314894148E+03 -0.25078103226E+03 -0.54432501022E+02  0.29083500658E+03  0.89951507018E+02 0.  0.
        -15    1    4    4    0    0 -0.85405244462E+01 -0.15199931745E+03  0.78980471327E+02  0.17150699086E+03  0.00000000000E+00 0. -1.
        -15    1    5    5    0    0 -0.46854081157E+02 -0.43920365187E+02 -0.40658029343E+02  0.76009070178E+02  0.00000000000E+00 0. -1.
         15    1    4    4    0    0  0.64515410132E+02 -0.85125850610E+02  0.76995184691E+02  0.13166968919E+03  0.00000000000E+00 0.  1.
         15    1    5    5    0    0 -0.56294860324E+02 -0.20686066708E+03 -0.13774471679E+02  0.21482593641E+03  0.00000000000E+00 0.  1.
        -16    1    3    3    0    0 -0.13587322915E+03  0.15189750134E+03  0.15497466427E+03  0.25603033391E+03  0.00000000000E+00 0.  1.
         16    1    1    2    0    0  0.20753275557E+02 -0.10105181419E+03  0.38388103712E+03  0.39750071479E+03  0.00000000000E+00 0. -1.
    9900018    1    1    2    0    0  0.16229400939E+03  0.43706051317E+03  0.24890382386E+03  0.53631103810E+03  0.91187600000E+02 0.  0.
<mgrwt>
<rscale>  0 0.15463748E+04</rscale>
<asrwt>0</asrwt>
<pdfrwt beam="1">  1        4 0.20562742E+00 0.15463748E+04</pdfrwt>
<pdfrwt beam="2">  1       -4 0.68811623E-01 0.15463748E+04</pdfrwt>
<totfact> 0.45261039E-01</totfact>
</mgrwt>
</event>
<event>
12    1  0.3065082E-011  0.2460279E+04  0.7818608E-02  0.8417275E-01
         -1   -1    0    0    0  501 -0.00000000000E+00  0.00000000000E+00  0.75022418416E+03  0.75022418416E+03  0.00000000000E+00 0.  1.
          1   -1    0    0  501    0  0.00000000000E+00 -0.00000000000E+00 -0.20170539801E+04  0.20170539801E+04  0.00000000000E+00 0. -1.
    9900016    2    1    2    0    0 -0.61122696471E+03 -0.20274511487E+02 -0.94946378687E+03  0.13464790535E+04  0.73315407705E+03 0.  0.
         23    2    3    3    0    0 -0.19256899334E+03 -0.10704443216E+03 -0.15609579736E+03  0.28532065767E+03  0.92198980943E+02 0.  0.
         23    2    3    3    0    0 -0.87185774780E+02 -0.18526028055E+03 -0.10039964891E+03  0.24624774515E+03  0.92925408899E+02 0.  0.
        -15    1    5    5    0    0 -0.96707285920E+01 -0.37564841466E+02 -0.65057559069E+02  0.75743820196E+02  0.00000000000E+00 0. -1.
        -15    1    4    4    0    0 -0.20383762134E+02  0.81407946186E+01  0.54531707649E+01  0.22616528627E+02  0.00000000000E+00 0.  1.
         15    1    4    4    0    0 -0.17218523121E+03 -0.11518522677E+03 -0.16154896813E+03  0.26270412904E+03  0.00000000000E+00 0. -1.
         15    1    5    5    0    0 -0.77515046188E+02 -0.14769543909E+03 -0.35342089837E+02  0.17050392496E+03  0.00000000000E+00 0.  1.
        -16    1    1    2    0    0  0.73571349761E+03  0.76526012561E+02  0.28783080905E+03  0.79371100270E+03  0.00000000000E+00 0.  1.
         16    1    3    3    0    0 -0.33147219659E+03  0.27203020122E+03 -0.69296834060E+03  0.81491065067E+03  0.00000000000E+00 0. -1.
    9900018    1    1    2    0    0 -0.12448653290E+03 -0.56251501074E+02 -0.60519681807E+03  0.62708810804E+03  0.91187600000E+02 0.  0.
<mgrwt>
<rscale>  0 0.24602786E+04</rscale>
<asrwt>0</asrwt>
<pdfrwt beam="1">  1        1 0.31031599E+00 0.24602786E+04</pdfrwt>
<pdfrwt beam="2">  1       -1 0.11541911E+00 0.24602786E+04</pdfrwt>
<totfact> 0.17597034E+00</totfact>
</mgrwt>
</event>
<event>
12    1  0.3065082E-011  0.2036598E+04  0.7818608E-02  0.8589698E-01
          1   -1    0    0  501    0  0.00000000000E+00  0.00000000000E+00  0.24775687214E+04  0.24775687214E+04  0.00000000000E+00 0. -1.
         -1   -1    0    0    0  501 -0.00000000000E+00 -0.00000000000E+00 -0.41852845201E+03  0.41852845201E+03  0.00000000000E+00 0.  1.
    9900016    2    1    2    0    0  0.27997508869E+03  0.14077735318E+03  0.12402389702E+04  0.14633796250E+04  0.71069185327E+03 0.  0.
         23    2    3    3    0    0  0.13324837829E+03 -0.21315318952E+01  0.32542254709E+03  0.36331969856E+03  0.91332882691E+02 0.  0.
         23    2    3    3    0    0 -0.94685844515E+02 -0.60953343402E+02  0.70742644327E+03  0.72210432907E+03  0.91114050515E+02 0.  0.
        -15    1    5    5    0    0 -0.55001761053E+02  0.14692994908E+02  0.21986204763E+03  0.22711318281E+03  0.00000000000E+00 0.  1.
        -15    1    4    4    0    0  0.10698225007E+03 -0.38364163476E+02  0.26305993437E+03  0.28656158141E+03  0.00000000000E+00 0.  1.
         15    1    4    4    0    0  0.26266128225E+02  0.36232631581E+02  0.62362612721E+02  0.76758117151E+02  0.00000000000E+00 0. -1.
         15    1    5    5    0    0 -0.39684083463E+02 -0.75646338310E+02  0.48756439564E+03  0.49499114626E+03  0.00000000000E+00 0. -1.
        -16    1    1    2    0    0 -0.13658327567E+03 -0.44266167081E+03 -0.79414676773E+02  0.47001174122E+03  0.00000000000E+00 0.  1.
         16    1    3    3    0    0  0.24141255491E+03  0.20386222848E+03  0.20738997984E+03  0.37795559740E+03  0.00000000000E+00 0. -1.
    9900018    1    1    2    0    0 -0.14339181303E+03  0.30188431763E+03  0.89821597595E+03  0.96270580715E+03  0.91187600000E+02 0.  0.
<mgrwt>
<rscale>  0 0.20365981E+04</rscale>
<asrwt>0</asrwt>
<pdfrwt beam="1">  1        1 0.38116441E+00 0.20365981E+04</pdfrwt>
<pdfrwt beam="2">  1       -1 0.64388994E-01 0.20365981E+04</pdfrwt>
<totfact> 0.31770008E+00</totfact>
</mgrwt>
</event>
<event>
12    1  0.3065082E-011  0.9845522E+03  0.7818608E-02  0.9325652E-01
         -1   -1    0    0    0  501 -0.00000000000E+00  0.00000000000E+00  0.91474797099E+02  0.91474797099E+02  0.00000000000E+00 0.  1.
          1   -1    0    0  501    0  0.00000000000E+00 -0.00000000000E+00 -0.26492079727E+04  0.26492079727E+04  0.00000000000E+00 0. -1.
    9900016    2    1    2    0    0  0.57277979731E+02 -0.80079020444E+02 -0.20343867445E+04  0.21565641086E+04  0.70876365007E+03 0.  0.
         23    2    3    3    0    0  0.21171985629E+03  0.98896461980E+02 -0.12692857291E+04  0.12936629941E+04  0.88723573657E+02 0.  0.
         23    2    3    3    0    0 -0.16684355730E+03 -0.83153422915E+02 -0.73183484794E+03  0.76071350917E+03  0.91386727813E+02 0.  0.
        -15    1    4    4    0    0  0.41987820043E+00  0.15486770832E+02 -0.30375273802E+02  0.34098000338E+02  0.00000000000E+00 0. -1.
        -15    1    5    5    0    0 -0.16268323719E+01 -0.32041106608E+02 -0.76768447549E+02  0.83202605941E+02  0.00000000000E+00 0.  1.
         15    1    4    4    0    0  0.21129997809E+03  0.83409691148E+02 -0.12389104553E+04  0.12595649938E+04  0.00000000000E+00 0. -1.
         15    1    5    5    0    0 -0.16521672493E+03 -0.51112316307E+02 -0.65506640039E+03  0.67751090323E+03  0.00000000000E+00 0.  1.
        -16    1    1    2    0    0  0.21908871676E+02 -0.53866726665E+02 -0.46992123776E+02  0.74765517431E+02  0.00000000000E+00 0.  1.
         16    1    3    3    0    0  0.12401680746E+02 -0.95822059508E+02 -0.33266167465E+02  0.10218760527E+03  0.00000000000E+00 0. -1.
    9900018    1    1    2    0    0 -0.79186851407E+02  0.13394574711E+03 -0.47635430732E+03  0.50935314380E+03  0.91187600000E+02 0.  0.
<mgrwt>
<rscale>  0 0.98455221E+03</rscale>
<asrwt>0</asrwt>
<pdfrwt beam="1">  1        1 0.40757039E+00 0.98455221E+03</pdfrwt>
<pdfrwt beam="2">  1       -1 0.14073048E-01 0.98455221E+03</pdfrwt>
<totfact> 0.39675268E+01</totfact>
</mgrwt>
</event>
<event>
12    1  0.3065082E-011  0.1383856E+04  0.7818608E-02  0.8965588E-01
         -2   -1    0    0    0  501 -0.00000000000E+00  0.00000000000E+00  0.70636065789E+03  0.70636065789E+03  0.00000000000E+00 0.  1.
          2   -1    0    0  501    0  0.00000000000E+00 -0.00000000000E+00 -0.67779040524E+03  0.67779040524E+03  0.00000000000E+00 0. -1.
    9900016    2    1    2    0    0 -0.42610907696E+02 -0.21857240460E+03 -0.11769163868E+01  0.73886349618E+03  0.70450570995E+03 0.  0.
         23    2    3    3    0    0 -0.93011674095E+02 -0.97169134400E+02  0.55834066024E+02  0.17164517181E+03  0.90838372281E+02 0.  0.
         23    2    3    3    0    0  0.26177899563E+03 -0.37949099595E+02 -0.15527978108E+03  0.31962569287E+03  0.89891025216E+02 0.  0.
        -15    1    4    4    0    0 -0.14382007859E+02  0.12748261565E+01 -0.19943317787E+02  0.24621195262E+02  0.00000000000E+00 0. -1.
        -15    1    5    5    0    0  0.91443336556E+02 -0.75804556852E+01 -0.10500737228E+03  0.13944854012E+03  0.00000000000E+00 0.  1.
         15    1    4    4    0    0 -0.78629666236E+02 -0.98443960557E+02  0.75777383811E+02  0.14702397655E+03  0.00000000000E+00 0.  1.
         15    1    5    5    0    0  0.17033565907E+03 -0.30368643910E+02 -0.50272408805E+02  0.18017715275E+03  0.00000000000E+00 0. -1.
        -16    1    1    2    0    0 -0.29447678671E+02  0.30682193840E+03  0.23909728479E+03  0.39009534637E+03  0.00000000000E+00 0.  1.
         16    1    3    3    0    0 -0.21137822923E+03 -0.83454170604E+02  0.98268798671E+02  0.24759263151E+03  0.00000000000E+00 0. -1.
    9900018    1    1    2    0    0  0.72058586367E+02 -0.88249533803E+02 -0.20935011575E+03  0.25519222058E+03  0.91187600000E+02 0.  0.
<mgrwt>
<rscale>  0 0.13838562E+04</rscale>
<asrwt>0</asrwt>
<pdfrwt beam="1">  1        2 0.10427545E+00 0.13838562E+04</pdfrwt>
<pdfrwt beam="2">  1       -2 0.10867087E+00 0.13838562E+04</pdfrwt>
<totfact> 0.28139588E+01</totfact>
</mgrwt>
</event>
<event>
12    1  0.3065082E-011  0.1295656E+04  0.7818608E-02  0.9033017E-01
         -2   -1    0    0    0  501 -0.00000000000E+00  0.00000000000E+00  0.26584525386E+03  0.26584525386E+03  0.00000000000E+00 0. -1.
          2   -1    0    0  501    0  0.00000000000E+00 -0.00000000000E+00 -0.15786676025E+04  0.15786676025E+04  0.00000000000E+00 0.  1.
    9900016    2    1    2    0    0 -0.20417570487E+03  0.13365872549E+03 -0.85176792721E+03  0.11303419046E+04  0.70186312492E+03 0.  0.
         23    2    3    3    0    0  0.36736556995E+01  0.13368678760E+03  0.44465024416E+01  0.16257311732E+03  0.92328728827E+02 0.  0.
         23    2    3    3    0    0 -0.26512546682E+03 -0.98829002629E+02 -0.76773568640E+03  0.82330195302E+03  0.91374705201E+02 0.  0.
        -15    1    4    4    0    0  0.12744078769E+02  0.16055591669E+00  0.24140056115E+02  0.27297978517E+02  0.00000000000E+00 0. -1.
        -15    1    5    5    0    0 -0.37415363856E+02 -0.52970460435E+02 -0.15535223442E+03  0.16834516884E+03  0.00000000000E+00 0.  1.
         15    1    4    4    0    0 -0.90704230697E+01  0.13352623169E+03 -0.19693553674E+02  0.13527513881E+03  0.00000000000E+00 0.  1.
         15    1    5    5    0    0 -0.22771010297E+03 -0.45858542194E+02 -0.61238345198E+03  0.65495678418E+03  0.00000000000E+00 0. -1.
        -16    1    3    3    0    0  0.57276106251E+02  0.98800940514E+02 -0.88478743251E+02  0.14446683426E+03  0.00000000000E+00 0.  1.
         16    1    1    2    0    0  0.81289065930E+02  0.17856386389E+03 -0.14119782907E+03  0.24172255306E+03  0.00000000000E+00 0. -1.
    9900018    1    1    2    0    0  0.12288663894E+03 -0.31222258938E+03 -0.31985659232E+03  0.47244839866E+03  0.91187600000E+02 0.  0.
<mgrwt>
<rscale>  0 0.12956563E+04</rscale>
<asrwt>0</asrwt>
<pdfrwt beam="1">  1        2 0.24287194E+00 0.12956563E+04</pdfrwt>
<pdfrwt beam="2">  1       -2 0.40899269E-01 0.12956563E+04</pdfrwt>
<totfact> 0.63609716E+01</totfact>
</mgrwt>
</event>
<event>
12    1  0.3065082E-011  0.1160956E+04  0.7818608E-02  0.9147736E-01
         -2   -1    0    0    0  501 -0.00000000000E+00  0.00000000000E+00  0.52978757161E+03  0.52978757161E+03  0.00000000000E+00 0.  1.
          2   -1    0    0  501    0  0.00000000000E+00 -0.00000000000E+00 -0.63601806872E+03  0.63601806872E+03  0.00000000000E+00 0. -1.
    9900016    2    1    2    0    0  0.18076649648E+03 -0.18166434047E+03  0.76221111010E+02  0.75436050239E+03  0.70538758917E+03 0.  0.
         23    2    3    3    0    0 -0.13967907507E+02 -0.10014944062E+03  0.12678259503E+03  0.18559289163E+03  0.90254540726E+02 0.  0.
         23    2    3    3    0    0  0.12756557800E+03  0.29070345545E+02  0.21832801297E+03  0.27036803088E+03  0.91179434050E+02 0.  0.
        -15    1    4    4    0    0  0.12086544048E+02 -0.21163942692E+02 -0.93165437272E+01  0.26092048680E+02  0.00000000000E+00 0. -1.
        -15    1    5    5    0    0  0.37361577345E+02 -0.10092122453E+02  0.99620761968E+01  0.39962249179E+02  0.00000000000E+00 0.  1.
         15    1    4    4    0    0 -0.26054451556E+02 -0.78985497931E+02  0.13609913876E+03  0.15950084295E+03  0.00000000000E+00 0.  1.
         15    1    5    5    0    0  0.90204000659E+02  0.39162467997E+02  0.20836593677E+03  0.23040578170E+03  0.00000000000E+00 0. -1.
        -16    1    3    3    0    0  0.67168825979E+02 -0.11058524539E+03 -0.26888949699E+03  0.29839957988E+03  0.00000000000E+00 0.  1.
         16    1    1    2    0    0 -0.19519471137E+03  0.90850378304E+02 -0.18203657610E+03  0.28194340145E+03  0.00000000000E+00 0. -1.
    9900018    1    1    2    0    0  0.14428214897E+02  0.90813962167E+02 -0.41503202330E+00  0.12950173649E+03  0.91187600000E+02 0.  0.
<mgrwt>
<rscale>  0 0.11609556E+04</rscale>
<asrwt>0</asrwt>
<pdfrwt beam="1">  1        2 0.97848933E-01 0.11609556E+04</pdfrwt>
<pdfrwt beam="2">  1       -2 0.81505780E-01 0.11609556E+04</pdfrwt>
<totfact> 0.60585960E+01</totfact>
</mgrwt>
</event>
<event>
12    1  0.3065082E-011  0.1513722E+04  0.7818608E-02  0.8875379E-01
         -2   -1    0    0    0  501 -0.00000000000E+00  0.00000000000E+00  0.12152624805E+03  0.12152624805E+03  0.00000000000E+00 0. -1.
          2   -1    0    0  501    0  0.00000000000E+00 -0.00000000000E+00 -0.47137015574E+04  0.47137015574E+04  0.00000000000E+00 0.  1.
    9900016    2    1    2    0    0  0.44788407692E+03  0.45692102413E+02 -0.34483479114E+04  0.35562843950E+04  0.74388672880E+03 0.  0.
         23    2    3    3    0    0  0.11383125805E+03  0.63362803451E+01 -0.19770658619E+03  0.24399762370E+03  0.86308993672E+02 0.  0.
         23    2    3    3    0    0  0.35620326270E+03 -0.17888946917E+03 -0.18531957559E+04  0.18977282647E+04  0.90309747292E+02 0.  0.
        -15    1    4    4    0    0  0.14077838836E+02  0.36013536861E+02 -0.60142110442E+02  0.71499886937E+02  0.00000000000E+00 0. -1.
        -15    1    5    5    0    0  0.15804152371E+03 -0.30132610260E+02 -0.71820562700E+03  0.73600572014E+03  0.00000000000E+00 0. -1.
         15    1    4    4    0    0  0.99753419216E+02 -0.29677256516E+02 -0.13756447575E+03  0.17249773676E+03  0.00000000000E+00 0.  1.
         15    1    5    5    0    0  0.19816173899E+03 -0.14875685891E+03 -0.11349901289E+04  0.11617225446E+04  0.00000000000E+00 0.  1.
        -16    1    1    2    0    0 -0.63356557436E+02 -0.30507031268E+02 -0.17621946434E+01  0.70340867616E+02  0.00000000000E+00 0.  1.
         16    1    3    3    0    0 -0.22150443830E+02  0.21824529124E+03 -0.13974455693E+04  0.14145585066E+04  0.00000000000E+00 0. -1.
    9900018    1    1    2    0    0 -0.38452751948E+03 -0.15185071144E+02 -0.11420652033E+04  0.12086025429E+04  0.91187600000E+02 0.  0.
<mgrwt>
<rscale>  0 0.15137219E+04</rscale>
<asrwt>0</asrwt>
<pdfrwt beam="1">  1        2 0.72518471E+00 0.15137219E+04</pdfrwt>
<pdfrwt beam="2">  1       -2 0.18696349E-01 0.15137219E+04</pdfrwt>
<totfact> 0.17941155E+00</totfact>
</mgrwt>
</event>
<event>
12    1  0.3065082E-011  0.1270831E+04  0.7818608E-02  0.9053022E-01
         -2   -1    0    0    0  501 -0.00000000000E+00  0.00000000000E+00  0.56366314262E+03  0.56366314262E+03  0.00000000000E+00 0.  1.
          2   -1    0    0  501    0  0.00000000000E+00 -0.00000000000E+00 -0.71630172725E+03  0.71630172725E+03  0.00000000000E+00 0. -1.
    9900016    2    1    2    0    0 -0.99303681141E+02 -0.11258940018E+03  0.76440511870E+02  0.72874813609E+03  0.70900853301E+03 0.  0.
         23    2    3    3    0    0  0.11220478959E+03 -0.13123478925E+03 -0.13809224865E+03  0.23898292712E+03  0.90724228311E+02 0.  0.
         23    2    3    3    0    0  0.67649004319E+02 -0.41744063901E+02 -0.15496865208E+02  0.12303722992E+03  0.92623174525E+02 0.  0.
        -15    1    5    5    0    0  0.60907352258E+02 -0.62571874505E+02  0.11725173707E+02  0.88104623809E+02  0.00000000000E+00 0. -1.
        -15    1    4    4    0    0  0.81253404706E+02 -0.11351546078E+03 -0.57735224499E+02  0.15106697773E+03  0.00000000000E+00 0. -1.
         15    1    4    4    0    0  0.30951384885E+02 -0.17719328471E+02 -0.80357024150E+02  0.87915949395E+02  0.00000000000E+00 0.  1.
         15    1    5    5    0    0  0.67416520615E+01  0.20827810604E+02 -0.27222038915E+02  0.34932606112E+02  0.00000000000E+00 0.  1.
        -16    1    1    2    0    0  0.23335070314E+03  0.16963818885E+03 -0.32843529927E+02  0.29035902472E+03  0.00000000000E+00 0.  1.
         16    1    3    3    0    0 -0.27915747505E+03  0.60389452970E+02  0.23002962573E+03  0.36672797905E+03  0.00000000000E+00 0. -1.
    9900018    1    1    2    0    0 -0.13404702200E+03 -0.57048788676E+02 -0.19623556657E+03  0.26085770906E+03  0.91187600000E+02 0.  0.
<mgrwt>
<rscale>  0 0.12708310E+04</rscale>
<asrwt>0</asrwt>
<pdfrwt beam="1">  1        2 0.11020026E+00 0.12708310E+04</pdfrwt>
<pdfrwt beam="2">  1       -2 0.86717407E-01 0.12708310E+04</pdfrwt>
<totfact> 0.45001062E+01</totfact>
</mgrwt>
</event>
<event>
12    1  0.3065082E-011  0.1468766E+04  0.7818608E-02  0.8905493E-01
          2   -1    0    0  501    0  0.00000000000E+00  0.00000000000E+00  0.49108899017E+03  0.49108899017E+03  0.00000000000E+00 0. -1.
         -2   -1    0    0    0  501 -0.00000000000E+00 -0.00000000000E+00 -0.10982085054E+04  0.10982085054E+04  0.00000000000E+00 0.  1.
    9900016    2    1    2    0    0 -0.29211276298E+03  0.12007229842E+03 -0.15698683460E+03  0.80365652042E+03  0.72212998375E+03 0.  0.
         23    2    3    3    0    0  0.11421875518E+02  0.23437005927E+03 -0.26870149718E+02  0.25324043854E+03  0.91372484047E+02 0.  0.
         23    2    3    3    0    0 -0.16487114522E+03 -0.22947282915E+03  0.43471825178E+02  0.30016454533E+03  0.91480494340E+02 0.  0.
        -15    1    4    4    0    0  0.49761474695E+02  0.16203658623E+03 -0.25112619964E+02  0.17135548816E+03  0.00000000000E+00 0. -1.
        -15    1    5    5    0    0 -0.83823963541E+02 -0.14708651116E+03  0.67270381467E+02  0.18217080680E+03  0.00000000000E+00 0.  1.
         15    1    4    4    0    0 -0.38339599177E+02  0.72333473037E+02 -0.17575297545E+01  0.81884950372E+02  0.00000000000E+00 0.  1.
         15    1    5    5    0    0 -0.81047181676E+02 -0.82386317990E+02 -0.23798556289E+02  0.11799373852E+03  0.00000000000E+00 0. -1.
        -16    1    3    3    0    0 -0.13866349328E+03  0.11517506830E+03 -0.17358851006E+03  0.25025153656E+03  0.00000000000E+00 0.  1.
         16    1    1    2    0    0  0.11212807201E+03 -0.24943053601E+03  0.24816734180E+01  0.27348575014E+03  0.00000000000E+00 0. -1.
    9900018    1    1    2    0    0  0.17998469097E+03  0.12935823759E+03 -0.45261435404E+03  0.51215522499E+03  0.91187600000E+02 0.  0.
<mgrwt>
<rscale>  0 0.14687656E+04</rscale>
<asrwt>0</asrwt>
<pdfrwt beam="1">  1        2 0.75552152E-01 0.14687656E+04</pdfrwt>
<pdfrwt beam="2">  1       -2 0.16895515E+00 0.14687656E+04</pdfrwt>
<totfact> 0.13189607E+01</totfact>
</mgrwt>
</event>
<event>
12    1  0.3065082E-011  0.2119768E+04  0.7818608E-02  0.8552585E-01
          1   -1    0    0  501    0  0.00000000000E+00  0.00000000000E+00  0.83943462168E+03  0.83943462168E+03  0.00000000000E+00 0. -1.
         -1   -1    0    0    0  501 -0.00000000000E+00 -0.00000000000E+00 -0.13382274958E+04  0.13382274958E+04  0.00000000000E+00 0.  1.
    9900016    2    1    2    0    0  0.29648485308E+02  0.24848483681E+03 -0.11487937482E+03  0.76173644429E+03  0.71022629704E+03 0.  0.
         23    2    3    3    0    0 -0.57858138884E+02 -0.12413729370E+03 -0.19229877375E+03  0.25436236352E+03  0.94677144388E+02 0.  0.
         23    2    3    3    0    0  0.15751087379E+03  0.12261182962E+03 -0.39354162103E+02  0.22269564803E+03  0.90560838404E+02 0.  0.
        -15    1    4    4    0    0 -0.24967853298E+02 -0.87148111715E+02 -0.49628316578E+02  0.10334968253E+03  0.00000000000E+00 0.  1.
        -15    1    5    5    0    0  0.12268275251E+02  0.28224333559E+02  0.23187642755E+02  0.38532977552E+02  0.00000000000E+00 0.  1.
         15    1    4    4    0    0 -0.32890285586E+02 -0.36989181985E+02 -0.14267045717E+03  0.15101268099E+03  0.00000000000E+00 0. -1.
         15    1    5    5    0    0  0.14524259854E+03  0.94387496058E+02 -0.62541804858E+02  0.18416267048E+03  0.00000000000E+00 0. -1.
        -16    1    1    2    0    0  0.63314039011E+03  0.39036560573E+02 -0.16286963683E+03  0.65491764769E+03  0.00000000000E+00 0.  1.
         16    1    3    3    0    0 -0.70004249600E+02  0.25001030089E+03  0.11677356103E+03  0.28467843274E+03  0.00000000000E+00 0. -1.
    9900018    1    1    2    0    0 -0.66278887542E+03 -0.28752139738E+03 -0.22104386246E+03  0.76100802549E+03  0.91187600000E+02 0.  0.
<mgrwt>
<rscale>  0 0.21197684E+04</rscale>
<asrwt>0</asrwt>
<pdfrwt beam="1">  1        1 0.12914379E+00 0.21197684E+04</pdfrwt>
<pdfrwt beam="2">  1       -1 0.20588116E+00 0.21197684E+04</pdfrwt>
<totfact> 0.25739417E+00</totfact>
</mgrwt>
</event>
<event>
12    1  0.3065082E-011  0.1796315E+04  0.7818608E-02  0.8708262E-01
         -1   -1    0    0    0  501 -0.00000000000E+00  0.00000000000E+00  0.57438754320E+03  0.57438754320E+03  0.00000000000E+00 0.  1.
          1   -1    0    0  501    0  0.00000000000E+00 -0.00000000000E+00 -0.14044296704E+04  0.14044296704E+04  0.00000000000E+00 0. -1.
    9900016    2    1    2    0    0 -0.39692652873E+03 -0.18333692069E+03  0.42248486957E+02  0.84660579091E+03  0.72373568024E+03 0.  0.
         23    2    3    3    0    0 -0.43741844404E+02  0.18412975836E+02 -0.24374742728E+02  0.10599605769E+03  0.91589571086E+02 0.  0.
         23    2    3    3    0    0 -0.15868833672E+03  0.15131656636E+03  0.20585203908E+03  0.31414822521E+03  0.90748850931E+02 0.  0.
        -15    1    4    4    0    0 -0.68240849844E+02  0.55103734464E+01  0.95420151377E+00  0.68469615914E+02  0.00000000000E+00 0. -1.
        -15    1    5    5    0    0 -0.11880377366E+03  0.73766653265E+02  0.16931446007E+03  0.21959791019E+03  0.00000000000E+00 0.  1.
         15    1    4    4    0    0  0.24499005440E+02  0.12902602389E+02 -0.25328944242E+02  0.37526441776E+02  0.00000000000E+00 0.  1.
         15    1    5    5    0    0 -0.39884563066E+02  0.77549913093E+02  0.36537579005E+02  0.94550315025E+02  0.00000000000E+00 0. -1.
        -16    1    3    3    0    0 -0.19449634761E+03 -0.35306646289E+03 -0.13922880939E+03  0.42646150801E+03  0.00000000000E+00 0.  1.
         16    1    1    2    0    0  0.21530450580E+03 -0.10693301924E+03 -0.69618189741E+03  0.73651879481E+03  0.00000000000E+00 0. -1.
    9900018    1    1    2    0    0  0.18162202294E+03  0.29026993993E+03 -0.17610871673E+03  0.39569262786E+03  0.91187600000E+02 0.  0.
<mgrwt>
<rscale>  0 0.17963150E+04</rscale>
<asrwt>0</asrwt>
<pdfrwt beam="1">  1        1 0.21606610E+00 0.17963150E+04</pdfrwt>
<pdfrwt beam="2">  1       -1 0.88367315E-01 0.17963150E+04</pdfrwt>
<totfact> 0.90553619E+00</totfact>
</mgrwt>
</event>
<event>
12    1  0.3065082E-011  0.2646768E+04  0.7818608E-02  0.8352487E-01
         -2   -1    0    0    0  501 -0.00000000000E+00  0.00000000000E+00  0.86441397444E+03  0.86441397444E+03  0.00000000000E+00 0.  1.
          2   -1    0    0  501    0  0.00000000000E+00 -0.00000000000E+00 -0.20260488894E+04  0.20260488894E+04  0.00000000000E+00 0. -1.
    9900016    2    1    2    0    0 -0.73009723470E+03 -0.30525040949E+03 -0.32091287604E+03  0.11107565445E+04  0.71033459896E+03 0.  0.
         23    2    3    3    0    0 -0.13412301845E+03  0.37499609529E+02  0.59585555088E+02  0.17649947129E+03  0.90589294045E+02 0.  0.
         23    2    3    3    0    0 -0.25922281146E+03 -0.21765269933E+03  0.71114745211E+02  0.35719095128E+03  0.89212696294E+02 0.  0.
        -15    1    5    5    0    0 -0.85825887501E+02 -0.26881574325E+02  0.36570984294E+02  0.97088304629E+02  0.00000000000E+00 0.  1.
        -15    1    4    4    0    0 -0.11237879134E+03  0.38177020833E+01  0.73187462991E+02  0.13416397554E+03  0.00000000000E+00 0.  1.
         15    1    4    4    0    0 -0.21744227111E+02  0.33681907446E+02 -0.13601907903E+02  0.42335495751E+02  0.00000000000E+00 0. -1.
         15    1    5    5    0    0 -0.17339692396E+03 -0.19077112501E+03  0.34543760917E+02  0.26010264665E+03  0.00000000000E+00 0. -1.
        -16    1    1    2    0    0  0.25808119154E+03 -0.10661848157E+03  0.34000883800E+03  0.43997660388E+03  0.00000000000E+00 0.  1.
         16    1    3    3    0    0 -0.33675140479E+03 -0.12509731969E+03 -0.45161317634E+03  0.57706612192E+03  0.00000000000E+00 0. -1.
    9900018    1    1    2    0    0  0.47201604316E+03  0.41186889107E+03 -0.11807308769E+04  0.13397297154E+04  0.91187600000E+02 0.  0.
<mgrwt>
<rscale>  0 0.26467678E+04</rscale>
<asrwt>0</asrwt>
<pdfrwt beam="1">  1        2 0.31169983E+00 0.26467678E+04</pdfrwt>
<pdfrwt beam="2">  1       -2 0.13298676E+00 0.26467678E+04</pdfrwt>
<totfact> 0.23341685E+00</totfact>
</mgrwt>
</event>
<event>
12    1  0.3065082E-011  0.1593194E+04  0.7818608E-02  0.8824740E-01
         -1   -1    0    0    0  501 -0.00000000000E+00  0.00000000000E+00  0.10960382330E+04  0.10960382330E+04  0.00000000000E+00 0.  1.
          1   -1    0    0  501    0  0.00000000000E+00 -0.00000000000E+00 -0.57896394460E+03  0.57896394460E+03  0.00000000000E+00 0. -1.
    9900016    2    1    2    0    0 -0.37266931089E+02 -0.19911473820E+03  0.63027756596E+02  0.74431360552E+03  0.71343867440E+03 0.  0.
         23    2    3    3    0    0 -0.75018066278E+02  0.88226932259E+02  0.62442709744E+02  0.16038724641E+03  0.91723906198E+02 0.  0.
         23    2    3    3    0    0  0.56895407402E+02 -0.42440866903E+03 -0.41542575224E+02  0.43925914859E+03  0.88673605636E+02 0.  0.
        -15    1    4    4    0    0 -0.84095543159E+02  0.56359304522E+02  0.14734902316E+02  0.10230126554E+03  0.00000000000E+00 0. -1.
        -15    1    5    5    0    0  0.42295892554E+02 -0.41926320429E+03 -0.36456584674E+02  0.42296531721E+03  0.00000000000E+00 0.  1.
         15    1    4    4    0    0  0.90774768816E+01  0.31867627737E+02  0.47707807429E+02  0.58085980871E+02  0.00000000000E+00 0.  1.
         15    1    5    5    0    0  0.14599514849E+02 -0.51454647386E+01 -0.50859905502E+01  0.16293831381E+02  0.00000000000E+00 0. -1.
        -16    1    1    2    0    0 -0.17138722225E+03  0.20394752931E+03  0.60253478197E+03  0.65879916374E+03  0.00000000000E+00 0.  1.
         16    1    3    3    0    0 -0.19144272214E+02  0.13706699857E+03  0.42127622076E+02  0.14466721051E+03  0.00000000000E+00 0. -1.
    9900018    1    1    2    0    0  0.20865415334E+03 -0.48327911036E+01 -0.14848825012E+03  0.27188940839E+03  0.91187600000E+02 0.  0.
<mgrwt>
<rscale>  0 0.15931938E+04</rscale>
<asrwt>0</asrwt>
<pdfrwt beam="1">  1        1 0.89071377E-01 0.15931938E+04</pdfrwt>
<pdfrwt beam="2">  1       -1 0.16862127E+00 0.15931938E+04</pdfrwt>
<totfact> 0.87189181E+00</totfact>
</mgrwt>
</event>
<event>
12    1  0.3065082E-011  0.9982214E+03  0.7818608E-02  0.9310498E-01
         -1   -1    0    0    0  501 -0.00000000000E+00  0.00000000000E+00  0.77125527824E+02  0.77125527824E+02  0.00000000000E+00 0.  1.
          1   -1    0    0  501    0  0.00000000000E+00 -0.00000000000E+00 -0.32299487698E+04  0.32299487698E+04  0.00000000000E+00 0. -1.
    9900016    2    1    2    0    0 -0.19901076120E+02 -0.77109175117E+02 -0.22122084909E+04  0.23240909564E+04  0.70794808312E+03 0.  0.
         23    2    3    3    0    0 -0.13604604781E+03  0.25648270507E+03 -0.72221543705E+03  0.78334897666E+03  0.88025999544E+02 0.  0.
         23    2    3    3    0    0  0.10477972827E+03 -0.28561558356E+03 -0.10214794918E+04  0.10696412987E+04  0.90316679952E+02 0.  0.
        -15    1    4    4    0    0 -0.22179055190E+02  0.31345769023E+02 -0.37670818870E+02  0.53791805315E+02  0.00000000000E+00 0.  1.
        -15    1    5    5    0    0  0.17089081257E+02 -0.43020265020E+02 -0.70827790460E+02  0.84612976559E+02  0.00000000000E+00 0. -1.
         15    1    4    4    0    0 -0.11386699262E+03  0.22513693605E+03 -0.68454461818E+03  0.72955717134E+03  0.00000000000E+00 0. -1.
         15    1    5    5    0    0  0.87690647011E+02 -0.24259531854E+03 -0.95065170134E+03  0.98502832214E+03  0.00000000000E+00 0.  1.
        -16    1    3    3    0    0  0.11365243424E+02 -0.47976296630E+02 -0.46851356208E+03  0.47110068101E+03  0.00000000000E+00 0.  1.
         16    1    1    2    0    0 -0.97216368506E+02  0.77782388157E+02 -0.57621722410E+03  0.58951455585E+03  0.00000000000E+00 0. -1.
    9900018    1    1    2    0    0  0.11711744463E+03 -0.67321303924E+00 -0.36439752695E+03  0.39346878541E+03  0.91187600000E+02 0.  0.
<mgrwt>
<rscale>  0 0.99822143E+03</rscale>
<asrwt>0</asrwt>
<pdfrwt beam="1">  1        1 0.49691517E+00 0.99822143E+03</pdfrwt>
<pdfrwt beam="2">  1       -1 0.11865466E-01 0.99822143E+03</pdfrwt>
<totfact> 0.20006607E+01</totfact>
</mgrwt>
</event>
<event>
12    1  0.3065082E-011  0.1290312E+04  0.7818608E-02  0.9037283E-01
          2   -1    0    0  501    0  0.00000000000E+00  0.00000000000E+00  0.14262609934E+04  0.14262609934E+04  0.00000000000E+00 0. -1.
         -2   -1    0    0    0  501 -0.00000000000E+00 -0.00000000000E+00 -0.29183055341E+03  0.29183055341E+03  0.00000000000E+00 0.  1.
    9900016    2    1    2    0    0 -0.25569071381E+03 -0.12883954060E+03  0.10098877629E+04  0.12698348168E+04  0.71458365492E+03 0.  0.
         23    2    3    3    0    0  0.16876196188E+03  0.63042875968E+02  0.15750398327E+03  0.25579005850E+03  0.90366173385E+02 0.  0.
         23    2    3    3    0    0 -0.27564075618E+01 -0.42629629024E+02  0.19030001252E+03  0.21500843130E+03  0.90496672377E+02 0.  0.
        -15    1    4    4    0    0  0.11888334895E+03  0.10779047150E+02  0.13480971087E+03  0.18006414595E+03  0.00000000000E+00 0. -1.
        -15    1    5    5    0    0 -0.34938770444E+02 -0.16425766851E+02  0.15735079016E+03  0.16201788377E+03  0.00000000000E+00 0. -1.
         15    1    4    4    0    0  0.49878612935E+02  0.52263828818E+02  0.22694272408E+02  0.75725912548E+02  0.00000000000E+00 0.  1.
         15    1    5    5    0    0  0.32182362882E+02 -0.26203862173E+02  0.32949222357E+02  0.52990547528E+02  0.00000000000E+00 0.  1.
        -16    1    3    3    0    0 -0.42169626813E+03 -0.14925278754E+03  0.66208376715E+03  0.79903632700E+03  0.00000000000E+00 0.  1.
         16    1    1    2    0    0  0.23933680401E+03  0.20136632909E+03  0.84797861836E+02  0.32406971722E+03  0.00000000000E+00 0. -1.
    9900018    1    1    2    0    0  0.16353909795E+02 -0.72526788487E+02  0.39744815207E+02  0.12418701278E+03  0.91187600000E+02 0.  0.
<mgrwt>
<rscale>  0 0.12903124E+04</rscale>
<asrwt>0</asrwt>
<pdfrwt beam="1">  1        2 0.21942476E+00 0.12903124E+04</pdfrwt>
<pdfrwt beam="2">  1       -2 0.44897009E-01 0.12903124E+04</pdfrwt>
<totfact> 0.64479996E+01</totfact>
</mgrwt>
</event>
<event>
12    1  0.3065082E-011  0.1612628E+04  0.7818608E-02  0.8812828E-01
          2   -1    0    0  501    0  0.00000000000E+00  0.00000000000E+00  0.17295280971E+04  0.17295280971E+04  0.00000000000E+00 0. -1.
         -2   -1    0    0    0  501 -0.00000000000E+00 -0.00000000000E+00 -0.37590724992E+03  0.37590724992E+03  0.00000000000E+00 0.  1.
    9900016    2    1    2    0    0  0.34151101437E+03  0.13493735174E+03  0.78006368078E+03  0.11119174493E+04  0.70215611240E+03 0.  0.
         23    2    3    3    0    0  0.20399104848E+03  0.22276881372E+03  0.64938487704E+03  0.72226566670E+03  0.93427418611E+02 0.  0.
         23    2    3    3    0    0 -0.70748065090E+02  0.40301139790E+02  0.52497978163E+02  0.13293057613E+03  0.91022138943E+02 0.  0.
        -15    1    4    4    0    0  0.78685180709E+02  0.71649735306E+02  0.13641520154E+03  0.17301488215E+03  0.00000000000E+00 0.  1.
        -15    1    5    5    0    0  0.20151389251E+02  0.10041167811E+02 -0.21831114220E+01  0.22620113068E+02  0.00000000000E+00 0. -1.
         15    1    4    4    0    0  0.12530586777E+03  0.15111907842E+03  0.51296967550E+03  0.54925078456E+03  0.00000000000E+00 0. -1.
         15    1    5    5    0    0 -0.90899454340E+02  0.30259971979E+02  0.54681089585E+02  0.11031046307E+03  0.00000000000E+00 0.  1.
        -16    1    3    3    0    0  0.20826803098E+03 -0.12813260177E+03  0.78180825582E+02  0.25672120648E+03  0.00000000000E+00 0.  1.
         16    1    1    2    0    0 -0.10286405018E+03 -0.35613644893E+03  0.53852613487E+03  0.65377716465E+03  0.00000000000E+00 0. -1.
    9900018    1    1    2    0    0 -0.23864696419E+03  0.22119909720E+03  0.35031031507E+02  0.33974073303E+03  0.91187600000E+02 0.  0.
<mgrwt>
<rscale>  0 0.16126279E+04</rscale>
<asrwt>0</asrwt>
<pdfrwt beam="1">  1        2 0.26608124E+00 0.16126279E+04</pdfrwt>
<pdfrwt beam="2">  1       -2 0.57831886E-01 0.16126279E+04</pdfrwt>
<totfact> 0.25318044E+01</totfact>
</mgrwt>
</event>
<event>
12    1  0.3065082E-011  0.1618157E+04  0.7818608E-02  0.8809471E-01
          1   -1    0    0  501    0  0.00000000000E+00  0.00000000000E+00  0.54084319475E+03  0.54084319475E+03  0.00000000000E+00 0. -1.
         -1   -1    0    0    0  501 -0.00000000000E+00 -0.00000000000E+00 -0.12103467082E+04  0.12103467082E+04  0.00000000000E+00 0.  1.
    9900016    2    1    2    0    0  0.10719515690E+03 -0.35922066884E+03 -0.25702021191E+01  0.81722346322E+03  0.72616616026E+03 0.  0.
         23    2    3    3    0    0 -0.14769682550E+03 -0.24058812445E+02  0.16441369395E+03  0.24057187984E+03  0.91922727850E+02 0.  0.
         23    2    3    3    0    0 -0.51929022095E+01 -0.19825507602E+03  0.35637026677E+02  0.21966019405E+03  0.87456056278E+02 0.  0.
        -15    1    5    5    0    0 -0.37828178204E+02 -0.15194576663E+03  0.84249493979E+01  0.15681028932E+03  0.00000000000E+00 0.  1.
        -15    1    4    4    0    0 -0.60072938466E+02 -0.44757064502E+02  0.34417467034E+02  0.82440977649E+02  0.00000000000E+00 0. -1.
         15    1    4    4    0    0 -0.87623887032E+02  0.20698252057E+02  0.12999622691E+03  0.15813090219E+03  0.00000000000E+00 0.  1.
         15    1    5    5    0    0  0.32635275995E+02 -0.46309309388E+02  0.27212077279E+02  0.62849904735E+02  0.00000000000E+00 0. -1.
        -16    1    3    3    0    0  0.26008488461E+03 -0.13690678038E+03 -0.20262092275E+03  0.35699138932E+03  0.00000000000E+00 0.  1.
         16    1    1    2    0    0  0.72774247896E+02  0.75010174478E+02  0.65145494688E+02  0.12315255950E+03  0.00000000000E+00 0. -1.
    9900018    1    1    2    0    0 -0.17996940480E+03  0.28421049437E+03 -0.73207880604E+03  0.81081388025E+03  0.91187600000E+02 0.  0.
<mgrwt>
<rscale>  0 0.16181567E+04</rscale>
<asrwt>0</asrwt>
<pdfrwt beam="1">  1        1 0.83206647E-01 0.16181567E+04</pdfrwt>
<pdfrwt beam="2">  1       -1 0.18620718E+00 0.16181567E+04</pdfrwt>
<totfact> 0.71509148E+00</totfact>
</mgrwt>
</event>
<event>
12    1  0.3065082E-011  0.1257168E+04  0.7818608E-02  0.9064238E-01
          1   -1    0    0  501    0  0.00000000000E+00  0.00000000000E+00  0.97150466917E+03  0.97150466917E+03  0.00000000000E+00 0. -1.
         -1   -1    0    0    0  501 -0.00000000000E+00 -0.00000000000E+00 -0.40670717852E+03  0.40670717852E+03  0.00000000000E+00 0.  1.
    9900016    2    1    2    0    0 -0.14022384570E+02  0.12399915889E+03  0.49635295174E+03  0.88203566528E+03  0.71836497927E+03 0.  0.
         23    2    3    3    0    0  0.10533932338E+03 -0.18234243745E+03  0.14997588782E+03  0.27411148212E+03  0.91099945987E+02 0.  0.
         23    2    3    3    0    0  0.46019147595E+02 -0.17777630658E+01 -0.23158677059E+02  0.99156032732E+02  0.84703436277E+02 0.  0.
        -15    1    4    4    0    0  0.86909288051E+02 -0.71254749671E+02  0.10178536194E+03  0.15162692243E+03  0.00000000000E+00 0.  1.
        -15    1    5    5    0    0 -0.46099188667E+01 -0.34760746009E+02 -0.19579606811E+01  0.35119715618E+02  0.00000000000E+00 0. -1.
         15    1    4    4    0    0  0.18430035328E+02 -0.11108768778E+03  0.48190525876E+02  0.12248455969E+03  0.00000000000E+00 0. -1.
         15    1    5    5    0    0  0.50629066462E+02  0.32982982943E+02 -0.21200716377E+02  0.64036317114E+02  0.00000000000E+00 0.  1.
        -16    1    1    2    0    0  0.72328997776E+02 -0.26566697642E+03 -0.53091237807E+02  0.28040881907E+03  0.00000000000E+00 0.  1.
         16    1    3    3    0    0 -0.16538085554E+03  0.30811935941E+03  0.36953574098E+03  0.50876815042E+03  0.00000000000E+00 0. -1.
    9900018    1    1    2    0    0 -0.58306613207E+02  0.14166781753E+03  0.12153577672E+03  0.21576736334E+03  0.91187600000E+02 0.  0.
<mgrwt>
<rscale>  0 0.12571681E+04</rscale>
<asrwt>0</asrwt>
<pdfrwt beam="1">  1        1 0.14946226E+00 0.12571681E+04</pdfrwt>
<pdfrwt beam="2">  1       -1 0.62570335E-01 0.12571681E+04</pdfrwt>
<totfact> 0.40689892E+01</totfact>
</mgrwt>
</event>
<event>
12    1  0.3065082E-011  0.3214899E+04  0.7818608E-02  0.8184894E-01
          2   -1    0    0  501    0  0.00000000000E+00  0.00000000000E+00  0.17718542530E+04  0.17718542530E+04  0.00000000000E+00 0. -1.
         -2   -1    0    0    0  501 -0.00000000000E+00 -0.00000000000E+00 -0.14582989444E+04  0.14582989444E+04  0.00000000000E+00 0.  1.
    9900016    2    1    2    0    0 -0.75301927589E+02  0.29206795891E+02  0.69148951523E+03  0.99100751853E+03  0.70527635355E+03 0.  0.
         23    2    3    3    0    0 -0.47693658372E+02  0.10801721454E+03  0.27750868994E+03  0.31508730019E+03  0.91249822255E+02 0.  0.
         23    2    3    3    0    0 -0.89824265750E+02  0.10487665333E+03 -0.52137968116E+02  0.17106528848E+03  0.86472273431E+02 0.  0.
        -15    1    4    4    0    0  0.18389210217E+02  0.71028244370E+02  0.13006300481E+03  0.14933037122E+03  0.00000000000E+00 0.  1.
        -15    1    5    5    0    0  0.10791567893E+02  0.33770093079E+02 -0.28782664518E+02  0.45665292082E+02  0.00000000000E+00 0.  1.
         15    1    4    4    0    0 -0.66082868588E+02  0.36988970174E+02  0.14744568514E+03  0.16575692897E+03  0.00000000000E+00 0. -1.
         15    1    5    5    0    0 -0.10061583364E+03  0.71106560251E+02 -0.23355303598E+02  0.12539999640E+03  0.00000000000E+00 0. -1.
        -16    1    1    2    0    0 -0.95899532436E+02 -0.80193347286E+03 -0.95846349099E+03  0.12533739581E+04  0.00000000000E+00 0.  1.
         16    1    3    3    0    0  0.62215996532E+02 -0.18368707198E+03  0.46611879340E+03  0.50485492985E+03  0.00000000000E+00 0. -1.
    9900018    1    1    2    0    0  0.17120146003E+03  0.77272667697E+03  0.58052928431E+03  0.98577172081E+03  0.91187600000E+02 0.  0.
<mgrwt>
<rscale>  0 0.32148986E+04</rscale>
<asrwt>0</asrwt>
<pdfrwt beam="1">  1        2 0.27259296E+00 0.32148986E+04</pdfrwt>
<pdfrwt beam="2">  1       -2 0.22435368E+00 0.32148986E+04</pdfrwt>
<totfact> 0.69795719E-01</totfact>
</mgrwt>
</event>
<event>
12    1  0.3065082E-011  0.1059910E+04  0.7818608E-02  0.9245172E-01
          1   -1    0    0  501    0  0.00000000000E+00  0.00000000000E+00  0.54245954413E+03  0.54245954413E+03  0.00000000000E+00 0. -1.
         -1   -1    0    0    0  501 -0.00000000000E+00 -0.00000000000E+00 -0.51773829046E+03  0.51773829046E+03  0.00000000000E+00 0.  1.
    9900016    2    1    2    0    0 -0.25670644365E+02 -0.20144744907E+03  0.74618218602E-01  0.74458153392E+03  0.71635298447E+03 0.  0.
         23    2    3    3    0    0 -0.10188150543E+03  0.63685231456E+01 -0.12889343751E+03  0.18856200402E+03  0.92313118730E+02 0.  0.
         23    2    3    3    0    0 -0.29197263056E+02 -0.26104346425E+03 -0.10246299463E+03  0.29620349959E+03  0.90783685223E+02 0.  0.
        -15    1    4    4    0    0 -0.39661059069E+02  0.31551450141E+02 -0.94555947387E+01  0.51554843462E+02  0.00000000000E+00 0. -1.
        -15    1    5    5    0    0 -0.38757938516E+02 -0.24354702705E+03 -0.11556421073E+03  0.27234613818E+03  0.00000000000E+00 0. -1.
         15    1    4    4    0    0 -0.62220446361E+02 -0.25182926995E+02 -0.11943784277E+03  0.13700716055E+03  0.00000000000E+00 0.  1.
         15    1    5    5    0    0  0.95606754594E+01 -0.17496437201E+02  0.13101216099E+02  0.23857361406E+02  0.00000000000E+00 0.  1.
        -16    1    1    2    0    0 -0.58589965833E+02  0.13094792384E+03 -0.53189882953E+02  0.15300100164E+03  0.00000000000E+00 0.  1.
         16    1    3    3    0    0  0.10540812412E+03  0.53227492039E+02  0.23143105035E+03  0.25981603031E+03  0.00000000000E+00 0. -1.
    9900018    1    1    2    0    0  0.84260610198E+02  0.70499525231E+02  0.77836518400E+02  0.16261529903E+03  0.91187600000E+02 0.  0.
<mgrwt>
<rscale>  0 0.10599096E+04</rscale>
<asrwt>0</asrwt>
<pdfrwt beam="1">  1        1 0.83455315E-01 0.10599096E+04</pdfrwt>
<pdfrwt beam="2">  1       -1 0.79652044E-01 0.10599096E+04</pdfrwt>
<totfact> 0.62252259E+01</totfact>
</mgrwt>
</event>
<event>
12    1  0.3065082E-011  0.1166094E+04  0.7818608E-02  0.9143064E-01
         -2   -1    0    0    0  501 -0.00000000000E+00  0.00000000000E+00  0.25704256366E+03  0.25704256366E+03  0.00000000000E+00 0.  1.
          2   -1    0    0  501    0  0.00000000000E+00 -0.00000000000E+00 -0.13225185994E+04  0.13225185994E+04  0.00000000000E+00 0. -1.
    9900016    2    1    2    0    0 -0.22367790257E+03 -0.13960319722E+03 -0.84288698296E+03  0.11377128114E+04  0.71722459406E+03 0.  0.
         23    2    3    3    0    0  0.88080671649E+02  0.11199122482E+03 -0.31172027110E+03  0.35474134180E+03  0.91496737693E+02 0.  0.
         23    2    3    3    0    0  0.30786291624E+01  0.47186736651E+02 -0.23659723764E+03  0.25841087197E+03  0.92530318376E+02 0.  0.
        -15    1    4    4    0    0  0.89179175214E+02  0.85424254069E+02 -0.30226840687E+03  0.32652169647E+03  0.00000000000E+00 0. -1.
        -15    1    5    5    0    0 -0.11077936322E+02 -0.58659846062E+01  0.27607102303E+01  0.12835574375E+02  0.00000000000E+00 0. -1.
         15    1    4    4    0    0 -0.10985035645E+01  0.26566970748E+02 -0.94518642342E+01  0.28219645325E+02  0.00000000000E+00 0.  1.
         15    1    5    5    0    0  0.14156565484E+02  0.53052721258E+02 -0.23935794787E+03  0.24557529759E+03  0.00000000000E+00 0.  1.
        -16    1    3    3    0    0 -0.31483720338E+03 -0.29878115868E+03 -0.29456947422E+03  0.52456059761E+03  0.00000000000E+00 0.  1.
         16    1    1    2    0    0  0.12484100685E+03 -0.90085367276E+01 -0.20560512416E+03  0.24070707884E+03  0.00000000000E+00 0. -1.
    9900018    1    1    2    0    0  0.98836895719E+02  0.14861173394E+03 -0.16983928615E+02  0.20114127286E+03  0.91187600000E+02 0.  0.
<mgrwt>
<rscale>  0 0.11660936E+04</rscale>
<asrwt>0</asrwt>
<pdfrwt beam="1">  1        2 0.20346439E+00 0.11660936E+04</pdfrwt>
<pdfrwt beam="2">  1       -2 0.39545011E-01 0.11660936E+04</pdfrwt>
<totfact> 0.95866012E+01</totfact>
</mgrwt>
</event>
<event>
12    1  0.3065082E-011  0.1514131E+04  0.7818608E-02  0.8875110E-01
          2   -1    0    0  501    0  0.00000000000E+00  0.00000000000E+00  0.68495658247E+03  0.68495658247E+03  0.00000000000E+00 0. -1.
         -2   -1    0    0    0  501 -0.00000000000E+00 -0.00000000000E+00 -0.83676605700E+03  0.83676605700E+03  0.00000000000E+00 0.  1.
    9900016    2    1    2    0    0 -0.21929351893E+02 -0.42774491472E+02 -0.12542753991E+03  0.71863810037E+03  0.70597315667E+03 0.  0.
         23    2    3    3    0    0  0.60008909269E+02  0.39488107714E+02 -0.29334005024E+03  0.31707030309E+03  0.96565067117E+02 0.  0.
         23    2    3    3    0    0  0.24543030389E+02  0.96841343889E+02  0.34369713102E+01  0.13610840149E+03  0.92374660797E+02 0.  0.
        -15    1    4    4    0    0  0.40553613565E+02 -0.16310848542E+02 -0.21241640254E+03  0.21686716538E+03  0.00000000000E+00 0.  1.
        -15    1    5    5    0    0 -0.17752284734E+02  0.68458086256E+02  0.32094321719E+02  0.77664011445E+02  0.00000000000E+00 0.  1.
         15    1    4    4    0    0  0.19455295704E+02  0.55798956256E+02 -0.80923647702E+02  0.10020313771E+03  0.00000000000E+00 0. -1.
         15    1    5    5    0    0  0.42295315123E+02  0.28383257633E+02 -0.28657350409E+02  0.58444390045E+02  0.00000000000E+00 0. -1.
        -16    1    1    2    0    0 -0.58613341640E+02 -0.23081190156E+03 -0.30983441612E+03  0.39077745986E+03  0.00000000000E+00 0.  1.
         16    1    3    3    0    0 -0.10648129155E+03 -0.17910394308E+03  0.16447553902E+03  0.26545939578E+03  0.00000000000E+00 0. -1.
    9900018    1    1    2    0    0  0.80542693533E+02  0.27358639303E+03  0.28345248150E+03  0.41230707925E+03  0.91187600000E+02 0.  0.
<mgrwt>
<rscale>  0 0.15141313E+04</rscale>
<asrwt>0</asrwt>
<pdfrwt beam="1">  1        2 0.10537794E+00 0.15141313E+04</pdfrwt>
<pdfrwt beam="2">  1       -2 0.12873324E+00 0.15141313E+04</pdfrwt>
<totfact> 0.18091009E+01</totfact>
</mgrwt>
</event>
<event>
12    1  0.3785518E-011  0.2637746E+04  0.7818608E-02  0.8355491E-01
         -2   -1    0    0    0  501 -0.00000000000E+00  0.00000000000E+00  0.87140072421E+03  0.87140072421E+03  0.00000000000E+00 0.  1.
          2   -1    0    0  501    0  0.00000000000E+00 -0.00000000000E+00 -0.19961271106E+04  0.19961271106E+04  0.00000000000E+00 0. -1.
    9900016    2    1    2    0    0  0.51717015005E+03  0.25276417994E+03  0.19383547266E+02  0.90954443768E+03  0.70394649474E+03 0.  0.
         23    2    3    3    0    0  0.46370529500E+02 -0.19707815911E+00  0.36462099917E+02  0.10808022612E+03  0.90562606530E+02 0.  0.
         23    2    3    3    0    0  0.41055422375E+03 -0.44042775196E+02 -0.17741454029E+03  0.45861069684E+03  0.91396474030E+02 0.  0.
        -15    1    4    4    0    0  0.55817994927E+02  0.27779811683E+02  0.45515288933E+02  0.77194611350E+02  0.00000000000E+00 0. -1.
        -15    1    5    5    0    0  0.21579373220E+03 -0.67619610124E+02 -0.82990728044E+02  0.24088754113E+03  0.00000000000E+00 0.  1.
         15    1    4    4    0    0 -0.94474654271E+01 -0.27976889842E+02 -0.90531890162E+01  0.30885614768E+02  0.00000000000E+00 0.  1.
         15    1    5    5    0    0  0.19476049155E+03  0.23576834928E+02 -0.94423812247E+02  0.21772315571E+03  0.00000000000E+00 0. -1.
        -16    1    3    3    0    0  0.60245396804E+02  0.29700403329E+03  0.16033598764E+03  0.34285351472E+03  0.00000000000E+00 0.  1.
         16    1    1    2    0    0 -0.46385641483E+03  0.69732714899E+02 -0.14358106231E+04  0.15104891825E+04  0.00000000000E+00 0. -1.
    9900018    1    1    2    0    0 -0.53313735221E+02 -0.32249689483E+03  0.29170068941E+03  0.44749421464E+03  0.91187600000E+02 0.  0.
<mgrwt>
<rscale>  0 0.26377465E+04</rscale>
<asrwt>0</asrwt>
<pdfrwt beam="1">  1        2 0.30709647E+00 0.26377465E+04</pdfrwt>
<pdfrwt beam="2">  1       -2 0.13406165E+00 0.26377465E+04</pdfrwt>
<totfact> 0.23779785E+00</totfact>
</mgrwt>
</event>
<event>
12    1  0.3065082E-011  0.1743269E+04  0.7818608E-02  0.8737064E-01
          4   -1    0    0  501    0  0.00000000000E+00  0.00000000000E+00  0.43544752056E+03  0.43544752056E+03  0.00000000000E+00 0. -1.
         -4   -1    0    0    0  501 -0.00000000000E+00 -0.00000000000E+00 -0.17447495488E+04  0.17447495488E+04  0.00000000000E+00 0.  1.
    9900016    2    1    2    0    0 -0.45160714266E+03  0.18774222435E+03 -0.20307736548E+03  0.88514415839E+03  0.70925567369E+03 0.  0.
         23    2    3    3    0    0 -0.12310182137E+03  0.56584496332E+02  0.76350966195E+02  0.18060447927E+03  0.91829430168E+02 0.  0.
         23    2    3    3    0    0 -0.41891742618E+03  0.16097857243E+03 -0.55418442139E+02  0.46113864772E+03  0.90397665645E+02 0.  0.
        -15    1    5    5    0    0 -0.33677959683E+03  0.16241911988E+03 -0.29792418629E+02  0.37508406464E+03  0.00000000000E+00 0.  1.
        -15    1    4    4    0    0 -0.13827720852E+03  0.48966170583E+02  0.68286257845E+02  0.16180632024E+03  0.00000000000E+00 0.  1.
         15    1    4    4    0    0  0.15175387151E+02  0.76183257494E+01  0.80647083497E+01  0.18798159037E+02  0.00000000000E+00 0. -1.
         15    1    5    5    0    0 -0.82137829356E+02 -0.14405474492E+01 -0.25626023510E+02  0.86054583081E+02  0.00000000000E+00 0. -1.
        -16    1    1    2    0    0 -0.38065213943E+02  0.84472085393E+02 -0.80470561774E+02  0.12271921217E+03  0.00000000000E+00 0.  1.
         16    1    3    3    0    0  0.90412104898E+02 -0.29820844414E+02 -0.22400988954E+03  0.24340103140E+03  0.00000000000E+00 0. -1.
    9900018    1    1    2    0    0  0.48967235660E+03 -0.27221430974E+03 -0.10257541010E+04  0.11723336988E+04  0.91187600000E+02 0.  0.
<mgrwt>
<rscale>  0 0.17432692E+04</rscale>
<asrwt>0</asrwt>
<pdfrwt beam="1">  1        4 0.66991926E-01 0.17432692E+04</pdfrwt>
<pdfrwt beam="2">  1       -4 0.26842301E+00 0.17432692E+04</pdfrwt>
<totfact> 0.19031259E-01</totfact>
</mgrwt>
</event>
<event>
12    1  0.3065082E-011  0.1248247E+04  0.7818608E-02  0.9071644E-01
          2   -1    0    0  501    0  0.00000000000E+00  0.00000000000E+00  0.12947076565E+04  0.12947076565E+04  0.00000000000E+00 0. -1.
         -2   -1    0    0    0  501 -0.00000000000E+00 -0.00000000000E+00 -0.30086332784E+03  0.30086332784E+03  0.00000000000E+00 0.  1.
    9900016    2    1    2    0    0  0.31942526361E+03 -0.14468138408E+03  0.84230383060E+03  0.11567675797E+04  0.71110497714E+03 0.  0.
         23    2    3    3    0    0  0.14670902283E+03 -0.23798707821E+02  0.15669352962E+03  0.23457736254E+03  0.91562879592E+02 0.  0.
         23    2    3    3    0    0  0.47913376551E+02 -0.23433687096E+03  0.70723626764E+03  0.75214524769E+03  0.91268146742E+02 0.  0.
        -15    1    5    5    0    0 -0.13938483496E+02 -0.18776431785E+02  0.26112347794E+02  0.35052680640E+02  0.00000000000E+00 0.  1.
        -15    1    4    4    0    0 -0.11571608904E+02 -0.36753233828E+01  0.19276311283E+01  0.12293327311E+02  0.00000000000E+00 0.  1.
         15    1    4    4    0    0  0.15828063173E+03 -0.20123384438E+02  0.15476589849E+03  0.22228403523E+03  0.00000000000E+00 0. -1.
         15    1    5    5    0    0  0.61851860046E+02 -0.21556043917E+03  0.68112391985E+03  0.71709256705E+03  0.00000000000E+00 0. -1.
        -16    1    3    3    0    0  0.12480286423E+03  0.11345419470E+03 -0.21625966661E+02  0.17004496949E+03  0.00000000000E+00 0.  1.
         16    1    1    2    0    0 -0.28637836746E+03  0.12673489149E+03  0.11519029654E+03  0.33368114494E+03  0.00000000000E+00 0. -1.
    9900018    1    1    2    0    0 -0.33046896147E+02  0.17946492594E+02  0.36350201544E+02  0.10512225971E+03  0.91187600000E+02 0.  0.
<mgrwt>
<rscale>  0 0.12482469E+04</rscale>
<asrwt>0</asrwt>
<pdfrwt beam="1">  1        2 0.19918579E+00 0.12482469E+04</pdfrwt>
<pdfrwt beam="2">  1       -2 0.46286666E-01 0.12482469E+04</pdfrwt>
<totfact> 0.72444986E+01</totfact>
</mgrwt>
</event>
<event>
12    1  0.3065082E-011  0.2501760E+04  0.7818608E-02  0.8402359E-01
         -1   -1    0    0    0  501 -0.00000000000E+00  0.00000000000E+00  0.21465574560E+04  0.21465574560E+04  0.00000000000E+00 0.  1.
          1   -1    0    0  501    0  0.00000000000E+00 -0.00000000000E+00 -0.72893481363E+03  0.72893481363E+03  0.00000000000E+00 0. -1.
    9900016    2    1    2    0    0 -0.24598669124E+02  0.36359722014E+02  0.23155470543E+03  0.74386018775E+03  0.70553757760E+03 0.  0.
         23    2    3    3    0    0  0.83222454184E+02  0.32025635767E+02  0.41456728796E+02  0.13302915867E+03  0.89590615948E+02 0.  0.
         23    2    3    3    0    0 -0.33143141298E+03 -0.45913717431E+02  0.75685801324E+02  0.35467375458E+03  0.90057096906E+02 0.  0.
        -15    1    5    5    0    0 -0.75663024096E+02  0.25443983919E+02  0.54852327990E+01  0.80014856820E+02  0.00000000000E+00 0. -1.
        -15    1    4    4    0    0  0.90860557876E+02  0.13117907014E+01  0.44598158097E+02  0.10122429292E+03  0.00000000000E+00 0.  1.
         15    1    4    4    0    0 -0.76381036920E+01  0.30713845066E+02 -0.31414293006E+01  0.31804865741E+02  0.00000000000E+00 0. -1.
         15    1    5    5    0    0 -0.25576838889E+03 -0.71357701350E+02  0.70200568525E+02  0.27465889776E+03  0.00000000000E+00 0.  1.
        -16    1    1    2    0    0  0.67432177703E+03  0.41143230432E+03  0.10682753003E+04  0.13286077364E+04  0.00000000000E+00 0.  1.
         16    1    3    3    0    0  0.22361028967E+03  0.50247803678E+02  0.11441217531E+03  0.25615727450E+03  0.00000000000E+00 0. -1.
    9900018    1    1    2    0    0 -0.64972310791E+03 -0.44779202633E+03  0.11779263663E+03  0.80302434548E+03  0.91187600000E+02 0.  0.
<mgrwt>
<rscale>  0 0.25017597E+04</rscale>
<asrwt>0</asrwt>
<pdfrwt beam="1">  1        1 0.11214382E+00 0.25017597E+04</pdfrwt>
<pdfrwt beam="2">  1       -1 0.33023961E+00 0.25017597E+04</pdfrwt>
<totfact> 0.47711788E-01</totfact>
</mgrwt>
</event>
<event>
12    1  0.3065082E-011  0.2001829E+04  0.7818608E-02  0.8605766E-01
         -2   -1    0    0    0  501 -0.00000000000E+00  0.00000000000E+00  0.48117498551E+03  0.48117498551E+03  0.00000000000E+00 0.  1.
          2   -1    0    0  501    0  0.00000000000E+00 -0.00000000000E+00 -0.20820478608E+04  0.20820478608E+04  0.00000000000E+00 0. -1.
    9900016    2    1    2    0    0 -0.13065638045E+03 -0.85887199749E+02 -0.56718219898E+03  0.93775376710E+03  0.73023200425E+03 0.  0.
         23    2    3    3    0    0 -0.84513971162E+02  0.27282253307E+02  0.73817728510E+02  0.14661718871E+03  0.90336096421E+02 0.  0.
         23    2    3    3    0    0 -0.11543479063E+03  0.50519221561E+02 -0.33556068737E+02  0.15821995051E+03  0.89611161991E+02 0.  0.
        -15    1    5    5    0    0 -0.70421106758E+02  0.75376847502E+02 -0.20586624321E+02  0.10518845240E+03  0.00000000000E+00 0.  1.
        -15    1    4    4    0    0 -0.23494325560E+01 -0.27052639212E+02  0.86193071263E+01  0.28489604719E+02  0.00000000000E+00 0. -1.
         15    1    4    4    0    0 -0.82164538606E+02  0.54334892519E+02  0.65198421383E+02  0.11812758399E+03  0.00000000000E+00 0.  1.
         15    1    5    5    0    0 -0.45013683874E+02 -0.24857625941E+02 -0.12969444416E+02  0.53031498110E+02  0.00000000000E+00 0. -1.
        -16    1    1    2    0    0  0.21298031373E+03  0.64638907533E+03 -0.55257009908E+03  0.87664882658E+03  0.00000000000E+00 0.  1.
         16    1    3    3    0    0  0.69292381348E+02 -0.16368867462E+03 -0.60744385875E+03  0.63291662788E+03  0.00000000000E+00 0. -1.
    9900018    1    1    2    0    0 -0.82323933281E+02 -0.56050187558E+03 -0.48112057721E+03  0.74882025262E+03  0.91187600000E+02 0.  0.
<mgrwt>
<rscale>  0 0.20018285E+04</rscale>
<asrwt>0</asrwt>
<pdfrwt beam="1">  1        2 0.32031506E+00 0.20018285E+04</pdfrwt>
<pdfrwt beam="2">  1       -2 0.74026919E-01 0.20018285E+04</pdfrwt>
<totfact> 0.91808576E+00</totfact>
</mgrwt>
</event>
<event>
12    1  0.3065082E-011  0.1842586E+04  0.7818608E-02  0.8683975E-01
         -1   -1    0    0    0  501 -0.00000000000E+00  0.00000000000E+00  0.68247238021E+03  0.68247238021E+03  0.00000000000E+00 0.  1.
          1   -1    0    0  501    0  0.00000000000E+00 -0.00000000000E+00 -0.12436851534E+04  0.12436851534E+04  0.00000000000E+00 0. -1.
    9900016    2    1    2    0    0  0.16791446683E+03  0.31738573000E+03 -0.40526020776E+02  0.79587630094E+03  0.70911759128E+03 0.  0.
         23    2    3    3    0    0  0.23845229603E+03  0.39487144047E+03 -0.16764659730E+03  0.50148395223E+03  0.10294571763E+03 0.  0.
         23    2    3    3    0    0  0.37296694589E+02 -0.86712124841E+02  0.42082844537E+01  0.13062164686E+03  0.90190182111E+02 0.  0.
        -15    1    4    4    0    0  0.17550144356E+03  0.31740658796E+03 -0.86559628585E+02  0.37288103742E+03  0.00000000000E+00 0.  1.
        -15    1    5    5    0    0  0.49726138647E+02 -0.16251632531E+02 -0.18604896207E+02  0.55524288266E+02  0.00000000000E+00 0.  1.
         15    1    4    4    0    0  0.62950852471E+02  0.77464852511E+02 -0.81086968711E+02  0.12860291480E+03  0.00000000000E+00 0. -1.
         15    1    5    5    0    0 -0.12429444057E+02 -0.70460492310E+02  0.22813180661E+02  0.75097358596E+02  0.00000000000E+00 0. -1.
        -16    1    3    3    0    0 -0.10783452379E+03  0.92264143740E+01  0.12291229207E+03  0.16377070185E+03  0.00000000000E+00 0.  1.
         16    1    1    2    0    0 -0.35028482751E+03 -0.19995815258E+03 -0.71778325803E+03  0.82334411316E+03  0.00000000000E+00 0. -1.
    9900018    1    1    2    0    0  0.18237036068E+03 -0.11742757742E+03  0.19709650563E+03  0.30693711949E+03  0.91187600000E+02 0.  0.
<mgrwt>
<rscale>  0 0.18425860E+04</rscale>
<asrwt>0</asrwt>
<pdfrwt beam="1">  1        1 0.19133618E+00 0.18425860E+04</pdfrwt>
<pdfrwt beam="2">  1       -1 0.10499575E+00 0.18425860E+04</pdfrwt>
<totfact> 0.79503868E+00</totfact>
</mgrwt>
</event>
<event>
12    1  0.3065082E-011  0.1729162E+04  0.7818608E-02  0.8744905E-01
          2   -1    0    0  501    0  0.00000000000E+00  0.00000000000E+00  0.13558658695E+04  0.13558658695E+04  0.00000000000E+00 0. -1.
         -2   -1    0    0    0  501 -0.00000000000E+00 -0.00000000000E+00 -0.55130825234E+03  0.55130825234E+03  0.00000000000E+00 0.  1.
    9900016    2    1    2    0    0 -0.20615335035E+03 -0.32454457954E+03  0.34485694810E+03  0.88778100068E+03  0.72208060667E+03 0.  0.
         23    2    3    3    0    0 -0.34234191943E+03 -0.33155744066E+03  0.43512645049E+03  0.65164807924E+03  0.90453662236E+02 0.  0.
         23    2    3    3    0    0  0.15499814934E+03 -0.29246084155E+02 -0.69301970202E+02  0.19021833957E+03  0.80625640436E+02 0.  0.
        -15    1    4    4    0    0 -0.28858373444E+03 -0.26839668054E+03  0.30947588037E+03  0.50109147911E+03  0.00000000000E+00 0.  1.
        -15    1    5    5    0    0  0.34875771114E+02 -0.33742266160E+02  0.51869842184E+01  0.48803327158E+02  0.00000000000E+00 0.  1.
         15    1    4    4    0    0 -0.53758184992E+02 -0.63160760121E+02  0.12565057012E+03  0.15055660013E+03  0.00000000000E+00 0. -1.
         15    1    5    5    0    0  0.12012237823E+03  0.44961820056E+01 -0.74488954420E+02  0.14141501241E+03  0.00000000000E+00 0. -1.
        -16    1    1    2    0    0 -0.27337580018E+03  0.24372451359E+02 -0.15588407583E+02  0.27490242444E+03  0.00000000000E+00 0.  1.
         16    1    3    3    0    0 -0.18809580268E+02  0.36258945270E+02 -0.20967532184E+02  0.45914581865E+02  0.00000000000E+00 0. -1.
    9900018    1    1    2    0    0  0.47952915053E+03  0.30017212818E+03  0.47528907666E+03  0.74449069674E+03  0.91187600000E+02 0.  0.
<mgrwt>
<rscale>  0 0.17291617E+04</rscale>
<asrwt>0</asrwt>
<pdfrwt beam="1">  1        2 0.20859475E+00 0.17291617E+04</pdfrwt>
<pdfrwt beam="2">  1       -2 0.84816655E-01 0.17291617E+04</pdfrwt>
<totfact> 0.17637503E+01</totfact>
</mgrwt>
</event>
<event>
12    1  0.3065082E-011  0.1520266E+04  0.7818608E-02  0.8871087E-01
         -1   -1    0    0    0  501 -0.00000000000E+00  0.00000000000E+00  0.43111644696E+03  0.43111644696E+03  0.00000000000E+00 0. -1.
          1   -1    0    0  501    0  0.00000000000E+00 -0.00000000000E+00 -0.13402455852E+04  0.13402455852E+04  0.00000000000E+00 0.  1.
    9900016    2    1    2    0    0 -0.37873308884E+03 -0.10080814067E+02 -0.76469041282E+03  0.11071795275E+04  0.70537557609E+03 0.  0.
         23    2    3    3    0    0  0.16534706518E+02 -0.81791365216E+02 -0.10372004119E+03  0.16058277065E+03  0.89809550392E+02 0.  0.
         23    2    3    3    0    0 -0.40399596394E+01 -0.25635390279E+02 -0.50541586127E+03  0.51447101425E+03  0.92529655632E+02 0.  0.
        -15    1    4    4    0    0 -0.25023699441E+02 -0.85000861149E+01 -0.60216068873E+02  0.65760261163E+02  0.00000000000E+00 0.  1.
        -15    1    5    5    0    0  0.43315861663E+02 -0.25351279430E+01 -0.22296925721E+03  0.22715188840E+03  0.00000000000E+00 0.  1.
         15    1    4    4    0    0  0.41558405959E+02 -0.73291279101E+02 -0.43503972316E+02  0.94822509487E+02  0.00000000000E+00 0. -1.
         15    1    5    5    0    0 -0.47355821302E+02 -0.23100262336E+02 -0.28244660407E+03  0.28731912585E+03  0.00000000000E+00 0. -1.
        -16    1    1    2    0    0  0.23012146094E+03 -0.71614949375E+02  0.17037891567E+03  0.29515006804E+03  0.00000000000E+00 0.  1.
         16    1    3    3    0    0 -0.39122783572E+03  0.97345941427E+02 -0.15555451036E+03  0.43212574264E+03  0.00000000000E+00 0. -1.
    9900018    1    1    2    0    0  0.14861162790E+03  0.81695763443E+02 -0.31481764109E+03  0.36903243658E+03  0.91187600000E+02 0.  0.
<mgrwt>
<rscale>  0 0.15202657E+04</rscale>
<asrwt>0</asrwt>
<pdfrwt beam="1">  1        1 0.20619163E+00 0.15202657E+04</pdfrwt>
<pdfrwt beam="2">  1       -1 0.66325608E-01 0.15202657E+04</pdfrwt>
<totfact> 0.18836790E+01</totfact>
</mgrwt>
</event>
<event>
12    1  0.3065082E-011  0.1471034E+04  0.7818608E-02  0.8903947E-01
          2   -1    0    0  501    0  0.00000000000E+00  0.00000000000E+00  0.13883044966E+04  0.13883044966E+04  0.00000000000E+00 0. -1.
         -2   -1    0    0    0  501 -0.00000000000E+00 -0.00000000000E+00 -0.38967342187E+03  0.38967342187E+03  0.00000000000E+00 0.  1.
    9900016    2    1    2    0    0 -0.75909408583E+02  0.24904091750E+03  0.13449082630E+03  0.76807515513E+03  0.70997749589E+03 0.  0.
         23    2    3    3    0    0  0.22680808250E+03  0.10769107444E+03 -0.64786099126E+02  0.27626586803E+03  0.95322176842E+02 0.  0.
         23    2    3    3    0    0 -0.16260940758E+03  0.21486075712E+03  0.86602710854E+02  0.29756817873E+03  0.91868531520E+02 0.  0.
        -15    1    4    4    0    0  0.41368457420E+02  0.29161584409E+02  0.24197424717E+02  0.56100469138E+02  0.00000000000E+00 0. -1.
        -15    1    5    5    0    0 -0.82667486364E+02  0.17282140170E+03  0.77971482668E+02  0.20683496391E+03  0.00000000000E+00 0.  1.
         15    1    4    4    0    0  0.18543962508E+03  0.78529490031E+02 -0.88983523843E+02  0.22016539890E+03  0.00000000000E+00 0.  1.
         15    1    5    5    0    0 -0.79941921214E+02  0.42039355420E+02  0.86312281855E+01  0.90733214820E+02  0.00000000000E+00 0. -1.
        -16    1    3    3    0    0 -0.14010808351E+03 -0.73510914063E+02  0.11267421457E+03  0.19424110837E+03  0.00000000000E+00 0.  1.
         16    1    1    2    0    0  0.15350818179E+03 -0.17340866611E+03  0.83340265141E+03  0.86498283609E+03  0.00000000000E+00 0. -1.
    9900018    1    1    2    0    0 -0.77598773205E+02 -0.75632251380E+02  0.30737597029E+02  0.14491992726E+03  0.91187600000E+02 0.  0.
<mgrwt>
<rscale>  0 0.14710341E+04</rscale>
<asrwt>0</asrwt>
<pdfrwt beam="1">  1        2 0.21358530E+00 0.14710341E+04</pdfrwt>
<pdfrwt beam="2">  1       -2 0.59949758E-01 0.14710341E+04</pdfrwt>
<totfact> 0.36915717E+01</totfact>
</mgrwt>
</event>
<event>
12    1  0.3065082E-011  0.1243238E+04  0.7818608E-02  0.9075830E-01
         -1   -1    0    0    0  501 -0.00000000000E+00  0.00000000000E+00  0.47971735017E+03  0.47971735017E+03  0.00000000000E+00 0.  1.
          1   -1    0    0  501    0  0.00000000000E+00 -0.00000000000E+00 -0.80549579523E+03  0.80549579523E+03  0.00000000000E+00 0. -1.
    9900016    2    1    2    0    0 -0.21059760392E+03  0.14834421824E+02 -0.13517122067E+03  0.74969920425E+03  0.70654527605E+03 0.  0.
         23    2    3    3    0    0 -0.11474883743E+03  0.17552108147E+03  0.89308952418E+02  0.24502616807E+03  0.89926571845E+02 0.  0.
         23    2    3    3    0    0 -0.28225351597E+02 -0.33970725776E+02 -0.31788443772E+03  0.33334233026E+03  0.90088360618E+02 0.  0.
        -15    1    4    4    0    0 -0.10526361642E+03  0.81724459197E+02  0.43290382651E+02  0.14011914003E+03  0.00000000000E+00 0.  1.
        -15    1    5    5    0    0 -0.44741133654E+01 -0.61197438570E+02 -0.15966213790E+03  0.17104719365E+03  0.00000000000E+00 0.  1.
         15    1    4    4    0    0 -0.94852210047E+01  0.93796622273E+02  0.46018569767E+02  0.10490702803E+03  0.00000000000E+00 0. -1.
         15    1    5    5    0    0 -0.23751238232E+02  0.27226712795E+02 -0.15822229982E+03  0.16229513661E+03  0.00000000000E+00 0. -1.
        -16    1    3    3    0    0 -0.67623414896E+02 -0.12671593387E+03  0.93404264631E+02  0.17133070592E+03  0.00000000000E+00 0.  1.
         16    1    1    2    0    0  0.91976851749E+02 -0.12143110653E+03 -0.28931331632E+03  0.32696704710E+03  0.00000000000E+00 0. -1.
    9900018    1    1    2    0    0  0.11862075217E+03  0.10659668471E+03  0.98706091930E+02  0.20854689404E+03  0.91187600000E+02 0.  0.
<mgrwt>
<rscale>  0 0.12432382E+04</rscale>
<asrwt>0</asrwt>
<pdfrwt beam="1">  1        1 0.12392243E+00 0.12432382E+04</pdfrwt>
<pdfrwt beam="2">  1       -1 0.73802670E-01 0.12432382E+04</pdfrwt>
<totfact> 0.39907781E+01</totfact>
</mgrwt>
</event>
<event>
12    1  0.3065082E-011  0.1546181E+04  0.7818608E-02  0.8854311E-01
          1   -1    0    0  501    0  0.00000000000E+00  0.00000000000E+00  0.90934915208E+03  0.90934915208E+03  0.00000000000E+00 0. -1.
         -1   -1    0    0    0  501 -0.00000000000E+00 -0.00000000000E+00 -0.65724938840E+03  0.65724938840E+03  0.00000000000E+00 0.  1.
    9900016    2    1    2    0    0  0.20009715434E+03  0.50582746822E+03 -0.77363881364E+02  0.89625840624E+03  0.70809156317E+03 0.  0.
         23    2    3    3    0    0  0.13218236366E+02  0.96911041681E+02 -0.68838464350E+02  0.14862050229E+03  0.88220449754E+02 0.  0.
         23    2    3    3    0    0  0.79950887536E+02  0.53631734338E+03  0.85728723420E+02  0.55646144019E+03  0.90947694650E+02 0.  0.
        -15    1    5    5    0    0 -0.10594593928E+02  0.71915585914E+01 -0.22356739098E+00  0.12806791864E+02  0.00000000000E+00 0.  1.
        -15    1    4    4    0    0 -0.32979598233E+02  0.29838391356E+02 -0.46114522044E+02  0.64066626583E+02  0.00000000000E+00 0. -1.
         15    1    4    4    0    0  0.46197834599E+02  0.67072650326E+02 -0.22723942306E+02  0.84553875709E+02  0.00000000000E+00 0.  1.
         15    1    5    5    0    0  0.90545481464E+02  0.52912578479E+03  0.85952290811E+02  0.54365464832E+03  0.00000000000E+00 0. -1.
        -16    1    1    2    0    0 -0.99231283100E+02 -0.39747970188E+03  0.22232895156E+03  0.46611921614E+03  0.00000000000E+00 0.  1.
         16    1    3    3    0    0  0.10692803044E+03 -0.12740091684E+03 -0.94254140433E+02  0.19117646376E+03  0.00000000000E+00 0. -1.
    9900018    1    1    2    0    0 -0.10086587124E+03 -0.10834776634E+03  0.10713469348E+03  0.20422091811E+03  0.91187600000E+02 0.  0.
<mgrwt>
<rscale>  0 0.15461813E+04</rscale>
<asrwt>0</asrwt>
<pdfrwt beam="1">  1        1 0.13989987E+00 0.15461813E+04</pdfrwt>
<pdfrwt beam="2">  1       -1 0.10111529E+00 0.15461813E+04</pdfrwt>
<totfact> 0.16013831E+01</totfact>
</mgrwt>
</event>
<event>
12    1  0.3065082E-011  0.9766841E+03  0.7818608E-02  0.9334494E-01
         -2   -1    0    0    0  501 -0.00000000000E+00  0.00000000000E+00  0.46081510059E+03  0.46081510059E+03  0.00000000000E+00 0. -1.
          2   -1    0    0  501    0  0.00000000000E+00 -0.00000000000E+00 -0.51751330666E+03  0.51751330666E+03  0.00000000000E+00 0.  1.
    9900016    2    1    2    0    0 -0.34623227131E+02 -0.10677971996E+03 -0.21254871571E+03  0.74434899493E+03  0.70446986682E+03 0.  0.
         23    2    3    3    0    0  0.20676277810E+03  0.26363655570E+02 -0.16733338149E+03  0.28513021151E+03  0.99261715755E+02 0.  0.
         23    2    3    3    0    0 -0.71882354565E+01 -0.17769734327E+03 -0.86847052587E+02  0.21721289220E+03  0.89504265043E+02 0.  0.
        -15    1    5    5    0    0 -0.22460462885E+02 -0.31859223660E+02  0.11511161616E+02  0.40644672061E+02  0.00000000000E+00 0. -1.
        -15    1    4    4    0    0  0.88942268606E+02  0.17622633203E+02 -0.13503213100E+03  0.16264981017E+03  0.00000000000E+00 0.  1.
         15    1    4    4    0    0  0.11782050949E+03  0.87410223666E+01 -0.32301250482E+02  0.12248040134E+03  0.00000000000E+00 0. -1.
         15    1    5    5    0    0  0.15272227428E+02 -0.14583811961E+03 -0.98358214203E+02  0.17656822014E+03  0.00000000000E+00 0.  1.
        -16    1    3    3    0    0 -0.23419776977E+03  0.44553967747E+02  0.41631718359E+02  0.24200589122E+03  0.00000000000E+00 0.  1.
         16    1    1    2    0    0  0.26438288114E+02  0.70760777023E+02  0.58180788869E+02  0.95347128099E+02  0.00000000000E+00 0. -1.
    9900018    1    1    2    0    0  0.81849390169E+01  0.36018942933E+02  0.97669720773E+02  0.13863228421E+03  0.91187600000E+02 0.  0.
<mgrwt>
<rscale>  0 0.97668408E+03</rscale>
<asrwt>0</asrwt>
<pdfrwt beam="1">  1        2 0.79617432E-01 0.97668408E+03</pdfrwt>
<pdfrwt beam="2">  1       -2 0.70894631E-01 0.97668408E+03</pdfrwt>
<totfact> 0.10698377E+02</totfact>
</mgrwt>
</event>
<event>
12    1  0.3342346E-011  0.1251093E+04  0.7818608E-02  0.9069274E-01
          1   -1    0    0  501    0  0.00000000000E+00  0.00000000000E+00  0.13645567980E+04  0.13645567980E+04  0.00000000000E+00 0. -1.
         -1   -1    0    0    0  501 -0.00000000000E+00 -0.00000000000E+00 -0.28676604094E+03  0.28676604094E+03  0.00000000000E+00 0.  1.
    9900016    2    1    2    0    0 -0.24514006769E+02  0.54743103915E+02  0.73338361191E+03  0.10171991969E+04  0.70231398965E+03 0.  0.
         23    2    3    3    0    0  0.15529007722E+03  0.24197664908E+01  0.48627969421E+02  0.18688696190E+03  0.91875969457E+02 0.  0.
         23    2    3    3    0    0 -0.17497476097E+00 -0.11116347318E+03  0.53891690548E+02  0.15430640666E+03  0.92459744978E+02 0.  0.
        -15    1    5    5    0    0  0.37121038586E+02 -0.49406853645E+02 -0.38236297634E+01  0.61916305101E+02  0.00000000000E+00 0.  1.
        -15    1    4    4    0    0  0.11115883035E+03 -0.26688234971E+02 -0.10782688447E+01  0.11432283287E+03  0.00000000000E+00 0. -1.
         15    1    4    4    0    0  0.44131246873E+02  0.29108001462E+02  0.49706238266E+02  0.72564129033E+02  0.00000000000E+00 0.  1.
         15    1    5    5    0    0 -0.37296013346E+02 -0.61756619533E+02  0.57715320312E+02  0.92390101561E+02  0.00000000000E+00 0. -1.
        -16    1    1    2    0    0  0.71419975806E+02 -0.11909255459E+03 -0.10154399725E+03  0.17203206934E+03  0.00000000000E+00 0.  1.
         16    1    3    3    0    0 -0.17962910923E+03  0.16348681060E+03  0.63086395194E+03  0.67600582837E+03  0.00000000000E+00 0. -1.
    9900018    1    1    2    0    0 -0.46905969037E+02  0.64349450672E+02  0.44595114244E+03  0.46209157271E+03  0.91187600000E+02 0.  0.
<mgrwt>
<rscale>  0 0.12510932E+04</rscale>
<asrwt>0</asrwt>
<pdfrwt beam="1">  1        1 0.20993181E+00 0.12510932E+04</pdfrwt>
<pdfrwt beam="2">  1       -1 0.44117853E-01 0.12510932E+04</pdfrwt>
<totfact> 0.40767967E+01</totfact>
</mgrwt>
</event>
<event>
12    1  0.3065082E-011  0.1782758E+04  0.7818608E-02  0.8715523E-01
         -1   -1    0    0    0  501 -0.00000000000E+00  0.00000000000E+00  0.26948575279E+03  0.26948575279E+03  0.00000000000E+00 0.  1.
          1   -1    0    0  501    0  0.00000000000E+00 -0.00000000000E+00 -0.29484159738E+04  0.29484159738E+04  0.00000000000E+00 0. -1.
    9900016    2    1    2    0    0 -0.14989528476E+03 -0.26540024704E+02 -0.81142945971E+03  0.10967034745E+04  0.72191950630E+03 0.  0.
         23    2    3    3    0    0  0.12181585073E+02 -0.44863707400E+02  0.32253045091E+02  0.10775518135E+03  0.91704835937E+02 0.  0.
         23    2    3    3    0    0 -0.18984702453E+03 -0.13849831485E+03 -0.77614939388E+03  0.81595973434E+03  0.90325691251E+02 0.  0.
        -15    1    4    4    0    0  0.35188174886E+02 -0.28939204657E+02 -0.18999345973E+02  0.49362540102E+02  0.00000000000E+00 0. -1.
        -15    1    5    5    0    0 -0.12921503988E+03 -0.87948219720E+02 -0.36121715747E+03  0.39358512514E+03  0.00000000000E+00 0. -1.
         15    1    4    4    0    0 -0.23006589813E+02 -0.15924502743E+02  0.51252391064E+02  0.58392641251E+02  0.00000000000E+00 0.  1.
         15    1    5    5    0    0 -0.60631984656E+02 -0.50550095126E+02 -0.41493223641E+03  0.42237460919E+03  0.00000000000E+00 0.  1.
        -16    1    3    3    0    0  0.27770154706E+02  0.15682199754E+03 -0.67533110921E+02  0.17298855880E+03  0.00000000000E+00 0.  1.
         16    1    1    2    0    0 -0.36494044193E+02  0.15224769273E+03 -0.18720130889E+04  0.18785484237E+04  0.00000000000E+00 0. -1.
    9900018    1    1    2    0    0  0.18638932895E+03 -0.12570766802E+03  0.45123275495E+01  0.24264982843E+03  0.91187600000E+02 0.  0.
<mgrwt>
<rscale>  0 0.17827575E+04</rscale>
<asrwt>0</asrwt>
<pdfrwt beam="1">  1        1 0.45360246E+00 0.17827575E+04</pdfrwt>
<pdfrwt beam="2">  1       -1 0.41459347E-01 0.17827575E+04</pdfrwt>
<totfact> 0.35226675E+00</totfact>
</mgrwt>
</event>
<event>
12    1  0.3065082E-011  0.3101048E+04  0.7818608E-02  0.8215450E-01
         -1   -1    0    0    0  501 -0.00000000000E+00  0.00000000000E+00  0.22874347809E+04  0.22874347809E+04  0.00000000000E+00 0.  1.
          1   -1    0    0  501    0  0.00000000000E+00 -0.00000000000E+00 -0.10510133966E+04  0.10510133966E+04  0.00000000000E+00 0. -1.
    9900016    2    1    2    0    0  0.66291495491E+02 -0.28889681634E+03  0.13179392941E+03  0.80620561073E+03  0.73806633447E+03 0.  0.
         23    2    3    3    0    0  0.14144701515E+03  0.27030425116E+02 -0.55824257142E+02  0.17941918137E+03  0.91307135427E+02 0.  0.
         23    2    3    3    0    0  0.13226340384E+02  0.70878130844E+02  0.19741819536E+03  0.22989124245E+03  0.93152530740E+02 0.  0.
        -15    1    4    4    0    0  0.10363202046E+03 -0.23674003225E+02 -0.44113306273E+02  0.11509143271E+03  0.00000000000E+00 0. -1.
        -15    1    5    5    0    0  0.31567171979E+02 -0.79303951919E+01  0.87839134728E+02  0.93675456254E+02  0.00000000000E+00 0. -1.
         15    1    4    4    0    0  0.37814994695E+02  0.50704428341E+02 -0.11710950869E+02  0.64327748658E+02  0.00000000000E+00 0.  1.
         15    1    5    5    0    0 -0.18340831595E+02  0.78808526036E+02  0.10957906063E+03  0.13621578620E+03  0.00000000000E+00 0.  1.
        -16    1    1    2    0    0 -0.70329238173E+03  0.80111576196E+03  0.13056498185E+04  0.16855646196E+04  0.00000000000E+00 0.  1.
         16    1    3    3    0    0 -0.88381860047E+02 -0.38680537230E+03 -0.98000088103E+01  0.39689518691E+03  0.00000000000E+00 0. -1.
    9900018    1    1    2    0    0  0.63700088624E+03 -0.51221894562E+03 -0.20102236357E+03  0.84667794726E+03  0.91187600000E+02 0.  0.
<mgrwt>
<rscale>  0 0.31010480E+04</rscale>
<asrwt>0</asrwt>
<pdfrwt beam="1">  1        1 0.16169437E+00 0.31010480E+04</pdfrwt>
<pdfrwt beam="2">  1       -1 0.35191304E+00 0.31010480E+04</pdfrwt>
<totfact> 0.17582483E-01</totfact>
</mgrwt>
</event>
<event>
12    1  0.3065082E-011  0.2468999E+04  0.7818608E-02  0.8414114E-01
         -2   -1    0    0    0  501 -0.00000000000E+00  0.00000000000E+00  0.12691802563E+04  0.12691802563E+04  0.00000000000E+00 0.  1.
          2   -1    0    0  501    0  0.00000000000E+00 -0.00000000000E+00 -0.12007667570E+04  0.12007667570E+04  0.00000000000E+00 0. -1.
    9900016    2    1    2    0    0  0.49790965058E+03 -0.28846211613E+03 -0.11557448560E+03  0.91640219352E+03  0.70378342264E+03 0.  0.
         23    2    3    3    0    0  0.42193057823E+03 -0.49175019244E+02  0.14848423539E+03  0.45876352096E+03  0.89290563024E+02 0.  0.
         23    2    3    3    0    0  0.64725119011E+02 -0.27004592466E+03 -0.29295298144E+03  0.41396218875E+03  0.91810140629E+02 0.  0.
        -15    1    4    4    0    0  0.33425640520E+03 -0.79564989352E+01  0.13651577833E+03  0.36114707256E+03  0.00000000000E+00 0.  1.
        -15    1    5    5    0    0  0.49105351576E+02 -0.18827283931E+03 -0.25926069234E+03  0.32415135997E+03  0.00000000000E+00 0.  1.
         15    1    4    4    0    0  0.87674173034E+02 -0.41218520309E+02  0.11968457062E+02  0.97616448399E+02  0.00000000000E+00 0. -1.
         15    1    5    5    0    0  0.15619767435E+02 -0.81773085342E+02 -0.33692289103E+02  0.89810828780E+02  0.00000000000E+00 0. -1.
        -16    1    3    3    0    0  0.11253953341E+02  0.30758827767E+02  0.28894260453E+02  0.43676483816E+02  0.00000000000E+00 0.  1.
         16    1    1    2    0    0 -0.86815061999E+03 -0.34164727065E+02 -0.23671897927E+03  0.90049353285E+03  0.00000000000E+00 0. -1.
    9900018    1    1    2    0    0  0.37024096940E+03  0.32262684320E+03  0.42070696415E+03  0.65305128700E+03  0.91187600000E+02 0.  0.
<mgrwt>
<rscale>  0 0.24689994E+04</rscale>
<asrwt>0</asrwt>
<pdfrwt beam="1">  1        2 0.18473335E+00 0.24689994E+04</pdfrwt>
<pdfrwt beam="2">  1       -2 0.19525850E+00 0.24689994E+04</pdfrwt>
<totfact> 0.24184139E+00</totfact>
</mgrwt>
</event>
<event>
12    1  0.3065082E-011  0.1660856E+04  0.7818608E-02  0.8784010E-01
         -2   -1    0    0    0  501 -0.00000000000E+00  0.00000000000E+00  0.40580339549E+03  0.40580339549E+03  0.00000000000E+00 0.  1.
          2   -1    0    0  501    0  0.00000000000E+00 -0.00000000000E+00 -0.16993712101E+04  0.16993712101E+04  0.00000000000E+00 0. -1.
    9900016    2    1    2    0    0  0.11923670409E+03 -0.33580002079E+03 -0.63559234621E+03  0.10240368676E+04  0.71951013201E+03 0.  0.
         23    2    3    3    0    0  0.98110443475E+02 -0.33348028545E+03 -0.36365446399E+03  0.51060388031E+03  0.87389893634E+02 0.  0.
         23    2    3    3    0    0  0.32664714034E+02 -0.54663780040E+02 -0.37818736986E+03  0.39442883380E+03  0.92159133144E+02 0.  0.
        -15    1    4    4    0    0  0.74130440021E+02 -0.27961766666E+03 -0.34166122212E+03  0.44767594569E+03  0.00000000000E+00 0. -1.
        -15    1    5    5    0    0  0.58840078547E+02 -0.15865863947E+02 -0.15851328186E+03  0.16982444173E+03  0.00000000000E+00 0.  1.
         15    1    4    4    0    0  0.23980003453E+02 -0.53862618784E+02 -0.21993241868E+02  0.62927934622E+02  0.00000000000E+00 0.  1.
         15    1    5    5    0    0 -0.26175364513E+02 -0.38797916092E+02 -0.21967408799E+03  0.22460439207E+03  0.00000000000E+00 0. -1.
        -16    1    3    3    0    0 -0.11538453418E+02  0.52344044699E+02  0.10624948764E+03  0.11900415348E+03  0.00000000000E+00 0.  1.
         16    1    1    2    0    0 -0.44624010727E+03  0.14970270785E+03 -0.36613865165E+03  0.59632092559E+03  0.00000000000E+00 0. -1.
    9900018    1    1    2    0    0  0.32700340317E+03  0.18609731294E+03 -0.29183681670E+03  0.48481681236E+03  0.91187600000E+02 0.  0.
<mgrwt>
<rscale>  0 0.16608559E+04</rscale>
<asrwt>0</asrwt>
<pdfrwt beam="1">  1        2 0.26144173E+00 0.16608559E+04</pdfrwt>
<pdfrwt beam="2">  1       -2 0.62431291E-01 0.16608559E+04</pdfrwt>
<totfact> 0.22294911E+01</totfact>
</mgrwt>
</event>
<event>
12    1  0.3065082E-011  0.1436094E+04  0.7818608E-02  0.8928098E-01
         -2   -1    0    0    0  501 -0.00000000000E+00  0.00000000000E+00  0.22279219468E+03  0.22279219468E+03  0.00000000000E+00 0.  1.
          2   -1    0    0  501    0  0.00000000000E+00 -0.00000000000E+00 -0.23142261247E+04  0.23142261247E+04  0.00000000000E+00 0. -1.
    9900016    2    1    2    0    0 -0.13251464598E+03  0.57741155365E+02 -0.77979937650E+03  0.10631907569E+04  0.70809133988E+03 0.  0.
         23    2    3    3    0    0 -0.16335985092E+03  0.35670284424E+02 -0.20597415407E+03  0.28051905258E+03  0.91141519789E+02 0.  0.
         23    2    3    3    0    0 -0.69470637503E+02  0.15706998209E+02  0.67952240208E+02  0.13307022755E+03  0.89539372582E+02 0.  0.
        -15    1    5    5    0    0 -0.62167967108E+02 -0.27880263545E+02  0.28593700442E+02  0.73890222186E+02  0.00000000000E+00 0.  1.
        -15    1    4    4    0    0 -0.93056662004E+02 -0.33980824679E+01 -0.51625483017E+02  0.10647196722E+03  0.00000000000E+00 0.  1.
         15    1    4    4    0    0 -0.70303188916E+02  0.39068366892E+02 -0.15434867106E+03  0.17404708535E+03  0.00000000000E+00 0. -1.
         15    1    5    5    0    0 -0.73026703951E+01  0.43587261754E+02  0.39358539766E+02  0.59180005362E+02  0.00000000000E+00 0. -1.
        -16    1    3    3    0    0  0.10031584244E+03  0.63638727327E+01 -0.64177746264E+03  0.64960147681E+03  0.00000000000E+00 0.  1.
         16    1    1    2    0    0  0.51498699685E+02 -0.35024966802E+03 -0.64782257427E+03  0.73824185316E+03  0.00000000000E+00 0. -1.
    9900018    1    1    2    0    0  0.81015946296E+02  0.29250851266E+03 -0.66381197930E+03  0.73558570934E+03  0.91187600000E+02 0.  0.
<mgrwt>
<rscale>  0 0.14360940E+04</rscale>
<asrwt>0</asrwt>
<pdfrwt beam="1">  1        2 0.35603481E+00 0.14360940E+04</pdfrwt>
<pdfrwt beam="2">  1       -2 0.34275720E-01 0.14360940E+04</pdfrwt>
<totfact> 0.34513903E+01</totfact>
</mgrwt>
</event>
<event>
12    1  0.3065082E-011  0.9966112E+03  0.7818608E-02  0.9312269E-01
          1   -1    0    0  501    0  0.00000000000E+00  0.00000000000E+00  0.68375152128E+03  0.68375152128E+03  0.00000000000E+00 0. -1.
         -1   -1    0    0    0  501 -0.00000000000E+00 -0.00000000000E+00 -0.36315602853E+03  0.36315602853E+03  0.00000000000E+00 0.  1.
    9900016    2    1    2    0    0  0.31648178584E+02 -0.29180059403E+02  0.17267100276E+03  0.78867002110E+03  0.76833068656E+03 0.  0.
         23    2    3    3    0    0  0.28028848094E+02 -0.26532473550E+00 -0.10995224371E+03  0.14485252411E+03  0.90039275452E+02 0.  0.
         23    2    3    3    0    0  0.11955933029E+03  0.20511174262E+03 -0.63171730710E+01  0.25433445285E+03  0.90999158315E+02 0.  0.
        -15    1    5    5    0    0  0.51893772978E+02  0.16573175425E+03  0.11484257179E+02  0.17404558657E+03  0.00000000000E+00 0. -1.
        -15    1    4    4    0    0  0.39293892382E+02 -0.37791312133E+02 -0.55790346887E+02  0.78004846369E+02  0.00000000000E+00 0. -1.
         15    1    4    4    0    0 -0.11265044288E+02  0.37525987398E+02 -0.54161896818E+02  0.66847677745E+02  0.00000000000E+00 0.  1.
         15    1    5    5    0    0  0.67665557313E+02  0.39379988362E+02 -0.17801430250E+02  0.80288866282E+02  0.00000000000E+00 0.  1.
        -16    1    3    3    0    0 -0.11593999980E+03 -0.23402647728E+03  0.28894041954E+03  0.38948304413E+03  0.00000000000E+00 0.  1.
         16    1    1    2    0    0  0.22920459257E+02  0.39916434091E+02  0.14419497024E+03  0.15136333310E+03  0.00000000000E+00 0. -1.
    9900018    1    1    2    0    0 -0.54568637841E+02 -0.10736374688E+02  0.37295197533E+01  0.10687419562E+03  0.91187600000E+02 0.  0.
<mgrwt>
<rscale>  0 0.99661123E+03</rscale>
<asrwt>0</asrwt>
<pdfrwt beam="1">  1        1 0.10519254E+00 0.99661123E+03</pdfrwt>
<pdfrwt beam="2">  1       -1 0.55870158E-01 0.99661123E+03</pdfrwt>
<totfact> 0.91742453E+01</totfact>
</mgrwt>
</event>
<event>
12    1  0.3065082E-011  0.1777369E+04  0.7818608E-02  0.8718428E-01
          1   -1    0    0  501    0  0.00000000000E+00  0.00000000000E+00  0.13428374199E+04  0.13428374199E+04  0.00000000000E+00 0. -1.
         -1   -1    0    0    0  501 -0.00000000000E+00 -0.00000000000E+00 -0.58812809267E+03  0.58812809267E+03  0.00000000000E+00 0.  1.
    9900016    2    1    2    0    0  0.21573589643E+03 -0.18415047372E+03  0.61050210897E+03  0.96771305554E+03  0.69519951009E+03 0.  0.
         23    2    3    3    0    0  0.13019083220E+03 -0.71399851198E+02  0.97013796363E+02  0.20040164196E+03  0.93282098366E+02 0.  0.
         23    2    3    3    0    0 -0.22160990990E+03 -0.10421744639E+03  0.20510190268E+03  0.33197341724E+03  0.90373286835E+02 0.  0.
        -15    1    4    4    0    0  0.31531971014E+02 -0.60261956895E+02  0.10713200471E+02  0.68851589010E+02  0.00000000000E+00 0. -1.
        -15    1    5    5    0    0 -0.13917606945E+03 -0.31626771233E+02  0.73441087721E+02  0.16051113460E+03  0.00000000000E+00 0. -1.
         15    1    4    4    0    0  0.98658861187E+02 -0.11137894303E+02  0.86300595892E+02  0.13155005295E+03  0.00000000000E+00 0.  1.
         15    1    5    5    0    0 -0.82433840450E+02 -0.72590675162E+02  0.13166081496E+03  0.17146228264E+03  0.00000000000E+00 0.  1.
        -16    1    3    3    0    0  0.30715497413E+03 -0.85331761251E+01  0.30838640993E+03  0.43533799634E+03  0.00000000000E+00 0.  1.
         16    1    1    2    0    0  0.20767546756E+03 -0.15315017671E+03  0.29698228448E+03  0.39342413977E+03  0.00000000000E+00 0. -1.
    9900018    1    1    2    0    0 -0.42341136400E+03  0.33730065043E+03 -0.15277506620E+03  0.56982831729E+03  0.91187600000E+02 0.  0.
<mgrwt>
<rscale>  0 0.17773693E+04</rscale>
<asrwt>0</asrwt>
<pdfrwt beam="1">  1        1 0.20659037E+00 0.17773693E+04</pdfrwt>
<pdfrwt beam="2">  1       -1 0.90481245E-01 0.17773693E+04</pdfrwt>
<totfact> 0.95163025E+00</totfact>
</mgrwt>
</event>
<event>
12    1  0.3065082E-011  0.1461413E+04  0.7818608E-02  0.8910526E-01
         -1   -1    0    0    0  501 -0.00000000000E+00  0.00000000000E+00  0.23070252363E+03  0.23070252363E+03  0.00000000000E+00 0.  1.
          1   -1    0    0  501    0  0.00000000000E+00 -0.00000000000E+00 -0.23143743239E+04  0.23143743239E+04  0.00000000000E+00 0. -1.
    9900016    2    1    2    0    0  0.76511032114E+02  0.11290234458E+03 -0.71429135546E+03  0.10175670375E+04  0.71177921983E+03 0.  0.
         23    2    3    3    0    0  0.29170461835E+02  0.23120115628E+02 -0.17804203856E+03  0.20517224645E+03  0.94927486167E+02 0.  0.
         23    2    3    3    0    0 -0.26057711717E+03  0.43351569788E+02 -0.35633330829E+03  0.45275764260E+03  0.90753863502E+02 0.  0.
        -15    1    5    5    0    0 -0.11150288569E+03  0.44892385558E+02 -0.10060575600E+03  0.15674736980E+03  0.00000000000E+00 0. -1.
        -15    1    4    4    0    0 -0.12532567105E+02 -0.17382457818E+02 -0.41598130446E+01  0.21829317960E+02  0.00000000000E+00 0.  1.
         15    1    4    4    0    0  0.41703028941E+02  0.40502573446E+02 -0.17388222551E+03  0.18334292849E+03  0.00000000000E+00 0. -1.
         15    1    5    5    0    0 -0.14907423148E+03 -0.15408157707E+01 -0.25572755229E+03  0.29601027280E+03  0.00000000000E+00 0.  1.
        -16    1    1    2    0    0 -0.27566367634E+03 -0.20678784410E+03 -0.11606049708E+04  0.12106839278E+04  0.00000000000E+00 0.  1.
         16    1    3    3    0    0  0.30791768745E+03  0.46430659163E+02 -0.17991600861E+03  0.35963714840E+03  0.00000000000E+00 0. -1.
    9900018    1    1    2    0    0  0.19915264422E+03  0.93885499519E+02 -0.20877547408E+03  0.31682588230E+03  0.91187600000E+02 0.  0.
<mgrwt>
<rscale>  0 0.14614130E+04</rscale>
<asrwt>0</asrwt>
<pdfrwt beam="1">  1        1 0.35605760E+00 0.14614130E+04</pdfrwt>
<pdfrwt beam="2">  1       -1 0.35492695E-01 0.14614130E+04</pdfrwt>
<totfact> 0.13385782E+01</totfact>
</mgrwt>
</event>
<event>
12    1  0.3065082E-011  0.1827599E+04  0.7818608E-02  0.8691759E-01
          1   -1    0    0  501    0  0.00000000000E+00  0.00000000000E+00  0.15959775798E+04  0.15959775798E+04  0.00000000000E+00 0. -1.
         -1   -1    0    0    0  501 -0.00000000000E+00 -0.00000000000E+00 -0.52320871095E+03  0.52320871095E+03  0.00000000000E+00 0.  1.
    9900016    2    1    2    0    0  0.34852084361E+02 -0.92648225411E+02  0.52255479140E+02  0.73178146501E+03  0.72317018465E+03 0.  0.
         23    2    3    3    0    0  0.31717106477E+02  0.17524691100E+02 -0.66582166980E+02  0.12143469856E+03  0.94868917005E+02 0.  0.
         23    2    3    3    0    0 -0.55242098336E+02 -0.33553957677E+03  0.64301187471E+01  0.35182507143E+03  0.90005763420E+02 0.  0.
        -15    1    5    5    0    0 -0.23296041161E+02 -0.30765755920E+03 -0.22351420629E+01  0.30854639056E+03  0.00000000000E+00 0.  1.
        -15    1    4    4    0    0 -0.12721354120E+02  0.46420006152E+02 -0.37180534959E+02  0.60819750095E+02  0.00000000000E+00 0.  1.
         15    1    4    4    0    0  0.44438460597E+02 -0.28895315052E+02 -0.29401632021E+02  0.60614948467E+02  0.00000000000E+00 0. -1.
         15    1    5    5    0    0 -0.31946057174E+02 -0.27882017574E+02  0.86652608100E+01  0.43278680870E+02  0.00000000000E+00 0. -1.
        -16    1    1    2    0    0  0.22575514630E+03  0.44077080430E+03  0.51830194253E+03  0.71685507018E+03  0.00000000000E+00 0.  1.
         16    1    3    3    0    0  0.58377076220E+02  0.22536666026E+03  0.11240752737E+03  0.25852169502E+03  0.00000000000E+00 0. -1.
    9900018    1    1    2    0    0 -0.26060723066E+03 -0.34812257889E+03  0.50221144714E+03  0.67054975552E+03  0.91187600000E+02 0.  0.
<mgrwt>
<rscale>  0 0.18275988E+04</rscale>
<asrwt>0</asrwt>
<pdfrwt beam="1">  1        1 0.24553501E+00 0.18275988E+04</pdfrwt>
<pdfrwt beam="2">  1       -1 0.80493648E-01 0.18275988E+04</pdfrwt>
<totfact> 0.81383963E+00</totfact>
</mgrwt>
</event>
