<event>
11    1  0.2814375E-010  0.2016688E+04  0.7818608E-02  0.8598858E-01
          1   -1    0    0  501    0  0.00000000000E+00  0.00000000000E+00  0.88310605423E+03  0.88310605423E+03  0.00000000000E+00 0. -1.
         -1   -1    0    0    0  501 -0.00000000000E+00 -0.00000000000E+00 -0.11513422320E+04  0.11513422320E+04  0.00000000000E+00 0.  1.
    9900016    2    1    2    0    0  0.10612776521E+03 -0.94439741481E+01 -0.12139843748E+03  0.18530271927E+04  0.18459739720E+04 0.  0.
         24    2    3    3    0    0 -0.74567423301E+02 -0.31738929310E+03 -0.23958117025E+03  0.41461312480E+03  0.90601556997E+02 0.  0.
        -15    1    4    4    0    0 -0.40276477624E+02 -0.33386992159E+02 -0.36188846916E+02  0.63612251464E+02  0.00000000000E+00 0.  1.
        -15    1    3    3    0    0  0.29963866759E+03  0.37502869299E+03  0.56544426732E+01  0.48006439610E+03  0.00000000000E+00 0.  1.
         15    1    3    3    0    0  0.30121696698E+03 -0.29873689974E+02 -0.16421226883E+03  0.34436865098E+03  0.00000000000E+00 0. -1.
         15    1    3    3    0    0 -0.13574843735E+03  0.14082779194E+03  0.13910175270E+03  0.24001958843E+03  0.00000000000E+00 0. -1.
        -16    1    1    2    0    0 -0.10612776521E+03  0.94439741481E+01 -0.14683774032E+03  0.18142109353E+03  0.00000000000E+00 0.  1.
         16    1    4    4    0    0 -0.34290945677E+02 -0.28400230094E+03 -0.20339232333E+03  0.35100087334E+03  0.00000000000E+00 0. -1.
    9900018    1    3    3    0    0 -0.28441200870E+03 -0.17803747601E+03  0.13763880622E+03  0.37396143241E+03  0.91187600000E+02 0.  0.
<mgrwt>
<rscale>  0 0.20166877E+04</rscale>
<asrwt>0</asrwt>
<pdfrwt beam="1">  1        1 0.13586247E+00 0.20166877E+04</pdfrwt>
<pdfrwt beam="2">  1       -1 0.17712957E+00 0.20166877E+04</pdfrwt>
<totfact> 0.37991622E+00</totfact>
</mgrwt>
</event>
<event>
11    1  0.2814375E-010  0.2058294E+04  0.7818608E-02  0.8579841E-01
          2   -1    0    0  501    0  0.00000000000E+00  0.00000000000E+00  0.25026795150E+04  0.25026795150E+04  0.00000000000E+00 0. -1.
         -2   -1    0    0    0  501 -0.00000000000E+00 -0.00000000000E+00 -0.42320397531E+03  0.42320397531E+03  0.00000000000E+00 0.  1.
    9900016    2    1    2    0    0  0.92899859132E+02 -0.17830568988E+03  0.18322281611E+04  0.26072072140E+04  0.18439213973E+04 0.  0.
        -24    2    3    3    0    0 -0.70477589900E+02 -0.31415012210E+02 -0.17671954360E+03  0.21398338166E+03  0.92763661342E+02 0.  0.
        -15    1    3    3    0    0  0.48268896899E+02 -0.13451499421E+03  0.12283007240E+03  0.18844467825E+03  0.00000000000E+00 0.  1.
        -15    1    3    3    0    0  0.48677712692E+03 -0.22838992189E+03  0.64184990290E+03  0.83730832168E+03  0.00000000000E+00 0.  1.
         15    1    4    4    0    0 -0.41069045090E+01 -0.27346940061E+02 -0.12952050837E+03  0.13243973680E+03  0.00000000000E+00 0. -1.
         15    1    3    3    0    0 -0.10450435309E+03 -0.39228579254E+02  0.66542754190E+03  0.67472502159E+03  0.00000000000E+00 0. -1.
        -16    1    4    4    0    0 -0.66370685391E+02 -0.40680721494E+01 -0.47199035231E+02  0.81543644860E+02  0.00000000000E+00 0.  1.
         16    1    1    2    0    0 -0.92899859132E+02  0.17830568988E+03  0.24724737854E+03  0.31867627628E+03  0.00000000000E+00 0. -1.
    9900018    1    3    3    0    0 -0.26716422169E+03  0.25524281768E+03  0.57884018754E+03  0.69274581084E+03  0.91187600000E+02 0.  0.
<mgrwt>
<rscale>  0 0.20582944E+04</rscale>
<asrwt>0</asrwt>
<pdfrwt beam="1">  1        2 0.38502761E+00 0.20582944E+04</pdfrwt>
<pdfrwt beam="2">  1       -2 0.65108305E-01 0.20582944E+04</pdfrwt>
<totfact> 0.69800949E+00</totfact>
</mgrwt>
</event>
<event>
11    1  0.2814375E-010  0.2358240E+04  0.7818608E-02  0.8455305E-01
          2   -1    0    0  501    0  0.00000000000E+00  0.00000000000E+00  0.25016118519E+04  0.25016118519E+04  0.00000000000E+00 0.  1.
         -2   -1    0    0    0  501 -0.00000000000E+00 -0.00000000000E+00 -0.55577129460E+03  0.55577129460E+03  0.00000000000E+00 0. -1.
    9900016    2    1    2    0    0  0.14193816085E+03 -0.35736341206E+03  0.18945726938E+04  0.26694611910E+04  0.18408591223E+04 0.  0.
        -24    2    3    3    0    0 -0.58163224086E+03 -0.45267548575E+03  0.13585344493E+04  0.15467725294E+04  0.60648568427E+02 0.  0.
        -15    1    3    3    0    0  0.51169495707E+02 -0.11416041149E+03  0.18504205771E+03  0.22336400776E+03  0.00000000000E+00 0.  1.
        -15    1    3    3    0    0  0.54370216390E+03  0.14526897289E+03  0.20409989559E+03  0.59864169993E+03  0.00000000000E+00 0.  1.
         15    1    3    3    0    0  0.53474428197E+02 -0.11992252612E+02 -0.39229670225E+02  0.67396554954E+02  0.00000000000E+00 0. -1.
         15    1    4    4    0    0 -0.35970227681E+03 -0.26207464521E+03  0.76438516648E+03  0.88450750722E+03  0.00000000000E+00 0. -1.
        -16    1    4    4    0    0 -0.22192996406E+03 -0.19060084054E+03  0.59414928282E+03  0.66226502220E+03  0.00000000000E+00 0.  1.
         16    1    1    2    0    0 -0.14193816085E+03  0.35736341206E+03  0.51267863516E+02  0.38792195557E+03  0.00000000000E+00 0. -1.
    9900018    1    3    3    0    0  0.75224313904E+02  0.76195764902E+02  0.18612596145E+03  0.23328639889E+03  0.91187600000E+02 0.  0.
<mgrwt>
<rscale>  0 0.23582401E+04</rscale>
<asrwt>0</asrwt>
<pdfrwt beam="1">  1        2 0.38486336E+00 0.23582401E+04</pdfrwt>
<pdfrwt beam="2">  1       -2 0.85503277E-01 0.23582401E+04</pdfrwt>
<totfact> 0.37257364E+00</totfact>
</mgrwt>
</event>
<event>
10    1  0.2814375E-010  0.3051135E+04  0.7818608E-02  0.8229278E-01
         -1   -1    0    0    0  501 -0.00000000000E+00  0.00000000000E+00  0.14864628627E+04  0.14864628627E+04  0.00000000000E+00 0.  1.
          1   -1    0    0  501    0  0.00000000000E+00 -0.00000000000E+00 -0.15657006920E+04  0.15657006920E+04  0.00000000000E+00 0. -1.
    9900016    2    1    2    0    0 -0.37443261029E+02 -0.62704449400E+03 -0.79143878622E+03  0.21025230974E+04  0.18438116030E+04 0.  0.
        -15    1    3    3    0    0 -0.12337153834E+03 -0.18442626345E+03 -0.72352081013E+02  0.23338467548E+03  0.00000000000E+00 0.  1.
        -15    1    3    3    0    0 -0.23760961431E+03 -0.13746729899E+03 -0.63689477589E+03  0.69353481720E+03  0.00000000000E+00 0.  1.
         15    1    3    3    0    0  0.16383337664E+03 -0.10658884512E+03  0.38701120860E+03  0.43356687234E+03  0.00000000000E+00 0. -1.
         15    1    3    3    0    0  0.71892989094E+02 -0.80427846455E+02 -0.13665593219E+03  0.17410365926E+03  0.00000000000E+00 0. -1.
        -16    1    1    2    0    0  0.37443261029E+02  0.62704449400E+03  0.71220095685E+03  0.94964045733E+03  0.00000000000E+00 0.  1.
         16    1    3    3    0    0 -0.10094856329E+03 -0.60573461327E+02 -0.33016806110E+03  0.35052917884E+03  0.00000000000E+00 0. -1.
    9900018    1    3    3    0    0  0.18876008918E+03 -0.57560778658E+02 -0.23791446252E+01  0.21740389424E+03  0.91187600000E+02 0.  0.
<mgrwt>
<rscale>  0 0.30511348E+04</rscale>
<asrwt>0</asrwt>
<pdfrwt beam="1">  1        1 0.24087703E+00 0.30511348E+04</pdfrwt>
<pdfrwt beam="2">  1       -1 0.22868659E+00 0.30511348E+04</pdfrwt>
<totfact> 0.48083069E-01</totfact>
</mgrwt>
</event>
<event>
11    1  0.2814375E-010  0.2601052E+04  0.7818608E-02  0.8367844E-01
         -2   -1    0    0    0  501 -0.00000000000E+00  0.00000000000E+00  0.45935916949E+03  0.45935916949E+03  0.00000000000E+00 0.  1.
          2   -1    0    0  501    0  0.00000000000E+00 -0.00000000000E+00 -0.36820167049E+04  0.36820167049E+04  0.00000000000E+00 0. -1.
    9900016    2    1    2    0    0 -0.62966161693E+03 -0.52184645402E+02 -0.22167965799E+04  0.29535403425E+04  0.18466229959E+04 0.  0.
        -24    2    3    3    0    0 -0.17536925307E+03 -0.41438449399E+03 -0.13892677024E+04  0.14618855161E+04  0.67643398850E+02 0.  0.
        -15    1    3    3    0    0 -0.20698382712E+03 -0.59670602937E+02  0.18959936306E+03  0.28696829793E+03  0.00000000000E+00 0.  1.
        -15    1    3    3    0    0 -0.17108614858E+03  0.33920198035E+02 -0.14630118123E+03  0.22765123699E+03  0.00000000000E+00 0.  1.
         15    1    3    3    0    0  0.37260020275E+02  0.11501652116E+02 -0.65604804193E+02  0.76318984830E+02  0.00000000000E+00 0. -1.
         15    1    4    4    0    0 -0.55918885386E+02 -0.74677189620E+02 -0.33889560105E+03  0.35150225149E+03  0.00000000000E+00 0. -1.
        -16    1    4    4    0    0 -0.11945036768E+03 -0.33970730437E+03 -0.10503721014E+04  0.11103832646E+04  0.00000000000E+00 0.  1.
         16    1    1    2    0    0  0.62966161693E+03  0.52184645402E+02 -0.10058609555E+04  0.11878355319E+04  0.00000000000E+00 0. -1.
    9900018    1    3    3    0    0 -0.11348240843E+03  0.37644860138E+03 -0.80522225515E+03  0.90071630666E+03  0.91187600000E+02 0.  0.
<mgrwt>
<rscale>  0 0.26010522E+04</rscale>
<asrwt>0</asrwt>
<pdfrwt beam="1">  1        2 0.56646413E+00 0.26010522E+04</pdfrwt>
<pdfrwt beam="2">  1       -2 0.70670639E-01 0.26010522E+04</pdfrwt>
<totfact> 0.97020914E-01</totfact>
</mgrwt>
</event>
<event>
11    1  0.2814375E-010  0.2833467E+04  0.7818608E-02  0.8292953E-01
         -3   -1    0    0    0  501 -0.00000000000E+00  0.00000000000E+00  0.24376687381E+04  0.24376687381E+04  0.00000000000E+00 0.  1.
          3   -1    0    0  501    0  0.00000000000E+00 -0.00000000000E+00 -0.82338270659E+03  0.82338270659E+03  0.00000000000E+00 0. -1.
    9900016    2    1    2    0    0  0.10252914568E+03  0.26468534264E+03  0.20316422178E+04  0.27563171159E+04  0.18409626248E+04 0.  0.
        -24    2    3    3    0    0  0.25735529318E+03  0.41812416940E+03  0.12503879089E+04  0.13466871979E+04  0.95062707876E+02 0.  0.
        -15    1    3    3    0    0  0.25367508937E+03 -0.34320782691E+03  0.32901873234E+03  0.53888402245E+03  0.00000000000E+00 0.  1.
        -15    1    3    3    0    0 -0.90026291858E+02  0.21375663199E+03  0.43835596933E+03  0.49593607127E+03  0.00000000000E+00 0.  1.
         15    1    4    4    0    0  0.17102030270E+03  0.18730386751E+03  0.62767389436E+03  0.67698242250E+03  0.00000000000E+00 0. -1.
         15    1    3    3    0    0 -0.13015782322E+03 -0.17540599309E+02 -0.70559713893E+02  0.14908858036E+03  0.00000000000E+00 0. -1.
        -16    1    4    4    0    0  0.86334990477E+02  0.23082030189E+03  0.62271401450E+03  0.66970477540E+03  0.00000000000E+00 0.  1.
         16    1    1    2    0    0 -0.10252914568E+03 -0.26468534264E+03 -0.41735618638E+03  0.50473432876E+03  0.00000000000E+00 0. -1.
    9900018    1    3    3    0    0 -0.18831712179E+03 -0.64470325296E+01  0.84439321213E+02  0.22572124390E+03  0.91187600000E+02 0.  0.
<mgrwt>
<rscale>  0 0.28334673E+04</rscale>
<asrwt>0</asrwt>
<pdfrwt beam="1">  1        3 0.12667426E+00 0.28334673E+04</pdfrwt>
<pdfrwt beam="2">  1       -3 0.37502596E+00 0.28334673E+04</pdfrwt>
<totfact> 0.16254981E-02</totfact>
</mgrwt>
</event>
<event>
11    1  0.2814375E-010  0.2502457E+04  0.7818608E-02  0.8402111E-01
          1   -1    0    0  501    0  0.00000000000E+00  0.00000000000E+00  0.13380556409E+04  0.13380556409E+04  0.00000000000E+00 0. -1.
         -1   -1    0    0    0  501 -0.00000000000E+00 -0.00000000000E+00 -0.11700353192E+04  0.11700353192E+04  0.00000000000E+00 0.  1.
    9900016    2    1    2    0    0 -0.47202490800E+03  0.30312616634E+03  0.31017089534E+01  0.19233763842E+04  0.18397483817E+04 0.  0.
        -24    2    3    3    0    0 -0.53044442244E+02  0.30020391875E+03 -0.52325825837E+03  0.61244356293E+03  0.91388222068E+02 0.  0.
        -15    1    3    3    0    0  0.12406042889E+03  0.11164897932E+03 -0.16906755821E+02  0.16775673755E+03  0.00000000000E+00 0.  1.
        -15    1    3    3    0    0 -0.47443767654E+02 -0.62626151503E+02  0.34692901567E+03  0.35571433462E+03  0.00000000000E+00 0.  1.
         15    1    3    3    0    0  0.70583350696E+02 -0.13673179648E+02  0.20055629063E+03  0.21305349316E+03  0.00000000000E+00 0. -1.
         15    1    4    4    0    0  0.11854341512E+02  0.13322833484E+02 -0.69061742199E+02  0.71327046344E+02  0.00000000000E+00 0. -1.
        -16    1    4    4    0    0 -0.64898783756E+02  0.28688108527E+03 -0.45419651617E+03  0.54111651659E+03  0.00000000000E+00 0.  1.
         16    1    1    2    0    0  0.47202490800E+03 -0.30312616634E+03  0.16491861275E+03  0.58471457595E+03  0.00000000000E+00 0. -1.
    9900018    1    3    3    0    0 -0.56618047769E+03 -0.32427400577E+02 -0.42185831551E+01  0.57440825592E+03  0.91187600000E+02 0.  0.
<mgrwt>
<rscale>  0 0.25024567E+04</rscale>
<asrwt>0</asrwt>
<pdfrwt beam="1">  1        1 0.20585471E+00 0.25024567E+04</pdfrwt>
<pdfrwt beam="2">  1       -1 0.18000543E+00 0.25024567E+04</pdfrwt>
<totfact> 0.15707277E+00</totfact>
</mgrwt>
</event>
<event>
11    1  0.2814375E-010  0.2773681E+04  0.7818608E-02  0.8311486E-01
          3   -1    0    0  501    0  0.00000000000E+00  0.00000000000E+00  0.15023459819E+04  0.15023459819E+04  0.00000000000E+00 0. -1.
         -3   -1    0    0    0  501 -0.00000000000E+00 -0.00000000000E+00 -0.12802154542E+04  0.12802154542E+04  0.00000000000E+00 0.  1.
    9900016    2    1    2    0    0  0.39299696301E+03  0.27780269488E+03 -0.45148259990E+03  0.19546872935E+04  0.18399306854E+04 0.  0.
        -24    2    3    3    0    0  0.15003489049E+03 -0.15702999994E+03 -0.23579816826E+03  0.32689269330E+03  0.63946599055E+02 0.  0.
        -15    1    3    3    0    0  0.94732777768E+02  0.58020059977E+02 -0.36426551833E+02  0.11690817004E+03  0.00000000000E+00 0.  1.
        -15    1    3    3    0    0  0.11027500923E+03  0.69221821097E+03  0.16486172338E+03  0.72007361922E+03  0.00000000000E+00 0.  1.
         15    1    4    4    0    0  0.68039227358E+02 -0.64817964454E+02 -0.57862132492E+02  0.11035728953E+03  0.00000000000E+00 0. -1.
         15    1    3    3    0    0  0.30931371968E+02 -0.48986313520E+03 -0.14755786688E+03  0.51253874495E+03  0.00000000000E+00 0. -1.
        -16    1    4    4    0    0  0.81995663134E+02 -0.92212035490E+02 -0.17793603576E+03  0.21653540377E+03  0.00000000000E+00 0.  1.
         16    1    1    2    0    0 -0.39299696301E+03 -0.27780269488E+03  0.67361312757E+03  0.82787414252E+03  0.00000000000E+00 0. -1.
    9900018    1    3    3    0    0  0.70229135505E+01  0.17445755908E+03 -0.19656173632E+03  0.27827406601E+03  0.91187600000E+02 0.  0.
<mgrwt>
<rscale>  0 0.27736810E+04</rscale>
<asrwt>0</asrwt>
<pdfrwt beam="1">  1        3 0.23113015E+00 0.27736810E+04</pdfrwt>
<pdfrwt beam="2">  1       -3 0.19695622E+00 0.27736810E+04</pdfrwt>
<totfact> 0.33020219E-02</totfact>
</mgrwt>
</event>
<event>
11    1  0.2814375E-010  0.3616231E+04  0.7818608E-02  0.8086784E-01
         -2   -1    0    0    0  501 -0.00000000000E+00  0.00000000000E+00  0.11154331897E+04  0.11154331897E+04  0.00000000000E+00 0.  1.
          2   -1    0    0  501    0  0.00000000000E+00 -0.00000000000E+00 -0.29309520355E+04  0.29309520355E+04  0.00000000000E+00 0. -1.
    9900016    2    1    2    0    0 -0.23607246885E+03  0.30723247916E+03 -0.25781281127E+04  0.31909935600E+04  0.18399927520E+04 0.  0.
         24    2    3    3    0    0 -0.28887163246E+03  0.12408822415E+03 -0.31561888604E+02  0.32178399089E+03  0.60861125264E+02 0.  0.
        -15    1    4    4    0    0 -0.12607291009E+03  0.36651925901E+02  0.12266568425E+02  0.13186436605E+03  0.00000000000E+00 0.  1.
        -15    1    3    3    0    0  0.20262067823E+02  0.41773751354E+02  0.30812896122E+02  0.55722816351E+02  0.00000000000E+00 0.  1.
         15    1    3    3    0    0 -0.26359353495E+03  0.12180702307E+03 -0.14644819352E+04  0.14929922442E+04  0.00000000000E+00 0. -1.
         15    1    3    3    0    0  0.23293863760E+03  0.24810115036E+03 -0.25355352698E+03  0.42438659350E+03  0.00000000000E+00 0. -1.
        -16    1    1    2    0    0  0.23607246885E+03 -0.30723247916E+03  0.76260926691E+03  0.85539166513E+03  0.00000000000E+00 0.  1.
         16    1    4    4    0    0 -0.16279872236E+03  0.87436298250E+02 -0.43828457029E+02  0.18991962484E+03  0.00000000000E+00 0. -1.
    9900018    1    3    3    0    0  0.63191993138E+02 -0.22853766978E+03 -0.85934365800E+03  0.89610791507E+03  0.91187600000E+02 0.  0.
<mgrwt>
<rscale>  0 0.36162307E+04</rscale>
<asrwt>0</asrwt>
<pdfrwt beam="1">  1        2 0.45091570E+00 0.36162307E+04</pdfrwt>
<pdfrwt beam="2">  1       -2 0.17160511E+00 0.36162307E+04</pdfrwt>
<totfact> 0.32469672E-01</totfact>
</mgrwt>
</event>
<event>
11    1  0.2814375E-010  0.2571830E+04  0.7818608E-02  0.8377833E-01
          2   -1    0    0  501    0  0.00000000000E+00  0.00000000000E+00  0.55604374790E+03  0.55604374790E+03  0.00000000000E+00 0. -1.
         -2   -1    0    0    0  501 -0.00000000000E+00 -0.00000000000E+00 -0.29738271164E+04  0.29738271164E+04  0.00000000000E+00 0.  1.
    9900016    2    1    2    0    0 -0.16283374113E+03  0.66344165464E+02 -0.10076682634E+04  0.21088356835E+04  0.18441464788E+04 0.  0.
         24    2    3    3    0    0 -0.53552175620E+03  0.70888987638E+01 -0.95068107487E+03  0.10952118827E+04  0.94131599614E+02 0.  0.
        -15    1    4    4    0    0 -0.33831598213E+03  0.10191756125E+02 -0.68778308343E+03  0.76655537668E+03  0.00000000000E+00 0.  1.
        -15    1    3    3    0    0  0.32972015836E+02  0.89519999185E+01 -0.77835981464E+02  0.85004306605E+02  0.00000000000E+00 0.  1.
         15    1    3    3    0    0  0.40635689372E+02  0.29443939754E+03 -0.28440438329E+03  0.41137777202E+03  0.00000000000E+00 0. -1.
         15    1    3    3    0    0  0.12253413407E+03 -0.12356720130E+03  0.73146619236E+02  0.18876942325E+03  0.00000000000E+00 0. -1.
        -16    1    1    2    0    0  0.16283374113E+03 -0.66344165464E+02 -0.14101151051E+04  0.14210351808E+04  0.00000000000E+00 0.  1.
         16    1    4    4    0    0 -0.19720577407E+03 -0.31028573609E+01 -0.26289799144E+03  0.32865650602E+03  0.00000000000E+00 0. -1.
    9900018    1    3    3    0    0  0.17654617579E+03 -0.12056892947E+03  0.23210655700E+03  0.32847229888E+03  0.91187600000E+02 0.  0.
<mgrwt>
<rscale>  0 0.25718305E+04</rscale>
<asrwt>0</asrwt>
<pdfrwt beam="1">  1        2 0.85545193E-01 0.25718305E+04</pdfrwt>
<pdfrwt beam="2">  1       -2 0.45751186E+00 0.25718305E+04</pdfrwt>
<totfact> 0.14897680E-01</totfact>
</mgrwt>
</event>
<event>
11    1  0.2814375E-010  0.2259335E+04  0.7818608E-02  0.8494130E-01
         -1   -1    0    0    0  501 -0.00000000000E+00  0.00000000000E+00  0.53571341977E+03  0.53571341977E+03  0.00000000000E+00 0.  1.
          1   -1    0    0  501    0  0.00000000000E+00 -0.00000000000E+00 -0.23821472712E+04  0.23821472712E+04  0.00000000000E+00 0. -1.
    9900016    2    1    2    0    0 -0.40494870721E+02 -0.47109713343E+02 -0.20196578441E+04  0.27338343035E+04  0.18414594842E+04 0.  0.
         24    2    3    3    0    0 -0.30499541382E+03 -0.28169194998E+03 -0.55751557821E+03  0.70260858095E+03  0.10228705168E+03 0.  0.
        -15    1    3    3    0    0 -0.53446347585E+02  0.34104040629E+03 -0.23148367720E+03  0.41563176443E+03  0.00000000000E+00 0.  1.
        -15    1    4    4    0    0 -0.19994859392E+03 -0.18827652661E+03 -0.28394804588E+03  0.39503668620E+03  0.00000000000E+00 0.  1.
         15    1    3    3    0    0  0.45800982540E+03  0.24233807684E+03 -0.55842810233E+03  0.76180226380E+03  0.00000000000E+00 0. -1.
         15    1    3    3    0    0 -0.16896679438E+03 -0.13984670487E+03 -0.10784225621E+03  0.24441119183E+03  0.00000000000E+00 0. -1.
        -16    1    1    2    0    0  0.40494870721E+02  0.47109713343E+02  0.17322399270E+03  0.18402638749E+03  0.00000000000E+00 0.  1.
         16    1    4    4    0    0 -0.10504681990E+03 -0.93415423371E+02 -0.27356753234E+03  0.30757189475E+03  0.00000000000E+00 0. -1.
    9900018    1    3    3    0    0  0.28903859654E+02 -0.20894954161E+03 -0.56438823016E+03  0.60938050246E+03  0.91187600000E+02 0.  0.
<mgrwt>
<rscale>  0 0.22593346E+04</rscale>
<asrwt>0</asrwt>
<pdfrwt beam="1">  1        1 0.36648420E+00 0.22593346E+04</pdfrwt>
<pdfrwt beam="2">  1       -1 0.82417449E-01 0.22593346E+04</pdfrwt>
<totfact> 0.21692905E+00</totfact>
</mgrwt>
</event>
<event>
11    1  0.2814375E-010  0.2544376E+04  0.7818608E-02  0.8387345E-01
         -2   -1    0    0    0  501 -0.00000000000E+00  0.00000000000E+00  0.47707341894E+03  0.47707341894E+03  0.00000000000E+00 0.  1.
          2   -1    0    0  501    0  0.00000000000E+00 -0.00000000000E+00 -0.33924814354E+04  0.33924814354E+04  0.00000000000E+00 0. -1.
    9900016    2    1    2    0    0  0.16787790667E+03 -0.42409738873E+03 -0.16347370094E+04  0.25100844372E+04  0.18493558893E+04 0.  0.
        -24    2    3    3    0    0 -0.47014104221E+01 -0.25511173428E+03 -0.78965171566E+03  0.83524899065E+03  0.94799494237E+02 0.  0.
        -15    1    3    3    0    0  0.16108877816E+03  0.36355872592E+03  0.14717388474E+03  0.42401025222E+03  0.00000000000E+00 0.  1.
        -15    1    3    3    0    0  0.18331580746E+02 -0.41796993130E+02 -0.23087107862E+03  0.23533909669E+03  0.00000000000E+00 0.  1.
         15    1    4    4    0    0  0.13540444915E+02 -0.21536881511E+03 -0.53519684112E+03  0.57706388633E+03  0.00000000000E+00 0. -1.
         15    1    3    3    0    0 -0.95749959395E+02 -0.49849321989E+03 -0.72078898065E+03  0.88158964356E+03  0.00000000000E+00 0. -1.
        -16    1    4    4    0    0 -0.18241855337E+02 -0.39742919165E+02 -0.25445487455E+03  0.25818510432E+03  0.00000000000E+00 0.  1.
         16    1    1    2    0    0 -0.16787790667E+03  0.42409738873E+03 -0.12806710070E+04  0.13594704171E+04  0.00000000000E+00 0. -1.
    9900018    1    3    3    0    0  0.88908917588E+02  0.77458326483E+01 -0.40599119211E+02  0.13389645412E+03  0.91187600000E+02 0.  0.
<mgrwt>
<rscale>  0 0.25443763E+04</rscale>
<asrwt>0</asrwt>
<pdfrwt beam="1">  1        2 0.52192022E+00 0.25443763E+04</pdfrwt>
<pdfrwt beam="2">  1       -2 0.73395911E-01 0.25443763E+04</pdfrwt>
<totfact> 0.14371394E+00</totfact>
</mgrwt>
</event>
<event>
11    1  0.2814375E-010  0.2055378E+04  0.7818608E-02  0.8581158E-01
         -2   -1    0    0    0  501 -0.00000000000E+00  0.00000000000E+00  0.97633469380E+03  0.97633469380E+03  0.00000000000E+00 0. -1.
          2   -1    0    0  501    0  0.00000000000E+00 -0.00000000000E+00 -0.10817447551E+04  0.10817447551E+04  0.00000000000E+00 0.  1.
    9900016    2    1    2    0    0 -0.82735642308E+02 -0.16312381978E+03 -0.22200065606E+03  0.18411740919E+04  0.18185662425E+04 0.  0.
        -24    2    3    3    0    0  0.12808369477E+02 -0.26214496166E+03  0.54320502195E+03  0.60703880300E+03  0.67382321288E+02 0.  0.
        -15    1    3    3    0    0  0.10035219685E+03  0.16085048975E+03 -0.60619667384E+03  0.63515183290E+03  0.00000000000E+00 0.  1.
        -15    1    3    3    0    0 -0.92036355433E+02 -0.17987108434E+03 -0.37688283620E+02  0.20553516591E+03  0.00000000000E+00 0.  1.
         15    1    4    4    0    0 -0.46205476527E+01 -0.20353767624E+03  0.46616693545E+03  0.50868511558E+03  0.00000000000E+00 0. -1.
         15    1    3    3    0    0 -0.16754851485E+03  0.27563308767E+02  0.43207311377E+02  0.17521162226E+03  0.00000000000E+00 0. -1.
        -16    1    4    4    0    0  0.17428917130E+02 -0.58607285420E+02  0.77038086504E+02  0.98353687419E+02  0.00000000000E+00 0.  1.
         16    1    1    2    0    0  0.82735642308E+02  0.16312381978E+03  0.11659059480E+03  0.21690535697E+03  0.00000000000E+00 0. -1.
    9900018    1    3    3    0    0  0.63688661644E+02  0.90478427702E+02 -0.16452803193E+03  0.21823666783E+03  0.91187600000E+02 0.  0.
<mgrwt>
<rscale>  0 0.20553782E+04</rscale>
<asrwt>0</asrwt>
<pdfrwt beam="1">  1        2 0.16642227E+00 0.20553782E+04</pdfrwt>
<pdfrwt beam="2">  1       -2 0.15020534E+00 0.20553782E+04</pdfrwt>
<totfact> 0.61741659E+00</totfact>
</mgrwt>
</event>
<event>
10    1  0.2814375E-010  0.2750214E+04  0.7818608E-02  0.8318894E-01
         -1   -1    0    0    0  501 -0.00000000000E+00  0.00000000000E+00  0.93261323971E+03  0.93261323971E+03  0.00000000000E+00 0.  1.
          1   -1    0    0  501    0  0.00000000000E+00 -0.00000000000E+00 -0.20275490163E+04  0.20275490163E+04  0.00000000000E+00 0. -1.
    9900016    2    1    2    0    0 -0.10121053274E+03 -0.66397565473E+02 -0.23289914023E+01  0.18608707589E+04  0.18569282023E+04 0.  0.
        -15    1    3    3    0    0  0.12800278997E+03 -0.86993877518E+01 -0.24878814064E+01  0.12832218492E+03  0.00000000000E+00 0.  1.
        -15    1    3    3    0    0 -0.22144517472E+03  0.34512437703E+03  0.90142808176E+02  0.41985060068E+03  0.00000000000E+00 0.  1.
         15    1    3    3    0    0  0.18998948784E+03  0.19700130639E+02 -0.36137869840E+03  0.40875257099E+03  0.00000000000E+00 0. -1.
         15    1    3    3    0    0 -0.21101420708E+03 -0.19296474871E+03  0.12094394373E+02  0.28619689762E+03  0.00000000000E+00 0. -1.
        -16    1    3    3    0    0 -0.17495502763E+02 -0.22045888149E+02 -0.14797872628E+03  0.15063139524E+03  0.00000000000E+00 0.  1.
         16    1    1    2    0    0  0.10121053274E+03  0.66397565473E+02 -0.10926067852E+04  0.10992914971E+04  0.00000000000E+00 0. -1.
    9900018    1    3    3    0    0  0.30752074015E+02 -0.20751204853E+03  0.40727911213E+03  0.46711710942E+03  0.91187600000E+02 0.  0.
<mgrwt>
<rscale>  0 0.27502139E+04</rscale>
<asrwt>0</asrwt>
<pdfrwt beam="1">  1        1 0.31193062E+00 0.27502139E+04</pdfrwt>
<pdfrwt beam="2">  1       -1 0.14347896E+00 0.27502139E+04</pdfrwt>
<totfact> 0.97496531E-01</totfact>
</mgrwt>
</event>
<event>
12    1  0.2814375E-010  0.2305400E+04  0.7818608E-02  0.8475795E-01
          2   -1    0    0  501    0  0.00000000000E+00  0.00000000000E+00  0.35698474111E+04  0.35698474111E+04  0.00000000000E+00 0. -1.
         -2   -1    0    0    0  501 -0.00000000000E+00 -0.00000000000E+00 -0.37220562076E+03  0.37220562076E+03  0.00000000000E+00 0.  1.
    9900016    2    1    2    0    0  0.40952217344E+03 -0.34669993922E+02  0.25863035434E+04  0.32054087003E+04  0.18484502965E+04 0.  0.
    9900016    2    3    3    0    0  0.41454748073E+03 -0.82881885831E+02  0.24567688415E+04  0.30175731521E+04  0.17003868875E+04 0.  0.
        -24    2    4    4    0    0 -0.33438806145E+03 -0.12341611422E+03  0.30543849087E+03  0.47955035957E+03  0.98127278385E+02 0.  0.
        -15    1    3    3    0    0  0.10889356636E+02  0.67892649630E+02  0.14790621034E+02  0.70333153152E+02  0.00000000000E+00 0.  1.
        -15    1    4    4    0    0  0.36129872664E+03  0.21976165376E+03  0.91839263089E+02  0.43274288507E+03  0.00000000000E+00 0.  1.
         15    1    3    3    0    0 -0.15914663920E+02 -0.19680757722E+02  0.11474408083E+03  0.11750239503E+03  0.00000000000E+00 0. -1.
         15    1    5    5    0    0 -0.11089791847E+03 -0.84567328745E+02  0.14844435759E+03  0.20368040827E+03  0.00000000000E+00 0. -1.
        -16    1    5    5    0    0 -0.22349014299E+03 -0.38848785472E+02  0.15699413328E+03  0.27586995130E+03  0.00000000000E+00 0.  1.
         16    1    1    2    0    0 -0.40952217344E+03  0.34669993922E+02  0.61133824700E+03  0.73664433159E+03  0.00000000000E+00 0. -1.
    9900018    1    4    4    0    0  0.38763681554E+03 -0.17922742537E+03  0.20594910876E+04  0.21052799075E+04  0.91187600000E+02 0.  0.
<mgrwt>
<rscale>  0 0.23054000E+04</rscale>
<asrwt>0</asrwt>
<pdfrwt beam="1">  1        2 0.54920727E+00 0.23054000E+04</pdfrwt>
<pdfrwt beam="2">  1       -2 0.57262406E-01 0.23054000E+04</pdfrwt>
<totfact> 0.18847775E+00</totfact>
</mgrwt>
</event>
<event>
11    1  0.2814375E-010  0.2202338E+04  0.7818608E-02  0.8517456E-01
         -1   -1    0    0    0  501 -0.00000000000E+00  0.00000000000E+00  0.15029057522E+04  0.15029057522E+04  0.00000000000E+00 0.  1.
          1   -1    0    0  501    0  0.00000000000E+00 -0.00000000000E+00 -0.80681894598E+03  0.80681894598E+03  0.00000000000E+00 0. -1.
    9900016    2    1    2    0    0  0.31849062532E+03  0.90667167412E+00  0.52987786555E+03  0.19504719843E+04  0.18499008916E+04 0.  0.
         24    2    3    3    0    0 -0.18052344826E+03 -0.14447771159E+03  0.14687677074E+03  0.29040494810E+03  0.96435074450E+02 0.  0.
        -15    1    3    3    0    0 -0.25676301898E+03 -0.12347785130E+03  0.48944922744E+03  0.56633433052E+03  0.00000000000E+00 0.  1.
        -15    1    4    4    0    0 -0.66841460190E+02 -0.22976104123E+00  0.40895793284E+02  0.78360063163E+02  0.00000000000E+00 0. -1.
         15    1    3    3    0    0 -0.68128996856E+02 -0.56268249711E+02  0.49119605472E+02  0.10109605225E+03  0.00000000000E+00 0.  1.
         15    1    3    3    0    0  0.68787148275E+03  0.37099087883E+03 -0.31592479368E+02  0.78217612704E+03  0.00000000000E+00 0. -1.
        -16    1    1    2    0    0 -0.31849062532E+03 -0.90667167412E+00  0.16620894071E+03  0.35925271390E+03  0.00000000000E+00 0.  1.
         16    1    4    4    0    0 -0.11368198807E+03 -0.14424795055E+03  0.10598097745E+03  0.21204488494E+03  0.00000000000E+00 0. -1.
    9900018    1    3    3    0    0  0.13603460667E+03 -0.45860394563E+02 -0.12397525873E+03  0.21046052640E+03  0.91187600000E+02 0.  0.
<mgrwt>
<rscale>  0 0.22023377E+04</rscale>
<asrwt>0</asrwt>
<pdfrwt beam="1">  1        1 0.12412599E+00 0.22023377E+04</pdfrwt>
<pdfrwt beam="2">  1       -1 0.23121627E+00 0.22023377E+04</pdfrwt>
<totfact> 0.18417914E+00</totfact>
</mgrwt>
</event>
<event>
11    1  0.2814375E-010  0.2503036E+04  0.7818608E-02  0.8401905E-01
          1   -1    0    0  501    0  0.00000000000E+00  0.00000000000E+00  0.10191494562E+04  0.10191494562E+04  0.00000000000E+00 0. -1.
         -1   -1    0    0    0  501 -0.00000000000E+00 -0.00000000000E+00 -0.15368669696E+04  0.15368669696E+04  0.00000000000E+00 0.  1.
    9900016    2    1    2    0    0 -0.36330127862E+03 -0.43524540839E+03 -0.50200630244E+03  0.19888539917E+04  0.18390496154E+04 0.  0.
        -24    2    3    3    0    0 -0.22660699716E+03  0.29629946866E+03 -0.72244281249E+03  0.81847070897E+03  0.93949868671E+02 0.  0.
        -15    1    3    3    0    0 -0.17315430406E+03 -0.36590823951E+03 -0.10520142615E+03  0.41825661120E+03  0.00000000000E+00 0.  1.
        -15    1    3    3    0    0  0.34257038995E+02 -0.99459724604E+02  0.32082875064E+03  0.33763422335E+03  0.00000000000E+00 0.  1.
         15    1    4    4    0    0 -0.21072531686E+03  0.27711619470E+03 -0.60143154996E+03  0.69492334384E+03  0.00000000000E+00 0. -1.
         15    1    3    3    0    0 -0.17099147661E+02  0.37028789071E+02  0.78834827797E+02  0.88760588915E+02  0.00000000000E+00 0. -1.
        -16    1    4    4    0    0 -0.15881680303E+02  0.19183273958E+02 -0.12101126254E+03  0.12354736513E+03  0.00000000000E+00 0.  1.
         16    1    1    2    0    0  0.36330127862E+03  0.43524540839E+03 -0.15711210887E+02  0.56716243416E+03  0.00000000000E+00 0. -1.
    9900018    1    3    3    0    0  0.19302131266E+02 -0.30320570201E+03 -0.74025642235E+02  0.32573185921E+03  0.91187600000E+02 0.  0.
<mgrwt>
<rscale>  0 0.25030359E+04</rscale>
<asrwt>0</asrwt>
<pdfrwt beam="1">  1        1 0.15679222E+00 0.25030359E+04</pdfrwt>
<pdfrwt beam="2">  1       -1 0.23644107E+00 0.25030359E+04</pdfrwt>
<totfact> 0.11110398E+00</totfact>
</mgrwt>
</event>
<event>
10    1  0.2814375E-010  0.2160994E+04  0.7818608E-02  0.8534841E-01
         -2   -1    0    0    0  501 -0.00000000000E+00  0.00000000000E+00  0.64004313282E+03  0.64004313282E+03  0.00000000000E+00 0.  1.
          2   -1    0    0  501    0  0.00000000000E+00 -0.00000000000E+00 -0.18240541300E+04  0.18240541300E+04  0.00000000000E+00 0. -1.
    9900016    2    1    2    0    0  0.26597859085E+03 -0.11229778373E+03 -0.11059823185E+04  0.21650255695E+04  0.18386906822E+04 0.  0.
        -15    1    3    3    0    0  0.36110819608E+02  0.42846632701E+02  0.42709701097E+02  0.70455260942E+02  0.00000000000E+00 0.  1.
        -15    1    3    3    0    0 -0.85629204268E+02  0.11458289268E+03 -0.38657820333E+03  0.41219450167E+03  0.00000000000E+00 0.  1.
         15    1    3    3    0    0  0.11518252042E+03 -0.14540074749E+03  0.29565519080E+02  0.18783639238E+03  0.00000000000E+00 0. -1.
         15    1    3    3    0    0  0.28709481418E+03  0.24516681256E+03 -0.22122117359E+02  0.37817930454E+03  0.00000000000E+00 0. -1.
        -16    1    1    2    0    0 -0.26597859085E+03  0.11229778373E+03 -0.78028678678E+02  0.29907169328E+03  0.00000000000E+00 0.  1.
         16    1    3    3    0    0 -0.14330678806E+03  0.33835032201E+02 -0.67175000860E+03  0.68769885776E+03  0.00000000000E+00 0. -1.
    9900018    1    3    3    0    0  0.56526428968E+02 -0.40332840637E+03 -0.97807209347E+02  0.42866125222E+03  0.91187600000E+02 0.  0.
<mgrwt>
<rscale>  0 0.21609936E+04</rscale>
<asrwt>0</asrwt>
<pdfrwt beam="1">  1        2 0.28062371E+00 0.21609936E+04</pdfrwt>
<pdfrwt beam="2">  1       -2 0.98468174E-01 0.21609936E+04</pdfrwt>
<totfact> 0.65733117E+00</totfact>
</mgrwt>
</event>
<event>
10    1  0.2814375E-010  0.2472968E+04  0.7818608E-02  0.8412680E-01
         -1   -1    0    0    0  501 -0.00000000000E+00  0.00000000000E+00  0.15918537234E+04  0.15918537234E+04  0.00000000000E+00 0.  1.
          1   -1    0    0  501    0  0.00000000000E+00 -0.00000000000E+00 -0.96044809204E+03  0.96044809204E+03  0.00000000000E+00 0. -1.
    9900016    2    1    2    0    0  0.51306478777E+03 -0.11524141700E+03  0.26624999057E+03  0.19121028599E+04  0.18189920915E+04 0.  0.
        -15    1    3    3    0    0 -0.80547639111E+02  0.77117357907E+02  0.81219623791E+01  0.11180776060E+03  0.00000000000E+00 0.  1.
        -15    1    3    3    0    0  0.90099137038E+02 -0.34282051086E+03  0.25341499483E+03  0.43573262073E+03  0.00000000000E+00 0.  1.
         15    1    3    3    0    0  0.14012326904E+03  0.42263706809E+03 -0.74498641401E+02  0.45144952035E+03  0.00000000000E+00 0. -1.
         15    1    3    3    0    0  0.86622091396E+02  0.34696648691E+02  0.14121654034E+03  0.16926120469E+03  0.00000000000E+00 0. -1.
        -16    1    1    2    0    0 -0.51306478777E+03  0.11524141700E+03  0.36515564082E+03  0.64019895553E+03  0.00000000000E+00 0.  1.
         16    1    3    3    0    0  0.64607315682E+02 -0.38731130775E+03  0.14987353714E+03  0.42029303050E+03  0.00000000000E+00 0. -1.
    9900018    1    3    3    0    0  0.21216061373E+03  0.80439326916E+02 -0.21187840273E+03  0.32355872306E+03  0.91187600000E+02 0.  0.
<mgrwt>
<rscale>  0 0.24729682E+04</rscale>
<asrwt>0</asrwt>
<pdfrwt beam="1">  1        1 0.14776125E+00 0.24729682E+04</pdfrwt>
<pdfrwt beam="2">  1       -1 0.24490057E+00 0.24729682E+04</pdfrwt>
<totfact> 0.10900044E+00</totfact>
</mgrwt>
</event>
<event>
11    1  0.2814375E-010  0.2394536E+04  0.7818608E-02  0.8441552E-01
          2   -1    0    0  501    0  0.00000000000E+00  0.00000000000E+00  0.25501622003E+04  0.25501622003E+04  0.00000000000E+00 0. -1.
         -2   -1    0    0    0  501 -0.00000000000E+00 -0.00000000000E+00 -0.56210197466E+03  0.56210197466E+03  0.00000000000E+00 0.  1.
    9900016    2    1    2    0    0  0.20666517964E+03  0.39883819108E+03  0.13203043574E+04  0.23074783036E+04  0.18383335188E+04 0.  0.
        -24    2    3    3    0    0  0.82962661734E+03  0.31955276845E+03  0.87765292977E+03  0.12505707052E+04  0.57080009664E+02 0.  0.
        -15    1    3    3    0    0 -0.41571673951E+03 -0.50183186138E+02  0.21516648819E+03  0.47078166630E+03  0.00000000000E+00 0.  1.
        -15    1    3    3    0    0  0.11022357392E+02  0.69291814181E+02  0.78996180938E+01  0.70606315871E+02  0.00000000000E+00 0.  1.
         15    1    4    4    0    0  0.10658467888E+03  0.33043577612E+02  0.86830290043E+02  0.14139190593E+03  0.00000000000E+00 0. -1.
         15    1    3    3    0    0 -0.11450205496E+01 -0.54833842047E+02  0.24606924712E+03  0.25210738919E+03  0.00000000000E+00 0. -1.
        -16    1    4    4    0    0  0.72304193845E+03  0.28650919083E+03  0.79082263973E+03  0.11091787992E+04  0.00000000000E+00 0.  1.
         16    1    1    2    0    0 -0.20666517964E+03 -0.39883819108E+03  0.66775586831E+03  0.80478587140E+03  0.00000000000E+00 0. -1.
    9900018    1    3    3    0    0 -0.21712203503E+03  0.11501063664E+03 -0.26483925826E+02  0.26341222704E+03  0.91187600000E+02 0.  0.
<mgrwt>
<rscale>  0 0.23945365E+04</rscale>
<asrwt>0</asrwt>
<pdfrwt beam="1">  1        2 0.39233264E+00 0.23945365E+04</pdfrwt>
<pdfrwt beam="2">  1       -2 0.86477228E-01 0.23945365E+04</pdfrwt>
<totfact> 0.33917207E+00</totfact>
</mgrwt>
</event>
<event>
11    1  0.2814375E-010  0.2285081E+04  0.7818608E-02  0.8483827E-01
          2   -1    0    0  501    0  0.00000000000E+00  0.00000000000E+00  0.99593009314E+03  0.99593009314E+03  0.00000000000E+00 0. -1.
         -2   -1    0    0    0  501 -0.00000000000E+00 -0.00000000000E+00 -0.13107332309E+04  0.13107332309E+04  0.00000000000E+00 0.  1.
    9900016    2    1    2    0    0  0.18997956859E+03  0.37473528672E+03 -0.23591230487E+03  0.18791793652E+04  0.18163539576E+04 0.  0.
         24    2    3    3    0    0  0.23033910609E+03  0.16151646373E+03 -0.18292106942E+03  0.34222700569E+03  0.67197722713E+02 0.  0.
        -15    1    3    3    0    0  0.12260454737E+03  0.49025866165E+02 -0.17031537798E+03  0.21550577386E+03  0.00000000000E+00 0.  1.
        -15    1    4    4    0    0  0.75819539736E+01  0.10040537638E+02  0.52498576175E+01  0.13633027071E+02  0.00000000000E+00 0.  1.
         15    1    3    3    0    0 -0.29151053435E+03 -0.77827283586E+02 -0.96627582419E+02  0.31681598348E+03  0.00000000000E+00 0. -1.
         15    1    3    3    0    0 -0.10864352047E+03  0.90982336333E+02 -0.34464226339E+03  0.37263855112E+03  0.00000000000E+00 0. -1.
        -16    1    1    2    0    0 -0.18997956859E+03 -0.37473528672E+03 -0.78890832903E+02  0.42748395890E+03  0.00000000000E+00 0.  1.
         16    1    4    4    0    0  0.22275715211E+03  0.15147592609E+03 -0.18817092704E+03  0.32859397862E+03  0.00000000000E+00 0. -1.
    9900018    1    3    3    0    0  0.23718996995E+03  0.15103790408E+03  0.55859398835E+03  0.63199205100E+03  0.91187600000E+02 0.  0.
<mgrwt>
<rscale>  0 0.22850809E+04</rscale>
<asrwt>0</asrwt>
<pdfrwt beam="1">  1        2 0.15322001E+00 0.22850809E+04</pdfrwt>
<pdfrwt beam="2">  1       -2 0.20165127E+00 0.22850809E+04</pdfrwt>
<totfact> 0.29832698E+00</totfact>
</mgrwt>
</event>
<event>
11    1  0.3505678E-010  0.2455750E+04  0.7818608E-02  0.8418921E-01
          1   -1    0    0  501    0  0.00000000000E+00  0.00000000000E+00  0.16358500329E+04  0.16358500329E+04  0.00000000000E+00 0. -1.
         -1   -1    0    0    0  501 -0.00000000000E+00 -0.00000000000E+00 -0.92164779814E+03  0.92164779814E+03  0.00000000000E+00 0.  1.
    9900016    2    1    2    0    0  0.31646367997E+03  0.11499552704E+03  0.18269383795E+03  0.19283123196E+04  0.18898778086E+04 0.  0.
        -24    2    3    3    0    0 -0.16795498058E+03 -0.64653678517E+02 -0.46408507634E+03  0.50196870499E+03  0.64874101648E+02 0.  0.
        -15    1    3    3    0    0  0.53303344150E+03  0.39907594335E+03  0.58551186889E+03  0.88668506637E+03  0.00000000000E+00 0.  1.
        -15    1    3    3    0    0 -0.26321550017E+02  0.53888423196E+02 -0.12503204935E+03  0.13867155265E+03  0.00000000000E+00 0.  1.
         15    1    3    3    0    0 -0.12118681613E+02 -0.16914276283E+03  0.19916022461E+03  0.26157395078E+03  0.00000000000E+00 0. -1.
         15    1    4    4    0    0 -0.12646970219E+03 -0.32682551191E+02 -0.25608357720E+03  0.28747440449E+03  0.00000000000E+00 0. -1.
        -16    1    4    4    0    0 -0.41485278395E+02 -0.31971127326E+02 -0.20800149913E+03  0.21449430050E+03  0.00000000000E+00 0.  1.
         16    1    1    2    0    0 -0.31646367997E+03 -0.11499552704E+03  0.53150839677E+03  0.62918551145E+03  0.00000000000E+00 0. -1.
    9900018    1    3    3    0    0 -0.10174549323E+02 -0.10417239816E+03 -0.12861129862E+02  0.13941304475E+03  0.91187600000E+02 0.  0.
<mgrwt>
<rscale>  0 0.24557505E+04</rscale>
<asrwt>0</asrwt>
<pdfrwt beam="1">  1        1 0.25166924E+00 0.24557505E+04</pdfrwt>
<pdfrwt beam="2">  1       -1 0.14179197E+00 0.24557505E+04</pdfrwt>
<totfact> 0.19062507E+00</totfact>
</mgrwt>
</event>
<event>
11    1  0.2814375E-010  0.3254397E+04  0.7818608E-02  0.8174597E-01
         -2   -1    0    0    0  501 -0.00000000000E+00  0.00000000000E+00  0.11091893093E+04  0.11091893093E+04  0.00000000000E+00 0.  1.
          2   -1    0    0  501    0  0.00000000000E+00 -0.00000000000E+00 -0.23871264420E+04  0.23871264420E+04  0.00000000000E+00 0. -1.
    9900016    2    1    2    0    0 -0.62255632729E+03  0.69750811946E+02  0.13106524800E+03  0.19543270142E+04  0.18465574518E+04 0.  0.
        -24    2    3    3    0    0  0.87591887735E+02 -0.62007489962E+03 -0.83359130022E+02  0.63545740058E+03  0.68499222347E+02 0.  0.
        -15    1    3    3    0    0 -0.19445012140E+03 -0.42051117176E+02  0.39099383894E+02  0.20275085201E+03  0.00000000000E+00 0.  1.
        -15    1    3    3    0    0 -0.38759765483E+03  0.59609588655E+03  0.12603660849E+03  0.72211320074E+03  0.00000000000E+00 0.  1.
         15    1    4    4    0    0  0.41129672619E+02 -0.33236439227E+03 -0.78510524036E+02  0.34397912961E+03  0.00000000000E+00 0. -1.
         15    1    3    3    0    0 -0.16211251033E+02  0.16696510179E+03 -0.90550828278E+02  0.19062948979E+03  0.00000000000E+00 0. -1.
        -16    1    4    4    0    0  0.46462215116E+02 -0.28771050734E+03 -0.48486059864E+01  0.29147827097E+03  0.00000000000E+00 0.  1.
         16    1    1    2    0    0  0.62255632729E+03 -0.69750811946E+02 -0.14090023807E+04  0.15419887370E+04  0.00000000000E+00 0. -1.
    9900018    1    3    3    0    0 -0.11188918775E+03 -0.31184159606E+02  0.13983921392E+03  0.20337607108E+03  0.91187600000E+02 0.  0.
<mgrwt>
<rscale>  0 0.32543971E+04</rscale>
<asrwt>0</asrwt>
<pdfrwt beam="1">  1        2 0.36725022E+00 0.32543971E+04</pdfrwt>
<pdfrwt beam="2">  1       -2 0.17064451E+00 0.32543971E+04</pdfrwt>
<totfact> 0.71482458E-01</totfact>
</mgrwt>
</event>
<event>
10    1  0.2814375E-010  0.2492785E+04  0.7818608E-02  0.8405560E-01
         -1   -1    0    0    0  501 -0.00000000000E+00  0.00000000000E+00  0.75870548701E+03  0.75870548701E+03  0.00000000000E+00 0.  1.
          1   -1    0    0  501    0  0.00000000000E+00 -0.00000000000E+00 -0.20475596579E+04  0.20475596579E+04  0.00000000000E+00 0. -1.
    9900016    2    1    2    0    0 -0.11147215269E+03 -0.42398064709E+03 -0.13898235764E+04  0.23563979970E+04  0.18517063258E+04 0.  0.
        -15    1    3    3    0    0  0.32712024020E+03  0.16137811890E+03 -0.17587609263E+03  0.40494808157E+03  0.00000000000E+00 0.  1.
        -15    1    3    3    0    0  0.91541343165E+02 -0.83854541758E+02  0.76706154813E+02  0.14592887263E+03  0.00000000000E+00 0.  1.
         15    1    3    3    0    0 -0.13096654165E+03 -0.19165857288E+03 -0.48230158247E+03  0.53525700373E+03  0.00000000000E+00 0. -1.
         15    1    3    3    0    0 -0.32200761159E+03 -0.43317071457E+03 -0.20665670908E+03  0.57795567762E+03  0.00000000000E+00 0. -1.
        -16    1    1    2    0    0  0.11147215269E+03  0.42398064709E+03  0.10096940549E+03  0.44986714792E+03  0.00000000000E+00 0.  1.
         16    1    3    3    0    0 -0.54462057140E+00  0.17634308679E+03 -0.18450976136E+03  0.25522741410E+03  0.00000000000E+00 0. -1.
    9900018    1    3    3    0    0 -0.76614962236E+02 -0.53018023577E+02 -0.41718558567E+03  0.43708094736E+03  0.91187600000E+02 0.  0.
<mgrwt>
<rscale>  0 0.24927854E+04</rscale>
<asrwt>0</asrwt>
<pdfrwt beam="1">  1        1 0.31500917E+00 0.24927854E+04</pdfrwt>
<pdfrwt beam="2">  1       -1 0.11672392E+00 0.24927854E+04</pdfrwt>
<totfact> 0.16282745E+00</totfact>
</mgrwt>
</event>
<event>
11    1  0.2814375E-010  0.2340106E+04  0.7818608E-02  0.8462274E-01
         -2   -1    0    0    0  501 -0.00000000000E+00  0.00000000000E+00  0.56627388393E+03  0.56627388393E+03  0.00000000000E+00 0.  1.
          2   -1    0    0  501    0  0.00000000000E+00 -0.00000000000E+00 -0.24176004282E+04  0.24176004282E+04  0.00000000000E+00 0. -1.
    9900016    2    1    2    0    0 -0.27275039929E+03 -0.43373703943E+02 -0.19434541291E+04  0.26927359422E+04  0.18432413960E+04 0.  0.
         24    2    3    3    0    0 -0.25246444789E+03 -0.76223405366E+02 -0.83663805128E+03  0.87927568885E+03  0.60118243236E+02 0.  0.
        -15    1    3    3    0    0  0.17351749403E+03  0.54214503047E+03 -0.52228669144E+03  0.77253669353E+03  0.00000000000E+00 0.  1.
        -15    1    4    4    0    0 -0.10489090355E+03 -0.62340451898E+02 -0.35930442261E+03  0.37945764151E+03  0.00000000000E+00 0.  1.
         15    1    3    3    0    0  0.13273853107E+03 -0.34747477295E+03 -0.20467367410E+03  0.42455806239E+03  0.00000000000E+00 0. -1.
         15    1    3    3    0    0 -0.21289816029E+03  0.95074786772E+01 -0.31853202864E+03  0.38324753368E+03  0.00000000000E+00 0. -1.
        -16    1    1    2    0    0  0.27275039929E+03  0.43373703943E+02  0.92127584895E+02  0.29113836986E+03  0.00000000000E+00 0.  1.
         16    1    4    4    0    0 -0.14757354433E+03 -0.13882953468E+02 -0.47733362868E+03  0.49981804734E+03  0.00000000000E+00 0. -1.
    9900018    1    3    3    0    0 -0.11364381622E+03 -0.17132803477E+03 -0.61323683646E+02  0.23311796377E+03  0.91187600000E+02 0.  0.
<mgrwt>
<rscale>  0 0.23401060E+04</rscale>
<asrwt>0</asrwt>
<pdfrwt beam="1">  1        2 0.37193853E+00 0.23401060E+04</pdfrwt>
<pdfrwt beam="2">  1       -2 0.87119058E-01 0.23401060E+04</pdfrwt>
<totfact> 0.39971395E+00</totfact>
</mgrwt>
</event>
<event>
11    1  0.2814375E-010  0.2455909E+04  0.7818608E-02  0.8418864E-01
         -1   -1    0    0    0  501 -0.00000000000E+00  0.00000000000E+00  0.77163632170E+03  0.77163632170E+03  0.00000000000E+00 0.  1.
          1   -1    0    0  501    0  0.00000000000E+00 -0.00000000000E+00 -0.19541231553E+04  0.19541231553E+04  0.00000000000E+00 0. -1.
    9900016    2    1    2    0    0 -0.20413434125E+03  0.56223001702E+02 -0.40630207461E+03  0.19212132476E+04  0.18657832435E+04 0.  0.
        -24    2    3    3    0    0 -0.52915970737E+03  0.28219976352E+03  0.89915231746E+01  0.60859701460E+03  0.10326071984E+03 0.  0.
        -15    1    3    3    0    0  0.74875628274E+02 -0.20037818033E+03 -0.15487832115E+03  0.26409291778E+03  0.00000000000E+00 0.  1.
        -15    1    3    3    0    0  0.58988249870E+02  0.30289744306E+03 -0.11383916868E+03  0.32891614578E+03  0.00000000000E+00 0.  1.
         15    1    3    3    0    0  0.38943123418E+03 -0.17167218945E+03 -0.14881898305E+03  0.45086041798E+03  0.00000000000E+00 0. -1.
         15    1    4    4    0    0 -0.26018699443E+03  0.80957400649E+02 -0.18747097911E+01  0.27249749967E+03  0.00000000000E+00 0. -1.
        -16    1    4    4    0    0 -0.26897271294E+03  0.20124236287E+03  0.10866232966E+02  0.33609951493E+03  0.00000000000E+00 0.  1.
         16    1    1    2    0    0  0.20413434125E+03 -0.56223001702E+02 -0.77618475898E+03  0.80454622942E+03  0.00000000000E+00 0. -1.
    9900018    1    3    3    0    0 -0.19826974621E+03 -0.15682383509E+03  0.22428750863E+01  0.26874675142E+03  0.91187600000E+02 0.  0.
<mgrwt>
<rscale>  0 0.24559091E+04</rscale>
<asrwt>0</asrwt>
<pdfrwt beam="1">  1        1 0.30063433E+00 0.24559091E+04</pdfrwt>
<pdfrwt beam="2">  1       -1 0.11871328E+00 0.24559091E+04</pdfrwt>
<totfact> 0.18145583E+00</totfact>
</mgrwt>
</event>
<event>
11    1  0.2814375E-010  0.2723678E+04  0.7818608E-02  0.8327363E-01
          1   -1    0    0  501    0  0.00000000000E+00  0.00000000000E+00  0.13119288148E+04  0.13119288148E+04  0.00000000000E+00 0. -1.
         -1   -1    0    0    0  501 -0.00000000000E+00 -0.00000000000E+00 -0.14136479420E+04  0.14136479420E+04  0.00000000000E+00 0.  1.
    9900016    2    1    2    0    0 -0.69769605533E+03  0.59900798664E+02  0.16463344722E+03  0.19763694523E+04  0.18408052990E+04 0.  0.
         24    2    3    3    0    0  0.14217647580E+02 -0.25872797071E+03 -0.12274851490E+02  0.27534362322E+03  0.92309991516E+02 0.  0.
        -15    1    3    3    0    0 -0.43679569248E+02 -0.28733427331E+03 -0.14788554753E+03  0.32609664910E+03  0.00000000000E+00 0.  1.
        -15    1    4    4    0    0  0.52106351698E+02 -0.12396778996E+03  0.31567478495E+01  0.13451040811E+03  0.00000000000E+00 0.  1.
         15    1    3    3    0    0 -0.25712982658E+03 -0.53080275619E+01 -0.69544606931E+02  0.26642142412E+03  0.00000000000E+00 0. -1.
         15    1    3    3    0    0 -0.34960102051E+03  0.44661069248E+03  0.59818143681E+03  0.82431972894E+03  0.00000000000E+00 0. -1.
        -16    1    1    2    0    0  0.69769605533E+03 -0.59900798664E+02 -0.26635257434E+03  0.74920730453E+03  0.00000000000E+00 0.  1.
         16    1    4    4    0    0 -0.37888704118E+02 -0.13476018076E+03 -0.15431599340E+02  0.14083321510E+03  0.00000000000E+00 0. -1.
    9900018    1    3    3    0    0 -0.61503286564E+02  0.16466037777E+03 -0.20384298364E+03  0.28418802691E+03  0.91187600000E+02 0.  0.
<mgrwt>
<rscale>  0 0.27236780E+04</rscale>
<asrwt>0</asrwt>
<pdfrwt beam="1">  1        1 0.20183520E+00 0.27236780E+04</pdfrwt>
<pdfrwt beam="2">  1       -1 0.21748430E+00 0.27236780E+04</pdfrwt>
<totfact> 0.88434224E-01</totfact>
</mgrwt>
</event>
<event>
11    1  0.2814375E-010  0.2406477E+04  0.7818608E-02  0.8437082E-01
          2   -1    0    0  501    0  0.00000000000E+00  0.00000000000E+00  0.27679799314E+04  0.27679799314E+04  0.00000000000E+00 0. -1.
         -2   -1    0    0    0  501 -0.00000000000E+00 -0.00000000000E+00 -0.52304695409E+03  0.52304695409E+03  0.00000000000E+00 0.  1.
    9900016    2    1    2    0    0 -0.22474468736E+03  0.10797281684E+03  0.11947098231E+04  0.22116117766E+04  0.18443770724E+04 0.  0.
        -24    2    3    3    0    0 -0.25353511746E+03  0.77657880572E+02  0.71875315971E+03  0.76825318072E+03  0.57411173921E+02 0.  0.
        -15    1    3    3    0    0 -0.50595527315E+02 -0.78977215660E+02 -0.21207422352E+03  0.23188959498E+03  0.00000000000E+00 0.  1.
        -15    1    3    3    0    0 -0.33115775869E+03  0.41839294712E+02  0.24708655012E+03  0.41529236807E+03  0.00000000000E+00 0.  1.
         15    1    3    3    0    0  0.51120345678E+03  0.75492524464E+02  0.28843471526E+03  0.59179614771E+03  0.00000000000E+00 0. -1.
         15    1    4    4    0    0 -0.13176529855E+03  0.37508437840E+02  0.28987317645E+03  0.32061727221E+03  0.00000000000E+00 0. -1.
        -16    1    4    4    0    0 -0.12176981890E+03  0.40149442732E+02  0.42887998326E+03  0.44763590851E+03  0.00000000000E+00 0.  1.
         16    1    1    2    0    0  0.22474468736E+03 -0.10797281684E+03  0.10502231542E+04  0.10794151089E+04  0.00000000000E+00 0. -1.
    9900018    1    3    3    0    0 -0.10065974067E+03 -0.80396672526E+01  0.15250962150E+03  0.20438048509E+03  0.91187600000E+02 0.  0.
<mgrwt>
<rscale>  0 0.24064775E+04</rscale>
<asrwt>0</asrwt>
<pdfrwt beam="1">  1        2 0.42584306E+00 0.24064775E+04</pdfrwt>
<pdfrwt beam="2">  1       -2 0.80468764E-01 0.24064775E+04</pdfrwt>
<totfact> 0.29646395E+00</totfact>
</mgrwt>
</event>
<event>
10    1  0.2814375E-010  0.2374454E+04  0.7818608E-02  0.8449130E-01
         -2   -1    0    0    0  501 -0.00000000000E+00  0.00000000000E+00  0.43047893436E+03  0.43047893436E+03  0.00000000000E+00 0.  1.
          2   -1    0    0  501    0  0.00000000000E+00 -0.00000000000E+00 -0.32742791639E+04  0.32742791639E+04  0.00000000000E+00 0. -1.
    9900016    2    1    2    0    0 -0.38614115504E+03  0.70828126909E+02 -0.19230666114E+04  0.27038225305E+04  0.18596638055E+04 0.  0.
        -15    1    3    3    0    0 -0.96591588562E+02 -0.44020184938E+02 -0.60363378846E+02  0.12211244477E+03  0.00000000000E+00 0.  1.
        -15    1    3    3    0    0  0.23555497529E+03 -0.32741581326E+03  0.90939132295E+02  0.41346969289E+03  0.00000000000E+00 0.  1.
         15    1    3    3    0    0 -0.25387028322E+03 -0.43001701461E+01 -0.76894754837E+03  0.80978326996E+03  0.00000000000E+00 0. -1.
         15    1    3    3    0    0  0.72942853728E+02  0.57309467550E+02 -0.73138878843E+02  0.11812844949E+03  0.00000000000E+00 0. -1.
        -16    1    3    3    0    0 -0.40063925437E+02  0.47087939204E+02 -0.27979595856E+03  0.28654523302E+03  0.00000000000E+00 0.  1.
         16    1    1    2    0    0  0.38614115504E+03 -0.70828126909E+02 -0.92073361815E+03  0.10009355677E+04  0.00000000000E+00 0. -1.
    9900018    1    3    3    0    0 -0.30411318684E+03  0.34216688850E+03 -0.83175997905E+03  0.95378344038E+03  0.91187600000E+02 0.  0.
<mgrwt>
<rscale>  0 0.23744542E+04</rscale>
<asrwt>0</asrwt>
<pdfrwt beam="1">  1        2 0.50373525E+00 0.23744542E+04</pdfrwt>
<pdfrwt beam="2">  1       -2 0.66227529E-01 0.23744542E+04</pdfrwt>
<totfact> 0.21920592E+00</totfact>
</mgrwt>
</event>
<event>
11    1  0.2814375E-010  0.2823881E+04  0.7818608E-02  0.8295892E-01
         -2   -1    0    0    0  501 -0.00000000000E+00  0.00000000000E+00  0.56117679298E+03  0.56117679298E+03  0.00000000000E+00 0. -1.
          2   -1    0    0  501    0  0.00000000000E+00 -0.00000000000E+00 -0.35524915287E+04  0.35524915287E+04  0.00000000000E+00 0.  1.
    9900016    2    1    2    0    0  0.77532958369E+03  0.22130805233E+03 -0.20691729972E+04  0.28887362406E+04  0.18474866598E+04 0.  0.
        -24    2    3    3    0    0  0.40475890863E+03 -0.25803614920E+03 -0.76492132168E+03  0.90983469784E+03  0.11082472931E+03 0.  0.
        -15    1    3    3    0    0  0.60322577280E+03  0.20859555023E+03 -0.23627114464E+03  0.68060083040E+03  0.00000000000E+00 0.  1.
        -15    1    3    3    0    0 -0.11273398270E+03  0.30206180406E+03 -0.20935046413E+03  0.38441891363E+03  0.00000000000E+00 0.  1.
         15    1    3    3    0    0 -0.15571430905E+03 -0.78351978235E+01 -0.23401796217E+03  0.28119876064E+03  0.00000000000E+00 0. -1.
         15    1    4    4    0    0  0.33380651741E+03 -0.20815043772E+03 -0.53472549317E+03  0.66384090627E+03  0.00000000000E+00 0. -1.
        -16    1    4    4    0    0  0.70952391218E+02 -0.49885711485E+02 -0.23019582851E+03  0.24599379158E+03  0.00000000000E+00 0.  1.
         16    1    1    2    0    0 -0.77532958369E+03 -0.22130805233E+03 -0.92214173857E+03  0.12249320811E+04  0.00000000000E+00 0. -1.
    9900018    1    3    3    0    0  0.35793194007E+02 -0.23477954936E+02 -0.62461210455E+03  0.63268303806E+03  0.91187600000E+02 0.  0.
<mgrwt>
<rscale>  0 0.28238809E+04</rscale>
<asrwt>0</asrwt>
<pdfrwt beam="1">  1        2 0.54653717E+00 0.28238809E+04</pdfrwt>
<pdfrwt beam="2">  1       -2 0.86334889E-01 0.28238809E+04</pdfrwt>
<totfact> 0.75372843E-01</totfact>
</mgrwt>
</event>
