<event>
13    1  0.2029945E-009  0.6472389E+04  0.7818608E-02  0.7634440E-01
          2   -1    0    0  501    0  0.00000000000E+00  0.00000000000E+00  0.28387018248E+04  0.28387018248E+04  0.00000000000E+00 0. -1.
         -2   -1    0    0    0  501 -0.00000000000E+00 -0.00000000000E+00 -0.36893466685E+04  0.36893466685E+04  0.00000000000E+00 0.  1.
    9900016    2    1    2    0    0  0.98435474914E+03 -0.80346995682E+03 -0.27157574198E+04  0.35166942086E+04  0.18377381614E+04 0.  0.
        -24    2    3    3    0    0  0.11525323431E+04  0.23590545677E+03 -0.14849409785E+04  0.18969738421E+04  0.97354309019E+02 0.  0.
    9900016    2    1    2    0    0 -0.98435474914E+03  0.80346995682E+03  0.18651125760E+04  0.30113542847E+04  0.19937631411E+04 0.  0.
         23    2    5    5    0    0 -0.33332900479E+03  0.99861817797E+02 -0.29541758674E+03  0.46570646320E+03  0.92359900527E+02 0.  0.
        -15    1    3    3    0    0 -0.16817759397E+03 -0.10393754136E+04 -0.12308164413E+04  0.16197203665E+04  0.00000000000E+00 0.  1.
        -15    1    6    6    0    0 -0.15848766864E+03  0.30725307900E+02 -0.19296241477E+03  0.25158871034E+03  0.00000000000E+00 0.  1.
         15    1    6    6    0    0 -0.17484133615E+03  0.69136509897E+02 -0.10245517197E+03  0.21411775286E+03  0.00000000000E+00 0. -1.
         15    1    4    4    0    0  0.54614468733E+03  0.15125784526E+03 -0.76126508894E+03  0.94904029993E+03  0.00000000000E+00 0. -1.
        -16    1    4    4    0    0  0.60638765578E+03  0.84647611511E+02 -0.72367588956E+03  0.94793354216E+03  0.00000000000E+00 0.  1.
         16    1    5    5    0    0 -0.39954538923E+03 -0.43582151721E+02  0.13610018155E+04  0.14191060086E+04  0.00000000000E+00 0. -1.
    9900018    1    5    5    0    0 -0.25148035512E+03  0.74719029074E+03  0.79952834730E+03  0.11265418129E+04  0.91187600000E+02 0.  0.
<mgrwt>
<rscale>  0 0.64723891E+04</rscale>
<asrwt>0</asrwt>
<pdfrwt beam="1">  1        2 0.43672336E+00 0.64723891E+04</pdfrwt>
<pdfrwt beam="2">  1       -2 0.56759179E+00 0.64723891E+04</pdfrwt>
<totfact> 0.10177838E-03</totfact>
</mgrwt>
</event>
<event>
13    1  0.2029945E-009  0.5049389E+04  0.7818608E-02  0.7820933E-01
         -2   -1    0    0    0  501 -0.00000000000E+00  0.00000000000E+00  0.16440970351E+04  0.16440970351E+04  0.00000000000E+00 0.  1.
          2   -1    0    0  501    0  0.00000000000E+00 -0.00000000000E+00 -0.38769496981E+04  0.38769496981E+04  0.00000000000E+00 0. -1.
    9900016    2    1    2    0    0 -0.15564778497E+04 -0.51120240162E+03 -0.75865489482E+03  0.25854334961E+04  0.18506641837E+04 0.  0.
        -24    2    3    3    0    0 -0.51485119696E+02 -0.49434836834E+03  0.43607635450E+03  0.66380139442E+03  0.58640237495E+02 0.  0.
    9900016    2    1    2    0    0  0.15564778497E+04  0.51120240162E+03 -0.14741977681E+04  0.29356132372E+04  0.19392304728E+04 0.  0.
         23    2    5    5    0    0  0.63912920468E+02  0.34813355469E+03  0.35810975383E+03  0.51169538766E+03  0.91146808304E+02 0.  0.
        -15    1    6    6    0    0  0.10984382545E+02  0.17394787949E+03  0.23224255003E+03  0.29037066567E+03  0.00000000000E+00 0.  1.
        -15    1    3    3    0    0 -0.15049927300E+04 -0.16854033284E+02 -0.11947312493E+04  0.19216321016E+04  0.00000000000E+00 0.  1.
         15    1    4    4    0    0 -0.45304880431E+02 -0.39237809013E+03  0.31378082703E+03  0.50445168769E+03  0.00000000000E+00 0. -1.
         15    1    6    6    0    0  0.52928537923E+02  0.17418567521E+03  0.12586720380E+03  0.22132472200E+03  0.00000000000E+00 0. -1.
        -16    1    4    4    0    0 -0.61802392651E+01 -0.10197027821E+03  0.12229552747E+03  0.15934970673E+03  0.00000000000E+00 0.  1.
         16    1    5    5    0    0  0.10743848926E+04  0.33523162305E+03 -0.13056728747E+04  0.17237937215E+04  0.00000000000E+00 0. -1.
    9900018    1    5    5    0    0  0.41818003670E+03 -0.17216277612E+03 -0.52663464724E+03  0.70012412802E+03  0.91187600000E+02 0.  0.
<mgrwt>
<rscale>  0 0.50493887E+04</rscale>
<asrwt>0</asrwt>
<pdfrwt beam="1">  1        2 0.59645380E+00 0.50493887E+04</pdfrwt>
<pdfrwt beam="2">  1       -2 0.25293801E+00 0.50493887E+04</pdfrwt>
<totfact> 0.19080147E-02</totfact>
</mgrwt>
</event>
<event>
12    1  0.2029945E-009  0.5326564E+04  0.7818608E-02  0.7780015E-01
          2   -1    0    0  501    0  0.00000000000E+00  0.00000000000E+00  0.28077043896E+04  0.28077043896E+04  0.00000000000E+00 0. -1.
         -2   -1    0    0    0  501 -0.00000000000E+00 -0.00000000000E+00 -0.25262885938E+04  0.25262885938E+04  0.00000000000E+00 0.  1.
    9900016    2    1    2    0    0 -0.16607963973E+04 -0.52890344825E+03 -0.48494752835E+03  0.25819775486E+04  0.18421320325E+04 0.  0.
    9900016    2    1    2    0    0  0.16607963973E+04  0.52890344825E+03  0.76636332414E+03  0.27520154348E+04  0.19870311215E+04 0.  0.
         23    2    4    4    0    0 -0.25233599562E+03 -0.15932663758E+03  0.50659113463E+03  0.59516918259E+03  0.92376112152E+02 0.  0.
        -15    1    3    3    0    0 -0.17647622637E+04  0.15279631948E+03 -0.59163707986E+03  0.18675564241E+04  0.00000000000E+00 0.  1.
        -15    1    5    5    0    0 -0.15813128707E+03 -0.51147990863E+02  0.23227154732E+03  0.28560758500E+03  0.00000000000E+00 0.  1.
         15    1    5    5    0    0 -0.94204708552E+02 -0.10817864671E+03  0.27431958731E+03  0.30956159759E+03  0.00000000000E+00 0. -1.
         15    1    3    3    0    0  0.89195859772E+02 -0.37659662038E+03 -0.10744696257E+02  0.38716451849E+03  0.00000000000E+00 0. -1.
        -16    1    3    3    0    0  0.14770006642E+02 -0.30510314736E+03  0.11743424777E+03  0.32725660600E+03  0.00000000000E+00 0.  1.
         16    1    4    4    0    0  0.10997105414E+04  0.57298180800E+03 -0.12264645455E+03  0.12460792832E+04  0.00000000000E+00 0. -1.
    9900018    1    4    4    0    0  0.81342185151E+03  0.11524827783E+03  0.38241864406E+03  0.91076696897E+03  0.91187600000E+02 0.  0.
<mgrwt>
<rscale>  0 0.53265642E+04</rscale>
<asrwt>0</asrwt>
<pdfrwt beam="1">  1        2 0.43195452E+00 0.53265642E+04</pdfrwt>
<pdfrwt beam="2">  1       -2 0.38865978E+00 0.53265642E+04</pdfrwt>
<totfact> 0.14288575E-02</totfact>
</mgrwt>
</event>
<event>
12    1  0.2029945E-009  0.4457590E+04  0.7818608E-02  0.7918104E-01
          2   -1    0    0  501    0  0.00000000000E+00  0.00000000000E+00  0.28976050155E+04  0.28976050155E+04  0.00000000000E+00 0. -1.
         -2   -1    0    0    0  501 -0.00000000000E+00 -0.00000000000E+00 -0.17143565717E+04  0.17143565717E+04  0.00000000000E+00 0.  1.
    9900016    2    1    2    0    0  0.98115619635E+03 -0.23094859019E+03 -0.26667996273E+03  0.21182526297E+04  0.18438739837E+04 0.  0.
    9900016    2    1    2    0    0 -0.98115619635E+03  0.23094859019E+03  0.14499284065E+04  0.24937089576E+04  0.17607632573E+04 0.  0.
         23    2    4    4    0    0 -0.18920319430E+03 -0.28606858868E+03  0.13422296279E+04  0.13883633122E+04  0.91319365166E+02 0.  0.
        -15    1    3    3    0    0  0.89681008565E+03  0.73769251499E+02 -0.16964838974E+01  0.89984060269E+03  0.00000000000E+00 0.  1.
        -15    1    5    5    0    0 -0.87219203280E+02 -0.16574415361E+03  0.88773094775E+03  0.90727313940E+03  0.00000000000E+00 0.  1.
         15    1    5    5    0    0 -0.10198399102E+03 -0.12032443507E+03  0.45449868017E+03  0.48109017281E+03  0.00000000000E+00 0. -1.
         15    1    3    3    0    0 -0.49613694702E+03 -0.23722378336E+03 -0.31174806339E+03  0.63215017885E+03  0.00000000000E+00 0. -1.
        -16    1    4    4    0    0 -0.14822998265E+03  0.33971074356E+03  0.20644169893E+03  0.42425663472E+03  0.00000000000E+00 0.  1.
         16    1    3    3    0    0  0.58048305772E+03 -0.67494058328E+02  0.46764584559E+02  0.58626184813E+03  0.00000000000E+00 0. -1.
    9900018    1    4    4    0    0 -0.64372301940E+03  0.17730643531E+03 -0.98742920345E+02  0.68108901065E+03  0.91187600000E+02 0.  0.
<mgrwt>
<rscale>  0 0.44575905E+04</rscale>
<asrwt>0</asrwt>
<pdfrwt beam="1">  1        2 0.44578539E+00 0.44575905E+04</pdfrwt>
<pdfrwt beam="2">  1       -2 0.26374717E+00 0.44575905E+04</pdfrwt>
<totfact> 0.81088743E-02</totfact>
</mgrwt>
</event>
<event>
12    1  0.2029945E-009  0.4218022E+04  0.7818608E-02  0.7961953E-01
          2   -1    0    0  501    0  0.00000000000E+00  0.00000000000E+00  0.21537319634E+04  0.21537319634E+04  0.00000000000E+00 0. -1.
         -2   -1    0    0    0  501 -0.00000000000E+00 -0.00000000000E+00 -0.20652183343E+04  0.20652183343E+04  0.00000000000E+00 0.  1.
    9900016    2    1    2    0    0 -0.93137485818E+02  0.58624142908E+03  0.80370518651E+03  0.20904239804E+04  0.18361853901E+04 0.  0.
    9900016    2    1    2    0    0  0.93137485818E+02 -0.58624142908E+03 -0.71519155740E+03  0.21285263172E+04  0.19148816451E+04 0.  0.
         23    2    4    4    0    0 -0.11420680084E+03 -0.42535958699E+03  0.12671190579E+03  0.46717535078E+03  0.90680371070E+02 0.  0.
        -15    1    3    3    0    0 -0.31413015584E+03 -0.93151961122E+02 -0.72111685349E+01  0.32773013841E+03  0.00000000000E+00 0.  1.
        -15    1    5    5    0    0  0.66525204681E+00 -0.13155584107E+03  0.60676839230E+02  0.14487601837E+03  0.00000000000E+00 0. -1.
         15    1    5    5    0    0 -0.11487205288E+03 -0.29380374593E+03  0.66035066563E+02  0.32229933241E+03  0.00000000000E+00 0.  1.
         15    1    3    3    0    0  0.63730993972E+03  0.78847884798E+03  0.86009562170E+03  0.13295214671E+04  0.00000000000E+00 0. -1.
        -16    1    4    4    0    0  0.76635245576E+03  0.11595504511E+03 -0.30376885921E+03  0.83247653346E+03  0.00000000000E+00 0.  1.
         16    1    3    3    0    0 -0.41631726970E+03 -0.10908545778E+03 -0.49179266655E+02  0.43317237494E+03  0.00000000000E+00 0. -1.
    9900018    1    4    4    0    0 -0.55900816910E+03 -0.27683688719E+03 -0.53813460398E+03  0.82887443297E+03  0.91187600000E+02 0.  0.
<mgrwt>
<rscale>  0 0.42180217E+04</rscale>
<asrwt>0</asrwt>
<pdfrwt beam="1">  1        2 0.33134338E+00 0.42180217E+04</pdfrwt>
<pdfrwt beam="2">  1       -2 0.31772590E+00 0.42180217E+04</pdfrwt>
<totfact> 0.10509767E-01</totfact>
</mgrwt>
</event>
<event>
13    1  0.2029945E-009  0.5347111E+04  0.7818608E-02  0.7777084E-01
          2   -1    0    0  501    0  0.00000000000E+00  0.00000000000E+00  0.35824645618E+04  0.35824645618E+04  0.00000000000E+00 0. -1.
         -2   -1    0    0    0  501 -0.00000000000E+00 -0.00000000000E+00 -0.19952460144E+04  0.19952460144E+04  0.00000000000E+00 0.  1.
    9900016    2    1    2    0    0 -0.13997420208E+03  0.80158956356E+02 -0.30915197338E+03  0.18737491550E+04  0.18410167619E+04 0.  0.
        -24    2    3    3    0    0 -0.97547161958E+03  0.20229362220E+03 -0.11126959089E+03  0.10064947237E+04  0.90460581153E+02 0.  0.
    9900016    2    1    2    0    0  0.54018692850E+03 -0.86891288414E+03  0.17768551673E+04  0.28067980677E+04  0.19167914830E+04 0.  0.
         23    2    5    5    0    0  0.14783696539E+03  0.12999035446E+03 -0.35784279602E+03  0.41751332780E+03  0.86675553877E+02 0.  0.
        -15    1    6    6    0    0  0.59394341977E+02  0.10546744877E+03 -0.23299890020E+03  0.26256343634E+03  0.00000000000E+00 0. -1.
        -15    1    3    3    0    0  0.83549741751E+03 -0.12213466584E+03 -0.19788238249E+03  0.86725443127E+03  0.00000000000E+00 0.  1.
         15    1    6    6    0    0  0.88442623418E+02  0.24522905690E+02 -0.12484389582E+03  0.15494989146E+03  0.00000000000E+00 0.  1.
         15    1    4    4    0    0 -0.61225331073E+03  0.84037037178E+02 -0.81636234560E+02  0.62336250683E+03  0.00000000000E+00 0. -1.
        -16    1    4    4    0    0 -0.36321830885E+03  0.11825658502E+03 -0.29633356328E+02  0.38313221685E+03  0.00000000000E+00 0.  1.
         16    1    5    5    0    0  0.39234996311E+03 -0.99890323859E+03  0.21346979633E+04  0.23892847399E+04  0.00000000000E+00 0. -1.
    9900018    1    1    2    0    0 -0.40021272643E+03  0.78875392778E+03  0.11951535345E+03  0.89716335362E+03  0.91187600000E+02 0.  0.
<mgrwt>
<rscale>  0 0.53471107E+04</rscale>
<asrwt>0</asrwt>
<pdfrwt beam="1">  1        2 0.55114839E+00 0.53471107E+04</pdfrwt>
<pdfrwt beam="2">  1       -2 0.30696093E+00 0.53471107E+04</pdfrwt>
<totfact> 0.14466293E-02</totfact>
</mgrwt>
</event>
