<event>
11    1  0.3964877E-013  0.2692004E+04  0.7818608E-02  0.8337604E-01
          1   -1    0    0  501    0  0.00000000000E+00  0.00000000000E+00  0.21275149811E+04  0.21275149811E+04  0.00000000000E+00 0. -1.
         -1   -1    0    0    0  501 -0.00000000000E+00 -0.00000000000E+00 -0.85156717613E+03  0.85156717613E+03  0.00000000000E+00 0.  1.
         23    2    1    2    0    0  0.11785046584E+03 -0.27327594434E+03  0.15794320300E+03  0.34174530024E+03  0.57230418588E+02 0.  0.
    9900016    2    1    2    0    0 -0.16151458320E+03 -0.26587962465E+01  0.80026727152E+03  0.22142487487E+04  0.20582458030E+04 0.  0.
        -15    1    4    4    0    0  0.58794088035E+03 -0.28254556318E+03 -0.25554136711E+03  0.70057680833E+03  0.00000000000E+00 0.  1.
        -15    1    3    3    0    0  0.75463649309E+02 -0.22800292354E+03  0.11478081309E+03  0.26618551907E+03  0.00000000000E+00 0. -1.
         15    1    3    3    0    0  0.42386816530E+02 -0.45273020794E+02  0.43162389909E+02  0.75559781167E+02  0.00000000000E+00 0.  1.
         15    1    4    4    0    0 -0.36421633629E+03  0.14872992702E+03  0.26246512646E+03  0.47292924779E+03  0.00000000000E+00 0. -1.
        -16    1    4    4    0    0 -0.43629866913E+03  0.17006773802E+03  0.35278957747E+03  0.58629348468E+03  0.00000000000E+00 0.  1.
         16    1    1    2    0    0  0.43664117361E+02  0.27593474058E+03  0.31773733048E+03  0.42308810830E+03  0.00000000000E+00 0. -1.
    9900018    1    4    4    0    0  0.51059541862E+02 -0.38910898116E+02  0.44055393470E+03  0.45444920793E+03  0.91187600000E+02 0.  0.
<mgrwt>
<rscale>  0 0.26920044E+04</rscale>
<asrwt>0</asrwt>
<pdfrwt beam="1">  1        1 0.32731000E+00 0.26920044E+04</pdfrwt>
<pdfrwt beam="2">  1       -1 0.13101034E+00 0.26920044E+04</pdfrwt>
<totfact> 0.10603859E+00</totfact>
</mgrwt>
</event>
<event>
10    1  0.3964877E-013  0.2795534E+04  0.7818608E-02  0.8304656E-01
          2   -1    0    0  501    0  0.00000000000E+00  0.00000000000E+00  0.68048276056E+03  0.68048276056E+03  0.00000000000E+00 0. -1.
         -2   -1    0    0    0  501 -0.00000000000E+00 -0.00000000000E+00 -0.28711275704E+04  0.28711275704E+04  0.00000000000E+00 0.  1.
    9900016    2    1    2    0    0  0.19975251897E+03  0.30906158393E+03 -0.23330640777E+04  0.31570176557E+04  0.20947917214E+04 0.  0.
        -15    1    3    3    0    0 -0.70637278522E+02  0.24874240568E+03 -0.70472041868E+02  0.26800880244E+03  0.00000000000E+00 0.  1.
        -15    1    3    3    0    0  0.35644547585E+03  0.58863965665E+03 -0.88420542872E+03  0.11204326231E+04  0.00000000000E+00 0.  1.
         15    1    3    3    0    0  0.42958111953E+02 -0.39373122278E+03 -0.87721251853E+03  0.96248193637E+03  0.00000000000E+00 0. -1.
         15    1    3    3    0    0 -0.89566803055E+02  0.68016865417E+02 -0.15655077752E+03  0.19276060836E+03  0.00000000000E+00 0. -1.
        -16    1    3    3    0    0  0.76638509531E+02 -0.13007745389E+03 -0.40956356692E+03  0.43650420445E+03  0.00000000000E+00 0.  1.
         16    1    1    2    0    0 -0.19975251897E+03 -0.30906158393E+03  0.14241926786E+03  0.39459267524E+03  0.00000000000E+00 0. -1.
    9900018    1    3    3    0    0 -0.11608549678E+03 -0.72528667145E+02  0.64940255896E+02  0.17682948100E+03  0.91187600000E+02 0.  0.
<mgrwt>
<rscale>  0 0.27955342E+04</rscale>
<asrwt>0</asrwt>
<pdfrwt beam="1">  1        2 0.10468965E+00 0.27955342E+04</pdfrwt>
<pdfrwt beam="2">  1       -2 0.44171194E+00 0.27955342E+04</pdfrwt>
<totfact> 0.14539063E-01</totfact>
</mgrwt>
</event>
<event>
12    1  0.3964877E-013  0.3034506E+04  0.7818608E-02  0.8233946E-01
          2   -1    0    0  501    0  0.00000000000E+00  0.00000000000E+00  0.12166297923E+04  0.12166297923E+04  0.00000000000E+00 0. -1.
         -2   -1    0    0    0  501 -0.00000000000E+00 -0.00000000000E+00 -0.18921586173E+04  0.18921586173E+04  0.00000000000E+00 0.  1.
    9900016    2    1    2    0    0  0.30888384930E+03  0.19735377794E+03  0.88867253267E+01  0.23323977916E+04  0.23033980851E+04 0.  0.
         23    2    3    3    0    0  0.33109049623E+03 -0.27956534171E+02  0.18139360588E+03  0.38374007576E+03  0.62851579146E+02 0.  0.
         24    2    3    3    0    0  0.41400912301E+02  0.44416056709E+03 -0.96266739627E+03  0.10625297525E+04  0.56993984250E+02 0.  0.
        -15    1    4    4    0    0  0.22937159387E+03 -0.65542635762E+01  0.94133364064E+02  0.24802293578E+03  0.00000000000E+00 0. -1.
        -15    1    5    5    0    0  0.85455673084E+01  0.26735531834E+03 -0.62828842575E+03  0.68286033630E+03  0.00000000000E+00 0.  1.
         15    1    3    3    0    0 -0.12588422812E+03 -0.13342007244E+03  0.69087281021E+03  0.71480976107E+03  0.00000000000E+00 0. -1.
         15    1    4    4    0    0  0.10171890236E+03 -0.21402270594E+02  0.87260241813E+02  0.13571713998E+03  0.00000000000E+00 0.  1.
        -16    1    1    2    0    0 -0.30888384930E+03 -0.19735377794E+03 -0.68441555034E+03  0.77639061791E+03  0.00000000000E+00 0.  1.
         16    1    5    5    0    0  0.32855344992E+02  0.17680524875E+03 -0.33437897053E+03  0.37966941622E+03  0.00000000000E+00 0. -1.
    9900018    1    3    3    0    0  0.62276668897E+02 -0.85430182539E+02  0.99287705507E+02  0.17131820229E+03  0.91187600000E+02 0.  0.
<mgrwt>
<rscale>  0 0.30345059E+04</rscale>
<asrwt>0</asrwt>
<pdfrwt beam="1">  1        2 0.18717381E+00 0.30345059E+04</pdfrwt>
<pdfrwt beam="2">  1       -2 0.29110133E+00 0.30345059E+04</pdfrwt>
<totfact> 0.56927867E-01</totfact>
</mgrwt>
</event>
<event>
12    1  0.3964877E-013  0.2538260E+04  0.7818608E-02  0.8389480E-01
          2   -1    0    0  501    0  0.00000000000E+00  0.00000000000E+00  0.20662857435E+04  0.20662857435E+04  0.00000000000E+00 0. -1.
         -2   -1    0    0    0  501 -0.00000000000E+00 -0.00000000000E+00 -0.77951055776E+03  0.77951055776E+03  0.00000000000E+00 0.  1.
    9900016    2    1    2    0    0  0.25315660065E+03 -0.26547392840E+03  0.98458493494E+03  0.23705241489E+04  0.21249500172E+04 0.  0.
         23    2    3    3    0    0 -0.20583132636E+02 -0.53034103543E+01  0.20545591824E+02  0.11220366804E+03  0.10823931942E+03 0.  0.
         24    2    3    3    0    0 -0.27421285680E+03  0.17128314035E+03  0.74099925220E+03  0.81131850962E+03  0.68023725909E+02 0.  0.
        -15    1    4    4    0    0 -0.24271711217E+02  0.48938975425E+02  0.16707944230E+01  0.54652820925E+02  0.00000000000E+00 0.  1.
        -15    1    5    5    0    0 -0.23802864415E+03  0.11731424740E+03  0.60055786483E+03  0.65657445662E+03  0.00000000000E+00 0.  1.
         15    1    4    4    0    0  0.36885785801E+01 -0.54242385779E+02  0.18874797401E+02  0.57550847117E+02  0.00000000000E+00 0. -1.
         15    1    3    3    0    0  0.31707050915E+03  0.42648543558E+03  0.24087137222E+02  0.53198094394E+03  0.00000000000E+00 0. -1.
        -16    1    1    2    0    0 -0.25315660065E+03  0.26547392840E+03  0.30219025081E+03  0.47527215235E+03  0.00000000000E+00 0.  1.
         16    1    5    5    0    0 -0.36184212647E+02  0.53968892953E+02  0.14044138737E+03  0.15474405300E+03  0.00000000000E+00 0. -1.
    9900018    1    3    3    0    0  0.23088208094E+03 -0.85793909398E+03  0.19895295370E+03  0.91502102733E+03  0.91187600000E+02 0.  0.
<mgrwt>
<rscale>  0 0.25382605E+04</rscale>
<asrwt>0</asrwt>
<pdfrwt beam="1">  1        2 0.31789011E+00 0.25382605E+04</pdfrwt>
<pdfrwt beam="2">  1       -2 0.11992470E+00 0.25382605E+04</pdfrwt>
<totfact> 0.29014152E+00</totfact>
</mgrwt>
</event>
