<event>
12    1  0.4025579E-011  0.6576680E+03  0.7818608E-02  0.9792496E-01
         -1   -1    0    0    0  501 -0.00000000000E+00  0.00000000000E+00  0.76337906486E+02  0.76337906486E+02  0.00000000000E+00 0.  1.
          1   -1    0    0  501    0  0.00000000000E+00 -0.00000000000E+00 -0.14164889975E+04  0.14164889975E+04  0.00000000000E+00 0. -1.
    9900016    2    1    2    0    0 -0.59608232232E+02  0.83870566217E+01 -0.99104271595E+03  0.11385669124E+04  0.55726606321E+03 0.  0.
         23    2    3    3    0    0  0.28561072096E+02 -0.26968025891E+02 -0.11445894100E+03  0.15074646736E+03  0.89892374457E+02 0.  0.
         23    2    3    3    0    0  0.16993104162E+02  0.80364913416E+01 -0.11944658130E+03  0.15095399389E+03  0.90367426124E+02 0.  0.
        -15    1    4    4    0    0 -0.72725650937E+00  0.30120482556E+02 -0.18641152026E+02  0.35429718038E+02  0.00000000000E+00 0. -1.
        -15    1    5    5    0    0 -0.22979332719E+02 -0.66749241826E+00  0.17341385134E+01  0.23054338306E+02  0.00000000000E+00 0.  1.
         15    1    4    4    0    0  0.29288328605E+02 -0.57088508447E+02 -0.95817788978E+02  0.11531674932E+03  0.00000000000E+00 0.  1.
         15    1    5    5    0    0  0.39972436881E+02  0.87039837599E+01 -0.12118071981E+03  0.12789965558E+03  0.00000000000E+00 0. -1.
        -16    1    3    3    0    0 -0.14361950618E+03 -0.10257003281E+03 -0.26538329734E+03  0.31870906591E+03  0.00000000000E+00 0.  1.
         16    1    1    2    0    0  0.59608232232E+02 -0.83870566217E+01 -0.34910837510E+03  0.35425999157E+03  0.00000000000E+00 0. -1.
    9900018    1    3    3    0    0  0.38457097685E+02  0.12988862398E+03 -0.49175389631E+03  0.51815738529E+03  0.91187600000E+02 0.  0.
<mgrwt>
<rscale>  0 0.65766802E+03</rscale>
<asrwt>0</asrwt>
<pdfrwt beam="1">  1        1 0.21792137E+00 0.65766802E+03</pdfrwt>
<pdfrwt beam="2">  1       -1 0.11744294E-01 0.65766802E+03</pdfrwt>
<totfact> 0.37334309E+02</totfact>
</mgrwt>
</event>
<event>
12    1  0.4025579E-011  0.7930978E+03  0.7818608E-02  0.9570062E-01
         -1   -1    0    0    0  501 -0.00000000000E+00  0.00000000000E+00  0.13642900469E+03  0.13642900469E+03  0.00000000000E+00 0.  1.
          1   -1    0    0  501    0  0.00000000000E+00 -0.00000000000E+00 -0.11526215691E+04  0.11526215691E+04  0.00000000000E+00 0. -1.
    9900016    2    1    2    0    0  0.12497333008E+03  0.92093689921E+02 -0.90483420970E+03  0.10980001508E+04  0.60231204804E+03 0.  0.
         23    2    3    3    0    0  0.41983710437E+02  0.89770363924E+02 -0.13616782268E+03  0.19170439626E+03  0.91583565290E+02 0.  0.
         23    2    3    3    0    0 -0.23613911821E+02 -0.10740168976E+03 -0.34677304637E+03  0.37489893348E+03  0.90581040223E+02 0.  0.
        -15    1    4    4    0    0  0.94017902951E+01 -0.89621147494E+01 -0.63603223850E+02  0.64915970651E+02  0.00000000000E+00 0. -1.
        -15    1    5    5    0    0 -0.57806046071E+02 -0.60143817040E+02 -0.18523642527E+03  0.20315351569E+03  0.00000000000E+00 0. -1.
         15    1    4    4    0    0  0.32581920142E+02  0.98732478674E+02 -0.72564598832E+02  0.12678842561E+03  0.00000000000E+00 0.  1.
         15    1    5    5    0    0  0.34192134250E+02 -0.47257872718E+02 -0.16153662110E+03  0.17174541780E+03  0.00000000000E+00 0.  1.
        -16    1    1    2    0    0 -0.12497333008E+03 -0.92093689921E+02 -0.11135835472E+03  0.19105042298E+03  0.00000000000E+00 0.  1.
         16    1    3    3    0    0 -0.71162217784E+02 -0.15836580036E+02 -0.41866892129E+02  0.84069585248E+02  0.00000000000E+00 0. -1.
    9900018    1    3    3    0    0  0.17776574925E+03  0.12556159579E+03 -0.38002644852E+03  0.44732723583E+03  0.91187600000E+02 0.  0.
<mgrwt>
<rscale>  0 0.79309776E+03</rscale>
<asrwt>0</asrwt>
<pdfrwt beam="1">  1        1 0.17732639E+00 0.79309776E+03</pdfrwt>
<pdfrwt beam="2">  1       -1 0.20989079E-01 0.79309776E+03</pdfrwt>
<totfact> 0.22080308E+02</totfact>
</mgrwt>
</event>
<event>
12    1  0.4025579E-011  0.2056741E+04  0.7818608E-02  0.8580542E-01
         -2   -1    0    0    0  501 -0.00000000000E+00  0.00000000000E+00  0.67594754916E+03  0.67594754916E+03  0.00000000000E+00 0.  1.
          2   -1    0    0  501    0  0.00000000000E+00 -0.00000000000E+00 -0.15645382279E+04  0.15645382279E+04  0.00000000000E+00 0. -1.
    9900016    2    1    2    0    0 -0.15562720108E+03  0.78460035715E+03 -0.89122658655E+03  0.14405954757E+04  0.80075773482E+03 0.  0.
         23    2    3    3    0    0 -0.14571217048E+03  0.32663793993E+03 -0.59064045739E+02  0.37348864016E+03  0.89893394634E+02 0.  0.
         23    2    3    3    0    0 -0.50611432222E+02  0.13435687340E+03 -0.36275797155E+03  0.40076447538E+03  0.91681690129E+02 0.  0.
        -15    1    5    5    0    0 -0.26320744302E+02  0.36187315011E+02 -0.22761602626E+03  0.23197275435E+03  0.00000000000E+00 0. -1.
        -15    1    4    4    0    0 -0.31542437270E+02  0.15253792907E+03  0.44236305197E+01  0.15582783340E+03  0.00000000000E+00 0. -1.
         15    1    4    4    0    0 -0.11416973321E+03  0.17410001086E+03 -0.63487676259E+02  0.21766080676E+03  0.00000000000E+00 0.  1.
         15    1    5    5    0    0 -0.24290687921E+02  0.98169558388E+02 -0.13514194528E+03  0.16879172103E+03  0.00000000000E+00 0.  1.
        -16    1    1    2    0    0  0.15562720108E+03 -0.78460035715E+03  0.26359078251E+01  0.79989030133E+03  0.00000000000E+00 0.  1.
         16    1    3    3    0    0 -0.59346173940E+02 -0.25076196592E+02  0.21429535566E+01  0.64462207895E+02  0.00000000000E+00 0. -1.
    9900018    1    3    3    0    0  0.10004257556E+03  0.34868174041E+03 -0.47154752282E+03  0.60188015227E+03  0.91187600000E+02 0.  0.
<mgrwt>
<rscale>  0 0.20567409E+04</rscale>
<asrwt>0</asrwt>
<pdfrwt beam="1">  1        2 0.24069819E+00 0.20567409E+04</pdfrwt>
<pdfrwt beam="2">  1       -2 0.10399193E+00 0.20567409E+04</pdfrwt>
<totfact> 0.81230845E+00</totfact>
</mgrwt>
</event>
<event>
12    1  0.4025579E-011  0.2247952E+04  0.7818608E-02  0.8498730E-01
          2   -1    0    0  501    0  0.00000000000E+00  0.00000000000E+00  0.74440152418E+03  0.74440152418E+03  0.00000000000E+00 0. -1.
         -2   -1    0    0    0  501 -0.00000000000E+00 -0.00000000000E+00 -0.16970975066E+04  0.16970975066E+04  0.00000000000E+00 0.  1.
    9900016    2    1    2    0    0 -0.95166865865E+02 -0.45341602580E+03  0.51647662957E+02  0.91332782501E+03  0.78540270564E+03 0.  0.
         23    2    3    3    0    0  0.15742544297E+03 -0.21139884241E+03 -0.52366147031E+02  0.28478094642E+03  0.94264168284E+02 0.  0.
         23    2    3    3    0    0  0.19401371574E+02 -0.72522117207E+02 -0.16839626432E+03  0.20793257994E+03  0.96139405351E+02 0.  0.
        -15    1    5    5    0    0 -0.32886136093E+02 -0.47330941420E+02 -0.11692409918E+03  0.13035705171E+03  0.00000000000E+00 0.  1.
        -15    1    4    4    0    0  0.34142630782E+02 -0.11439750869E+03  0.57860793157E-01  0.11938388744E+03  0.00000000000E+00 0. -1.
         15    1    4    4    0    0  0.12328281219E+03 -0.97001333721E+02 -0.52424007824E+02  0.16539705899E+03  0.00000000000E+00 0.  1.
         15    1    5    5    0    0  0.52287507667E+02 -0.25191175788E+02 -0.51472165141E+02  0.77575528228E+02  0.00000000000E+00 0. -1.
        -16    1    1    2    0    0  0.27753929421E+03  0.48243075337E+03 -0.11488577562E+04  0.12765741794E+04  0.00000000000E+00 0.  1.
         16    1    3    3    0    0 -0.27199368041E+03 -0.16949506618E+03  0.27241007431E+03  0.42061429865E+03  0.00000000000E+00 0. -1.
    9900018    1    1    2    0    0 -0.18237242834E+03 -0.29014727568E+02  0.14451411082E+03  0.25159702633E+03  0.91187600000E+02 0.  0.
<mgrwt>
<rscale>  0 0.22479519E+04</rscale>
<asrwt>0</asrwt>
<pdfrwt beam="1">  1        2 0.11452331E+00 0.22479519E+04</pdfrwt>
<pdfrwt beam="2">  1       -2 0.26109192E+00 0.22479519E+04</pdfrwt>
<totfact> 0.18939884E+00</totfact>
</mgrwt>
</event>
<event>
12    1  0.4025579E-011  0.1976358E+04  0.7818608E-02  0.8617754E-01
         -1   -1    0    0    0  501 -0.00000000000E+00  0.00000000000E+00  0.68187374093E+03  0.68187374093E+03  0.00000000000E+00 0.  1.
          1   -1    0    0  501    0  0.00000000000E+00 -0.00000000000E+00 -0.14320803766E+04  0.14320803766E+04  0.00000000000E+00 0. -1.
    9900016    2    1    2    0    0 -0.28372294057E+03  0.10086781751E+03 -0.21777082399E+03  0.70946939549E+03  0.60435888985E+03 0.  0.
         23    2    3    3    0    0 -0.29506482855E+03 -0.43874333170E+01 -0.82923329281E+02  0.31978429040E+03  0.91121957996E+02 0.  0.
         23    2    3    3    0    0  0.10619683892E+03 -0.77195779424E+02 -0.62599111792E+02  0.17172715274E+03  0.91294081046E+02 0.  0.
        -15    1    5    5    0    0  0.94753804492E+02 -0.60652722531E+02 -0.71365723472E+01  0.11272961847E+03  0.00000000000E+00 0.  1.
        -15    1    4    4    0    0 -0.95954764539E+02  0.37291666394E+02 -0.89830835212E+01  0.10333770372E+03  0.00000000000E+00 0. -1.
         15    1    4    4    0    0 -0.19911006401E+03 -0.41679099711E+02 -0.73940245760E+02  0.21644658668E+03  0.00000000000E+00 0.  1.
         15    1    5    5    0    0  0.11443034431E+02 -0.16543056893E+02 -0.55462539445E+02  0.58997534271E+02  0.00000000000E+00 0. -1.
        -16    1    3    3    0    0 -0.94854950940E+02  0.18245103025E+03 -0.72248382916E+02  0.21795795234E+03  0.00000000000E+00 0.  1.
         16    1    1    2    0    0 -0.75430833993E+02 -0.42864105697E+03 -0.74755710065E+03  0.86502288130E+03  0.00000000000E+00 0. -1.
    9900018    1    1    2    0    0  0.35915377456E+03  0.32777323946E+03  0.21512128894E+03  0.53946184077E+03  0.91187600000E+02 0.  0.
<mgrwt>
<rscale>  0 0.19763583E+04</rscale>
<asrwt>0</asrwt>
<pdfrwt beam="1">  1        1 0.22032005E+00 0.19763583E+04</pdfrwt>
<pdfrwt beam="2">  1       -1 0.10490365E+00 0.19763583E+04</pdfrwt>
<totfact> 0.57852719E+00</totfact>
</mgrwt>
</event>
<event>
12    1  0.4025579E-011  0.8315097E+03  0.7818608E-02  0.9515496E-01
         -1   -1    0    0    0  501 -0.00000000000E+00  0.00000000000E+00  0.12021155199E+03  0.12021155199E+03  0.00000000000E+00 0.  1.
          1   -1    0    0  501    0  0.00000000000E+00 -0.00000000000E+00 -0.14378991233E+04  0.14378991233E+04  0.00000000000E+00 0. -1.
    9900016    2    1    2    0    0 -0.64429518487E+02 -0.96571672481E+02 -0.78024936521E+03  0.10082769949E+04  0.62797784647E+03 0.  0.
         23    2    3    3    0    0 -0.29637865226E+02 -0.23742144324E+02 -0.28702142841E+03  0.30349139992E+03  0.91014487800E+02 0.  0.
         23    2    3    3    0    0  0.12321309940E+03 -0.52878830739E+02 -0.18636259149E+03  0.24729793069E+03  0.91910893871E+02 0.  0.
        -15    1    4    4    0    0  0.41180075480E+01 -0.53001894374E+02 -0.13672385125E+03  0.14669550196E+03  0.00000000000E+00 0. -1.
        -15    1    5    5    0    0  0.63660565322E+02 -0.73967268492E+02 -0.94795175461E+02  0.13605127591E+03  0.00000000000E+00 0. -1.
         15    1    4    4    0    0 -0.33755872774E+02  0.29259750050E+02 -0.15029757716E+03  0.15679589796E+03  0.00000000000E+00 0.  1.
         15    1    5    5    0    0  0.59552534080E+02  0.21088437753E+02 -0.91567416027E+02  0.11124665478E+03  0.00000000000E+00 0.  1.
        -16    1    3    3    0    0 -0.20073755289E+03  0.78568106278E+01 -0.97058984141E+02  0.22310925802E+03  0.00000000000E+00 0.  1.
         16    1    1    2    0    0  0.64429518487E+02  0.96571672481E+02 -0.53743820612E+03  0.54983368047E+03  0.00000000000E+00 0. -1.
    9900018    1    3    3    0    0  0.42732800227E+02 -0.27807508046E+02 -0.20980636118E+03  0.23437840622E+03  0.91187600000E+02 0.  0.
<mgrwt>
<rscale>  0 0.83150968E+03</rscale>
<asrwt>0</asrwt>
<pdfrwt beam="1">  1        1 0.22121526E+00 0.83150968E+03</pdfrwt>
<pdfrwt beam="2">  1       -1 0.18494084E-01 0.83150968E+03</pdfrwt>
<totfact> 0.17050765E+02</totfact>
</mgrwt>
</event>
<event>
12    1  0.4025579E-011  0.9418264E+03  0.7818608E-02  0.9374756E-01
         -4   -1    0    0    0  501 -0.00000000000E+00  0.00000000000E+00  0.28157453961E+03  0.28157453961E+03  0.00000000000E+00 0. -1.
          4   -1    0    0  501    0  0.00000000000E+00 -0.00000000000E+00 -0.78756845402E+03  0.78756845402E+03  0.00000000000E+00 0.  1.
    9900016    2    1    2    0    0 -0.91738466564E+02 -0.40532589821E+02 -0.11348631439E+03  0.66402442684E+03  0.64652181619E+03 0.  0.
         23    2    3    3    0    0 -0.60625212085E+02 -0.39102023643E+02 -0.10943056417E+03  0.16208494465E+03  0.95352484563E+02 0.  0.
         23    2    3    3    0    0  0.20008559395E+02 -0.88109005820E+02  0.88467163592E+01  0.12935761771E+03  0.92149821022E+02 0.  0.
        -15    1    5    5    0    0 -0.14644402003E+02 -0.27820636374E+02  0.41883844604E+02  0.52370819710E+02  0.00000000000E+00 0.  1.
        -15    1    4    4    0    0 -0.82407769160E+02 -0.30170543033E+02 -0.57088119477E+02  0.10469171634E+03  0.00000000000E+00 0. -1.
         15    1    4    4    0    0  0.21782557075E+02 -0.89314806104E+01 -0.52342444697E+02  0.57393228306E+02  0.00000000000E+00 0.  1.
         15    1    5    5    0    0  0.34652961398E+02 -0.60288369446E+02 -0.33037128245E+02  0.76986798003E+02  0.00000000000E+00 0. -1.
        -16    1    1    2    0    0  0.91738466564E+02  0.40532589821E+02 -0.39250760001E+03  0.40511856679E+03  0.00000000000E+00 0.  1.
         16    1    3    3    0    0 -0.16273658583E+03 -0.52361256230E+02  0.85948877858E+01  0.17116883366E+03  0.00000000000E+00 0. -1.
    9900018    1    3    3    0    0  0.11161477196E+03  0.13903969587E+03 -0.21497354362E+02  0.20141303082E+03  0.91187600000E+02 0.  0.
<mgrwt>
<rscale>  0 0.94182636E+03</rscale>
<asrwt>0</asrwt>
<pdfrwt beam="1">  1        4 0.12116438E+00 0.94182636E+03</pdfrwt>
<pdfrwt beam="2">  1       -4 0.43319160E-01 0.94182636E+03</pdfrwt>
<totfact> 0.53280919E+00</totfact>
</mgrwt>
</event>
<event>
12    1  0.4025579E-011  0.1218305E+04  0.7818608E-02  0.9096983E-01
          2   -1    0    0  501    0  0.00000000000E+00  0.00000000000E+00  0.37955889860E+03  0.37955889860E+03  0.00000000000E+00 0. -1.
         -2   -1    0    0    0  501 -0.00000000000E+00 -0.00000000000E+00 -0.97762628320E+03  0.97762628320E+03  0.00000000000E+00 0.  1.
    9900016    2    1    2    0    0  0.23244674273E+03 -0.18467728188E+03 -0.20744897867E+03  0.86655301235E+03  0.78723684988E+03 0.  0.
         23    2    3    3    0    0  0.80304788373E+01 -0.20914966227E+03  0.38321524592E+02  0.23195680249E+03  0.92343647077E+02 0.  0.
         23    2    3    3    0    0 -0.83561967173E+02  0.60089761907E+02 -0.84696502106E+02  0.16187555273E+03  0.91852138026E+02 0.  0.
        -15    1    5    5    0    0 -0.64734839448E+02  0.13802998955E+02 -0.31848980003E+01  0.66266626546E+02  0.00000000000E+00 0.  1.
        -15    1    4    4    0    0 -0.32761557849E+01 -0.19120860376E+02  0.36783572691E+02  0.41585715313E+02  0.00000000000E+00 0.  1.
         15    1    4    4    0    0  0.11306634622E+02 -0.19002880190E+03  0.15379519015E+01  0.19037108718E+03  0.00000000000E+00 0. -1.
         15    1    5    5    0    0 -0.18827127726E+02  0.46286762952E+02 -0.81511604106E+02  0.95608926188E+02  0.00000000000E+00 0. -1.
        -16    1    1    2    0    0 -0.23244674273E+03  0.18467728188E+03 -0.39061840593E+03  0.49063216945E+03  0.00000000000E+00 0.  1.
         16    1    3    3    0    0  0.22275083790E+03  0.82561203433E+02 -0.58852606047E+00  0.23755974924E+03  0.00000000000E+00 0. -1.
    9900018    1    3    3    0    0  0.85227393175E+02 -0.11817858495E+03 -0.16048547509E+03  0.23516090788E+03  0.91187600000E+02 0.  0.
<mgrwt>
<rscale>  0 0.12183050E+04</rscale>
<asrwt>0</asrwt>
<pdfrwt beam="1">  1        2 0.58393678E-01 0.12183050E+04</pdfrwt>
<pdfrwt beam="2">  1       -2 0.15040404E+00 0.12183050E+04</pdfrwt>
<totfact> 0.24708698E+01</totfact>
</mgrwt>
</event>
<event>
12    1  0.4025579E-011  0.1267075E+04  0.7818608E-02  0.9056091E-01
         -2   -1    0    0    0  501 -0.00000000000E+00  0.00000000000E+00  0.22844721186E+03  0.22844721186E+03  0.00000000000E+00 0.  1.
          2   -1    0    0  501    0  0.00000000000E+00 -0.00000000000E+00 -0.17569468332E+04  0.17569468332E+04  0.00000000000E+00 0. -1.
    9900016    2    1    2    0    0  0.15474177902E+03 -0.22098044149E+03 -0.71556643194E+03  0.10934363617E+04  0.78153079591E+03 0.  0.
         23    2    3    3    0    0  0.22105525667E+01  0.19677205948E+03 -0.48645027687E+03  0.53314390015E+03  0.94257182565E+02 0.  0.
         23    2    3    3    0    0  0.66585642592E+02 -0.11112179763E+03 -0.17719945651E+03  0.23764036536E+03  0.91058191031E+02 0.  0.
        -15    1    5    5    0    0  0.87746908474E+02 -0.10372944822E+03 -0.15442955985E+03  0.20568861741E+03  0.00000000000E+00 0.  1.
        -15    1    4    4    0    0 -0.40978634425E+02  0.10908785191E+03 -0.21367887483E+03  0.24338872090E+03  0.00000000000E+00 0. -1.
         15    1    4    4    0    0  0.43189186992E+02  0.87684207575E+02 -0.27277140204E+03  0.28975517925E+03  0.00000000000E+00 0.  1.
         15    1    5    5    0    0 -0.21161265883E+02 -0.73923494128E+01 -0.22769896657E+02  0.31951747955E+02  0.00000000000E+00 0. -1.
        -16    1    3    3    0    0  0.85945583861E+02 -0.30663070333E+03 -0.51916698568E+02  0.32265209623E+03  0.00000000000E+00 0.  1.
         16    1    1    2    0    0 -0.19042242091E+03  0.14388426082E+03 -0.59194567346E+03  0.63824999743E+03  0.00000000000E+00 0. -1.
    9900018    1    1    2    0    0  0.35680641892E+02  0.77096180667E+02 -0.22098751591E+03  0.25370768585E+03  0.91187600000E+02 0.  0.
<mgrwt>
<rscale>  0 0.12670747E+04</rscale>
<asrwt>0</asrwt>
<pdfrwt beam="1">  1        2 0.27029951E+00 0.12670747E+04</pdfrwt>
<pdfrwt beam="2">  1       -2 0.35145725E-01 0.12670747E+04</pdfrwt>
<totfact> 0.68068241E+01</totfact>
</mgrwt>
</event>
<event>
12    1  0.4025579E-011  0.1722029E+04  0.7818608E-02  0.8748899E-01
         -1   -1    0    0    0  501 -0.00000000000E+00  0.00000000000E+00  0.63833515345E+03  0.63833515345E+03  0.00000000000E+00 0.  1.
          1   -1    0    0  501    0  0.00000000000E+00 -0.00000000000E+00 -0.11613740471E+04  0.11613740471E+04  0.00000000000E+00 0. -1.
    9900016    2    1    2    0    0  0.59960353811E+02  0.24828469901E+03 -0.15802479797E+03  0.68978307193E+03  0.62095757806E+03 0.  0.
         23    2    3    3    0    0  0.12980008329E+03  0.65988797601E+02 -0.13387146135E+03  0.21803409392E+03  0.91731755217E+02 0.  0.
         23    2    3    3    0    0 -0.24229513770E+03  0.10793359131E+03 -0.38906661731E+02  0.28336564119E+03  0.91791962569E+02 0.  0.
        -15    1    4    4    0    0  0.56916786961E+02 -0.72729520229E+01 -0.12677940792E+02  0.58763480597E+02  0.00000000000E+00 0. -1.
        -15    1    5    5    0    0 -0.11374559235E+03  0.35027241026E+02  0.26214131975E+02  0.12186938955E+03  0.00000000000E+00 0. -1.
         15    1    4    4    0    0  0.72883296326E+02  0.73261749624E+02 -0.12119352056E+03  0.15927061332E+03  0.00000000000E+00 0.  1.
         15    1    5    5    0    0 -0.12854954535E+03  0.72906350285E+02 -0.65120793705E+02  0.16149625164E+03  0.00000000000E+00 0.  1.
        -16    1    3    3    0    0  0.17245540823E+03  0.74362310101E+02  0.14753325111E+02  0.18838333682E+03  0.00000000000E+00 0.  1.
         16    1    1    2    0    0 -0.28985756692E+03 -0.56247776258E+03 -0.31535174181E+03  0.70699742826E+03  0.00000000000E+00 0. -1.
    9900018    1    1    2    0    0  0.22989721311E+03  0.31419306357E+03 -0.49662353883E+02  0.40292870037E+03  0.91187600000E+02 0.  0.
<mgrwt>
<rscale>  0 0.17220289E+04</rscale>
<asrwt>0</asrwt>
<pdfrwt beam="1">  1        1 0.17867293E+00 0.17220289E+04</pdfrwt>
<pdfrwt beam="2">  1       -1 0.98205409E-01 0.17220289E+04</pdfrwt>
<totfact> 0.10765761E+01</totfact>
</mgrwt>
</event>
<event>
12    1  0.4025579E-011  0.2304981E+04  0.7818608E-02  0.8475960E-01
          2   -1    0    0  501    0  0.00000000000E+00  0.00000000000E+00  0.13172795918E+04  0.13172795918E+04  0.00000000000E+00 0. -1.
         -2   -1    0    0    0  501 -0.00000000000E+00 -0.00000000000E+00 -0.10083163855E+04  0.10083163855E+04  0.00000000000E+00 0.  1.
    9900016    2    1    2    0    0 -0.51887087241E+02  0.22890154080E+02 -0.33144625645E+03  0.85816885764E+03  0.78954476651E+03 0.  0.
         23    2    3    3    0    0  0.14506577935E+03 -0.88769941693E+01 -0.13085971462E+03  0.21659067714E+03  0.93082625394E+02 0.  0.
         23    2    3    3    0    0  0.55766188525E+02  0.14983839148E+03  0.11725777429E+03  0.21869196816E+03  0.92278816447E+02 0.  0.
        -15    1    4    4    0    0  0.72516764591E+02 -0.48725903077E+02 -0.48967477575E+02  0.10015342549E+03  0.00000000000E+00 0.  1.
        -15    1    5    5    0    0  0.40796895465E+02  0.12612249436E+03  0.43066806355E+02  0.13937725809E+03  0.00000000000E+00 0.  1.
         15    1    4    4    0    0  0.72549014756E+02  0.39848908908E+02 -0.81892237048E+02  0.11643725165E+03  0.00000000000E+00 0. -1.
         15    1    5    5    0    0  0.14969293059E+02  0.23715897114E+02  0.74190967933E+02  0.79314710070E+02  0.00000000000E+00 0. -1.
        -16    1    3    3    0    0 -0.25271905511E+03 -0.11807124323E+03 -0.31784431612E+03  0.42288621234E+03  0.00000000000E+00 0.  1.
         16    1    1    2    0    0  0.58013172016E+03  0.70889116384E+02  0.70909731077E+03  0.91891080943E+03  0.00000000000E+00 0. -1.
    9900018    1    1    2    0    0 -0.52824463292E+03 -0.93779270464E+02 -0.68687848019E+02  0.54851631027E+03  0.91187600000E+02 0.  0.
<mgrwt>
<rscale>  0 0.23049812E+04</rscale>
<asrwt>0</asrwt>
<pdfrwt beam="1">  1        2 0.20265840E+00 0.23049812E+04</pdfrwt>
<pdfrwt beam="2">  1       -2 0.15512560E+00 0.23049812E+04</pdfrwt>
<totfact> 0.40102907E+00</totfact>
</mgrwt>
</event>
<event>
12    1  0.4025579E-011  0.1105531E+04  0.7818608E-02  0.9199817E-01
          2   -1    0    0  501    0  0.00000000000E+00  0.00000000000E+00  0.18984456230E+04  0.18984456230E+04  0.00000000000E+00 0. -1.
         -2   -1    0    0    0  501 -0.00000000000E+00 -0.00000000000E+00 -0.16094736782E+03  0.16094736782E+03  0.00000000000E+00 0.  1.
    9900016    2    1    2    0    0  0.23568707665E+02 -0.17366375864E+03  0.13807156472E+04  0.15336191165E+04  0.64412522924E+03 0.  0.
         23    2    3    3    0    0 -0.12077773539E+02  0.10438440234E+03  0.57278693267E+02  0.15066637708E+03  0.91528861100E+02 0.  0.
         23    2    3    3    0    0 -0.47961053416E+01 -0.14011510065E+03  0.27152463780E+03  0.32126509570E+03  0.99148316803E+02 0.  0.
        -15    1    5    5    0    0 -0.14229240337E+02 -0.50203461338E+02  0.23407090957E+02  0.57190477512E+02  0.00000000000E+00 0.  1.
        -15    1    4    4    0    0 -0.42418073600E+02  0.58108815600E+02  0.62212077035E+02  0.95111881210E+02  0.00000000000E+00 0.  1.
         15    1    4    4    0    0  0.30340300061E+02  0.46275586740E+02 -0.49333837678E+01  0.55554495869E+02  0.00000000000E+00 0. -1.
         15    1    5    5    0    0  0.94331349958E+01 -0.89911639316E+02  0.24811754684E+03  0.26407461818E+03  0.00000000000E+00 0. -1.
        -16    1    1    2    0    0  0.37384547777E+02  0.71614118724E+02 -0.48129328999E+02  0.94035199383E+02  0.00000000000E+00 0.  1.
         16    1    3    3    0    0  0.40442586546E+02 -0.13793306033E+03  0.10519123161E+04  0.10616876437E+04  0.00000000000E+00 0. -1.
    9900018    1    1    2    0    0 -0.60953255442E+02  0.10204963992E+03  0.40491193700E+03  0.43173867498E+03  0.91187600000E+02 0.  0.
<mgrwt>
<rscale>  0 0.11055312E+04</rscale>
<asrwt>0</asrwt>
<pdfrwt beam="1">  1        2 0.29206854E+00 0.11055312E+04</pdfrwt>
<pdfrwt beam="2">  1       -2 0.24761135E-01 0.11055312E+04</pdfrwt>
<totfact> 0.11037995E+02</totfact>
</mgrwt>
</event>
